FOO
138240
    1MOL0     O    1   3.914   4.342   7.851  1.2204 -0.3537  0.0690
    1MOL0     C    2   3.857   4.363   7.747  0.6581 -0.0630  0.2343
    1MOL0     O    3   3.918   4.386   7.626  0.3078  0.0350  0.1596
    1MOL0     C    4   4.044   4.334   7.615 -0.5595 -0.0047 -0.2942
    1MOL0     C    5   4.059   4.205   7.571  0.1726 -0.3344 -0.3099
    1MOL0     C    6   4.187   4.153   7.560  0.2269  0.0567  0.2933
    1MOL0     C    7   4.306   4.223   7.605  0.4768 -0.6308  0.6759
    1MOL0     O    8   4.422   4.152   7.608 -0.1724  0.3876 -0.5405
    1MOL0     C    9   4.528   4.225   7.669  1.2021 -0.3785 -0.6641
    1MOL0     C   10   4.651   4.143   7.678 -0.1175  0.7320 -0.0310
    1MOL0     C   11   4.772   4.222   7.717 -0.3505 -1.0925  0.2176
    1MOL0     C   12   4.896   4.133   7.718 -0.0262  0.6163 -0.2879
    1MOL0     C   13   5.016   4.227   7.706 -0.2915 -0.7376 -0.3858
    1MOL0     C   14   5.141   4.155   7.745 -0.5467  0.1196  0.0213
    1MOL0     C   15   5.274   4.228   7.741  0.6304  0.2198  0.7207
    1MOL0     C   16   5.309   4.244   7.595 -0.1280 -1.4541  0.3819
    1MOL0     N   17   5.449   4.270   7.579  0.8882  0.7425  0.4647
    1MOL0     C   18   5.548   4.175   7.552 -0.4502  0.1759  0.2162
    1MOL0     C   19   5.659   4.256   7.553 -0.6989  0.7077 -0.3864
    1MOL0     C   20   5.799   4.189   7.546 -0.4234 -0.8448 -0.1428
    1MOL0     C   21   5.819   4.133   7.409  0.0648 -0.5094  0.8553
    1MOL0     C   22   5.952   4.054   7.400 -0.1444  0.0794 -0.2500
    1MOL0     C   23   5.985   4.046   7.251 -0.6192  0.7326  0.1663
    1MOL0     O   24   6.108   3.982   7.224  0.1708  0.5402 -0.2063
    1MOL0     C   25   6.224   4.057   7.222  0.9992 -0.6708  0.1753
    1MOL0     C   26   6.329   3.979   7.175 -0.5225 -0.6690  0.2312
    1MOL0     C   27   6.459   4.030   7.173 -0.0787 -0.1786  0.3154
    1MOL0     C   28   6.480   4.163   7.208 -0.5668  0.8517 -0.4847
    1MOL0     C   29   6.610   4.237   7.183 -0.1958 -0.1240  0.0028
    1MOL0     O   30   6.615   4.368   7.213 -0.5565 -0.8130  0.3577
    1MOL0     C   31   6.716   4.460   7.181 -0.9451  0.6460  0.0480
    1MOL0     C   32   6.850   4.420   7.176 -0.2012  0.0863  0.2984
    1MOL0     C   33   6.951   4.504   7.112  0.6050 -0.0191  0.3591
    1MOL0     C   34   6.913   4.627   7.065  0.0067  0.2875  0.5279
    1MOL0     O   35   7.019   4.700   7.015  0.7063 -0.0291  0.0955
    1MOL0     C   36   7.029   4.840   7.035 -0.3820 -0.8377  0.9444
    1MOL0     C   37   7.049   4.924   6.910  0.1604 -0.6168  0.0398
    1MOL0     C   38   6.910   4.944   6.843 -0.0980  0.1108 -0.6929
    1MOL0     C   39   6.933   5.012   6.708 -0.4635  0.3784  0.1758
    1MOL0     C   40   6.783   5.026   6.658 -0.8342  0.5878  0.0236
    1MOL0     C   41   6.773   5.104   6.536 -0.1825 -0.9081 -0.0968
    1MOL0     C   42   6.643   5.076   6.455  1.2022  0.8243  0.8451
    1MOL0     C   43   6.662   5.067   6.302  1.5017  0.5025 -0.3648
    1MOL0    Cl   44   6.515   5.051   6.199  0.0113 -0.7128 -0.0388
    1MOL0     C   45   6.781   4.672   7.079  0.1616  0.7114 -0.0447
    1MOL0     C   46   6.682   4.588   7.134  0.2407  0.5541  0.3701
    1MOL0     O   47   6.695   4.173   7.127 -0.4133  0.2396  0.0526
    1MOL0     C   48   6.368   4.248   7.247 -0.4563 -0.8700  0.1270
    1MOL0     C   49   6.242   4.194   7.255 -0.3493  0.8225  0.7151
    1MOL0     N   50   5.621   4.390   7.559 -0.5619 -0.6753  0.3840
    1MOL0     N   51   5.498   4.400   7.581  0.0442  0.0299  0.8532
    1MOL0     C   52   4.276   4.362   7.636  0.0972  0.0617 -0.3678
    1MOL0     C   53   4.153   4.417   7.638  0.8232 -0.5209  0.5782
    1MOL0     C   54   3.708   4.359   7.741 -0.3255 -0.7916  0.2317
    1MOL0     C   55   3.632   4.401   7.858 -0.2669  0.1057  0.0268
    1MOL0     C   56   3.494   4.412   7.856 -0.0446  0.3192  0.3290
    1MOL0     C   57   3.428   4.379   7.741  0.4270 -0.0088 -0.2567
    1MOL0     O   58   3.290   4.389   7.742 -0.0876  0.7801  0.0078
    1MOL0     C   59   3.219   4.394   7.614 -0.1224  0.2407 -0.4656
    1MOL0     C   60   3.068   4.411   7.635  0.4035  0.8811 -0.6250
    1MOL0     C   61   2.997   4.457   7.514 -0.0583  0.5634  0.0877
    1MOL0     C   62   2.853   4.492   7.533  0.4535  0.4294  0.5172
    1MOL0     C   63   2.750   4.388   7.525 -0.5960 -0.2471  0.7500
    1MOL0     C   64   2.691   4.288   7.502  0.0923  0.0109  0.8026
    1MOL0     C   65   3.500   4.330   7.631  1.0808  1.3320  0.1818
    1MOL0     C   66   3.637   4.314   7.627  0.6266  0.3672 -0.1008
    1MOL0     C   67   3.701   4.231   7.508 -0.0498 -0.1368 -0.3880
    1MOL0     H   68   3.981   4.157   7.512 -1.1311  1.9464 -0.5630
    1MOL0     H   69   4.212   4.057   7.516 -1.7079  0.7229 -2.4992
    1MOL0     H   70   4.549   4.316   7.610  1.3877  1.1513  1.6331
    1MOL0     H   71   4.490   4.252   7.768  1.2612 -1.4423 -0.3466
    1MOL0     H   72   4.663   4.111   7.574 -0.4826  1.8030 -0.4098
    1MOL0     H   73   4.624   4.061   7.745 -1.7033  1.8218  0.7041
    1MOL0     H   74   4.755   4.260   7.818  1.5787 -0.2522  0.2744
    1MOL0     H   75   4.784   4.312   7.656  0.2949 -0.9849  0.4933
    1MOL0     H   76   4.898   4.076   7.812 -1.1727  0.8048 -0.1366
    1MOL0     H   77   4.893   4.068   7.631 -2.4934  1.2532 -0.7617
    1MOL0     H   78   5.032   4.257   7.601 -0.9472 -0.2682 -0.3608
    1MOL0     H   79   5.013   4.317   7.768  1.4465 -0.0179 -1.2820
    1MOL0     H   80   5.132   4.125   7.850 -1.8282  2.3676  0.6212
    1MOL0     H   81   5.142   4.074   7.673 -0.3700  1.0971 -1.1068
    1MOL0     H   82   5.352   4.169   7.791 -1.1668 -2.1406  0.9232
    1MOL0     H   83   5.258   4.331   7.775  0.3233  0.4039  0.0201
    1MOL0     H   84   5.284   4.157   7.534  3.5546 -1.3821 -1.5118
    1MOL0     H   85   5.245   4.322   7.551 -0.6978 -1.4029  1.2775
    1MOL0     H   86   5.543   4.067   7.543  3.1637 -0.0244 -0.9047
    1MOL0     H   87   5.868   4.268   7.575  0.9682 -1.2717 -2.0713
    1MOL0     H   88   5.805   4.114   7.625 -3.6793 -0.5952  0.4547
    1MOL0     H   89   5.733   4.075   7.375 -0.5803  0.8783  0.0097
    1MOL0     H   90   5.830   4.214   7.336  0.8757 -1.7285 -0.4435
    1MOL0     H   91   5.945   3.956   7.448  1.8017  0.2688  0.5147
    1MOL0     H   92   6.023   4.113   7.458  0.4148 -0.4771 -0.3666
    1MOL0     H   93   5.982   4.142   7.199  3.7567  3.3377  4.0128
    1MOL0     H   94   5.907   3.977   7.216 -1.8254  0.8767  2.3778
    1MOL0     H   95   6.326   3.879   7.134  3.0791 -0.2637 -1.4058
    1MOL0     H   96   6.539   3.962   7.145 -1.0844 -1.4130  0.3622
    1MOL0     H   97   6.887   4.322   7.204 -0.6943 -0.2012 -0.0323
    1MOL0     H   98   7.050   4.460   7.107  0.6921 -0.3687  3.3011
    1MOL0     H   99   6.941   4.880   7.086  0.0615  0.6302  0.6148
    1MOL0     H  100   7.113   4.854   7.104 -2.5748  0.8990  3.4612
    1MOL0     H  101   7.089   5.021   6.939 -2.2182  1.1256 -2.0989
    1MOL0     H  102   7.116   4.874   6.839 -1.5357 -1.4199 -1.0589
    1MOL0     H  103   6.870   4.843   6.836  0.8753 -0.5817  2.3355
    1MOL0     H  104   6.843   5.000   6.909 -0.0727 -1.5659  0.8300
    1MOL0     H  105   7.001   4.953   6.645  0.5998  0.2925  1.3636
    1MOL0     H  106   6.978   5.111   6.722  1.1139 -0.3058  0.1019
    1MOL0     H  107   6.724   5.085   6.728 -0.8628  1.2298 -0.5312
    1MOL0     H  108   6.739   4.926   6.647 -1.7683  1.2204 -2.7148
    1MOL0     H  109   6.773   5.211   6.555 -1.9986 -0.8039 -0.5524
    1MOL0     H  110   6.858   5.087   6.468  0.0325  1.5654 -0.5155
    1MOL0     H  111   6.582   5.164   6.477  2.3331  1.2927  2.2161
    1MOL0     H  112   6.597   4.981   6.484  0.5854  0.3382 -1.4626
    1MOL0     H  113   6.700   5.164   6.270 -3.0259  2.2477 -1.1299
    1MOL0     H  114   6.737   4.991   6.275 -0.2239 -1.8002  0.9184
    1MOL0     H  115   6.753   4.771   7.043  0.3983  0.7551 -0.1080
    1MOL0     H  116   6.579   4.623   7.143 -0.0791 -0.7538  2.4117
    1MOL0     H  117   6.385   4.355   7.257  0.8206 -0.8397 -1.8598
    1MOL0     H  118   6.154   4.251   7.286 -0.4804  0.5248  0.8878
    1MOL0     H  119   4.362   4.422   7.662  0.7840 -1.1771  0.3015
    1MOL0     H  120   4.145   4.525   7.649 -0.3978 -0.4549 -0.7505
    1MOL0     H  121   3.690   4.440   7.941 -1.4190  2.7619 -0.2821
    1MOL0     H  122   3.447   4.465   7.938 -0.0447  0.1070  0.4641
    1MOL0     H  123   3.246   4.300   7.565  2.9650  0.6603  0.2295
    1MOL0     H  124   3.261   4.472   7.550  1.6099 -0.3736 -0.1395
    1MOL0     H  125   3.039   4.481   7.713  0.1233  0.4725 -0.3630
    1MOL0     H  126   3.028   4.311   7.652  2.0068 -0.3586 -3.3968
    1MOL0     H  127   3.013   4.379   7.439  0.2401  0.2895  0.4362
    1MOL0     H  128   3.046   4.546   7.474  0.8802 -0.1236 -0.3212
    1MOL0     H  129   2.846   4.523   7.638 -0.6204 -0.2164  0.6504
    1MOL0     H  130   2.822   4.569   7.462  1.8967  0.4148 -0.1511
    1MOL0     H  131   2.632   4.199   7.484 -1.8261  1.2974  0.4087
    1MOL0     H  132   3.448   4.296   7.541 -0.0061 -2.0103  1.9059
    1MOL0     H  133   3.761   4.147   7.547  0.5286  1.3042  2.0684
    1MOL0     H  134   3.623   4.197   7.440 -0.6963  0.2399  0.1447
    1MOL0     H  135   3.762   4.295   7.444  0.8202  1.2172  1.6821
    2MOL0     O  136   8.468   7.372  10.886 -0.3734 -0.5624 -0.2104
    2MOL0     C  137   8.519   7.297  10.963 -0.1102  0.1070  0.7608
    2MOL0     O  138   8.652   7.301  10.999  0.6172  0.0939 -0.1169
    2MOL0     C  139   8.744   7.369  10.931 -0.3148 -0.9163 -0.0666
    2MOL0     C  140   8.846   7.433  11.004 -0.9885  0.9830 -0.1645
    2MOL0     C  141   8.946   7.500  10.933  0.9409  0.6080 -0.8391
    2MOL0     C  142   8.948   7.505  10.798 -0.4415  0.2402 -0.1827
    2MOL0     O  143   9.055   7.546  10.723  0.0736  0.2414 -0.2145
    2MOL0     C  144   9.173   7.478  10.772 -0.2273  0.0816  0.6547
    2MOL0     C  145   9.287   7.542  10.698 -0.1013 -0.4816 -1.0670
    2MOL0     C  146   9.317   7.685  10.756 -0.4950  0.1800 -1.2527
    2MOL0     C  147   9.469   7.725  10.734  0.1988  1.0551  1.1016
    2MOL0     C  148   9.484   7.867  10.784  0.3036  0.5821  0.1798
    2MOL0     C  149   9.636   7.892  10.797 -0.0634  0.4314  0.2552
    2MOL0     C  150   9.657   8.042  10.819  0.8698 -0.4973 -0.5533
    2MOL0     C  151   9.799   8.073  10.863  0.1379 -0.1085 -0.3632
    2MOL0     N  152   9.838   8.223  10.846 -0.1966  0.1879 -0.7188
    2MOL0     C  153   9.932   8.288  10.922  0.0028 -0.7007  0.5535
    2MOL0     C  154   9.908   8.424  10.895 -0.1613  1.2850  0.1425
    2MOL0     C  155   9.956   8.540  10.981  0.0915 -0.0833  0.0138
    2MOL0     C  156   9.884   8.672  10.948  0.3199  0.2888  0.5783
    2MOL0     C  157   9.802   8.721  11.075  0.2968  0.2996  0.2520
    2MOL0     C  158   9.676   8.640  11.098  0.5346  0.0246  0.2397
    2MOL0     O  159   9.609   8.674  11.219 -0.0706 -0.2411 -0.0012
    2MOL0     C  160   9.479   8.625  11.241  0.2374  0.2878 -0.5550
    2MOL0     C  161   9.398   8.669  11.349 -0.1569  0.2758 -0.9689
    2MOL0     C  162   9.268   8.629  11.357  0.3692 -0.9783  0.0969
    2MOL0     C  163   9.209   8.530  11.279 -0.3148 -0.3839  0.0240
    2MOL0     C  164   9.067   8.487  11.299 -0.3338 -0.1257 -0.0518
    2MOL0     O  165   9.005   8.425  11.188 -0.6786 -0.6075  0.8421
    2MOL0     C  166   8.883   8.370  11.211  0.1942  0.0676  0.5785
    2MOL0     C  167   8.863   8.272  11.308 -0.1246  0.1174  0.4576
    2MOL0     C  168   8.734   8.216  11.323 -0.1555 -0.5796 -0.0140
    2MOL0     C  169   8.628   8.260  11.244  0.2416 -0.8975 -0.8547
    2MOL0     O  170   8.499   8.206  11.256 -0.2576 -0.2266  0.0889
    2MOL0     C  171   8.385   8.292  11.230 -0.4831 -0.0155  0.4647
    2MOL0     C  172   8.244   8.232  11.254 -0.8042 -0.5764  0.8886
    2MOL0     C  173   8.243   8.151  11.380 -0.3080 -0.3633 -0.4065
    2MOL0     C  174   8.111   8.103  11.438  0.8963  0.7734  0.6769
    2MOL0     C  175   8.021   8.009  11.340 -0.3976 -0.1795 -0.5674
    2MOL0     C  176   8.085   7.876  11.296 -0.3489  0.4141 -0.0947
    2MOL0     C  177   8.021   7.802  11.172  0.0275 -1.0052  0.2855
    2MOL0     C  178   8.082   7.666  11.150 -0.2226 -0.0574  0.3067
    2MOL0    Cl  179   8.033   7.593  10.996 -0.0286 -0.0635  0.2993
    2MOL0     C  180   8.650   8.358  11.144  0.5763 -1.1039  0.1114
    2MOL0     C  181   8.779   8.412  11.130 -0.0677 -0.3079  0.2769
    2MOL0     O  182   9.017   8.503  11.409 -0.2137  0.1918 -0.2593
    2MOL0     C  183   9.289   8.481  11.176 -0.6174 -0.9317 -0.3069
    2MOL0     C  184   9.424   8.527  11.167 -0.2127  0.0029  0.9659
    2MOL0     N  185   9.799   8.425  10.815  0.3912 -0.8297 -0.4394
    2MOL0     N  186   9.768   8.309  10.775  0.7561 -1.0887 -0.9791
    2MOL0     C  187   8.839   7.455  10.725 -0.1517 -0.6847 -0.2199
    2MOL0     C  188   8.735   7.391  10.792 -0.2449  0.3007 -0.3131
    2MOL0     C  189   8.441   7.178  11.006 -0.0881  0.2569 -0.1947
    2MOL0     C  190   8.508   7.055  11.029 -0.1816 -0.0509  0.4453
    2MOL0     C  191   8.440   6.951  11.065 -0.2255  0.3239  0.2935
    2MOL0     C  192   8.303   6.943  11.076  0.2232 -0.8467  0.0840
    2MOL0     O  193   8.249   6.824  11.110  0.2250 -0.9338  0.2942
    2MOL0     C  194   8.105   6.801  11.122 -0.6191 -0.0152 -0.3030
    2MOL0     C  195   8.070   6.797  11.267 -0.3951  0.3088  0.2730
    2MOL0     C  196   8.114   6.661  11.319  1.0058 -0.2296 -0.5416
    2MOL0     C  197   8.003   6.551  11.295 -0.3308 -0.2651  0.0913
    2MOL0     C  198   8.047   6.424  11.361 -0.5679  1.0060 -0.2441
    2MOL0     C  199   8.060   6.324  11.428  0.2393  0.1646  0.6682
    2MOL0     C  200   8.227   7.060  11.047 -0.8894  1.0849  0.1769
    2MOL0     C  201   8.301   7.177  11.033  0.5820 -1.4439  0.6910
    2MOL0     C  202   8.224   7.307  11.042  0.1064 -0.2465 -0.3517
    2MOL0     H  203   8.861   7.429  11.111  1.7476  0.8983 -0.4968
    2MOL0     H  204   9.033   7.532  10.990 -0.1706 -1.1383  2.0845
    2MOL0     H  205   9.206   7.477  10.876  1.2945 -2.5108  0.2106
    2MOL0     H  206   9.163   7.373  10.745 -1.0103  0.9648 -3.1356
    2MOL0     H  207   9.264   7.551  10.592  1.3683 -2.1747 -1.5741
    2MOL0     H  208   9.373   7.476  10.713 -2.0423 -2.7338  1.1584
    2MOL0     H  209   9.304   7.681  10.865 -1.8079 -2.0726 -1.4217
    2MOL0     H  210   9.256   7.767  10.718  2.9999  2.0954 -3.1516
    2MOL0     H  211   9.542   7.660  10.785  1.2959  1.5577  0.2255
    2MOL0     H  212   9.489   7.726  10.627  2.4421  1.8485  1.4559
    2MOL0     H  213   9.456   7.933  10.701  3.1931  1.7713  0.0254
    2MOL0     H  214   9.437   7.895  10.879  0.3432  2.6156 -0.3368
    2MOL0     H  215   9.670   7.833  10.882 -1.7848 -0.1621  0.5667
    2MOL0     H  216   9.700   7.859  10.715  0.5312 -0.2232  0.9720
    2MOL0     H  217   9.580   8.083  10.885  1.6834 -2.3382  1.6493
    2MOL0     H  218   9.627   8.100  10.730 -3.0699 -1.7381 -0.2471
    2MOL0     H  219   9.816   8.042  10.967  4.7855  0.7247 -0.6779
    2MOL0     H  220   9.878   8.018  10.811  1.3578  0.6572  0.6152
    2MOL0     H  221  10.001   8.250  10.997  2.4836 -2.1209 -2.2714
    2MOL0     H  222   9.943   8.506  11.084  0.8414 -2.3162 -0.5789
    2MOL0     H  223  10.065   8.544  10.984  0.2626 -2.7065 -0.4172
    2MOL0     H  224   9.954   8.756  10.940 -0.3762  0.7132 -3.0689
    2MOL0     H  225   9.825   8.665  10.856 -2.2676 -0.4308  2.1898
    2MOL0     H  226   9.772   8.826  11.067 -0.8265  0.2429  2.8844
    2MOL0     H  227   9.855   8.717  11.170 -0.1926  0.5568  0.5429
    2MOL0     H  228   9.700   8.534  11.094  1.5543  0.2759 -3.2135
    2MOL0     H  229   9.605   8.646  11.015 -0.0821 -0.1345  0.7512
    2MOL0     H  230   9.426   8.743  11.422  0.7418 -0.8852 -0.1063
    2MOL0     H  231   9.219   8.692  11.431  0.7790  2.5959 -2.4158
    2MOL0     H  232   8.948   8.240  11.367 -0.4169  1.6740  1.7975
    2MOL0     H  233   8.735   8.136  11.397  2.3592  0.9012  1.6876
    2MOL0     H  234   8.397   8.389  11.279 -4.6146  0.4575  0.9014
    2MOL0     H  235   8.380   8.327  11.127  0.1246 -0.5941  0.2317
    2MOL0     H  236   8.171   8.312  11.272  0.3391  0.6708  0.1579
    2MOL0     H  237   8.216   8.168  11.170  0.9056  0.2270 -0.3613
    2MOL0     H  238   8.314   8.069  11.367 -0.2227  0.1844 -6.4060
    2MOL0     H  239   8.288   8.210  11.460  0.4779  0.0196 -1.1122
    2MOL0     H  240   8.041   8.182  11.468 -0.2648 -0.4443  1.2820
    2MOL0     H  241   8.130   8.044  11.528 -3.5220 -0.9957  0.7384
    2MOL0     H  242   8.003   8.064  11.248  3.1516 -1.2486 -2.0973
    2MOL0     H  243   7.925   7.997  11.392 -0.1020  3.0601  0.9548
    2MOL0     H  244   8.181   7.909  11.256  0.6713 -0.1147  1.8093
    2MOL0     H  245   8.109   7.816  11.384 -1.4715  2.8987  2.0311
    2MOL0     H  246   8.051   7.850  11.078 -0.7798 -2.7048 -0.8866
    2MOL0     H  247   7.913   7.804  11.185 -0.1881  0.8635 -1.3066
    2MOL0     H  248   8.191   7.665  11.154 -0.2381 -0.0940  0.8025
    2MOL0     H  249   8.032   7.603  11.225  0.1198  1.7012  2.1000
    2MOL0     H  250   8.584   8.393  11.065  2.3007  1.2101 -0.4020
    2MOL0     H  251   8.796   8.494  11.061 -2.2215  0.1476  0.2186
    2MOL0     H  252   9.239   8.401  11.122 -1.9860 -1.2574  1.3553
    2MOL0     H  253   9.483   8.480  11.089 -2.9886 -1.2004 -0.5370
    2MOL0     H  254   8.829   7.472  10.618  2.1864 -1.3275 -0.6144
    2MOL0     H  255   8.666   7.335  10.729  1.2966 -4.6407  1.9018
    2MOL0     H  256   8.616   7.048  11.020  0.1866  2.5301  1.7276
    2MOL0     H  257   8.494   6.860  11.089 -2.1583 -1.2517 -1.0180
    2MOL0     H  258   8.080   6.704  11.078  1.5617 -1.4970  1.5337
    2MOL0     H  259   8.048   6.885  11.081 -1.6958 -2.1472 -3.5055
    2MOL0     H  260   7.963   6.820  11.275 -1.1347 -1.6307 -2.4161
    2MOL0     H  261   8.122   6.869  11.331  1.3977 -0.1991 -0.5463
    2MOL0     H  262   8.142   6.666  11.425 -1.2240  0.5918  0.0553
    2MOL0     H  263   8.206   6.624  11.272  2.2611  0.5114  1.2416
    2MOL0     H  264   7.904   6.573  11.336 -0.0625 -0.2039  0.7091
    2MOL0     H  265   7.998   6.526  11.188  1.9196 -2.5296  0.4134
    2MOL0     H  266   8.068   6.226  11.472 -0.4216  0.3338  1.1837
    2MOL0     H  267   8.119   7.070  11.046 -0.8516  1.4828 -1.1346
    2MOL0     H  268   8.124   7.278  11.074  1.3445 -5.1186 -0.1408
    2MOL0     H  269   8.274   7.372  11.115  1.0630  0.5328 -1.6400
    2MOL0     H  270   8.202   7.351  10.944 -0.1304 -0.0884 -0.2295
    3MOL0     O  271   0.874   6.219   0.983  0.5183 -0.1981 -0.2603
    3MOL0     C  272   0.854   6.149   1.088 -0.5554 -1.3433 -0.4193
    3MOL0     O  273   0.962   6.071   1.145  0.3262  1.0403  0.4249
    3MOL0     C  274   1.084   6.086   1.087 -0.3510 -0.4054  0.7286
    3MOL0     C  275   1.170   6.180   1.132  0.8512 -0.7736  0.5025
    3MOL0     C  276   1.278   6.222   1.056 -0.0157  1.2828 -0.2227
    3MOL0     C  277   1.313   6.163   0.933 -0.3800 -0.3188 -0.6856
    3MOL0     O  278   1.417   6.189   0.852 -0.4027  0.0205  0.1621
    3MOL0     C  279   1.556   6.220   0.894  0.1156 -0.0793 -0.0697
    3MOL0     C  280   1.660   6.103   0.878 -0.0907  0.0872 -0.3142
    3MOL0     C  281   1.652   6.042   0.737 -0.1717 -0.6585 -0.4879
    3MOL0     C  282   1.736   5.920   0.716  0.7006 -0.5918  0.0351
    3MOL0     C  283   1.730   5.866   0.576  0.0048 -0.2673  0.2091
    3MOL0     C  284   1.851   5.771   0.545  0.1888  1.3324  0.2466
    3MOL0     C  285   1.819   5.663   0.429 -0.8305 -0.0958 -0.3310
    3MOL0     C  286   1.898   5.535   0.451  0.2147 -0.0958 -0.3498
    3MOL0     N  287   1.898   5.449   0.336 -0.0185 -0.6803 -0.1027
    3MOL0     C  288   2.007   5.375   0.319  0.2714  0.5735  0.6196
    3MOL0     C  289   1.988   5.312   0.202 -0.3479 -0.6053 -0.3413
    3MOL0     C  290   2.090   5.222   0.148 -0.8031  0.9079 -0.5675
    3MOL0     C  291   2.186   5.286   0.057 -0.1269  0.8857  0.0888
    3MOL0     C  292   2.297   5.187   0.015 -0.2218 -0.0948  0.5832
    3MOL0     C  293   2.369   5.218  -0.117 -0.3855 -0.3526 -0.3558
    3MOL0     O  294   2.441   5.341  -0.089 -0.6941  0.3565  0.5576
    3MOL0     C  295   2.529   5.387  -0.183  0.4347 -0.3550 -0.5749
    3MOL0     C  296   2.568   5.316  -0.293  0.0599 -0.3011 -0.6079
    3MOL0     C  297   2.660   5.375  -0.378  1.1764 -0.0347  0.8793
    3MOL0     C  298   2.726   5.494  -0.349 -0.1067 -0.1685  0.7747
    3MOL0     C  299   2.827   5.547  -0.434  0.9741 -0.2041  0.1817
    3MOL0     O  300   2.846   5.481  -0.551 -0.7776 -0.1317 -0.2485
    3MOL0     C  301   2.939   5.527  -0.643  0.1236  0.1695  0.5043
    3MOL0     C  302   2.891   5.551  -0.776 -0.1788  0.0037  0.0873
    3MOL0     C  303   2.973   5.598  -0.880  0.7169 -0.6485 -0.3865
    3MOL0     C  304   3.105   5.630  -0.854 -0.3387  0.3967  1.0076
    3MOL0     O  305   3.175   5.692  -0.951  0.4035  0.1225 -1.3183
    3MOL0     C  306   3.180   5.830  -0.936 -0.7285 -0.2912 -0.3780
    3MOL0     C  307   3.268   5.885  -1.047  1.2173  0.0466  0.1040
    3MOL0     C  308   3.420   5.893  -1.020 -0.0721  0.6035 -0.4057
    3MOL0     C  309   3.487   5.923  -1.153  0.6210 -0.4592 -0.6798
    3MOL0     C  310   3.629   5.963  -1.125  0.2068 -0.6476  0.2249
    3MOL0     C  311   3.719   5.887  -1.025  0.0832 -0.5699  1.2734
    3MOL0     C  312   3.869   5.913  -1.050 -0.8898 -0.4625  0.1816
    3MOL0     C  313   3.946   5.870  -0.921  0.4471  0.5565  0.1900
    3MOL0    Cl  314   4.125   5.873  -0.951  0.1868  0.3676 -0.7162
    3MOL0     C  315   3.156   5.614  -0.718  0.6223  0.7898  0.4798
    3MOL0     C  316   3.072   5.571  -0.616 -0.4404 -0.4759 -0.0689
    3MOL0     O  317   2.894   5.648  -0.396 -0.2917  0.7303  0.3092
    3MOL0     C  318   2.673   5.560  -0.236 -0.1505 -0.5245  0.3763
    3MOL0     C  319   2.584   5.511  -0.148  1.0145  0.2852 -0.3321
    3MOL0     N  320   1.866   5.350   0.148  0.0312  0.1418 -0.4913
    3MOL0     N  321   1.804   5.428   0.243 -0.5766  0.2384 -0.5248
    3MOL0     C  322   1.231   6.058   0.890 -0.4429 -0.4641  0.1661
    3MOL0     C  323   1.112   6.022   0.960 -0.4828 -0.5130 -0.6248
    3MOL0     C  324   0.722   6.146   1.161  0.3856 -0.0813  1.1198
    3MOL0     C  325   0.713   6.080   1.282  0.4053 -0.1843 -0.1858
    3MOL0     C  326   0.589   6.067   1.356 -0.3620 -0.7964  0.0865
    3MOL0     C  327   0.478   6.133   1.302  0.2272  0.3628  0.5899
    3MOL0     O  328   0.347   6.125   1.350 -0.0332 -0.7313 -0.2092
    3MOL0     C  329   0.316   6.004   1.421 -0.6969  0.5949  0.0972
    3MOL0     C  330   0.176   5.987   1.476 -0.5221  0.4194  0.3377
    3MOL0     C  331   0.072   5.980   1.373  0.1212 -0.5971 -0.3054
    3MOL0     C  332  -0.066   5.973   1.442  1.1130 -0.1611 -0.3775
    3MOL0     C  333  -0.162   5.968   1.334  1.0620  0.5552 -0.2660
    3MOL0     C  334  -0.245   5.953   1.243 -0.4643 -0.5443  0.0928
    3MOL0     C  335   0.485   6.211   1.183  0.0883 -0.3807 -0.1872
    3MOL0     C  336   0.612   6.221   1.109  0.2093  0.3381 -0.2197
    3MOL0     C  337   0.605   6.299   0.984  0.3414  0.2735 -0.1996
    3MOL0     H  338   1.138   6.239   1.218 -1.4116 -1.0133 -0.1236
    3MOL0     H  339   1.340   6.304   1.092 -0.4444  2.1936 -1.5012
    3MOL0     H  340   1.597   6.308   0.844  1.1184  0.5743  1.8100
    3MOL0     H  341   1.555   6.239   1.002  1.1846 -1.9609  0.3230
    3MOL0     H  342   1.629   6.022   0.945  2.7844  0.6005  1.8045
    3MOL0     H  343   1.764   6.128   0.900 -0.0327  0.8538 -1.3839
    3MOL0     H  344   1.678   6.116   0.662  1.5770 -2.0700 -1.3644
    3MOL0     H  345   1.548   6.016   0.714 -0.2361 -0.0207 -0.9470
    3MOL0     H  346   1.841   5.947   0.733 -0.3287  3.7364  0.6528
    3MOL0     H  347   1.709   5.847   0.793 -0.1960 -0.8387 -0.5045
    3MOL0     H  348   1.635   5.816   0.553  1.3035 -2.4043 -0.8774
    3MOL0     H  349   1.741   5.946   0.502 -1.7701 -0.0411  0.1328
    3MOL0     H  350   1.945   5.824   0.529  1.0787 -1.0597 -3.6235
    3MOL0     H  351   1.869   5.713   0.635  0.4018  0.8380 -0.1153
    3MOL0     H  352   1.838   5.710   0.332  2.3130  3.3612  1.6983
    3MOL0     H  353   1.710   5.647   0.427 -0.7171 -1.0171 -2.7178
    3MOL0     H  354   2.000   5.555   0.482  0.1343  3.6270 -1.8963
    3MOL0     H  355   1.848   5.486   0.534 -1.6186 -2.4567 -2.6721
    3MOL0     H  356   2.086   5.359   0.392  0.3628 -3.0249 -0.1037
    3MOL0     H  357   2.141   5.174   0.233 -0.9626  0.2819 -0.8158
    3MOL0     H  358   2.041   5.152   0.079  2.4438 -0.0779 -2.0315
    3MOL0     H  359   2.131   5.321  -0.031  0.3677 -1.6301 -1.3238
    3MOL0     H  360   2.242   5.364   0.110  1.9895 -1.3805  1.4269
    3MOL0     H  361   2.261   5.090  -0.019  1.1656 -0.4704  0.0978
    3MOL0     H  362   2.358   5.149   0.098  0.1417 -0.8647 -0.0276
    3MOL0     H  363   2.306   5.233  -0.206  1.3617  0.1012 -1.5696
    3MOL0     H  364   2.443   5.142  -0.141 -0.5781 -1.0290  1.1006
    3MOL0     H  365   2.529   5.218  -0.316  1.4929 -1.8728  2.8892
    3MOL0     H  366   2.683   5.333  -0.475  0.4171  2.4032 -0.4562
    3MOL0     H  367   2.795   5.524  -0.818  0.0321 -0.6432  0.0082
    3MOL0     H  368   2.932   5.606  -0.981 -0.3869  0.2864  0.1095
    3MOL0     H  369   3.081   5.874  -0.951 -0.1366  0.4368 -2.3943
    3MOL0     H  370   3.229   5.850  -0.840 -2.5997 -0.1594  0.6012
    3MOL0     H  371   3.262   5.813  -1.130  1.8601 -1.5738  1.3957
    3MOL0     H  372   3.231   5.984  -1.074  0.4069 -0.2095  0.2475
    3MOL0     H  373   3.435   5.968  -0.942 -0.7586  1.2547 -0.8856
    3MOL0     H  374   3.453   5.799  -0.974 -0.5906  0.0245 -1.1719
    3MOL0     H  375   3.429   6.005  -1.196 -0.3881  0.4989  2.2173
    3MOL0     H  376   3.487   5.838  -1.222 -1.2134 -2.0627  1.1447
    3MOL0     H  377   3.638   6.071  -1.109 -2.3606  0.1385 -2.7455
    3MOL0     H  378   3.673   5.962  -1.225 -1.1793  2.2244 -0.5423
    3MOL0     H  379   3.690   5.899  -0.920 -1.6046 -0.5218  0.8339
    3MOL0     H  380   3.703   5.780  -1.041 -0.2659 -0.0824 -2.6778
    3MOL0     H  381   3.892   6.018  -1.070 -0.9816 -0.4815 -0.0199
    3MOL0     H  382   3.911   5.853  -1.131 -1.3884 -1.2837  0.5154
    3MOL0     H  383   3.905   5.931  -0.840 -1.4317 -0.2297 -0.1215
    3MOL0     H  384   3.918   5.765  -0.914  0.5109  0.5938  1.1655
    3MOL0     H  385   3.261   5.631  -0.697  1.0914  2.0022 -2.3329
    3MOL0     H  386   3.105   5.561  -0.513  0.7347  0.9520 -0.2836
    3MOL0     H  387   2.717   5.655  -0.205 -1.4808 -0.2259  1.4659
    3MOL0     H  388   2.549   5.551  -0.053  2.4185 -2.4869  1.5100
    3MOL0     H  389   1.241   6.009   0.794  1.3649 -0.8632  0.5339
    3MOL0     H  390   1.055   5.936   0.926  1.1898 -1.7615 -0.4464
    3MOL0     H  391   0.796   6.024   1.323  0.9794 -0.0112 -1.0966
    3MOL0     H  392   0.592   6.007   1.446  1.1969  0.3441  0.8524
    3MOL0     H  393   0.386   5.988   1.503  0.0366  0.0481 -0.6172
    3MOL0     H  394   0.332   5.928   1.343 -0.4634  3.0536 -2.4238
    3MOL0     H  395   0.154   6.075   1.537  1.8684  1.8827 -0.7827
    3MOL0     H  396   0.152   5.902   1.541 -1.1413 -0.8550 -1.4796
    3MOL0     H  397   0.084   5.894   1.308 -1.0136 -1.4734  0.6025
    3MOL0     H  398   0.070   6.077   1.322 -1.8329 -0.4371 -0.0238
    3MOL0     H  399  -0.075   5.881   1.501  0.7387 -0.4535 -0.8777
    3MOL0     H  400  -0.095   6.061   1.499  2.1953  1.0145 -1.5806
    3MOL0     H  401  -0.316   5.953   1.163  0.5654  3.2460 -1.0189
    3MOL0     H  402   0.399   6.269   1.152 -0.6920 -1.3891  0.0173
    3MOL0     H  403   0.612   6.232   0.898  0.7329 -0.6726  0.5503
    3MOL0     H  404   0.509   6.349   0.966 -0.6969 -1.7049 -0.4266
    3MOL0     H  405   0.687   6.372   0.984 -0.0942  0.8034 -1.8415
    4MOL0     O  406   7.975   1.422   0.056  0.4734  0.6458 -0.3953
    4MOL0     C  407   8.011   1.534   0.071  0.2392 -0.0947  0.2509
    4MOL0     O  408   7.928   1.631   0.112 -0.0088 -0.8114  0.6475
    4MOL0     C  409   7.810   1.614   0.177  0.4480 -0.4484 -0.3595
    4MOL0     C  410   7.713   1.719   0.187 -1.1654  0.5380  0.0384
    4MOL0     C  411   7.591   1.707   0.247 -0.5092 -0.3604 -0.6941
    4MOL0     C  412   7.563   1.593   0.329 -0.6062 -0.2349  0.3867
    4MOL0     O  413   7.444   1.583   0.403  0.1338 -0.0382  0.2719
    4MOL0     C  414   7.457   1.530   0.534 -0.6776  0.5453  0.5126
    4MOL0     C  415   7.341   1.581   0.617  0.6313 -0.5927 -0.1388
    4MOL0     C  416   7.204   1.551   0.559  0.7999 -0.6347 -0.0826
    4MOL0     C  417   7.101   1.645   0.629 -0.5015 -0.2995 -0.0592
    4MOL0     C  418   6.959   1.619   0.590  0.1103  0.0688 -0.3218
    4MOL0     C  419   6.917   1.669   0.450  0.3043  0.5175 -1.0939
    4MOL0     C  420   6.783   1.627   0.396 -0.0604  0.4735 -0.0563
    4MOL0     C  421   6.676   1.717   0.450 -0.0409 -0.0189  0.4845
    4MOL0     N  422   6.598   1.777   0.347  1.4397 -0.1884  0.1056
    4MOL0     C  423   6.661   1.866   0.271  0.2371  0.3230  0.1928
    4MOL0     C  424   6.574   1.914   0.186 -0.3346  0.6257 -0.6995
    4MOL0     C  425   6.573   1.988   0.060 -0.1762 -0.1010  0.6152
    4MOL0     C  426   6.696   1.971  -0.025  0.2007  0.6386 -0.9653
    4MOL0     C  427   6.670   2.043  -0.155  0.0228  0.7568 -0.6325
    4MOL0     C  428   6.809   2.069  -0.220  0.0161 -0.7950  0.4778
    4MOL0     O  429   6.864   1.939  -0.257  0.6727  0.1502  0.0445
    4MOL0     C  430   6.993   1.938  -0.312  0.3331  0.0356 -0.6644
    4MOL0     C  431   7.063   1.823  -0.309 -0.5557  0.2832 -0.1168
    4MOL0     C  432   7.191   1.819  -0.366  0.0764 -0.5800 -0.5448
    4MOL0     C  433   7.254   1.927  -0.422 -0.3534 -0.3084 -0.6839
    4MOL0     C  434   7.383   1.915  -0.494 -0.0694  0.1713 -1.0047
    4MOL0     O  435   7.417   1.797  -0.549 -0.0335 -0.2167 -0.5578
    4MOL0     C  436   7.543   1.780  -0.611 -0.0534 -0.0077 -0.0550
    4MOL0     C  437   7.551   1.835  -0.740  0.7322 -0.1464 -0.0937
    4MOL0     C  438   7.677   1.847  -0.805  0.0682 -1.2178 -0.2844
    4MOL0     C  439   7.788   1.784  -0.746 -1.0482  0.3676 -0.4527
    4MOL0     O  440   7.910   1.790  -0.810 -0.4137  0.2683  0.2183
    4MOL0     C  441   7.933   1.691  -0.910  0.0531  0.0513  0.1531
    4MOL0     C  442   8.083   1.670  -0.940  0.5292 -0.4807 -1.1208
    4MOL0     C  443   8.106   1.563  -1.047  1.3347  0.1293 -0.5915
    4MOL0     C  444   8.257   1.553  -1.086 -0.2168  0.3422  0.1533
    4MOL0     C  445   8.282   1.472  -1.213  0.1914  0.8011  0.2128
    4MOL0     C  446   8.428   1.468  -1.249  0.0748 -0.1255 -0.6935
    4MOL0     C  447   8.463   1.454  -1.401 -0.2281 -0.2419  0.5913
    4MOL0     C  448   8.610   1.406  -1.445  0.0597 -0.4827  0.1205
    4MOL0    Cl  449   8.719   1.526  -1.388 -0.1357  0.1808  0.3581
    4MOL0     C  450   7.777   1.702  -0.630 -0.2000 -0.3226  0.6845
    4MOL0     C  451   7.648   1.700  -0.566 -0.1358 -0.3088  0.2915
    4MOL0     O  452   7.454   2.015  -0.500  0.2567 -0.2409  0.6622
    4MOL0     C  453   7.190   2.048  -0.405 -0.3202  0.4957 -0.3655
    4MOL0     C  454   7.063   2.056  -0.351  0.4101 -0.4056 -0.3747
    4MOL0     N  455   6.454   1.846   0.212 -0.7809  0.0528 -0.2205
    4MOL0     N  456   6.463   1.769   0.318 -0.1542 -0.1162 -0.5024
    4MOL0     C  457   7.656   1.496   0.327  0.9032  0.0006 -1.6333
    4MOL0     C  458   7.773   1.499   0.252 -0.0399 -0.7736 -0.6199
    4MOL0     C  459   8.149   1.569   0.063 -0.6081  0.3128 -0.6973
    4MOL0     C  460   8.190   1.699   0.019  0.6084  0.5806 -0.5082
    4MOL0     C  461   8.317   1.732  -0.002 -0.1438 -0.1301 -0.8190
    4MOL0     C  462   8.415   1.643   0.019  0.2613  1.1627  0.9712
    4MOL0     O  463   8.546   1.662  -0.012  0.3081  0.6771  0.0737
    4MOL0     C  464   8.612   1.752   0.083 -0.6849  0.3626  0.0234
    4MOL0     C  465   8.686   1.674   0.192  0.2582 -0.6189 -0.5749
    4MOL0     C  466   8.799   1.592   0.128  0.4374 -1.2977 -0.1224
    4MOL0     C  467   8.835   1.477   0.220 -0.1777  0.3214 -0.2214
    4MOL0     C  468   8.742   1.362   0.218  1.1229  0.2189  0.0648
    4MOL0     C  469   8.651   1.267   0.213 -0.8772 -0.3118 -0.1793
    4MOL0     C  470   8.382   1.515   0.064  0.2913 -1.1938  0.7063
    4MOL0     C  471   8.252   1.476   0.094 -0.3506  0.5073  1.1570
    4MOL0     C  472   8.247   1.330   0.151 -0.0185  0.7631  0.7460
    4MOL0     H  473   7.739   1.806   0.126  1.1913 -0.3856 -0.3761
    4MOL0     H  474   7.535   1.800   0.255 -0.0647 -0.1833  0.4210
    4MOL0     H  475   7.451   1.421   0.538  3.8999  0.1061  1.5255
    4MOL0     H  476   7.553   1.562   0.577 -0.4625  2.0134 -0.9665
    4MOL0     H  477   7.350   1.687   0.639 -1.8623 -0.0613 -1.4099
    4MOL0     H  478   7.358   1.520   0.706 -0.7558  1.2089  1.4284
    4MOL0     H  479   7.175   1.447   0.579 -0.6681 -1.0524 -3.7193
    4MOL0     H  480   7.189   1.567   0.452 -2.7008 -0.2963  0.3335
    4MOL0     H  481   7.100   1.624   0.737  0.6904 -0.7407 -0.1124
    4MOL0     H  482   7.134   1.749   0.633  0.9944 -0.7622  1.3454
    4MOL0     H  483   6.948   1.510   0.587  0.0398  0.0759 -0.3163
    4MOL0     H  484   6.893   1.664   0.664  1.5589 -2.0199  2.4155
    4MOL0     H  485   6.941   1.774   0.433  3.1696 -0.0540 -1.1449
    4MOL0     H  486   6.987   1.608   0.392  0.2396 -0.0826 -0.5617
    4MOL0     H  487   6.755   1.527   0.429  2.1948 -0.1756  0.0549
    4MOL0     H  488   6.789   1.644   0.288 -1.4802  2.2132  0.0904
    4MOL0     H  489   6.615   1.657   0.518  0.4473 -0.2400  0.7326
    4MOL0     H  490   6.726   1.798   0.504  0.6148  0.3271 -0.6074
    4MOL0     H  491   6.765   1.895   0.261  0.4992 -1.0302 -1.5830
    4MOL0     H  492   6.493   1.940   0.002 -1.0447 -1.4705  2.8127
    4MOL0     H  493   6.557   2.093   0.082  1.2560  0.0454  1.0907
    4MOL0     H  494   6.777   2.014   0.035 -1.5690  0.0345  2.0779
    4MOL0     H  495   6.727   1.866  -0.033  3.0964  1.1064  2.1659
    4MOL0     H  496   6.615   2.135  -0.134 -1.8026  0.7554 -4.5043
    4MOL0     H  497   6.614   1.980  -0.225  2.6466  1.1315 -3.2630
    4MOL0     H  498   6.874   2.132  -0.159 -2.8512  2.2348  0.6853
    4MOL0     H  499   6.800   2.133  -0.309 -1.5232  1.7600  2.3483
    4MOL0     H  500   7.014   1.736  -0.268 -0.3396  0.8308  1.3478
    4MOL0     H  501   7.230   1.717  -0.369 -1.4987 -1.2645  1.0647
    4MOL0     H  502   7.461   1.889  -0.769  1.1336  1.7775  1.9728
    4MOL0     H  503   7.700   1.921  -0.881 -0.0206  0.2657  1.0874
    4MOL0     H  504   7.887   1.600  -0.872  0.4539  1.2962  4.0597
    4MOL0     H  505   7.883   1.730  -0.999  0.3125  3.1107  1.2253
    4MOL0     H  506   8.131   1.765  -0.964  1.0054 -0.7045 -1.0558
    4MOL0     H  507   8.122   1.628  -0.847 -1.9548 -0.1054  0.1933
    4MOL0     H  508   8.073   1.463  -1.019 -1.7357  1.0584 -0.5042
    4MOL0     H  509   8.050   1.588  -1.138  2.0911  0.7471 -0.8991
    4MOL0     H  510   8.317   1.517  -1.003  0.3320  0.9141  0.0102
    4MOL0     H  511   8.284   1.655  -1.114 -1.1506 -0.0798 -2.5861
    4MOL0     H  512   8.224   1.530  -1.286  0.4277  0.1144 -0.5245
    4MOL0     H  513   8.243   1.370  -1.209  1.6423  0.1692 -1.0894
    4MOL0     H  514   8.480   1.554  -1.205  0.4203  0.2298 -1.7450
    4MOL0     H  515   8.457   1.373  -1.202 -1.7869 -0.0768  0.6317
    4MOL0     H  516   8.462   1.550  -1.453  1.6921 -1.3588 -1.7299
    4MOL0     H  517   8.383   1.392  -1.442 -0.7519  0.1589  0.9920
    4MOL0     H  518   8.650   1.312  -1.406  0.7357 -0.2414  0.0335
    4MOL0     H  519   8.621   1.393  -1.553 -0.2718 -0.0005  0.0258
    4MOL0     H  520   7.858   1.641  -0.592  1.6880  2.0593  0.6849
    4MOL0     H  521   7.614   1.624  -0.497 -3.1268  1.3307  0.7715
    4MOL0     H  522   7.247   2.139  -0.422  0.0151  0.3290 -0.1461
    4MOL0     H  523   7.019   2.156  -0.354  1.6982  0.2068  0.4800
    4MOL0     H  524   7.637   1.405   0.384  0.8296 -0.7905 -2.8905
    4MOL0     H  525   7.848   1.421   0.261  0.7759  0.0678  0.1240
    4MOL0     H  526   8.115   1.772  -0.011  1.6021  1.6034 -0.5901
    4MOL0     H  527   8.343   1.820  -0.059  0.4138  0.2130 -0.0435
    4MOL0     H  528   8.539   1.821   0.126 -5.5277 -3.8231 -0.5683
    4MOL0     H  529   8.693   1.804   0.031 -0.2196 -1.4981 -1.2268
    4MOL0     H  530   8.615   1.610   0.246 -0.2831 -0.0737 -0.6210
    4MOL0     H  531   8.725   1.748   0.263 -3.0758  3.2902 -2.3299
    4MOL0     H  532   8.892   1.649   0.118  0.7274 -1.5813  0.8859
    4MOL0     H  533   8.771   1.561   0.026  0.4053 -0.5048 -0.3641
    4MOL0     H  534   8.927   1.426   0.191  0.2917  0.7544  0.4926
    4MOL0     H  535   8.841   1.518   0.321 -1.4797  0.8950 -0.3544
    4MOL0     H  536   8.578   1.191   0.199 -0.6709 -0.2498 -1.7438
    4MOL0     H  537   8.465   1.450   0.091  1.4930  0.2137  0.4831
    4MOL0     H  538   8.345   1.309   0.193 -0.5521 -0.3386  1.4688
    4MOL0     H  539   8.166   1.320   0.224 -0.8448  0.1096 -0.2291
    4MOL0     H  540   8.221   1.260   0.071  0.8415 -0.0736  1.1838
    5MOL0     O  541   8.917   7.087   4.367 -0.1699  0.7143  0.1803
    5MOL0     C  542   8.870   7.174   4.297  0.4562 -0.5640  0.5563
    5MOL0     O  543   8.912   7.306   4.299  0.1180 -0.4289  0.1578
    5MOL0     C  544   9.023   7.342   4.365 -0.4705 -0.2751 -0.8348
    5MOL0     C  545   9.028   7.477   4.392 -0.0694  0.1396 -0.2258
    5MOL0     C  546   9.136   7.525   4.452 -0.2343 -0.2832  0.4135
    5MOL0     C  547   9.252   7.450   4.484  0.3367  1.2295 -0.2805
    5MOL0     O  548   9.342   7.497   4.569 -0.8451 -0.0360 -0.6839
    5MOL0     C  549   9.394   7.631   4.559 -0.3374 -0.3843 -0.9157
    5MOL0     C  550   9.515   7.659   4.653 -0.9066 -0.1320 -0.3479
    5MOL0     C  551   9.624   7.568   4.627 -0.2949  0.3821  0.0452
    5MOL0     C  552   9.744   7.608   4.717  0.4663  0.0525  1.1408
    5MOL0     C  553   9.880   7.543   4.685 -0.1145 -0.4017  0.8779
    5MOL0     C  554   9.982   7.592   4.795  0.0442 -0.1189 -0.2971
    5MOL0     C  555  10.124   7.535   4.797  0.1316  0.3138  0.4003
    5MOL0     C  556  10.177   7.517   4.653 -0.3681 -0.4372 -0.1525
    5MOL0     N  557  10.314   7.471   4.664 -0.5385  0.8368 -0.0223
    5MOL0     C  558  10.368   7.366   4.589 -0.1991  0.8786 -0.0673
    5MOL0     C  559  10.503   7.362   4.619  0.1703  0.2630 -0.1010
    5MOL0     C  560  10.595   7.267   4.534  0.0006  0.1144  0.5059
    5MOL0     C  561  10.673   7.170   4.622 -0.4890 -0.4451  0.8595
    5MOL0     C  562  10.593   7.082   4.713 -0.1591 -0.3965  0.0003
    5MOL0     C  563  10.632   6.934   4.717  0.5898 -0.1010  0.6279
    5MOL0     O  564  10.610   6.874   4.586 -0.1358 -0.4688  0.2133
    5MOL0     C  565  10.498   6.814   4.568  0.4093 -0.0814 -0.4409
    5MOL0     C  566  10.453   6.695   4.641  0.4962 -0.7194 -0.6771
    5MOL0     C  567  10.326   6.642   4.620 -0.5730  0.3031  0.5627
    5MOL0     C  568  10.238   6.688   4.529 -0.2761  0.0659 -0.3008
    5MOL0     C  569  10.110   6.624   4.499 -0.1432 -0.2706 -0.4201
    5MOL0     O  570  10.019   6.715   4.431 -0.7705  0.0335  0.2298
    5MOL0     C  571   9.894   6.674   4.398 -0.3072 -0.0812 -0.6871
    5MOL0     C  572   9.880   6.621   4.272  0.4208 -0.0375  0.3434
    5MOL0     C  573   9.747   6.604   4.224  0.1920  0.5376 -0.0063
    5MOL0     C  574   9.632   6.627   4.310  0.6983  0.9587  0.0794
    5MOL0     O  575   9.495   6.604   4.274 -0.6016  0.5970 -0.0285
    5MOL0     C  576   9.458   6.573   4.136 -0.0289  0.0639 -0.1176
    5MOL0     C  577   9.309   6.539   4.144  0.2027  0.4694  0.4224
    5MOL0     C  578   9.248   6.500   4.007  0.6210 -0.7817  0.0710
    5MOL0     C  579   9.272   6.347   3.972 -0.5855 -1.1366 -0.1242
    5MOL0     C  580   9.242   6.295   3.828 -0.5672 -0.1539 -0.3533
    5MOL0     C  581   9.092   6.294   3.789 -0.1066  0.6612 -0.1822
    5MOL0     C  582   9.057   6.246   3.647  0.1114  0.1515 -0.1962
    5MOL0     C  583   9.062   6.100   3.635 -0.1672  1.2613 -0.0224
    5MOL0    Cl  584   9.029   6.044   3.459 -0.3038 -0.1430  0.2042
    5MOL0     C  585   9.657   6.656   4.434 -0.3522  0.5935 -0.7016
    5MOL0     C  586   9.787   6.681   4.483 -0.7017  0.0402 -0.5050
    5MOL0     O  587  10.093   6.503   4.521  0.5306  0.1297  0.6420
    5MOL0     C  588  10.287   6.800   4.447  0.1281  0.5000  0.2579
    5MOL0     C  589  10.404   6.869   4.481  0.7422  0.3633  0.3342
    5MOL0     N  590  10.532   7.457   4.714  0.2645 -0.3915 -0.4250
    5MOL0     N  591  10.420   7.522   4.733  0.1679 -0.0309  0.3044
    5MOL0     C  592   9.251   7.320   4.455 -0.5374  0.4009  0.4738
    5MOL0     C  593   9.140   7.269   4.397  0.5935  0.2939  0.1164
    5MOL0     C  594   8.759   7.141   4.210 -0.0633 -0.2872  0.3339
    5MOL0     C  595   8.657   7.238   4.192 -0.1257 -0.8971 -0.4964
    5MOL0     C  596   8.543   7.206   4.122 -0.2339 -0.5233  0.6728
    5MOL0     C  597   8.537   7.092   4.048  0.0980  0.4708  0.5732
    5MOL0     O  598   8.434   7.054   3.961  0.0899 -0.9016  0.5556
    5MOL0     C  599   8.316   7.138   3.960 -0.1835  0.8067 -0.9386
    5MOL0     C  600   8.241   7.107   3.832  0.2198 -0.3882  0.0392
    5MOL0     C  601   8.120   7.192   3.810 -0.5228  0.1100 -0.4395
    5MOL0     C  602   8.069   7.183   3.667  0.2844  0.1626 -0.7076
    5MOL0     C  603   8.029   7.052   3.621  0.9611  0.2636  0.4464
    5MOL0     C  604   7.978   6.953   3.579  0.1678  0.7087 -0.6962
    5MOL0     C  605   8.645   6.997   4.052  0.9021  0.2570  0.8196
    5MOL0     C  606   8.746   7.023   4.137 -0.7390  0.0275  0.1241
    5MOL0     C  607   8.852   6.912   4.153 -0.7673  0.5929 -1.0264
    5MOL0     H  608   8.946   7.543   4.366 -0.0952  1.0790  2.0538
    5MOL0     H  609   9.131   7.626   4.491 -2.2742  0.0889 -0.6782
    5MOL0     H  610   9.424   7.650   4.455  0.9042  0.5203 -0.4217
    5MOL0     H  611   9.317   7.704   4.585 -0.0045 -1.0055  2.1391
    5MOL0     H  612   9.467   7.644   4.750 -2.3805 -2.1714 -1.3178
    5MOL0     H  613   9.554   7.760   4.638  3.4743 -1.6997 -0.8681
    5MOL0     H  614   9.643   7.577   4.520 -2.1707  0.6279 -0.2951
    5MOL0     H  615   9.583   7.469   4.650 -1.1419  0.8754  0.7043
    5MOL0     H  616   9.753   7.717   4.720  0.5703  0.0276  2.6887
    5MOL0     H  617   9.718   7.579   4.819 -0.5537 -1.4284  0.4855
    5MOL0     H  618   9.868   7.435   4.694 -0.4912 -0.4503 -0.1090
    5MOL0     H  619   9.918   7.556   4.583  1.9615 -0.5628  1.5887
    5MOL0     H  620   9.973   7.700   4.800 -0.6423 -0.1420 -0.9328
    5MOL0     H  621   9.943   7.556   4.890  2.2981  2.0770  1.5667
    5MOL0     H  622  10.130   7.442   4.854  2.0796 -0.3724 -0.8246
    5MOL0     H  623  10.184   7.613   4.845  1.1794 -1.0620  1.4253
    5MOL0     H  624  10.118   7.447   4.594 -0.5533 -0.5551  0.1713
    5MOL0     H  625  10.185   7.616   4.606 -1.1706 -1.0545 -1.6265
    5MOL0     H  626  10.309   7.316   4.511  0.7324  0.5033 -0.5464
    5MOL0     H  627  10.527   7.221   4.462  1.5851 -1.9519  0.2470
    5MOL0     H  628  10.664   7.323   4.471 -0.7580  0.2532 -0.2110
    5MOL0     H  629  10.730   7.113   4.549 -1.8963 -0.4738 -0.2691
    5MOL0     H  630  10.729   7.247   4.676 -1.5507  0.1063  1.2199
    5MOL0     H  631  10.485   7.088   4.696 -0.0080 -3.2689 -2.9813
    5MOL0     H  632  10.596   7.116   4.817  0.9663  0.4839 -0.2987
    5MOL0     H  633  10.565   6.888   4.791 -0.8868 -1.3015 -1.3737
    5MOL0     H  634  10.737   6.919   4.743  0.1336 -0.5696  2.3852
    5MOL0     H  635  10.527   6.640   4.698 -1.0871 -2.9718 -0.6231
    5MOL0     H  636  10.282   6.556   4.670  1.1029 -1.5831 -1.0267
    5MOL0     H  637   9.962   6.593   4.206 -1.7550  1.2294 -3.1874
    5MOL0     H  638   9.728   6.584   4.119  2.0435  0.0686 -0.2907
    5MOL0     H  639   9.462   6.666   4.079 -0.7498 -0.2246 -0.6454
    5MOL0     H  640   9.515   6.491   4.091  0.2597  0.0355  0.2905
    5MOL0     H  641   9.282   6.464   4.219 -2.3705 -0.0924 -0.9466
    5MOL0     H  642   9.258   6.631   4.174 -0.6134 -0.4754  2.0971
    5MOL0     H  643   9.140   6.520   4.008  0.9005  1.0990  2.4065
    5MOL0     H  644   9.293   6.563   3.930 -2.3775 -0.1259 -1.3207
    5MOL0     H  645   9.210   6.289   4.042 -0.0758  0.1048  1.4143
    5MOL0     H  646   9.378   6.331   3.993 -0.4840  0.4936  0.6914
    5MOL0     H  647   9.290   6.197   3.816 -0.5630  0.1290 -3.1198
    5MOL0     H  648   9.303   6.362   3.767  1.6011 -0.5974  1.1793
    5MOL0     H  649   9.032   6.242   3.865 -0.2000 -0.2744 -0.8833
    5MOL0     H  650   9.062   6.399   3.799 -0.2885  0.5871  0.0505
    5MOL0     H  651   9.132   6.284   3.576 -1.1268 -0.7776 -2.0742
    5MOL0     H  652   8.959   6.284   3.620  1.2093  2.7842 -0.8207
    5MOL0     H  653   9.145   6.048   3.683  1.6666  2.6978 -1.5131
    5MOL0     H  654   8.979   6.056   3.691  1.0151 -1.5423 -0.3226
    5MOL0     H  655   9.570   6.658   4.498  0.2831 -0.6242  0.2498
    5MOL0     H  656   9.790   6.704   4.589  2.2801 -2.1652  0.0331
    5MOL0     H  657  10.217   6.846   4.378  1.0814  2.0235  0.2382
    5MOL0     H  658  10.432   6.959   4.427 -0.8633  1.5310  1.3646
    5MOL0     H  659   9.333   7.252   4.473  1.5206  2.3528 -1.0343
    5MOL0     H  660   9.137   7.164   4.369  2.1258  1.0773 -3.4599
    5MOL0     H  661   8.654   7.333   4.245  1.0197 -0.8961 -0.4243
    5MOL0     H  662   8.462   7.278   4.123  0.6079  0.6878 -2.9657
    5MOL0     H  663   8.345   7.243   3.973 -0.7671  0.9590 -0.8734
    5MOL0     H  664   8.251   7.109   4.043 -0.4723  1.0821 -1.0684
    5MOL0     H  665   8.218   7.001   3.836  2.2215 -0.8478  0.8675
    5MOL0     H  666   8.302   7.127   3.743  1.5473 -2.9810  0.2878
    5MOL0     H  667   8.149   7.295   3.832  3.1626 -0.3011 -2.4260
    5MOL0     H  668   8.046   7.151   3.879 -1.3225  1.2576 -0.5869
    5MOL0     H  669   7.985   7.253   3.659  1.2053  1.1876 -1.6836
    5MOL0     H  670   8.146   7.223   3.602 -0.2602  1.9651 -0.2820
    5MOL0     H  671   7.936   6.861   3.543  0.4822  1.0361 -1.9389
    5MOL0     H  672   8.619   6.906   3.999  0.7087  1.1085 -0.5977
    5MOL0     H  673   8.856   6.880   4.258 -1.5627  2.1758 -0.4651
    5MOL0     H  674   8.836   6.829   4.084 -0.6741 -0.3188  0.0076
    5MOL0     H  675   8.949   6.956   4.128  0.0192 -0.5482 -0.0883
    6MOL0     O  676   4.174   7.289   9.253 -0.4933  0.8182  0.4268
    6MOL0     C  677   4.119   7.396   9.235  0.6431  0.0436  0.4670
    6MOL0     O  678   4.185   7.514   9.201 -0.7203 -0.8635  0.7416
    6MOL0     C  679   4.323   7.507   9.195 -0.9844 -0.3468 -0.0081
    6MOL0     C  680   4.397   7.563   9.299  1.3130 -0.9622  0.3447
    6MOL0     C  681   4.540   7.549   9.309  0.1414 -0.8929  0.2443
    6MOL0     C  682   4.606   7.477   9.211 -0.9160  0.3805  0.8022
    6MOL0     O  683   4.737   7.443   9.205 -0.4088  0.2276  0.2154
    6MOL0     C  684   4.830   7.480   9.309 -0.1688 -0.0082 -0.5412
    6MOL0     C  685   4.842   7.626   9.320 -0.9069  0.3424  0.1985
    6MOL0     C  686   4.981   7.676   9.258 -0.6850  0.8755 -0.0368
    6MOL0     C  687   4.985   7.834   9.258 -0.8922  0.2763  0.3041
    6MOL0     C  688   5.129   7.899   9.252  0.7660 -0.2700 -1.0145
    6MOL0     C  689   5.221   7.848   9.139  0.1086 -0.2352 -0.3416
    6MOL0     C  690   5.358   7.919   9.135  0.1845  0.2486 -0.0556
    6MOL0     C  691   5.460   7.860   9.229  0.2117 -0.2091  0.7615
    6MOL0     N  692   5.571   7.960   9.227  0.2281  0.5143  0.5584
    6MOL0     C  693   5.677   7.970   9.129 -0.3651  0.0698  0.1763
    6MOL0     C  694   5.745   8.095   9.167  0.0558  0.8255 -0.4693
    6MOL0     C  695   5.856   8.152   9.092  0.0861 -0.4503 -0.0220
    6MOL0     C  696   5.997   8.132   9.146  0.2379 -0.1466  0.2560
    6MOL0     C  697   6.040   8.218   9.264  0.6536  0.1356 -0.2185
    6MOL0     C  698   6.018   8.369   9.222  0.2700  0.0632  0.1912
    6MOL0     O  699   6.096   8.398   9.109  0.2115  0.1908 -0.5623
    6MOL0     C  700   6.234   8.391   9.121 -0.2216 -0.0245 -0.5513
    6MOL0     C  701   6.300   8.343   9.007 -1.0032  0.6296  0.0998
    6MOL0     C  702   6.440   8.327   9.009 -0.3545 -0.4530  0.8981
    6MOL0     C  703   6.523   8.384   9.114 -0.3084  0.9235  0.0964
    6MOL0     C  704   6.671   8.372   9.103  0.1893 -0.3552  0.1420
    6MOL0     O  705   6.717   8.329   8.987 -0.2762 -0.2724  0.3146
    6MOL0     C  706   6.857   8.310   8.973  0.2464  0.3863  0.9588
    6MOL0     C  707   6.922   8.191   8.993 -0.2412  0.5800 -0.4808
    6MOL0     C  708   7.061   8.189   8.990 -0.5449 -0.2986 -0.2740
    6MOL0     C  709   7.130   8.304   8.945  0.9508 -0.0046 -0.1380
    6MOL0     O  710   7.266   8.325   8.933 -0.3331 -0.7043  0.5355
    6MOL0     C  711   7.349   8.209   8.960  0.0762 -0.1711 -0.1079
    6MOL0     C  712   7.496   8.259   8.950  0.1018 -1.2740 -0.6177
    6MOL0     C  713   7.588   8.158   9.018  0.0168  0.9837 -0.3218
    6MOL0     C  714   7.726   8.210   8.998 -0.4928  0.9983 -1.4247
    6MOL0     C  715   7.835   8.129   9.062  0.9289  0.7502 -1.0755
    6MOL0     C  716   7.829   8.158   9.219  0.2403 -0.1427  0.2302
    6MOL0     C  717   7.933   8.069   9.288  1.0936 -1.1919  0.1599
    6MOL0     C  718   8.089   8.092   9.252  1.4756  0.5192 -0.7531
    6MOL0    Cl  719   8.178   7.970   9.362 -0.5709  0.0853 -0.3198
    6MOL0     C  720   7.067   8.418   8.918 -0.5347  0.5168  0.8551
    6MOL0     C  721   6.924   8.421   8.928 -0.8301 -0.2966  0.0445
    6MOL0     O  722   6.735   8.422   9.196 -0.2675  0.5114 -0.5036
    6MOL0     C  723   6.455   8.438   9.224  0.5613 -0.6901  0.2965
    6MOL0     C  724   6.310   8.444   9.228 -0.6288 -0.1487  0.1062
    6MOL0     N  725   5.680   8.143   9.281 -0.0158 -0.2545  0.1467
    6MOL0     N  726   5.584   8.058   9.314  0.1191 -0.2140  1.1134
    6MOL0     C  727   4.528   7.429   9.097 -0.0266  0.1047 -0.7018
    6MOL0     C  728   4.390   7.437   9.090  0.6179 -0.0217  0.1242
    6MOL0     C  729   3.971   7.407   9.251  0.3793  0.9941 -0.2148
    6MOL0     C  730   3.917   7.540   9.265  0.2366  0.5249  0.1662
    6MOL0     C  731   3.783   7.570   9.258  0.3285  0.6136 -0.1376
    6MOL0     C  732   3.689   7.469   9.259  0.2829 -0.2053 -0.1699
    6MOL0     O  733   3.558   7.491   9.253  0.0782  0.1063 -0.3689
    6MOL0     C  734   3.480   7.477   9.129  0.0681  0.6597 -0.3383
    6MOL0     C  735   3.335   7.440   9.147  0.8643 -0.4514  0.1496
    6MOL0     C  736   3.329   7.323   9.247  0.5372  1.0052  0.1596
    6MOL0     C  737   3.182   7.261   9.241 -0.1678 -0.0966 -0.4421
    6MOL0     C  738   3.075   7.353   9.293  0.2410  0.1509  0.5569
    6MOL0     C  739   2.994   7.434   9.327 -0.5685  0.2118  0.0163
    6MOL0     C  740   3.737   7.340   9.250  0.3114  0.3168 -0.0679
    6MOL0     C  741   3.874   7.301   9.251 -0.8124 -0.6999 -0.6403
    6MOL0     C  742   3.912   7.144   9.226  0.1432 -0.2608  0.9948
    6MOL0     H  743   4.356   7.639   9.365  1.3461  0.1819 -0.9229
    6MOL0     H  744   4.590   7.574   9.402  0.4286 -1.3776  0.2263
    6MOL0     H  745   4.793   7.434   9.401 -0.4021  1.0717 -0.0846
    6MOL0     H  746   4.926   7.431   9.291  0.9721  2.2845 -1.1033
    6MOL0     H  747   4.826   7.657   9.424 -1.2455  0.5030  0.1015
    6MOL0     H  748   4.767   7.674   9.257 -2.9272 -2.3333  0.4224
    6MOL0     H  749   5.010   7.640   9.159  1.4016  3.1273 -0.3541
    6MOL0     H  750   5.058   7.660   9.333  2.0307  0.7520 -2.6770
    6MOL0     H  751   4.932   7.861   9.166  1.6233 -1.9965 -2.0105
    6MOL0     H  752   4.927   7.876   9.340 -2.8530  0.3407 -1.0416
    6MOL0     H  753   5.104   8.004   9.233 -4.1254 -1.0986 -0.6837
    6MOL0     H  754   5.177   7.888   9.350 -1.2073 -2.8970 -0.2204
    6MOL0     H  755   5.243   7.741   9.150  1.8755  0.3221  2.7324
    6MOL0     H  756   5.161   7.861   9.048 -0.1116 -2.1780 -0.5224
    6MOL0     H  757   5.348   8.026   9.153 -0.0164  0.5044 -1.5559
    6MOL0     H  758   5.394   7.921   9.031  0.0632 -1.6806 -0.1708
    6MOL0     H  759   5.415   7.859   9.329 -0.0820 -1.0698  0.6203
    6MOL0     H  760   5.489   7.759   9.201  0.0879  0.0109 -0.1639
    6MOL0     H  761   5.696   7.913   9.039 -1.7447 -1.2521  0.6677
    6MOL0     H  762   5.866   8.089   9.003 -0.7546  0.0531 -0.4881
    6MOL0     H  763   5.830   8.251   9.053  0.4509 -1.0403 -1.8614
    6MOL0     H  764   6.013   8.026   9.170  1.9973  0.1882  0.7209
    6MOL0     H  765   6.065   8.162   9.066 -0.4999  4.7041  1.1473
    6MOL0     H  766   6.142   8.202   9.298  0.8703  1.6145 -0.1195
    6MOL0     H  767   5.972   8.205   9.349  1.1648  1.5950  0.4419
    6MOL0     H  768   6.045   8.432   9.307  3.1050 -0.8637  0.0840
    6MOL0     H  769   5.910   8.385   9.209  0.2115  0.5441  1.2076
    6MOL0     H  770   6.232   8.299   8.934 -0.0308 -0.0015 -0.4373
    6MOL0     H  771   6.483   8.259   8.936 -0.1365 -1.2434  1.7436
    6MOL0     H  772   6.887   8.093   9.021  3.1076 -0.3989  0.7310
    6MOL0     H  773   7.124   8.103   9.010  0.5869  0.9811  2.1904
    6MOL0     H  774   7.324   8.172   9.060 -1.2194  2.7567  0.7663
    6MOL0     H  775   7.335   8.130   8.886  0.4593 -1.9425  1.6058
    6MOL0     H  776   7.525   8.268   8.845  3.6142  0.7183  0.3765
    6MOL0     H  777   7.504   8.357   8.997 -2.3454  0.2775 -3.0880
    6MOL0     H  778   7.565   8.142   9.124  2.5289  3.6848  0.7688
    6MOL0     H  779   7.579   8.059   8.973 -0.3064  0.0182  1.7250
    6MOL0     H  780   7.728   8.305   9.052 -0.4776 -0.4579  1.2992
    6MOL0     H  781   7.747   8.227   8.892 -0.9653 -0.3909 -1.7692
    6MOL0     H  782   7.927   8.162   9.013  0.1166 -0.1738 -3.3711
    6MOL0     H  783   7.825   8.021   9.047  1.2791  0.5313  0.1371
    6MOL0     H  784   7.850   8.264   9.234 -2.6455  0.5064  0.2008
    6MOL0     H  785   7.732   8.126   9.257 -0.4890 -0.8155 -2.0436
    6MOL0     H  786   7.909   7.966   9.263  0.7905 -1.2834  0.8114
    6MOL0     H  787   7.921   8.085   9.395  1.8995 -1.0606  0.2393
    6MOL0     H  788   8.108   8.069   9.147  0.5965 -0.9101 -0.6275
    6MOL0     H  789   8.119   8.190   9.289  1.5385  0.2298 -0.0248
    6MOL0     H  790   7.117   8.511   8.895  0.0264  0.7850  2.8822
    6MOL0     H  791   6.881   8.518   8.903 -0.4984 -0.0931  0.2599
    6MOL0     H  792   6.502   8.486   9.309  3.7528  0.2627 -1.8270
    6MOL0     H  793   6.262   8.474   9.321 -1.1150  0.4704 -0.3383
    6MOL0     H  794   4.581   7.389   9.011 -0.2074 -1.4407 -0.1264
    6MOL0     H  795   4.322   7.384   9.024  0.4208 -0.1622  0.4344
    6MOL0     H  796   3.985   7.624   9.253 -0.2721  0.6796 -2.0567
    6MOL0     H  797   3.754   7.674   9.252  0.4430  0.6304 -0.4309
    6MOL0     H  798   3.538   7.416   9.058 -0.4044 -0.5483  0.2942
    6MOL0     H  799   3.465   7.575   9.082 -1.4266  0.9475  0.6743
    6MOL0     H  800   3.298   7.410   9.048  2.1088 -1.3942 -0.0612
    6MOL0     H  801   3.271   7.523   9.178  0.6374 -0.9026  0.9116
    6MOL0     H  802   3.345   7.355   9.351 -0.3013 -3.4578  1.9014
    6MOL0     H  803   3.398   7.246   9.211 -0.8806  0.7730 -2.2548
    6MOL0     H  804   3.164   7.259   9.133  1.7852  1.0108 -0.8415
    6MOL0     H  805   3.175   7.160   9.283 -3.3728 -0.1385 -0.8135
    6MOL0     H  806   2.926   7.514   9.346 -3.1199 -1.5465 -1.1916
    6MOL0     H  807   3.660   7.265   9.240  0.9871 -0.2122 -1.7387
    6MOL0     H  808   3.974   7.139   9.136 -2.4797 -1.6754 -0.8581
    6MOL0     H  809   3.964   7.107   9.315  2.6973  1.8629  0.5147
    6MOL0     H  810   3.821   7.088   9.203 -0.4310  1.1420 -0.2379
    7MOL0     O  811   2.476   4.876   3.948  0.3483  0.0758 -0.9921
    7MOL0     C  812   2.537   4.958   4.020 -0.0072 -0.8665  0.3267
    7MOL0     O  813   2.668   4.999   3.994  0.3789  0.5925 -0.0132
    7MOL0     C  814   2.752   4.931   3.902  0.4711  0.0691 -0.0950
    7MOL0     C  815   2.884   4.990   3.879  0.1275  0.4070  0.6349
    7MOL0     C  816   2.980   4.931   3.794  0.0821  0.1113  1.1267
    7MOL0     C  817   2.942   4.813   3.719 -0.8020 -0.5832  0.6483
    7MOL0     O  818   3.029   4.738   3.633  0.2196 -0.0553  0.2860
    7MOL0     C  819   3.143   4.809   3.590 -0.1019 -0.2317  0.3539
    7MOL0     C  820   3.120   4.933   3.495  0.1839  0.4916 -0.2896
    7MOL0     C  821   3.246   5.017   3.467  0.1765 -0.3552 -0.7156
    7MOL0     C  822   3.313   5.102   3.581 -0.4653 -0.2895 -0.2861
    7MOL0     C  823   3.417   5.202   3.516 -1.1396 -0.0649  0.0216
    7MOL0     C  824   3.526   5.135   3.432  0.3832 -0.4138 -0.0730
    7MOL0     C  825   3.603   5.025   3.509  0.0682  0.5422  0.3373
    7MOL0     C  826   3.711   4.975   3.411  0.1999  0.8475 -0.2598
    7MOL0     N  827   3.759   4.840   3.444  0.3362 -0.6752  0.1640
    7MOL0     C  828   3.868   4.813   3.516 -0.6169 -0.5224 -0.1495
    7MOL0     C  829   3.891   4.685   3.513 -0.0393 -0.4794  0.1047
    7MOL0     C  830   4.014   4.621   3.580  0.5585  0.6911  0.5159
    7MOL0     C  831   3.965   4.521   3.682 -0.3982  0.1995  0.2027
    7MOL0     C  832   3.882   4.580   3.802 -0.2836  0.3864  0.5247
    7MOL0     C  833   3.937   4.705   3.872 -0.6717 -0.3783 -0.9554
    7MOL0     O  834   3.870   4.723   4.000 -0.3090  0.2313 -0.6082
    7MOL0     C  835   3.913   4.822   4.085 -0.3446  0.6249  0.7111
    7MOL0     C  836   4.028   4.899   4.069 -0.7330  0.4058 -0.3887
    7MOL0     C  837   4.065   4.996   4.164 -0.1568  0.0019 -0.0693
    7MOL0     C  838   3.981   5.017   4.284 -1.0846 -0.2635 -0.2210
    7MOL0     C  839   4.021   5.117   4.391 -0.1200 -0.8135  0.7715
    7MOL0     O  840   3.949   5.122   4.506 -0.0074 -0.9325 -0.4423
    7MOL0     C  841   3.995   5.211   4.601  0.3631  0.4178  0.8200
    7MOL0     C  842   4.017   5.343   4.583 -0.5267 -1.3275 -1.2281
    7MOL0     C  843   4.088   5.411   4.684 -0.2887  0.1854 -0.1477
    7MOL0     C  844   4.133   5.353   4.806  0.0842  0.5479  0.0844
    7MOL0     O  845   4.185   5.402   4.920 -0.3277 -0.0375  0.4546
    7MOL0     C  846   4.194   5.542   4.924 -0.0688  0.3146 -0.5232
    7MOL0     C  847   4.254   5.583   5.058  0.6979 -0.0455 -0.5422
    7MOL0     C  848   4.409   5.564   5.063  0.7773  0.2109  0.4992
    7MOL0     C  849   4.467   5.596   5.202 -0.6312 -0.9840 -0.6208
    7MOL0     C  850   4.588   5.683   5.176 -0.1561 -0.1847 -0.4395
    7MOL0     C  851   4.657   5.727   5.314 -0.2094 -0.5911 -0.6262
    7MOL0     C  852   4.584   5.840   5.393 -0.5186  0.9475  0.3587
    7MOL0     C  853   4.671   5.920   5.483 -0.1112 -0.5190  0.1202
    7MOL0    Cl  854   4.593   6.076   5.538  0.2384  0.1886  0.4249
    7MOL0     C  855   4.103   5.212   4.816  0.1870 -0.6909  0.2217
    7MOL0     C  856   4.030   5.145   4.713  0.4253  0.3657  0.6223
    7MOL0     O  857   4.126   5.176   4.365  0.1385 -1.3416  0.4630
    7MOL0     C  858   3.865   4.946   4.287  0.7264 -0.0054 -0.4487
    7MOL0     C  859   3.831   4.850   4.191 -0.9730 -0.7170 -0.1609
    7MOL0     N  860   3.785   4.634   3.439  0.2189 -0.4225 -0.2252
    7MOL0     N  861   3.705   4.729   3.400  0.4678  0.0068 -1.0644
    7MOL0     C  862   2.826   4.747   3.762  0.0913  0.3944  0.4155
    7MOL0     C  863   2.736   4.806   3.846  0.8556  0.0048  0.9237
    7MOL0     C  864   2.465   5.018   4.139 -0.4370  0.7593  0.9552
    7MOL0     C  865   2.323   5.004   4.151  0.1241  0.2490 -1.1707
    7MOL0     C  866   2.251   5.059   4.258 -0.6575 -0.1517 -0.5540
    7MOL0     C  867   2.323   5.112   4.372 -0.0667  0.7461  0.2100
    7MOL0     O  868   2.253   5.171   4.474  0.6051  0.1960  0.1561
    7MOL0     C  869   2.206   5.308   4.457  1.0342  0.4961 -0.0861
    7MOL0     C  870   2.125   5.338   4.588  0.5532 -0.0825  1.1247
    7MOL0     C  871   2.216   5.366   4.706  0.2447 -0.2352 -0.3994
    7MOL0     C  872   2.146   5.416   4.831  0.1212  0.7800 -0.1852
    7MOL0     C  873   2.090   5.300   4.903  0.1635 -0.3438 -0.7318
    7MOL0     C  874   2.068   5.196   4.961  0.0946 -0.4059  0.1244
    7MOL0     C  875   2.462   5.120   4.365 -0.7097 -0.2922 -0.2390
    7MOL0     C  876   2.532   5.071   4.255  0.1328 -0.6814  0.2716
    7MOL0     C  877   2.679   5.077   4.271 -0.3513  0.3944 -0.8958
    7MOL0     H  878   2.915   5.074   3.941  2.2383  0.4923 -0.4692
    7MOL0     H  879   3.085   4.961   3.798 -0.4220  2.5408 -1.0013
    7MOL0     H  880   3.200   4.844   3.676  0.1298 -0.4683  0.2968
    7MOL0     H  881   3.204   4.743   3.528  0.7445 -0.4111  1.3468
    7MOL0     H  882   3.046   5.000   3.539 -1.3250 -0.7379 -0.8304
    7MOL0     H  883   3.083   4.893   3.400  1.6160  1.1783 -1.1765
    7MOL0     H  884   3.216   5.087   3.389  0.1420  0.3635 -0.0568
    7MOL0     H  885   3.316   4.946   3.421 -0.5244 -2.2836  1.0055
    7MOL0     H  886   3.238   5.171   3.620 -0.4424  0.6830 -1.8673
    7MOL0     H  887   3.349   5.026   3.651  0.0405 -1.5795 -1.8596
    7MOL0     H  888   3.367   5.274   3.450 -0.8753  1.6748  1.6503
    7MOL0     H  889   3.471   5.262   3.590  2.3118 -0.1286 -2.1890
    7MOL0     H  890   3.485   5.100   3.337  0.5680  3.1248 -1.5930
    7MOL0     H  891   3.596   5.215   3.408 -0.5011  0.7310  1.0621
    7MOL0     H  892   3.519   4.958   3.529 -1.3423  1.9356 -0.6711
    7MOL0     H  893   3.659   5.067   3.594 -2.1836  1.5507  1.4286
    7MOL0     H  894   3.660   4.970   3.314  0.4700 -0.5556 -0.3493
    7MOL0     H  895   3.800   5.035   3.392  1.5120 -1.0587 -0.4691
    7MOL0     H  896   3.924   4.896   3.559 -2.8817  0.9157  0.1966
    7MOL0     H  897   4.079   4.572   3.507 -0.8576  0.4508 -0.6273
    7MOL0     H  898   4.086   4.696   3.614  1.8585  0.6413 -1.9359
    7MOL0     H  899   3.909   4.438   3.638  0.6774 -1.5937  2.0196
    7MOL0     H  900   4.049   4.466   3.726 -0.7407 -0.1534  0.4344
    7MOL0     H  901   3.871   4.492   3.866  3.0898 -2.7223 -2.6946
    7MOL0     H  902   3.783   4.605   3.763  0.4226  0.7919 -1.1162
    7MOL0     H  903   3.935   4.795   3.810  3.0038 -1.2399 -2.5719
    7MOL0     H  904   4.045   4.691   3.882  0.0279  1.6229 -4.3366
    7MOL0     H  905   4.085   4.897   3.977 -1.5297 -0.3068 -0.8821
    7MOL0     H  906   4.157   5.051   4.146  1.0480 -2.3950 -1.9185
    7MOL0     H  907   3.994   5.409   4.500  1.5414 -0.4614 -1.1754
    7MOL0     H  908   4.095   5.520   4.680 -1.8756  0.4374  2.1753
    7MOL0     H  909   4.246   5.594   4.843  1.7086  2.9741  2.0960
    7MOL0     H  910   4.090   5.575   4.926 -0.3261 -0.5116  0.6557
    7MOL0     H  911   4.240   5.690   5.078  0.3419 -0.4576  1.6543
    7MOL0     H  912   4.204   5.537   5.144 -2.3317  3.2975 -0.2786
    7MOL0     H  913   4.431   5.462   5.029  0.0210  0.2038  0.0106
    7MOL0     H  914   4.451   5.636   4.991  0.6346 -1.7536 -1.6776
    7MOL0     H  915   4.492   5.507   5.260 -1.2301 -1.0548 -0.4735
    7MOL0     H  916   4.385   5.651   5.249 -1.0043 -1.9250 -0.1401
    7MOL0     H  917   4.556   5.771   5.119 -0.2340  0.1719  0.1457
    7MOL0     H  918   4.665   5.633   5.116 -1.0338 -1.3090 -0.6500
    7MOL0     H  919   4.697   5.652   5.382  1.9901  1.0821  0.0353
    7MOL0     H  920   4.751   5.771   5.281  0.7188 -0.0133  2.4609
    7MOL0     H  921   4.502   5.805   5.457 -1.0088  1.4592  0.0260
    7MOL0     H  922   4.539   5.911   5.322 -2.5000  1.1677  1.7341
    7MOL0     H  923   4.684   5.859   5.573  2.0937  0.8322  0.7787
    7MOL0     H  924   4.769   5.943   5.440  1.2297 -3.4640  1.3305
    7MOL0     H  925   4.117   5.150   4.903 -3.0749 -0.8581  0.7465
    7MOL0     H  926   4.015   5.037   4.713  3.9328 -0.3978 -3.4351
    7MOL0     H  927   3.796   4.963   4.369  1.6438 -0.6732  0.4777
    7MOL0     H  928   3.740   4.793   4.207 -1.0146 -1.4796 -2.7039
    7MOL0     H  929   2.805   4.652   3.714 -2.0891 -0.0195  2.0102
    7MOL0     H  930   2.637   4.762   3.849 -0.1259  2.0687  0.8229
    7MOL0     H  931   2.273   4.959   4.065 -0.5590  2.3456 -1.9277
    7MOL0     H  932   2.143   5.059   4.251 -0.6298 -1.3851 -1.2139
    7MOL0     H  933   2.136   5.316   4.373  2.0878 -2.4696 -1.4030
    7MOL0     H  934   2.297   5.364   4.435  1.8033 -1.4232 -2.2298
    7MOL0     H  935   2.070   5.249   4.618  1.5232 -2.3492 -3.0537
    7MOL0     H  936   2.053   5.417   4.563  0.4080 -0.3486  0.6835
    7MOL0     H  937   2.288   5.443   4.674  1.2840 -0.5288  1.1270
    7MOL0     H  938   2.277   5.280   4.735 -2.0496 -1.5415  0.8181
    7MOL0     H  939   2.221   5.463   4.894  1.7159  0.6379 -1.9203
    7MOL0     H  940   2.077   5.497   4.808  0.5823  1.2510  0.0781
    7MOL0     H  941   2.034   5.103   5.004 -0.2275 -3.1903 -5.2311
    7MOL0     H  942   2.513   5.168   4.448 -0.2396  1.4287 -1.4827
    7MOL0     H  943   2.705   5.126   4.365 -2.4003 -1.9453  1.0340
    7MOL0     H  944   2.716   4.975   4.280 -0.1466  0.5698  0.4005
    7MOL0     H  945   2.728   5.127   4.187 -1.1031 -1.2548 -2.3706
    8MOL0     O  946   0.009   6.465   1.793  0.4731  0.4393  0.2312
    8MOL0     C  947  -0.073   6.543   1.847  0.1101  0.4256  0.2631
    8MOL0     O  948  -0.069   6.582   1.981 -0.0456 -0.1372 -0.0424
    8MOL0     C  949   0.033   6.570   2.074  1.1697  0.1917 -0.4792
    8MOL0     C  950   0.167   6.572   2.034  0.2248 -0.0754 -0.8220
    8MOL0     C  951   0.270   6.570   2.135 -0.4743 -0.2704 -0.2387
    8MOL0     C  952   0.238   6.547   2.272  0.5514 -0.2629  0.3292
    8MOL0     O  953   0.345   6.566   2.356  0.2876 -0.3215  0.0234
    8MOL0     C  954   0.357   6.689   2.430  0.2586 -0.0936 -0.2515
    8MOL0     C  955   0.490   6.761   2.401  0.1953 -0.1380  0.4838
    8MOL0     C  956   0.615   6.688   2.460  0.6813 -0.6718 -0.1379
    8MOL0     C  957   0.731   6.795   2.482 -0.3575 -0.0698 -0.1287
    8MOL0     C  958   0.850   6.722   2.549 -0.3006 -1.0619 -0.5983
    8MOL0     C  959   0.918   6.610   2.473 -0.0642 -0.9092  0.2033
    8MOL0     C  960   0.942   6.640   2.317  0.9368 -0.3242  0.3641
    8MOL0     C  961   1.039   6.756   2.287 -0.6223  0.4466 -0.0633
    8MOL0     N  962   1.156   6.690   2.230 -0.1664 -0.6807  0.1350
    8MOL0     C  963   1.267   6.638   2.301 -0.4161  0.7642 -0.0629
    8MOL0     C  964   1.343   6.574   2.209  0.2532 -0.7479 -0.4336
    8MOL0     C  965   1.471   6.494   2.236 -0.0893 -0.8319  0.0110
    8MOL0     C  966   1.450   6.343   2.274 -0.6300 -0.4486 -0.4356
    8MOL0     C  967   1.370   6.270   2.179 -1.1058  0.7757 -0.3223
    8MOL0     C  968   1.449   6.217   2.057 -0.2751  0.1208  0.1711
    8MOL0     O  969   1.535   6.102   2.084  1.1843 -0.1958 -0.3282
    8MOL0     C  970   1.472   5.981   2.049 -0.6743 -0.3009  0.1536
    8MOL0     C  971   1.449   5.944   1.919 -0.0013 -0.3713  0.0569
    8MOL0     C  972   1.373   5.829   1.896 -0.0134 -0.0467  0.6396
    8MOL0     C  973   1.327   5.745   1.997 -0.5432  0.2440 -0.4048
    8MOL0     C  974   1.233   5.638   1.982  0.5065  0.4372 -0.1407
    8MOL0     O  975   1.203   5.586   1.864  0.4678  0.1102 -0.2821
    8MOL0     C  976   1.102   5.491   1.855 -0.5609  0.4676  0.4315
    8MOL0     C  977   1.010   5.514   1.755  0.1350  0.3236 -0.6055
    8MOL0     C  978   0.908   5.421   1.739  0.4268  0.3374  0.6714
    8MOL0     C  979   0.894   5.303   1.812 -0.5391 -0.6919 -0.5772
    8MOL0     O  980   0.785   5.217   1.802 -0.0883  0.5549 -0.1787
    8MOL0     C  981   0.740   5.181   1.672  0.2377  0.0436  0.3703
    8MOL0     C  982   0.614   5.090   1.686  1.1500 -0.2548  0.0596
    8MOL0     C  983   0.622   4.975   1.775 -0.2227  0.3276 -0.2146
    8MOL0     C  984   0.479   4.911   1.782  0.5404  0.1279 -0.3986
    8MOL0     C  985   0.474   4.779   1.861 -0.9037 -0.3529  0.5378
    8MOL0     C  986   0.333   4.734   1.885 -0.0924  0.6211 -0.7203
    8MOL0     C  987   0.263   4.802   2.007  0.2687 -0.1800  0.0841
    8MOL0     C  988   0.140   4.731   2.061  0.3288 -0.3303  0.2527
    8MOL0    Cl  989   0.053   4.844   2.177 -0.4544  0.2697  0.0616
    8MOL0     C  990   0.987   5.283   1.915 -0.5529 -1.4339 -0.6905
    8MOL0     C  991   1.092   5.379   1.940 -0.4890  0.4611 -0.6032
    8MOL0     O  992   1.181   5.601   2.091 -0.1783 -0.2934  0.7542
    8MOL0     C  993   1.383   5.767   2.127  0.2936  0.3036 -0.5710
    8MOL0     C  994   1.449   5.886   2.150  0.9619  0.2872  1.1143
    8MOL0     N  995   1.288   6.617   2.089  0.1123  0.4063  0.0897
    8MOL0     N  996   1.188   6.686   2.096  0.5616 -0.4503  0.8216
    8MOL0     C  997   0.099   6.518   2.298  0.4628 -0.0252 -0.4966
    8MOL0     C  998  -0.001   6.525   2.206 -0.3795 -0.3006  0.1071
    8MOL0     C  999  -0.179   6.596   1.765  0.1189  0.1700 -0.2760
    8MOL0     C 1000  -0.245   6.707   1.810 -0.0556  0.4583 -0.6812
    8MOL0     C 1001  -0.368   6.752   1.756  0.3928  0.0180  0.0859
    8MOL0     C 1002  -0.420   6.687   1.638  0.9328 -0.1501 -0.5988
    8MOL0     O 1003  -0.533   6.741   1.592  0.5509 -0.3466 -0.3796
    8MOL0     C 1004  -0.639   6.657   1.557 -0.1195  0.5674 -0.7601
    8MOL0     C 1005  -0.693   6.592   1.685  0.2469  0.0464  0.5268
    8MOL0     C 1006  -0.818   6.500   1.654  0.2108 -0.2289  0.9260
    8MOL0     C 1007  -0.781   6.351   1.625  0.8309 -0.4243  0.7957
    8MOL0     C 1008  -0.681   6.322   1.519 -0.8050 -0.8274  0.1331
    8MOL0     C 1009  -0.601   6.284   1.437 -0.9824 -0.1328 -0.8174
    8MOL0     C 1010  -0.352   6.580   1.589 -0.4681 -0.1211 -0.7654
    8MOL0     C 1011  -0.232   6.532   1.650  0.4115 -0.3563  0.3462
    8MOL0     C 1012  -0.172   6.415   1.578  0.0541  0.7829 -0.3033
    8MOL0     H 1013   0.197   6.603   1.934  0.3352 -0.4188 -0.8952
    8MOL0     H 1014   0.373   6.587   2.106 -0.0697  0.5452  1.5521
    8MOL0     H 1015   0.279   6.757   2.396 -0.4962 -0.3253  0.9482
    8MOL0     H 1016   0.343   6.667   2.536  3.2943 -0.1584  0.2147
    8MOL0     H 1017   0.487   6.863   2.442 -0.5709  0.2510 -0.4978
    8MOL0     H 1018   0.504   6.777   2.294  0.8153  0.2153  0.6135
    8MOL0     H 1019   0.646   6.606   2.395 -2.7624 -0.6001 -2.1130
    8MOL0     H 1020   0.579   6.629   2.544 -0.5448  1.3816  0.8750
    8MOL0     H 1021   0.767   6.836   2.387 -0.8414  2.3184  0.6484
    8MOL0     H 1022   0.710   6.872   2.557  2.1616  1.1146 -0.5302
    8MOL0     H 1023   0.926   6.799   2.565 -1.4213 -0.5482  3.2459
    8MOL0     H 1024   0.824   6.688   2.649  3.6252  0.8540  1.3050
    8MOL0     H 1025   1.011   6.598   2.528  0.3893  0.3807 -0.2437
    8MOL0     H 1026   0.859   6.520   2.493  0.3244 -1.0994  0.5157
    8MOL0     H 1027   0.846   6.659   2.268 -0.9257 -4.2719  2.0116
    8MOL0     H 1028   0.982   6.548   2.272  1.7350 -0.0218  0.4297
    8MOL0     H 1029   0.996   6.823   2.212  0.3731  0.6121 -0.4986
    8MOL0     H 1030   1.054   6.816   2.377 -2.4487  1.7569 -0.5912
    8MOL0     H 1031   1.264   6.641   2.409  1.0478 -0.0040  0.0355
    8MOL0     H 1032   1.547   6.491   2.157  1.3306 -0.6774  1.3356
    8MOL0     H 1033   1.533   6.545   2.310 -0.5288 -0.3348  0.0419
    8MOL0     H 1034   1.548   6.295   2.283 -1.5458 -2.8638 -2.1819
    8MOL0     H 1035   1.409   6.339   2.375  2.9003 -0.7672  1.1668
    8MOL0     H 1036   1.290   6.331   2.136 -1.4979 -0.1622 -0.9718
    8MOL0     H 1037   1.316   6.193   2.236 -0.6978  0.8384  0.1489
    8MOL0     H 1038   1.515   6.296   2.021  2.1626 -2.8485 -2.5602
    8MOL0     H 1039   1.382   6.196   1.973 -0.6439  0.1564  0.4564
    8MOL0     H 1040   1.474   6.005   1.833  0.7501 -1.5662 -0.5983
    8MOL0     H 1041   1.357   5.808   1.791  0.5696  0.8899  0.3555
    8MOL0     H 1042   1.022   5.603   1.694 -2.6697  2.1036  1.2210
    8MOL0     H 1043   0.853   5.435   1.646  1.6467 -0.0761 -0.1376
    8MOL0     H 1044   0.700   5.265   1.615 -0.8814 -2.8896 -3.6317
    8MOL0     H 1045   0.812   5.124   1.611 -1.1661 -0.8089 -0.5528
    8MOL0     H 1046   0.536   5.159   1.721 -1.0272 -2.7628  0.4579
    8MOL0     H 1047   0.570   5.047   1.596 -4.5257  1.2767  1.6771
    8MOL0     H 1048   0.689   4.897   1.739  1.9444  1.3598  1.3593
    8MOL0     H 1049   0.648   4.992   1.880 -0.1573 -0.0171 -0.1736
    8MOL0     H 1050   0.436   4.896   1.683  0.6541 -4.0054 -0.0301
    8MOL0     H 1051   0.412   4.981   1.831 -0.5718  0.0524 -1.7470
    8MOL0     H 1052   0.526   4.799   1.955  0.5948  0.4832 -0.4083
    8MOL0     H 1053   0.529   4.700   1.808 -1.4250  0.1108 -0.7398
    8MOL0     H 1054   0.273   4.760   1.797  2.0378  0.9947 -2.1265
    8MOL0     H 1055   0.328   4.627   1.905  0.7163  1.2070  3.5611
    8MOL0     H 1056   0.229   4.903   1.981  0.0436 -0.1420  0.5067
    8MOL0     H 1057   0.340   4.800   2.085  0.7558 -2.3156 -0.3819
    8MOL0     H 1058   0.067   4.709   1.982 -0.5058 -3.9353  1.8459
    8MOL0     H 1059   0.159   4.636   2.110 -0.6926 -0.5063  0.3184
    8MOL0     H 1060   0.965   5.201   1.982  2.5210  0.5965  3.3118
    8MOL0     H 1061   1.151   5.369   2.030  0.2700 -1.8975 -1.3122
    8MOL0     H 1062   1.376   5.694   2.207 -0.6553  1.0040  0.0005
    8MOL0     H 1063   1.479   5.917   2.249 -1.6671  1.2806  1.6860
    8MOL0     H 1064   0.076   6.464   2.390  0.9149 -0.2022 -0.4854
    8MOL0     H 1065  -0.107   6.518   2.226 -1.0384  0.5045 -2.6127
    8MOL0     H 1066  -0.200   6.760   1.893 -2.4290  3.5816 -1.1703
    8MOL0     H 1067  -0.415   6.836   1.806  0.8127  0.3923 -0.1427
    8MOL0     H 1068  -0.608   6.589   1.477 -0.0907  1.0098 -1.1307
    8MOL0     H 1069  -0.721   6.714   1.514 -1.7438  0.6748  2.2254
    8MOL0     H 1070  -0.723   6.663   1.762 -0.2316 -1.9877  2.3208
    8MOL0     H 1071  -0.618   6.531   1.735 -0.3852 -1.1018  0.1231
    8MOL0     H 1072  -0.869   6.540   1.566 -1.4244 -1.0814  1.4500
    8MOL0     H 1073  -0.887   6.499   1.739  0.6183  1.6969  1.3361
    8MOL0     H 1074  -0.739   6.316   1.720  0.1558 -2.5564  0.3444
    8MOL0     H 1075  -0.875   6.304   1.596  0.8843  0.6752 -1.3885
    8MOL0     H 1076  -0.544   6.232   1.362 -3.4456 -2.2293 -1.3444
    8MOL0     H 1077  -0.380   6.528   1.498  3.2505 -3.5609 -0.2422
    8MOL0     H 1078  -0.140   6.330   1.639  1.4689  1.4880 -0.0213
    8MOL0     H 1079  -0.241   6.371   1.506  1.4164  1.0512 -1.8363
    8MOL0     H 1080  -0.072   6.429   1.536  2.4884 -3.5408  3.2057
    9MOL0     O 1081   6.027   7.059  10.348 -0.1605  0.2206 -0.4313
    9MOL0     C 1082   6.036   7.087  10.467 -0.1135 -0.5658  0.8014
    9MOL0     O 1083   6.138   7.051  10.551  0.3518  0.3580  0.2441
    9MOL0     C 1084   6.239   6.972  10.490 -0.0067  0.1774  0.5465
    9MOL0     C 1085   6.362   7.036  10.442  1.5478  0.1107  1.0093
    9MOL0     C 1086   6.464   6.957  10.393  0.6554 -0.0893  0.1792
    9MOL0     C 1087   6.455   6.817  10.375 -0.1314  0.2599  0.5438
    9MOL0     O 1088   6.561   6.745  10.322  0.1589 -0.1115 -0.3087
    9MOL0     C 1089   6.681   6.737  10.393 -0.2705 -0.1980 -0.6729
    9MOL0     C 1090   6.678   6.645  10.518 -0.1542 -0.5695 -0.4203
    9MOL0     C 1091   6.808   6.568  10.515  0.0297  0.6113 -0.5561
    9MOL0     C 1092   6.834   6.500  10.650  0.1349  0.4669  0.1600
    9MOL0     C 1093   6.973   6.442  10.669 -0.8419 -0.3051  0.3728
    9MOL0     C 1094   6.974   6.335  10.769  0.3840 -0.0530 -0.1916
    9MOL0     C 1095   7.111   6.297  10.820  0.0049  0.1993  0.6946
    9MOL0     C 1096   7.219   6.247  10.709  0.2512  0.3367  0.8220
    9MOL0     N 1097   7.347   6.245  10.775  0.0801  0.3279  0.1616
    9MOL0     C 1098   7.424   6.133  10.775 -0.1683  0.6774  0.2442
    9MOL0     C 1099   7.541   6.170  10.822 -0.1022  0.2868 -0.0963
    9MOL0     C 1100   7.678   6.112  10.802  1.3306  0.3058  0.1110
    9MOL0     C 1101   7.729   6.075  10.942 -0.4043  0.2342  0.5489
    9MOL0     C 1102   7.856   5.993  10.919  0.0753  0.2774  0.4289
    9MOL0     C 1103   7.901   5.905  11.036  0.4834 -0.4339 -0.8657
    9MOL0     O 1104   8.031   5.862  11.025  0.1909 -0.1482  0.3040
    9MOL0     C 1105   8.127   5.959  11.022 -0.0625  0.1422 -0.7572
    9MOL0     C 1106   8.247   5.914  10.978 -0.5153 -0.8989  0.4189
    9MOL0     C 1107   8.364   5.989  10.991 -0.1970 -0.6420  0.6266
    9MOL0     C 1108   8.364   6.125  11.034  0.8987 -1.1548 -0.2360
    9MOL0     C 1109   8.479   6.216  11.035  0.5373 -0.1601 -0.0962
    9MOL0     O 1110   8.597   6.169  10.995 -0.5194  0.6214  0.0658
    9MOL0     C 1111   8.704   6.238  11.032 -0.1677 -1.0715  0.3069
    9MOL0     C 1112   8.742   6.369  10.988 -0.8312  0.5666  0.7537
    9MOL0     C 1113   8.857   6.420  11.048 -0.6309 -0.6974 -0.1443
    9MOL0     C 1114   8.936   6.348  11.143  0.3580 -0.0227 -0.0655
    9MOL0     O 1115   9.036   6.402  11.224 -0.7210 -0.3747  0.0358
    9MOL0     C 1116   9.068   6.544  11.214 -0.3403 -0.5498  0.0847
    9MOL0     C 1117   9.167   6.584  11.324 -0.8188 -0.1714  0.3751
    9MOL0     C 1118   9.183   6.738  11.322  0.5568  0.6260  0.2907
    9MOL0     C 1119   9.296   6.778  11.419 -0.5917  0.1096 -0.2310
    9MOL0     C 1120   9.343   6.922  11.422  0.3283 -0.4874 -0.7306
    9MOL0     C 1121   9.239   7.020  11.480 -0.6991  0.4116 -0.8651
    9MOL0     C 1122   9.256   7.046  11.625 -0.3440 -0.4173  0.0037
    9MOL0     C 1123   9.136   7.106  11.698  0.2724 -0.0422 -0.4441
    9MOL0    Cl 1124   9.177   7.120  11.870  0.2906 -0.2592  0.0232
    9MOL0     C 1125   8.908   6.214  11.159  0.5187  0.6441  0.6467
    9MOL0     C 1126   8.789   6.165  11.104  0.1463  0.3938  0.0371
    9MOL0     O 1127   8.462   6.324  11.082 -0.5533 -0.0946  0.3317
    9MOL0     C 1128   8.244   6.172  11.078  1.2404  0.4541  0.0914
    9MOL0     C 1129   8.122   6.097  11.078  0.1671  0.0210 -0.7171
    9MOL0     N 1130   7.530   6.302  10.859  0.4902 -0.3445 -1.1785
    9MOL0     N 1131   7.426   6.352  10.807  0.4897  0.4614 -1.4085
    9MOL0     C 1132   6.340   6.755  10.429  0.2571  0.0867 -0.1885
    9MOL0     C 1133   6.232   6.831  10.485 -0.4694  0.0647  0.7399
    9MOL0     C 1134   5.927   7.185  10.521  0.3320 -0.3151 -0.1742
    9MOL0     C 1135   5.944   7.219  10.659 -1.0135  0.5571  0.2195
    9MOL0     C 1136   5.860   7.313  10.721 -0.9212  0.3060 -0.0532
    9MOL0     C 1137   5.736   7.341  10.657 -1.6281 -0.4558 -1.0698
    9MOL0     O 1138   5.648   7.426  10.731  0.3136  0.9664 -0.6804
    9MOL0     C 1139   5.516   7.452  10.671  0.0917 -0.0533 -0.2608
    9MOL0     C 1140   5.445   7.533  10.776 -0.5981  0.0615 -0.0157
    9MOL0     C 1141   5.440   7.457  10.903  0.3609 -0.5487  0.0845
    9MOL0     C 1142   5.375   7.548  11.001 -0.2026 -0.1425  0.4411
    9MOL0     C 1143   5.382   7.505  11.145 -0.1403  0.4286 -0.2079
    9MOL0     C 1144   5.378   7.485  11.263  0.0038 -0.3919 -0.5850
    9MOL0     C 1145   5.711   7.282  10.527  0.2930 -0.1655 -0.3255
    9MOL0     C 1146   5.808   7.225  10.458 -0.9909  0.4292  0.0181
    9MOL0     C 1147   5.777   7.189  10.309 -0.4626  1.0546 -0.2979
    9MOL0     H 1148   6.375   7.144  10.444 -1.2338  0.8006 -3.5382
    9MOL0     H 1149   6.558   7.007  10.368  2.3954 -2.1696  2.0766
    9MOL0     H 1150   6.757   6.695  10.327 -1.9863 -2.6447 -1.2233
    9MOL0     H 1151   6.727   6.833  10.417 -0.5800 -0.0773 -0.5590
    9MOL0     H 1152   6.589   6.582  10.521 -0.3873 -0.4572 -2.8053
    9MOL0     H 1153   6.680   6.716  10.601  1.2680 -0.7983 -0.2368
    9MOL0     H 1154   6.893   6.635  10.499  1.1008  1.0850  5.0290
    9MOL0     H 1155   6.814   6.496  10.433  1.9955  0.3201 -0.2182
    9MOL0     H 1156   6.814   6.577  10.725  0.5768 -0.4681  1.2550
    9MOL0     H 1157   6.757   6.426  10.671 -1.8875  2.7290  1.2607
    9MOL0     H 1158   7.009   6.403  10.574  0.4242 -3.2146  1.8974
    9MOL0     H 1159   7.046   6.517  10.700  1.7426 -1.4221 -2.5010
    9MOL0     H 1160   6.913   6.359  10.857 -0.7819 -1.6014 -0.5112
    9MOL0     H 1161   6.926   6.244  10.729 -2.0936  0.7386  0.7615
    9MOL0     H 1162   7.104   6.216  10.893  2.3318  0.6056  1.4328
    9MOL0     H 1163   7.150   6.387  10.868 -0.4623 -0.4794  2.4438
    9MOL0     H 1164   7.188   6.152  10.666 -0.9406  0.5218  1.2557
    9MOL0     H 1165   7.225   6.319  10.626 -2.3211 -0.1538  0.1290
    9MOL0     H 1166   7.390   6.042  10.727 -0.1149 -1.2275  3.5386
    9MOL0     H 1167   7.670   6.025  10.736 -0.2532  0.1605  0.4625
    9MOL0     H 1168   7.746   6.178  10.746 -0.4781  1.1551 -1.2067
    9MOL0     H 1169   7.756   6.165  10.999  1.1956  2.1871 -2.9531
    9MOL0     H 1170   7.649   6.027  10.999 -1.3556 -0.2126 -1.0902
    9MOL0     H 1171   7.945   6.050  10.890 -0.1044 -0.0795 -0.8979
    9MOL0     H 1172   7.848   5.920  10.838  1.2561 -2.1854  2.3884
    9MOL0     H 1173   7.827   5.826  11.049  1.5600 -1.8685 -2.7943
    9MOL0     H 1174   7.889   5.967  11.125  1.8925  0.4755 -1.2708
    9MOL0     H 1175   8.259   5.812  10.944 -0.1832 -0.4261 -0.9434
    9MOL0     H 1176   8.455   5.938  10.963  2.2531  3.5775 -0.0936
    9MOL0     H 1177   8.685   6.420  10.912  0.7828 -0.6328 -1.4075
    9MOL0     H 1178   8.880   6.523  11.024 -1.4835  0.8714  4.6355
    9MOL0     H 1179   9.123   6.560  11.121 -0.5369 -0.2800  0.0144
    9MOL0     H 1180   8.978   6.605  11.216 -0.0331  0.0473 -1.8670
    9MOL0     H 1181   9.137   6.562  11.426  0.3825 -0.4507  0.6767
    9MOL0     H 1182   9.265   6.539  11.306  0.8903  2.0038  3.3682
    9MOL0     H 1183   9.223   6.774  11.227  1.3676 -0.3525  0.2510
    9MOL0     H 1184   9.089   6.788  11.347  0.5106  1.0644 -0.7015
    9MOL0     H 1185   9.380   6.710  11.398 -1.9932 -1.3784 -1.2949
    9MOL0     H 1186   9.271   6.747  11.520 -1.0595  0.0637 -0.3608
    9MOL0     H 1187   9.371   6.948  11.319 -2.0908  0.4883 -1.2301
    9MOL0     H 1188   9.429   6.933  11.488  1.4184 -0.8778 -2.0356
    9MOL0     H 1189   9.227   7.116  11.427 -1.2563  2.2251  2.2845
    9MOL0     H 1190   9.138   6.980  11.474 -1.1451  1.3359  0.1140
    9MOL0     H 1191   9.342   7.113  11.629 -0.0069 -0.8860  1.1799
    9MOL0     H 1192   9.288   6.952  11.671  3.8936  1.2036  0.7992
    9MOL0     H 1193   9.102   7.200  11.654  0.1234 -0.3167 -0.9205
    9MOL0     H 1194   9.040   7.054  11.700  0.6358 -0.7657 -1.2830
    9MOL0     H 1195   8.974   6.148  11.215  2.0301  0.7075 -0.9674
    9MOL0     H 1196   8.754   6.066  11.130 -2.0528  2.1845  5.3033
    9MOL0     H 1197   8.226   6.275  11.108  0.6903  1.0587 -2.0818
    9MOL0     H 1198   8.035   6.137  11.128  1.3431  0.4296  1.0541
    9MOL0     H 1199   6.347   6.647  10.439  0.6161  0.0853 -0.4280
    9MOL0     H 1200   6.143   6.784  10.525 -1.0913  1.3434  0.8940
    9MOL0     H 1201   6.034   7.187  10.712  0.0670 -1.6284 -2.6928
    9MOL0     H 1202   5.887   7.362  10.814 -1.7351  0.5871  0.0426
    9MOL0     H 1203   5.458   7.362  10.653  0.1687  0.1260 -1.4963
    9MOL0     H 1204   5.533   7.502  10.575  2.5531 -0.0462  0.1105
    9MOL0     H 1205   5.343   7.565  10.752 -0.6566  1.0373  1.4303
    9MOL0     H 1206   5.500   7.628  10.780 -0.4769 -0.0546  1.3016
    9MOL0     H 1207   5.537   7.435  10.947  0.6106  0.1170 -0.1228
    9MOL0     H 1208   5.383   7.365  10.887  1.9037 -1.5895  0.3815
    9MOL0     H 1209   5.434   7.640  11.000  0.2076 -0.3317  2.4123
    9MOL0     H 1210   5.271   7.571  10.976 -0.0754  1.9141  1.5792
    9MOL0     H 1211   5.381   7.465  11.369  1.8269  0.1442 -0.4917
    9MOL0     H 1212   5.612   7.280  10.483  0.7981 -0.2329 -1.4738
    9MOL0     H 1213   5.781   7.081  10.288  3.3358  1.2494 -1.3925
    9MOL0     H 1214   5.687   7.238  10.271 -0.7207  0.9019  0.1034
    9MOL0     H 1215   5.858   7.230  10.248 -0.7627  1.6512 -0.2973
   10MOL0     O 1216  10.281   9.992   5.249  1.1281  0.2592  0.1635
   10MOL0     C 1217  10.228   9.967   5.361 -0.2272 -0.1317 -0.0954
   10MOL0     O 1218  10.290   9.910   5.470 -0.1419  0.1397 -0.0494
   10MOL0     C 1219  10.424   9.877   5.455  0.6314  0.4090  1.0415
   10MOL0     C 1220  10.465   9.768   5.383  0.5045  0.3179  0.2311
   10MOL0     C 1221  10.599   9.736   5.381  0.5993  0.2106  0.3641
   10MOL0     C 1222  10.697   9.823   5.426  0.0038 -0.5621  0.7379
   10MOL0     O 1223  10.825   9.804   5.383 -0.4617 -0.0864 -0.1269
   10MOL0     C 1224  10.916   9.919   5.401  1.2422  0.6038  0.0147
   10MOL0     C 1225  11.065   9.896   5.367  0.4585  0.1163 -0.9199
   10MOL0     C 1226  11.097   9.863   5.219  0.4450 -0.5241 -0.3933
   10MOL0     C 1227  11.253   9.842   5.201  0.3850  0.3182  0.3922
   10MOL0     C 1228  11.280   9.789   5.063 -0.2575 -0.1200  0.7764
   10MOL0     C 1229  11.419   9.818   5.011 -0.2854  0.3007 -0.5508
   10MOL0     C 1230  11.533   9.779   5.103  0.1431 -0.2427  0.7487
   10MOL0     C 1231  11.666   9.814   5.034 -0.6830  1.0330  0.0274
   10MOL0     N 1232  11.768   9.741   5.104 -0.2143 -0.3917 -0.3129
   10MOL0     C 1233  11.828   9.628   5.055  0.2709 -0.2389  0.6158
   10MOL0     C 1234  11.904   9.584   5.160  0.5380  1.2494  0.2455
   10MOL0     C 1235  11.984   9.457   5.159  0.6310  0.0393 -0.6414
   10MOL0     C 1236  12.133   9.476   5.137  0.1205  0.4835 -0.2885
   10MOL0     C 1237  12.204   9.534   5.261  0.6366 -0.6598  0.1180
   10MOL0     C 1238  12.346   9.579   5.221 -0.0935 -0.3475  0.0556
   10MOL0     O 1239  12.429   9.606   5.336 -0.3067 -0.5072 -0.2110
   10MOL0     C 1240  12.567   9.614   5.317  0.2340  0.3963 -0.4804
   10MOL0     C 1241  12.640   9.639   5.203 -0.1468  1.0450  0.2530
   10MOL0     C 1242  12.774   9.640   5.211 -0.8567 -0.7247  0.4815
   10MOL0     C 1243  12.846   9.630   5.332  0.1491  0.0002  0.2507
   10MOL0     C 1244  12.999   9.622   5.336  1.0693  0.1009 -0.3157
   10MOL0     O 1245  13.050   9.582   5.453 -0.0557  0.3787  0.1142
   10MOL0     C 1246  13.191   9.564   5.465 -0.1042  0.1390  0.5033
   10MOL0     C 1247  13.272   9.677   5.477 -0.9000  0.3437 -0.3043
   10MOL0     C 1248  13.397   9.663   5.528  0.7691 -0.4846  1.0830
   10MOL0     C 1249  13.451   9.535   5.560 -0.4015  0.3991  0.6908
   10MOL0     O 1250  13.577   9.505   5.610  0.1955  0.1893 -0.3876
   10MOL0     C 1251  13.690   9.592   5.584 -0.1058 -0.5410 -0.0252
   10MOL0     C 1252  13.792   9.533   5.489 -0.8675 -0.1253  0.3476
   10MOL0     C 1253  13.744   9.478   5.358  0.6923 -0.6672  0.9559
   10MOL0     C 1254  13.862   9.435   5.276 -0.2515 -0.4282  0.1379
   10MOL0     C 1255  13.829   9.458   5.131  0.7627  0.1249 -1.3296
   10MOL0     C 1256  13.934   9.401   5.038 -0.8512  0.4740  0.0299
   10MOL0     C 1257  14.070   9.485   5.042  0.1470 -0.6859 -0.4548
   10MOL0     C 1258  14.040   9.616   4.968 -0.1874  0.3391  0.1829
   10MOL0    Cl 1259  14.187   9.713   4.968  0.0845 -0.3614 -0.0406
   10MOL0     C 1260  13.369   9.423   5.542 -0.0310  0.2041  0.4092
   10MOL0     C 1261  13.238   9.439   5.490  0.0793 -0.7055  0.0222
   10MOL0     O 1262  13.053   9.627   5.229 -0.4207  0.4250 -0.1240
   10MOL0     C 1263  12.771   9.611   5.445 -0.1603 -0.1864  0.0406
   10MOL0     C 1264  12.636   9.605   5.440  0.2774  0.5533 -0.6223
   10MOL0     N 1265  11.892   9.668   5.271 -0.6246  1.4018  0.6797
   10MOL0     N 1266  11.816   9.759   5.234 -0.5442 -0.0970 -0.0477
   10MOL0     C 1267  10.654   9.928   5.500  0.6341 -0.1689 -0.5489
   10MOL0     C 1268  10.516   9.956   5.518 -0.3934 -0.5678 -1.4648
   10MOL0     C 1269  10.082  10.004   5.383  0.0863 -0.4534 -0.7987
   10MOL0     C 1270  10.018   9.942   5.490 -0.5400 -1.6411 -0.4361
   10MOL0     C 1271   9.883   9.963   5.525 -0.5540  0.4133 -0.6207
   10MOL0     C 1272   9.805  10.045   5.434  1.3190  0.6108  0.3227
   10MOL0     O 1273   9.671  10.064   5.469  0.1576  0.3744 -0.2202
   10MOL0     C 1274   9.604   9.988   5.572 -0.0357 -0.6092 -0.3173
   10MOL0     C 1275   9.457  10.019   5.599  0.3456  0.1408 -0.1040
   10MOL0     C 1276   9.365   9.959   5.490  0.1767  0.2792 -0.1647
   10MOL0     C 1277   9.216   9.960   5.529  0.5664  0.4532  0.2973
   10MOL0     C 1278   9.144   9.941   5.405  0.1950  0.0826  0.2568
   10MOL0     C 1279   9.069   9.896   5.318 -0.8268 -0.4120 -0.0718
   10MOL0     C 1280   9.862  10.092   5.321  0.1581  0.6020  1.2139
   10MOL0     C 1281  10.002  10.089   5.304  0.2578 -0.2182  0.9295
   10MOL0     C 1282  10.051  10.181   5.184  0.7285  0.0386 -0.7382
   10MOL0     H 1283  10.388   9.698   5.350  1.9411 -1.6075  0.7895
   10MOL0     H 1284  10.631   9.657   5.315  2.8940  3.2866 -2.6021
   10MOL0     H 1285  10.878  10.000   5.337 -1.4316 -1.6552 -1.4864
   10MOL0     H 1286  10.913   9.949   5.506  0.6980 -0.0499  0.1913
   10MOL0     H 1287  11.098   9.824   5.443 -1.5757  1.5650  1.5280
   10MOL0     H 1288  11.124   9.984   5.393  3.2729 -1.1791 -2.5159
   10MOL0     H 1289  11.069   9.951   5.161  1.8408 -0.4412 -0.9728
   10MOL0     H 1290  11.048   9.775   5.178 -1.4974  1.2287 -2.0692
   10MOL0     H 1291  11.295   9.943   5.214  1.0027 -0.0361  1.2250
   10MOL0     H 1292  11.278   9.773   5.282  0.4556  0.3005  0.3555
   10MOL0     H 1293  11.273   9.680   5.059  0.0166 -0.1452  0.9566
   10MOL0     H 1294  11.195   9.833   5.010 -0.5902 -0.3232  1.1364
   10MOL0     H 1295  11.430   9.768   4.914 -0.9211  1.3641 -1.2042
   10MOL0     H 1296  11.420   9.926   4.992  2.7257  0.3540 -0.5264
   10MOL0     H 1297  11.526   9.670   5.114 -2.0657 -0.0659  1.5424
   10MOL0     H 1298  11.530   9.832   5.199 -0.1177 -1.6879  1.5756
   10MOL0     H 1299  11.673   9.790   4.927  1.1540  0.0293  0.3314
   10MOL0     H 1300  11.693   9.919   5.050 -1.4436  1.4855 -1.4414
   10MOL0     H 1301  11.802   9.590   4.957 -1.6821  1.5926  0.3583
   10MOL0     H 1302  11.958   9.402   5.250  2.4521 -3.0171 -1.8179
   10MOL0     H 1303  11.956   9.389   5.078 -1.6593  2.1091 -1.7599
   10MOL0     H 1304  12.181   9.381   5.112 -1.3680 -0.4225  0.2226
   10MOL0     H 1305  12.146   9.541   5.050  1.9161 -0.9511 -1.1564
   10MOL0     H 1306  12.212   9.453   5.333 -2.0756 -0.3632  0.8765
   10MOL0     H 1307  12.160   9.624   5.306  2.0536 -0.1566  0.5688
   10MOL0     H 1308  12.333   9.666   5.155 -0.1786 -1.3402 -1.2851
   10MOL0     H 1309  12.392   9.503   5.157 -0.9523 -0.9077  0.0808
   10MOL0     H 1310  12.586   9.651   5.109  2.7288  0.5490 -1.6048
   10MOL0     H 1311  12.832   9.651   5.120  3.6627  0.6608  3.1657
   10MOL0     H 1312  13.224   9.773   5.459 -2.0677 -0.0308  0.6595
   10MOL0     H 1313  13.451   9.757   5.526 -2.0605  1.2231  0.5639
   10MOL0     H 1314  13.649   9.679   5.532  1.7260  1.2582  1.3716
   10MOL0     H 1315  13.724   9.629   5.681 -0.5346 -1.6251  0.5587
   10MOL0     H 1316  13.852   9.621   5.464 -0.3655 -0.8391 -1.0483
   10MOL0     H 1317  13.842   9.453   5.544 -1.8235 -1.5207 -0.7499
   10MOL0     H 1318  13.684   9.387   5.372  0.4220 -0.3167  2.2998
   10MOL0     H 1319  13.686   9.557   5.311 -0.2481 -1.4625  0.7324
   10MOL0     H 1320  13.903   9.336   5.296  0.4553  0.2825  2.5452
   10MOL0     H 1321  13.934   9.514   5.299 -1.2202  0.8457 -0.9442
   10MOL0     H 1322  13.805   9.564   5.121 -2.6636 -0.3170  0.6005
   10MOL0     H 1323  13.735   9.409   5.105  1.4005 -2.7345  1.1949
   10MOL0     H 1324  13.963   9.304   5.079  0.6276  1.2618  0.9170
   10MOL0     H 1325  13.894   9.381   4.938 -0.5726 -1.2821  0.2263
   10MOL0     H 1326  14.151   9.426   4.999  1.8383  0.5808  0.8460
   10MOL0     H 1327  14.099   9.503   5.146  1.3419  0.6275 -0.9928
   10MOL0     H 1328  14.016   9.581   4.867  0.0574  1.2443 -0.1898
   10MOL0     H 1329  13.954   9.676   5.001  1.2085  2.1187  0.7269
   10MOL0     H 1330  13.410   9.327   5.570  1.1017  1.2439  2.6381
   10MOL0     H 1331  13.164   9.359   5.493 -1.8131  0.9403 -0.8077
   10MOL0     H 1332  12.818   9.591   5.541 -0.9887  0.9492  0.7045
   10MOL0     H 1333  12.575   9.588   5.528 -0.4898  0.3035 -1.1865
   10MOL0     H 1334  10.716  10.000   5.551 -0.1479  1.9261 -2.4196
   10MOL0     H 1335  10.467  10.032   5.578 -2.3960 -1.7683 -1.5102
   10MOL0     H 1336  10.075   9.869   5.548 -1.2408 -2.1842 -0.4196
   10MOL0     H 1337   9.845   9.908   5.610 -0.6949 -1.8357 -2.0655
   10MOL0     H 1338   9.665   9.996   5.662 -0.2120  1.7712 -0.3541
   10MOL0     H 1339   9.607   9.884   5.540  3.1324 -0.3550 -1.1862
   10MOL0     H 1340   9.427  10.123   5.618 -0.2785 -0.1590  0.5757
   10MOL0     H 1341   9.440   9.950   5.682 -0.2596 -0.1447 -0.4574
   10MOL0     H 1342   9.395   9.855   5.472  0.4506  0.3285  0.0015
   10MOL0     H 1343   9.381  10.011   5.395 -0.6421  1.8824  0.5464
   10MOL0     H 1344   9.196   9.873   5.593  1.1524 -0.1804 -0.3547
   10MOL0     H 1345   9.171  10.045   5.580 -1.2296 -0.6278  0.5784
   10MOL0     H 1346   9.039   9.853   5.225 -0.4795  2.6934 -1.7598
   10MOL0     H 1347   9.807  10.161   5.257  1.4190  0.3933 -0.1569
   10MOL0     H 1348  10.138  10.236   5.221  0.9589 -2.3505  2.6192
   10MOL0     H 1349  10.085  10.120   5.099 -0.9611  0.8294 -2.0393
   10MOL0     H 1350   9.986  10.261   5.146  1.3284  0.6879 -0.4164
   11MOL0     O 1351   1.557   8.818   2.930  0.3498 -0.6074  0.1562
   11MOL0     C 1352   1.500   8.749   3.018  0.2135 -0.5691 -0.6672
   11MOL0     O 1353   1.547   8.631   3.074  0.2486 -0.5553 -0.2042
   11MOL0     C 1354   1.678   8.588   3.042  0.2628 -0.7822  0.1628
   11MOL0     C 1355   1.700   8.488   2.941 -0.3979  0.9186  0.5017
   11MOL0     C 1356   1.832   8.471   2.887  0.3978  0.8849 -0.2917
   11MOL0     C 1357   1.942   8.539   2.936  0.5091  0.2937  0.1981
   11MOL0     O 1358   2.069   8.513   2.884 -0.1440 -0.2599  0.0002
   11MOL0     C 1359   2.181   8.580   2.929  0.0262 -0.0698 -0.2020
   11MOL0     C 1360   2.305   8.511   2.864 -0.4453 -0.8201  0.8803
   11MOL0     C 1361   2.308   8.509   2.703 -0.0630 -0.4320 -0.0869
   11MOL0     C 1362   2.390   8.381   2.655 -0.7720  0.0444  0.8094
   11MOL0     C 1363   2.541   8.412   2.649 -0.0411  0.6686  0.6438
   11MOL0     C 1364   2.619   8.313   2.562  0.1213  0.1166  0.1650
   11MOL0     C 1365   2.752   8.374   2.522  1.2592 -0.4537  0.3229
   11MOL0     C 1366   2.846   8.409   2.644  0.9149  0.1460 -0.1490
   11MOL0     N 1367   2.981   8.425   2.590  0.9103  0.4771  0.8101
   11MOL0     C 1368   3.019   8.538   2.516 -0.3518 -0.9856  0.2357
   11MOL0     C 1369   3.155   8.514   2.491  0.7290  0.3327  0.4966
   11MOL0     C 1370   3.249   8.616   2.446 -0.0979  0.5829 -0.2759
   11MOL0     C 1371   3.196   8.718   2.339 -0.2038  0.4690 -0.7587
   11MOL0     C 1372   3.180   8.650   2.203 -0.2377 -0.3869  0.9984
   11MOL0     C 1373   3.299   8.603   2.119 -0.9566 -0.0953 -0.3549
   11MOL0     O 1374   3.401   8.704   2.103  0.5302 -0.0759 -0.2697
   11MOL0     C 1375   3.526   8.675   2.140 -1.5501 -0.2767 -0.4261
   11MOL0     C 1376   3.615   8.624   2.038 -0.0629 -0.6600 -0.3239
   11MOL0     C 1377   3.742   8.601   2.064 -0.7498 -0.0902 -0.7780
   11MOL0     C 1378   3.794   8.625   2.195 -0.4935  0.1302  0.9696
   11MOL0     C 1379   3.930   8.585   2.226 -1.1457  0.1679  0.7191
   11MOL0     O 1380   3.956   8.548   2.362 -0.0905 -0.2086  0.2207
   11MOL0     C 1381   4.072   8.515   2.412  0.1283 -0.2610  0.3260
   11MOL0     C 1382   4.082   8.425   2.513 -0.3791  0.3807  0.2182
   11MOL0     C 1383   4.201   8.410   2.579 -0.1002  0.3644  0.3172
   11MOL0     C 1384   4.313   8.481   2.532  0.3030  0.2008 -0.6845
   11MOL0     O 1385   4.435   8.433   2.572  0.2581 -0.0537 -0.4420
   11MOL0     C 1386   4.561   8.485   2.527 -0.2272 -0.0648 -0.2107
   11MOL0     C 1387   4.621   8.430   2.400 -0.0872  0.1917  0.3234
   11MOL0     C 1388   4.722   8.531   2.336 -1.3519  0.4805 -0.5451
   11MOL0     C 1389   4.661   8.651   2.259  0.3636 -0.2118 -0.5979
   11MOL0     C 1390   4.766   8.748   2.199 -1.0496  0.4910  0.6239
   11MOL0     C 1391   4.852   8.822   2.302 -0.5415  0.2099  0.6574
   11MOL0     C 1392   4.938   8.935   2.231  0.3920 -0.4349 -0.1890
   11MOL0     C 1393   5.088   8.893   2.213 -0.3703 -0.7361  0.2256
   11MOL0    Cl 1394   5.183   9.036   2.154  0.2731 -0.2781  0.7451
   11MOL0     C 1395   4.305   8.568   2.422 -0.1801  0.1662 -0.3547
   11MOL0     C 1396   4.182   8.595   2.373 -0.6452 -0.0924  0.5764
   11MOL0     O 1397   4.013   8.596   2.138 -0.2387  0.3427  1.2136
   11MOL0     C 1398   3.705   8.678   2.289 -0.3298  0.6046  0.7515
   11MOL0     C 1399   3.578   8.717   2.260  0.6608  0.8005  0.1868
   11MOL0     N 1400   3.194   8.392   2.538 -0.2940  0.1803  0.1457
   11MOL0     N 1401   3.090   8.341   2.592 -0.4214  0.8335 -0.6775
   11MOL0     C 1402   1.921   8.623   3.046 -0.1299 -0.7171 -0.1745
   11MOL0     C 1403   1.795   8.647   3.097  0.4694  0.5442 -0.7374
   11MOL0     C 1404   1.353   8.786   3.049 -0.3638  0.7741  0.1845
   11MOL0     C 1405   1.287   8.692   3.134  0.0374  0.3929  0.1920
   11MOL0     C 1406   1.155   8.721   3.170  0.4496 -0.3188 -0.1718
   11MOL0     C 1407   1.085   8.829   3.124  0.3119  0.3423  0.4099
   11MOL0     O 1408   0.950   8.860   3.146  0.6499 -0.5210 -0.0672
   11MOL0     C 1409   0.866   8.770   3.215  0.5768  0.2584  0.1422
   11MOL0     C 1410   0.727   8.820   3.188  0.3436  1.2792  0.1893
   11MOL0     C 1411   0.687   8.927   3.282  0.5690 -0.2096  0.5450
   11MOL0     C 1412   0.533   8.958   3.277  0.8082  0.2225  0.0165
   11MOL0     C 1413   0.450   8.888   3.377  0.1368 -0.2251  0.0420
   11MOL0     C 1414   0.377   8.840   3.461  0.5681 -0.3248 -0.1486
   11MOL0     C 1415   1.148   8.917   3.038 -0.8000  0.3197  0.7895
   11MOL0     C 1416   1.284   8.897   2.997 -0.5265 -0.1492  0.5134
   11MOL0     C 1417   1.342   9.008   2.903 -0.9998 -0.1323 -0.0457
   11MOL0     H 1418   1.616   8.427   2.908  0.0145 -1.0989  2.9067
   11MOL0     H 1419   1.842   8.402   2.804  0.4490  2.4677 -1.6708
   11MOL0     H 1420   2.187   8.685   2.899  1.0967  1.1158  3.5958
   11MOL0     H 1421   2.187   8.571   3.038  0.9757 -0.0043 -0.2408
   11MOL0     H 1422   2.293   8.405   2.888  1.4680 -1.1602  0.4385
   11MOL0     H 1423   2.399   8.551   2.902 -1.7354  0.5510  2.8337
   11MOL0     H 1424   2.356   8.596   2.659 -2.6330  1.6113  0.8729
   11MOL0     H 1425   2.204   8.513   2.667 -0.7891  2.2184  2.0228
   11MOL0     H 1426   2.368   8.291   2.713  0.4009 -1.1786 -0.5691
   11MOL0     H 1427   2.354   8.352   2.555  2.6827 -2.3568  0.0735
   11MOL0     H 1428   2.552   8.513   2.609  2.3986 -0.2933 -1.3835
   11MOL0     H 1429   2.574   8.407   2.754 -1.3331 -0.2261  1.0384
   11MOL0     H 1430   2.653   8.226   2.619  0.0194 -0.7523 -1.0570
   11MOL0     H 1431   2.562   8.286   2.473  0.4608  2.3174 -0.7789
   11MOL0     H 1432   2.733   8.465   2.464 -0.4277  1.1382  3.1575
   11MOL0     H 1433   2.790   8.293   2.458  0.2095  0.4771 -1.5758
   11MOL0     H 1434   2.816   8.497   2.701 -1.9032 -1.8059  1.6244
   11MOL0     H 1435   2.851   8.333   2.723  5.2593 -0.9712 -1.2606
   11MOL0     H 1436   2.956   8.623   2.493  0.4114 -0.1065  1.2600
   11MOL0     H 1437   3.279   8.672   2.534 -0.1733  1.3669 -0.7409
   11MOL0     H 1438   3.334   8.561   2.405  1.0947  0.0359  2.7353
   11MOL0     H 1439   3.103   8.761   2.378 -0.5293 -0.4230 -0.5222
   11MOL0     H 1440   3.263   8.804   2.342 -0.5262  0.7336 -1.1016
   11MOL0     H 1441   3.120   8.715   2.139 -2.6435 -2.8834  0.4989
   11MOL0     H 1442   3.114   8.565   2.224  1.2831 -2.2549 -1.1763
   11MOL0     H 1443   3.272   8.558   2.023 -3.3433 -2.9678  1.4627
   11MOL0     H 1444   3.346   8.521   2.176  0.3516  0.1392 -1.0666
   11MOL0     H 1445   3.562   8.611   1.944 -1.7569 -0.8828  0.6329
   11MOL0     H 1446   3.800   8.566   1.979  0.6298 -0.7670  0.3967
   11MOL0     H 1447   3.993   8.371   2.544 -2.2979  2.3956 -1.4566
   11MOL0     H 1448   4.203   8.342   2.663 -0.1407 -1.1443 -0.8563
   11MOL0     H 1449   4.554   8.594   2.529  0.2379 -0.0341  1.4584
   11MOL0     H 1450   4.631   8.457   2.607  0.6284  0.2991 -0.8139
   11MOL0     H 1451   4.681   8.339   2.405 -0.1328  0.1425 -0.0257
   11MOL0     H 1452   4.545   8.402   2.326 -0.6976 -0.3297  1.1302
   11MOL0     H 1453   4.791   8.568   2.413 -0.3181  0.0465 -1.2363
   11MOL0     H 1454   4.794   8.479   2.272 -0.2749  3.0350 -1.5497
   11MOL0     H 1455   4.596   8.704   2.329  1.4429 -0.0217  0.2889
   11MOL0     H 1456   4.595   8.616   2.179 -1.5169  2.5155 -0.3498
   11MOL0     H 1457   4.715   8.828   2.145 -1.6687  1.6871  2.8301
   11MOL0     H 1458   4.823   8.670   2.148  2.5979  1.7481  2.4504
   11MOL0     H 1459   4.783   8.862   2.377  0.7712  0.7233  1.6256
   11MOL0     H 1460   4.916   8.747   2.349 -0.5620 -0.2744 -0.0749
   11MOL0     H 1461   4.930   9.015   2.306  0.8155  0.1455 -0.7413
   11MOL0     H 1462   4.891   8.963   2.136  0.5058 -0.2473 -0.1915
   11MOL0     H 1463   5.135   8.865   2.308  1.5072 -3.3420 -1.3249
   11MOL0     H 1464   5.093   8.802   2.153 -0.9147  0.2081 -1.2979
   11MOL0     H 1465   4.393   8.619   2.384 -1.3710  3.0388  0.5538
   11MOL0     H 1466   4.187   8.675   2.300  0.3006 -1.5697 -1.0273
   11MOL0     H 1467   3.744   8.705   2.387 -1.2101  0.1656  1.2278
   11MOL0     H 1468   3.524   8.770   2.337  1.7008  0.4980  1.1637
   11MOL0     H 1469   2.013   8.671   3.079  0.1647  0.1155 -2.0404
   11MOL0     H 1470   1.785   8.707   3.187  0.1330 -1.2017  0.4303
   11MOL0     H 1471   1.335   8.604   3.175  1.5210  1.6480  1.3071
   11MOL0     H 1472   1.093   8.651   3.225  0.1498 -0.8049 -1.1036
   11MOL0     H 1473   0.883   8.768   3.323  0.2401 -1.2768  0.1834
   11MOL0     H 1474   0.891   8.678   3.163  1.3845 -0.4231  1.6971
   11MOL0     H 1475   0.673   8.726   3.205 -0.1128  1.7775  1.5932
   11MOL0     H 1476   0.708   8.843   3.082 -0.3228 -3.2073 -0.8587
   11MOL0     H 1477   0.737   9.016   3.243 -1.2044 -0.1098 -1.7272
   11MOL0     H 1478   0.712   8.911   3.387 -0.9201  2.6122  1.4319
   11MOL0     H 1479   0.523   9.065   3.299  0.9408  0.0639  0.9064
   11MOL0     H 1480   0.503   8.943   3.173  1.9081 -0.2779 -0.2510
   11MOL0     H 1481   0.320   8.821   3.549  1.6759  0.3883  0.7486
   11MOL0     H 1482   1.097   9.006   3.001  1.3171  1.2771 -0.0006
   11MOL0     H 1483   1.296   9.106   2.914  3.8493  2.4298 -0.1779
   11MOL0     H 1484   1.443   9.029   2.938 -2.6565  3.8619  3.1586
   11MOL0     H 1485   1.343   8.979   2.798  3.4188  1.8559 -0.7380
   12MOL0     O 1486   5.563  10.022   3.462  0.3384 -0.3895 -0.0719
   12MOL0     C 1487   5.638   9.969   3.384  0.6507 -0.1132 -0.2703
   12MOL0     O 1488   5.591   9.899   3.268  0.3803  0.0004 -0.2542
   12MOL0     C 1489   5.457   9.908   3.243 -0.1520 -0.4025 -0.0158
   12MOL0     C 1490   5.407   9.996   3.150  0.4928 -0.1826  0.2921
   12MOL0     C 1491   5.275  10.015   3.131  0.6987 -0.4002  0.0600
   12MOL0     C 1492   5.184   9.931   3.201 -1.1690  1.2650 -0.3113
   12MOL0     O 1493   5.050   9.943   3.196  0.0735  0.4194 -0.0478
   12MOL0     C 1494   4.984  10.009   3.088 -1.1551  0.2276  0.8326
   12MOL0     C 1495   4.837   9.970   3.079  0.2289  0.4094 -0.2129
   12MOL0     C 1496   4.770  10.016   2.941 -0.8083 -0.1883 -0.6422
   12MOL0     C 1497   4.616   9.996   2.960 -0.1315 -0.3105  0.6419
   12MOL0     C 1498   4.549  10.051   2.829 -1.1363  0.2346  0.0977
   12MOL0     C 1499   4.586   9.976   2.696 -0.8555 -0.2504  0.6392
   12MOL0     C 1500   4.553   9.818   2.690 -0.7833 -0.2338  0.0025
   12MOL0     C 1501   4.629   9.749   2.581  0.4553 -0.1214 -0.8056
   12MOL0     N 1502   4.776   9.739   2.601  0.0773  0.2721  0.7372
   12MOL0     C 1503   4.868   9.686   2.506  0.4980 -0.4814  0.1790
   12MOL0     C 1504   4.989   9.704   2.558 -0.2145  0.1587 -0.1742
   12MOL0     C 1505   5.123   9.682   2.482 -0.0987  0.6348  0.3869
   12MOL0     C 1506   5.163   9.536   2.507 -0.7549 -0.0836 -0.6556
   12MOL0     C 1507   5.232   9.528   2.642 -0.6454 -0.2233 -0.2876
   12MOL0     C 1508   5.321   9.402   2.650  0.6352  0.6073  0.2259
   12MOL0     O 1509   5.405   9.388   2.537  0.7698  0.2895 -0.3963
   12MOL0     C 1510   5.524   9.446   2.529 -0.7561  0.8049 -0.0603
   12MOL0     C 1511   5.572   9.548   2.610 -0.1255  0.5696 -0.0695
   12MOL0     C 1512   5.701   9.595   2.595  0.4496 -0.0150 -1.1861
   12MOL0     C 1513   5.783   9.544   2.501 -0.6764  0.9592  0.0405
   12MOL0     C 1514   5.924   9.582   2.502 -0.2018 -0.0554  0.8885
   12MOL0     O 1515   6.014   9.506   2.442  0.0524 -0.7903  0.1844
   12MOL0     C 1516   6.149   9.523   2.454 -0.1581 -0.0095  0.1113
   12MOL0     C 1517   6.212   9.557   2.335 -0.2752  0.2765  0.2134
   12MOL0     C 1518   6.348   9.582   2.333 -0.1018  0.4960 -0.3570
   12MOL0     C 1519   6.421   9.580   2.453  0.2171 -0.3427 -0.9221
   12MOL0     O 1520   6.558   9.602   2.446 -0.0223 -0.0729 -0.2720
   12MOL0     C 1521   6.618   9.672   2.549 -0.3338  0.0723  0.1029
   12MOL0     C 1522   6.759   9.720   2.515  2.1100  0.4125  0.2623
   12MOL0     C 1523   6.847   9.601   2.472  0.9906  0.5461 -0.1947
   12MOL0     C 1524   6.994   9.655   2.461 -0.0591 -0.1000 -0.2484
   12MOL0     C 1525   7.082   9.565   2.381 -0.0879  0.6063  0.4095
   12MOL0     C 1526   7.221   9.622   2.351 -0.4236  0.7215  1.5761
   12MOL0     C 1527   7.317   9.628   2.464  0.0173  0.2134 -0.0906
   12MOL0     C 1528   7.458   9.639   2.405  0.0138  0.4704 -0.4050
   12MOL0    Cl 1529   7.579   9.611   2.528  0.0745  0.2939  0.0209
   12MOL0     C 1530   6.358   9.562   2.578 -0.6025  0.2980  0.5243
   12MOL0     C 1531   6.222   9.520   2.576 -0.9413  0.2119  0.2080
   12MOL0     O 1532   5.955   9.667   2.586  0.6793 -0.1649  0.8930
   12MOL0     C 1533   5.742   9.439   2.421 -0.3474 -0.7746  0.2736
   12MOL0     C 1534   5.611   9.396   2.428  0.3694 -0.5511 -0.1731
   12MOL0     N 1535   4.977   9.766   2.682  0.3972  0.4024  0.0239
   12MOL0     N 1536   4.852   9.789   2.705  0.4061  0.1063 -0.3106
   12MOL0     C 1537   5.235   9.836   3.292  0.2609  0.0879  0.6291
   12MOL0     C 1538   5.373   9.826   3.315  0.0507  0.1669 -0.6592
   12MOL0     C 1539   5.780   9.987   3.392 -0.0309 -1.0745  0.6283
   12MOL0     C 1540   5.836  10.112   3.419 -0.0215  0.5277 -0.3186
   12MOL0     C 1541   5.971  10.126   3.450 -0.3866 -0.1356 -0.9273
   12MOL0     C 1542   6.065  10.022   3.423 -0.8492  0.6002  0.5271
   12MOL0     O 1543   6.204  10.037   3.423  0.2284 -0.2124 -0.3652
   12MOL0     C 1544   6.260  10.163   3.402 -0.0780  1.1961  0.2394
   12MOL0     C 1545   6.350  10.198   3.526 -0.3463  0.8970  0.2848
   12MOL0     C 1546   6.441  10.320   3.510 -0.1235  0.3763  0.1351
   12MOL0     C 1547   6.378  10.459   3.476 -0.3146 -0.1735 -0.3817
   12MOL0     C 1548   6.297  10.508   3.589  0.1370  0.8082 -0.4086
   12MOL0     C 1549   6.222  10.534   3.680 -0.2862 -0.0203 -0.2318
   12MOL0     C 1550   6.015   9.902   3.384  0.7652  0.8910 -0.7079
   12MOL0     C 1551   5.875   9.886   3.364  0.3083 -0.1368  0.6089
   12MOL0     C 1552   5.833   9.758   3.297  0.0806  0.0066  0.0700
   12MOL0     H 1553   5.474  10.056   3.088 -0.1156  1.1532  0.8886
   12MOL0     H 1554   5.222  10.091   3.074  0.3581  1.4879  2.7421
   12MOL0     H 1555   4.987  10.118   3.096  0.4741  0.1286  2.0600
   12MOL0     H 1556   5.035   9.978   2.996  0.2822  0.3437  1.5725
   12MOL0     H 1557   4.789  10.026   3.159  1.0976  0.0669  0.5721
   12MOL0     H 1558   4.819   9.862   3.090 -0.5105  0.6621  1.2982
   12MOL0     H 1559   4.789   9.935   2.870 -0.6300 -0.6400 -0.0826
   12MOL0     H 1560   4.804  10.111   2.899 -3.3514  0.9576 -0.2954
   12MOL0     H 1561   4.594   9.890   2.975 -0.3110 -0.3445  0.1669
   12MOL0     H 1562   4.577  10.059   3.041 -0.1061 -0.0233  0.4324
   12MOL0     H 1563   4.443  10.025   2.819 -1.5516  1.7653  0.2599
   12MOL0     H 1564   4.566  10.159   2.824 -1.9662  0.3647 -0.1115
   12MOL0     H 1565   4.528  10.017   2.613  1.6523  0.2697 -0.9516
   12MOL0     H 1566   4.693   9.970   2.676 -0.5285 -1.2899  2.4151
   12MOL0     H 1567   4.449   9.824   2.655 -0.6189 -1.5526 -0.7729
   12MOL0     H 1568   4.564   9.766   2.786  0.6920 -1.6975 -0.9137
   12MOL0     H 1569   4.594   9.645   2.580  1.4505 -0.5505  1.7432
   12MOL0     H 1570   4.599   9.791   2.484  0.7017 -1.7776 -1.6475
   12MOL0     H 1571   4.839   9.634   2.416  3.2538 -2.0030  0.0712
   12MOL0     H 1572   5.111   9.690   2.373  2.2541 -0.0748  0.0078
   12MOL0     H 1573   5.190   9.759   2.520 -3.1005  3.2750  0.7603
   12MOL0     H 1574   5.084   9.461   2.504 -1.5224  0.6608 -4.4928
   12MOL0     H 1575   5.237   9.516   2.429 -0.6029 -0.0153 -0.5271
   12MOL0     H 1576   5.159   9.514   2.722  1.3542  0.0802  1.6868
   12MOL0     H 1577   5.298   9.613   2.658 -0.8248 -0.1137 -0.1304
   12MOL0     H 1578   5.256   9.314   2.649  2.0585 -0.4986 -1.3227
   12MOL0     H 1579   5.376   9.406   2.744 -0.5868  3.4611  0.9191
   12MOL0     H 1580   5.519   9.603   2.686  0.1257  0.8939 -0.1263
   12MOL0     H 1581   5.730   9.679   2.657 -3.4203  2.8010 -2.8457
   12MOL0     H 1582   6.159   9.574   2.242  0.4569  3.1238  0.2092
   12MOL0     H 1583   6.396   9.600   2.237 -0.8090 -0.9328 -1.0094
   12MOL0     H 1584   6.554   9.756   2.576  1.6527  0.9144  2.5988
   12MOL0     H 1585   6.617   9.615   2.642 -0.3007 -1.7061 -0.9247
   12MOL0     H 1586   6.746   9.793   2.434  1.0933 -1.3825 -1.2673
   12MOL0     H 1587   6.804   9.770   2.602 -4.0519  1.9247  3.0848
   12MOL0     H 1588   6.839   9.530   2.555  1.2608  1.7894  0.9266
   12MOL0     H 1589   6.812   9.544   2.385  1.4070 -0.1775  0.1082
   12MOL0     H 1590   7.030   9.664   2.564 -0.9672 -1.9529  0.2802
   12MOL0     H 1591   6.992   9.756   2.419 -1.0164 -0.5807 -1.4244
   12MOL0     H 1592   7.039   9.534   2.285  0.7414  1.0985 -0.1357
   12MOL0     H 1593   7.090   9.471   2.438 -0.6213 -0.0941 -0.6393
   12MOL0     H 1594   7.273   9.558   2.279 -0.5570  2.0002  0.2861
   12MOL0     H 1595   7.207   9.721   2.306 -1.6210  0.1655  0.6583
   12MOL0     H 1596   7.319   9.540   2.528 -0.6542  2.2263  2.9143
   12MOL0     H 1597   7.296   9.712   2.531 -2.6317 -0.6033  0.1889
   12MOL0     H 1598   7.472   9.560   2.331 -1.1819  0.9208 -1.1335
   12MOL0     H 1599   7.467   9.736   2.354 -0.2388  0.4684 -0.4534
   12MOL0     H 1600   6.409   9.569   2.674  2.1271  2.3659 -0.9379
   12MOL0     H 1601   6.165   9.507   2.668 -2.2470 -1.3460 -0.7831
   12MOL0     H 1602   5.802   9.378   2.355 -2.9448 -1.9464 -1.1339
   12MOL0     H 1603   5.581   9.311   2.368  2.2100 -0.1699 -1.7610
   12MOL0     H 1604   5.159   9.778   3.343 -1.4592  0.2424 -1.5760
   12MOL0     H 1605   5.415   9.767   3.396  2.8538 -2.4464 -3.7040
   12MOL0     H 1606   5.760  10.189   3.424 -0.6672  0.2233 -3.4509
   12MOL0     H 1607   5.990  10.224   3.491 -3.0320 -0.3805  1.1010
   12MOL0     H 1608   6.185  10.242   3.399 -1.6411 -0.2558 -1.0346
   12MOL0     H 1609   6.325  10.163   3.314  2.1941 -1.1630  1.7390
   12MOL0     H 1610   6.414  10.114   3.554 -0.4954  0.2477 -1.2196
   12MOL0     H 1611   6.283  10.218   3.611 -0.9819  0.3422 -0.0777
   12MOL0     H 1612   6.522  10.295   3.441 -2.3885 -2.2714 -1.7787
   12MOL0     H 1613   6.495  10.321   3.605 -1.3006  2.1589  0.8424
   12MOL0     H 1614   6.461  10.528   3.457  0.0299 -0.4484  0.1317
   12MOL0     H 1615   6.311  10.458   3.390 -0.6743  1.6750 -0.1748
   12MOL0     H 1616   6.171  10.572   3.767  0.8684  1.4343 -0.1485
   12MOL0     H 1617   6.084   9.820   3.365 -0.9326 -0.3673 -1.7749
   12MOL0     H 1618   5.909   9.681   3.308  0.6410  0.0277 -2.7899
   12MOL0     H 1619   5.740   9.712   3.331 -0.8779 -0.5130 -2.9325
   12MOL0     H 1620   5.832   9.789   3.192  1.6744  3.7041  0.9695
   13MOL0     O 1621   9.069   2.292   3.028  0.2917 -0.4651 -0.6136
   13MOL0     C 1622   9.078   2.389   3.109 -0.3272 -0.3965 -0.1646
   13MOL0     O 1623   8.984   2.431   3.205  0.2198  0.3414 -0.4329
   13MOL0     C 1624   8.855   2.381   3.225 -1.2259  1.4375  0.2257
   13MOL0     C 1625   8.810   2.269   3.160  0.5598  0.7068  0.1613
   13MOL0     C 1626   8.692   2.205   3.199  0.2027 -0.0239  0.6149
   13MOL0     C 1627   8.602   2.253   3.293 -0.9147 -0.3593  0.8488
   13MOL0     O 1628   8.489   2.192   3.333  0.7541  0.2438 -0.3359
   13MOL0     C 1629   8.459   2.055   3.295 -0.0140 -0.4639 -0.1291
   13MOL0     C 1630   8.313   2.005   3.299  0.1211 -0.7430 -0.7058
   13MOL0     C 1631   8.219   2.121   3.254 -0.8386 -0.5003  0.6479
   13MOL0     C 1632   8.071   2.098   3.281 -0.1965  0.9550  1.0621
   13MOL0     C 1633   8.014   1.979   3.209 -0.3065 -0.6205  0.0400
   13MOL0     C 1634   7.865   1.966   3.225  0.0352 -0.0394 -0.2552
   13MOL0     C 1635   7.833   1.843   3.131  1.0825 -0.2817  0.2497
   13MOL0     C 1636   7.675   1.834   3.136 -0.4711 -0.1995  0.3384
   13MOL0     N 1637   7.633   1.746   3.033 -0.0782 -0.0951 -0.7489
   13MOL0     C 1638   7.646   1.765   2.899  0.2642  0.3512  0.5993
   13MOL0     C 1639   7.566   1.667   2.845  0.2492  0.0387 -0.0378
   13MOL0     C 1640   7.547   1.654   2.696  0.0819 -0.5447  0.0490
   13MOL0     C 1641   7.416   1.730   2.661 -0.4911  0.1195  0.6170
   13MOL0     C 1642   7.382   1.737   2.509  0.3558 -0.3929  0.5255
   13MOL0     C 1643   7.384   1.600   2.449  0.0814  0.2211  0.0795
   13MOL0     O 1644   7.397   1.620   2.304  0.1991 -0.5757  0.1070
   13MOL0     C 1645   7.512   1.615   2.228 -0.3002  0.4593 -0.3145
   13MOL0     C 1646   7.642   1.604   2.274 -0.6894 -0.0140 -0.3083
   13MOL0     C 1647   7.753   1.618   2.185 -0.1474  0.7451 -0.1584
   13MOL0     C 1648   7.731   1.645   2.050  0.3532 -0.0689 -0.8614
   13MOL0     C 1649   7.835   1.688   1.959  0.5669 -0.1023  0.2079
   13MOL0     O 1650   7.965   1.669   1.992 -0.7725  0.0525 -0.0452
   13MOL0     C 1651   8.066   1.702   1.898  0.0412  0.6021  0.8308
   13MOL0     C 1652   8.134   1.591   1.847 -0.4944 -0.3861  0.6418
   13MOL0     C 1653   8.254   1.602   1.768  0.2551  0.9122 -0.2143
   13MOL0     C 1654   8.293   1.732   1.746 -0.1824 -0.3587  0.1497
   13MOL0     O 1655   8.410   1.763   1.685  0.3876 -0.3132 -0.3157
   13MOL0     C 1656   8.516   1.674   1.673 -0.5665  0.6782  0.4583
   13MOL0     C 1657   8.642   1.761   1.672  0.1493  0.5014  0.1944
   13MOL0     C 1658   8.759   1.660   1.688 -0.5944 -0.3044 -0.6028
   13MOL0     C 1659   8.890   1.726   1.643  0.0235  0.7333 -0.0009
   13MOL0     C 1660   9.010   1.666   1.718 -0.6312 -0.3340  0.0457
   13MOL0     C 1661   9.009   1.514   1.695 -0.3192  0.4185 -0.0924
   13MOL0     C 1662   9.134   1.441   1.720  0.0234 -0.0983  0.2692
   13MOL0     C 1663   9.251   1.483   1.633  0.0500  0.6844  0.3577
   13MOL0    Cl 1664   9.200   1.452   1.468 -0.7074 -0.1205 -0.0069
   13MOL0     C 1665   8.222   1.842   1.787 -0.0339  0.0701  0.2902
   13MOL0     C 1666   8.109   1.832   1.869 -0.3474  0.0577  0.4708
   13MOL0     O 1667   7.801   1.744   1.851 -0.2515  0.1120  0.5601
   13MOL0     C 1668   7.595   1.637   2.006  0.2380 -0.5571  0.3206
   13MOL0     C 1669   7.488   1.629   2.096  0.0145 -0.7285 -0.5737
   13MOL0     N 1670   7.513   1.591   2.938  0.3570 -0.1687  0.1457
   13MOL0     N 1671   7.556   1.641   3.061 -0.9843 -0.4073  0.1760
   13MOL0     C 1672   8.650   2.360   3.363 -0.1273  0.1491 -0.3233
   13MOL0     C 1673   8.772   2.427   3.333  1.2857  0.4010 -0.4307
   13MOL0     C 1674   9.193   2.473   3.099  0.2213 -0.4274 -0.2071
   13MOL0     C 1675   9.167   2.598   3.046 -0.9613  0.8578  0.1400
   13MOL0     C 1676   9.272   2.681   3.009 -0.5886 -0.3776 -0.0668
   13MOL0     C 1677   9.405   2.639   3.020 -0.3898 -0.0031 -0.0475
   13MOL0     O 1678   9.516   2.714   2.984  0.4972  0.7768 -0.7610
   13MOL0     C 1679   9.495   2.828   2.908  0.5428 -0.1410 -0.2191
   13MOL0     C 1680   9.622   2.904   2.868  0.4780 -0.2778 -0.1266
   13MOL0     C 1681   9.697   2.829   2.752  0.1153 -0.9584 -0.4746
   13MOL0     C 1682   9.785   2.721   2.819  0.4875  0.0324  0.2461
   13MOL0     C 1683   9.895   2.787   2.885  0.6281  0.7877 -0.5630
   13MOL0     C 1684   9.989   2.836   2.939  0.4741  0.2863 -0.4423
   13MOL0     C 1685   9.430   2.506   3.071  0.3638  1.1705  0.1590
   13MOL0     C 1686   9.322   2.423   3.107 -0.0078  0.4948  0.0762
   13MOL0     C 1687   9.352   2.269   3.138  0.0442 -0.0529  0.5106
   13MOL0     H 1688   8.852   2.225   3.070 -1.0601  1.0865 -0.8097
   13MOL0     H 1689   8.677   2.120   3.134  5.3193  0.7880 -2.1685
   13MOL0     H 1690   8.499   2.030   3.196  0.6412  1.2483 -0.3299
   13MOL0     H 1691   8.514   1.997   3.370 -0.7976  0.0451  0.8582
   13MOL0     H 1692   8.288   1.994   3.405  1.8257  1.4550  0.0031
   13MOL0     H 1693   8.300   1.913   3.241 -0.3794 -0.8024 -0.5078
   13MOL0     H 1694   8.238   2.146   3.149  0.8812 -1.9418  0.5710
   13MOL0     H 1695   8.246   2.205   3.319  1.2569 -1.0503  0.5601
   13MOL0     H 1696   8.071   2.090   3.390  2.0537  3.1509  1.3288
   13MOL0     H 1697   8.014   2.187   3.252  3.0618  2.8140 -0.2295
   13MOL0     H 1698   8.032   2.011   3.106  0.9351 -0.4772  0.2888
   13MOL0     H 1699   8.067   1.886   3.228  2.9018  0.5064 -2.5838
   13MOL0     H 1700   7.833   1.942   3.327 -2.8759 -0.0235 -1.0664
   13MOL0     H 1701   7.808   2.052   3.188  1.4998  0.7918 -0.6668
   13MOL0     H 1702   7.890   1.758   3.171  2.6904  0.8850  0.5474
   13MOL0     H 1703   7.868   1.858   3.029  0.0207  1.0401  0.0486
   13MOL0     H 1704   7.657   1.800   3.238 -0.3834 -0.0157  0.4170
   13MOL0     H 1705   7.619   1.928   3.127 -1.7362 -1.0663 -1.1826
   13MOL0     H 1706   7.692   1.844   2.839  0.3451 -1.4248 -1.8520
   13MOL0     H 1707   7.632   1.695   2.641 -1.2384  0.9845 -0.9417
   13MOL0     H 1708   7.546   1.546   2.678 -0.0443 -1.4616  4.4883
   13MOL0     H 1709   7.322   1.693   2.705 -0.9499 -1.5264 -1.5903
   13MOL0     H 1710   7.427   1.831   2.702  2.7201  0.6285 -1.1934
   13MOL0     H 1711   7.450   1.804   2.455 -0.3392  1.6996  2.0953
   13MOL0     H 1712   7.282   1.780   2.492 -0.3564 -1.5619  1.6152
   13MOL0     H 1713   7.287   1.555   2.470 -0.0003 -0.4413 -1.5785
   13MOL0     H 1714   7.465   1.533   2.477 -1.3889 -1.9947 -0.6990
   13MOL0     H 1715   7.673   1.584   2.376  4.3908  2.6079 -0.9925
   13MOL0     H 1716   7.849   1.593   2.228 -0.7238 -1.0449  0.2016
   13MOL0     H 1717   8.101   1.493   1.878  3.0767 -2.2848 -0.9600
   13MOL0     H 1718   8.303   1.513   1.729 -1.0841 -0.1918  0.5404
   13MOL0     H 1719   8.517   1.607   1.760 -0.4419 -1.6054 -1.2194
   13MOL0     H 1720   8.512   1.620   1.578 -2.8818  1.8266 -0.1762
   13MOL0     H 1721   8.639   1.816   1.577  0.4195  0.6945  0.2931
   13MOL0     H 1722   8.637   1.832   1.755 -0.5440  0.7048 -0.0208
   13MOL0     H 1723   8.756   1.620   1.790  0.3253 -0.2786 -0.5605
   13MOL0     H 1724   8.746   1.569   1.628  0.1086 -1.2287  0.5909
   13MOL0     H 1725   8.896   1.830   1.679  1.4333  0.7811 -0.3311
   13MOL0     H 1726   8.918   1.723   1.538 -0.4677 -1.7578 -0.1060
   13MOL0     H 1727   9.010   1.689   1.825  1.6901  1.6802 -0.2796
   13MOL0     H 1728   9.095   1.716   1.670 -1.6151  4.3646  2.5439
   13MOL0     H 1729   8.925   1.468   1.746 -0.5802 -0.1673 -1.0249
   13MOL0     H 1730   8.981   1.505   1.589  1.3703 -0.0713 -0.5392
   13MOL0     H 1731   9.120   1.333   1.711  1.2845 -0.2434 -0.2332
   13MOL0     H 1732   9.171   1.464   1.820  2.2592  3.3312 -1.1599
   13MOL0     H 1733   9.276   1.587   1.659  2.0030 -0.2494  2.5965
   13MOL0     H 1734   9.341   1.426   1.658  0.3762  0.7725 -0.5743
   13MOL0     H 1735   8.268   1.937   1.761 -0.5527 -0.1558 -1.6356
   13MOL0     H 1736   8.054   1.918   1.908  0.4622  0.1906  1.3671
   13MOL0     H 1737   7.580   1.641   1.899  0.6461  1.0245  0.2901
   13MOL0     H 1738   7.381   1.631   2.075 -0.9303 -0.2718  3.3976
   13MOL0     H 1739   8.592   2.391   3.450  1.4304  1.0580  0.4512
   13MOL0     H 1740   8.791   2.513   3.396 -0.5019 -0.2405  1.0684
   13MOL0     H 1741   9.068   2.637   3.026 -0.3104  0.9457 -3.8886
   13MOL0     H 1742   9.256   2.783   2.974  3.6482  0.5740  0.1584
   13MOL0     H 1743   9.422   2.895   2.953 -1.6837 -2.5608  0.0050
   13MOL0     H 1744   9.445   2.802   2.815 -1.5147  0.7756  0.5926
   13MOL0     H 1745   9.670   2.918   2.964  0.2434  1.8599 -0.2834
   13MOL0     H 1746   9.587   3.002   2.835 -3.5906 -1.4201  0.2699
   13MOL0     H 1747   9.747   2.905   2.691  1.3599 -1.1879  0.2297
   13MOL0     H 1748   9.628   2.790   2.676  0.2994  1.1163 -1.7868
   13MOL0     H 1749   9.733   2.662   2.895  1.2745 -1.2549 -0.1788
   13MOL0     H 1750   9.819   2.650   2.743  1.6325  0.0323  0.7374
   13MOL0     H 1751  10.085   2.872   2.970  0.6249 -0.3287 -0.1671
   13MOL0     H 1752   9.532   2.477   3.094 -0.2249 -0.9085  0.2869
   13MOL0     H 1753   9.274   2.218   3.196  1.3436 -3.1858 -0.2974
   13MOL0     H 1754   9.393   2.209   3.056 -2.5481  1.2941 -1.9647
   13MOL0     H 1755   9.440   2.283   3.200  3.0505 -2.6457 -2.7780
   14MOL0     O 1756   2.762   8.532  10.811 -0.2976 -0.9491  0.9484
   14MOL0     C 1757   2.728   8.550  10.920  0.7992 -0.5642 -0.1709
   14MOL0     O 1758   2.760   8.652  10.995 -0.6651 -0.4303 -0.1177
   14MOL0     C 1759   2.861   8.748  10.962  1.0112  0.8658  0.2551
   14MOL0     C 1760   2.905   8.830  11.065  0.1998 -0.2183 -0.0842
   14MOL0     C 1761   3.017   8.918  11.056  0.7458 -0.1122 -0.2807
   14MOL0     C 1762   3.077   8.929  10.926 -0.2206 -0.0068 -0.1800
   14MOL0     O 1763   3.196   8.993  10.901 -0.3328  0.2356 -0.3476
   14MOL0     C 1764   3.313   8.934  10.960 -0.0425  0.5839  0.9088
   14MOL0     C 1765   3.432   9.027  10.930 -0.5840 -0.3209 -0.0027
   14MOL0     C 1766   3.431   9.149  11.027 -0.4825 -0.8644  0.2784
   14MOL0     C 1767   3.498   9.123  11.159 -0.5125  0.3108 -0.0313
   14MOL0     C 1768   3.497   9.248  11.247  0.0013  0.6649 -0.1056
   14MOL0     C 1769   3.585   9.361  11.197 -0.9823  0.1217  0.0082
   14MOL0     C 1770   3.622   9.461  11.294  0.0888 -0.6407 -0.3643
   14MOL0     C 1771   3.742   9.542  11.246  0.7504 -0.7180 -0.3586
   14MOL0     N 1772   3.867   9.481  11.251 -0.2625 -0.9179 -0.2095
   14MOL0     C 1773   3.978   9.522  11.324  0.1311  0.3436  0.0766
   14MOL0     C 1774   4.077   9.437  11.290 -0.3400 -0.3430 -0.0987
   14MOL0     C 1775   4.219   9.447  11.333  0.3177 -0.0012 -0.0184
   14MOL0     C 1776   4.299   9.574  11.292 -0.6164  0.0198  0.1715
   14MOL0     C 1777   4.434   9.576  11.357  0.4730  0.4273  0.4889
   14MOL0     C 1778   4.497   9.708  11.336 -0.3948 -0.1034 -0.5960
   14MOL0     O 1779   4.642   9.697  11.357 -0.9707  0.5093 -0.4327
   14MOL0     C 1780   4.718   9.809  11.378  0.4418 -0.9031 -0.4821
   14MOL0     C 1781   4.663   9.939  11.346  0.0722  1.1588 -0.4704
   14MOL0     C 1782   4.741  10.047  11.359  0.4324  0.1494 -0.0089
   14MOL0     C 1783   4.881  10.042  11.395  0.6161 -0.2244  0.5205
   14MOL0     C 1784   4.962  10.163  11.406  0.0082  0.2095 -0.3721
   14MOL0     O 1785   5.098  10.148  11.388  0.3854 -0.4453  0.6092
   14MOL0     C 1786   5.173  10.258  11.393  0.5561  0.3865 -0.1683
   14MOL0     C 1787   5.255  10.289  11.287  0.0877  0.3645 -0.0054
   14MOL0     C 1788   5.353  10.386  11.291 -0.0274  0.4829 -0.0384
   14MOL0     C 1789   5.367  10.465  11.408  0.1928  0.3253 -0.7639
   14MOL0     O 1790   5.457  10.564  11.406 -0.1805 -0.5820  0.5109
   14MOL0     C 1791   5.452  10.658  11.513  0.1454 -0.3445 -0.3118
   14MOL0     C 1792   5.534  10.789  11.486 -0.3603  0.9181  0.0570
   14MOL0     C 1793   5.521  10.822  11.332  0.5346  0.1994 -0.5769
   14MOL0     C 1794   5.548  10.966  11.313  0.6525 -0.5890 -1.2085
   14MOL0     C 1795   5.543  11.014  11.169 -0.0289  0.4144 -0.3678
   14MOL0     C 1796   5.526  11.170  11.161 -0.2461 -0.4588 -0.0502
   14MOL0     C 1797   5.516  11.202  11.018 -0.7850  0.4276  0.0701
   14MOL0     C 1798   5.477  11.357  11.001 -0.4250  0.0808 -0.0277
   14MOL0    Cl 1799   5.312  11.385  11.056 -0.4164 -0.0027 -0.4477
   14MOL0     C 1800   5.277  10.438  11.512  0.2390  0.3173 -0.0847
   14MOL0     C 1801   5.185  10.333  11.512 -0.2064  0.0704 -0.7849
   14MOL0     O 1802   4.904  10.267  11.436  0.7311  0.8203  0.3469
   14MOL0     C 1803   4.934   9.916  11.428 -0.3835  0.5720 -0.2432
   14MOL0     C 1804   4.846   9.801  11.419 -0.2522 -0.1640 -1.3214
   14MOL0     N 1805   4.022   9.346  11.200 -0.3258  0.4276  0.0220
   14MOL0     N 1806   3.903   9.368  11.174 -0.1581 -0.2634 -0.4852
   14MOL0     C 1807   3.031   8.851  10.819  0.6528  0.4997  0.2366
   14MOL0     C 1808   2.925   8.766  10.841 -0.1299 -0.0718  0.1697
   14MOL0     C 1809   2.634   8.451  10.984  0.2644 -1.0747 -0.3992
   14MOL0     C 1810   2.577   8.352  10.907 -1.2969 -0.2572  0.2198
   14MOL0     C 1811   2.482   8.257  10.965  0.7102 -0.1798  0.1564
   14MOL0     C 1812   2.448   8.274  11.102 -0.6075 -0.0043  0.6250
   14MOL0     O 1813   2.339   8.212  11.158 -0.6105  0.4044  0.0777
   14MOL0     C 1814   2.277   8.098  11.111  0.5590 -0.8676 -0.4792
   14MOL0     C 1815   2.354   7.981  11.169 -0.4096  0.7075  0.1025
   14MOL0     C 1816   2.316   7.843  11.101 -0.7430 -0.6492  0.3294
   14MOL0     C 1817   2.167   7.807  11.113 -1.0823 -0.4405  0.1788
   14MOL0     C 1818   2.127   7.788  11.253  0.3375  0.1186  0.1466
   14MOL0     C 1819   2.103   7.774  11.373  0.8536 -0.1011  0.9723
   14MOL0     C 1820   2.506   8.379  11.178 -0.9356 -0.0924  0.4518
   14MOL0     C 1821   2.600   8.460  11.119  0.8326 -0.8367 -0.2548
   14MOL0     C 1822   2.669   8.558  11.227  0.1454 -0.3387 -0.0421
   14MOL0     H 1823   2.860   8.818  11.163 -1.2587  1.1068 -0.5495
   14MOL0     H 1824   3.067   8.976  11.133  3.3916  1.1496 -2.7529
   14MOL0     H 1825   3.311   8.923  11.069 -0.7916  3.1985  1.2097
   14MOL0     H 1826   3.330   8.838  10.909 -2.7975  1.2445 -1.5551
   14MOL0     H 1827   3.425   9.044  10.822  0.8814 -4.1642 -0.8825
   14MOL0     H 1828   3.532   8.982  10.937 -0.5500 -0.7703 -2.3690
   14MOL0     H 1829   3.328   9.184  11.034  0.6694  2.7444  1.1990
   14MOL0     H 1830   3.489   9.226  10.976 -1.5593 -1.0436 -1.2770
   14MOL0     H 1831   3.447   9.042  11.212  1.6614  1.2806  3.9888
   14MOL0     H 1832   3.605   9.101  11.149 -0.3011 -1.2526  3.9432
   14MOL0     H 1833   3.398   9.293  11.234  0.1835  1.0572 -0.1161
   14MOL0     H 1834   3.492   9.222  11.353 -2.2893  1.0043 -0.0825
   14MOL0     H 1835   3.677   9.311  11.166 -1.8339 -2.2078  0.9861
   14MOL0     H 1836   3.546   9.408  11.106  0.2800 -0.5916 -0.9287
   14MOL0     H 1837   3.660   9.407  11.381 -0.8964 -3.0276 -1.3076
   14MOL0     H 1838   3.533   9.518  11.319  0.8319 -0.1026  1.1419
   14MOL0     H 1839   3.724   9.580  11.145 -0.4155  0.4432  0.2505
   14MOL0     H 1840   3.732   9.635  11.302  1.6629 -0.0775 -1.2251
   14MOL0     H 1841   3.986   9.603  11.396  1.2354  0.0208  0.3331
   14MOL0     H 1842   4.206   9.451  11.441 -2.2548  2.5691 -0.2926
   14MOL0     H 1843   4.261   9.352  11.299  0.2328  0.0652 -0.3100
   14MOL0     H 1844   4.303   9.577  11.183  3.0210  0.9904  0.1881
   14MOL0     H 1845   4.241   9.662  11.321  1.7074  1.3670  0.9792
   14MOL0     H 1846   4.495   9.493  11.318  0.2867 -0.6111  2.2867
   14MOL0     H 1847   4.425   9.547  11.462 -3.5475 -0.0019  0.1840
   14MOL0     H 1848   4.459   9.772  11.416  4.2653  0.1760  1.6999
   14MOL0     H 1849   4.474   9.761  11.243 -0.0401  0.1991 -0.5162
   14MOL0     H 1850   4.559   9.953  11.319  0.3338  1.4510 -1.3475
   14MOL0     H 1851   4.698  10.145  11.339  0.0242 -0.1058 -0.3863
   14MOL0     H 1852   5.248  10.235  11.193 -1.3231 -0.7054  0.6723
   14MOL0     H 1853   5.404  10.410  11.198 -0.9925 -1.8886 -1.2512
   14MOL0     H 1854   5.350  10.697  11.518  0.1299 -0.3169 -0.8082
   14MOL0     H 1855   5.489  10.612  11.605  2.5763 -0.5028 -1.2743
   14MOL0     H 1856   5.481  10.865  11.545 -0.8742 -2.3773  4.2973
   14MOL0     H 1857   5.632  10.787  11.533 -0.5955  0.6779  0.5459
   14MOL0     H 1858   5.595  10.766  11.273  0.0990 -2.5666  1.3274
   14MOL0     H 1859   5.423  10.799  11.291 -0.5285  0.7490  1.5272
   14MOL0     H 1860   5.645  10.983  11.360  2.0352 -3.9980 -2.5209
   14MOL0     H 1861   5.476  11.017  11.378 -0.1291  1.4517 -3.5222
   14MOL0     H 1862   5.452  10.978  11.121 -1.8698  2.0064  1.7390
   14MOL0     H 1863   5.633  10.975  11.121  1.9729  0.9506  2.6758
   14MOL0     H 1864   5.439  11.197  11.221  1.4282 -1.2471  2.9570
   14MOL0     H 1865   5.616  11.216  11.204 -1.7799 -0.1395  3.1097
   14MOL0     H 1866   5.446  11.134  10.970 -1.0399  1.9460 -1.8229
   14MOL0     H 1867   5.620  11.195  10.983 -0.5855 -0.6889  0.8497
   14MOL0     H 1868   5.541  11.425  11.057 -3.0147  1.7827  1.0713
   14MOL0     H 1869   5.493  11.382  10.896  1.3510  0.6152  0.3406
   14MOL0     H 1870   5.295  10.495  11.602 -0.0074  1.1874 -0.5820
   14MOL0     H 1871   5.134  10.309  11.605  0.7193  0.4442 -0.1596
   14MOL0     H 1872   5.032   9.904  11.473 -0.5145 -2.3150 -0.5434
   14MOL0     H 1873   4.893   9.705  11.440 -1.0389 -0.1756  0.5642
   14MOL0     H 1874   3.081   8.868  10.724 -0.5048 -2.7689 -1.1133
   14MOL0     H 1875   2.904   8.699  10.758  0.5758 -3.5782  2.5811
   14MOL0     H 1876   2.605   8.344  10.802  2.2028  1.4061  0.8743
   14MOL0     H 1877   2.437   8.175  10.910 -3.4294  1.5557  0.5836
   14MOL0     H 1878   2.274   8.085  11.003  2.5703  2.0262 -0.9898
   14MOL0     H 1879   2.178   8.087  11.155  2.1034  1.1411  4.1899
   14MOL0     H 1880   2.334   7.965  11.276 -0.9364 -0.0044 -0.0895
   14MOL0     H 1881   2.460   7.986  11.144 -0.8125  1.4292 -1.6243
   14MOL0     H 1882   2.379   7.762  11.139  1.8891  2.0914  2.3754
   14MOL0     H 1883   2.345   7.862  10.997  1.9315  0.1982  1.1334
   14MOL0     H 1884   2.099   7.878  11.065 -0.7246  0.7396  1.3766
   14MOL0     H 1885   2.150   7.712  11.061 -1.3602 -1.0640  1.3874
   14MOL0     H 1886   2.085   7.773  11.479  0.3895  5.4058  1.2224
   14MOL0     H 1887   2.494   8.376  11.286  1.0132 -1.1591  0.6732
   14MOL0     H 1888   2.633   8.660  11.210  0.7277 -0.4713 -2.5970
   14MOL0     H 1889   2.630   8.536  11.326  1.0605  1.2609  0.7105
   14MOL0     H 1890   2.778   8.546  11.221  0.5682  3.0085 -1.9239
   15MOL0     O 1891   1.910   1.104   4.637 -0.0338 -0.0395  0.3479
   15MOL0     C 1892   1.916   1.194   4.713 -0.4840  0.0565 -0.6597
   15MOL0     O 1893   1.956   1.185   4.846  0.4895  0.2675 -0.4820
   15MOL0     C 1894   1.988   1.068   4.896 -0.3468 -0.0685 -0.0176
   15MOL0     C 1895   2.122   1.011   4.866  0.4009 -0.5911 -0.9709
   15MOL0     C 1896   2.160   0.880   4.905  0.2005  0.2804  0.0857
   15MOL0     C 1897   2.064   0.804   4.983 -0.6707 -0.1085  0.5680
   15MOL0     O 1898   2.084   0.671   4.998  0.0588  0.8086  0.0026
   15MOL0     C 1899   2.047   0.583   4.885  0.5926  0.4773 -0.3844
   15MOL0     C 1900   1.980   0.445   4.928 -0.8690 -1.0113  0.5339
   15MOL0     C 1901   1.885   0.458   5.046  0.0851  0.6803 -0.1004
   15MOL0     C 1902   1.795   0.331   5.056 -0.2208 -0.4041 -0.2769
   15MOL0     C 1903   1.708   0.311   5.177 -0.7117  0.4946 -0.5829
   15MOL0     C 1904   1.617   0.439   5.202 -0.3622  0.0751 -0.0791
   15MOL0     C 1905   1.554   0.422   5.343 -0.4207  0.5335  1.1638
   15MOL0     C 1906   1.468   0.545   5.372 -0.1941 -1.3915 -0.3625
   15MOL0     N 1907   1.342   0.540   5.304  0.6330 -0.2966  0.1823
   15MOL0     C 1908   1.307   0.620   5.202  1.0245 -0.2020  0.1479
   15MOL0     C 1909   1.185   0.589   5.169 -0.7837 -0.5366  0.3113
   15MOL0     C 1910   1.089   0.648   5.074 -0.0672  0.5898  0.3370
   15MOL0     C 1911   1.150   0.781   5.017  0.5993  0.1154 -0.3343
   15MOL0     C 1912   1.054   0.845   4.906  0.7367 -0.1496 -0.3143
   15MOL0     C 1913   1.117   0.971   4.855 -0.8062 -0.0911  1.5210
   15MOL0     O 1914   1.044   1.043   4.752  0.4287 -0.4181  0.1332
   15MOL0     C 1915   0.919   1.072   4.803 -0.9125 -0.2018 -1.0694
   15MOL0     C 1916   0.805   0.986   4.783 -0.7705  0.8187 -0.4495
   15MOL0     C 1917   0.678   1.012   4.847  0.0596 -0.4148 -0.4789
   15MOL0     C 1918   0.657   1.143   4.898 -0.1673  0.0825 -0.1704
   15MOL0     C 1919   0.525   1.187   4.945  0.5912  0.2262  0.6880
   15MOL0     O 1920   0.425   1.151   4.851  0.6081 -0.0266 -0.7919
   15MOL0     C 1921   0.309   1.222   4.871  0.5511  0.5997  0.9881
   15MOL0     C 1922   0.258   1.297   4.763  0.9744  1.0052  0.9351
   15MOL0     C 1923   0.146   1.372   4.766  1.3687  0.0061 -0.0127
   15MOL0     C 1924   0.063   1.354   4.884  0.0294 -0.0062  0.4840
   15MOL0     O 1925  -0.057   1.420   4.904 -0.5799 -0.1597 -0.0020
   15MOL0     C 1926  -0.111   1.510   4.804 -0.1846 -0.4293  0.5468
   15MOL0     C 1927  -0.268   1.502   4.821 -0.4341 -0.6253 -0.3069
   15MOL0     C 1928  -0.310   1.547   4.960 -0.2227  0.2167 -0.2744
   15MOL0     C 1929  -0.462   1.537   4.989  0.8615  0.4413  0.6493
   15MOL0     C 1930  -0.487   1.567   5.135  0.9857 -0.6993  0.1033
   15MOL0     C 1931  -0.640   1.557   5.164 -0.4388 -1.0187  0.5303
   15MOL0     C 1932  -0.655   1.553   5.318  0.3037  0.6712  0.0311
   15MOL0     C 1933  -0.804   1.598   5.357 -0.8487 -0.0667 -0.2759
   15MOL0    Cl 1934  -0.933   1.482   5.305 -0.3563 -0.0277  0.5567
   15MOL0     C 1935   0.105   1.278   4.990 -0.7628 -0.1103  0.3551
   15MOL0     C 1936   0.235   1.206   4.985  0.0502  0.1912 -0.7146
   15MOL0     O 1937   0.519   1.237   5.060  0.1146  1.1562 -0.4080
   15MOL0     C 1938   0.768   1.236   4.913  0.7732  0.3304  0.6021
   15MOL0     C 1939   0.896   1.195   4.876  0.3072  0.2898  0.9888
   15MOL0     N 1940   1.146   0.484   5.250  0.0895 -0.2579  0.8671
   15MOL0     N 1941   1.246   0.454   5.322 -0.4680  0.3028  0.2364
   15MOL0     C 1942   1.945   0.864   5.016 -0.6408 -0.2801 -0.3766
   15MOL0     C 1943   1.897   0.989   4.974 -0.7857 -0.3354  0.1427
   15MOL0     C 1944   1.861   1.325   4.655  0.6741  0.1694  0.1838
   15MOL0     C 1945   1.868   1.448   4.732  0.5622  0.4259  0.1878
   15MOL0     C 1946   1.826   1.572   4.690  0.1427 -1.3520 -0.1956
   15MOL0     C 1947   1.781   1.581   4.563 -0.3248  0.5358 -0.1662
   15MOL0     O 1948   1.750   1.704   4.523  0.2015  0.0980 -0.7699
   15MOL0     C 1949   1.813   1.755   4.403  0.2278  0.4968  0.4548
   15MOL0     C 1950   1.838   1.907   4.411  0.0457  0.4360  0.7115
   15MOL0     C 1951   1.706   1.982   4.428  0.0037  0.2022  0.6602
   15MOL0     C 1952   1.726   2.117   4.485  0.5001  0.1200 -0.4677
   15MOL0     C 1953   1.767   2.119   4.625  0.2629  0.2149 -0.3688
   15MOL0     C 1954   1.796   2.148   4.744  0.1734 -0.1648 -0.6393
   15MOL0     C 1955   1.757   1.468   4.490  0.0379  0.3658  0.2281
   15MOL0     C 1956   1.803   1.339   4.530 -0.3947  0.3514  0.4252
   15MOL0     C 1957   1.761   1.231   4.434 -1.1014  0.2693 -0.0923
   15MOL0     H 1958   2.195   1.079   4.825 -3.3208  2.4499 -3.2803
   15MOL0     H 1959   2.263   0.858   4.883  1.1490  4.2579 -0.2521
   15MOL0     H 1960   1.967   0.640   4.838 -0.9040 -1.2076 -0.0072
   15MOL0     H 1961   2.138   0.585   4.824  0.4100  2.3196 -0.6535
   15MOL0     H 1962   2.070   0.388   4.952 -0.1336 -1.1528 -2.2479
   15MOL0     H 1963   1.941   0.396   4.839 -0.3955 -0.6083  0.0979
   15MOL0     H 1964   1.818   0.543   5.029  0.0122  0.5220 -0.6266
   15MOL0     H 1965   1.953   0.477   5.129  0.9686 -2.5549  0.0716
   15MOL0     H 1966   1.747   0.334   4.958 -0.9940  3.7593  0.0391
   15MOL0     H 1967   1.867   0.249   5.056  1.5912  1.1100 -0.5838
   15MOL0     H 1968   1.653   0.217   5.172  1.4722 -1.0535  1.7936
   15MOL0     H 1969   1.781   0.297   5.257 -0.7235  2.6468 -0.1357
   15MOL0     H 1970   1.677   0.531   5.200 -0.3314  0.2018  2.7694
   15MOL0     H 1971   1.549   0.448   5.117  0.4008  0.2865 -0.6819
   15MOL0     H 1972   1.630   0.440   5.420  0.4220  0.7343  0.3023
   15MOL0     H 1973   1.508   0.328   5.374 -0.4236  0.4748  0.9811
   15MOL0     H 1974   1.449   0.555   5.479  0.0688  1.1511 -0.4971
   15MOL0     H 1975   1.519   0.635   5.337  0.8452 -1.5324  0.7276
   15MOL0     H 1976   1.367   0.696   5.152  1.6771 -0.4233  0.5895
   15MOL0     H 1977   1.071   0.575   4.994  0.4514  1.6184 -0.7407
   15MOL0     H 1978   0.998   0.659   5.134  1.3325 -0.9256  2.9468
   15MOL0     H 1979   1.151   0.852   5.100 -1.0708 -0.2261  0.0206
   15MOL0     H 1980   1.250   0.769   4.975 -0.4445  0.4771 -3.1679
   15MOL0     H 1981   0.957   0.864   4.953 -1.0123 -1.3098 -3.1986
   15MOL0     H 1982   1.027   0.785   4.819 -0.8926  2.6427 -1.8787
   15MOL0     H 1983   1.215   0.947   4.811  0.6657  2.8947  2.8409
   15MOL0     H 1984   1.134   1.037   4.941 -0.8580  0.5385  1.0482
   15MOL0     H 1985   0.834   0.899   4.725  0.2177  0.6858  0.2076
   15MOL0     H 1986   0.605   0.933   4.830  1.8515 -1.8853 -1.6561
   15MOL0     H 1987   0.324   1.304   4.677  2.1884 -3.4138  1.2619
   15MOL0     H 1988   0.122   1.432   4.680 -2.0522 -0.8186  0.2295
   15MOL0     H 1989  -0.081   1.614   4.819 -1.8228  0.4099 -1.4385
   15MOL0     H 1990  -0.089   1.485   4.700  2.7602 -1.0157  1.2398
   15MOL0     H 1991  -0.314   1.570   4.749 -4.7866 -0.5465  2.2123
   15MOL0     H 1992  -0.299   1.398   4.802  1.3502 -1.3703  0.6087
   15MOL0     H 1993  -0.250   1.503   5.040  0.3705  0.5184 -0.5492
   15MOL0     H 1994  -0.277   1.650   4.970  0.8793 -0.2034  0.5996
   15MOL0     H 1995  -0.499   1.437   4.961  0.4989  1.8659 -5.4506
   15MOL0     H 1996  -0.502   1.610   4.918  0.7356 -1.2996 -1.1623
   15MOL0     H 1997  -0.454   1.668   5.159  0.4413  0.2754 -2.8584
   15MOL0     H 1998  -0.434   1.496   5.199  0.9496  0.4356  1.4539
   15MOL0     H 1999  -0.674   1.656   5.133  1.1151 -1.1074 -1.7016
   15MOL0     H 2000  -0.690   1.478   5.107  0.3006 -0.0079 -1.6397
   15MOL0     H 2001  -0.584   1.623   5.363  1.8711 -2.3475  2.6878
   15MOL0     H 2002  -0.627   1.453   5.353 -1.5360  0.0954 -0.0178
   15MOL0     H 2003  -0.801   1.621   5.464  0.0089  1.1282 -0.5478
   15MOL0     H 2004  -0.822   1.692   5.305  0.2695  0.3618  0.0896
   15MOL0     H 2005   0.037   1.265   5.073 -3.2308 -3.5972 -1.8958
   15MOL0     H 2006   0.272   1.150   5.071 -0.9236  0.6146 -0.0119
   15MOL0     H 2007   0.750   1.335   4.955  1.4138 -0.0177  1.7608
   15MOL0     H 2008   0.977   1.256   4.914  2.3705  1.0159 -3.8286
   15MOL0     H 2009   1.881   0.802   5.078  2.4431 -1.6752  1.6180
   15MOL0     H 2010   1.797   1.020   5.002 -1.0172  0.0886 -1.0685
   15MOL0     H 2011   1.927   1.436   4.822  1.2861 -0.0915 -0.3445
   15MOL0     H 2012   1.847   1.664   4.745 -2.9632  2.1210 -4.1769
   15MOL0     H 2013   1.738   1.738   4.325 -0.9209  0.6477  1.4814
   15MOL0     H 2014   1.904   1.701   4.375  0.2412 -0.0831  1.5605
   15MOL0     H 2015   1.886   1.924   4.314  1.2863  2.1479  1.5777
   15MOL0     H 2016   1.912   1.929   4.489  0.6754  1.0558 -0.0473
   15MOL0     H 2017   1.632   1.932   4.492 -0.7286  0.2016 -0.1720
   15MOL0     H 2018   1.667   1.984   4.326  2.8158  0.9980 -0.4760
   15MOL0     H 2019   1.801   2.167   4.422 -1.6127  1.3851 -2.0972
   15MOL0     H 2020   1.636   2.177   4.468 -0.4263 -1.1102 -0.0384
   15MOL0     H 2021   1.833   2.177   4.840 -1.4081 -0.2505  0.0251
   15MOL0     H 2022   1.711   1.479   4.392 -1.1469 -1.2644  0.5531
   15MOL0     H 2023   1.845   1.173   4.395 -1.3810  0.1516 -0.5281
   15MOL0     H 2024   1.707   1.155   4.492  0.6323  0.5751  2.0571
   15MOL0     H 2025   1.700   1.266   4.351  2.2971  0.0762 -2.9093
   16MOL0     O 2026   4.371   1.048   7.539  0.1866  0.0404  0.9894
   16MOL0     C 2027   4.414   0.935   7.516  0.1060  0.0069 -0.2715
   16MOL0     O 2028   4.553   0.896   7.513 -0.2970 -0.5328  0.3219
   16MOL0     C 2029   4.640   0.993   7.563 -0.3318 -0.7334  0.0993
   16MOL0     C 2030   4.727   0.956   7.669  0.2646  0.0328  0.4365
   16MOL0     C 2031   4.821   1.045   7.719 -0.8541 -0.3304 -0.2522
   16MOL0     C 2032   4.830   1.175   7.676  0.1897 -0.0419  0.6073
   16MOL0     O 2033   4.920   1.253   7.744 -0.0686  0.2464 -0.0547
   16MOL0     C 2034   4.936   1.389   7.710 -0.0341 -0.3215 -0.1329
   16MOL0     C 2035   5.029   1.458   7.813  0.3004 -0.1168 -0.0297
   16MOL0     C 2036   5.016   1.612   7.804  0.5103  0.0793  0.5199
   16MOL0     C 2037   5.110   1.685   7.901  0.6049  0.6196 -0.1266
   16MOL0     C 2038   5.099   1.834   7.878  0.5814 -0.0489 -0.8893
   16MOL0     C 2039   4.967   1.899   7.927  0.3046  0.0073  0.4320
   16MOL0     C 2040   4.960   2.047   7.887 -1.1744 -0.7398 -0.2736
   16MOL0     C 2041   4.849   2.136   7.959 -0.5814  0.3168  0.5051
   16MOL0     N 2042   4.713   2.094   7.921 -0.1460  0.0994 -0.6196
   16MOL0     C 2043   4.622   2.019   7.998 -0.0124 -0.5042  0.2095
   16MOL0     C 2044   4.503   2.022   7.926 -0.3486  1.3923 -0.1928
   16MOL0     C 2045   4.373   1.978   7.985 -0.0218 -0.6461 -0.7184
   16MOL0     C 2046   4.379   1.842   8.047 -0.4125 -0.4843  0.1748
   16MOL0     C 2047   4.416   1.739   7.942  1.0073 -0.1101 -0.0140
   16MOL0     C 2048   4.445   1.598   8.000 -0.5622  0.0878 -0.8046
   16MOL0     O 2049   4.335   1.549   8.078  0.5886  0.2287 -0.2259
   16MOL0     C 2050   4.208   1.515   8.021 -0.6176 -0.4974 -0.2909
   16MOL0     C 2051   4.093   1.526   8.106 -0.3010 -0.2763 -0.5188
   16MOL0     C 2052   3.964   1.487   8.064 -0.2371  0.4171  0.1996
   16MOL0     C 2053   3.942   1.451   7.929  0.0908 -0.7748 -0.0683
   16MOL0     C 2054   3.815   1.399   7.880 -0.0797 -0.3736  0.2021
   16MOL0     O 2055   3.720   1.369   7.971  0.3965 -0.1111 -0.1092
   16MOL0     C 2056   3.583   1.371   7.943  1.0765 -0.3563  0.2551
   16MOL0     C 2057   3.500   1.291   8.022 -0.5516 -0.3514 -0.0639
   16MOL0     C 2058   3.361   1.307   8.013  0.6034  0.3676  0.0811
   16MOL0     C 2059   3.299   1.384   7.923 -0.2193  0.5785 -0.1668
   16MOL0     O 2060   3.168   1.383   7.930 -0.1459 -0.2886 -0.0962
   16MOL0     C 2061   3.096   1.390   7.810  0.1120  0.9441  0.5481
   16MOL0     C 2062   2.967   1.310   7.816  0.9526 -0.2491 -1.1493
   16MOL0     C 2063   2.856   1.389   7.746  0.1517 -0.5506 -0.1662
   16MOL0     C 2064   2.732   1.302   7.722 -0.4605  0.9747  0.4360
   16MOL0     C 2065   2.635   1.359   7.619  0.2209  0.6352 -0.0948
   16MOL0     C 2066   2.508   1.271   7.609  0.3880 -0.2009  0.9385
   16MOL0     C 2067   2.410   1.296   7.727  0.1831  0.0982 -0.1310
   16MOL0     C 2068   2.279   1.229   7.688  0.2107 -0.0872  0.7834
   16MOL0    Cl 2069   2.144   1.241   7.806  0.4234 -0.2319 -0.2262
   16MOL0     C 2070   3.377   1.443   7.825 -0.6461 -0.2397 -0.9764
   16MOL0     C 2071   3.518   1.436   7.832  0.2711 -0.2965  0.6095
   16MOL0     O 2072   3.800   1.388   7.758  0.1550  0.3688  0.7389
   16MOL0     C 2073   4.057   1.444   7.845 -0.9597 -1.0347  0.1966
   16MOL0     C 2074   4.186   1.485   7.887  1.0589 -0.1108 -0.6542
   16MOL0     N 2075   4.532   2.090   7.809 -0.0222 -0.0756 -0.0535
   16MOL0     N 2076   4.657   2.128   7.807  0.1098 -0.5485 -0.2312
   16MOL0     C 2077   4.744   1.213   7.570  0.4716 -0.2399  0.5205
   16MOL0     C 2078   4.649   1.127   7.513  0.0728  0.3657  0.2561
   16MOL0     C 2079   4.316   0.824   7.515 -0.1252 -0.9071  0.1754
   16MOL0     C 2080   4.192   0.850   7.455  0.1047 -0.1921  0.1700
   16MOL0     C 2081   4.088   0.764   7.460  0.2275 -1.0970 -0.3339
   16MOL0     C 2082   4.101   0.644   7.531  1.2230 -0.2391  0.2146
   16MOL0     O 2083   3.983   0.580   7.536  0.7869 -0.2536  0.4196
   16MOL0     C 2084   3.982   0.444   7.582  0.2848  0.0948  0.2988
   16MOL0     C 2085   3.838   0.383   7.575 -0.0075 -0.3332 -0.5521
   16MOL0     C 2086   3.809   0.337   7.435 -0.8375  0.3906 -0.5688
   16MOL0     C 2087   3.663   0.351   7.387 -0.0245  1.1044  1.7603
   16MOL0     C 2088   3.560   0.261   7.444  0.2429  0.5959  0.5402
   16MOL0     C 2089   3.479   0.197   7.514 -0.4570 -0.6669 -0.7229
   16MOL0     C 2090   4.226   0.607   7.585 -0.4004  0.4227 -0.1623
   16MOL0     C 2091   4.329   0.702   7.590 -0.0705  0.9121 -0.3485
   16MOL0     C 2092   4.453   0.668   7.681 -0.5400  0.1890  0.0636
   16MOL0     H 2093   4.714   0.850   7.686  0.6007 -0.5070 -2.1548
   16MOL0     H 2094   4.897   1.014   7.791 -0.1312 -1.1524 -1.3295
   16MOL0     H 2095   4.970   1.404   7.607 -1.7786  0.1921 -0.6689
   16MOL0     H 2096   4.836   1.431   7.722  0.0805 -0.3603  1.0524
   16MOL0     H 2097   5.130   1.418   7.804  0.2197 -0.4465  0.4769
   16MOL0     H 2098   4.996   1.433   7.915 -2.0856  1.6702 -0.2891
   16MOL0     H 2099   4.914   1.642   7.829 -0.4468 -0.4061 -2.4156
   16MOL0     H 2100   5.034   1.639   7.699  0.2720  0.9269  0.6917
   16MOL0     H 2101   5.077   1.669   8.004  1.7954 -0.6142  0.0959
   16MOL0     H 2102   5.213   1.648   7.895  0.6810  0.9754 -1.2658
   16MOL0     H 2103   5.179   1.879   7.937  0.3809 -0.9202  0.0823
   16MOL0     H 2104   5.103   1.857   7.771  2.0392  2.0338 -0.4502
   16MOL0     H 2105   4.881   1.842   7.892 -1.1518  0.6650  2.7111
   16MOL0     H 2106   4.959   1.905   8.036 -2.6990  1.4999  0.2315
   16MOL0     H 2107   4.948   2.067   7.780 -0.2154  3.4309  0.2236
   16MOL0     H 2108   5.059   2.085   7.912 -1.3887 -1.0406  1.1295
   16MOL0     H 2109   4.857   2.135   8.068 -0.7256  1.9590  0.5611
   16MOL0     H 2110   4.866   2.242   7.939 -1.4962  0.6776  1.5534
   16MOL0     H 2111   4.624   1.988   8.101  0.5089 -3.0819 -0.5162
   16MOL0     H 2112   4.341   2.053   8.059 -1.8202 -1.2698 -0.8104
   16MOL0     H 2113   4.304   1.973   7.900 -1.6293 -1.4098  0.5768
   16MOL0     H 2114   4.462   1.840   8.119  1.4564  2.3462 -1.6975
   16MOL0     H 2115   4.283   1.816   8.093 -1.6444  1.0978 -1.3853
   16MOL0     H 2116   4.493   1.767   7.869  0.5248  1.1332 -0.0862
   16MOL0     H 2117   4.331   1.713   7.878 -1.0297 -1.0653  2.9152
   16MOL0     H 2118   4.538   1.602   8.059  0.0869 -0.7027 -1.7554
   16MOL0     H 2119   4.470   1.537   7.913 -0.3605  0.0886 -0.7493
   16MOL0     H 2120   4.118   1.571   8.202  1.7236  3.2418 -2.4745
   16MOL0     H 2121   3.887   1.499   8.139  1.0236  0.8553  1.4695
   16MOL0     H 2122   3.546   1.230   8.099  0.9756 -0.3913 -0.9748
   16MOL0     H 2123   3.303   1.240   8.075  1.3820 -1.8948 -1.4752
   16MOL0     H 2124   3.081   1.498   7.794  0.0341  0.6990 -1.2717
   16MOL0     H 2125   3.155   1.344   7.730  2.3655  1.8642  1.5634
   16MOL0     H 2126   2.984   1.209   7.778  2.7250  0.6769 -3.0156
   16MOL0     H 2127   2.928   1.303   7.919 -1.4608  1.7790 -1.8219
   16MOL0     H 2128   2.822   1.475   7.803  1.7307  0.2986 -0.4629
   16MOL0     H 2129   2.896   1.426   7.651  3.3166  1.2271  1.6955
   16MOL0     H 2130   2.684   1.293   7.820  1.1917  1.1206  1.2874
   16MOL0     H 2131   2.759   1.198   7.703 -0.4841  1.1450 -0.5637
   16MOL0     H 2132   2.684   1.359   7.521  1.0319  0.5949  0.3033
   16MOL0     H 2133   2.608   1.463   7.639  0.3052  0.5622  0.4060
   16MOL0     H 2134   2.463   1.295   7.512 -0.8013 -0.6417  1.3537
   16MOL0     H 2135   2.539   1.166   7.609  2.1293  0.2771 -0.3006
   16MOL0     H 2136   2.384   1.398   7.754 -3.6791 -1.2093  1.9124
   16MOL0     H 2137   2.449   1.253   7.820 -1.8754  0.0683  0.7760
   16MOL0     H 2138   2.248   1.269   7.591  2.8763  4.4088  1.5153
   16MOL0     H 2139   2.318   1.127   7.678 -0.5546 -0.1699 -2.6567
   16MOL0     H 2140   3.330   1.493   7.740 -1.0170  0.0369 -0.6140
   16MOL0     H 2141   3.575   1.501   7.766  1.5599 -2.3339 -0.3939
   16MOL0     H 2142   4.044   1.428   7.739 -2.8642  4.5724 -0.7701
   16MOL0     H 2143   4.269   1.473   7.817  3.1666 -0.1993  1.6978
   16MOL0     H 2144   4.741   1.313   7.529 -0.3700 -0.8092 -0.8915
   16MOL0     H 2145   4.595   1.171   7.429  0.0585 -1.8133 -0.9397
   16MOL0     H 2146   4.179   0.947   7.408  2.9719  0.5026  0.6150
   16MOL0     H 2147   3.998   0.793   7.406 -0.7301  1.6569  2.3980
   16MOL0     H 2148   4.023   0.438   7.684  0.6367 -2.5031  0.0638
   16MOL0     H 2149   4.050   0.380   7.526  0.1298  0.5616 -0.4298
   16MOL0     H 2150   3.759   0.457   7.591  0.1414 -0.0804 -0.9948
   16MOL0     H 2151   3.815   0.300   7.643 -0.0695  0.5214  0.4989
   16MOL0     H 2152   3.858   0.242   7.413  1.5049  1.8488 -1.9941
   16MOL0     H 2153   3.863   0.399   7.363 -1.7550  1.3307 -0.4663
   16MOL0     H 2154   3.637   0.457   7.381 -0.0655  1.0323 -2.2144
   16MOL0     H 2155   3.670   0.307   7.287  1.4729 -0.7273  2.6205
   16MOL0     H 2156   3.411   0.153   7.584  1.6068 -0.1956  1.7201
   16MOL0     H 2157   4.227   0.511   7.636  1.1767 -0.8103 -2.3228
   16MOL0     H 2158   4.438   0.709   7.781 -1.7098 -3.1993  1.4010
   16MOL0     H 2159   4.461   0.559   7.683 -1.9978  0.0508 -0.1319
   16MOL0     H 2160   4.550   0.707   7.647 -1.7661  0.9103 -2.9505
   17MOL0     O 2161   6.818   0.428  10.572 -0.3025 -0.1894  0.2649
   17MOL0     C 2162   6.784   0.336  10.651  0.0779 -0.4043  0.3839
   17MOL0     O 2163   6.866   0.243  10.714 -0.8672 -0.0069  0.4751
   17MOL0     C 2164   6.997   0.242  10.673  0.1120  0.1442  0.0640
   17MOL0     C 2165   7.100   0.306  10.746  0.2589  0.2581  0.0779
   17MOL0     C 2166   7.236   0.307  10.705  0.2414  1.1926 -0.5432
   17MOL0     C 2167   7.276   0.250  10.585 -0.7759 -0.0583 -0.2944
   17MOL0     O 2168   7.409   0.258  10.555 -0.1801 -0.4278  0.4428
   17MOL0     C 2169   7.458   0.170  10.463  0.2353 -0.1856  0.6186
   17MOL0     C 2170   7.607   0.175  10.485 -0.1290  0.0142  0.2790
   17MOL0     C 2171   7.680   0.084  10.385 -0.5747  0.5220  0.1159
   17MOL0     C 2172   7.809   0.162  10.334  0.0044  0.4680  0.1706
   17MOL0     C 2173   7.910   0.185  10.438 -0.2142  0.9951 -0.4917
   17MOL0     C 2174   8.039   0.228  10.374 -1.9767  0.7044  0.1332
   17MOL0     C 2175   8.155   0.271  10.470  0.8897  0.1089  0.4276
   17MOL0     C 2176   8.242   0.165  10.528  1.0812  0.6700 -0.8816
   17MOL0     N 2177   8.350   0.220  10.613  0.8178  0.0497 -0.0078
   17MOL0     C 2178   8.458   0.282  10.550  0.6665 -0.0219 -0.2681
   17MOL0     C 2179   8.537   0.312  10.660 -0.5974 -1.0785 -0.2899
   17MOL0     C 2180   8.676   0.372  10.632  0.0923  0.7650 -0.1916
   17MOL0     C 2181   8.724   0.472  10.736  0.6914 -0.1346  0.7163
   17MOL0     C 2182   8.860   0.514  10.687 -0.3847  0.3221 -0.6091
   17MOL0     C 2183   8.927   0.589  10.807  0.3871  0.3147  0.1131
   17MOL0     O 2184   9.044   0.657  10.762  0.5775 -0.1319 -0.6873
   17MOL0     C 2185   9.135   0.705  10.850 -0.1054 -0.6014 -0.1510
   17MOL0     C 2186   9.109   0.726  10.983 -0.3852  0.5229 -0.6562
   17MOL0     C 2187   9.216   0.789  11.060 -0.2057  0.1850  0.2764
   17MOL0     C 2188   9.340   0.827  11.010 -0.0664 -0.0737 -0.9812
   17MOL0     C 2189   9.443   0.892  11.097  0.7769 -0.0062 -0.3445
   17MOL0     O 2190   9.557   0.944  11.039 -0.1743 -0.0534 -0.2868
   17MOL0     C 2191   9.667   0.994  11.115  0.1028  0.0898 -0.4753
   17MOL0     C 2192   9.704   0.938  11.236  0.0969  0.7229  0.1359
   17MOL0     C 2193   9.803   0.998  11.311  0.3743  0.0871  0.3946
   17MOL0     C 2194   9.878   1.105  11.258  0.9663  0.5026  0.7136
   17MOL0     O 2195   9.983   1.153  11.330 -0.4547  0.0305  0.0142
   17MOL0     C 2196  10.010   1.298  11.320  0.8658  0.3478 -1.2143
   17MOL0     C 2197  10.132   1.317  11.418  0.9748 -0.0676  0.5494
   17MOL0     C 2198  10.248   1.231  11.362  0.4949 -0.1260  0.2844
   17MOL0     C 2199  10.340   1.167  11.468 -1.0776 -0.5800  0.0056
   17MOL0     C 2200  10.436   1.071  11.416  0.1128 -0.2814  0.5783
   17MOL0     C 2201  10.522   0.996  11.520  0.3636 -0.3095 -0.0099
   17MOL0     C 2202  10.645   1.076  11.560  0.0295 -0.0060 -0.1952
   17MOL0     C 2203  10.711   1.003  11.676 -1.1624  0.4602 -0.1342
   17MOL0    Cl 2204  10.866   1.079  11.735  0.5943  0.3139  0.4805
   17MOL0     C 2205   9.834   1.159  11.132 -0.2958  0.2717 -1.0082
   17MOL0     C 2206   9.728   1.103  11.060  0.2836  0.4597 -0.1472
   17MOL0     O 2207   9.426   0.887  11.217 -0.3105 -0.1364  0.7389
   17MOL0     C 2208   9.355   0.810  10.868 -0.4757  0.8088  0.2395
   17MOL0     C 2209   9.249   0.764  10.790 -0.3884  0.2897  0.4751
   17MOL0     N 2210   8.481   0.262  10.772  0.3650 -0.6963 -0.4293
   17MOL0     N 2211   8.369   0.201  10.745  0.0136 -0.5360 -0.3177
   17MOL0     C 2212   7.177   0.188  10.518  0.0534 -0.1107 -0.1767
   17MOL0     C 2213   7.042   0.179  10.556 -0.0433 -0.5553  0.4878
   17MOL0     C 2214   6.634   0.309  10.649 -1.6324  0.6744 -0.2242
   17MOL0     C 2215   6.586   0.203  10.733  0.8884  0.4063 -0.4519
   17MOL0     C 2216   6.446   0.179  10.734  0.4219 -0.3492 -0.2791
   17MOL0     C 2217   6.350   0.243  10.647 -0.8740  0.3176  0.5004
   17MOL0     O 2218   6.223   0.210  10.628  1.1277  0.7616  0.6564
   17MOL0     C 2219   6.152   0.103  10.697 -1.0839 -0.7717 -0.2780
   17MOL0     C 2220   6.034   0.167  10.783  0.4004 -0.0801  0.6544
   17MOL0     C 2221   5.933   0.218  10.678  0.6997 -1.0527  0.0966
   17MOL0     C 2222   5.794   0.240  10.744  0.3668 -0.1451 -0.1772
   17MOL0     C 2223   5.711   0.326  10.661 -0.2909 -0.0434  0.2876
   17MOL0     C 2224   5.645   0.386  10.578 -0.4099  0.2616  0.3104
   17MOL0     C 2225   6.399   0.345  10.573  0.6677 -0.3764  0.6814
   17MOL0     C 2226   6.538   0.378  10.564  0.1430 -0.0455 -2.0319
   17MOL0     C 2227   6.579   0.484  10.471 -0.6978 -0.5473 -0.2767
   17MOL0     H 2228   7.074   0.355  10.839  2.6551 -1.7490  1.9300
   17MOL0     H 2229   7.311   0.367  10.755  1.3968 -1.6271  1.3269
   17MOL0     H 2230   7.419   0.069  10.475 -1.5138  0.4368  0.4682
   17MOL0     H 2231   7.441   0.200  10.360  1.6771 -3.2531 -0.6513
   17MOL0     H 2232   7.628   0.150  10.589 -2.9431 -0.2300  0.8850
   17MOL0     H 2233   7.622   0.280  10.458 -1.0160 -0.2560 -1.4405
   17MOL0     H 2234   7.620   0.059  10.297 -0.8823 -1.6327  0.8697
   17MOL0     H 2235   7.713  -0.005  10.440 -1.1063  0.0558 -0.3162
   17MOL0     H 2236   7.860   0.106  10.256 -2.6466  1.2436 -2.2855
   17MOL0     H 2237   7.779   0.247  10.272 -0.6247 -2.3007 -3.6795
   17MOL0     H 2238   7.882   0.272  10.498  1.4185  0.9542  0.3696
   17MOL0     H 2239   7.927   0.104  10.508  1.3620  2.6919  1.2252
   17MOL0     H 2240   8.091   0.149  10.319 -0.3914 -0.5965  3.2603
   17MOL0     H 2241   8.018   0.324  10.326 -0.5590  2.1026  2.1625
   17MOL0     H 2242   8.096   0.317  10.551 -0.9107 -0.6878 -0.3726
   17MOL0     H 2243   8.221   0.348  10.429  0.1175 -0.0572 -1.1677
   17MOL0     H 2244   8.184   0.106  10.600  0.1331 -1.3046 -3.1101
   17MOL0     H 2245   8.292   0.098  10.456 -1.7657 -1.2412 -1.2636
   17MOL0     H 2246   8.485   0.297  10.446  2.2871 -0.2404  0.0877
   17MOL0     H 2247   8.746   0.289  10.641 -0.8290 -0.3929 -2.7729
   17MOL0     H 2248   8.673   0.411  10.530 -0.6100  1.9840  0.2767
   17MOL0     H 2249   8.656   0.558  10.730  0.2417 -0.5126  0.2296
   17MOL0     H 2250   8.730   0.440  10.840 -3.5623  1.1931  1.5844
   17MOL0     H 2251   8.852   0.581  10.601  0.3675 -1.3099 -1.9891
   17MOL0     H 2252   8.930   0.431  10.672  1.0284  0.9137  2.0213
   17MOL0     H 2253   8.956   0.509  10.876 -2.7647 -1.5536 -0.4684
   17MOL0     H 2254   8.859   0.659  10.858 -0.4606 -2.2283  2.7723
   17MOL0     H 2255   9.016   0.689  11.025  0.0983  0.6339  0.5488
   17MOL0     H 2256   9.193   0.801  11.165  0.5293 -2.4180  0.8141
   17MOL0     H 2257   9.649   0.849  11.265  1.0401 -0.3437 -1.1920
   17MOL0     H 2258   9.826   0.969  11.413 -0.1421 -3.6097 -0.3911
   17MOL0     H 2259  10.028   1.325  11.215  0.6739 -0.3671 -1.4372
   17MOL0     H 2260   9.928   1.355  11.364  0.0376  0.3424 -2.6767
   17MOL0     H 2261  10.160   1.422  11.410  1.7039 -0.1913  1.2669
   17MOL0     H 2262  10.101   1.309  11.523  0.7900  2.9704  0.8012
   17MOL0     H 2263  10.211   1.145  11.306 -0.2001 -0.4217  1.1561
   17MOL0     H 2264  10.311   1.279  11.287 -0.1517 -3.2001 -2.4264
   17MOL0     H 2265  10.271   1.115  11.535  0.7479 -1.6070  1.1618
   17MOL0     H 2266  10.389   1.243  11.530 -3.1740 -0.4921  1.6801
   17MOL0     H 2267  10.500   1.113  11.338 -1.5435 -2.1343 -1.9275
   17MOL0     H 2268  10.380   1.005  11.350  3.2123 -0.8745 -1.6553
   17MOL0     H 2269  10.454   0.978  11.603 -1.1506 -1.0850 -1.3684
   17MOL0     H 2270  10.552   0.903  11.471 -2.2189 -0.4502 -1.4969
   17MOL0     H 2271  10.613   1.179  11.579  0.9233  1.0561 -3.5983
   17MOL0     H 2272  10.724   1.082  11.485  3.0603 -0.5922  2.7215
   17MOL0     H 2273  10.654   0.992  11.769  1.4479  2.3959  1.8854
   17MOL0     H 2274  10.745   0.907  11.636 -0.4902  1.2840 -1.6240
   17MOL0     H 2275   9.887   1.244  11.090  0.4426 -0.1535 -0.9436
   17MOL0     H 2276   9.694   1.147  10.967  1.5399 -2.8463 -2.3882
   17MOL0     H 2277   9.448   0.847  10.824 -0.4126  0.7738  0.3436
   17MOL0     H 2278   9.257   0.767  10.681  1.2262  1.1802  0.5894
   17MOL0     H 2279   7.199   0.143  10.422  1.7040  1.1488 -0.4409
   17MOL0     H 2280   6.971   0.130  10.490 -2.5789  2.8149  0.4246
   17MOL0     H 2281   6.636   0.119  10.780 -2.4177 -2.2271 -1.2376
   17MOL0     H 2282   6.422   0.100  10.804  1.8354 -0.7959 -0.2487
   17MOL0     H 2283   6.225   0.051  10.759  0.6705  1.6881 -0.1208
   17MOL0     H 2284   6.116   0.023  10.632 -1.4435  0.7457 -2.0280
   17MOL0     H 2285   6.074   0.249  10.844 -1.5895  0.9532  0.6533
   17MOL0     H 2286   5.998   0.092  10.853 -0.9099  0.8275  0.9970
   17MOL0     H 2287   5.934   0.162  10.584 -0.1887  0.2936 -0.7538
   17MOL0     H 2288   5.962   0.319  10.649 -1.6659  0.6708  3.1132
   17MOL0     H 2289   5.737   0.147  10.749  1.1267 -0.5557  1.2767
   17MOL0     H 2290   5.805   0.284  10.843 -1.3686 -0.6297  0.2619
   17MOL0     H 2291   5.597   0.450  10.507  1.0307  1.4659  0.3669
   17MOL0     H 2292   6.332   0.399  10.506  0.8107 -2.5628 -1.3579
   17MOL0     H 2293   6.653   0.446  10.400  1.2837  0.5966  1.0665
   17MOL0     H 2294   6.491   0.506  10.410 -0.4337 -2.4025 -1.4073
   17MOL0     H 2295   6.621   0.575  10.515 -0.5829 -1.1683  0.9453
   18MOL0     O 2296   5.967   5.192   3.771 -0.0478 -0.3208 -0.5522
   18MOL0     C 2297   5.926   5.160   3.661  0.0684 -0.1500 -0.5094
   18MOL0     O 2298   6.000   5.127   3.551 -0.1403  1.0063 -0.7849
   18MOL0     C 2299   6.135   5.118   3.542  1.1934 -0.4536  0.0731
   18MOL0     C 2300   6.225   5.197   3.618 -0.1556 -0.1991  0.0185
   18MOL0     C 2301   6.365   5.186   3.599 -0.3565 -0.7532 -0.5601
   18MOL0     C 2302   6.416   5.106   3.499 -0.0423 -0.4139 -0.0907
   18MOL0     O 2303   6.547   5.105   3.458  0.5403  0.6744 -0.6420
   18MOL0     C 2304   6.639   5.189   3.529 -0.8392  0.0654  0.3581
   18MOL0     C 2305   6.781   5.168   3.452 -0.1609 -0.0068  0.2355
   18MOL0     C 2306   6.906   5.217   3.526  0.9190  0.1906  0.8452
   18MOL0     C 2307   7.011   5.266   3.429  0.1627  0.7750 -0.0176
   18MOL0     C 2308   7.156   5.244   3.461  0.2799 -0.2183  1.1157
   18MOL0     C 2309   7.190   5.325   3.589  0.3990 -0.0415  0.5387
   18MOL0     C 2310   7.339   5.349   3.599 -0.1691 -0.3744  0.4258
   18MOL0     C 2311   7.382   5.375   3.742 -0.5484 -0.6181  0.2286
   18MOL0     N 2312   7.527   5.370   3.771 -0.1576  0.1233 -0.1290
   18MOL0     C 2313   7.573   5.377   3.900  0.5563 -0.2982  0.4988
   18MOL0     C 2314   7.703   5.392   3.894  0.0511 -0.3662  0.1695
   18MOL0     C 2315   7.803   5.362   3.997  0.2664  0.3219  0.5163
   18MOL0     C 2316   7.804   5.455   4.118 -0.5805  0.2594  0.6505
   18MOL0     C 2317   7.915   5.419   4.210  0.5868  0.0692  0.0162
   18MOL0     C 2318   8.055   5.464   4.168 -0.1935 -0.5442  0.9683
   18MOL0     O 2319   8.058   5.608   4.161  0.0220  0.6940 -0.0802
   18MOL0     C 2320   8.174   5.669   4.150 -0.7612 -0.5314 -0.0057
   18MOL0     C 2321   8.231   5.713   4.271  0.3936  0.7084 -0.4883
   18MOL0     C 2322   8.335   5.802   4.281  0.7349  0.5485  0.8103
   18MOL0     C 2323   8.392   5.840   4.154  0.1280  0.5197 -0.6605
   18MOL0     C 2324   8.514   5.920   4.168 -0.4750 -0.6021 -0.8653
   18MOL0     O 2325   8.566   5.968   4.051  0.1814  0.3091  0.1645
   18MOL0     C 2326   8.698   5.994   4.061 -0.1867  0.5801  0.1020
   18MOL0     C 2327   8.779   5.902   3.994  1.0147 -0.2370  0.1748
   18MOL0     C 2328   8.913   5.910   3.977  0.0506  0.9158 -0.0395
   18MOL0     C 2329   8.974   6.015   4.046 -0.4511 -0.7394 -0.0860
   18MOL0     O 2330   9.109   6.035   4.058 -0.1308  0.0636  0.4282
   18MOL0     C 2331   9.201   5.919   4.077  0.3989 -1.0623  0.1112
   18MOL0     C 2332   9.315   5.965   4.183  0.4270 -0.4686  0.1777
   18MOL0     C 2333   9.423   6.060   4.120  0.0814  0.1356  0.4652
   18MOL0     C 2334   9.553   6.073   4.198  0.3900 -0.1921  0.1647
   18MOL0     C 2335   9.651   6.165   4.131 -0.4239  0.2395 -0.1447
   18MOL0     C 2336   9.799   6.165   4.187  0.1456  0.0774  0.3438
   18MOL0     C 2337   9.895   6.272   4.134 -0.0167  0.3542  0.0080
   18MOL0     C 2338   9.901   6.279   3.984 -0.3018 -0.2433 -0.6359
   18MOL0    Cl 2339   9.973   6.124   3.900 -0.0782 -0.0611  0.2475
   18MOL0     C 2340   8.894   6.121   4.092  0.7616 -0.0329  0.6952
   18MOL0     C 2341   8.753   6.109   4.113 -0.7990  0.2752  0.0951
   18MOL0     O 2342   8.568   5.931   4.280  0.3710  0.7402 -0.3755
   18MOL0     C 2343   8.334   5.813   4.030 -0.1963  0.3877 -0.6861
   18MOL0     C 2344   8.233   5.719   4.034 -0.1071 -0.0649  0.0627
   18MOL0     N 2345   7.742   5.410   3.756 -0.3285  0.1425  0.2732
   18MOL0     N 2346   7.630   5.408   3.688 -0.6538 -0.4319  0.3712
   18MOL0     C 2347   6.328   5.032   3.418 -0.6276  0.1889  0.0478
   18MOL0     C 2348   6.190   5.041   3.439 -0.3637  0.5012 -0.1272
   18MOL0     C 2349   5.777   5.150   3.638  0.1072 -0.4323  0.7978
   18MOL0     C 2350   5.702   5.110   3.748 -0.2602 -0.1824  0.2642
   18MOL0     C 2351   5.565   5.081   3.734 -0.0592  0.8407 -0.5205
   18MOL0     C 2352   5.495   5.102   3.623 -0.5118 -0.0842  0.3700
   18MOL0     O 2353   5.360   5.086   3.628 -0.2536  0.3002  0.3540
   18MOL0     C 2354   5.286   5.121   3.512 -0.3395  0.1547 -1.0832
   18MOL0     C 2355   5.134   5.105   3.549 -1.1167  0.3688  0.5155
   18MOL0     C 2356   5.093   5.189   3.675  0.0744 -0.5420  0.1893
   18MOL0     C 2357   5.106   5.122   3.806 -0.2347  0.9378  0.3261
   18MOL0     C 2358   5.028   5.185   3.911  0.6378  0.8275  0.6019
   18MOL0     C 2359   4.973   5.259   3.984 -0.6475 -0.5900  0.0291
   18MOL0     C 2360   5.570   5.139   3.512 -0.1346 -0.4803 -0.6143
   18MOL0     C 2361   5.711   5.162   3.512 -1.0409  0.0157  0.5866
   18MOL0     C 2362   5.784   5.181   3.375  0.6138  0.1203  0.0073
   18MOL0     H 2363   6.188   5.272   3.688  1.7046  1.0373 -0.2338
   18MOL0     H 2364   6.422   5.238   3.675 -1.3162  0.8713 -0.9071
   18MOL0     H 2365   6.599   5.291   3.524 -2.4431 -0.5639 -0.7332
   18MOL0     H 2366   6.656   5.154   3.631 -0.8536 -0.5277  0.1598
   18MOL0     H 2367   6.783   5.207   3.350  0.5837 -0.7990 -0.0605
   18MOL0     H 2368   6.796   5.061   3.440  1.6696  0.1806  0.6396
   18MOL0     H 2369   6.958   5.135   3.577  0.4762 -2.1499 -2.1821
   18MOL0     H 2370   6.863   5.295   3.589 -0.8201  2.4222 -2.7374
   18MOL0     H 2371   6.995   5.216   3.333 -3.2132 -0.1462  0.8671
   18MOL0     H 2372   7.007   5.375   3.417 -4.8233  1.2897  3.2261
   18MOL0     H 2373   7.183   5.140   3.479  0.9028  0.1260  2.3545
   18MOL0     H 2374   7.223   5.278   3.382  1.0773  1.2225  2.3425
   18MOL0     H 2375   7.132   5.417   3.603  1.6994  0.8010  0.5540
   18MOL0     H 2376   7.170   5.259   3.674  0.7563  1.2184  1.6468
   18MOL0     H 2377   7.368   5.427   3.528 -1.9687 -0.7666 -0.7970
   18MOL0     H 2378   7.394   5.257   3.579  1.9869  1.1919 -1.2943
   18MOL0     H 2379   7.352   5.478   3.767 -1.8705 -1.1636  1.0340
   18MOL0     H 2380   7.327   5.312   3.813 -2.0437  2.4993  2.0890
   18MOL0     H 2381   7.512   5.350   3.986  0.4341 -1.0290  0.1896
   18MOL0     H 2382   7.780   5.273   4.056 -1.4907  0.5780  0.2617
   18MOL0     H 2383   7.898   5.333   3.951  1.1869 -1.8013  3.4982
   18MOL0     H 2384   7.816   5.559   4.085 -2.4412  0.4026  0.3268
   18MOL0     H 2385   7.710   5.475   4.170 -0.8951 -1.4131  0.7693
   18MOL0     H 2386   7.931   5.312   4.227 -0.1632 -0.6445 -3.1351
   18MOL0     H 2387   7.897   5.459   4.310 -1.5402 -2.5524  0.8064
   18MOL0     H 2388   8.094   5.398   4.091  0.2921  1.1508 -0.2941
   18MOL0     H 2389   8.121   5.431   4.249  1.1133 -0.5918 -0.0762
   18MOL0     H 2390   8.182   5.681   4.362 -4.8900  0.5672 -2.9630
   18MOL0     H 2391   8.380   5.823   4.378  3.8281  0.8050 -0.5379
   18MOL0     H 2392   8.724   5.814   3.962 -0.1000 -1.3757  4.5526
   18MOL0     H 2393   8.970   5.824   3.943 -3.6294 -0.8883 -2.3138
   18MOL0     H 2394   9.146   5.837   4.124 -3.0776  0.5230 -0.8702
   18MOL0     H 2395   9.251   5.883   3.987  0.9105 -1.4523  0.5491
   18MOL0     H 2396   9.257   6.014   4.261  1.1556  0.1619  0.3366
   18MOL0     H 2397   9.381   5.882   4.208  2.5835 -0.2507 -3.8594
   18MOL0     H 2398   9.439   6.052   4.012  0.9591 -1.1550  0.6697
   18MOL0     H 2399   9.384   6.162   4.124  3.0126  1.3810 -0.3452
   18MOL0     H 2400   9.588   5.970   4.196  2.3957  0.3908  2.0697
   18MOL0     H 2401   9.527   6.105   4.299 -1.7834 -0.0975 -0.3605
   18MOL0     H 2402   9.621   6.269   4.146  1.6220  0.5202  2.9740
   18MOL0     H 2403   9.659   6.132   4.026  0.5922 -0.2322  0.0698
   18MOL0     H 2404   9.804   6.168   4.296 -0.0048 -2.9589  0.5020
   18MOL0     H 2405   9.852   6.070   4.173  0.6120  0.5810 -1.6286
   18MOL0     H 2406   9.996   6.245   4.168  0.1288  0.7441 -0.1157
   18MOL0     H 2407   9.867   6.369   4.176  0.0078  0.1376  0.5280
   18MOL0     H 2408   9.798   6.294   3.950 -0.4618 -0.8858 -0.4497
   18MOL0     H 2409   9.964   6.366   3.962  1.1706 -1.4234 -1.2544
   18MOL0     H 2410   8.953   6.203   4.131  2.0271 -0.5009 -0.1910
   18MOL0     H 2411   8.691   6.177   4.170  1.0511  1.1905  1.1136
   18MOL0     H 2412   8.371   5.855   3.937  0.4960 -1.2984 -1.2068
   18MOL0     H 2413   8.177   5.694   3.944 -0.3503  0.6133  0.0128
   18MOL0     H 2414   6.367   4.962   3.345 -1.1891  1.5143 -1.5811
   18MOL0     H 2415   6.130   4.991   3.364  1.8722 -2.5217 -0.0735
   18MOL0     H 2416   5.759   5.088   3.839  0.4031 -0.9858 -0.3208
   18MOL0     H 2417   5.512   5.058   3.826 -0.1297  1.9679 -0.2687
   18MOL0     H 2418   5.308   5.047   3.433  2.6339 -1.8888  1.3983
   18MOL0     H 2419   5.309   5.220   3.472 -2.7980  1.6145  0.8594
   18MOL0     H 2420   5.100   5.001   3.545 -2.3513  0.7600  0.6646
   18MOL0     H 2421   5.088   5.160   3.467 -0.1243  1.7311  0.8158
   18MOL0     H 2422   4.990   5.222   3.664  0.3301  0.2471  0.1588
   18MOL0     H 2423   5.159   5.276   3.682  0.4274 -0.9116  1.7559
   18MOL0     H 2424   5.075   5.017   3.804  3.2551 -0.2200 -1.4880
   18MOL0     H 2425   5.210   5.117   3.839 -0.9582  1.1029  2.8735
   18MOL0     H 2426   4.931   5.298   4.074  1.9531 -0.5419  1.2944
   18MOL0     H 2427   5.523   5.153   3.415 -1.9128  2.4522  0.5512
   18MOL0     H 2428   5.711   5.196   3.296 -0.2729  3.0277  1.2431
   18MOL0     H 2429   5.853   5.266   3.380  0.1253  0.6161 -1.3516
   18MOL0     H 2430   5.835   5.085   3.361  1.2293  0.8064 -3.0791
   19MOL0     O 2431   3.837   6.737   8.596 -0.3671  0.2537  0.5380
   19MOL0     C 2432   3.738   6.698   8.535  0.4313 -0.1615  0.3068
   19MOL0     O 2433   3.729   6.679   8.402 -0.3650  0.3690  0.6150
   19MOL0     C 2434   3.828   6.716   8.325 -0.1868 -0.7176 -0.0604
   19MOL0     C 2435   3.866   6.850   8.303  0.0448 -0.8652  0.0235
   19MOL0     C 2436   3.965   6.888   8.209  0.4830 -0.4099 -0.3447
   19MOL0     C 2437   4.029   6.781   8.142 -0.2468  0.5907  0.2768
   19MOL0     O 2438   4.116   6.799   8.044  0.2095 -0.0645 -0.3157
   19MOL0     C 2439   4.244   6.853   8.074 -0.6303  0.8810  0.2585
   19MOL0     C 2440   4.344   6.745   8.106  0.0307 -1.3088  0.1504
   19MOL0     C 2441   4.379   6.660   7.979 -0.6939  0.6859 -0.7288
   19MOL0     C 2442   4.465   6.539   8.030 -0.2088 -0.1978 -0.6122
   19MOL0     C 2443   4.515   6.463   7.904  0.1351  0.1642  0.2629
   19MOL0     C 2444   4.583   6.323   7.928  0.0557 -0.5415 -0.8137
   19MOL0     C 2445   4.609   6.246   7.803 -0.7040 -0.4924 -0.0947
   19MOL0     C 2446   4.706   6.308   7.704  0.7485 -0.5030  0.4283
   19MOL0     N 2447   4.844   6.315   7.759  0.5836  0.8355 -0.0957
   19MOL0     C 2448   4.909   6.204   7.804 -0.0033  0.0351  0.0274
   19MOL0     C 2449   5.028   6.257   7.839  0.6108 -0.6445  0.3453
   19MOL0     C 2450   5.140   6.171   7.898  0.8030  0.7775  0.1861
   19MOL0     C 2451   5.216   6.248   8.001 -0.2549  0.2755  0.8858
   19MOL0     C 2452   5.330   6.151   8.062  0.1763  0.3043 -0.8126
   19MOL0     C 2453   5.395   6.189   8.196  0.1249 -0.7568 -0.4070
   19MOL0     O 2454   5.454   6.319   8.186  0.9151  0.3325  0.1684
   19MOL0     C 2455   5.588   6.337   8.208  0.4868 -0.7407  0.7331
   19MOL0     C 2456   5.676   6.242   8.266 -0.0529 -0.0018 -0.0943
   19MOL0     C 2457   5.804   6.278   8.290  0.3558 -0.7571 -0.3864
   19MOL0     C 2458   5.860   6.404   8.247  0.0154  0.3453  0.3295
   19MOL0     C 2459   6.004   6.433   8.266 -0.3973 -0.6760 -0.3783
   19MOL0     O 2460   6.062   6.526   8.188 -0.6375 -0.0266 -0.0016
   19MOL0     C 2461   6.201   6.539   8.168  0.7030 -0.0431  0.4644
   19MOL0     C 2462   6.245   6.527   8.039 -0.2798  0.0189  0.4421
   19MOL0     C 2463   6.379   6.539   8.004  0.2521  0.2431  0.7658
   19MOL0     C 2464   6.470   6.572   8.106  0.8739 -0.2361  0.3188
   19MOL0     O 2465   6.604   6.589   8.074  0.4441 -0.0745  0.1169
   19MOL0     C 2466   6.673   6.486   7.991  0.1934  0.7701  0.9619
   19MOL0     C 2467   6.816   6.537   7.963  0.2403 -0.3275  0.9000
   19MOL0     C 2468   6.886   6.438   7.867 -0.2524  0.2967 -1.1120
   19MOL0     C 2469   7.030   6.480   7.839 -0.6199 -0.5638 -0.7203
   19MOL0     C 2470   7.110   6.366   7.767  0.7290 -0.6333 -0.0609
   19MOL0     C 2471   7.158   6.258   7.867  0.1869 -0.6894  0.0535
   19MOL0     C 2472   7.213   6.134   7.789  0.1039 -0.4664 -0.1892
   19MOL0     C 2473   7.271   6.024   7.872 -0.4716 -0.2431 -0.4489
   19MOL0    Cl 2474   7.419   6.065   7.960 -0.1100 -0.2142  0.0581
   19MOL0     C 2475   6.427   6.586   8.235  0.0944  0.7606 -0.1643
   19MOL0     C 2476   6.295   6.563   8.266 -0.0037  0.2514 -0.5371
   19MOL0     O 2477   6.064   6.358   8.345 -0.1982  0.3056 -0.3155
   19MOL0     C 2478   5.772   6.499   8.187  0.1141  1.4967 -0.2995
   19MOL0     C 2479   5.641   6.464   8.166 -0.2496  0.3985  0.5477
   19MOL0     N 2480   5.036   6.389   7.812 -0.3750  0.2194 -0.3976
   19MOL0     N 2481   4.919   6.429   7.778  0.3589  0.1829 -0.5685
   19MOL0     C 2482   3.989   6.650   8.159 -0.6675 -0.2558  0.1824
   19MOL0     C 2483   3.884   6.617   8.248  0.3712  0.1025 -0.2689
   19MOL0     C 2484   3.607   6.687   8.617 -0.0597  0.2194  0.6978
   19MOL0     C 2485   3.487   6.675   8.544  0.0682 -0.3750  0.6884
   19MOL0     C 2486   3.363   6.657   8.605  0.4074 -0.0131 -0.0777
   19MOL0     C 2487   3.346   6.666   8.741  0.2699 -0.6926 -0.3302
   19MOL0     O 2488   3.225   6.652   8.808  0.7191  0.0606  0.3382
   19MOL0     C 2489   3.200   6.529   8.875  0.4563  0.5550  0.7682
   19MOL0     C 2490   3.063   6.517   8.957 -0.0943 -0.6258  0.2598
   19MOL0     C 2491   2.950   6.467   8.867  1.2806  0.4233 -1.1160
   19MOL0     C 2492   2.811   6.484   8.940  0.6977  0.1285  0.2104
   19MOL0     C 2493   2.781   6.448   9.073  0.5410 -0.3579 -0.7197
   19MOL0     C 2494   2.745   6.405   9.177  0.4310 -0.0933 -0.4202
   19MOL0     C 2495   3.468   6.680   8.816  0.1073  0.2629 -0.2010
   19MOL0     C 2496   3.595   6.683   8.755 -0.2706 -0.3170  0.0681
   19MOL0     C 2497   3.712   6.702   8.853 -0.5193  0.9328  0.3810
   19MOL0     H 2498   3.828   6.929   8.368  1.4281 -1.6995  1.9556
   19MOL0     H 2499   3.993   6.992   8.196 -0.3820 -0.0297  0.6186
   19MOL0     H 2500   4.287   6.905   7.988  0.6890 -0.2821  0.1847
   19MOL0     H 2501   4.225   6.925   8.154 -1.4553  1.2861 -0.2992
   19MOL0     H 2502   4.306   6.682   8.186 -3.3148 -0.4201 -0.5811
   19MOL0     H 2503   4.437   6.792   8.139  0.8598 -1.1541 -2.2210
   19MOL0     H 2504   4.427   6.714   7.897  1.1430  1.2750  0.6864
   19MOL0     H 2505   4.280   6.623   7.949 -2.7073  2.7401  2.7974
   19MOL0     H 2506   4.549   6.584   8.084 -2.1347  1.9144  0.8055
   19MOL0     H 2507   4.405   6.481   8.101 -1.1289  0.5312 -0.7761
   19MOL0     H 2508   4.425   6.445   7.844 -1.3080  0.6176  2.1716
   19MOL0     H 2509   4.586   6.524   7.848 -0.9558 -0.8275 -2.3482
   19MOL0     H 2510   4.669   6.336   7.995 -1.3391 -1.8360  1.3605
   19MOL0     H 2511   4.515   6.254   7.979 -0.4758 -1.7922 -3.0953
   19MOL0     H 2512   4.513   6.223   7.756 -2.1005  0.5828  2.0546
   19MOL0     H 2513   4.646   6.145   7.823 -0.0548 -0.4900 -1.1943
   19MOL0     H 2514   4.696   6.245   7.615 -0.1692  1.2387 -0.7623
   19MOL0     H 2515   4.675   6.408   7.674  1.2817 -1.1410 -2.6044
   19MOL0     H 2516   4.871   6.103   7.816  1.0352 -0.3243  0.4704
   19MOL0     H 2517   5.103   6.079   7.946  1.6278 -0.2306 -1.0447
   19MOL0     H 2518   5.214   6.139   7.823 -1.3039 -4.2478 -0.1739
   19MOL0     H 2519   5.237   6.344   7.953 -1.1948 -0.6464 -1.5793
   19MOL0     H 2520   5.146   6.269   8.082  0.4258 -0.5490  1.7107
   19MOL0     H 2521   5.417   6.150   7.995  1.8803  3.4189  1.1395
   19MOL0     H 2522   5.289   6.051   8.077  0.6100  0.0706 -1.1701
   19MOL0     H 2523   5.458   6.105   8.228 -0.7429 -1.7602 -1.2390
   19MOL0     H 2524   5.323   6.193   8.278  1.2768  1.0564  0.6030
   19MOL0     H 2525   5.640   6.143   8.292  0.5239  0.2004  1.5783
   19MOL0     H 2526   5.868   6.198   8.323 -0.0188 -0.5085  0.9886
   19MOL0     H 2527   6.169   6.515   7.963  1.4811 -2.0442 -1.1358
   19MOL0     H 2528   6.407   6.536   7.899 -0.6744 -1.3163  0.5307
   19MOL0     H 2529   6.670   6.386   8.035  1.8150 -0.5975 -1.7666
   19MOL0     H 2530   6.627   6.484   7.892  3.2794 -0.1025 -0.5917
   19MOL0     H 2531   6.806   6.634   7.914  1.2141 -0.0410  1.2580
   19MOL0     H 2532   6.871   6.547   8.057  0.7767 -1.2683  0.7010
   19MOL0     H 2533   6.894   6.342   7.917  0.4428  0.2973 -1.2168
   19MOL0     H 2534   6.826   6.427   7.776 -0.5078 -0.1941 -0.8868
   19MOL0     H 2535   7.083   6.523   7.924  2.9644 -1.2583 -2.3948
   19MOL0     H 2536   7.006   6.554   7.762 -1.7923 -1.6099 -1.4041
   19MOL0     H 2537   7.189   6.424   7.720  0.9758  0.1829  1.3029
   19MOL0     H 2538   7.058   6.326   7.680 -1.2346  0.6792  0.4311
   19MOL0     H 2539   7.238   6.303   7.926  0.8441 -0.7707 -0.7510
   19MOL0     H 2540   7.072   6.228   7.927  0.2762 -2.9389 -0.8161
   19MOL0     H 2541   7.281   6.173   7.713  1.7724 -1.9760  0.4905
   19MOL0     H 2542   7.132   6.090   7.729 -0.0719 -0.9466  0.3905
   19MOL0     H 2543   7.207   5.985   7.952  0.5108 -0.2355  0.3629
   19MOL0     H 2544   7.303   5.942   7.807  4.3690  0.7155  0.3275
   19MOL0     H 2545   6.497   6.614   8.313  1.8435  0.1584 -1.4460
   19MOL0     H 2546   6.259   6.553   8.368  0.7678  0.9260 -0.1899
   19MOL0     H 2547   5.791   6.604   8.164 -3.1997  2.2327 -0.1937
   19MOL0     H 2548   5.561   6.520   8.118 -2.3422 -2.3300  0.6376
   19MOL0     H 2549   4.057   6.580   8.111  0.3295  0.6856  0.1765
   19MOL0     H 2550   3.849   6.517   8.273 -0.1308  0.3655  0.0999
   19MOL0     H 2551   3.497   6.683   8.436  2.3566 -0.8955  0.8145
   19MOL0     H 2552   3.269   6.638   8.554  0.0877 -1.3900  0.9447
   19MOL0     H 2553   3.286   6.528   8.943  0.1800 -0.0898  1.1076
   19MOL0     H 2554   3.212   6.463   8.789  1.9740  5.3949 -3.2504
   19MOL0     H 2555   3.046   6.619   8.992 -1.5282 -0.4629 -0.8466
   19MOL0     H 2556   3.086   6.459   9.047 -1.0165  1.2596  1.7791
   19MOL0     H 2557   2.957   6.359   8.852  0.0833 -0.0907  1.5357
   19MOL0     H 2558   2.955   6.508   8.765  4.0973 -0.5020 -1.4544
   19MOL0     H 2559   2.779   6.588   8.930  0.8748  0.5635  3.2048
   19MOL0     H 2560   2.744   6.424   8.877  1.6391  1.7445 -2.4590
   19MOL0     H 2561   2.716   6.372   9.274 -3.1718  0.0548 -1.3118
   19MOL0     H 2562   3.455   6.676   8.924  2.9805  0.2715  0.2265
   19MOL0     H 2563   3.685   6.674   8.955  0.1385 -2.0646 -0.1977
   19MOL0     H 2564   3.790   6.629   8.830 -1.6149 -0.8108  1.9438
   19MOL0     H 2565   3.762   6.800   8.847 -2.6960  2.0432 -1.7988
   20MOL0     O 2566   4.718   2.314   4.992  0.2581  0.6803  0.5804
   20MOL0     C 2567   4.699   2.207   5.052 -0.6036 -0.9057  1.0479
   20MOL0     O 2568   4.790   2.117   5.096  0.0536 -0.0725  0.3793
   20MOL0     C 2569   4.915   2.132   5.054 -0.8372 -0.5540 -0.6943
   20MOL0     C 2570   4.968   2.132   4.921  0.0252  0.0718 -0.4399
   20MOL0     C 2571   5.104   2.145   4.900 -0.0197 -0.0317  0.0065
   20MOL0     C 2572   5.199   2.153   5.003 -0.3720 -1.3734  0.3007
   20MOL0     O 2573   5.333   2.170   4.991  0.5206 -0.4327 -0.1372
   20MOL0     C 2574   5.383   2.051   4.932  0.3106  0.0559  0.1796
   20MOL0     C 2575   5.450   2.080   4.806  0.2202 -0.4038  1.1045
   20MOL0     C 2576   5.596   2.114   4.836 -0.7435  0.2674 -0.5476
   20MOL0     C 2577   5.683   2.119   4.712  0.0541 -0.0471  0.9765
   20MOL0     C 2578   5.824   2.179   4.726  0.8241 -0.0146 -0.0552
   20MOL0     C 2579   5.901   2.106   4.832 -0.4395 -0.0844  0.2214
   20MOL0     C 2580   6.053   2.146   4.827 -0.5112  0.1521  0.3362
   20MOL0     C 2581   6.136   2.083   4.937  0.0422  0.0223  0.6603
   20MOL0     N 2582   6.264   2.147   4.978  0.6175 -0.6557 -0.1467
   20MOL0     C 2583   6.309   2.278   4.963 -0.0078  0.0612 -0.2197
   20MOL0     C 2584   6.435   2.280   4.981 -0.5725  0.3488 -1.0514
   20MOL0     C 2585   6.529   2.400   4.974 -0.7283 -0.3456  0.2837
   20MOL0     C 2586   6.671   2.362   4.928  0.4639 -0.1694 -0.0756
   20MOL0     C 2587   6.758   2.482   4.942  1.1855 -0.4099 -0.0325
   20MOL0     C 2588   6.902   2.459   4.954  0.7397  0.1966 -0.1547
   20MOL0     O 2589   6.933   2.411   5.088 -0.0128 -0.3053 -0.3722
   20MOL0     C 2590   7.062   2.403   5.114 -0.3546  0.5779 -0.3521
   20MOL0     C 2591   7.129   2.299   5.055 -0.4607 -0.4881 -0.5317
   20MOL0     C 2592   7.269   2.285   5.092  0.3236 -0.7014  0.4868
   20MOL0     C 2593   7.338   2.362   5.185  0.7596 -0.3682 -0.4476
   20MOL0     C 2594   7.477   2.320   5.223  0.0976  0.0433 -0.4042
   20MOL0     O 2595   7.516   2.205   5.173 -0.1241 -0.2377  0.6843
   20MOL0     C 2596   7.641   2.162   5.211 -0.0791 -0.4231  0.9139
   20MOL0     C 2597   7.640   2.053   5.296 -0.5670  0.0413 -0.1281
   20MOL0     C 2598   7.761   2.009   5.342  0.1787  1.3551  0.3636
   20MOL0     C 2599   7.886   2.076   5.310 -0.2864 -0.5016  0.3618
   20MOL0     O 2600   7.990   2.023   5.369  0.1463  0.2954  0.2917
   20MOL0     C 2601   8.114   2.093   5.346 -0.0807 -0.2238 -0.5855
   20MOL0     C 2602   8.213   2.045   5.453  0.5795 -0.3452 -1.0897
   20MOL0     C 2603   8.243   1.906   5.430  0.4696  1.3428 -0.3890
   20MOL0     C 2604   8.356   1.863   5.530  1.1346 -0.2155  0.7102
   20MOL0     C 2605   8.396   1.713   5.517  0.1286 -0.2850 -1.2007
   20MOL0     C 2606   8.489   1.672   5.628  0.2091 -0.8024  0.1616
   20MOL0     C 2607   8.452   1.535   5.676  0.3744 -0.3445 -0.4058
   20MOL0     C 2608   8.529   1.483   5.796 -1.2412  0.2010 -0.5740
   20MOL0    Cl 2609   8.701   1.451   5.758 -0.1364  0.2069 -0.0211
   20MOL0     C 2610   7.881   2.185   5.219 -0.0648  0.4882  0.3178
   20MOL0     C 2611   7.761   2.228   5.174 -0.2040  0.6063  0.6235
   20MOL0     O 2612   7.524   2.374   5.326 -0.3831 -0.3157  0.3358
   20MOL0     C 2613   7.269   2.478   5.240 -0.1995  0.7033 -0.7072
   20MOL0     C 2614   7.137   2.485   5.201  0.9699 -0.6906  0.2413
   20MOL0     N 2615   6.470   2.159   5.030  0.8268  0.3546 -0.5599
   20MOL0     N 2616   6.370   2.077   5.034 -0.2162  0.0496  0.1832
   20MOL0     C 2617   5.150   2.157   5.138  0.8938 -0.0971  1.0185
   20MOL0     C 2618   5.006   2.156   5.159 -0.6688  1.1130 -0.2924
   20MOL0     C 2619   4.564   2.157   5.076  0.1270 -0.3158 -1.2424
   20MOL0     C 2620   4.488   2.240   5.160  0.6142  0.4872 -0.0943
   20MOL0     C 2621   4.372   2.185   5.213  0.6262  0.2202  0.1456
   20MOL0     C 2622   4.323   2.064   5.184 -0.1286  0.2046  0.2435
   20MOL0     O 2623   4.215   2.031   5.253 -0.4470  0.2891 -0.7344
   20MOL0     C 2624   4.157   1.900   5.220  0.5351 -0.7153 -0.0484
   20MOL0     C 2625   4.015   1.921   5.268  0.1934  0.2510 -0.6204
   20MOL0     C 2626   3.992   1.976   5.410  0.2142  0.3724  0.3346
   20MOL0     C 2627   4.083   1.924   5.523 -0.0493  1.0352 -0.0585
   20MOL0     C 2628   4.018   1.897   5.649  0.0949  0.1845 -0.0868
   20MOL0     C 2629   3.966   1.883   5.756 -0.0039 -0.5924 -0.5464
   20MOL0     C 2630   4.406   1.978   5.097  0.1430  0.0324 -0.1072
   20MOL0     C 2631   4.523   2.031   5.041 -0.1810  0.2685 -0.0596
   20MOL0     C 2632   4.589   1.946   4.927 -0.4161 -1.0763  0.5207
   20MOL0     H 2633   4.890   2.134   4.845 -0.7208  1.3330  0.3171
   20MOL0     H 2634   5.135   2.167   4.798  1.9833  0.4163  0.6709
   20MOL0     H 2635   5.465   2.004   4.987  2.2032  0.7853 -1.8656
   20MOL0     H 2636   5.304   1.977   4.918  1.2405 -1.0395  0.5465
   20MOL0     H 2637   5.412   2.167   4.751 -1.8833 -1.1606  1.2450
   20MOL0     H 2638   5.442   1.988   4.747 -0.7043  0.2267  0.1895
   20MOL0     H 2639   5.638   2.025   4.885  1.0541  0.6345 -1.3353
   20MOL0     H 2640   5.596   2.206   4.894 -0.6569 -0.9610  1.5121
   20MOL0     H 2641   5.694   2.019   4.670  1.1836  0.2713  0.4919
   20MOL0     H 2642   5.637   2.185   4.638  1.4139 -1.2977 -1.0566
   20MOL0     H 2643   5.878   2.179   4.631 -1.9573  2.6542 -1.8178
   20MOL0     H 2644   5.815   2.286   4.748  0.4223  0.1699 -1.0658
   20MOL0     H 2645   5.858   2.129   4.930  0.7780 -1.6084  1.1529
   20MOL0     H 2646   5.897   1.997   4.829  0.4941 -0.2755  3.0728
   20MOL0     H 2647   6.068   2.253   4.835  1.3055  0.0125 -0.7707
   20MOL0     H 2648   6.088   2.128   4.725 -2.5187  0.3411 -0.4349
   20MOL0     H 2649   6.069   2.090   5.022  0.7413  0.9187  1.1601
   20MOL0     H 2650   6.154   1.983   4.895  1.4205  1.2507 -1.9710
   20MOL0     H 2651   6.251   2.355   4.914  0.3563  0.9727  0.7623
   20MOL0     H 2652   6.494   2.471   4.899 -3.5603 -2.1057 -0.2313
   20MOL0     H 2653   6.547   2.445   5.072  0.1650  0.3684 -0.1971
   20MOL0     H 2654   6.708   2.287   4.998  1.3396 -0.7933 -1.1774
   20MOL0     H 2655   6.674   2.322   4.826  0.5105 -0.6697  0.1234
   20MOL0     H 2656   6.731   2.563   5.011 -0.4063  0.3368 -1.4637
   20MOL0     H 2657   6.752   2.529   4.843  3.5906  1.1031  0.4567
   20MOL0     H 2658   6.957   2.551   4.928 -0.5240  2.1593  3.4336
   20MOL0     H 2659   6.923   2.378   4.884 -0.4431 -1.0560  0.9023
   20MOL0     H 2660   7.064   2.237   4.994 -4.5708  0.4159  2.5051
   20MOL0     H 2661   7.323   2.206   5.042  0.7360 -0.6130  0.7861
   20MOL0     H 2662   7.543   2.016   5.328 -1.4867  3.4528  1.4867
   20MOL0     H 2663   7.754   1.923   5.409 -0.9664  0.6340 -0.6382
   20MOL0     H 2664   8.160   2.084   5.247  1.6443  2.8909 -0.1964
   20MOL0     H 2665   8.104   2.201   5.363  3.6022  0.1218  0.1170
   20MOL0     H 2666   8.308   2.100   5.446  0.4134  0.4046  1.6017
   20MOL0     H 2667   8.164   2.053   5.550  1.9295  1.2081 -0.4834
   20MOL0     H 2668   8.152   1.848   5.446  2.4246 -1.5313  1.4588
   20MOL0     H 2669   8.272   1.884   5.327  1.4370 -1.3528  0.3792
   20MOL0     H 2670   8.330   1.887   5.634  2.8551 -0.4403  1.2295
   20MOL0     H 2671   8.444   1.921   5.501 -0.3345  0.3205 -3.1715
   20MOL0     H 2672   8.437   1.695   5.418  0.6540 -1.3311 -0.8130
   20MOL0     H 2673   8.299   1.663   5.531 -0.9213  2.0132  0.4485
   20MOL0     H 2674   8.595   1.673   5.598  0.8430 -0.0988  2.2509
   20MOL0     H 2675   8.484   1.740   5.713 -3.0888 -1.2337  0.4300
   20MOL0     H 2676   8.459   1.469   5.589 -0.3702  2.4374 -2.7208
   20MOL0     H 2677   8.347   1.535   5.707 -0.1751  0.2763 -2.1511
   20MOL0     H 2678   8.511   1.559   5.872 -3.2333 -1.5683  0.8517
   20MOL0     H 2679   8.483   1.386   5.819 -1.4783  0.2194 -0.9745
   20MOL0     H 2680   7.972   2.235   5.185 -0.6106  1.2163 -0.0947
   20MOL0     H 2681   7.761   2.325   5.126 -1.1477 -0.5208 -1.8195
   20MOL0     H 2682   7.311   2.554   5.305  0.3548 -0.8052  0.7674
   20MOL0     H 2683   7.079   2.570   5.234  0.2062 -1.5019  1.0567
   20MOL0     H 2684   5.224   2.175   5.216  0.2105  1.5322  1.3353
   20MOL0     H 2685   4.972   2.153   5.262  1.4252  2.2711  0.5035
   20MOL0     H 2686   4.537   2.334   5.183  2.1101 -0.2182 -0.2517
   20MOL0     H 2687   4.323   2.237   5.295 -2.2393 -1.0063 -0.6377
   20MOL0     H 2688   4.202   1.812   5.267  0.0254 -0.2890  1.2759
   20MOL0     H 2689   4.146   1.876   5.114  1.2352 -3.2578  0.3704
   20MOL0     H 2690   3.955   1.830   5.261 -0.4947  0.5755  0.7356
   20MOL0     H 2691   3.975   1.990   5.194  1.4863 -1.7784 -3.4093
   20MOL0     H 2692   3.889   1.971   5.446  0.2077  0.0360  0.2796
   20MOL0     H 2693   4.007   2.082   5.389  0.5907 -0.0395 -1.6526
   20MOL0     H 2694   4.131   1.833   5.488  0.9268  1.7477 -0.5841
   20MOL0     H 2695   4.164   1.997   5.534  1.4771 -0.6759  0.4835
   20MOL0     H 2696   3.912   1.870   5.848  1.7935  0.0149  0.6460
   20MOL0     H 2697   4.373   1.878   5.069  0.2001 -0.5171  1.6481
   20MOL0     H 2698   4.688   1.905   4.949  0.5614 -0.5570 -2.5308
   20MOL0     H 2699   4.533   1.854   4.905 -1.5142 -0.4540  0.6564
   20MOL0     H 2700   4.607   2.002   4.835 -2.6051  0.1985  0.7919
   21MOL0     O 2701   5.105   3.681   0.353  0.1054 -0.4956  0.1276
   21MOL0     C 2702   5.124   3.586   0.436  0.1632  0.3928 -0.2329
   21MOL0     O 2703   5.054   3.472   0.437  0.1682 -0.6883 -0.4725
   21MOL0     C 2704   4.946   3.458   0.354 -0.6305 -0.1346 -0.2310
   21MOL0     C 2705   4.945   3.354   0.259 -0.6811 -0.1354  0.2167
   21MOL0     C 2706   4.840   3.345   0.170  0.6428 -0.2505  0.0496
   21MOL0     C 2707   4.731   3.428   0.173 -0.0665  0.5191 -0.3926
   21MOL0     O 2708   4.632   3.403   0.079 -0.0434 -0.5105  1.2965
   21MOL0     C 2709   4.498   3.438   0.107 -0.1257  0.6379 -0.1964
   21MOL0     C 2710   4.447   3.336   0.201 -0.7162 -0.4540  0.0072
   21MOL0     C 2711   4.305   3.368   0.234  0.3106 -1.0946 -0.4543
   21MOL0     C 2712   4.257   3.301   0.363 -0.2018 -0.8738 -0.0341
   21MOL0     C 2713   4.127   3.350   0.410  0.4385 -1.0372  0.2224
   21MOL0     C 2714   4.068   3.278   0.537  0.7498  0.1404  0.0033
   21MOL0     C 2715   3.913   3.299   0.537 -0.4139 -0.0522  0.3839
   21MOL0     C 2716   3.840   3.212   0.641  0.5296 -0.0421 -0.2841
   21MOL0     N 2717   3.864   3.273   0.770 -0.5061  0.6059 -0.5447
   21MOL0     C 2718   3.974   3.262   0.852  0.3867  0.3749 -0.2577
   21MOL0     C 2719   3.965   3.371   0.938 -0.6131  0.7689 -0.6086
   21MOL0     C 2720   4.060   3.409   1.056 -0.5632 -0.0667  0.4816
   21MOL0     C 2721   4.163   3.503   0.994 -0.7768  1.4194  0.0073
   21MOL0     C 2722   4.251   3.558   1.106 -0.3811  0.4890  0.0780
   21MOL0     C 2723   4.357   3.659   1.051  0.8928  0.1436  0.1308
   21MOL0     O 2724   4.433   3.697   1.172 -0.0121  0.1197  0.4623
   21MOL0     C 2725   4.519   3.795   1.148  0.6873 -1.0392  1.2316
   21MOL0     C 2726   4.649   3.785   1.082  0.2832 -0.5211  0.9225
   21MOL0     C 2727   4.725   3.897   1.066 -0.3608  0.3199  0.5435
   21MOL0     C 2728   4.685   4.023   1.124 -0.3377  0.5940  0.4291
   21MOL0     C 2729   4.766   4.153   1.103 -0.3904 -0.3272 -0.2071
   21MOL0     O 2730   4.719   4.262   1.162  0.5953  0.1708 -0.0917
   21MOL0     C 2731   4.796   4.375   1.167  1.0742 -0.0568  0.6846
   21MOL0     C 2732   4.849   4.438   1.052  0.4558 -0.5754  0.4536
   21MOL0     C 2733   4.913   4.564   1.061 -0.8130  0.1154  0.6438
   21MOL0     C 2734   4.910   4.635   1.185  0.9153  0.0907 -0.7623
   21MOL0     O 2735   4.971   4.758   1.209 -1.0950  0.5548 -0.2035
   21MOL0     C 2736   5.010   4.836   1.096  0.1325  0.1745  0.1834
   21MOL0     C 2737   5.058   4.983   1.137  0.2480 -0.3833  0.2454
   21MOL0     C 2738   5.096   5.070   1.011 -0.4961 -0.0268  0.5213
   21MOL0     C 2739   5.133   5.210   1.057 -0.2346  0.2436 -0.0309
   21MOL0     C 2740   5.194   5.293   0.945 -0.0560 -0.1494 -0.2479
   21MOL0     C 2741   5.351   5.282   0.944 -0.6114  0.3131 -0.1129
   21MOL0     C 2742   5.421   5.378   0.842  0.1660 -1.2948 -0.0099
   21MOL0     C 2743   5.570   5.356   0.858  0.1037  0.3473  1.3087
   21MOL0    Cl 2744   5.649   5.435   0.718  0.2715 -0.1589  0.1260
   21MOL0     C 2745   4.830   4.585   1.293 -0.6991  0.1824  0.3006
   21MOL0     C 2746   4.778   4.456   1.276 -0.1538  0.7690 -0.5494
   21MOL0     O 2747   4.871   4.147   1.040 -0.8627 -0.2001  0.5010
   21MOL0     C 2748   4.570   4.020   1.206 -0.4278 -0.0652 -0.3818
   21MOL0     C 2749   4.483   3.913   1.213  0.3502  0.5672 -0.5401
   21MOL0     N 2750   3.850   3.437   0.916 -0.5706  0.2460 -0.4634
   21MOL0     N 2751   3.791   3.384   0.811  0.1038 -0.1709  0.2404
   21MOL0     C 2752   4.727   3.536   0.269 -1.2245 -0.0813  0.0067
   21MOL0     C 2753   4.836   3.549   0.362 -0.4537  0.0889  0.2173
   21MOL0     C 2754   5.229   3.606   0.540 -0.2192  0.2570  0.4632
   21MOL0     C 2755   5.236   3.509   0.642  0.6201 -0.5645 -0.9679
   21MOL0     C 2756   5.340   3.508   0.733 -0.4920 -0.0132  0.9053
   21MOL0     C 2757   5.444   3.602   0.721 -0.7161 -0.0936  0.0544
   21MOL0     O 2758   5.556   3.616   0.804 -0.6199 -0.2420 -0.0233
   21MOL0     C 2759   5.639   3.496   0.836 -0.3564 -0.5727  0.5416
   21MOL0     C 2760   5.698   3.525   0.977 -0.0599  0.4300  0.6378
   21MOL0     C 2761   5.775   3.403   1.042 -0.2009 -0.2024  0.4029
   21MOL0     C 2762   5.799   3.437   1.192  0.4383  0.4428 -0.2162
   21MOL0     C 2763   5.906   3.535   1.202  0.3578 -0.4046  0.5324
   21MOL0     C 2764   6.002   3.606   1.199 -0.9349  0.6252  0.1257
   21MOL0     C 2765   5.441   3.697   0.621 -0.6837 -0.3480  0.2907
   21MOL0     C 2766   5.336   3.699   0.527  0.4864 -0.1294  0.4116
   21MOL0     C 2767   5.362   3.787   0.399  0.8197 -0.2720 -0.1539
   21MOL0     H 2768   5.029   3.285   0.259 -0.7441 -0.2851  2.3267
   21MOL0     H 2769   4.837   3.257   0.106 -2.9044 -0.1592 -0.1382
   21MOL0     H 2770   4.493   3.538   0.151  3.8610  1.6387 -1.6109
   21MOL0     H 2771   4.442   3.439   0.013  0.2391  1.6235 -0.4187
   21MOL0     H 2772   4.502   3.338   0.295 -0.0202  1.1775 -0.4023
   21MOL0     H 2773   4.464   3.236   0.161  3.7427 -0.5642  1.6400
   21MOL0     H 2774   4.245   3.335   0.148 -3.2021  0.3814  1.2715
   21MOL0     H 2775   4.297   3.477   0.234 -0.0890 -1.1183 -0.9090
   21MOL0     H 2776   4.253   3.192   0.350 -2.4983 -1.3114  3.3001
   21MOL0     H 2777   4.335   3.315   0.438 -1.4195 -0.9684  1.2729
   21MOL0     H 2778   4.139   3.457   0.430  3.1776 -1.0467 -0.9153
   21MOL0     H 2779   4.055   3.347   0.328  0.7952  2.3126 -0.3395
   21MOL0     H 2780   4.099   3.174   0.522 -2.9990 -0.8931 -1.6833
   21MOL0     H 2781   4.110   3.306   0.635 -1.0056  1.5729  0.3961
   21MOL0     H 2782   3.859   3.281   0.444 -2.6276 -0.4930  1.6758
   21MOL0     H 2783   3.889   3.403   0.562  2.8281  0.6665  0.9514
   21MOL0     H 2784   3.736   3.222   0.610  0.9690  1.4083 -1.4398
   21MOL0     H 2785   3.875   3.109   0.629  2.4945  0.8629 -3.7924
   21MOL0     H 2786   4.061   3.197   0.851 -1.5601 -2.4062 -1.2903
   21MOL0     H 2787   4.008   3.468   1.134  2.5862  2.3921  0.9240
   21MOL0     H 2788   4.098   3.315   1.097  2.2817 -0.0584 -1.8856
   21MOL0     H 2789   4.216   3.433   0.928  1.5144  1.0730  2.0896
   21MOL0     H 2790   4.115   3.585   0.940 -2.7722 -0.6100 -1.5190
   21MOL0     H 2791   4.290   3.480   1.172 -0.2996  0.6154  0.1805
   21MOL0     H 2792   4.188   3.623   1.168  0.0778  2.8059 -1.7214
   21MOL0     H 2793   4.303   3.739   1.000 -0.6964  0.4376  2.1437
   21MOL0     H 2794   4.426   3.609   0.982 -1.0339 -1.5057 -0.7078
   21MOL0     H 2795   4.685   3.693   1.038  0.3696 -0.2621  0.4452
   21MOL0     H 2796   4.809   3.873   1.002 -2.9315 -0.6269 -2.7682
   21MOL0     H 2797   4.825   4.396   0.955 -4.5780  3.2361 -0.3268
   21MOL0     H 2798   4.979   4.591   0.979 -1.6711 -1.7264 -0.7454
   21MOL0     H 2799   5.099   4.785   1.059 -0.0491  0.2670 -0.3799
   21MOL0     H 2800   4.937   4.855   1.018  1.8698 -0.8186 -1.7789
   21MOL0     H 2801   4.978   5.031   1.194  0.0446 -0.9522  0.4483
   21MOL0     H 2802   5.143   4.968   1.204  0.8264  0.4532 -0.2959
   21MOL0     H 2803   5.185   5.027   0.963 -1.1627 -2.3985  1.2679
   21MOL0     H 2804   5.023   5.066   0.930 -0.2665  0.4668  0.2826
   21MOL0     H 2805   5.200   5.204   1.143 -1.0065  1.1424  0.6489
   21MOL0     H 2806   5.042   5.255   1.097  1.5149  1.7760  2.5348
   21MOL0     H 2807   5.174   5.399   0.964  0.6859  0.0929 -0.7932
   21MOL0     H 2808   5.153   5.263   0.849 -0.1879  0.7106 -0.4671
   21MOL0     H 2809   5.390   5.297   1.044  4.7327 -6.2001 -0.4949
   21MOL0     H 2810   5.375   5.178   0.919 -2.1220 -0.3456  1.0594
   21MOL0     H 2811   5.404   5.485   0.860 -1.8103 -1.7168  0.8941
   21MOL0     H 2812   5.387   5.352   0.741  0.3720  3.0462 -1.4073
   21MOL0     H 2813   5.603   5.391   0.956  1.4533  2.7950  0.0686
   21MOL0     H 2814   5.588   5.249   0.853 -0.4391  0.2628  1.0507
   21MOL0     H 2815   4.821   4.647   1.381 -3.0199  1.5813 -0.8226
   21MOL0     H 2816   4.715   4.415   1.354  0.7867  0.1667 -0.0857
   21MOL0     H 2817   4.541   4.107   1.264 -0.7151 -0.9325  0.8276
   21MOL0     H 2818   4.387   3.902   1.263  1.2001 -0.8370  0.8758
   21MOL0     H 2819   4.644   3.605   0.277 -3.8555 -2.6029 -2.5846
   21MOL0     H 2820   4.823   3.634   0.429 -1.3722  1.4083 -1.5733
   21MOL0     H 2821   5.152   3.443   0.661 -0.2556  0.4710 -1.1889
   21MOL0     H 2822   5.335   3.433   0.811 -2.2392 -0.3031  0.5666
   21MOL0     H 2823   5.720   3.490   0.762  0.4245 -5.1805  1.4838
   21MOL0     H 2824   5.583   3.402   0.831 -0.8101 -0.2606 -0.6376
   21MOL0     H 2825   5.625   3.566   1.047 -0.1432  0.2461  0.6603
   21MOL0     H 2826   5.770   3.607   0.967  1.5248 -0.5059  3.3194
   21MOL0     H 2827   5.872   3.408   0.990  0.1218 -0.5232  0.9749
   21MOL0     H 2828   5.732   3.303   1.032 -2.0867  0.6758 -0.9022
   21MOL0     H 2829   5.713   3.465   1.253  0.6737  1.6836 -0.4375
   21MOL0     H 2830   5.833   3.351   1.250  1.3410  1.5549  0.9550
   21MOL0     H 2831   6.077   3.682   1.206 -1.0980  0.7882  0.1154
   21MOL0     H 2832   5.531   3.757   0.609 -1.5917  1.4651  1.9706
   21MOL0     H 2833   5.273   3.850   0.388  1.5544  0.6729 -0.7380
   21MOL0     H 2834   5.446   3.857   0.405  0.7618 -0.2883  1.7533
   21MOL0     H 2835   5.381   3.726   0.311 -0.2487  1.0819 -1.3679
   22MOL0     O 2836   5.540   9.477   7.876 -0.6601 -0.4088 -0.2418
   22MOL0     C 2837   5.550   9.430   7.984  0.0398 -0.3189 -0.8959
   22MOL0     O 2838   5.675   9.385   8.036  0.8297  0.9310  0.2501
   22MOL0     C 2839   5.794   9.448   8.014  0.6254  0.1252 -1.6943
   22MOL0     C 2840   5.909   9.381   8.034  0.1236 -0.7409 -0.1537
   22MOL0     C 2841   6.032   9.435   7.998  0.2616 -0.0516  0.5743
   22MOL0     C 2842   6.037   9.570   7.949  0.3508 -0.5933  0.5607
   22MOL0     O 2843   6.152   9.640   7.917 -0.0051 -0.2320 -0.7065
   22MOL0     C 2844   6.284   9.576   7.928  0.2091 -0.3549  0.5947
   22MOL0     C 2845   6.388   9.685   7.895 -0.1998 -0.7623 -0.2495
   22MOL0     C 2846   6.527   9.633   7.908 -0.4145 -0.3125  0.6775
   22MOL0     C 2847   6.572   9.539   7.790  0.2851  0.9763  0.1085
   22MOL0     C 2848   6.719   9.515   7.784 -0.1642 -0.3991 -0.5317
   22MOL0     C 2849   6.781   9.615   7.683 -0.1281  0.7828  0.6303
   22MOL0     C 2850   6.939   9.629   7.700 -0.2367 -0.8401 -0.0146
   22MOL0     C 2851   7.020   9.488   7.678  0.3734  0.1397 -0.4844
   22MOL0     N 2852   7.151   9.529   7.635 -0.2846  0.1717 -0.4048
   22MOL0     C 2853   7.183   9.579   7.509 -0.0199 -0.1240 -0.1351
   22MOL0     C 2854   7.321   9.594   7.515 -0.0531  1.0832 -0.1587
   22MOL0     C 2855   7.399   9.616   7.393 -0.2951  0.1886 -0.9333
   22MOL0     C 2856   7.481   9.497   7.340 -0.9249 -0.2823  0.0894
   22MOL0     C 2857   7.597   9.552   7.242  0.9457 -0.6021 -0.3403
   22MOL0     C 2858   7.648   9.446   7.144 -0.5243 -0.8400  0.1752
   22MOL0     O 2859   7.717   9.345   7.217 -0.4302  0.4450  0.0225
   22MOL0     C 2860   7.826   9.297   7.164  0.7391 -0.2200  0.5642
   22MOL0     C 2861   7.848   9.284   7.025 -0.1815  0.0268 -1.5443
   22MOL0     C 2862   7.973   9.235   6.981 -0.7895 -0.5984  0.4416
   22MOL0     C 2863   8.082   9.219   7.073  0.5601 -0.1322  0.0562
   22MOL0     C 2864   8.220   9.184   7.030  0.5613  0.3991 -0.0128
   22MOL0     O 2865   8.299   9.141   7.137  0.1662  0.5211 -0.0625
   22MOL0     C 2866   8.433   9.145   7.109  0.4061 -1.0134 -0.5491
   22MOL0     C 2867   8.518   9.255   7.138 -0.5012  0.0602  0.8740
   22MOL0     C 2868   8.654   9.241   7.098 -0.8342 -1.1390 -0.2641
   22MOL0     C 2869   8.711   9.119   7.054  0.3285 -0.3651  0.0357
   22MOL0     O 2870   8.843   9.089   7.039  0.1964 -0.4225  0.3912
   22MOL0     C 2871   8.936   9.196   7.017  1.0465  0.4783  0.2132
   22MOL0     C 2872   9.070   9.148   6.985 -0.0684  0.6286  0.7211
   22MOL0     C 2873   9.133   9.247   6.892 -0.6182 -0.2694 -0.0435
   22MOL0     C 2874   9.270   9.186   6.863 -0.4922  0.1349  0.0999
   22MOL0     C 2875   9.370   9.272   6.789 -0.3047  0.0139  0.0978
   22MOL0     C 2876   9.512   9.204   6.819 -1.6622  0.1586  0.4303
   22MOL0     C 2877   9.638   9.257   6.750 -0.0728 -0.2045  0.5674
   22MOL0     C 2878   9.636   9.237   6.594 -0.7455  0.1979  1.0287
   22MOL0    Cl 2879   9.796   9.279   6.544 -0.1250  0.1149  0.0715
   22MOL0     C 2880   8.623   9.016   7.029 -0.0729 -0.6069  0.0902
   22MOL0     C 2881   8.484   9.027   7.053  1.1681 -0.4869  0.1795
   22MOL0     O 2882   8.247   9.208   6.918  0.4408  0.0819 -0.3467
   22MOL0     C 2883   8.053   9.229   7.209 -1.1437  1.1812 -0.0076
   22MOL0     C 2884   7.921   9.273   7.255 -0.3869  0.4158 -1.0528
   22MOL0     N 2885   7.363   9.578   7.644  0.1304  0.4750 -0.4755
   22MOL0     N 2886   7.262   9.542   7.712  0.8728  0.3528 -0.6449
   22MOL0     C 2887   5.917   9.641   7.928  0.1984  0.2970  0.0284
   22MOL0     C 2888   5.800   9.583   7.968  0.3811  0.3308 -0.5437
   22MOL0     C 2889   5.430   9.410   8.074 -0.3896 -0.0161  0.3737
   22MOL0     C 2890   5.446   9.390   8.213 -0.3493 -0.3583 -0.3019
   22MOL0     C 2891   5.338   9.366   8.286  0.0998 -0.1472 -0.2881
   22MOL0     C 2892   5.211   9.357   8.238 -0.1583 -0.0982 -0.0329
   22MOL0     O 2893   5.114   9.336   8.333  0.6767 -0.5581  0.3661
   22MOL0     C 2894   4.972   9.332   8.284 -0.2936 -0.4764 -0.2896
   22MOL0     C 2895   4.888   9.281   8.396  0.2944  0.2364  0.3520
   22MOL0     C 2896   4.926   9.349   8.531 -0.3433  0.0643  0.5045
   22MOL0     C 2897   4.796   9.427   8.577 -0.1743  0.7200  0.2753
   22MOL0     C 2898   4.761   9.539   8.490  0.9475 -0.2983  0.7355
   22MOL0     C 2899   4.713   9.633   8.426 -0.6246  0.6656 -0.4680
   22MOL0     C 2900   5.188   9.374   8.103  0.0729 -0.0978  0.2359
   22MOL0     C 2901   5.301   9.392   8.020  0.1822  0.4309  0.0555
   22MOL0     C 2902   5.265   9.399   7.872 -0.3667 -0.0094  0.1249
   22MOL0     H 2903   5.912   9.285   8.085  1.7544 -1.0444 -0.7627
   22MOL0     H 2904   6.115   9.372   8.029  0.5038  0.8054  1.7229
   22MOL0     H 2905   6.290   9.541   8.032 -2.1999 -2.3721  0.1525
   22MOL0     H 2906   6.283   9.498   7.851  1.4303 -2.2533  2.3658
   22MOL0     H 2907   6.382   9.754   7.980 -0.5885 -0.3300 -0.6258
   22MOL0     H 2908   6.363   9.739   7.803 -2.2587  2.1351  1.8215
   22MOL0     H 2909   6.542   9.577   8.001  1.7951 -2.1085 -0.6348
   22MOL0     H 2910   6.593   9.719   7.920 -1.0465  0.4649 -1.0996
   22MOL0     H 2911   6.522   9.443   7.805  1.0001  0.7695  1.3484
   22MOL0     H 2912   6.542   9.583   7.694 -0.1194  0.6427  0.0795
   22MOL0     H 2913   6.763   9.539   7.881 -1.1369 -0.1518 -0.1410
   22MOL0     H 2914   6.739   9.411   7.756 -1.2353 -1.0088  0.8845
   22MOL0     H 2915   6.775   9.568   7.584  0.6140 -1.2713  1.5116
   22MOL0     H 2916   6.725   9.710   7.685 -1.8622 -0.2001  2.4161
   22MOL0     H 2917   6.962   9.678   7.795  0.9781 -1.1424 -0.1396
   22MOL0     H 2918   6.979   9.699   7.627 -0.8926 -2.8644 -2.4682
   22MOL0     H 2919   7.019   9.423   7.766  1.8489 -0.1706 -0.6803
   22MOL0     H 2920   6.969   9.453   7.588 -1.0279  2.0334 -0.4938
   22MOL0     H 2921   7.120   9.573   7.421 -0.4778  1.6271  0.0484
   22MOL0     H 2922   7.332   9.652   7.314 -1.2775 -1.3558 -0.8374
   22MOL0     H 2923   7.465   9.701   7.413 -0.8325  0.7240 -1.3944
   22MOL0     H 2924   7.525   9.448   7.428 -0.1203  0.2687  0.0034
   22MOL0     H 2925   7.424   9.428   7.277  0.6099 -1.5561  0.0228
   22MOL0     H 2926   7.684   9.584   7.300  0.3133 -1.0321  0.8981
   22MOL0     H 2927   7.550   9.637   7.192  1.4982  0.4093  0.7947
   22MOL0     H 2928   7.716   9.489   7.069 -1.0940  0.2450  0.2620
   22MOL0     H 2929   7.561   9.413   7.088  0.5585 -0.1190 -2.0474
   22MOL0     H 2930   7.772   9.303   6.950  1.1220  0.7504 -2.7171
   22MOL0     H 2931   7.990   9.226   6.874 -2.3139  0.1711  0.0973
   22MOL0     H 2932   8.474   9.345   7.179  2.6901  1.1131  2.3445
   22MOL0     H 2933   8.729   9.320   7.107  1.3641 -3.2937  1.9459
   22MOL0     H 2934   8.884   9.258   6.944 -1.2204  1.3572  2.4199
   22MOL0     H 2935   8.944   9.248   7.113  0.9666 -2.6640  2.0322
   22MOL0     H 2936   9.126   9.141   7.079 -0.0433 -1.6312  0.6087
   22MOL0     H 2937   9.062   9.050   6.937 -0.1498  0.2837  1.4195
   22MOL0     H 2938   9.075   9.258   6.800 -0.5609 -1.2873 -0.2201
   22MOL0     H 2939   9.144   9.338   6.952 -1.1797  0.1934 -0.6266
   22MOL0     H 2940   9.262   9.095   6.802  0.5023  0.6571 -0.8564
   22MOL0     H 2941   9.317   9.159   6.958  0.0393  1.0797  0.1214
   22MOL0     H 2942   9.371   9.369   6.839 -1.8443 -0.9018  2.0300
   22MOL0     H 2943   9.347   9.278   6.682  1.9674  0.4918 -0.4168
   22MOL0     H 2944   9.538   9.212   6.925  0.7423 -0.4179 -0.0484
   22MOL0     H 2945   9.498   9.101   6.785  0.1700  0.2845 -0.8849
   22MOL0     H 2946   9.731   9.212   6.788  0.2848  0.3762  0.3893
   22MOL0     H 2947   9.644   9.364   6.771 -2.2147 -0.1053  0.8260
   22MOL0     H 2948   9.609   9.135   6.564 -1.0691 -0.4336  3.2698
   22MOL0     H 2949   9.552   9.298   6.562 -0.2398  0.5395  0.3291
   22MOL0     H 2950   8.659   8.921   6.993  6.5680  0.8255  1.6787
   22MOL0     H 2951   8.414   8.951   7.020  0.7320 -0.5242  1.1664
   22MOL0     H 2952   8.126   9.187   7.277 -2.1137  1.0251  0.9668
   22MOL0     H 2953   7.905   9.282   7.361  0.6104  0.0240 -0.8524
   22MOL0     H 2954   5.928   9.737   7.877 -2.5923 -0.3237 -1.9829
   22MOL0     H 2955   5.706   9.622   7.931 -1.0792 -0.2829  2.2799
   22MOL0     H 2956   5.545   9.387   8.257 -1.1630 -2.3103  1.5735
   22MOL0     H 2957   5.359   9.352   8.391 -3.8024  0.0428  0.6779
   22MOL0     H 2958   4.970   9.266   8.197 -1.4494 -0.4770 -0.2771
   22MOL0     H 2959   4.947   9.437   8.263  0.7809 -0.3516 -1.0559
   22MOL0     H 2960   4.909   9.173   8.398 -0.1860  0.0743 -1.6486
   22MOL0     H 2961   4.783   9.293   8.369  0.3908  0.3799  0.0402
   22MOL0     H 2962   5.013   9.416   8.536 -1.1209  1.2389 -0.7765
   22MOL0     H 2963   4.939   9.273   8.608 -0.5396  0.9851  1.4722
   22MOL0     H 2964   4.713   9.356   8.571 -0.2238  0.8055 -0.0698
   22MOL0     H 2965   4.811   9.466   8.678  1.5586  2.4565 -0.5632
   22MOL0     H 2966   4.691   9.713   8.358 -0.0545 -1.0447 -2.8060
   22MOL0     H 2967   5.089   9.383   8.060  0.5994 -1.5145 -1.3787
   22MOL0     H 2968   5.166   9.357   7.855 -1.0614  1.7950 -0.6062
   22MOL0     H 2969   5.253   9.506   7.851 -1.4011  0.0255  0.8484
   22MOL0     H 2970   5.329   9.346   7.801 -2.7896  0.1198 -2.3375
   23MOL0     O 2971   8.226   8.085   7.525 -0.4131  0.7826  0.6526
   23MOL0     C 2972   8.208   8.203   7.514 -0.6553  0.2190  0.3037
   23MOL0     O 2973   8.297   8.296   7.557 -0.1475 -0.3702  0.2501
   23MOL0     C 2974   8.400   8.244   7.621 -0.4558  0.3003 -0.8024
   23MOL0     C 2975   8.495   8.164   7.550  1.1655 -0.1651 -0.2904
   23MOL0     C 2976   8.615   8.125   7.605  0.2144 -0.4894  0.4553
   23MOL0     C 2977   8.650   8.173   7.731  0.7821 -1.3187  0.0804
   23MOL0     O 2978   8.761   8.145   7.813 -0.3049 -0.3586  0.9084
   23MOL0     C 2979   8.865   8.077   7.735  0.5850 -0.4817 -0.0197
   23MOL0     C 2980   8.982   8.076   7.831 -0.2473  0.2635  0.5942
   23MOL0     C 2981   9.107   8.032   7.750  1.0787 -0.2222  1.2635
   23MOL0     C 2982   9.214   8.014   7.847 -0.7426 -0.0997  0.4786
   23MOL0     C 2983   9.341   7.961   7.773 -0.3730 -0.4502  0.1338
   23MOL0     C 2984   9.403   8.062   7.674 -0.2030 -0.3474  0.0915
   23MOL0     C 2985   9.545   8.006   7.624 -0.2275  0.7698 -0.1233
   23MOL0     C 2986   9.602   8.104   7.527 -0.2066  0.5155 -0.3661
   23MOL0     N 2987   9.749   8.118   7.550  0.4363  0.0656  0.3594
   23MOL0     C 2988   9.816   8.132   7.673  0.4094 -0.2277  0.3494
   23MOL0     C 2989   9.944   8.125   7.643 -0.8228  0.7124  0.1045
   23MOL0     C 2990  10.059   8.157   7.742  0.1286  0.6318  0.1826
   23MOL0     C 2991  10.067   8.314   7.756  0.8821  0.7411  0.8902
   23MOL0     C 2992  10.100   8.380   7.619  0.0718 -0.0294  0.2146
   23MOL0     C 2993  10.133   8.527   7.652  0.3908 -0.1085  0.0193
   23MOL0     O 2994  10.261   8.530   7.716  0.0293 -0.4432  0.1823
   23MOL0     C 2995  10.361   8.525   7.629  0.0792  0.1281  0.8942
   23MOL0     C 2996  10.381   8.632   7.546 -0.1862 -0.2253  0.5696
   23MOL0     C 2997  10.472   8.621   7.441  0.2294  0.1875  0.1073
   23MOL0     C 2998  10.557   8.514   7.435  0.2047 -0.3969  0.2905
   23MOL0     C 2999  10.664   8.510   7.339 -0.2264 -0.6148  0.1850
   23MOL0     O 3000  10.724   8.629   7.301 -0.0285  0.4995 -0.1914
   23MOL0     C 3001  10.816   8.627   7.202  0.6328 -0.0215 -0.3585
   23MOL0     C 3002  10.811   8.542   7.093  0.0793 -0.5015 -0.4801
   23MOL0     C 3003  10.913   8.535   7.004 -0.6176  0.7484  0.4579
   23MOL0     C 3004  11.030   8.605   7.023 -1.6280 -0.4138  0.2197
   23MOL0     O 3005  11.124   8.600   6.921 -0.3810  0.6242  0.3799
   23MOL0     C 3006  11.261   8.606   6.971 -0.1668 -0.3290  0.2301
   23MOL0     C 3007  11.341   8.530   6.869 -0.0954  1.0062  1.0383
   23MOL0     C 3008  11.486   8.536   6.912 -0.1946 -0.9261  0.0788
   23MOL0     C 3009  11.527   8.508   7.052  0.0532  0.2960 -0.9934
   23MOL0     C 3010  11.677   8.485   7.079  0.0947  0.2992  0.3345
   23MOL0     C 3011  11.702   8.451   7.230  0.5271 -0.3160  0.4503
   23MOL0     C 3012  11.850   8.431   7.261 -0.8740 -0.2114  0.0686
   23MOL0     C 3013  11.886   8.442   7.413  0.5120 -0.6423  0.6030
   23MOL0    Cl 3014  12.054   8.424   7.429 -0.5411 -0.3739 -0.1400
   23MOL0     C 3015  11.028   8.709   7.123 -0.4226  0.7940  0.2625
   23MOL0     C 3016  10.924   8.712   7.214  0.1352 -0.1948 -1.1979
   23MOL0     O 3017  10.694   8.401   7.296 -0.0394 -0.3400 -0.0096
   23MOL0     C 3018  10.529   8.398   7.516  0.3084 -0.3955 -0.3728
   23MOL0     C 3019  10.439   8.411   7.625  0.6474  0.1137  0.6983
   23MOL0     N 3020   9.953   8.099   7.501 -0.4680 -0.6466  0.5395
   23MOL0     N 3021   9.835   8.099   7.447  0.5995  0.4779 -0.3932
   23MOL0     C 3022   8.556   8.254   7.803  0.0997  0.2629  0.5391
   23MOL0     C 3023   8.446   8.304   7.735 -0.7999  0.6914  0.6226
   23MOL0     C 3024   8.121   8.261   7.400 -0.1632  0.3869 -0.0545
   23MOL0     C 3025   8.178   8.356   7.313 -0.2012 -0.3822  0.2820
   23MOL0     C 3026   8.111   8.429   7.216  0.1382  0.2607  0.9380
   23MOL0     C 3027   7.971   8.406   7.197  0.5254 -0.5199 -0.3245
   23MOL0     O 3028   7.895   8.487   7.114 -0.2570 -0.1019 -0.2111
   23MOL0     C 3029   7.967   8.571   7.024 -0.1746  0.0660  0.5047
   23MOL0     C 3030   7.877   8.624   6.924  0.8321 -0.2266 -0.3940
   23MOL0     C 3031   7.927   8.726   6.828 -0.3722 -0.5696  0.3325
   23MOL0     C 3032   7.983   8.856   6.896  0.7791 -0.2566 -0.2372
   23MOL0     C 3033   8.021   8.942   6.785 -0.7238 -0.5394  0.4061
   23MOL0     C 3034   8.058   9.007   6.690  0.3193  0.0723  0.3602
   23MOL0     C 3035   7.914   8.308   7.284 -0.4097 -0.2561 -0.1196
   23MOL0     C 3036   7.985   8.235   7.384 -0.7679 -0.4139  0.5186
   23MOL0     C 3037   7.918   8.125   7.452  0.5823  0.7988 -0.4254
   23MOL0     H 3038   8.466   8.111   7.460  0.2609 -0.5702  0.2182
   23MOL0     H 3039   8.673   8.050   7.554  0.9976 -0.5747  1.4359
   23MOL0     H 3040   8.847   7.974   7.704  2.8242 -0.3625 -1.9769
   23MOL0     H 3041   8.895   8.139   7.650 -0.0457  0.6694  0.5805
   23MOL0     H 3042   8.973   8.010   7.919  3.8690  2.8385  3.2965
   23MOL0     H 3043   9.005   8.175   7.871  0.7617  0.2991 -0.0653
   23MOL0     H 3044   9.130   8.086   7.657 -0.1585 -0.1795  0.9595
   23MOL0     H 3045   9.077   7.934   7.710  2.9388 -0.5981  0.7081
   23MOL0     H 3046   9.236   8.098   7.914 -0.1768 -0.0269  0.2035
   23MOL0     H 3047   9.182   7.937   7.918 -0.3387  0.7937  1.6663
   23MOL0     H 3048   9.417   7.936   7.847 -1.0222  2.3354  1.8706
   23MOL0     H 3049   9.314   7.867   7.723 -2.8493  0.7082 -0.9338
   23MOL0     H 3050   9.351   8.092   7.583  4.3486  2.6529 -1.8618
   23MOL0     H 3051   9.420   8.155   7.728  1.0940  1.2927 -2.9302
   23MOL0     H 3052   9.518   7.911   7.576  0.1768  0.6490 -0.1199
   23MOL0     H 3053   9.605   7.982   7.712 -0.0743  0.0573 -0.4087
   23MOL0     H 3054   9.577   8.083   7.422  3.6242  1.4021 -1.6083
   23MOL0     H 3055   9.566   8.206   7.540  3.7214  1.9467  0.8969
   23MOL0     H 3056   9.779   8.140   7.774  2.2184 -1.3669  1.1695
   23MOL0     H 3057  10.030   8.123   7.842  0.5337 -2.0989 -0.5571
   23MOL0     H 3058  10.157   8.116   7.717 -0.1244 -1.8711  2.8587
   23MOL0     H 3059   9.966   8.341   7.788 -0.3035 -2.4580  0.2404
   23MOL0     H 3060  10.139   8.343   7.832  0.0422 -0.0901  2.0399
   23MOL0     H 3061  10.009   8.381   7.560 -1.5369 -0.5512  2.5580
   23MOL0     H 3062  10.182   8.338   7.560 -0.0402  0.9288 -0.6500
   23MOL0     H 3063  10.060   8.571   7.720 -0.8253  1.6720 -2.3125
   23MOL0     H 3064  10.134   8.591   7.564  2.5004  3.2558  2.2840
   23MOL0     H 3065  10.308   8.710   7.562 -1.5385 -1.0736 -1.1473
   23MOL0     H 3066  10.488   8.711   7.383  2.0502 -0.6216 -0.7477
   23MOL0     H 3067  10.720   8.484   7.077  0.9043 -2.0948  0.2942
   23MOL0     H 3068  10.903   8.471   6.917  2.2906 -0.7191  1.0599
   23MOL0     H 3069  11.294   8.710   6.976 -1.5143  0.0627  1.7231
   23MOL0     H 3070  11.272   8.543   7.060  2.6125 -0.2274  0.0491
   23MOL0     H 3071  11.317   8.424   6.860 -1.3763  1.2277  1.5497
   23MOL0     H 3072  11.339   8.580   6.772  1.6341  0.4405  0.6861
   23MOL0     H 3073  11.543   8.475   6.840  1.8179  2.4487 -1.4624
   23MOL0     H 3074  11.529   8.633   6.885  0.1846 -1.0899  0.0729
   23MOL0     H 3075  11.481   8.414   7.082 -0.2540  0.5779 -0.5546
   23MOL0     H 3076  11.488   8.583   7.122  0.1792  1.3458 -2.0158
   23MOL0     H 3077  11.716   8.583   7.050 -1.5303  1.1785  0.9325
   23MOL0     H 3078  11.728   8.409   7.019  0.1564  1.1045 -0.6574
   23MOL0     H 3079  11.666   8.536   7.289  0.1989  0.0425 -0.2592
   23MOL0     H 3080  11.635   8.373   7.269 -1.0597  0.6281 -0.2803
   23MOL0     H 3081  11.906   8.517   7.223 -1.4743  1.0397  1.8989
   23MOL0     H 3082  11.892   8.337   7.224  0.4928  0.3784  0.0793
   23MOL0     H 3083  11.857   8.540   7.452  0.5745 -1.0271  1.6664
   23MOL0     H 3084  11.848   8.362   7.478  2.6889 -0.7079  1.9150
   23MOL0     H 3085  11.113   8.775   7.139  0.2592  0.2112 -0.8763
   23MOL0     H 3086  10.919   8.788   7.292  1.0763 -3.3022  2.1750
   23MOL0     H 3087  10.591   8.311   7.503  1.0379  0.2538 -1.4648
   23MOL0     H 3088  10.429   8.326   7.691  0.7623  0.1954  0.8222
   23MOL0     H 3089   8.580   8.285   7.904  0.0160 -0.9580  0.9564
   23MOL0     H 3090   8.395   8.391   7.774 -0.6837  0.4137  1.3981
   23MOL0     H 3091   8.285   8.369   7.323 -0.2420  0.3857 -0.1756
   23MOL0     H 3092   8.170   8.496   7.155  2.6873 -0.7334  2.1492
   23MOL0     H 3093   8.051   8.514   6.983 -0.2398 -3.1681  4.3454
   23MOL0     H 3094   7.998   8.660   7.079  0.4360  0.3183 -0.2217
   23MOL0     H 3095   7.784   8.656   6.972  0.8490 -2.6746  1.4260
   23MOL0     H 3096   7.852   8.536   6.864  0.9491 -2.1669  2.2333
   23MOL0     H 3097   7.846   8.758   6.762  1.3399  0.4993 -1.3446
   23MOL0     H 3098   7.990   8.671   6.757 -2.8607  0.4730 -2.9408
   23MOL0     H 3099   7.904   8.905   6.952  0.5012 -0.5612 -0.3611
   23MOL0     H 3100   8.058   8.842   6.975 -2.2473 -2.1532  2.5672
   23MOL0     H 3101   8.087   9.038   6.591  0.5907  1.1483  0.7615
   23MOL0     H 3102   7.810   8.279   7.269 -0.4933 -0.1772  0.2789
   23MOL0     H 3103   7.937   8.037   7.390  0.4772  1.3669 -1.2920
   23MOL0     H 3104   7.942   8.119   7.559 -1.4879 -2.0010 -0.0056
   23MOL0     H 3105   7.812   8.150   7.447 -0.0277 -1.2611  0.8990
   24MOL0     O 3106   8.750   8.338   2.080  1.1271 -0.2606 -0.0586
   24MOL0     C 3107   8.729   8.394   1.973  0.5063 -0.1760  0.0363
   24MOL0     O 3108   8.827   8.428   1.882  0.8660 -0.6778  1.2053
   24MOL0     C 3109   8.960   8.414   1.916  0.5076  0.5190  0.2032
   24MOL0     C 3110   9.047   8.390   1.806 -0.0606  0.5939  0.1922
   24MOL0     C 3111   9.189   8.389   1.823  0.6293  0.0953 -0.4952
   24MOL0     C 3112   9.239   8.420   1.947 -0.0267 -0.1187 -0.6262
   24MOL0     O 3113   9.375   8.430   1.962  0.3028 -0.4684  0.3762
   24MOL0     C 3114   9.444   8.310   2.013  0.6302 -0.1503  0.7311
   24MOL0     C 3115   9.592   8.336   2.019  0.2227 -0.0843  0.4245
   24MOL0     C 3116   9.671   8.235   2.114  0.0824  0.3427  0.2005
   24MOL0     C 3117   9.793   8.300   2.164  0.4467 -0.7157  0.7265
   24MOL0     C 3118   9.885   8.206   2.235  0.2758  0.7054 -0.1421
   24MOL0     C 3119  10.006   8.286   2.304 -0.5406 -0.1250  0.6370
   24MOL0     C 3120  10.109   8.196   2.367  0.1328 -0.4948 -0.9198
   24MOL0     C 3121  10.236   8.281   2.400 -1.0307 -0.1996 -0.5323
   24MOL0     N 3122  10.341   8.191   2.453 -0.5182  0.3852 -1.1991
   24MOL0     C 3123  10.410   8.100   2.379 -0.0004  0.4217 -0.5755
   24MOL0     C 3124  10.480   8.030   2.468 -1.0097 -0.0038 -0.6182
   24MOL0     C 3125  10.587   7.935   2.448  0.3329 -1.0564 -0.1322
   24MOL0     C 3126  10.719   8.004   2.475  0.1013 -0.5001  0.8361
   24MOL0     C 3127  10.841   7.908   2.495 -0.0421 -0.4410 -0.4311
   24MOL0     C 3128  10.867   7.807   2.379 -0.0246  0.4496 -0.3811
   24MOL0     O 3129  10.891   7.895   2.260 -0.4347  0.2894  0.1120
   24MOL0     C 3130  11.024   7.927   2.227  0.0528 -0.8026  0.5765
   24MOL0     C 3131  11.037   8.053   2.172 -0.0516  0.4036 -0.4359
   24MOL0     C 3132  11.154   8.104   2.116  0.8275 -0.0792 -0.1745
   24MOL0     C 3133  11.259   8.028   2.134  1.3213 -0.7333 -0.0094
   24MOL0     C 3134  11.391   8.067   2.071  0.2093 -1.5285 -1.0898
   24MOL0     O 3135  11.410   8.200   2.048 -0.1110  0.3325 -0.7827
   24MOL0     C 3136  11.537   8.253   2.066  0.0563 -0.5548  0.2164
   24MOL0     C 3137  11.633   8.248   1.970 -0.3445  1.4368 -1.9545
   24MOL0     C 3138  11.760   8.301   2.005  0.4365  0.0255 -0.2026
   24MOL0     C 3139  11.790   8.365   2.124  0.0548  0.6557 -0.8428
   24MOL0     O 3140  11.912   8.424   2.147  0.1795  0.0950  0.1377
   24MOL0     C 3141  11.900   8.565   2.196  0.3324 -0.5655  0.0397
   24MOL0     C 3142  12.043   8.636   2.233 -0.1997  0.6476 -0.5999
   24MOL0     C 3143  12.143   8.608   2.123 -0.9312  0.4381  0.5806
   24MOL0     C 3144  12.273   8.687   2.149 -0.3753 -0.5747  0.4352
   24MOL0     C 3145  12.389   8.648   2.055 -0.0984 -0.2699  0.9425
   24MOL0     C 3146  12.361   8.694   1.911  0.4136  0.0085  1.2172
   24MOL0     C 3147  12.435   8.603   1.805 -0.4659  0.7348 -0.0738
   24MOL0     C 3148  12.372   8.625   1.660 -0.1117 -0.4621 -0.0589
   24MOL0    Cl 3149  12.215   8.554   1.649  0.0951  0.4047 -0.1141
   24MOL0     C 3150  11.689   8.377   2.216  0.0003  0.1907  0.9270
   24MOL0     C 3151  11.564   8.319   2.185  0.2139  0.9938 -0.0867
   24MOL0     O 3152  11.469   7.983   2.033 -0.2292  0.6641 -0.5987
   24MOL0     C 3153  11.251   7.906   2.202 -0.2470 -0.2464  0.3925
   24MOL0     C 3154  11.131   7.852   2.234  0.1069  0.5955  0.0868
   24MOL0     N 3155  10.456   8.083   2.591 -0.5998  1.0059 -0.2136
   24MOL0     N 3156  10.373   8.186   2.586 -0.9220  0.9004 -0.1002
   24MOL0     C 3157   9.155   8.456   2.057 -0.0923 -0.2669 -0.1412
   24MOL0     C 3158   9.016   8.453   2.038 -0.0458  0.6748 -0.7079
   24MOL0     C 3159   8.587   8.395   1.923  0.7095  0.6917 -0.5236
   24MOL0     C 3160   8.566   8.387   1.784  0.2681 -1.4814  0.2842
   24MOL0     C 3161   8.439   8.373   1.722 -0.1157  0.9425  0.2226
   24MOL0     C 3162   8.327   8.353   1.803  0.1163 -0.1177  0.0395
   24MOL0     O 3163   8.208   8.339   1.735  1.4266 -0.1954  0.0601
   24MOL0     C 3164   8.080   8.339   1.790  0.3571 -0.2998  1.0394
   24MOL0     C 3165   8.010   8.461   1.749  0.3285 -0.0832  0.8017
   24MOL0     C 3166   8.063   8.581   1.838 -0.4529 -0.7876  0.3522
   24MOL0     C 3167   8.026   8.725   1.793  0.4151 -0.3069  0.5757
   24MOL0     C 3168   8.113   8.766   1.684 -0.0607  0.0919  0.6494
   24MOL0     C 3169   8.186   8.803   1.593  1.1543  0.7566 -0.1168
   24MOL0     C 3170   8.343   8.371   1.946 -0.2119 -0.5241  0.4609
   24MOL0     C 3171   8.470   8.390   2.007  0.0266  0.3080 -0.2142
   24MOL0     C 3172   8.475   8.414   2.163  0.0272  0.0826  0.2272
   24MOL0     H 3173   8.996   8.379   1.711  1.9379 -0.8379 -0.7735
   24MOL0     H 3174   9.255   8.370   1.738  1.2063 -0.0864 -0.0132
   24MOL0     H 3175   9.400   8.280   2.109 -0.8574 -0.2886  0.0325
   24MOL0     H 3176   9.434   8.226   1.943  1.9304 -1.3758  1.9479
   24MOL0     H 3177   9.607   8.439   2.053 -2.0343  1.5896 -3.1711
   24MOL0     H 3178   9.633   8.331   1.918  1.4460  0.8602  0.8401
   24MOL0     H 3179   9.701   8.151   2.051  0.1772  1.5834 -1.4787
   24MOL0     H 3180   9.616   8.210   2.205 -0.7617  1.9900  0.1861
   24MOL0     H 3181   9.845   8.351   2.083 -0.6930 -1.2060 -0.3398
   24MOL0     H 3182   9.752   8.374   2.234  0.0782  0.1220 -0.3477
   24MOL0     H 3183   9.828   8.154   2.312  1.2885  0.0428  0.1770
   24MOL0     H 3184   9.923   8.137   2.159  2.2534  2.0637 -0.4807
   24MOL0     H 3185  10.055   8.331   2.217 -0.3599 -0.3895  0.6016
   24MOL0     H 3186   9.980   8.359   2.381 -0.0225  1.9741 -1.0749
   24MOL0     H 3187  10.129   8.100   2.320  1.6716 -1.1627  0.9450
   24MOL0     H 3188  10.062   8.160   2.460 -2.4857  2.0360 -1.1004
   24MOL0     H 3189  10.280   8.331   2.313 -1.0334 -0.6870 -0.8168
   24MOL0     H 3190  10.204   8.364   2.463  0.4614  1.0732 -1.3927
   24MOL0     H 3191  10.429   8.101   2.272 -1.7760 -2.0270 -1.0068
   24MOL0     H 3192  10.583   7.853   2.521 -1.5183 -0.6834  0.2275
   24MOL0     H 3193  10.596   7.909   2.342  0.8041  2.1688 -0.9795
   24MOL0     H 3194  10.736   8.069   2.388 -3.4710  1.2812  1.2875
   24MOL0     H 3195  10.707   8.072   2.559 -2.2746  0.2437 -0.0082
   24MOL0     H 3196  10.836   7.862   2.594  3.1269  0.6730  0.3747
   24MOL0     H 3197  10.929   7.972   2.508 -1.4715  2.0503 -2.1843
   24MOL0     H 3198  10.784   7.737   2.364  0.1080  0.2637 -0.2473
   24MOL0     H 3199  10.949   7.741   2.409  0.7834  1.6879  0.1942
   24MOL0     H 3200  10.950   8.117   2.166  0.0739  0.4770 -1.5144
   24MOL0     H 3201  11.146   8.204   2.076  0.7087 -0.1674 -0.3725
   24MOL0     H 3202  11.596   8.200   1.880 -0.8470  0.2441 -1.1425
   24MOL0     H 3203  11.827   8.298   1.920 -0.3990  1.1782 -0.9351
   24MOL0     H 3204  11.863   8.634   2.119  5.3010  1.8837 -0.5700
   24MOL0     H 3205  11.840   8.577   2.287 -1.6472  0.2304 -1.2986
   24MOL0     H 3206  12.033   8.744   2.245 -0.2348  0.3775  2.8163
   24MOL0     H 3207  12.081   8.611   2.333  2.5021 -0.2337 -1.7794
   24MOL0     H 3208  12.155   8.499   2.124 -0.7300  0.3877 -1.6238
   24MOL0     H 3209  12.093   8.634   2.029  0.6064 -0.9879 -0.7137
   24MOL0     H 3210  12.310   8.670   2.251  2.5743  1.8741 -0.0690
   24MOL0     H 3211  12.247   8.792   2.133 -0.6032 -0.9333 -1.7083
   24MOL0     H 3212  12.404   8.539   2.062 -2.4968 -0.6011  1.6544
   24MOL0     H 3213  12.484   8.695   2.081  1.0435 -1.2469 -1.1453
   24MOL0     H 3214  12.254   8.703   1.890  0.3213 -2.8969 -0.0416
   24MOL0     H 3215  12.403   8.792   1.890  1.4040 -0.5043  0.7178
   24MOL0     H 3216  12.439   8.498   1.835  0.6394  0.8615  0.2542
   24MOL0     H 3217  12.539   8.636   1.800  0.6631 -1.5459  4.0196
   24MOL0     H 3218  12.362   8.732   1.639  2.3436 -0.5054 -1.9384
   24MOL0     H 3219  12.430   8.589   1.575 -1.2295 -1.3751 -0.4731
   24MOL0     H 3220  11.681   8.436   2.307 -0.1857 -1.2474  1.8768
   24MOL0     H 3221  11.481   8.328   2.255  0.0773  0.3901 -0.1677
   24MOL0     H 3222  11.334   7.838   2.216 -1.9161 -2.8279 -1.4166
   24MOL0     H 3223  11.118   7.751   2.271 -1.1596  1.6208  2.6607
   24MOL0     H 3224   9.192   8.502   2.149  1.0122 -2.0256  0.3311
   24MOL0     H 3225   8.955   8.498   2.116 -2.6198  0.4078 -2.4214
   24MOL0     H 3226   8.649   8.400   1.716 -0.5994  4.3014 -0.2472
   24MOL0     H 3227   8.425   8.361   1.615 -2.0162 -1.2983  0.6368
   24MOL0     H 3228   8.067   8.335   1.898 -3.4335 -0.2196  0.7285
   24MOL0     H 3229   8.031   8.247   1.755 -1.7697  0.2926  2.2658
   24MOL0     H 3230   7.906   8.439   1.773  0.3801 -2.7703 -1.0758
   24MOL0     H 3231   8.016   8.479   1.642  1.3025 -0.5967  0.7596
   24MOL0     H 3232   8.172   8.580   1.845 -0.3449 -0.5381 -1.0048
   24MOL0     H 3233   8.008   8.571   1.932 -3.0610 -0.4289 -1.0359
   24MOL0     H 3234   7.922   8.744   1.766  0.7748  1.0887  0.0924
   24MOL0     H 3235   8.047   8.787   1.881  2.2751 -0.1303  0.0511
   24MOL0     H 3236   8.236   8.832   1.503 -0.7803 -0.6049 -1.7183
   24MOL0     H 3237   8.255   8.380   2.010 -0.7716  0.1854 -0.3873
   24MOL0     H 3238   8.529   8.335   2.216  2.6336  1.7409  0.2165
   24MOL0     H 3239   8.518   8.513   2.183  0.8668 -0.7005  2.7256
   24MOL0     H 3240   8.373   8.420   2.201  0.1433  0.9539  0.4418
   25MOL0     O 3241   3.938   1.537   2.797  0.9359  0.1440  0.0094
   25MOL0     C 3242   3.863   1.483   2.712 -0.2443 -0.3263  0.0532
   25MOL0     O 3243   3.725   1.488   2.709  0.4018  0.3537 -0.0849
   25MOL0     C 3244   3.649   1.511   2.819 -0.6436  0.6635 -0.5061
   25MOL0     C 3245   3.666   1.622   2.907 -0.4066 -0.2954 -0.3050
   25MOL0     C 3246   3.578   1.647   3.018  0.0271  0.3353 -0.1072
   25MOL0     C 3247   3.482   1.542   3.051 -0.1721 -0.8527  0.0467
   25MOL0     O 3248   3.386   1.550   3.147 -0.2518  0.2555  0.3928
   25MOL0     C 3249   3.403   1.654   3.253  1.0058  1.2659 -0.2766
   25MOL0     C 3250   3.298   1.641   3.359  0.0947 -0.3863 -1.0988
   25MOL0     C 3251   3.335   1.721   3.490  0.1048  0.1274  0.9288
   25MOL0     C 3252   3.338   1.872   3.465 -0.1609  0.4031 -0.1756
   25MOL0     C 3253   3.337   1.944   3.600  0.4777 -0.6650  0.0646
   25MOL0     C 3254   3.465   1.940   3.685 -0.0154  0.0931 -0.0277
   25MOL0     C 3255   3.471   2.059   3.781  0.4406  0.3958  0.1625
   25MOL0     C 3256   3.569   2.040   3.900 -0.8195 -0.7876  0.5032
   25MOL0     N 3257   3.717   2.049   3.884 -0.4925  0.3836  0.0948
   25MOL0     C 3258   3.805   1.960   3.939  0.0413  0.2904  0.3653
   25MOL0     C 3259   3.922   2.006   3.887 -0.1026  0.3503 -0.3114
   25MOL0     C 3260   4.060   1.947   3.908 -0.7747 -0.7744  0.8173
   25MOL0     C 3261   4.069   1.827   3.817 -0.3811  0.9400 -0.1445
   25MOL0     C 3262   4.088   1.878   3.663  0.0467  0.8324  0.6442
   25MOL0     C 3263   4.135   1.755   3.586  1.1799 -0.1594 -0.2380
   25MOL0     O 3264   4.267   1.720   3.619 -0.3993  0.2413  0.2925
   25MOL0     C 3265   4.380   1.784   3.570 -0.4406 -0.8657 -0.4671
   25MOL0     C 3266   4.406   1.824   3.437 -0.4389 -1.0256  0.8964
   25MOL0     C 3267   4.526   1.878   3.407  0.3827  0.3380 -0.0029
   25MOL0     C 3268   4.637   1.879   3.495 -0.0199  0.1852  0.1990
   25MOL0     C 3269   4.773   1.932   3.461  0.5348  0.0074  0.0219
   25MOL0     O 3270   4.860   1.960   3.568 -1.2698  0.4065  0.1752
   25MOL0     C 3271   4.989   1.992   3.565 -0.2762  0.2394  0.3300
   25MOL0     C 3272   5.069   1.966   3.456 -0.8169 -0.0343 -0.6598
   25MOL0     C 3273   5.206   2.006   3.454 -0.1300 -0.2698  0.4979
   25MOL0     C 3274   5.267   2.081   3.555  0.0520 -0.1607 -1.6978
   25MOL0     O 3275   5.398   2.127   3.564  0.6924  0.0446 -0.1057
   25MOL0     C 3276   5.457   2.175   3.446  0.2427  0.3371  0.5388
   25MOL0     C 3277   5.597   2.107   3.423  0.1453 -0.3152  0.2326
   25MOL0     C 3278   5.674   2.163   3.307  0.0719  0.2438  0.7228
   25MOL0     C 3279   5.822   2.141   3.338 -0.1746 -0.3053  0.4094
   25MOL0     C 3280   5.910   2.190   3.221 -0.0781  0.4613 -0.2830
   25MOL0     C 3281   5.915   2.088   3.111 -0.2402  0.5098  0.0705
   25MOL0     C 3282   6.021   2.124   3.004 -0.5337  0.7967 -0.1985
   25MOL0     C 3283   6.019   2.033   2.873 -0.1173  0.5982 -0.0412
   25MOL0    Cl 3284   6.132   2.101   2.749  0.1708 -0.5022  0.1813
   25MOL0     C 3285   5.186   2.096   3.666  0.1297 -0.4672 -0.5554
   25MOL0     C 3286   5.044   2.065   3.679  0.0916 -0.5822 -0.1661
   25MOL0     O 3287   4.799   1.934   3.342 -1.1694  0.1698 -0.7451
   25MOL0     C 3288   4.612   1.828   3.621  0.1285 -0.1450  0.4578
   25MOL0     C 3289   4.481   1.795   3.663  0.8483 -0.4651  0.1472
   25MOL0     N 3290   3.900   2.123   3.812  0.2030 -0.7489 -1.1455
   25MOL0     N 3291   3.777   2.140   3.803 -0.2869  0.4389 -0.8315
   25MOL0     C 3292   3.485   1.427   2.973 -0.9705  0.3194 -0.6500
   25MOL0     C 3293   3.560   1.411   2.855 -0.5590  0.1489  0.1646
   25MOL0     C 3294   3.929   1.417   2.600 -0.5952  0.4919  0.3713
   25MOL0     C 3295   3.874   1.423   2.476  0.2615  0.3196  0.8264
   25MOL0     C 3296   3.938   1.371   2.359 -0.5170  0.0663 -0.0827
   25MOL0     C 3297   4.056   1.298   2.368  0.0481 -0.3417 -0.5505
   25MOL0     O 3298   4.083   1.216   2.260  0.4076  0.5184  0.2523
   25MOL0     C 3299   4.222   1.217   2.204  0.2124 -0.4741  0.6189
   25MOL0     C 3300   4.235   1.315   2.085 -0.1180  1.0061  0.3482
   25MOL0     C 3301   4.357   1.265   2.003 -0.5466  0.2434  0.3504
   25MOL0     C 3302   4.313   1.150   1.905 -0.0890 -0.4580  0.5975
   25MOL0     C 3303   4.212   1.203   1.811  0.4796 -0.1318 -0.0508
   25MOL0     C 3304   4.142   1.256   1.730  0.0197 -0.3819 -0.9219
   25MOL0     C 3305   4.114   1.267   2.497  0.9203  0.1599  0.2144
   25MOL0     C 3306   4.051   1.337   2.608  0.1268  1.1700  0.1566
   25MOL0     C 3307   4.109   1.304   2.744 -0.0545  0.6749 -0.1024
   25MOL0     H 3308   3.748   1.690   2.885  1.9244 -2.4922  1.0219
   25MOL0     H 3309   3.589   1.737   3.077  1.1062  3.6322 -4.7472
   25MOL0     H 3310   3.488   1.626   3.316 -1.4019 -1.9717  1.8672
   25MOL0     H 3311   3.405   1.753   3.206 -2.0672  1.2853 -0.5788
   25MOL0     H 3312   3.277   1.537   3.388 -1.5554  0.1562 -0.2078
   25MOL0     H 3313   3.202   1.679   3.323  1.6993  1.2686 -4.0382
   25MOL0     H 3314   3.434   1.691   3.525  0.2313  0.3606  0.7729
   25MOL0     H 3315   3.264   1.706   3.572  0.4632  1.6568  1.5607
   25MOL0     H 3316   3.428   1.892   3.408  0.7566  1.0758  1.4421
   25MOL0     H 3317   3.253   1.899   3.402  0.7446  1.5412 -0.9334
   25MOL0     H 3318   3.317   2.050   3.581  1.3545 -0.2550  1.3358
   25MOL0     H 3319   3.255   1.902   3.659 -0.1637  1.9273  1.1265
   25MOL0     H 3320   3.460   1.850   3.747  0.3226  0.5707  0.7103
   25MOL0     H 3321   3.554   1.939   3.622 -1.4646  0.1946 -2.1932
   25MOL0     H 3322   3.371   2.085   3.817  0.1692  0.4153 -0.5933
   25MOL0     H 3323   3.498   2.145   3.720 -2.2600  1.0160 -0.3239
   25MOL0     H 3324   3.538   2.130   3.955 -2.8057 -2.0765  1.5771
   25MOL0     H 3325   3.552   1.952   3.962 -1.7371  0.5948  2.3026
   25MOL0     H 3326   3.794   1.875   4.005  3.4071 -0.1603  0.5137
   25MOL0     H 3327   4.133   2.023   3.881 -1.3943 -0.5381 -0.2327
   25MOL0     H 3328   4.079   1.924   4.014 -0.8080  3.4300  1.8931
   25MOL0     H 3329   4.159   1.767   3.834  0.0768  1.4618 -0.6515
   25MOL0     H 3330   3.982   1.761   3.827 -0.7243  1.6140  1.7642
   25MOL0     H 3331   4.161   1.959   3.651  0.0357  0.5690 -1.8046
   25MOL0     H 3332   3.995   1.905   3.612  0.4850 -0.9839 -1.2689
   25MOL0     H 3333   4.132   1.785   3.481 -1.9605  0.3908 -0.0966
   25MOL0     H 3334   4.064   1.673   3.598  1.2300 -0.0269  1.0573
   25MOL0     H 3335   4.330   1.825   3.359 -0.2855  2.7193  0.6071
   25MOL0     H 3336   4.534   1.914   3.305  0.4035 -1.8104 -0.8079
   25MOL0     H 3337   5.042   1.903   3.371  4.0552 -0.8600 -1.8780
   25MOL0     H 3338   5.274   1.964   3.381  2.7840  2.8671  1.1483
   25MOL0     H 3339   5.399   2.175   3.353  2.7793 -1.4669 -1.1777
   25MOL0     H 3340   5.488   2.278   3.460 -0.0852  0.6787 -0.9739
   25MOL0     H 3341   5.661   2.117   3.512  1.0364  3.0315 -0.6435
   25MOL0     H 3342   5.577   2.001   3.407 -0.8341 -0.2139  0.6956
   25MOL0     H 3343   5.650   2.104   3.218  1.7019  2.0620 -1.0100
   25MOL0     H 3344   5.642   2.267   3.298 -1.2295 -0.1542  0.5828
   25MOL0     H 3345   5.834   2.033   3.356 -3.2463 -0.5085  1.8357
   25MOL0     H 3346   5.839   2.204   3.425 -3.4157  2.5618 -0.8475
   25MOL0     H 3347   6.012   2.211   3.256 -0.7410  0.8112  1.5293
   25MOL0     H 3348   5.870   2.282   3.177 -2.0716 -0.2405 -0.0162
   25MOL0     H 3349   5.953   1.999   3.162  5.0580  3.1188  1.4262
   25MOL0     H 3350   5.820   2.071   3.060 -0.9642  1.0206  1.2091
   25MOL0     H 3351   6.121   2.096   3.040 -0.6454 -4.1525 -2.7531
   25MOL0     H 3352   6.018   2.228   2.971  1.6910  1.0456  0.2444
   25MOL0     H 3353   6.055   1.933   2.899  2.7486  1.0085 -1.9429
   25MOL0     H 3354   5.920   2.027   2.827  0.3504 -0.5886 -0.9270
   25MOL0     H 3355   5.243   2.154   3.738 -0.0692  2.9469 -2.9197
   25MOL0     H 3356   4.978   2.087   3.762 -1.1594  2.6383 -1.8226
   25MOL0     H 3357   4.686   1.806   3.697  2.5720  1.5779 -1.2817
   25MOL0     H 3358   4.467   1.759   3.764  0.0477  0.3297  0.3254
   25MOL0     H 3359   3.417   1.354   3.016 -0.0372 -0.5590 -0.6215
   25MOL0     H 3360   3.550   1.329   2.784  0.4090  0.6613 -0.5740
   25MOL0     H 3361   3.773   1.460   2.467 -0.8388 -2.8638 -2.5426
   25MOL0     H 3362   3.891   1.400   2.265 -0.8905 -1.0472 -0.2484
   25MOL0     H 3363   4.261   1.120   2.172  0.3032 -0.8266  1.7766
   25MOL0     H 3364   4.286   1.251   2.285  0.6295 -0.7917  0.4254
   25MOL0     H 3365   4.256   1.417   2.120  2.8115  2.2659 -4.1501
   25MOL0     H 3366   4.141   1.319   2.030  1.4658  0.9783 -2.5816
   25MOL0     H 3367   4.431   1.217   2.068 -1.9237 -2.7341 -0.1091
   25MOL0     H 3368   4.401   1.348   1.948  2.8667 -0.3481  1.9434
   25MOL0     H 3369   4.403   1.127   1.847  0.4799  0.3585  1.1408
   25MOL0     H 3370   4.271   1.068   1.963  0.3019 -0.0567  1.4670
   25MOL0     H 3371   4.092   1.298   1.646 -1.8718 -1.9655 -0.6708
   25MOL0     H 3372   4.185   1.186   2.510 -2.5909 -3.0384  1.2322
   25MOL0     H 3373   4.033   1.268   2.813 -0.0178  2.3018  0.8184
   25MOL0     H 3374   4.196   1.238   2.733  0.6985  1.7656 -0.8956
   25MOL0     H 3375   4.160   1.394   2.777  1.8715 -0.2879 -0.2916
   26MOL0     O 3376   8.053  11.355   8.993 -0.0333 -0.4454 -0.7087
   26MOL0     C 3377   8.036  11.351   9.118 -0.0891 -0.5296  0.3789
   26MOL0     O 3378   7.925  11.291   9.180  0.2433  0.2841  0.2617
   26MOL0     C 3379   7.807  11.312   9.109 -0.2850 -0.6757 -0.3616
   26MOL0     C 3380   7.721  11.214   9.098  0.5805  0.7602 -0.5319
   26MOL0     C 3381   7.599  11.239   9.034 -0.2241 -0.1429 -0.9038
   26MOL0     C 3382   7.560  11.363   8.989  0.6134  0.3987 -0.6905
   26MOL0     O 3383   7.435  11.388   8.934  0.5753  0.7170  0.3901
   26MOL0     C 3384   7.334  11.390   9.043  0.4788  0.4480  0.3619
   26MOL0     C 3385   7.331  11.526   9.111  0.4667 -0.1626  0.0046
   26MOL0     C 3386   7.279  11.629   9.013  0.2459 -0.2874  0.3762
   26MOL0     C 3387   7.231  11.763   9.094 -0.3269  0.0599 -0.3509
   26MOL0     C 3388   7.217  11.895   9.006  0.3870  0.4991 -0.2640
   26MOL0     C 3389   7.233  12.015   9.099  0.5742  0.3620 -0.2425
   26MOL0     C 3390   7.385  12.039   9.132 -0.4090 -0.3742  0.4117
   26MOL0     C 3391   7.392  12.170   9.214  0.0344  0.3435  0.7249
   26MOL0     N 3392   7.360  12.281   9.124  0.1209 -0.5020  0.2832
   26MOL0     C 3393   7.245  12.348   9.135  0.6175  0.2437  0.0970
   26MOL0     C 3394   7.237  12.434   9.030 -0.3094 -1.2926  0.4475
   26MOL0     C 3395   7.133  12.534   8.977 -0.1132  0.9387  0.4441
   26MOL0     C 3396   7.060  12.467   8.859 -0.6451  0.1230 -0.0037
   26MOL0     C 3397   6.955  12.560   8.817  0.7825 -0.0641 -0.1176
   26MOL0     C 3398   6.870  12.504   8.709  1.0085 -0.8290  0.1932
   26MOL0     O 3399   6.808  12.622   8.648  0.1134  0.0064  0.3903
   26MOL0     C 3400   6.683  12.604   8.589  0.5404  0.5882 -0.4573
   26MOL0     C 3401   6.624  12.483   8.575 -0.5080  0.4919 -0.1177
   26MOL0     C 3402   6.501  12.457   8.504  1.0337 -0.1624 -0.8408
   26MOL0     C 3403   6.431  12.569   8.451  1.1497 -0.0216  0.0908
   26MOL0     C 3404   6.294  12.545   8.406  0.2450 -0.8272  0.7046
   26MOL0     O 3405   6.242  12.653   8.362  0.9245  0.0784  0.6124
   26MOL0     C 3406   6.103  12.665   8.332  0.3981 -0.3686  0.2375
   26MOL0     C 3407   6.041  12.760   8.412 -0.8576 -0.1564  0.2062
   26MOL0     C 3408   5.903  12.788   8.399  0.4209 -0.4642  1.1826
   26MOL0     C 3409   5.826  12.735   8.285 -0.4542  0.0393  0.0186
   26MOL0     O 3410   5.697  12.771   8.256 -0.0107 -0.3258 -0.9690
   26MOL0     C 3411   5.694  12.851   8.142  0.4497 -1.2982  0.9319
   26MOL0     C 3412   5.707  12.997   8.168 -0.4188 -1.1937  0.4304
   26MOL0     C 3413   5.848  13.050   8.150  0.1493 -0.4405  0.5306
   26MOL0     C 3414   5.858  13.194   8.095  0.3037  0.2508  0.2688
   26MOL0     C 3415   5.962  13.279   8.152  0.3802  0.6442 -0.5890
   26MOL0     C 3416   6.101  13.256   8.092  0.2778 -0.8149 -0.5414
   26MOL0     C 3417   6.218  13.325   8.158 -0.6010 -0.2122  0.4358
   26MOL0     C 3418   6.355  13.303   8.082  0.6450  0.3489  0.2645
   26MOL0    Cl 3419   6.375  13.428   7.952 -0.0850 -0.2400  0.5105
   26MOL0     C 3420   5.898  12.641   8.205  0.3274 -0.7968  0.4351
   26MOL0     C 3421   6.030  12.599   8.234  0.4880 -0.7437  0.5333
   26MOL0     O 3422   6.247  12.436   8.395 -0.9276 -0.2734 -0.6328
   26MOL0     C 3423   6.496  12.692   8.459  0.2036 -0.2111 -0.6086
   26MOL0     C 3424   6.617  12.713   8.530  0.3568 -0.0085  0.4354
   26MOL0     N 3425   7.362  12.417   8.964  0.1498  0.4718  0.1795
   26MOL0     N 3426   7.433  12.323   9.017 -0.0855  0.3445 -0.3061
   26MOL0     C 3427   7.651  11.471   9.000 -0.4179  0.1891 -0.3678
   26MOL0     C 3428   7.777  11.442   9.066 -0.3611 -0.1333 -0.0040
   26MOL0     C 3429   8.119  11.430   9.200 -0.6330  1.1413  0.1692
   26MOL0     C 3430   8.057  11.479   9.310 -0.1174 -0.0673  0.7926
   26MOL0     C 3431   8.119  11.571   9.396  0.4294 -0.0226  0.6364
   26MOL0     C 3432   8.257  11.601   9.377  0.1793 -0.8757 -0.1895
   26MOL0     O 3433   8.323  11.682   9.469  0.4829  0.0221 -0.3496
   26MOL0     C 3434   8.427  11.772   9.432  0.6463  0.5088 -0.5104
   26MOL0     C 3435   8.568  11.708   9.462  0.2242 -0.3426 -0.0839
   26MOL0     C 3436   8.588  11.682   9.608 -0.2717  0.0581  0.4741
   26MOL0     C 3437   8.729  11.638   9.650  0.2928 -0.5923  0.8433
   26MOL0     C 3438   8.827  11.745   9.621 -0.0895 -0.6472  0.6805
   26MOL0     C 3439   8.904  11.839   9.615 -0.7687 -0.7226 -0.2123
   26MOL0     C 3440   8.325  11.542   9.268 -0.0076  0.3468 -0.3907
   26MOL0     C 3441   8.256  11.463   9.175  0.2564  0.1898  0.5454
   26MOL0     C 3442   8.336  11.407   9.056  0.0913  0.4153  0.0356
   26MOL0     H 3443   7.751  11.117   9.136  3.3021  1.2264 -1.2248
   26MOL0     H 3444   7.534  11.152   9.031 -1.6902  0.5854  3.0216
   26MOL0     H 3445   7.238  11.364   8.998 -0.7744  0.8275  2.6255
   26MOL0     H 3446   7.345  11.316   9.123  0.8292 -1.7536 -1.5954
   26MOL0     H 3447   7.423  11.554   9.164  0.9434  0.2195 -1.0040
   26MOL0     H 3448   7.248  11.528   9.183 -0.5014  3.3758 -1.0097
   26MOL0     H 3449   7.204  11.589   8.944  0.0766  0.9593 -0.1915
   26MOL0     H 3450   7.366  11.659   8.955 -0.5990 -0.4595 -1.0179
   26MOL0     H 3451   7.136  11.724   9.133  0.4135 -1.4056  0.0752
   26MOL0     H 3452   7.301  11.783   9.175 -0.2933 -0.5596 -0.2232
   26MOL0     H 3453   7.289  11.890   8.924 -0.0276  1.2399 -0.6872
   26MOL0     H 3454   7.123  11.885   8.951  2.0929  0.3984 -3.3638
   26MOL0     H 3455   7.190  12.104   9.054 -0.0492 -0.2110 -0.8021
   26MOL0     H 3456   7.185  11.979   9.191 -1.2189 -0.6360 -1.5113
   26MOL0     H 3457   7.438  12.054   9.038 -0.7139  2.0311  0.5472
   26MOL0     H 3458   7.435  11.951   9.173  1.4129 -0.8234 -2.4986
   26MOL0     H 3459   7.325  12.155   9.300  0.5692  0.0814  1.1043
   26MOL0     H 3460   7.488  12.177   9.266 -0.0181 -2.5677  1.3654
   26MOL0     H 3461   7.174  12.329   9.215 -0.0205  0.5363 -0.3897
   26MOL0     H 3462   7.068  12.560   9.061 -1.3260  0.0314 -0.1834
   26MOL0     H 3463   7.183  12.624   8.940 -1.5651  1.5638 -0.0885
   26MOL0     H 3464   7.128  12.452   8.774  1.1849  1.1606  1.2130
   26MOL0     H 3465   7.016  12.370   8.882 -1.3439  0.2406 -0.7873
   26MOL0     H 3466   7.011  12.638   8.764 -1.8673  1.8208 -0.3430
   26MOL0     H 3467   6.903  12.607   8.901  5.1862  4.2662  0.6511
   26MOL0     H 3468   6.798  12.437   8.757 -0.0617  0.4098  0.3968
   26MOL0     H 3469   6.920  12.448   8.630 -2.4551  1.6989 -4.3432
   26MOL0     H 3470   6.665  12.386   8.603 -1.0589 -0.8538 -3.5105
   26MOL0     H 3471   6.473  12.354   8.489 -1.6161  0.7342 -2.9444
   26MOL0     H 3472   6.091  12.813   8.493 -0.4342  0.5413 -0.5008
   26MOL0     H 3473   5.850  12.855   8.465 -1.2884 -1.7052  1.1454
   26MOL0     H 3474   5.763  12.825   8.060 -1.4628 -0.7443 -0.9277
   26MOL0     H 3475   5.598  12.842   8.091 -0.1382 -1.1210  1.9934
   26MOL0     H 3476   5.637  13.058   8.109 -2.8377 -2.5860  1.7155
   26MOL0     H 3477   5.664  13.020   8.266 -0.9247  2.6311 -0.5298
   26MOL0     H 3478   5.882  13.049   8.253  0.9057  1.0491  0.3196
   26MOL0     H 3479   5.902  12.983   8.082 -2.6450 -0.5359 -1.8245
   26MOL0     H 3480   5.770  13.257   8.111  0.6026  0.2633  1.9917
   26MOL0     H 3481   5.879  13.189   7.987  1.9881 -0.9175  0.6165
   26MOL0     H 3482   5.955  13.275   8.261 -0.8482 -1.5000 -0.6820
   26MOL0     H 3483   5.938  13.383   8.130 -3.1512  0.6769  2.4608
   26MOL0     H 3484   6.126  13.151   8.107  1.2826 -0.2651  2.3262
   26MOL0     H 3485   6.103  13.277   7.985  0.6759 -1.3657 -0.6464
   26MOL0     H 3486   6.234  13.281   8.257  1.7609  0.6756  0.5126
   26MOL0     H 3487   6.192  13.429   8.180 -1.9820 -0.8895  2.3176
   26MOL0     H 3488   6.442  13.306   8.148  0.6459  1.0209  0.2479
   26MOL0     H 3489   6.354  13.204   8.036  0.8265  0.7920 -0.7282
   26MOL0     H 3490   5.851  12.591   8.121  2.2856 -0.4276 -0.9519
   26MOL0     H 3491   6.074  12.515   8.181 -0.6265 -0.4956 -0.8474
   26MOL0     H 3492   6.453  12.780   8.412 -0.0291 -0.7762 -1.4775
   26MOL0     H 3493   6.646  12.817   8.539 -0.6704  0.3472 -0.2426
   26MOL0     H 3494   7.618  11.569   8.967  0.9500  0.8859  0.2575
   26MOL0     H 3495   7.849  11.523   9.072 -3.0255  2.3215  1.7940
   26MOL0     H 3496   7.952  11.465   9.331 -0.9767  0.2586 -2.6625
   26MOL0     H 3497   8.069  11.614   9.483  1.2855 -0.1928  1.2212
   26MOL0     H 3498   8.417  11.862   9.492  1.0064 -0.4364  1.0414
   26MOL0     H 3499   8.431  11.800   9.327 -0.0620  1.8265 -0.2065
   26MOL0     H 3500   8.643  11.769   9.411 -0.6764  0.2142 -0.7727
   26MOL0     H 3501   8.564  11.607   9.419 -0.4971  0.4167 -1.9146
   26MOL0     H 3502   8.517  11.600   9.625 -2.6823  1.5804 -1.5373
   26MOL0     H 3503   8.565  11.764   9.676 -0.3704  0.4505 -0.0240
   26MOL0     H 3504   8.745  11.612   9.755  1.5663 -0.9835  0.5726
   26MOL0     H 3505   8.749  11.556   9.580 -1.2286  1.4310 -2.2125
   26MOL0     H 3506   8.961  11.930   9.608 -2.9002  0.6268 -1.0134
   26MOL0     H 3507   8.433  11.549   9.271  0.0332 -0.0638  2.8916
   26MOL0     H 3508   8.435  11.453   9.053 -0.8802  2.5939 -1.5713
   26MOL0     H 3509   8.341  11.298   9.061 -0.5717  0.3714 -0.1464
   26MOL0     H 3510   8.285  11.435   8.963  0.5559  0.3420 -0.2423
   27MOL0     O 3511   8.223   4.352   3.058  0.5563  0.1782  0.8057
   27MOL0     C 3512   8.164   4.270   3.132  0.2592 -0.3263  0.6677
   27MOL0     O 3513   8.153   4.290   3.268 -0.3990  0.0633  0.6860
   27MOL0     C 3514   8.198   4.405   3.330  0.7457 -0.4772 -0.1351
   27MOL0     C 3515   8.115   4.494   3.403  0.3092  0.9522 -0.0676
   27MOL0     C 3516   8.169   4.619   3.450 -0.0690  0.0137 -0.6033
   27MOL0     C 3517   8.313   4.636   3.449  1.0726 -0.4715  0.1340
   27MOL0     O 3518   8.365   4.755   3.506 -0.2343  0.0727  0.0667
   27MOL0     C 3519   8.489   4.818   3.473  0.3860  0.1769 -0.0573
   27MOL0     C 3520   8.518   4.944   3.550  0.3407  0.4224 -0.1560
   27MOL0     C 3521   8.661   5.012   3.519 -0.0401  0.5532  0.2635
   27MOL0     C 3522   8.698   5.134   3.605  0.6069 -0.2486  0.0747
   27MOL0     C 3523   8.840   5.168   3.571 -0.0242  0.6149 -0.0183
   27MOL0     C 3524   8.882   5.313   3.613  0.0358 -0.0423  0.2756
   27MOL0     C 3525   9.033   5.347   3.581  1.0101  0.0006 -0.0328
   27MOL0     C 3526   9.123   5.288   3.695 -0.3701  0.1815 -0.0063
   27MOL0     N 3527   9.266   5.326   3.686 -0.7355  0.8505  0.7794
   27MOL0     C 3528   9.348   5.261   3.601 -0.7719  0.2268  0.1341
   27MOL0     C 3529   9.468   5.283   3.650 -0.8020  0.5662  0.3809
   27MOL0     C 3530   9.596   5.211   3.600 -0.1003 -0.4183  0.0231
   27MOL0     C 3531   9.612   5.222   3.449  0.3605 -0.3292 -0.3366
   27MOL0     C 3532   9.636   5.362   3.415 -0.3115 -0.0463 -0.5753
   27MOL0     C 3533   9.759   5.440   3.471  0.7075  0.7107 -0.8717
   27MOL0     O 3534   9.880   5.375   3.445 -0.9644  0.1816 -0.0922
   27MOL0     C 3535   9.999   5.455   3.445  0.4959 -1.7135  0.2826
   27MOL0     C 3536  10.119   5.394   3.414  0.6954 -0.2195  0.4057
   27MOL0     C 3537  10.233   5.474   3.388 -0.9157  0.7342 -0.0642
   27MOL0     C 3538  10.235   5.610   3.413  0.6248 -0.5616 -0.2506
   27MOL0     C 3539  10.358   5.699   3.388 -0.1840  0.6901  0.9724
   27MOL0     O 3540  10.331   5.835   3.378  0.0064  0.1848  0.2531
   27MOL0     C 3541  10.432   5.924   3.338 -0.2699  0.2235 -0.3428
   27MOL0     C 3542  10.566   5.906   3.365 -0.1862  0.4344  1.0320
   27MOL0     C 3543  10.658   5.999   3.331 -0.0990 -1.0892 -0.1093
   27MOL0     C 3544  10.619   6.125   3.280 -0.2472 -0.1818 -0.1275
   27MOL0     O 3545  10.714   6.220   3.273 -0.3704 -0.2382 -0.5510
   27MOL0     C 3546  10.677   6.354   3.234  0.4146 -0.8993 -0.0832
   27MOL0     C 3547  10.786   6.468   3.240  0.3926 -0.1246 -0.4823
   27MOL0     C 3548  10.867   6.428   3.367 -0.3210 -0.6066 -0.4469
   27MOL0     C 3549  11.003   6.505   3.372 -0.2624  0.0571  0.1512
   27MOL0     C 3550  10.970   6.657   3.395  0.8808 -0.1638  0.3353
   27MOL0     C 3551  11.091   6.744   3.436 -0.1894  0.0177  0.2916
   27MOL0     C 3552  11.215   6.742   3.347  0.5920 -0.0345  0.1578
   27MOL0     C 3553  11.327   6.821   3.404 -0.0031  0.0008 -1.0092
   27MOL0    Cl 3554  11.476   6.817   3.298  0.5971  0.2177 -0.1922
   27MOL0     C 3555  10.482   6.145   3.249  0.0574  0.6988  0.7756
   27MOL0     C 3556  10.389   6.045   3.271 -0.2512 -0.3602  0.0324
   27MOL0     O 3557  10.460   5.633   3.354 -0.3210  0.1194 -0.0735
   27MOL0     C 3558  10.123   5.668   3.465 -0.1336 -1.1854  0.7610
   27MOL0     C 3559  10.003   5.597   3.483  0.0616  0.3147  0.3549
   27MOL0     N 3560   9.460   5.362   3.770 -0.1970  0.2440  1.1868
   27MOL0     N 3561   9.338   5.377   3.790 -0.3246  0.0890  0.0769
   27MOL0     C 3562   8.394   4.542   3.383 -0.0787  0.1534 -0.2577
   27MOL0     C 3563   8.331   4.434   3.311  0.2333 -0.1998  0.7155
   27MOL0     C 3564   8.103   4.145   3.072 -0.2535 -0.6306 -0.0999
   27MOL0     C 3565   8.023   4.062   3.155  0.2491 -0.2030 -0.1993
   27MOL0     C 3566   7.968   3.944   3.099  0.3434 -0.6483 -0.5828
   27MOL0     C 3567   7.973   3.917   2.965  0.2244 -0.0737 -0.2968
   27MOL0     O 3568   7.900   3.816   2.894  0.4980 -0.1195  0.8124
   27MOL0     C 3569   7.775   3.777   2.954  0.4801  0.9279 -0.6267
   27MOL0     C 3570   7.719   3.656   2.870  0.6572 -0.1146  0.4772
   27MOL0     C 3571   7.837   3.565   2.837 -1.5813  0.4900 -0.9337
   27MOL0     C 3572   7.784   3.423   2.793 -0.5585 -1.2659 -0.4513
   27MOL0     C 3573   7.693   3.430   2.681  0.4790 -0.1167 -0.5577
   27MOL0     C 3574   7.614   3.413   2.589  0.1946  0.2063  1.2985
   27MOL0     C 3575   8.046   4.004   2.887 -0.5188  0.0999 -0.2712
   27MOL0     C 3576   8.115   4.117   2.935  1.4486  0.3207  0.1310
   27MOL0     C 3577   8.195   4.183   2.822 -0.6236 -0.0404  0.2343
   27MOL0     H 3578   8.013   4.476   3.435  0.5051 -2.6653 -1.0320
   27MOL0     H 3579   8.113   4.695   3.504  1.2208  1.5744 -1.3751
   27MOL0     H 3580   8.562   4.748   3.516  0.2858  1.0621  1.6405
   27MOL0     H 3581   8.512   4.826   3.366  1.3771 -3.1480 -0.2172
   27MOL0     H 3582   8.499   4.927   3.656 -1.9634 -0.5650 -0.6466
   27MOL0     H 3583   8.434   5.008   3.522 -0.3483 -0.1808  0.4934
   27MOL0     H 3584   8.654   5.028   3.412  2.3390 -1.4631 -0.3169
   27MOL0     H 3585   8.732   4.929   3.529 -0.8532 -0.3662 -1.2261
   27MOL0     H 3586   8.640   5.218   3.564  1.1359  1.3613  2.4414
   27MOL0     H 3587   8.679   5.121   3.712 -2.9204  1.7984 -0.1143
   27MOL0     H 3588   8.911   5.096   3.612 -1.0836  0.1737  1.1479
   27MOL0     H 3589   8.849   5.164   3.462 -3.1549 -0.6761 -0.3604
   27MOL0     H 3590   8.820   5.378   3.551  1.0233 -0.3777 -1.1174
   27MOL0     H 3591   8.861   5.345   3.715 -3.4653  1.9225 -0.8995
   27MOL0     H 3592   9.041   5.456   3.579 -1.4784  0.2389 -2.6227
   27MOL0     H 3593   9.054   5.309   3.481 -2.7087  0.4628 -1.1599
   27MOL0     H 3594   9.085   5.339   3.784 -0.7677 -0.6958  0.3452
   27MOL0     H 3595   9.113   5.179   3.705  0.1243  0.0915 -0.4626
   27MOL0     H 3596   9.315   5.189   3.526 -0.2562  1.2725 -1.1325
   27MOL0     H 3597   9.678   5.264   3.649 -1.5304  1.2136  0.7582
   27MOL0     H 3598   9.598   5.108   3.637  0.0156 -1.4014 -2.5303
   27MOL0     H 3599   9.689   5.154   3.412  2.0228  0.9216  0.6987
   27MOL0     H 3600   9.517   5.187   3.408 -0.1006  0.6859 -0.1598
   27MOL0     H 3601   9.555   5.434   3.431 -0.7396 -0.3410 -1.3382
   27MOL0     H 3602   9.647   5.359   3.306  1.9192  0.4138 -0.4010
   27MOL0     H 3603   9.747   5.465   3.577  2.1581  0.2579 -0.5779
   27MOL0     H 3604   9.760   5.536   3.420 -1.6832  2.1974  1.6315
   27MOL0     H 3605  10.121   5.290   3.382 -1.3684  0.1885 -1.2722
   27MOL0     H 3606  10.325   5.424   3.362 -3.2320 -3.8964 -0.4796
   27MOL0     H 3607  10.618   5.814   3.390  2.1158  1.4837  0.3791
   27MOL0     H 3608  10.765   5.983   3.336  0.5739  1.9144 -2.1286
   27MOL0     H 3609  10.631   6.353   3.135  0.3991  1.6731 -0.1688
   27MOL0     H 3610  10.605   6.385   3.311  1.8818  0.7516  0.6989
   27MOL0     H 3611  10.855   6.458   3.156  1.2251  0.1436  0.1465
   27MOL0     H 3612  10.745   6.570   3.246  0.7492  0.0214  4.9303
   27MOL0     H 3613  10.809   6.476   3.446  2.3930  2.4013 -0.0482
   27MOL0     H 3614  10.890   6.325   3.394  2.7686 -0.1587 -0.9693
   27MOL0     H 3615  11.071   6.481   3.289  1.7853 -0.0438  1.7835
   27MOL0     H 3616  11.046   6.459   3.461 -0.8696  1.1319  1.0172
   27MOL0     H 3617  10.903   6.661   3.481  2.2627  2.9332  1.4101
   27MOL0     H 3618  10.909   6.706   3.319 -1.7996 -0.9863  1.8127
   27MOL0     H 3619  11.054   6.847   3.445 -0.0880  0.1971 -1.0971
   27MOL0     H 3620  11.110   6.700   3.534  1.1508  1.1340  0.5599
   27MOL0     H 3621  11.184   6.787   3.252  0.5812  0.9023  0.5946
   27MOL0     H 3622  11.244   6.638   3.330 -1.8866 -1.0362  1.5475
   27MOL0     H 3623  11.293   6.923   3.425 -1.6105 -0.4426 -1.3401
   27MOL0     H 3624  11.360   6.774   3.497  2.3380  1.4588 -1.0330
   27MOL0     H 3625  10.447   6.234   3.198  1.0442 -0.6143 -2.4586
   27MOL0     H 3626  10.283   6.063   3.254 -0.9370 -2.3466  1.7218
   27MOL0     H 3627  10.114   5.775   3.481  0.8527 -1.0284  0.3744
   27MOL0     H 3628   9.916   5.654   3.515  2.1566  4.0877 -0.0242
   27MOL0     H 3629   8.502   4.549   3.386 -0.1709  2.8100  1.7142
   27MOL0     H 3630   8.388   4.368   3.247  1.1849 -0.1564  1.4848
   27MOL0     H 3631   8.020   4.086   3.261 -0.8498 -2.1081  0.2436
   27MOL0     H 3632   7.922   3.871   3.166  0.6533  1.4593  2.1228
   27MOL0     H 3633   7.706   3.859   2.971 -0.3135 -0.2326  2.3346
   27MOL0     H 3634   7.797   3.741   3.055  0.5693 -1.0587 -1.2972
   27MOL0     H 3635   7.682   3.698   2.776  2.1997 -0.9787 -0.5547
   27MOL0     H 3636   7.634   3.603   2.914 -0.0916  0.8307  0.2098
   27MOL0     H 3637   7.896   3.539   2.925 -4.4637 -1.9571  0.4697
   27MOL0     H 3638   7.905   3.599   2.758  1.9274 -0.8524  1.2539
   27MOL0     H 3639   7.873   3.368   2.760 -0.2151 -0.1075 -1.5430
   27MOL0     H 3640   7.733   3.370   2.874  0.5279  2.0180  2.6346
   27MOL0     H 3641   7.541   3.393   2.512 -1.1586  1.1473  2.2834
   27MOL0     H 3642   8.047   3.983   2.780  1.9593  0.6791 -0.4048
   27MOL0     H 3643   8.299   4.189   2.855  0.0972  2.3741 -2.0833
   27MOL0     H 3644   8.179   4.129   2.728 -2.7750  0.9420 -0.0233
   27MOL0     H 3645   8.152   4.281   2.798  0.0854  0.7310  2.0022
   28MOL0     O 3646   1.203  10.185   9.125  0.0339 -0.2364  0.2000
   28MOL0     C 3647   1.225  10.292   9.187  0.4306  0.9783  0.4727
   28MOL0     O 3648   1.337  10.369   9.177  0.0643  0.6753  0.0088
   28MOL0     C 3649   1.441  10.320   9.110  0.7629  0.5782 -0.2657
   28MOL0     C 3650   1.447  10.335   8.973 -0.4160 -0.0288  0.5491
   28MOL0     C 3651   1.571  10.306   8.906  0.6463  1.1840  0.5658
   28MOL0     C 3652   1.682  10.253   8.974  0.7946  0.7030  0.3233
   28MOL0     O 3653   1.780  10.219   8.882 -0.0868  0.1138 -0.0587
   28MOL0     C 3654   1.915  10.213   8.943  0.1439  0.0658  0.0439
   28MOL0     C 3655   2.025  10.192   8.831  0.8015  0.9611 -0.4268
   28MOL0     C 3656   2.168  10.233   8.870 -0.1063 -0.3119 -0.1516
   28MOL0     C 3657   2.197  10.387   8.825  0.3248 -0.4435 -0.1298
   28MOL0     C 3658   2.337  10.422   8.871  0.0413 -0.0389  0.9676
   28MOL0     C 3659   2.449  10.329   8.809 -0.2886 -0.6217  0.0852
   28MOL0     C 3660   2.585  10.392   8.783  0.3187 -0.0578  0.1092
   28MOL0     C 3661   2.683  10.373   8.897 -0.6024 -0.8268  0.7888
   28MOL0     N 3662   2.805  10.444   8.850 -0.4922  0.6490 -0.3983
   28MOL0     C 3663   2.821  10.578   8.861 -0.5615 -0.3990 -0.0954
   28MOL0     C 3664   2.944  10.609   8.827  0.4241  0.0717  0.2084
   28MOL0     C 3665   3.001  10.741   8.811 -1.1675 -0.4482  0.3869
   28MOL0     C 3666   3.087  10.783   8.937 -0.6002 -0.0375  0.0247
   28MOL0     C 3667   3.171  10.909   8.911 -0.3978 -0.8511  0.6559
   28MOL0     C 3668   3.287  10.879   8.826  0.5060 -0.0672  0.7344
   28MOL0     O 3669   3.360  11.000   8.803  0.3073 -0.3645 -1.0408
   28MOL0     C 3670   3.492  10.995   8.771 -0.5055  0.7802 -0.5144
   28MOL0     C 3671   3.567  10.882   8.754 -0.0772 -0.2688  0.5489
   28MOL0     C 3672   3.707  10.888   8.730 -1.2388 -0.3903 -0.4462
   28MOL0     C 3673   3.771  11.015   8.714  0.1289 -0.4486 -0.2583
   28MOL0     C 3674   3.921  11.034   8.696  0.5053  0.6123 -0.1124
   28MOL0     O 3675   3.977  11.162   8.729 -0.0888 -0.2828  0.1717
   28MOL0     C 3676   4.114  11.182   8.710  0.6459  0.4715  0.2598
   28MOL0     C 3677   4.176  11.153   8.588  0.4745 -0.5129  0.2614
   28MOL0     C 3678   4.313  11.175   8.569 -0.3203  0.3262  0.6203
   28MOL0     C 3679   4.395  11.219   8.669  0.4408 -0.9095  0.4579
   28MOL0     O 3680   4.528  11.228   8.641 -0.2215  0.7755 -0.7004
   28MOL0     C 3681   4.620  11.284   8.743  0.6648 -0.4455  0.2337
   28MOL0     C 3682   4.759  11.248   8.693  0.1171  0.5854  0.5692
   28MOL0     C 3683   4.858  11.334   8.755 -0.8310  0.1273  0.3501
   28MOL0     C 3684   5.008  11.299   8.736  0.3503 -0.1291  0.6638
   28MOL0     C 3685   5.112  11.355   8.831 -0.1882 -0.3295  0.5747
   28MOL0     C 3686   5.254  11.340   8.777  0.0875  0.2163 -0.4520
   28MOL0     C 3687   5.359  11.368   8.881  0.0214 -0.4712 -0.3266
   28MOL0     C 3688   5.368  11.510   8.936  0.3869 -0.4174  0.0278
   28MOL0    Cl 3689   5.349  11.649   8.822 -0.0442 -0.0420  0.4223
   28MOL0     C 3690   4.329  11.250   8.788  0.0998  0.4821 -0.1267
   28MOL0     C 3691   4.192  11.230   8.812  0.1921 -0.9830 -0.2895
   28MOL0     O 3692   3.986  10.939   8.656 -0.0092  0.3199  0.4887
   28MOL0     C 3693   3.688  11.128   8.722 -0.3654 -1.2983  0.5337
   28MOL0     C 3694   3.555  11.116   8.759 -0.3746  0.3729  0.2713
   28MOL0     N 3695   3.003  10.483   8.810  0.0279  0.2426  0.2451
   28MOL0     N 3696   2.922  10.386   8.828 -0.9456  0.0241 -0.1398
   28MOL0     C 3697   1.677  10.231   9.113  0.9567 -0.1048  0.0186
   28MOL0     C 3698   1.556  10.274   9.181 -0.5173 -0.0502 -0.6558
   28MOL0     C 3699   1.115  10.346   9.271 -0.5950 -0.0590  0.6014
   28MOL0     C 3700   1.114  10.488   9.294 -0.5175  0.6751 -0.4507
   28MOL0     C 3701   1.034  10.555   9.387 -0.8193 -0.1098  0.3894
   28MOL0     C 3702   0.942  10.479   9.462 -0.3670 -1.1712  0.3395
   28MOL0     O 3703   0.857  10.554   9.539  0.1246 -0.7971 -0.4704
   28MOL0     C 3704   0.738  10.490   9.581 -0.4529  0.7807  0.0889
   28MOL0     C 3705   0.649  10.579   9.670 -0.0473 -0.2296  0.7896
   28MOL0     C 3706   0.552  10.488   9.742 -0.7536 -0.1377  0.4007
   28MOL0     C 3707   0.446  10.564   9.828 -0.5238  0.6700 -0.1806
   28MOL0     C 3708   0.495  10.642   9.935  0.2124  0.0361  0.8667
   28MOL0     C 3709   0.535  10.708  10.029  1.6048 -1.2141  0.2969
   28MOL0     C 3710   0.936  10.336   9.440 -0.5538  0.5220  0.5712
   28MOL0     C 3711   1.025  10.273   9.353  0.2578 -0.9103 -0.4893
   28MOL0     C 3712   1.031  10.119   9.337  1.3112  0.0775 -0.3704
   28MOL0     H 3713   1.369  10.391   8.923  0.9968  2.4468  0.9486
   28MOL0     H 3714   1.576  10.317   8.798  2.6848 -3.6346 -0.0974
   28MOL0     H 3715   1.934  10.312   8.983 -0.4991  0.3519 -0.3402
   28MOL0     H 3716   1.922  10.129   9.013  0.1524 -1.3033 -1.5413
   28MOL0     H 3717   1.992  10.252   8.745 -0.7286  1.0846  0.2167
   28MOL0     H 3718   2.021  10.085   8.808  2.3894  0.6413  0.5941
   28MOL0     H 3719   2.246  10.174   8.820  1.2244 -0.1498  1.6530
   28MOL0     H 3720   2.186  10.220   8.977 -1.4253 -3.1798 -0.1921
   28MOL0     H 3721   2.183  10.413   8.720 -2.7054  0.1070  0.3217
   28MOL0     H 3722   2.130  10.457   8.877  3.5630  2.1414  0.9258
   28MOL0     H 3723   2.347  10.529   8.847  0.9430  0.2657  2.5717
   28MOL0     H 3724   2.330  10.401   8.978 -2.6466  1.1212  1.1123
   28MOL0     H 3725   2.454  10.229   8.855 -0.8352 -2.0603 -2.7465
   28MOL0     H 3726   2.419  10.305   8.707 -0.4819  1.9422 -0.5195
   28MOL0     H 3727   2.572  10.490   8.738 -1.3220 -0.0560  0.5254
   28MOL0     H 3728   2.635  10.343   8.699  2.7633  1.1728  0.7552
   28MOL0     H 3729   2.649  10.416   8.992 -2.0619  1.9357 -0.8492
   28MOL0     H 3730   2.708  10.267   8.910 -0.5141 -0.9520 -0.2827
   28MOL0     H 3731   2.739  10.649   8.855 -1.0143 -0.9451 -5.9874
   28MOL0     H 3732   3.051  10.740   8.714 -0.3288  3.6010  0.6083
   28MOL0     H 3733   2.930  10.824   8.812  0.4401  0.9719  2.1059
   28MOL0     H 3734   3.021  10.802   9.023 -0.4582  0.6862 -0.0168
   28MOL0     H 3735   3.156  10.704   8.967 -0.9733 -1.0108 -1.5940
   28MOL0     H 3736   3.210  10.950   9.004  3.9799 -0.7076 -0.9856
   28MOL0     H 3737   3.116  10.991   8.864  1.1898 -1.1223 -1.8810
   28MOL0     H 3738   3.257  10.843   8.728 -1.3976  2.1079  0.4504
   28MOL0     H 3739   3.343  10.794   8.866  1.9535  0.8314  0.6921
   28MOL0     H 3740   3.526  10.782   8.753  0.7564 -0.7112 -3.0219
   28MOL0     H 3741   3.769  10.803   8.700  1.4270  1.6488 -1.1749
   28MOL0     H 3742   4.104  11.133   8.510 -0.5538  1.7585  0.5561
   28MOL0     H 3743   4.352  11.160   8.469  0.3970 -1.9911  1.1859
   28MOL0     H 3744   4.591  11.390   8.748 -1.7444 -1.0450  0.3521
   28MOL0     H 3745   4.613  11.242   8.844  2.5097 -2.1554 -0.2960
   28MOL0     H 3746   4.783  11.142   8.709  1.8532  0.0835 -3.7712
   28MOL0     H 3747   4.776  11.257   8.585  0.7395  0.3145  0.6381
   28MOL0     H 3748   4.835  11.436   8.722  4.4275  1.8491  1.0478
   28MOL0     H 3749   4.844  11.335   8.863  1.9517  3.0392  0.8245
   28MOL0     H 3750   5.013  11.320   8.628 -5.9068  0.3903  0.1093
   28MOL0     H 3751   5.018  11.190   8.727 -1.1349 -0.3532  1.4093
   28MOL0     H 3752   5.113  11.306   8.928 -0.6305 -0.2055  0.6446
   28MOL0     H 3753   5.086  11.460   8.851  2.2318  0.0933  1.9128
   28MOL0     H 3754   5.269  11.234   8.755  2.1070 -0.1386  2.2411
   28MOL0     H 3755   5.266  11.408   8.692  3.1801  1.4912  0.8462
   28MOL0     H 3756   5.448  11.355   8.819 -0.1148 -3.6709 -0.0057
   28MOL0     H 3757   5.365  11.289   8.957  1.0874 -0.6068 -0.5292
   28MOL0     H 3758   5.307  11.507   9.027 -2.1026 -1.3020 -1.5827
   28MOL0     H 3759   5.469  11.519   8.978 -0.6161 -1.6784  2.9934
   28MOL0     H 3760   4.391  11.295   8.864 -0.6975  1.5684 -0.0935
   28MOL0     H 3761   4.158  11.263   8.910  1.3707 -1.8743  0.4461
   28MOL0     H 3762   3.730  11.217   8.676  0.1538 -1.3403  0.9090
   28MOL0     H 3763   3.500  11.210   8.765 -0.2950  0.4960 -0.8145
   28MOL0     H 3764   1.758  10.189   9.173 -0.8611  0.2334  2.8888
   28MOL0     H 3765   1.544  10.251   9.287 -0.3872 -1.1360 -0.8698
   28MOL0     H 3766   1.175  10.535   9.218 -0.6028 -1.7844 -2.1440
   28MOL0     H 3767   1.042  10.661   9.405 -1.4721  0.3101 -1.5743
   28MOL0     H 3768   0.775  10.406   9.641  1.5520  1.3571 -0.2768
   28MOL0     H 3769   0.678  10.467   9.492 -0.0726  2.7965 -0.7284
   28MOL0     H 3770   0.593  10.642   9.600  0.1814 -0.8193  0.0572
   28MOL0     H 3771   0.713  10.641   9.733  3.5858 -1.1884 -1.6367
   28MOL0     H 3772   0.597  10.405   9.797 -1.0497 -0.8376 -0.3888
   28MOL0     H 3773   0.490  10.441   9.665  1.8691 -0.8541 -1.4095
   28MOL0     H 3774   0.389  10.628   9.760  0.0585  1.2107 -0.1761
   28MOL0     H 3775   0.386  10.487   9.877 -0.0150 -0.0551 -0.6694
   28MOL0     H 3776   0.547  10.773  10.113  2.9724  0.7953 -1.3403
   28MOL0     H 3777   0.866  10.272   9.493  2.3894 -1.8162  1.9220
   28MOL0     H 3778   0.959  10.079   9.409  2.8384  0.9947  1.7723
   28MOL0     H 3779   1.008  10.090   9.234  1.1238 -0.0964 -0.2785
   28MOL0     H 3780   1.132  10.082   9.358  1.4160 -0.8982 -2.3974
   29MOL0     O 3781   6.682   0.250   5.962  0.4673 -0.5064 -0.1774
   29MOL0     C 3782   6.668   0.369   5.996 -0.7398  0.2192  0.3086
   29MOL0     O 3783   6.772   0.448   6.037 -0.6180 -0.3631 -0.3610
   29MOL0     C 3784   6.899   0.400   6.035 -0.4432  0.4412  1.0861
   29MOL0     C 3785   6.959   0.356   6.154  0.7835 -0.6420  0.4300
   29MOL0     C 3786   7.093   0.303   6.145 -0.1642 -0.5173 -0.2156
   29MOL0     C 3787   7.156   0.276   6.024 -0.3605 -0.6170 -0.6985
   29MOL0     O 3788   7.283   0.224   6.018 -0.1940  0.6088  0.4134
   29MOL0     C 3789   7.351   0.195   5.892 -0.4637  0.3378  0.6116
   29MOL0     C 3790   7.500   0.212   5.910 -1.0307 -0.0364  0.1826
   29MOL0     C 3791   7.573   0.184   5.772 -0.3251 -0.0015 -0.3478
   29MOL0     C 3792   7.690   0.083   5.790  0.1623 -0.9207  0.4077
   29MOL0     C 3793   7.795   0.086   5.682 -0.1768 -0.1544 -0.1454
   29MOL0     C 3794   7.750   0.027   5.550  0.0121  0.0935 -0.8421
   29MOL0     C 3795   7.742  -0.130   5.536  0.2983  0.6417 -0.5621
   29MOL0     C 3796   7.731  -0.176   5.389 -0.2277 -0.1472 -0.0300
   29MOL0     N 3797   7.757  -0.318   5.389 -0.4354 -0.3226  0.0516
   29MOL0     C 3798   7.673  -0.420   5.423 -1.3588  0.6618  0.0988
   29MOL0     C 3799   7.747  -0.531   5.428 -0.4145 -0.3897 -0.2543
   29MOL0     C 3800   7.691  -0.659   5.480 -0.2447  0.4071 -0.0010
   29MOL0     C 3801   7.633  -0.647   5.618  0.2242 -1.0486 -0.0596
   29MOL0     C 3802   7.725  -0.667   5.738 -0.4705  0.4529  0.1155
   29MOL0     C 3803   7.838  -0.566   5.752 -0.0738 -0.0347 -0.7948
   29MOL0     O 3804   7.778  -0.444   5.793 -0.4723  0.3480  0.3949
   29MOL0     C 3805   7.866  -0.340   5.829 -0.5995 -0.4749  0.0198
   29MOL0     C 3806   7.800  -0.250   5.901  0.1530 -1.2066 -0.6777
   29MOL0     C 3807   7.860  -0.138   5.953 -0.0516 -0.6852  0.0170
   29MOL0     C 3808   7.993  -0.107   5.920 -0.5214 -0.3381  0.0107
   29MOL0     C 3809   8.058   0.017   5.974 -0.5087  0.5904  0.2755
   29MOL0     O 3810   8.192   0.027   5.952 -0.2020  0.4672  0.5143
   29MOL0     C 3811   8.255   0.148   5.971 -0.4251  0.0921 -1.2753
   29MOL0     C 3812   8.384   0.132   6.026  1.4403 -0.6709  0.5452
   29MOL0     C 3813   8.464   0.244   6.048  0.2959  0.2147 -0.3925
   29MOL0     C 3814   8.401   0.371   6.021 -0.0815  0.1677 -0.7457
   29MOL0     O 3815   8.481   0.478   6.053  0.1153  0.4286 -0.5175
   29MOL0     C 3816   8.417   0.585   6.117  0.2651 -0.9986  1.0257
   29MOL0     C 3817   8.399   0.717   6.042 -1.2253  0.7976  1.2161
   29MOL0     C 3818   8.265   0.792   6.083  0.7364  0.2496 -0.0313
   29MOL0     C 3819   8.228   0.916   6.000  0.6060  0.5837 -1.2323
   29MOL0     C 3820   8.120   0.993   6.088 -0.2463  0.8625  0.4638
   29MOL0     C 3821   8.022   1.064   5.989 -0.2154  0.7338 -0.6075
   29MOL0     C 3822   7.892   1.114   6.054  1.2189 -0.1923  0.9423
   29MOL0     C 3823   7.790   1.159   5.945 -0.0041  0.0331 -0.3840
   29MOL0    Cl 3824   7.861   1.303   5.878  0.0584  0.1939 -0.0514
   29MOL0     C 3825   8.287   0.379   5.953 -0.3256  0.2447 -0.6875
   29MOL0     C 3826   8.209   0.270   5.927 -0.3678  0.0019 -0.1690
   29MOL0     O 3827   7.994   0.106   6.025  0.6325  0.3987  0.6647
   29MOL0     C 3828   8.064  -0.201   5.844  0.6126 -0.2046  1.0331
   29MOL0     C 3829   8.000  -0.324   5.793  0.6799  0.5345 -0.2182
   29MOL0     N 3830   7.878  -0.502   5.390  0.4229  1.0257  0.2355
   29MOL0     N 3831   7.878  -0.377   5.354 -0.1248 -0.4907  0.0277
   29MOL0     C 3832   7.087   0.314   5.910  0.5488  0.2476  0.2614
   29MOL0     C 3833   6.960   0.371   5.912 -0.2568  0.0075 -0.3926
   29MOL0     C 3834   6.531   0.432   5.992  0.0098  0.1477  0.6743
   29MOL0     C 3835   6.420   0.343   5.981 -0.2525  0.4237  0.5202
   29MOL0     C 3836   6.289   0.393   5.978 -0.6156  0.6915 -0.2040
   29MOL0     C 3837   6.269   0.529   5.992 -0.6168 -0.6500  0.3833
   29MOL0     O 3838   6.144   0.587   5.994 -0.8735  0.6582  0.4095
   29MOL0     C 3839   6.033   0.514   5.947  0.3685 -0.9486  0.5712
   29MOL0     C 3840   5.904   0.601   5.939 -0.0133  0.0413 -0.6333
   29MOL0     C 3841   5.919   0.723   5.844 -0.8960  0.2308  0.6916
   29MOL0     C 3842   5.794   0.810   5.812 -0.5686  0.7331  0.0799
   29MOL0     C 3843   5.816   0.926   5.725 -0.6180 -0.0554 -0.4058
   29MOL0     C 3844   5.828   1.013   5.647 -0.2494  0.2019 -0.8417
   29MOL0     C 3845   6.375   0.613   5.989 -0.0973  0.6562  0.7635
   29MOL0     C 3846   6.509   0.572   5.985 -0.1948  0.7333  1.0496
   29MOL0     C 3847   6.621   0.669   5.987  0.3969  0.2157  0.0471
   29MOL0     H 3848   6.907   0.385   6.245 -2.7778 -1.1686 -1.2379
   29MOL0     H 3849   7.144   0.278   6.238 -0.3640 -0.5823 -0.1223
   29MOL0     H 3850   7.328   0.093   5.859 -0.0076  0.3359  0.2885
   29MOL0     H 3851   7.319   0.250   5.803 -1.0909 -2.7287 -1.2204
   29MOL0     H 3852   7.544   0.147   5.986  0.5822  2.8737  1.9044
   29MOL0     H 3853   7.525   0.315   5.938 -2.4491  0.4099 -0.1122
   29MOL0     H 3854   7.609   0.284   5.746 -0.6511  0.7258  1.7711
   29MOL0     H 3855   7.504   0.134   5.703  0.2168 -0.9380 -0.2251
   29MOL0     H 3856   7.745   0.100   5.883 -1.0702 -0.5826  1.1035
   29MOL0     H 3857   7.663  -0.022   5.801 -1.5499 -0.6154 -0.5620
   29MOL0     H 3858   7.817   0.193   5.667 -3.0872  0.6141  0.4334
   29MOL0     H 3859   7.880   0.032   5.723 -0.0451  0.1422 -0.0208
   29MOL0     H 3860   7.654   0.075   5.529 -0.6056  2.0555  4.7799
   29MOL0     H 3861   7.824   0.052   5.473  1.0320 -1.9746 -0.6047
   29MOL0     H 3862   7.661  -0.181   5.588 -0.2454  2.0917  0.0483
   29MOL0     H 3863   7.840  -0.167   5.566  0.0384 -0.4708 -1.0403
   29MOL0     H 3864   7.634  -0.148   5.347 -0.7776  0.2585  1.4398
   29MOL0     H 3865   7.814  -0.123   5.341  1.1308 -2.0864  0.0778
   29MOL0     H 3866   7.567  -0.410   5.446 -1.0874  1.1086  1.1892
   29MOL0     H 3867   7.609  -0.681   5.412  1.1798 -0.3933 -1.5348
   29MOL0     H 3868   7.765  -0.738   5.464 -1.2295 -0.1481 -2.1667
   29MOL0     H 3869   7.581  -0.551   5.627 -1.0486 -1.6758 -0.5505
   29MOL0     H 3870   7.560  -0.728   5.618  1.7164 -2.4426 -0.1182
   29MOL0     H 3871   7.770  -0.766   5.730  0.5475  1.0135 -1.5002
   29MOL0     H 3872   7.672  -0.661   5.834  0.2586 -0.7483  0.6138
   29MOL0     H 3873   7.902  -0.568   5.663  0.5543  1.2875 -0.4016
   29MOL0     H 3874   7.912  -0.588   5.830  0.6339 -1.1057 -1.7393
   29MOL0     H 3875   7.700  -0.270   5.936 -0.0064  0.6748  0.0779
   29MOL0     H 3876   7.807  -0.067   6.016 -0.0300 -0.6268 -0.0300
   29MOL0     H 3877   8.423   0.034   6.050  1.4196 -0.6216  0.7915
   29MOL0     H 3878   8.561   0.233   6.095 -0.9387 -2.0782  1.8586
   29MOL0     H 3879   8.316   0.561   6.151 -0.0366  0.0655  0.8979
   29MOL0     H 3880   8.468   0.614   6.210 -2.3220 -1.2720  2.6263
   29MOL0     H 3881   8.487   0.775   6.069 -0.1656 -0.0412 -0.2822
   29MOL0     H 3882   8.405   0.693   5.935 -0.9786 -1.5035  1.7125
   29MOL0     H 3883   8.180   0.723   6.086  0.3447  0.7073 -0.2920
   29MOL0     H 3884   8.277   0.820   6.188 -1.6061 -2.1770  1.0111
   29MOL0     H 3885   8.185   0.883   5.905 -0.9084 -0.7648 -0.1384
   29MOL0     H 3886   8.308   0.985   5.972 -0.2856  1.0788 -2.7609
   29MOL0     H 3887   8.172   1.067   6.148 -4.2419  1.3957  3.6976
   29MOL0     H 3888   8.067   0.918   6.148 -0.2112 -1.0081 -1.6838
   29MOL0     H 3889   8.088   1.142   5.950 -0.0257 -0.5000 -2.8924
   29MOL0     H 3890   7.996   0.994   5.909 -0.2205 -0.7165  0.6173
   29MOL0     H 3891   7.912   1.198   6.121 -1.4886  0.9840  0.4057
   29MOL0     H 3892   7.850   1.038   6.120  0.7234  1.2109  2.3040
   29MOL0     H 3893   7.781   1.076   5.874 -0.0141  1.2199 -1.8080
   29MOL0     H 3894   7.692   1.172   5.991 -0.3025 -2.1094 -0.2811
   29MOL0     H 3895   8.257   0.478   5.922 -2.4006 -0.1742 -0.1802
   29MOL0     H 3896   8.112   0.295   5.884  0.5156  1.2818 -1.4934
   29MOL0     H 3897   8.168  -0.181   5.820 -0.2120  2.6065 -0.6580
   29MOL0     H 3898   8.057  -0.398   5.737  0.9933 -1.8090  2.9102
   29MOL0     H 3899   7.114   0.287   5.808 -0.4372  0.9182 -0.1956
   29MOL0     H 3900   6.908   0.378   5.817  1.0892 -0.6236 -1.2037
   29MOL0     H 3901   6.426   0.235   5.975 -1.5655  0.3936 -2.0448
   29MOL0     H 3902   6.211   0.319   5.966  0.4207 -0.3740 -0.6072
   29MOL0     H 3903   6.025   0.431   6.018 -0.5249 -3.3727 -2.1526
   29MOL0     H 3904   6.053   0.479   5.846 -3.0590  0.8829 -0.8990
   29MOL0     H 3905   5.888   0.647   6.037  2.6989  3.0826 -1.4317
   29MOL0     H 3906   5.817   0.540   5.913  0.2144 -1.6304  2.1641
   29MOL0     H 3907   5.965   0.686   5.753  2.3477  1.2942  1.7675
   29MOL0     H 3908   5.992   0.795   5.882 -0.1075  1.6655 -3.1446
   29MOL0     H 3909   5.720   0.740   5.771  0.5342 -0.5415  0.1757
   29MOL0     H 3910   5.760   0.854   5.906  1.3020 -0.8565  1.5986
   29MOL0     H 3911   5.832   1.096   5.580  1.3073  1.1893  0.4160
   29MOL0     H 3912   6.352   0.719   5.987 -1.0272  0.4695 -1.6968
   29MOL0     H 3913   6.674   0.657   6.082 -1.1344 -0.7526  0.8192
   29MOL0     H 3914   6.689   0.651   5.903 -1.8825  1.5815 -2.2381
   29MOL0     H 3915   6.586   0.773   5.982  1.6735  0.7966  2.0176
   30MOL0     O 3916   8.579   6.908   2.568  0.0744  0.7796 -0.3929
   30MOL0     C 3917   8.513   6.814   2.525 -0.3191 -0.4755  0.0934
   30MOL0     O 3918   8.561   6.694   2.477 -0.1840  0.2007 -0.1638
   30MOL0     C 3919   8.699   6.678   2.472 -0.0329 -0.1775  0.3805
   30MOL0     C 3920   8.773   6.698   2.596  0.4288  0.3931  0.5438
   30MOL0     C 3921   8.917   6.691   2.593 -0.2051 -0.0422 -0.1760
   30MOL0     C 3922   8.984   6.661   2.480  0.0450  0.5932  0.0400
   30MOL0     O 3923   9.122   6.655   2.470 -0.1173  0.0722  0.5665
   30MOL0     C 3924   9.202   6.655   2.585  1.5206 -1.1252  0.2489
   30MOL0     C 3925   9.353   6.645   2.544 -0.5877 -0.3345 -0.2151
   30MOL0     C 3926   9.384   6.520   2.470  0.2654  0.8913  0.0690
   30MOL0     C 3927   9.349   6.398   2.560  0.4416  0.0039  0.7276
   30MOL0     C 3928   9.397   6.267   2.496  0.4490 -0.4911 -0.0727
   30MOL0     C 3929   9.365   6.147   2.591 -0.3339 -0.0485 -0.6524
   30MOL0     C 3930   9.451   6.022   2.576  0.4952  0.3396 -0.1246
   30MOL0     C 3931   9.583   6.037   2.646  0.5810 -0.2610  0.1587
   30MOL0     N 3932   9.674   6.122   2.574  0.4051  0.3448 -0.4484
   30MOL0     C 3933   9.734   6.233   2.628 -0.0154  0.0695  0.0299
   30MOL0     C 3934   9.820   6.272   2.533 -0.2129  0.5495 -0.0780
   30MOL0     C 3935   9.918   6.387   2.549  0.6448 -0.6402 -0.1381
   30MOL0     C 3936   9.973   6.442   2.422  0.7886 -1.4495 -0.1504
   30MOL0     C 3937  10.100   6.524   2.444  0.0366  1.0093  0.5483
   30MOL0     C 3938  10.222   6.419   2.437 -0.4411 -1.5304 -0.1413
   30MOL0     O 3939  10.339   6.500   2.472  0.2632  0.2194 -0.3779
   30MOL0     C 3940  10.457   6.436   2.449  0.5994  0.9027  0.8733
   30MOL0     C 3941  10.564   6.510   2.492 -0.0564  0.1595 -0.3419
   30MOL0     C 3942  10.695   6.459   2.489 -0.1236  0.5084 -0.2813
   30MOL0     C 3943  10.717   6.321   2.448 -0.9752 -0.1380 -0.6124
   30MOL0     C 3944  10.848   6.241   2.459 -0.1757 -0.5177  0.1993
   30MOL0     O 3945  10.963   6.308   2.475  0.5016 -0.1981  0.9889
   30MOL0     C 3946  11.084   6.242   2.481  0.5827 -0.3478 -0.5196
   30MOL0     C 3947  11.118   6.173   2.590  0.0637  0.2096  0.8275
   30MOL0     C 3948  11.246   6.123   2.609  0.7006  0.3234  0.0605
   30MOL0     C 3949  11.340   6.130   2.503  0.7329  0.0356 -0.5891
   30MOL0     O 3950  11.464   6.084   2.514 -0.8680  0.1695  0.3354
   30MOL0     C 3951  11.522   6.071   2.643  0.2430  0.4078 -0.3624
   30MOL0     C 3952  11.566   6.203   2.703 -0.3526  0.2750  0.6727
   30MOL0     C 3953  11.669   6.286   2.627  0.1862 -0.1920 -0.8738
   30MOL0     C 3954  11.805   6.212   2.612  0.0958  1.0598 -0.1871
   30MOL0     C 3955  11.910   6.286   2.520  0.1652  1.1787 -0.1120
   30MOL0     C 3956  11.876   6.246   2.375  0.1233  0.1486  0.4019
   30MOL0     C 3957  11.997   6.205   2.296 -0.8212  0.2993 -0.3712
   30MOL0     C 3958  12.074   6.335   2.254  0.1625 -1.5872 -0.1820
   30MOL0    Cl 3959  11.998   6.430   2.125  0.1224  0.0477 -0.1675
   30MOL0     C 3960  11.308   6.206   2.386  0.1123  0.6198 -1.3677
   30MOL0     C 3961  11.179   6.265   2.379  0.8308  0.3684  0.6791
   30MOL0     O 3962  10.842   6.118   2.460 -0.0220 -0.4206  0.5185
   30MOL0     C 3963  10.603   6.250   2.407 -0.3428  0.5338 -0.6224
   30MOL0     C 3964  10.474   6.299   2.420  0.7745  0.6154  0.1327
   30MOL0     N 3965   9.805   6.190   2.423 -0.2173 -0.3220 -0.1888
   30MOL0     N 3966   9.711   6.104   2.448 -0.4582 -0.1516  0.2349
   30MOL0     C 3967   8.906   6.646   2.367  0.8516  0.2021  0.4807
   30MOL0     C 3968   8.765   6.652   2.360 -0.1609 -0.1258  0.3432
   30MOL0     C 3969   8.366   6.844   2.509 -0.3551  1.0339  0.9175
   30MOL0     C 3970   8.303   6.946   2.589  1.6367  0.4429 -0.0087
   30MOL0     C 3971   8.164   6.951   2.586 -0.4223  0.3535  0.6854
   30MOL0     C 3972   8.087   6.865   2.504  0.9282  0.2129 -0.6021
   30MOL0     O 3973   7.948   6.875   2.494 -0.5589  1.2576 -0.3998
   30MOL0     C 3974   7.877   6.756   2.484  0.2974  0.5289 -0.6168
   30MOL0     C 3975   7.733   6.791   2.480 -0.1057 -1.0844 -0.2140
   30MOL0     C 3976   7.697   6.894   2.361  0.3176  1.0306 -1.0224
   30MOL0     C 3977   7.705   7.040   2.396  0.6799 -0.6318 -0.6425
   30MOL0     C 3978   7.620   7.119   2.304 -0.1723  1.0673  0.4862
   30MOL0     C 3979   7.555   7.175   2.224  0.8992  0.0308 -0.1892
   30MOL0     C 3980   8.155   6.791   2.417 -0.3474  0.5841  0.2629
   30MOL0     C 3981   8.293   6.768   2.412  0.6633  0.5912  0.8591
   30MOL0     C 3982   8.339   6.663   2.309  0.4193  0.1269  0.0494
   30MOL0     H 3983   8.710   6.708   2.684  0.0358 -1.4019  0.5005
   30MOL0     H 3984   8.973   6.711   2.685  0.8798  0.4364 -0.9096
   30MOL0     H 3985   9.195   6.750   2.639 -0.5010 -1.0558 -0.0784
   30MOL0     H 3986   9.176   6.573   2.652 -1.6170 -1.6199 -1.4194
   30MOL0     H 3987   9.408   6.653   2.638 -2.5666 -0.6322  1.0298
   30MOL0     H 3988   9.378   6.735   2.487 -1.1857  0.7136  1.1272
   30MOL0     H 3989   9.491   6.529   2.451 -0.0982  3.4302 -1.2177
   30MOL0     H 3990   9.335   6.512   2.372 -2.9784 -0.6263  1.6733
   30MOL0     H 3991   9.407   6.414   2.652 -1.5223  1.6149  1.7562
   30MOL0     H 3992   9.244   6.377   2.584 -0.1606  1.3417 -0.5683
   30MOL0     H 3993   9.333   6.245   2.410 -0.5361  1.8382 -0.0063
   30MOL0     H 3994   9.502   6.264   2.466  0.0816 -0.4929 -1.4538
   30MOL0     H 3995   9.371   6.171   2.698  0.0995 -0.1343 -0.6551
   30MOL0     H 3996   9.266   6.107   2.569 -0.5671 -0.4523  1.0431
   30MOL0     H 3997   9.457   5.997   2.470 -2.4503 -3.9402  0.4394
   30MOL0     H 3998   9.398   5.937   2.620  1.4195 -0.4895 -0.5688
   30MOL0     H 3999   9.568   6.080   2.746 -1.7769 -2.4929  0.8766
   30MOL0     H 4000   9.637   5.943   2.656 -2.2678 -2.2806 -1.7377
   30MOL0     H 4001   9.719   6.274   2.728 -1.3737  0.8307 -0.4564
   30MOL0     H 4002   9.859   6.471   2.586 -1.4433 -0.5036 -3.3810
   30MOL0     H 4003   9.998   6.351   2.615  1.1523 -2.6316 -1.7345
   30MOL0     H 4004   9.998   6.361   2.353  0.0977 -0.4377 -1.6610
   30MOL0     H 4005   9.895   6.503   2.374  0.4388 -2.7415 -1.2759
   30MOL0     H 4006  10.109   6.573   2.541  0.5345  2.4072 -0.1830
   30MOL0     H 4007  10.118   6.592   2.360  3.9495 -2.0136 -1.4540
   30MOL0     H 4008  10.229   6.376   2.337  1.9294 -2.7583  0.4693
   30MOL0     H 4009  10.219   6.339   2.511 -1.2518  0.4226  2.0751
   30MOL0     H 4010  10.546   6.609   2.532  1.5468  0.2564  0.2120
   30MOL0     H 4011  10.768   6.532   2.523  1.0287 -0.4408 -0.6476
   30MOL0     H 4012  11.045   6.160   2.669 -0.0014 -1.8720  0.5018
   30MOL0     H 4013  11.248   6.065   2.701 -0.5869 -1.8924 -1.2251
   30MOL0     H 4014  11.462   6.020   2.719  0.0138 -0.1748 -0.9313
   30MOL0     H 4015  11.610   6.007   2.628  0.0226  0.3743 -1.6015
   30MOL0     H 4016  11.475   6.264   2.696 -0.3117  0.1621 -2.4881
   30MOL0     H 4017  11.597   6.198   2.808  1.3896  3.2795  0.4064
   30MOL0     H 4018  11.637   6.322   2.529  1.3586  0.8079 -0.9103
   30MOL0     H 4019  11.694   6.381   2.675 -2.9058 -0.5141  1.7066
   30MOL0     H 4020  11.801   6.108   2.577  5.0913  0.5595  0.0088
   30MOL0     H 4021  11.846   6.206   2.713 -0.3616  2.5095  0.0998
   30MOL0     H 4022  12.008   6.248   2.552 -0.1493  0.2642 -0.2105
   30MOL0     H 4023  11.911   6.396   2.527 -0.9636  1.4525 -2.9599
   30MOL0     H 4024  11.807   6.162   2.371  1.9899 -1.7081  3.0858
   30MOL0     H 4025  11.826   6.334   2.334  0.7605  0.2144 -0.2689
   30MOL0     H 4026  11.987   6.137   2.211  0.9832 -4.1788  2.6375
   30MOL0     H 4027  12.058   6.155   2.371  0.0865  4.4861  2.0395
   30MOL0     H 4028  12.087   6.398   2.342 -0.3832 -3.3084  1.2048
   30MOL0     H 4029  12.175   6.306   2.225 -0.5209 -1.7180 -2.6486
   30MOL0     H 4030  11.374   6.228   2.303  2.0018 -2.7985 -0.9568
   30MOL0     H 4031  11.156   6.330   2.296  2.0563 -0.3383 -0.2336
   30MOL0     H 4032  10.634   6.161   2.354 -1.7389 -0.6683  0.4916
   30MOL0     H 4033  10.392   6.238   2.385 -0.9766  2.0673  1.5569
   30MOL0     H 4034   8.959   6.617   2.277 -0.7554 -2.9192  0.4133
   30MOL0     H 4035   8.709   6.635   2.269  1.0442  0.4258 -0.5181
   30MOL0     H 4036   8.352   7.020   2.650 -0.9499  2.1564  0.1249
   30MOL0     H 4037   8.100   7.021   2.639 -1.1709 -0.2494  0.5989
   30MOL0     H 4038   7.907   6.707   2.577  1.8596  1.8232 -0.4170
   30MOL0     H 4039   7.912   6.686   2.407  1.0136 -0.9113  0.9657
   30MOL0     H 4040   7.700   6.840   2.573  1.3390  0.3737 -0.4125
   30MOL0     H 4041   7.672   6.704   2.456  0.8134 -2.1181  1.0246
   30MOL0     H 4042   7.597   6.864   2.330  0.1018 -1.5343  1.7073
   30MOL0     H 4043   7.760   6.860   2.279 -0.0914  0.9126 -1.2900
   30MOL0     H 4044   7.666   7.043   2.498  1.6285  0.0922 -0.2838
   30MOL0     H 4045   7.809   7.075   2.398  0.8313 -0.9047 -2.2642
   30MOL0     H 4046   7.490   7.212   2.147 -0.7286  1.2497  1.6716
   30MOL0     H 4047   8.101   6.734   2.343  1.0515 -0.5768  0.1020
   30MOL0     H 4048   8.329   6.560   2.345  1.3703 -0.2623 -0.7530
   30MOL0     H 4049   8.288   6.673   2.213 -1.7217 -0.2589  1.0829
   30MOL0     H 4050   8.438   6.681   2.266  0.2580  0.8351 -0.0489
   31MOL0     O 4051   0.415   3.282   3.565  0.1216  0.7777 -0.1667
   31MOL0     C 4052   0.331   3.207   3.617 -0.0585 -0.2000  0.3002
   31MOL0     O 4053   0.356   3.132   3.731 -0.5395  0.3276  0.0634
   31MOL0     C 4054   0.479   3.103   3.776  0.0170  0.3873  0.9265
   31MOL0     C 4055   0.496   3.118   3.919  0.5890  0.1330  0.0634
   31MOL0     C 4056   0.622   3.073   3.975 -0.3947  0.7926 -0.5801
   31MOL0     C 4057   0.723   3.013   3.899 -0.2339 -0.8683  0.4569
   31MOL0     O 4058   0.838   2.963   3.944 -1.2602  0.4169 -0.2410
   31MOL0     C 4059   0.822   2.885   4.068  0.1153 -0.2953 -0.1732
   31MOL0     C 4060   0.953   2.813   4.092 -0.8110  0.7013 -0.2433
   31MOL0     C 4061   0.955   2.751   4.232  0.4326  0.7403 -0.7812
   31MOL0     C 4062   1.095   2.687   4.246  0.1566  0.8323  0.1880
   31MOL0     C 4063   1.096   2.592   4.368 -0.1022  0.3703 -0.1535
   31MOL0     C 4064   1.233   2.516   4.392 -0.7218 -0.3156  0.1949
   31MOL0     C 4065   1.264   2.413   4.280  0.2221  0.4795  0.1190
   31MOL0     C 4066   1.403   2.354   4.294 -0.2820 -0.5709 -0.7528
   31MOL0     N 4067   1.424   2.247   4.203 -0.0006 -0.0254  0.0507
   31MOL0     C 4068   1.425   2.256   4.070 -0.7227 -0.5123  0.7507
   31MOL0     C 4069   1.449   2.128   4.022 -0.5759  0.2079 -0.8680
   31MOL0     C 4070   1.467   2.102   3.874  0.8769 -0.0385 -0.1989
   31MOL0     C 4071   1.590   2.167   3.807  0.3481  1.2197  0.5537
   31MOL0     C 4072   1.605   2.095   3.674  0.4755 -0.1651  0.0135
   31MOL0     C 4073   1.706   2.167   3.584 -0.5362 -0.0290 -0.1576
   31MOL0     O 4074   1.747   2.063   3.492 -0.0189  0.1080 -0.1120
   31MOL0     C 4075   1.871   2.002   3.490 -0.0198 -0.4349 -0.2692
   31MOL0     C 4076   1.875   1.888   3.411 -0.2369 -0.3648 -0.4342
   31MOL0     C 4077   1.980   1.801   3.402  0.6136 -0.0577 -0.1141
   31MOL0     C 4078   2.091   1.831   3.473 -0.5638 -0.0731  1.0883
   31MOL0     C 4079   2.211   1.732   3.465  0.2651 -0.3591 -0.8534
   31MOL0     O 4080   2.316   1.757   3.547 -0.4171  0.5193 -0.3683
   31MOL0     C 4081   2.441   1.690   3.536 -0.1768 -0.4539  0.4084
   31MOL0     C 4082   2.511   1.662   3.418 -0.3068  1.0220 -0.9346
   31MOL0     C 4083   2.651   1.642   3.419  0.1467  0.4018 -0.6127
   31MOL0     C 4084   2.727   1.637   3.537  0.1231 -0.6278  0.5594
   31MOL0     O 4085   2.865   1.624   3.567 -0.1247 -0.0243 -0.2128
   31MOL0     C 4086   2.946   1.560   3.473 -0.3437  0.7953 -0.3040
   31MOL0     C 4087   2.925   1.409   3.488  0.5461  0.8351 -0.3328
   31MOL0     C 4088   3.020   1.320   3.409  0.7067 -0.2549 -0.1191
   31MOL0     C 4089   3.128   1.260   3.490 -1.1556 -0.1416  0.3960
   31MOL0     C 4090   3.226   1.167   3.409  0.4868 -0.0167  0.4614
   31MOL0     C 4091   3.309   1.241   3.297  0.2855 -0.3162  0.4236
   31MOL0     C 4092   3.417   1.147   3.240 -0.4133 -0.7172  0.5512
   31MOL0     C 4093   3.560   1.139   3.313 -0.0539  0.2808  0.7203
   31MOL0    Cl 4094   3.632   1.304   3.312  0.0347  0.2049  0.0765
   31MOL0     C 4095   2.652   1.644   3.657  0.5119 -0.4833  0.6811
   31MOL0     C 4096   2.516   1.687   3.654 -0.5026 -0.1076 -0.1392
   31MOL0     O 4097   2.212   1.651   3.377 -0.0068  0.1931  0.2572
   31MOL0     C 4098   2.093   1.946   3.553  0.8706 -0.6664  0.1027
   31MOL0     C 4099   1.980   2.025   3.576 -0.0072 -0.4986 -0.1162
   31MOL0     N 4100   1.465   2.049   4.129 -0.0294  0.0727  0.2047
   31MOL0     N 4101   1.429   2.116   4.234 -0.0846  0.2383 -0.3930
   31MOL0     C 4102   0.706   3.014   3.761 -0.0623 -0.2866 -0.4418
   31MOL0     C 4103   0.588   3.057   3.701 -0.4558  0.5575  0.6617
   31MOL0     C 4104   0.189   3.212   3.573 -0.2297 -0.0848 -0.1381
   31MOL0     C 4105   0.119   3.096   3.600  0.3150 -0.1290  0.7187
   31MOL0     C 4106  -0.015   3.087   3.567  0.6623 -0.3606 -0.1480
   31MOL0     C 4107  -0.080   3.188   3.506  0.1309  0.1116  0.0130
   31MOL0     O 4108  -0.215   3.165   3.476  0.2390  0.2081 -0.0621
   31MOL0     C 4109  -0.285   3.267   3.403  0.3238  0.9485 -1.0167
   31MOL0     C 4110  -0.422   3.198   3.371  0.7605 -0.0378  0.2301
   31MOL0     C 4111  -0.505   3.295   3.288 -0.3454  0.0939  0.2738
   31MOL0     C 4112  -0.618   3.217   3.203 -0.2509  0.4030 -0.3337
   31MOL0     C 4113  -0.726   3.161   3.286 -0.1290 -0.5959 -0.4413
   31MOL0     C 4114  -0.815   3.117   3.342  0.1562 -0.9547  0.8878
   31MOL0     C 4115  -0.006   3.300   3.469 -0.3042 -0.2745 -0.2732
   31MOL0     C 4116   0.127   3.319   3.505 -0.3307 -0.0476 -0.2752
   31MOL0     C 4117   0.200   3.445   3.476  0.5042  0.3360  0.3757
   31MOL0     H 4118   0.410   3.157   3.973 -1.6559 -1.2555 -2.2801
   31MOL0     H 4119   0.624   3.063   4.083 -0.9866  0.0309 -0.6301
   31MOL0     H 4120   0.809   2.957   4.149  2.4869  1.8709 -1.5644
   31MOL0     H 4121   0.734   2.821   4.061 -1.6259  1.9105  0.4147
   31MOL0     H 4122   1.038   2.881   4.083  0.8477 -0.8832  1.9854
   31MOL0     H 4123   0.966   2.735   4.017 -1.6419 -1.6447  1.9010
   31MOL0     H 4124   0.886   2.667   4.244  0.3926  0.6779 -1.4187
   31MOL0     H 4125   0.925   2.833   4.298  1.8237  0.5924  0.0921
   31MOL0     H 4126   1.116   2.632   4.154 -0.9004  2.2611 -0.9569
   31MOL0     H 4127   1.166   2.767   4.269 -1.8920  2.4793  1.1102
   31MOL0     H 4128   1.076   2.639   4.465 -1.2611 -0.8063  0.1897
   31MOL0     H 4129   1.019   2.518   4.345 -1.0576  1.3965 -0.3247
   31MOL0     H 4130   1.315   2.586   4.408 -1.0190 -0.4154  2.5070
   31MOL0     H 4131   1.238   2.463   4.487 -2.3068  0.3399  0.6826
   31MOL0     H 4132   1.251   2.468   4.186 -0.3256  2.4100  1.2612
   31MOL0     H 4133   1.188   2.335   4.277 -0.5121  1.1897 -0.6056
   31MOL0     H 4134   1.482   2.426   4.273 -1.9917  1.0262 -2.0917
   31MOL0     H 4135   1.413   2.312   4.394 -1.1346 -1.5480 -1.0544
   31MOL0     H 4136   1.423   2.345   4.008 -1.9077 -1.2044 -0.2463
   31MOL0     H 4137   1.481   1.994   3.868 -0.5693 -0.3742  1.6347
   31MOL0     H 4138   1.378   2.124   3.813  1.8896 -3.7586 -3.4272
   31MOL0     H 4139   1.592   2.275   3.789 -3.7426  1.1977 -1.0868
   31MOL0     H 4140   1.675   2.143   3.872 -1.2521  0.4465  2.4550
   31MOL0     H 4141   1.506   2.087   3.627  0.2162 -1.1823  0.7032
   31MOL0     H 4142   1.634   1.993   3.698  2.0670 -0.8387 -4.0627
   31MOL0     H 4143   1.786   2.212   3.643  2.0434  1.2029 -4.1994
   31MOL0     H 4144   1.656   2.246   3.526  1.1052 -0.5133 -2.3810
   31MOL0     H 4145   1.781   1.879   3.357  0.9816  1.3762 -3.0425
   31MOL0     H 4146   1.970   1.717   3.335  1.0300 -0.0864 -0.1425
   31MOL0     H 4147   2.455   1.678   3.326 -1.3823 -0.2006 -0.5298
   31MOL0     H 4148   2.698   1.618   3.324  0.1133 -0.5657 -0.4007
   31MOL0     H 4149   2.923   1.588   3.369 -2.5801 -0.7650 -0.2940
   31MOL0     H 4150   3.053   1.567   3.493  0.0657  0.4622 -2.1444
   31MOL0     H 4151   2.914   1.378   3.592 -3.1006 -0.2549 -0.9085
   31MOL0     H 4152   2.823   1.387   3.456  0.9473 -2.7291  0.4062
   31MOL0     H 4153   2.961   1.240   3.363  0.5712 -0.1952 -0.0488
   31MOL0     H 4154   3.067   1.386   3.335 -0.1346 -0.0061 -0.4395
   31MOL0     H 4155   3.070   1.197   3.557 -0.0120  0.2238  1.7938
   31MOL0     H 4156   3.186   1.327   3.555  0.2431  0.4804 -1.3749
   31MOL0     H 4157   3.164   1.090   3.362  1.0976  0.3489 -1.0172
   31MOL0     H 4158   3.299   1.121   3.476  0.9967  2.3180  1.6100
   31MOL0     H 4159   3.245   1.267   3.212  0.5393  1.0663  0.6233
   31MOL0     H 4160   3.350   1.332   3.341  0.7722 -0.7872  0.9542
   31MOL0     H 4161   3.438   1.172   3.136 -0.0296 -1.1418  0.5245
   31MOL0     H 4162   3.383   1.044   3.253 -3.4977  0.4041  2.4155
   31MOL0     H 4163   3.558   1.114   3.419 -0.3400  0.0141  0.6508
   31MOL0     H 4164   3.627   1.064   3.271  0.7372  0.6703  1.2719
   31MOL0     H 4165   2.716   1.642   3.744 -0.0661  0.7062  1.1533
   31MOL0     H 4166   2.483   1.718   3.752  2.2278 -1.9272  1.5054
   31MOL0     H 4167   2.188   1.960   3.603  0.8450 -1.1218  0.2896
   31MOL0     H 4168   1.979   2.099   3.654 -0.9781  0.0921 -0.6675
   31MOL0     H 4169   0.778   2.952   3.709  0.2841 -2.5716  2.5278
   31MOL0     H 4170   0.580   3.030   3.596  2.1558  0.5845  0.3922
   31MOL0     H 4171   0.166   3.007   3.641  0.9565  0.2227  0.7664
   31MOL0     H 4172  -0.078   3.002   3.594 -0.9820  0.8147 -0.1337
   31MOL0     H 4173  -0.235   3.278   3.306  0.0408  0.5425 -1.2149
   31MOL0     H 4174  -0.293   3.361   3.459 -0.0924  0.7989 -0.8209
   31MOL0     H 4175  -0.462   3.176   3.470  0.0056  1.6433  0.3297
   31MOL0     H 4176  -0.406   3.107   3.312 -0.2646 -1.0239  1.4361
   31MOL0     H 4177  -0.440   3.345   3.216  0.3818  2.4330  2.4066
   31MOL0     H 4178  -0.540   3.377   3.352  2.9560  4.0469 -2.4113
   31MOL0     H 4179  -0.650   3.285   3.123 -0.5642  0.3515 -0.2541
   31MOL0     H 4180  -0.564   3.130   3.165  1.1564  1.3506 -0.5938
   31MOL0     H 4181  -0.913   3.079   3.360 -0.3789 -0.2325 -0.3656
   31MOL0     H 4182  -0.050   3.377   3.406  0.2268  1.0523  0.9220
   31MOL0     H 4183   0.277   3.443   3.399  0.1774 -3.3059 -0.0240
   31MOL0     H 4184   0.129   3.521   3.443 -0.3575 -1.4936 -2.2664
   31MOL0     H 4185   0.246   3.467   3.573  0.6578  0.1431  0.3462
   32MOL0     O 4186   3.996   6.421   7.889  0.2537 -0.1490 -0.7487
   32MOL0     C 4187   3.922   6.504   7.832  0.1264  0.0060  0.6499
   32MOL0     O 4188   3.951   6.576   7.719  0.6038 -0.0189  0.6125
   32MOL0     C 4189   4.077   6.557   7.660 -0.6499 -0.1366 -0.4058
   32MOL0     C 4190   4.178   6.647   7.686  0.2014 -0.2006 -0.1419
   32MOL0     C 4191   4.310   6.619   7.641 -0.4660 -0.1194 -0.2592
   32MOL0     C 4192   4.332   6.511   7.553 -0.2749  0.4472 -0.0023
   32MOL0     O 4193   4.450   6.502   7.488  0.3470  0.1118  0.6282
   32MOL0     C 4194   4.496   6.376   7.425  1.2796  0.4302 -0.9418
   32MOL0     C 4195   4.622   6.411   7.351  0.5839  0.7505 -0.1324
   32MOL0     C 4196   4.681   6.283   7.281 -1.1075 -0.4941 -0.2675
   32MOL0     C 4197   4.829   6.289   7.246 -0.0502  0.2528 -0.9855
   32MOL0     C 4198   4.922   6.338   7.361 -0.7166 -0.0148  0.0665
   32MOL0     C 4199   5.059   6.275   7.338 -0.7389  0.3415  0.2626
   32MOL0     C 4200   5.117   6.297   7.206 -0.4007  0.0410 -1.1110
   32MOL0     C 4201   5.268   6.244   7.212 -1.0212 -0.3945  0.8249
   32MOL0     N 4202   5.297   6.117   7.269  0.7225 -0.2228  0.2445
   32MOL0     C 4203   5.375   6.087   7.367 -0.4906 -0.1526 -0.1555
   32MOL0     C 4204   5.354   5.957   7.385  1.2870  0.6683 -1.1606
   32MOL0     C 4205   5.428   5.861   7.477 -0.0013  0.4884  0.7205
   32MOL0     C 4206   5.377   5.853   7.619 -0.5544  0.5671  0.1030
   32MOL0     C 4207   5.241   5.777   7.623  0.1092 -0.7855  0.2870
   32MOL0     C 4208   5.179   5.822   7.756 -1.1918 -0.2786  0.4125
   32MOL0     O 4209   5.061   5.747   7.790  0.4654 -0.4991 -0.2498
   32MOL0     C 4210   4.937   5.795   7.749 -0.2805  0.4305 -0.1187
   32MOL0     C 4211   4.825   5.737   7.807  0.5778 -0.0647 -0.3099
   32MOL0     C 4212   4.696   5.785   7.775 -0.0516 -0.7643 -0.6525
   32MOL0     C 4213   4.684   5.886   7.678  0.7399 -0.8477 -0.3052
   32MOL0     C 4214   4.545   5.934   7.657  0.4792  0.3067 -0.5809
   32MOL0     O 4215   4.447   5.884   7.739  0.7027 -0.2468  0.7695
   32MOL0     C 4216   4.314   5.933   7.716  0.6643 -0.4125  0.2353
   32MOL0     C 4217   4.264   6.042   7.786  1.3742  0.4228 -0.0799
   32MOL0     C 4218   4.128   6.082   7.754  0.7005 -0.1998  0.0961
   32MOL0     C 4219   4.050   6.021   7.654 -0.7242  0.0316 -0.1232
   32MOL0     O 4220   3.920   6.058   7.631  0.4963  0.4332  0.1173
   32MOL0     C 4221   3.852   6.132   7.731  0.0500  0.1296  0.4456
   32MOL0     C 4222   3.698   6.133   7.696  0.5759  0.7129  0.1567
   32MOL0     C 4223   3.677   6.215   7.571  0.5724  0.0607  0.0259
   32MOL0     C 4224   3.533   6.231   7.540 -0.2718  0.5348  0.3605
   32MOL0     C 4225   3.503   6.314   7.414  0.2384 -0.0104  0.4536
   32MOL0     C 4226   3.560   6.250   7.285  0.2095  0.1985  0.0235
   32MOL0     C 4227   3.508   6.342   7.173  0.3934 -0.3613  0.7266
   32MOL0     C 4228   3.609   6.346   7.056  0.5252  0.5955 -0.1932
   32MOL0    Cl 4229   3.647   6.177   6.991 -0.0492 -0.3328 -0.1806
   32MOL0     C 4230   4.100   5.913   7.592 -0.8437  0.0546  0.1936
   32MOL0     C 4231   4.226   5.869   7.626  0.0351  0.3351  0.6133
   32MOL0     O 4232   4.527   6.022   7.574  0.0267  0.2678 -0.5851
   32MOL0     C 4233   4.796   5.937   7.608 -0.3531  0.1829  0.1326
   32MOL0     C 4234   4.923   5.882   7.642  0.7857 -0.3829  0.1972
   32MOL0     N 4235   5.261   5.908   7.293 -0.0138  0.9723  0.5784
   32MOL0     N 4236   5.233   6.007   7.225 -0.3179  0.0657  0.8221
   32MOL0     C 4237   4.227   6.429   7.515  1.8683  0.2931  0.2320
   32MOL0     C 4238   4.098   6.449   7.568  0.3452  0.4259 -0.4224
   32MOL0     C 4239   3.787   6.531   7.880  1.4545 -0.2086 -0.2979
   32MOL0     C 4240   3.698   6.425   7.906  0.2894 -0.0333  0.1583
   32MOL0     C 4241   3.563   6.439   7.959  0.2160  0.4632 -0.4009
   32MOL0     C 4242   3.515   6.568   7.992 -0.2860 -0.2361 -0.1402
   32MOL0     O 4243   3.387   6.577   8.034  0.4309 -0.3951  0.2233
   32MOL0     C 4244   3.343   6.665   8.135  0.2511  0.0223 -0.7517
   32MOL0     C 4245   3.211   6.617   8.197 -0.5027 -0.1705 -0.5440
   32MOL0     C 4246   3.231   6.498   8.290 -0.4199 -0.6611 -0.4060
   32MOL0     C 4247   3.098   6.484   8.370 -0.3645  0.7077  0.1237
   32MOL0     C 4248   3.098   6.383   8.475  0.0896  0.0076  0.1607
   32MOL0     C 4249   3.091   6.302   8.552  0.1273  0.3575 -0.5191
   32MOL0     C 4250   3.603   6.677   7.973 -0.2609  0.9437 -0.4970
   32MOL0     C 4251   3.730   6.658   7.902  0.9053 -0.6854 -0.8789
   32MOL0     C 4252   3.808   6.784   7.886  0.7815 -0.5045  0.7762
   32MOL0     H 4253   4.145   6.729   7.749 -1.8509  1.1473 -2.7589
   32MOL0     H 4254   4.398   6.676   7.666 -0.5075  0.7702 -2.0026
   32MOL0     H 4255   4.527   6.299   7.496  0.7775  2.0441  1.1276
   32MOL0     H 4256   4.422   6.336   7.354 -0.4236 -2.8685  2.3190
   32MOL0     H 4257   4.689   6.446   7.429 -1.8245  0.8436  2.0217
   32MOL0     H 4258   4.609   6.486   7.272 -0.2718  1.1608  0.3824
   32MOL0     H 4259   4.626   6.265   7.188  0.1040  1.7727 -1.5059
   32MOL0     H 4260   4.668   6.203   7.355 -0.5469  1.2557  1.8320
   32MOL0     H 4261   4.878   6.194   7.222  0.9942  0.3142  0.7687
   32MOL0     H 4262   4.853   6.357   7.164  0.1273  2.5786  0.8977
   32MOL0     H 4263   4.931   6.447   7.359  3.1874 -0.2167 -0.5826
   32MOL0     H 4264   4.896   6.311   7.463  0.1588  2.9272  1.1909
   32MOL0     H 4265   5.135   6.310   7.408  2.5881 -3.2723 -1.1429
   32MOL0     H 4266   5.042   6.169   7.361  0.9744  0.1717  0.9251
   32MOL0     H 4267   5.113   6.403   7.181  2.3739 -0.0614 -2.4518
   32MOL0     H 4268   5.062   6.241   7.131  0.5214 -4.0148  0.9610
   32MOL0     H 4269   5.314   6.255   7.114 -0.6373 -1.0615  0.9225
   32MOL0     H 4270   5.321   6.318   7.273 -1.8684  3.6372 -2.8024
   32MOL0     H 4271   5.454   6.141   7.417 -0.2471  0.4421 -1.1478
   32MOL0     H 4272   5.423   5.764   7.427  2.3092  1.6600 -2.0024
   32MOL0     H 4273   5.534   5.888   7.481  0.3595 -0.9612  2.3434
   32MOL0     H 4274   5.440   5.807   7.696  1.6847  2.6166 -0.3964
   32MOL0     H 4275   5.370   5.960   7.643 -0.5629  0.5171  0.3327
   32MOL0     H 4276   5.263   5.670   7.619  0.1899 -0.7302 -1.6626
   32MOL0     H 4277   5.173   5.797   7.540 -2.5905 -2.9826  1.7610
   32MOL0     H 4278   5.173   5.932   7.758  1.6337  0.0455 -2.0967
   32MOL0     H 4279   5.255   5.797   7.830 -0.0604 -2.6196 -1.4087
   32MOL0     H 4280   4.838   5.667   7.888 -0.3084 -0.1478 -0.2290
   32MOL0     H 4281   4.620   5.736   7.835  3.0538 -1.7776  2.8847
   32MOL0     H 4282   4.328   6.089   7.861 -1.1469 -0.4864  2.8476
   32MOL0     H 4283   4.082   6.165   7.806 -1.2841 -2.0670  1.5184
   32MOL0     H 4284   3.861   6.079   7.827 -0.9462 -0.6694  0.1111
   32MOL0     H 4285   3.885   6.237   7.731 -0.5691  0.3498 -1.2796
   32MOL0     H 4286   3.664   6.029   7.696  0.6281  0.6624  2.1187
   32MOL0     H 4287   3.644   6.180   7.779 -1.6132  2.3051 -1.9760
   32MOL0     H 4288   3.728   6.307   7.599  2.0701 -0.8137  0.2519
   32MOL0     H 4289   3.730   6.182   7.481 -0.4130  1.3309 -1.0577
   32MOL0     H 4290   3.494   6.288   7.624 -4.1660  1.0953 -1.6265
   32MOL0     H 4291   3.482   6.135   7.527 -3.5610  2.0164  1.2457
   32MOL0     H 4292   3.545   6.415   7.419  3.1741 -1.0696 -0.5926
   32MOL0     H 4293   3.394   6.325   7.412  0.0977 -0.0067  3.5220
   32MOL0     H 4294   3.669   6.245   7.282  0.2121  0.2659  0.0154
   32MOL0     H 4295   3.518   6.153   7.258  0.3263  0.6010 -1.7936
   32MOL0     H 4296   3.513   6.448   7.201 -0.3598  0.5927 -2.3161
   32MOL0     H 4297   3.406   6.324   7.140  0.8232  0.0092 -0.8751
   32MOL0     H 4298   3.587   6.413   6.972 -0.1851 -0.1857 -0.6535
   32MOL0     H 4299   3.709   6.374   7.088  2.0407 -3.5638 -0.6647
   32MOL0     H 4300   4.045   5.855   7.518 -0.5288  0.7064 -0.5757
   32MOL0     H 4301   4.266   5.781   7.578  6.0096  1.8277  2.0144
   32MOL0     H 4302   4.779   6.024   7.545  2.1768  1.0753  0.5705
   32MOL0     H 4303   5.004   5.916   7.578  2.2635 -0.1653  2.0901
   32MOL0     H 4304   4.228   6.348   7.443  0.7949  0.8321 -0.4131
   32MOL0     H 4305   4.024   6.373   7.547 -1.2802  2.4331 -2.5230
   32MOL0     H 4306   3.740   6.325   7.903 -0.8410 -0.7125  3.1729
   32MOL0     H 4307   3.513   6.346   7.984 -1.3171  0.7378 -2.1866
   32MOL0     H 4308   3.320   6.763   8.091  1.0716  1.0625  1.0454
   32MOL0     H 4309   3.418   6.682   8.213  1.2008 -1.1744 -1.3751
   32MOL0     H 4310   3.144   6.600   8.112 -0.9970  2.2809 -0.7214
   32MOL0     H 4311   3.175   6.699   8.259 -0.8172  0.1172 -1.0985
   32MOL0     H 4312   3.318   6.519   8.353 -0.8634  1.2307 -0.3614
   32MOL0     H 4313   3.261   6.414   8.227 -0.3503  1.3577 -3.2290
   32MOL0     H 4314   3.072   6.585   8.404 -2.1472  1.1196 -2.1584
   32MOL0     H 4315   3.015   6.462   8.302 -1.2014 -0.9895  1.6045
   32MOL0     H 4316   3.080   6.219   8.619 -1.4523 -0.2602 -1.4761
   32MOL0     H 4317   3.570   6.778   7.995 -0.3066  0.7895  0.1633
   32MOL0     H 4318   3.758   6.855   7.820  1.5982  0.5819  1.3076
   32MOL0     H 4319   3.816   6.825   7.988  0.6305  0.1436  0.5321
   32MOL0     H 4320   3.912   6.763   7.862  1.1457 -0.2929  2.0814
   33MOL0     O 4321   6.582   7.926   1.669 -0.1966 -0.0123  0.0836
   33MOL0     C 4322   6.489   7.869   1.726 -0.1053 -0.9397 -0.1656
   33MOL0     O 4323   6.474   7.881   1.858  0.8390  0.1433 -0.5194
   33MOL0     C 4324   6.535   7.976   1.941  0.6832  1.2028  0.1893
   33MOL0     C 4325   6.535   7.923   2.076  0.4146  0.3859 -0.2427
   33MOL0     C 4326   6.619   7.989   2.172  0.5737 -0.3233 -0.0556
   33MOL0     C 4327   6.690   8.110   2.148  0.0520  0.3091  0.0816
   33MOL0     O 4328   6.785   8.159   2.234  0.0691 -0.3450 -0.8886
   33MOL0     C 4329   6.784   8.298   2.271 -0.4378  0.6025 -0.6865
   33MOL0     C 4330   6.900   8.320   2.367  0.1742  0.0840  0.3096
   33MOL0     C 4331   6.873   8.271   2.510 -0.1903  0.0570 -0.5020
   33MOL0     C 4332   6.769   8.362   2.586 -0.1991  0.4809 -0.7557
   33MOL0     C 4333   6.768   8.318   2.732  0.2595 -0.5376  0.6201
   33MOL0     C 4334   6.866   8.396   2.819 -0.2350 -0.4875  0.4721
   33MOL0     C 4335   6.841   8.373   2.969  0.6323  0.0455 -0.4008
   33MOL0     C 4336   6.906   8.487   3.063 -0.6386 -0.5612 -0.1420
   33MOL0     N 4337   6.828   8.611   3.055  0.0104  0.3007 -0.8397
   33MOL0     C 4338   6.865   8.725   3.125 -0.2012 -0.1855  0.1392
   33MOL0     C 4339   6.761   8.819   3.112 -0.3275  0.4476 -1.1633
   33MOL0     C 4340   6.756   8.963   3.170  0.3862  0.0653  0.4833
   33MOL0     C 4341   6.894   9.009   3.219  1.1688  0.6928 -0.7681
   33MOL0     C 4342   6.896   9.131   3.315  0.1035 -0.0367  0.0143
   33MOL0     C 4343   7.045   9.169   3.348 -0.0888  0.0616  0.6330
   33MOL0     O 4344   7.115   9.215   3.227 -0.7026  0.2945 -0.1514
   33MOL0     C 4345   7.243   9.250   3.253 -0.1495  0.5796  0.2541
   33MOL0     C 4346   7.312   9.252   3.370 -0.4480 -0.8808 -0.7905
   33MOL0     C 4347   7.446   9.292   3.379  0.7300 -0.5863  0.4794
   33MOL0     C 4348   7.515   9.340   3.267 -0.1006 -0.8583  0.4835
   33MOL0     C 4349   7.654   9.395   3.259 -0.7649  0.5962 -0.2262
   33MOL0     O 4350   7.714   9.422   3.148  0.4914 -0.0375 -0.0383
   33MOL0     C 4351   7.840   9.474   3.135 -0.0345 -0.4627 -0.5875
   33MOL0     C 4352   7.948   9.489   3.226 -0.6908 -0.2880  0.1230
   33MOL0     C 4353   8.065   9.554   3.184 -0.9750 -0.0163 -0.1899
   33MOL0     C 4354   8.085   9.615   3.057 -0.0176 -0.7254 -0.3762
   33MOL0     O 4355   8.207   9.677   3.053  0.1716 -0.1641 -0.0547
   33MOL0     C 4356   8.229   9.769   2.954  0.7966 -0.3195  0.7699
   33MOL0     C 4357   8.366   9.820   2.976  0.2013  0.0651 -0.6611
   33MOL0     C 4358   8.420   9.928   2.880 -0.1275  0.7076 -0.5788
   33MOL0     C 4359   8.558   9.971   2.932 -0.5750 -0.9235  0.9405
   33MOL0     C 4360   8.626  10.082   2.847  0.0597  0.6386  0.3150
   33MOL0     C 4361   8.536  10.208   2.846 -1.0268 -0.0642  1.0938
   33MOL0     C 4362   8.607  10.332   2.794 -0.3506 -0.3327  0.2607
   33MOL0     C 4363   8.699  10.389   2.900 -0.0255  0.1228  0.2100
   33MOL0    Cl 4364   8.793  10.528   2.820 -0.0874 -0.0340 -0.5329
   33MOL0     C 4365   7.985   9.588   2.966  0.5406  0.6388 -0.6869
   33MOL0     C 4366   7.861   9.528   3.010 -0.6736  0.6798 -0.5310
   33MOL0     O 4367   7.696   9.428   3.372 -0.4144 -0.0277  1.0024
   33MOL0     C 4368   7.451   9.334   3.143  0.6355  0.5690 -0.4383
   33MOL0     C 4369   7.317   9.286   3.136 -0.5450 -0.3682 -0.0912
   33MOL0     N 4370   6.664   8.755   3.035 -0.4664  0.1904  0.2950
   33MOL0     N 4371   6.702   8.628   3.010  0.5350 -0.7136  0.4926
   33MOL0     C 4372   6.653   8.171   2.025 -0.5329 -0.5139  0.1454
   33MOL0     C 4373   6.589   8.102   1.923 -0.6545  0.1898  0.6935
   33MOL0     C 4374   6.379   7.791   1.655  0.0170  0.2780 -0.3937
   33MOL0     C 4375   6.278   7.737   1.741 -0.0554 -1.0122  0.1995
   33MOL0     C 4376   6.165   7.678   1.695  0.0569  0.5365  0.2166
   33MOL0     C 4377   6.145   7.660   1.560  0.3689 -0.4773  1.3190
   33MOL0     O 4378   6.042   7.582   1.522 -0.1127  0.1408  0.1742
   33MOL0     C 4379   5.942   7.627   1.422 -0.2714  0.4356 -0.5359
   33MOL0     C 4380   5.802   7.573   1.460 -0.3889 -0.2845  0.0949
   33MOL0     C 4381   5.812   7.442   1.530 -0.1819 -0.1406  0.0682
   33MOL0     C 4382   5.678   7.385   1.574  0.6454  0.9677  0.9332
   33MOL0     C 4383   5.631   7.281   1.472  1.6254 -0.6098 -0.0224
   33MOL0     C 4384   5.572   7.188   1.415 -0.0252  0.7757  0.2448
   33MOL0     C 4385   6.243   7.699   1.473 -0.7476  0.2937 -0.0908
   33MOL0     C 4386   6.359   7.765   1.514  0.1306 -0.3839 -0.5738
   33MOL0     C 4387   6.451   7.838   1.418 -0.0878  0.4193  0.5448
   33MOL0     H 4388   6.491   7.826   2.095  1.2074  0.5367  2.8581
   33MOL0     H 4389   6.649   7.936   2.262  0.2149 -2.8513 -1.3439
   33MOL0     H 4390   6.799   8.359   2.181 -1.9173 -0.3078 -1.5975
   33MOL0     H 4391   6.688   8.320   2.316  0.0664 -1.5597  1.7022
   33MOL0     H 4392   6.917   8.428   2.365  0.1620  0.0768 -0.5413
   33MOL0     H 4393   6.993   8.268   2.339  0.2235  0.2146  0.2331
   33MOL0     H 4394   6.966   8.277   2.567  0.6115  0.8680 -1.8217
   33MOL0     H 4395   6.843   8.166   2.513 -0.4197  0.1436  2.1566
   33MOL0     H 4396   6.795   8.467   2.573  2.9196  0.5887  4.0539
   33MOL0     H 4397   6.669   8.344   2.544 -1.7318 -0.0808  2.7637
   33MOL0     H 4398   6.665   8.333   2.763  0.5245  0.3930  1.0812
   33MOL0     H 4399   6.802   8.214   2.740  0.2746 -0.6347 -0.5790
   33MOL0     H 4400   6.969   8.367   2.797 -0.9686 -1.3844 -2.1785
   33MOL0     H 4401   6.843   8.502   2.806 -0.3253 -0.4838  0.6523
   33MOL0     H 4402   6.879   8.275   2.998  0.8364 -0.7350 -3.1253
   33MOL0     H 4403   6.735   8.370   2.996  1.0839 -2.1586  1.3995
   33MOL0     H 4404   6.904   8.448   3.165 -0.2018 -0.5309 -0.1223
   33MOL0     H 4405   7.012   8.512   3.053 -0.1515 -1.2039  2.5264
   33MOL0     H 4406   6.967   8.739   3.157  0.3127 -1.9338 -0.6525
   33MOL0     H 4407   6.724   9.020   3.082 -1.4020 -0.2513  0.8946
   33MOL0     H 4408   6.680   8.969   3.249  1.0963 -0.7946  1.2546
   33MOL0     H 4409   6.925   8.920   3.275  1.1288 -0.3418 -2.3541
   33MOL0     H 4410   6.969   9.014   3.140  1.8657 -2.7947 -0.5151
   33MOL0     H 4411   6.824   9.117   3.396 -3.9386  2.9704 -2.6464
   33MOL0     H 4412   6.857   9.213   3.254 -2.7432 -1.2980  0.0116
   33MOL0     H 4413   7.095   9.083   3.393 -2.6419 -2.3500 -0.8802
   33MOL0     H 4414   7.044   9.255   3.417 -0.1638  0.4368  0.1697
   33MOL0     H 4415   7.272   9.208   3.460 -2.8756  1.8931 -0.3780
   33MOL0     H 4416   7.490   9.311   3.476  2.9241  0.5815 -0.6480
   33MOL0     H 4417   7.950   9.451   3.328  0.1293  0.2598  0.3164
   33MOL0     H 4418   8.144   9.556   3.258 -1.3410 -1.4462  0.2674
   33MOL0     H 4419   8.231   9.708   2.863  1.6222 -0.6925  1.0224
   33MOL0     H 4420   8.150   9.844   2.946  1.5819  0.3888 -0.5759
   33MOL0     H 4421   8.374   9.857   3.078  0.3536 -0.4656 -0.4778
   33MOL0     H 4422   8.432   9.734   2.966 -1.8923 -1.7967  0.6862
   33MOL0     H 4423   8.430   9.882   2.781  0.8331 -0.7445  0.1599
   33MOL0     H 4424   8.345  10.007   2.880  0.6600  1.4733 -1.1719
   33MOL0     H 4425   8.627   9.886   2.937 -0.2100 -0.6641  0.4169
   33MOL0     H 4426   8.533  10.006   3.032  0.8178 -1.0903  1.3621
   33MOL0     H 4427   8.642  10.048   2.744  1.5776 -3.7977  1.8089
   33MOL0     H 4428   8.718  10.106   2.900 -0.1306  0.2729  0.8185
   33MOL0     H 4429   8.447  10.184   2.786 -0.0745  1.3153 -0.9975
   33MOL0     H 4430   8.506  10.235   2.948 -0.7169  2.1766  0.6386
   33MOL0     H 4431   8.533  10.408   2.766 -0.4439 -0.9774 -1.3242
   33MOL0     H 4432   8.673  10.306   2.711 -0.4093  0.3859 -0.0176
   33MOL0     H 4433   8.635  10.425   2.981 -1.3728 -0.2865 -0.6307
   33MOL0     H 4434   8.771  10.319   2.942  2.7038  1.7298 -1.5066
   33MOL0     H 4435   8.015   9.627   2.869 -1.0487  0.3075 -1.3428
   33MOL0     H 4436   7.775   9.526   2.943  0.1472  0.8171 -1.6243
   33MOL0     H 4437   7.492   9.360   3.046 -1.0489  1.4745 -0.9504
   33MOL0     H 4438   7.269   9.295   3.039  3.5973  0.4209 -2.2643
   33MOL0     H 4439   6.691   8.272   2.014  3.6492 -1.7616  1.4813
   33MOL0     H 4440   6.592   8.146   1.825 -0.8890  1.3184  1.1784
   33MOL0     H 4441   6.289   7.740   1.849 -1.7685  2.1889  0.4044
   33MOL0     H 4442   6.082   7.655   1.761 -1.5866 -1.5959 -2.3886
   33MOL0     H 4443   5.974   7.599   1.321  2.5901  1.2414  0.0543
   33MOL0     H 4444   5.937   7.736   1.421 -0.1892  0.4986  1.7837
   33MOL0     H 4445   5.734   7.568   1.375  1.3471  3.3945 -1.7233
   33MOL0     H 4446   5.756   7.644   1.529 -0.4823 -1.0658  0.8520
   33MOL0     H 4447   5.858   7.471   1.625 -1.1736 -1.3687  0.9598
   33MOL0     H 4448   5.874   7.373   1.473 -0.3566 -1.6919  1.6538
   33MOL0     H 4449   5.697   7.327   1.665 -0.5780  0.6346  0.9941
   33MOL0     H 4450   5.600   7.460   1.590  2.8122  2.8317  3.6212
   33MOL0     H 4451   5.519   7.108   1.367  2.8564 -1.7267  0.9271
   33MOL0     H 4452   6.219   7.693   1.367 -0.4471  3.4701 -0.4627
   33MOL0     H 4453   6.557   7.821   1.438 -0.0188  0.5227  0.2656
   33MOL0     H 4454   6.430   7.789   1.323  2.4776 -1.3076  0.7822
   33MOL0     H 4455   6.445   7.946   1.403  3.8255  0.4813 -1.7830
   34MOL0     O 4456   6.228   2.257   1.234  0.3835  1.0354  0.1044
   34MOL0     C 4457   6.186   2.249   1.116  0.0663  0.3468 -0.3149
   34MOL0     O 4458   6.254   2.301   1.007  0.0938 -0.2609  0.0957
   34MOL0     C 4459   6.386   2.307   1.024  0.0022 -0.0167  0.3834
   34MOL0     C 4460   6.471   2.202   1.063  0.6027 -0.2313 -0.7503
   34MOL0     C 4461   6.605   2.232   1.091 -0.7129 -0.0071 -0.4895
   34MOL0     C 4462   6.667   2.357   1.069  0.5289  0.1861  0.0138
   34MOL0     O 4463   6.794   2.387   1.113 -0.0265  1.0437 -0.6740
   34MOL0     C 4464   6.893   2.281   1.126 -0.0025  0.1919  0.4210
   34MOL0     C 4465   7.023   2.347   1.079 -0.2115  0.9077  0.4825
   34MOL0     C 4466   7.078   2.463   1.166  0.3793  0.6509 -0.1811
   34MOL0     C 4467   7.222   2.494   1.127 -1.0442  0.3967 -0.2458
   34MOL0     C 4468   7.295   2.615   1.199 -1.1505 -0.0071  0.5167
   34MOL0     C 4469   7.436   2.634   1.138 -0.4017 -0.5459 -0.0407
   34MOL0     C 4470   7.502   2.776   1.185 -0.4052  0.2788  0.0163
   34MOL0     C 4471   7.643   2.783   1.131  0.0365 -0.6986  0.0522
   34MOL0     N 4472   7.688   2.928   1.127  0.2102  0.1768  0.0454
   34MOL0     C 4473   7.705   3.001   1.241 -0.0158 -0.0302  0.1303
   34MOL0     C 4474   7.756   3.121   1.193  1.0396 -0.4901 -0.4089
   34MOL0     C 4475   7.817   3.234   1.274 -0.2170  0.3556  0.9192
   34MOL0     C 4476   7.719   3.297   1.376  0.2568  0.5069 -0.2721
   34MOL0     C 4477   7.780   3.361   1.498 -0.1294 -0.3511 -0.2764
   34MOL0     C 4478   7.814   3.256   1.606 -1.2490 -0.3075 -0.1575
   34MOL0     O 4479   7.875   3.318   1.723 -0.4708  0.7868 -0.2058
   34MOL0     C 4480   8.009   3.298   1.725  0.1998 -0.7466  0.8458
   34MOL0     C 4481   8.080   3.301   1.845 -0.5322  0.1982  0.2929
   34MOL0     C 4482   8.214   3.281   1.852 -0.8424  0.2797  0.4568
   34MOL0     C 4483   8.296   3.275   1.731  0.0169 -0.1486 -0.2258
   34MOL0     C 4484   8.440   3.258   1.733  0.3939  0.6884 -0.2496
   34MOL0     O 4485   8.489   3.256   1.605 -1.4988 -0.2313 -0.5618
   34MOL0     C 4486   8.622   3.229   1.593 -0.5274  0.5991  0.0845
   34MOL0     C 4487   8.722   3.309   1.645 -0.4146 -0.4704 -0.8380
   34MOL0     C 4488   8.858   3.286   1.615  0.6132 -0.4958 -1.1022
   34MOL0     C 4489   8.900   3.182   1.533  0.4680  0.3481 -0.1654
   34MOL0     O 4490   9.032   3.165   1.483 -0.1207 -0.3574  0.5921
   34MOL0     C 4491   9.110   3.285   1.463 -0.6120  0.0186 -0.2750
   34MOL0     C 4492   9.235   3.241   1.382 -0.5931 -0.1604  0.2330
   34MOL0     C 4493   9.343   3.339   1.354 -0.0891 -0.5786  1.2254
   34MOL0     C 4494   9.449   3.281   1.255 -0.1072 -0.2348 -0.2282
   34MOL0     C 4495   9.591   3.351   1.280  0.5743 -1.1618  0.0358
   34MOL0     C 4496   9.715   3.282   1.219  0.5253 -0.4787  0.2273
   34MOL0     C 4497   9.702   3.237   1.074 -0.2884  0.5639  0.1035
   34MOL0     C 4498   9.721   3.332   0.962 -0.8829 -0.0077 -0.0384
   34MOL0    Cl 4499   9.852   3.449   0.987  0.1029  0.1672 -0.5177
   34MOL0     C 4500   8.798   3.093   1.482  0.0021 -0.3856  0.7495
   34MOL0     C 4501   8.662   3.117   1.515 -0.4109 -0.0316  0.4318
   34MOL0     O 4502   8.502   3.252   1.845  0.1351 -0.4273  0.3975
   34MOL0     C 4503   8.225   3.268   1.613  0.2450 -0.3215 -0.0056
   34MOL0     C 4504   8.086   3.273   1.611 -0.0837  0.1969 -0.3163
   34MOL0     N 4505   7.761   3.119   1.057 -0.3991 -0.0107  0.2339
   34MOL0     N 4506   7.719   3.005   1.016 -0.2182 -0.3027 -0.0461
   34MOL0     C 4507   6.585   2.452   1.015  0.3986  0.4224  0.7686
   34MOL0     C 4508   6.447   2.428   0.994 -0.4574 -0.4983  0.5994
   34MOL0     C 4509   6.053   2.181   1.089 -0.8035 -0.2565  0.5229
   34MOL0     C 4510   5.984   2.220   0.963 -0.4070  0.0853  0.2918
   34MOL0     C 4511   5.859   2.165   0.928 -0.0726  0.0634 -0.0605
   34MOL0     C 4512   5.806   2.060   1.015 -0.5782 -0.5023  0.1290
   34MOL0     O 4513   5.675   2.026   0.998  0.3222  0.4842  0.0566
   34MOL0     C 4514   5.590   2.055   0.882 -0.0187  0.6328 -0.0108
   34MOL0     C 4515   5.479   1.951   0.868  0.1753 -0.1353 -0.1710
   34MOL0     C 4516   5.363   1.997   0.959  0.6479  0.1938  0.5308
   34MOL0     C 4517   5.233   1.926   0.913 -0.2895 -0.8831 -0.6570
   34MOL0     C 4518   5.121   1.954   1.000  0.1160  0.8717 -0.3073
   34MOL0     C 4519   5.033   1.979   1.073 -0.0162 -0.2786  0.6160
   34MOL0     C 4520   5.874   2.015   1.129  0.7301 -0.9433  0.4409
   34MOL0     C 4521   6.003   2.067   1.162  0.8819 -0.7423 -0.5038
   34MOL0     C 4522   6.072   1.991   1.270  0.3213 -0.9982  0.0668
   34MOL0     H 4523   6.437   2.101   1.084  0.0291  0.0770 -0.1507
   34MOL0     H 4524   6.666   2.153   1.135 -0.5617 -0.1008 -0.8695
   34MOL0     H 4525   6.919   2.259   1.230  3.8500  0.0387 -0.4148
   34MOL0     H 4526   6.867   2.194   1.066  1.0205  0.9251 -1.1395
   34MOL0     H 4527   7.017   2.369   0.972  0.4427  2.6164  0.7634
   34MOL0     H 4528   7.102   2.272   1.085 -0.4842  0.6496  0.8982
   34MOL0     H 4529   7.073   2.454   1.274 -1.6687 -0.7246 -0.3546
   34MOL0     H 4530   7.025   2.558   1.155  1.1623  1.1112 -0.0493
   34MOL0     H 4531   7.286   2.407   1.141 -0.3852  1.1869  1.9485
   34MOL0     H 4532   7.229   2.513   1.019  1.4678 -1.7326 -0.5574
   34MOL0     H 4533   7.242   2.705   1.166  0.0219  0.7314  0.6020
   34MOL0     H 4534   7.305   2.612   1.308 -1.6567  1.4279  0.6243
   34MOL0     H 4535   7.499   2.546   1.156 -0.4097 -1.2639 -3.0429
   34MOL0     H 4536   7.426   2.646   1.030  0.8995  1.1492 -0.0271
   34MOL0     H 4537   7.510   2.785   1.293  1.1317 -2.0779  0.1822
   34MOL0     H 4538   7.443   2.861   1.151 -3.4217 -0.5543  2.7058
   34MOL0     H 4539   7.706   2.713   1.187  0.1246 -3.2778 -2.9759
   34MOL0     H 4540   7.640   2.746   1.028 -2.4344 -2.5300  0.7152
   34MOL0     H 4541   7.686   2.963   1.341 -0.9775  4.1139  1.7736
   34MOL0     H 4542   7.903   3.196   1.329  0.1774  0.0053  0.0592
   34MOL0     H 4543   7.859   3.311   1.209  0.6013 -0.6108  0.2893
   34MOL0     H 4544   7.652   3.363   1.319  1.6162 -0.0776 -2.6909
   34MOL0     H 4545   7.655   3.219   1.418  2.4660 -1.6336 -0.6942
   34MOL0     H 4546   7.710   3.427   1.550  1.9599 -0.6851  3.2851
   34MOL0     H 4547   7.868   3.423   1.479 -1.0194  0.5593 -1.6214
   34MOL0     H 4548   7.857   3.163   1.567 -0.1948 -1.4833  3.4165
   34MOL0     H 4549   7.716   3.217   1.633  0.8133 -3.3306  4.1455
   34MOL0     H 4550   8.029   3.317   1.940 -1.1352 -0.0634  0.0233
   34MOL0     H 4551   8.267   3.285   1.946 -0.2501  0.4895  0.1193
   34MOL0     H 4552   8.709   3.391   1.714  1.2804 -2.0473  1.5109
   34MOL0     H 4553   8.923   3.365   1.653 -1.8431  1.7446 -1.2533
   34MOL0     H 4554   9.046   3.361   1.418  1.8423  1.5664 -1.3022
   34MOL0     H 4555   9.146   3.325   1.558 -0.9224 -1.7959  0.6433
   34MOL0     H 4556   9.280   3.159   1.439 -0.2900  1.0897  1.8651
   34MOL0     H 4557   9.193   3.191   1.295  0.0463  2.2651 -1.5620
   34MOL0     H 4558   9.308   3.438   1.322  4.9967  1.5859  1.2004
   34MOL0     H 4559   9.396   3.366   1.447  4.2246  0.8554 -1.3255
   34MOL0     H 4560   9.430   3.291   1.148  2.6966  1.2903 -0.6744
   34MOL0     H 4561   9.466   3.174   1.274 -0.4797 -0.2279  0.1744
   34MOL0     H 4562   9.614   3.355   1.387  4.7544 -3.2274 -0.6027
   34MOL0     H 4563   9.581   3.455   1.246 -0.3009 -0.7990  1.3190
   34MOL0     H 4564   9.809   3.337   1.235  0.9394 -0.8326 -0.8876
   34MOL0     H 4565   9.723   3.188   1.273  0.9687 -0.5253  0.0856
   34MOL0     H 4566   9.612   3.179   1.049  0.6942 -0.4785 -1.2164
   34MOL0     H 4567   9.782   3.162   1.073  1.3393  2.2264  0.1720
   34MOL0     H 4568   9.753   3.262   0.884 -1.6710  0.6942 -1.0271
   34MOL0     H 4569   9.630   3.388   0.939 -0.4017 -0.1348 -2.5510
   34MOL0     H 4570   8.809   3.020   1.403  1.5974  1.2403 -0.5981
   34MOL0     H 4571   8.584   3.064   1.462  0.5844  0.3569 -1.5430
   34MOL0     H 4572   8.265   3.262   1.512 -0.2401  2.9676 -0.4858
   34MOL0     H 4573   8.045   3.259   1.512  2.5420 -0.5146 -1.3895
   34MOL0     H 4574   6.617   2.555   1.004 -0.5329  0.7520  0.9897
   34MOL0     H 4575   6.377   2.503   0.957 -2.1665 -1.4147  1.8518
   34MOL0     H 4576   6.020   2.300   0.900  1.3179  1.2380  2.6105
   34MOL0     H 4577   5.797   2.195   0.845 -3.2008 -3.2064  0.8183
   34MOL0     H 4578   5.657   2.042   0.796 -1.6290 -2.5083 -0.9146
   34MOL0     H 4579   5.554   2.159   0.884 -0.1599  0.6743 -2.1609
   34MOL0     H 4580   5.515   1.852   0.897  1.1361  0.4297  0.5994
   34MOL0     H 4581   5.450   1.953   0.762 -0.8427  1.1646  0.1028
   34MOL0     H 4582   5.349   2.104   0.942  2.1094 -0.1242 -4.1913
   34MOL0     H 4583   5.398   1.972   1.060  0.0117  1.2677  1.0296
   34MOL0     H 4584   5.205   1.970   0.817 -2.3265  0.2607  0.3957
   34MOL0     H 4585   5.235   1.817   0.912 -3.1320 -1.0509  0.7113
   34MOL0     H 4586   4.961   2.019   1.142  0.1766  2.9957 -0.9160
   34MOL0     H 4587   5.816   1.943   1.186  1.2205 -3.6361 -2.2298
   34MOL0     H 4588   6.178   1.998   1.244 -0.1693  0.8218 -1.6523
   34MOL0     H 4589   6.055   2.038   1.368 -0.7239  0.9798 -1.0174
   34MOL0     H 4590   6.045   1.885   1.262 -0.3638 -0.6889 -2.6775
   35MOL0     O 4591   2.996   2.913   4.220 -0.3048  1.1284 -0.3109
   35MOL0     C 4592   2.991   2.789   4.213 -0.3951  0.4199 -0.3174
   35MOL0     O 4593   3.088   2.699   4.254 -0.4412 -0.3479  0.0462
   35MOL0     C 4594   3.205   2.745   4.305 -0.3622 -0.4212  0.0329
   35MOL0     C 4595   3.218   2.774   4.441 -0.3067  0.5443 -0.2027
   35MOL0     C 4596   3.343   2.825   4.486 -0.4719 -0.1098 -0.2326
   35MOL0     C 4597   3.451   2.845   4.400 -0.1582 -1.2083  0.0317
   35MOL0     O 4598   3.575   2.889   4.440  0.3905  0.3100  0.3888
   35MOL0     C 4599   3.642   3.017   4.402  0.0419  0.4433  0.2446
   35MOL0     C 4600   3.747   3.066   4.507 -0.2592 -0.0107  0.5552
   35MOL0     C 4601   3.694   3.120   4.640  0.9534  0.4982  0.2726
   35MOL0     C 4602   3.798   3.118   4.750  0.3512  0.0858 -1.1202
   35MOL0     C 4603   3.737   3.189   4.880 -0.4702 -0.8946 -0.7983
   35MOL0     C 4604   3.842   3.198   4.985 -0.5223  0.0200  0.5642
   35MOL0     C 4605   3.775   3.260   5.115  1.4901  0.8461  0.2037
   35MOL0     C 4606   3.697   3.160   5.199  0.0188 -0.1726  0.3538
   35MOL0     N 4607   3.790   3.061   5.276  0.1285 -0.2482  0.9241
   35MOL0     C 4608   3.866   2.969   5.223 -0.1501 -0.1252 -0.8347
   35MOL0     C 4609   3.947   2.930   5.326  0.4835  0.3367 -0.0065
   35MOL0     C 4610   4.066   2.839   5.347  0.3682 -0.1576 -0.5070
   35MOL0     C 4611   4.023   2.707   5.410  1.3103 -0.4310 -0.4429
   35MOL0     C 4612   4.135   2.618   5.460 -0.4393  0.3470  0.5190
   35MOL0     C 4613   4.187   2.517   5.358  0.3442 -0.0993  0.5282
   35MOL0     O 4614   4.208   2.571   5.223 -0.1811  0.0887 -0.6934
   35MOL0     C 4615   4.333   2.599   5.183 -0.2267 -0.3572 -0.6989
   35MOL0     C 4616   4.377   2.570   5.049  0.9202 -0.2061  0.2146
   35MOL0     C 4617   4.512   2.593   5.007  0.7442  0.0623  0.0954
   35MOL0     C 4618   4.599   2.657   5.088  0.6516 -0.2199  0.1374
   35MOL0     C 4619   4.740   2.679   5.044  0.2123  0.3784 -0.0036
   35MOL0     O 4620   4.784   2.613   4.933 -0.2859 -0.2218  0.0615
   35MOL0     C 4621   4.917   2.602   4.916 -0.9248 -0.0090 -0.4070
   35MOL0     C 4622   4.998   2.483   4.926  0.0706  0.0969 -0.7193
   35MOL0     C 4623   5.132   2.491   4.892 -0.1965 -0.2910 -0.3502
   35MOL0     C 4624   5.195   2.607   4.849  0.2798 -0.6514 -0.5172
   35MOL0     O 4625   5.321   2.605   4.804  0.6796  0.1974 -0.3997
   35MOL0     C 4626   5.416   2.506   4.834 -0.6852 -1.2064  1.5544
   35MOL0     C 4627   5.562   2.534   4.793  0.5705 -0.1636  0.7168
   35MOL0     C 4628   5.605   2.668   4.854  0.5746  0.1493 -0.4521
   35MOL0     C 4629   5.752   2.665   4.904 -0.7662  0.0293 -0.1520
   35MOL0     C 4630   5.843   2.731   4.795  0.0995 -0.2210 -0.5875
   35MOL0     C 4631   5.987   2.724   4.837 -0.7490  0.2464 -0.2624
   35MOL0     C 4632   6.080   2.786   4.740  0.6607 -0.1249 -0.2487
   35MOL0     C 4633   6.229   2.763   4.771 -0.3189  0.3999 -0.2010
   35MOL0    Cl 4634   6.246   2.582   4.809  0.0491 -0.2588  0.0412
   35MOL0     C 4635   5.113   2.722   4.836 -0.1607 -0.5425 -0.1979
   35MOL0     C 4636   4.975   2.714   4.864  0.4131  0.0209 -0.9232
   35MOL0     O 4637   4.806   2.762   5.108 -1.0947  0.1497  0.3889
   35MOL0     C 4638   4.550   2.701   5.215 -0.6324  0.2540  0.4150
   35MOL0     C 4639   4.424   2.662   5.261  0.1944  0.3235  0.3941
   35MOL0     N 4640   3.902   3.003   5.442  0.0573 -0.2169 -0.0739
   35MOL0     N 4641   3.805   3.077   5.411  0.1022  0.9893  0.1535
   35MOL0     C 4642   3.437   2.806   4.268  0.4212  0.0200  0.0762
   35MOL0     C 4643   3.313   2.761   4.216  0.3017 -0.3559 -0.7892
   35MOL0     C 4644   2.871   2.723   4.134  0.3550 -0.0381 -0.7542
   35MOL0     C 4645   2.873   2.574   4.135  0.2218  0.4920  0.7898
   35MOL0     C 4646   2.799   2.502   4.045  0.1083  0.3309 -0.5373
   35MOL0     C 4647   2.690   2.565   3.989  0.6233  0.4268  0.9280
   35MOL0     O 4648   2.581   2.522   3.922 -0.5343 -0.2174  0.0643
   35MOL0     C 4649   2.588   2.385   3.883 -1.0982  0.1890  0.0849
   35MOL0     C 4650   2.453   2.332   3.842  0.3644 -0.3217  0.2026
   35MOL0     C 4651   2.407   2.380   3.710  1.1673  0.6342 -0.2346
   35MOL0     C 4652   2.489   2.329   3.588 -0.0132  0.3030 -0.1575
   35MOL0     C 4653   2.484   2.183   3.588 -0.0991 -0.4394  0.6893
   35MOL0     C 4654   2.483   2.062   3.618 -1.1603  0.3671 -0.2449
   35MOL0     C 4655   2.677   2.701   4.010  0.2826  0.1731 -0.2458
   35MOL0     C 4656   2.767   2.792   4.065  1.1240 -0.2216  0.2071
   35MOL0     C 4657   2.744   2.947   4.048  0.4517  0.3527 -0.5719
   35MOL0     H 4658   3.142   2.755   4.516  0.7276  1.0751  1.0180
   35MOL0     H 4659   3.364   2.862   4.586 -1.0465 -0.9352  0.2101
   35MOL0     H 4660   3.693   2.995   4.308 -1.8410  1.0927 -0.9787
   35MOL0     H 4661   3.567   3.093   4.380 -0.4902 -0.3237 -0.6991
   35MOL0     H 4662   3.816   3.136   4.459  2.0983 -1.3595  1.8013
   35MOL0     H 4663   3.806   2.980   4.538 -3.1470 -0.6029  5.4447
   35MOL0     H 4664   3.607   3.060   4.670 -0.5243  1.3582 -2.0165
   35MOL0     H 4665   3.655   3.221   4.624 -1.2817 -0.4620 -0.9029
   35MOL0     H 4666   3.838   3.017   4.765 -0.5867 -0.3346 -1.4093
   35MOL0     H 4667   3.890   3.173   4.726  0.6578 -0.0031 -0.2081
   35MOL0     H 4668   3.709   3.290   4.849 -2.7532 -0.8621  1.1493
   35MOL0     H 4669   3.645   3.141   4.914 -0.2621 -0.3530  0.5595
   35MOL0     H 4670   3.885   3.100   5.008 -0.3000  0.1327  0.6301
   35MOL0     H 4671   3.931   3.254   4.953 -1.6374  1.2810 -0.4347
   35MOL0     H 4672   3.706   3.336   5.077 -0.4902 -0.7533  0.4319
   35MOL0     H 4673   3.850   3.312   5.176  0.7475  1.9634  0.1879
   35MOL0     H 4674   3.642   3.224   5.269  0.6986  1.5532 -0.6165
   35MOL0     H 4675   3.622   3.108   5.138  1.1173 -0.7422 -0.5381
   35MOL0     H 4676   3.875   2.923   5.125 -0.6945  0.6642 -1.2598
   35MOL0     H 4677   4.125   2.828   5.255  0.3689  0.3261 -0.5687
   35MOL0     H 4678   4.132   2.894   5.414  1.4601 -0.6550 -1.1237
   35MOL0     H 4679   3.960   2.733   5.496  0.1289  0.3456 -1.5010
   35MOL0     H 4680   3.952   2.658   5.343  1.4636 -0.4418 -0.5987
   35MOL0     H 4681   4.089   2.557   5.538 -1.9408  0.5365 -0.1841
   35MOL0     H 4682   4.215   2.683   5.498  1.4899  0.3949 -3.1666
   35MOL0     H 4683   4.122   2.431   5.340  1.1588 -0.0097 -4.0296
   35MOL0     H 4684   4.284   2.475   5.387  0.7529 -0.6252 -1.4301
   35MOL0     H 4685   4.303   2.525   4.985  2.2869 -1.7791 -0.3236
   35MOL0     H 4686   4.538   2.554   4.909  0.2216 -3.2063  1.1333
   35MOL0     H 4687   4.952   2.387   4.948 -0.9708  0.7029 -0.2196
   35MOL0     H 4688   5.184   2.396   4.893  0.2208 -0.0739  0.5215
   35MOL0     H 4689   5.411   2.492   4.942 -3.4289  0.3349  1.7257
   35MOL0     H 4690   5.375   2.414   4.791 -2.7588  1.4770 -2.8604
   35MOL0     H 4691   5.631   2.453   4.818  1.5433  0.5726  0.4710
   35MOL0     H 4692   5.552   2.536   4.684 -0.3913  1.2275  0.8000
   35MOL0     H 4693   5.585   2.745   4.780  2.3459 -1.2508 -2.4778
   35MOL0     H 4694   5.544   2.691   4.942  2.5153  1.0168  0.7499
   35MOL0     H 4695   5.777   2.562   4.929  1.7512  0.6372  0.1647
   35MOL0     H 4696   5.754   2.727   4.994  0.7493 -1.9583  1.2403
   35MOL0     H 4697   5.818   2.835   4.773 -2.1444 -0.2875  1.2017
   35MOL0     H 4698   5.829   2.676   4.702  0.4829 -1.5602  0.1274
   35MOL0     H 4699   5.996   2.763   4.939  3.3186 -0.5998 -0.1205
   35MOL0     H 4700   6.014   2.619   4.849 -0.6004 -0.0056 -2.5044
   35MOL0     H 4701   6.065   2.895   4.745 -0.4198 -0.3055  0.9405
   35MOL0     H 4702   6.062   2.742   4.642 -0.6052  0.1452 -0.1502
   35MOL0     H 4703   6.292   2.785   4.685 -2.9915 -0.5603 -2.5936
   35MOL0     H 4704   6.255   2.816   4.862  1.4379 -0.1221 -0.3755
   35MOL0     H 4705   5.151   2.815   4.794 -2.1502 -1.0351 -3.3784
   35MOL0     H 4706   4.913   2.801   4.842  1.3263 -0.1573 -4.9506
   35MOL0     H 4707   4.602   2.765   5.285 -2.3026  0.7721  1.2414
   35MOL0     H 4708   4.375   2.707   5.347 -1.8253 -1.4676  0.2879
   35MOL0     H 4709   3.524   2.808   4.204 -0.6667 -0.8423 -1.4675
   35MOL0     H 4710   3.309   2.715   4.118  0.3440  0.9985 -1.4541
   35MOL0     H 4711   2.935   2.511   4.198 -0.3171 -1.1022 -0.2087
   35MOL0     H 4712   2.820   2.396   4.034  3.7875  0.3310  3.7408
   35MOL0     H 4713   2.616   2.321   3.967  2.0689  1.9311  0.4937
   35MOL0     H 4714   2.657   2.366   3.801  2.3231  1.4376  2.4371
   35MOL0     H 4715   2.379   2.348   3.921 -1.2248  2.1939 -1.6251
   35MOL0     H 4716   2.460   2.223   3.835  3.1615 -0.0985 -3.4175
   35MOL0     H 4717   2.401   2.489   3.706 -1.0678  0.5082 -1.8593
   35MOL0     H 4718   2.307   2.336   3.703  2.2547 -2.8644  2.5528
   35MOL0     H 4719   2.434   2.359   3.498  0.9492  1.4717 -0.3803
   35MOL0     H 4720   2.593   2.361   3.577  0.4577 -1.3172 -0.6338
   35MOL0     H 4721   2.475   1.960   3.647 -4.2724  1.2682  2.7005
   35MOL0     H 4722   2.596   2.751   3.958 -0.1862 -0.0244  0.2927
   35MOL0     H 4723   2.740   2.998   4.145 -0.7381 -2.2829  0.8576
   35MOL0     H 4724   2.827   2.989   3.990  2.9274 -1.1057  1.6629
   35MOL0     H 4725   2.647   2.963   4.000  1.1772 -0.1792 -2.2892
   36MOL0     O 4726   5.256   7.847   5.003 -0.1506  0.4069  0.1915
   36MOL0     C 4727   5.259   7.856   5.130 -0.2649 -0.8814  0.5564
   36MOL0     O 4728   5.356   7.803   5.205  0.0609  0.2976  0.2797
   36MOL0     C 4729   5.428   7.688   5.170 -0.4566  0.0088 -0.2235
   36MOL0     C 4730   5.389   7.591   5.076  0.2260  0.3742 -0.0612
   36MOL0     C 4731   5.466   7.482   5.037 -0.1579 -0.0937 -0.5982
   36MOL0     C 4732   5.596   7.479   5.090 -0.1828 -0.3931  0.5409
   36MOL0     O 4733   5.681   7.373   5.064 -1.2830  0.5817  0.6055
   36MOL0     C 4734   5.632   7.262   4.994  1.5787 -0.5036  0.1336
   36MOL0     C 4735   5.739   7.151   4.986 -0.2063 -0.9623 -0.3638
   36MOL0     C 4736   5.864   7.208   4.912 -0.0496  0.4548 -0.1211
   36MOL0     C 4737   5.985   7.180   5.001 -0.8538 -0.2226  0.4867
   36MOL0     C 4738   6.118   7.226   4.948 -0.7117  0.4064  0.4731
   36MOL0     C 4739   6.174   7.341   5.045 -0.1692  0.1924  0.0550
   36MOL0     C 4740   6.319   7.375   5.024  0.1384  0.4812  0.4460
   36MOL0     C 4741   6.365   7.473   5.132  0.4215  0.5691  0.4540
   36MOL0     N 4742   6.508   7.510   5.099  0.3104  0.0766 -0.0632
   36MOL0     C 4743   6.552   7.631   5.051 -0.2700  0.9548  0.3353
   36MOL0     C 4744   6.685   7.613   5.026  0.5205  0.6182  0.4699
   36MOL0     C 4745   6.794   7.711   4.977 -0.2680 -0.8604  0.3120
   36MOL0     C 4746   6.737   7.856   4.977  0.8351  0.1711  0.4115
   36MOL0     C 4747   6.827   7.963   5.014 -0.9320 -0.0246  0.4667
   36MOL0     C 4748   6.936   7.989   4.914 -1.0397  0.8450 -0.1608
   36MOL0     O 4749   7.013   8.102   4.958 -1.0075  0.5612 -0.7705
   36MOL0     C 4750   7.151   8.100   4.949 -0.0839 -0.2687  0.4405
   36MOL0     C 4751   7.216   8.222   4.904 -0.6302  0.0131  0.2325
   36MOL0     C 4752   7.358   8.226   4.889 -0.5513  0.5109  0.6275
   36MOL0     C 4753   7.437   8.115   4.919  0.5729 -0.1565  0.1545
   36MOL0     C 4754   7.588   8.100   4.893  0.3965  1.3502  0.8670
   36MOL0     O 4755   7.655   8.217   4.880 -0.0247  0.1814 -0.3187
   36MOL0     C 4756   7.793   8.227   4.873  0.1669  0.0867  0.7557
   36MOL0     C 4757   7.882   8.136   4.936  0.4261  0.0250  1.2632
   36MOL0     C 4758   8.022   8.152   4.913 -0.5897  0.0621 -0.0865
   36MOL0     C 4759   8.078   8.264   4.842  0.1508 -0.3663  0.3274
   36MOL0     O 4760   8.215   8.283   4.815  0.7850 -0.1286 -0.7061
   36MOL0     C 4761   8.267   8.384   4.724 -0.8750 -0.1892 -0.3970
   36MOL0     C 4762   8.412   8.411   4.773  0.5770 -0.2096  0.1788
   36MOL0     C 4763   8.518   8.339   4.687  0.0986  0.2609 -0.0395
   36MOL0     C 4764   8.585   8.432   4.597 -0.5273  0.3602  0.9167
   36MOL0     C 4765   8.702   8.364   4.525 -0.5355 -0.4000  0.7423
   36MOL0     C 4766   8.772   8.462   4.419 -0.1392 -0.5111  1.0479
   36MOL0     C 4767   8.889   8.393   4.344  0.8512 -0.2002 -0.1946
   36MOL0     C 4768   8.904   8.443   4.196  0.4264 -0.3745 -1.4287
   36MOL0    Cl 4769   8.942   8.620   4.190  0.0867 -0.3102  0.2421
   36MOL0     C 4770   7.983   8.354   4.786  0.5513  0.5583 -0.1663
   36MOL0     C 4771   7.846   8.339   4.807 -0.0199 -0.3329  0.6285
   36MOL0     O 4772   7.633   7.985   4.903 -0.5087 -0.0919 -0.0599
   36MOL0     C 4773   7.366   8.002   4.967  0.2828  0.1753  0.2247
   36MOL0     C 4774   7.226   7.992   4.974 -0.3699 -0.6448  0.3104
   36MOL0     N 4775   6.710   7.473   5.053  0.0031 -1.9667 -0.6016
   36MOL0     N 4776   6.607   7.415   5.091  0.4377 -0.6720 -0.2750
   36MOL0     C 4777   5.645   7.576   5.177  0.4341  1.1747 -0.0429
   36MOL0     C 4778   5.563   7.679   5.213  0.3512  0.4646 -0.5611
   36MOL0     C 4779   5.177   7.964   5.195  0.0972 -0.9893  0.3835
   36MOL0     C 4780   5.137   8.065   5.104  0.2120 -0.0881 -0.0680
   36MOL0     C 4781   5.064   8.176   5.146  0.2774 -0.6767  0.3970
   36MOL0     C 4782   5.020   8.182   5.275 -0.7605  0.2267  0.5299
   36MOL0     O 4783   4.954   8.287   5.332 -0.5929  0.0226  0.8636
   36MOL0     C 4784   4.918   8.396   5.260 -0.5426  1.5225  0.3397
   36MOL0     C 4785   4.836   8.489   5.341  0.7765 -0.0741 -0.2343
   36MOL0     C 4786   4.710   8.423   5.411 -0.2610 -0.2952 -0.3412
   36MOL0     C 4787   4.597   8.369   5.319 -0.2648 -0.2924 -0.2165
   36MOL0     C 4788   4.484   8.331   5.398  0.3453 -0.7773  0.3314
   36MOL0     C 4789   4.381   8.297   5.451 -0.2315  0.0754 -0.6347
   36MOL0     C 4790   5.061   8.081   5.366 -0.5178  0.9886 -0.8249
   36MOL0     C 4791   5.135   7.967   5.325 -0.1220 -0.1416  0.2081
   36MOL0     C 4792   5.181   7.855   5.429 -0.8660  0.0239  0.7638
   36MOL0     H 4793   5.285   7.602   5.047  0.2872  0.4816 -0.2409
   36MOL0     H 4794   5.432   7.414   4.959 -2.6923 -0.3421  0.6263
   36MOL0     H 4795   5.548   7.230   5.058  0.9215  1.0462  0.0769
   36MOL0     H 4796   5.590   7.298   4.899  1.6179  1.1942  0.7310
   36MOL0     H 4797   5.705   7.068   4.924 -2.7709 -1.6551  1.8131
   36MOL0     H 4798   5.765   7.114   5.086  1.3045  0.8642 -0.0099
   36MOL0     H 4799   5.847   7.314   4.890 -1.1534 -0.2973 -3.3531
   36MOL0     H 4800   5.880   7.158   4.817 -1.3171 -0.7575  0.2735
   36MOL0     H 4801   5.971   7.221   5.102 -1.7404  0.0550  0.2577
   36MOL0     H 4802   5.986   7.071   5.003 -4.0519 -0.3743 -0.1116
   36MOL0     H 4803   6.185   7.140   4.960 -1.0873  0.3857  2.9045
   36MOL0     H 4804   6.110   7.264   4.845 -1.4047  0.0137  0.3781
   36MOL0     H 4805   6.106   7.425   5.029 -0.0456  0.5365  1.2582
   36MOL0     H 4806   6.158   7.308   5.148 -2.0802  1.2411  0.1373
   36MOL0     H 4807   6.331   7.426   4.928  0.8567  1.2870  0.9532
   36MOL0     H 4808   6.371   7.279   5.034 -1.0852 -0.3277 -0.6193
   36MOL0     H 4809   6.304   7.564   5.127 -0.0845  0.2523  0.7157
   36MOL0     H 4810   6.347   7.418   5.225 -1.6703 -1.7982 -1.1872
   36MOL0     H 4811   6.503   7.725   5.027 -0.1690  1.0766  0.6051
   36MOL0     H 4812   6.884   7.703   5.040  1.9862 -0.3213 -2.6415
   36MOL0     H 4813   6.827   7.690   4.875  0.8044  0.0432  0.4496
   36MOL0     H 4814   6.671   7.869   4.891 -0.6407  1.6536  1.6893
   36MOL0     H 4815   6.662   7.857   5.057  1.2437 -2.7476  0.9434
   36MOL0     H 4816   6.871   7.944   5.112 -0.9912 -2.9868  0.0006
   36MOL0     H 4817   6.779   8.060   5.026  5.7891  4.1025 -0.6816
   36MOL0     H 4818   6.886   8.006   4.819  1.8374  1.3550 -1.6849
   36MOL0     H 4819   7.005   7.904   4.908 -2.6008 -0.6335  1.4216
   36MOL0     H 4820   7.165   8.315   4.881  1.1306  1.1198  0.6080
   36MOL0     H 4821   7.382   8.314   4.830 -0.8253  0.4745  0.4607
   36MOL0     H 4822   7.846   8.053   4.996  2.2021 -2.7896 -1.2456
   36MOL0     H 4823   8.088   8.073   4.947 -3.6929 -3.0394 -0.6148
   36MOL0     H 4824   8.248   8.351   4.622 -0.4478  0.9042 -0.8497
   36MOL0     H 4825   8.219   8.482   4.733  0.7170  0.4612  2.0864
   36MOL0     H 4826   8.424   8.518   4.786 -2.9545  0.1378  1.7711
   36MOL0     H 4827   8.425   8.370   4.873  0.8905 -1.5130 -0.3744
   36MOL0     H 4828   8.597   8.302   4.754 -0.1917  0.5275  0.4542
   36MOL0     H 4829   8.478   8.259   4.623  1.3021 -0.2124 -0.2410
   36MOL0     H 4830   8.617   8.521   4.652 -0.7370  1.9649 -1.4107
   36MOL0     H 4831   8.516   8.468   4.520  0.7131  0.1084 -0.3587
   36MOL0     H 4832   8.679   8.271   4.471 -0.4314  0.3730 -0.6901
   36MOL0     H 4833   8.771   8.341   4.606 -1.4309 -2.0244  1.1066
   36MOL0     H 4834   8.699   8.486   4.342 -0.3498 -3.7942  0.1044
   36MOL0     H 4835   8.814   8.552   4.466 -0.0327  0.0876 -0.1570
   36MOL0     H 4836   8.883   8.284   4.347  1.5554 -0.2245  1.0976
   36MOL0     H 4837   8.977   8.422   4.403  1.7098  2.1211 -2.4317
   36MOL0     H 4838   8.998   8.401   4.159  1.5108  0.2313  0.4444
   36MOL0     H 4839   8.814   8.412   4.143 -2.5372  0.1307  2.8143
   36MOL0     H 4840   8.014   8.439   4.726  2.1918 -1.4378 -2.3101
   36MOL0     H 4841   7.775   8.411   4.767 -2.1469 -0.3172  4.0309
   36MOL0     H 4842   7.429   7.916   4.988 -0.5805 -0.3788  0.6248
   36MOL0     H 4843   7.188   7.902   5.020 -0.7343 -0.4633  0.3728
   36MOL0     H 4844   5.745   7.575   5.219  0.7614 -0.0154 -0.8254
   36MOL0     H 4845   5.606   7.754   5.279  2.2011 -0.4314 -0.6950
   36MOL0     H 4846   5.159   8.058   4.999 -1.0185  0.2179 -0.3658
   36MOL0     H 4847   5.047   8.258   5.077  1.2329 -0.8822 -0.1012
   36MOL0     H 4848   4.858   8.352   5.180 -2.1793 -1.8179  3.1549
   36MOL0     H 4849   5.001   8.450   5.213 -0.3076 -0.1512 -1.3137
   36MOL0     H 4850   4.793   8.573   5.284  2.4281 -0.3092 -1.9128
   36MOL0     H 4851   4.901   8.534   5.416  1.7351  1.9680 -2.1489
   36MOL0     H 4852   4.670   8.500   5.477  1.8109 -0.6911  1.4879
   36MOL0     H 4853   4.731   8.349   5.489 -2.7725  0.9784  1.6774
   36MOL0     H 4854   4.580   8.451   5.248  0.9195  0.2812  0.1306
   36MOL0     H 4855   4.625   8.286   5.253 -0.2124 -0.7371  0.3640
   36MOL0     H 4856   4.282   8.280   5.486  1.0109 -4.8474  1.2483
   36MOL0     H 4857   5.037   8.085   5.472  1.0946 -0.0822 -0.3838
   36MOL0     H 4858   5.290   7.846   5.424 -0.6732  2.2713 -0.1763
   36MOL0     H 4859   5.131   7.844   5.526 -4.0599 -0.0021 -0.7580
   36MOL0     H 4860   5.146   7.759   5.390  2.2525 -1.5789  1.6091
   37MOL0     O 4861   6.853   5.529   0.936  0.0992 -0.3083  0.4615
   37MOL0     C 4862   6.878   5.409   0.925  0.6631 -1.0113 -0.5596
   37MOL0     O 4863   6.988   5.366   0.871  0.1398  0.3441 -0.0874
   37MOL0     C 4864   7.099   5.450   0.866  0.8221 -0.9386  0.2898
   37MOL0     C 4865   7.217   5.413   0.938 -0.0897  0.1528  0.1226
   37MOL0     C 4866   7.323   5.503   0.955 -0.1181 -0.0881 -0.0066
   37MOL0     C 4867   7.323   5.630   0.884  0.6385  1.0951 -0.5017
   37MOL0     O 4868   7.434   5.701   0.888  0.0916  0.0883  0.0962
   37MOL0     C 4869   7.489   5.741   0.766 -0.2626 -0.3003  0.6933
   37MOL0     C 4870   7.626   5.677   0.715 -0.0619  0.7644  0.3504
   37MOL0     C 4871   7.616   5.524   0.719 -0.5368 -0.0979 -0.0719
   37MOL0     C 4872   7.509   5.459   0.631 -0.5305 -0.3511 -0.2548
   37MOL0     C 4873   7.507   5.299   0.652 -0.1761 -0.6144  0.0945
   37MOL0     C 4874   7.374   5.234   0.610 -0.0385 -0.6377  0.1362
   37MOL0     C 4875   7.331   5.264   0.457 -0.2162 -0.0420 -0.6809
   37MOL0     C 4876   7.205   5.192   0.413  0.2515 -0.3666  0.1428
   37MOL0     N 4877   7.090   5.223   0.504  0.3087  0.2055  0.0788
   37MOL0     C 4878   7.032   5.348   0.518  0.4497  0.5074 -0.0794
   37MOL0     C 4879   6.909   5.327   0.566 -0.2776 -0.0195  0.1552
   37MOL0     C 4880   6.806   5.431   0.551 -0.8181 -0.0708 -0.2886
   37MOL0     C 4881   6.679   5.383   0.620 -0.9103 -0.1409 -0.4670
   37MOL0     C 4882   6.583   5.490   0.669 -0.3063  0.2182 -0.2463
   37MOL0     C 4883   6.467   5.423   0.743  0.9774 -0.2520  0.4802
   37MOL0     O 4884   6.394   5.519   0.821 -0.3514  0.0164  0.2040
   37MOL0     C 4885   6.293   5.472   0.909 -0.6141 -0.4216  0.6545
   37MOL0     C 4886   6.253   5.332   0.943 -0.8313 -1.3817  0.3252
   37MOL0     C 4887   6.140   5.313   1.012  0.0045  0.7385 -0.6264
   37MOL0     C 4888   6.064   5.408   1.067 -0.0663  0.5968 -0.4847
   37MOL0     C 4889   5.933   5.382   1.126 -0.3653  0.3780  0.0227
   37MOL0     O 4890   5.910   5.260   1.173 -0.4145  0.2838  0.1725
   37MOL0     C 4891   5.809   5.237   1.262  1.5346 -0.1930  0.9797
   37MOL0     C 4892   5.681   5.218   1.209  0.4322  0.2107 -0.9675
   37MOL0     C 4893   5.565   5.192   1.288 -0.4862  0.0142  0.2315
   37MOL0     C 4894   5.586   5.188   1.424  0.2873 -0.0315 -0.8105
   37MOL0     O 4895   5.480   5.150   1.504 -0.0974 -0.3945 -0.1450
   37MOL0     C 4896   5.338   5.142   1.459 -0.2254 -0.9878  0.5100
   37MOL0     C 4897   5.243   5.084   1.566  1.1319 -0.0228  0.8273
   37MOL0     C 4898   5.094   5.089   1.519  0.2942 -0.4455 -0.3055
   37MOL0     C 4899   5.010   4.977   1.576 -0.0239 -0.1827 -1.0855
   37MOL0     C 4900   4.868   4.986   1.530  0.8501  0.2117 -0.4738
   37MOL0     C 4901   4.767   4.906   1.621 -0.5722  1.0471  0.1860
   37MOL0     C 4902   4.627   4.912   1.558  0.8149  0.2538 -0.3619
   37MOL0     C 4903   4.626   4.830   1.429 -0.4431  0.7563 -0.0513
   37MOL0    Cl 4904   4.503   4.860   1.309  0.1009  0.3404 -0.4976
   37MOL0     C 4905   5.719   5.195   1.481  0.3032  0.0125  0.3784
   37MOL0     C 4906   5.826   5.230   1.399 -0.0961  0.0378 -0.9160
   37MOL0     O 4907   5.864   5.477   1.146 -0.1089 -0.7682 -0.1374
   37MOL0     C 4908   6.095   5.542   1.046 -0.3138  0.8620  0.2693
   37MOL0     C 4909   6.202   5.572   0.965 -0.0914 -0.2282 -0.2864
   37MOL0     N 4910   6.912   5.196   0.600  0.5359  0.0296  0.8527
   37MOL0     N 4911   7.011   5.129   0.563 -0.3051  0.8101 -0.1310
   37MOL0     C 4912   7.211   5.653   0.808 -0.6278 -1.0609  0.3870
   37MOL0     C 4913   7.106   5.568   0.790  0.6139 -0.1804 -0.0486
   37MOL0     C 4914   6.760   5.320   0.961 -0.7234 -0.1271  0.5979
   37MOL0     C 4915   6.768   5.193   0.910  0.0222  0.8036 -0.5774
   37MOL0     C 4916   6.670   5.098   0.949  0.7809 -0.0729  0.2201
   37MOL0     C 4917   6.563   5.130   1.023  0.4920 -0.9392 -0.9098
   37MOL0     O 4918   6.456   5.046   1.052  0.1595 -0.5607 -0.5256
   37MOL0     C 4919   6.438   4.915   0.990  1.0439  0.1755  0.8742
   37MOL0     C 4920   6.321   4.843   1.061  0.0070 -0.0315  0.1425
   37MOL0     C 4921   6.326   4.689   1.008 -0.0769 -0.1813 -0.0574
   37MOL0     C 4922   6.307   4.682   0.848 -0.2187 -0.6245 -0.0067
   37MOL0     C 4923   6.247   4.551   0.818  0.7411  0.4926 -0.9402
   37MOL0     C 4924   6.179   4.448   0.813  0.6598 -0.2105 -0.6735
   37MOL0     C 4925   6.546   5.264   1.071 -0.0644  0.0454  0.0231
   37MOL0     C 4926   6.654   5.356   1.041  0.2171 -0.4996 -0.8024
   37MOL0     C 4927   6.637   5.495   1.111 -0.1446 -0.3992 -0.2577
   37MOL0     H 4928   7.220   5.321   0.995 -4.7861 -0.3683 -0.0976
   37MOL0     H 4929   7.410   5.486   1.018 -0.6206 -2.2477  0.1912
   37MOL0     H 4930   7.426   5.738   0.676  1.2502  0.3100 -0.4384
   37MOL0     H 4931   7.505   5.848   0.779 -2.2810  0.2531 -0.8699
   37MOL0     H 4932   7.705   5.701   0.786  1.0272  0.2283 -0.6481
   37MOL0     H 4933   7.664   5.712   0.619  2.2472 -1.0942  0.4796
   37MOL0     H 4934   7.601   5.489   0.822  1.4792 -0.5280  0.1276
   37MOL0     H 4935   7.716   5.492   0.688  0.0196 -0.6878  2.0809
   37MOL0     H 4936   7.412   5.505   0.652  0.6775  1.8196  1.0268
   37MOL0     H 4937   7.525   5.487   0.527 -1.6012 -0.8325 -0.5632
   37MOL0     H 4938   7.590   5.259   0.593 -1.7479 -1.1469 -1.8680
   37MOL0     H 4939   7.522   5.262   0.754  1.2638 -0.3968 -0.0085
   37MOL0     H 4940   7.383   5.125   0.618  1.8105 -0.4720  0.8254
   37MOL0     H 4941   7.298   5.278   0.675 -0.3849 -1.2269  0.1407
   37MOL0     H 4942   7.413   5.243   0.389  0.1095 -1.4035  0.1047
   37MOL0     H 4943   7.312   5.372   0.451  2.0544  0.3263 -3.0837
   37MOL0     H 4944   7.189   5.212   0.307 -0.8908  1.9594  0.6860
   37MOL0     H 4945   7.220   5.083   0.419  1.0245 -0.4261 -2.0542
   37MOL0     H 4946   7.059   5.445   0.479 -3.3565  0.7316 -2.7284
   37MOL0     H 4947   6.839   5.524   0.600  3.3075 -1.8376  0.6857
   37MOL0     H 4948   6.789   5.451   0.445 -0.4418  1.7651 -0.0380
   37MOL0     H 4949   6.621   5.321   0.550 -1.7756 -0.5069  0.5497
   37MOL0     H 4950   6.700   5.315   0.703 -3.5617 -3.1386 -2.0190
   37MOL0     H 4951   6.550   5.539   0.578 -0.8167 -1.8881 -1.2710
   37MOL0     H 4952   6.635   5.564   0.731 -2.0086  3.7389 -2.7587
   37MOL0     H 4953   6.508   5.346   0.809 -2.4319 -1.5516  1.3129
   37MOL0     H 4954   6.389   5.382   0.678 -1.9558 -0.0359  3.5749
   37MOL0     H 4955   6.309   5.247   0.905  2.5535  0.9438 -0.2757
   37MOL0     H 4956   6.129   5.210   1.044  0.3113  0.4780 -1.3345
   37MOL0     H 4957   5.671   5.213   1.101 -2.3613  2.0770 -0.9050
   37MOL0     H 4958   5.470   5.175   1.238 -0.0535  0.3767 -0.7423
   37MOL0     H 4959   5.300   5.237   1.421  0.2620 -1.1890 -0.5182
   37MOL0     H 4960   5.330   5.065   1.381 -1.5410 -0.2569 -0.1232
   37MOL0     H 4961   5.266   4.977   1.570  3.9057  0.4879  0.5407
   37MOL0     H 4962   5.262   5.135   1.661 -0.0774  0.6816  0.6970
   37MOL0     H 4963   5.040   5.182   1.538 -0.6609 -0.6152 -1.9238
   37MOL0     H 4964   5.091   5.078   1.410 -0.0361  2.0662 -0.6151
   37MOL0     H 4965   5.023   4.990   1.684  4.3224 -4.0024 -0.8173
   37MOL0     H 4966   5.039   4.873   1.558  1.3524 -0.3002  1.3958
   37MOL0     H 4967   4.873   4.952   1.426 -0.5919 -0.8755 -0.2109
   37MOL0     H 4968   4.830   5.088   1.528  0.1236 -0.0540 -0.5457
   37MOL0     H 4969   4.797   4.803   1.641 -2.4635  0.3794 -0.1732
   37MOL0     H 4970   4.773   4.964   1.713 -1.3288  0.8763  0.3507
   37MOL0     H 4971   4.602   5.014   1.529 -0.5582 -0.9142 -3.8976
   37MOL0     H 4972   4.548   4.889   1.630  0.2097  1.4348 -0.6292
   37MOL0     H 4973   4.716   4.848   1.369 -0.9452  0.0847 -1.0198
   37MOL0     H 4974   4.620   4.725   1.457  1.0758  0.7031  0.1475
   37MOL0     H 4975   5.737   5.181   1.587  2.8283  0.0841  0.0288
   37MOL0     H 4976   5.923   5.242   1.446 -0.4895  0.1611 -0.1083
   37MOL0     H 4977   6.048   5.631   1.088 -0.8288  0.0889  1.3844
   37MOL0     H 4978   6.211   5.672   0.925  4.7480  0.0164  0.6927
   37MOL0     H 4979   7.209   5.745   0.751 -0.9739 -2.1258 -1.4025
   37MOL0     H 4980   7.023   5.603   0.730 -0.8827 -2.6683  0.4242
   37MOL0     H 4981   6.853   5.159   0.853 -0.2879  0.4175 -0.8092
   37MOL0     H 4982   6.687   4.994   0.919 -2.5901 -1.2683  1.9529
   37MOL0     H 4983   6.530   4.856   1.000  1.0795  0.5171  3.1897
   37MOL0     H 4984   6.417   4.935   0.885 -0.9268 -2.7000  0.5885
   37MOL0     H 4985   6.235   4.897   1.021  0.8332 -1.2011 -3.5884
   37MOL0     H 4986   6.310   4.852   1.170  1.4042  0.6488  0.2451
   37MOL0     H 4987   6.259   4.620   1.060  0.3403 -1.4624 -1.1447
   37MOL0     H 4988   6.422   4.644   1.034 -0.9788 -1.8285  0.5730
   37MOL0     H 4989   6.227   4.748   0.813 -0.4416 -1.7229 -1.7122
   37MOL0     H 4990   6.398   4.700   0.790 -1.2169 -2.5347 -2.3695
   37MOL0     H 4991   6.119   4.359   0.802  0.1434  0.1937 -1.2087
   37MOL0     H 4992   6.464   5.301   1.131  1.3803  2.0730  0.8896
   37MOL0     H 4993   6.651   5.573   1.036  4.4702 -0.3970  0.3234
   37MOL0     H 4994   6.539   5.494   1.158  0.7442 -3.0665  1.8394
   37MOL0     H 4995   6.706   5.518   1.193 -0.9207 -2.0530  0.9248
   38MOL0     O 4996   7.553   5.987  11.255 -0.1885  0.7788  0.3469
   38MOL0     C 4997   7.492   5.976  11.361  0.1689  0.0647  0.6751
   38MOL0     O 4998   7.355   5.957  11.367 -0.3595 -0.2173 -0.4533
   38MOL0     C 4999   7.259   6.022  11.295 -0.8276 -0.1625  0.3768
   38MOL0     C 5000   7.130   5.991  11.326  0.0254  0.0788  0.3468
   38MOL0     C 5001   7.018   6.065  11.292 -0.5762 -0.1606  0.8306
   38MOL0     C 5002   7.039   6.174  11.210 -0.3190 -0.0233  0.8223
   38MOL0     O 5003   6.948   6.258  11.167  0.4615 -0.7861  0.2448
   38MOL0     C 5004   6.812   6.259  11.219 -1.0735 -0.1139 -0.1023
   38MOL0     C 5005   6.721   6.336  11.125  0.0393 -0.7330  0.1500
   38MOL0     C 5006   6.777   6.481  11.122  0.0198 -0.6830 -0.8246
   38MOL0     C 5007   6.680   6.567  11.037 -0.4059  0.9464 -1.5124
   38MOL0     C 5008   6.696   6.717  11.035  0.0784 -0.0640 -0.4368
   38MOL0     C 5009   6.572   6.789  10.986  0.0242  0.0167  0.9060
   38MOL0     C 5010   6.549   6.771  10.836 -0.7924  0.9311  0.4533
   38MOL0     C 5011   6.475   6.868  10.756 -0.5664 -0.5906  0.8898
   38MOL0     N 5012   6.340   6.893  10.801 -0.2547  0.3651  0.7534
   38MOL0     C 5013   6.225   6.823  10.781 -0.6356  0.7053 -0.9384
   38MOL0     C 5014   6.137   6.885  10.859 -0.5502 -0.3336 -0.0226
   38MOL0     C 5015   5.996   6.835  10.889 -0.0650 -0.5695 -0.7075
   38MOL0     C 5016   5.982   6.714  10.984 -0.6679  0.1547 -0.3877
   38MOL0     C 5017   5.987   6.735  11.138 -0.3707 -0.0115 -0.2473
   38MOL0     C 5018   5.971   6.604  11.215 -0.1595  0.0953  0.6604
   38MOL0     O 5019   6.089   6.516  11.199  0.8780  0.8489  0.4822
   38MOL0     C 5020   6.193   6.541  11.281 -0.7230  0.6283  0.3679
   38MOL0     C 5021   6.297   6.619  11.253 -0.9427  0.2375 -0.0396
   38MOL0     C 5022   6.414   6.634  11.331  0.1632  1.3582  1.0659
   38MOL0     C 5023   6.412   6.565  11.459 -0.1586  0.3447 -0.2201
   38MOL0     C 5024   6.529   6.575  11.546 -0.3884  0.3776 -0.3822
   38MOL0     O 5025   6.634   6.650  11.491  0.8995 -0.7189  0.7741
   38MOL0     C 5026   6.751   6.656  11.556 -0.8319 -0.0634 -0.3192
   38MOL0     C 5027   6.778   6.674  11.694 -0.2966  0.7071 -0.1851
   38MOL0     C 5028   6.908   6.681  11.742 -0.7722  0.1823  0.2911
   38MOL0     C 5029   7.008   6.659  11.655 -1.4550 -1.0186  0.4479
   38MOL0     O 5030   7.150   6.655  11.688  0.6909 -0.4356 -0.3867
   38MOL0     C 5031   7.200   6.776  11.725  0.5022 -0.5828 -0.5743
   38MOL0     C 5032   7.318   6.762  11.827 -0.1121  0.7562  0.4014
   38MOL0     C 5033   7.352   6.907  11.865  0.2470 -0.3989 -0.3047
   38MOL0     C 5034   7.460   6.906  11.974 -0.0366  0.1092 -0.2693
   38MOL0     C 5035   7.505   7.045  12.012  0.0430  0.4116  0.3356
   38MOL0     C 5036   7.608   7.097  11.902  0.4534  0.9931  0.3542
   38MOL0     C 5037   7.577   7.241  11.871 -0.2924 -0.7211  0.6057
   38MOL0     C 5038   7.663   7.315  11.760 -0.3962 -0.0328 -1.0210
   38MOL0    Cl 5039   7.612   7.485  11.796 -0.0359  0.0422  0.0292
   38MOL0     C 5040   6.983   6.655  11.521 -0.5230 -0.8612  0.0759
   38MOL0     C 5041   6.859   6.652  11.471  0.4100 -0.2130  0.2746
   38MOL0     O 5042   6.530   6.507  11.651  0.8103 -0.3193  0.0789
   38MOL0     C 5043   6.307   6.474  11.482 -0.6936 -0.8606 -0.3235
   38MOL0     C 5044   6.201   6.462  11.401  0.0981  1.0979  0.3641
   38MOL0     N 5045   6.198   7.007  10.909  0.2825  0.1931 -0.2268
   38MOL0     N 5046   6.319   7.010  10.872  0.0309 -0.4989  0.3664
   38MOL0     C 5047   7.170   6.206  11.165 -0.3327  0.1609 -0.0143
   38MOL0     C 5048   7.284   6.138  11.215 -0.1151 -0.1905 -0.4540
   38MOL0     C 5049   7.568   5.984  11.492 -0.5507 -0.4670  0.0143
   38MOL0     C 5050   7.505   5.944  11.610 -0.5743 -0.2944  0.5377
   38MOL0     C 5051   7.577   5.933  11.732  0.5657  0.1745  0.3820
   38MOL0     C 5052   7.703   5.965  11.747  0.4809  0.1903 -0.6994
   38MOL0     O 5053   7.763   5.950  11.871  0.5582  0.2428  0.5836
   38MOL0     C 5054   7.895   6.018  11.884 -0.0956  0.6344 -1.0654
   38MOL0     C 5055   7.948   6.024  12.028  0.8009  0.0071  0.0112
   38MOL0     C 5056   8.096   6.060  12.043 -0.1230 -0.2445  0.2565
   38MOL0     C 5057   8.144   6.187  11.962  0.1074 -0.6541  1.3354
   38MOL0     C 5058   8.276   6.225  12.001  0.2874  0.3307  0.4097
   38MOL0     C 5059   8.371   6.267  12.057 -0.3115  0.3927 -0.4173
   38MOL0     C 5060   7.768   6.017  11.631  0.5649  0.0693  0.2898
   38MOL0     C 5061   7.710   6.021  11.504 -0.4067 -0.7284 -0.5898
   38MOL0     C 5062   7.790   6.076  11.392 -0.3027 -0.5093 -0.2197
   38MOL0     H 5063   7.111   5.911  11.397  0.4702 -2.8250 -2.5612
   38MOL0     H 5064   6.917   6.043  11.324 -0.9500  1.4189  0.8079
   38MOL0     H 5065   6.766   6.160  11.226 -0.9366 -0.2968 -1.4851
   38MOL0     H 5066   6.812   6.298  11.322  1.8113 -0.4160  0.0870
   38MOL0     H 5067   6.614   6.328  11.147  0.0228  0.8185  0.8255
   38MOL0     H 5068   6.739   6.294  11.025 -0.7590 -3.1041  0.9357
   38MOL0     H 5069   6.873   6.491  11.071 -0.8583  1.8979 -2.1149
   38MOL0     H 5070   6.779   6.516  11.226 -1.6491  3.5121 -2.0031
   38MOL0     H 5071   6.697   6.527  10.937  1.6731 -4.5668  0.6870
   38MOL0     H 5072   6.582   6.540  11.076 -0.0984  0.5283 -1.0312
   38MOL0     H 5073   6.706   6.759  11.135  0.0425 -1.5548  0.2243
   38MOL0     H 5074   6.783   6.743  10.974 -2.4561 -0.1287 -4.4676
   38MOL0     H 5075   6.487   6.775  11.053  1.0182 -1.0225  1.9856
   38MOL0     H 5076   6.590   6.897  10.995 -1.9471  0.5726 -0.9266
   38MOL0     H 5077   6.505   6.675  10.807 -1.6583  0.6370  2.5305
   38MOL0     H 5078   6.652   6.763  10.802  0.1095 -0.0752  3.1730
   38MOL0     H 5079   6.524   6.966  10.755  1.5016 -1.4595  3.7662
   38MOL0     H 5080   6.468   6.832  10.653 -0.5407  0.5024  0.4932
   38MOL0     H 5081   6.220   6.731  10.724 -1.6563  0.1140  0.0686
   38MOL0     H 5082   5.929   6.917  10.912  0.0815 -0.9605  1.2337
   38MOL0     H 5083   5.956   6.791  10.797  0.2216 -4.9989  1.0168
   38MOL0     H 5084   5.882   6.679  10.957  0.1850 -0.8181 -2.4890
   38MOL0     H 5085   6.052   6.640  10.946  0.9912  2.7109 -2.6409
   38MOL0     H 5086   5.913   6.810  11.168 -0.5364 -0.9889  2.0118
   38MOL0     H 5087   6.086   6.775  11.161 -0.5368  0.9499 -1.1264
   38MOL0     H 5088   5.884   6.550  11.175 -1.2987  2.7747 -0.7012
   38MOL0     H 5089   5.962   6.625  11.322  0.5633  2.3866  0.3165
   38MOL0     H 5090   6.284   6.670  11.158  0.2575  0.1824 -0.2462
   38MOL0     H 5091   6.503   6.687  11.300  2.6608 -2.9474 -0.0311
   38MOL0     H 5092   6.689   6.698  11.751 -2.0200  0.7456 -2.7311
   38MOL0     H 5093   6.931   6.700  11.846  1.4387 -0.9605  0.0726
   38MOL0     H 5094   7.234   6.833  11.637 -1.4606  0.7834 -0.4997
   38MOL0     H 5095   7.129   6.845  11.772  2.3780  0.6694  0.6065
   38MOL0     H 5096   7.291   6.708  11.918 -0.9009  1.0466  0.3454
   38MOL0     H 5097   7.404   6.702  11.794  0.1103  1.2792  0.0161
   38MOL0     H 5098   7.380   6.974  11.783  1.0306 -0.5042 -0.1300
   38MOL0     H 5099   7.264   6.968  11.888  1.3791  1.5070 -0.7933
   38MOL0     H 5100   7.547   6.848  11.940  0.0331  0.2455 -0.3226
   38MOL0     H 5101   7.422   6.863  12.067  2.3923 -0.1350  0.6933
   38MOL0     H 5102   7.557   7.064  12.107  0.7624  2.5130 -0.4181
   38MOL0     H 5103   7.423   7.118  12.009  0.9727  1.4653 -1.1305
   38MOL0     H 5104   7.705   7.081  11.950 -0.9053 -1.2157  2.6588
   38MOL0     H 5105   7.607   7.037  11.810  4.3449  1.9962 -0.5092
   38MOL0     H 5106   7.580   7.305  11.960  0.3383 -0.0617  0.1209
   38MOL0     H 5107   7.474   7.244  11.836 -0.1933  0.1411  0.3482
   38MOL0     H 5108   7.771   7.300  11.767 -0.2470  0.1157 -2.4779
   38MOL0     H 5109   7.618   7.290  11.663 -2.3026 -0.0802 -0.1706
   38MOL0     H 5110   7.066   6.644  11.450  0.1386 -2.7671  1.0714
   38MOL0     H 5111   6.839   6.660  11.365  0.1110  2.6252  0.4487
   38MOL0     H 5112   6.308   6.430  11.581 -1.1305  4.0993  2.1940
   38MOL0     H 5113   6.122   6.398  11.438  0.2905  0.1849 -0.7520
   38MOL0     H 5114   7.191   6.281  11.088 -3.3881  2.3679  1.0988
   38MOL0     H 5115   7.382   6.179  11.191  0.4476  1.0790  3.3071
   38MOL0     H 5116   7.398   5.925  11.601 -0.2061 -1.4912 -1.9827
   38MOL0     H 5117   7.522   5.895  11.818 -2.0886  0.9431 -0.8625
   38MOL0     H 5118   7.887   6.124  11.856 -0.9391  0.8487 -0.0684
   38MOL0     H 5119   7.974   5.966  11.829 -0.4521 -0.1731 -0.8257
   38MOL0     H 5120   7.917   5.936  12.085 -2.9379 -0.0137 -1.7203
   38MOL0     H 5121   7.883   6.105  12.062 -2.9108 -2.4169 -0.6753
   38MOL0     H 5122   8.148   5.971  12.006  2.2669 -0.6527  4.0745
   38MOL0     H 5123   8.126   6.071  12.147 -3.2869  2.3227  1.0500
   38MOL0     H 5124   8.128   6.179  11.855  0.3566  1.0167  1.1431
   38MOL0     H 5125   8.071   6.266  11.984 -0.7797 -1.2445  0.6040
   38MOL0     H 5126   8.467   6.297  12.093  2.3620 -5.3958 -1.4729
   38MOL0     H 5127   7.877   6.017  11.637  0.6249  0.4323 -0.5921
   38MOL0     H 5128   7.893   6.105  11.415 -0.1043 -1.1879 -0.2195
   38MOL0     H 5129   7.810   6.002  11.314 -1.6718  1.2259 -2.3509
   38MOL0     H 5130   7.738   6.162  11.348 -0.1909 -1.2817 -1.9334
   39MOL0     O 5131   4.098   1.259   3.575 -0.1354  0.6681  0.0499
   39MOL0     C 5132   4.120   1.328   3.673 -0.1982  0.0166 -0.5924
   39MOL0     O 5133   4.239   1.400   3.697 -0.1243 -0.7112  0.3360
   39MOL0     C 5134   4.336   1.401   3.602 -0.1219 -0.0866 -0.4394
   39MOL0     C 5135   4.465   1.414   3.640 -1.2797 -0.7036  1.1424
   39MOL0     C 5136   4.562   1.432   3.543  0.1038  0.0459  0.3225
   39MOL0     C 5137   4.535   1.419   3.406  0.1589 -0.1564  0.3150
   39MOL0     O 5138   4.624   1.445   3.310 -0.0744  0.4106  0.4730
   39MOL0     C 5139   4.734   1.532   3.343  0.1139  0.0160  1.0071
   39MOL0     C 5140   4.783   1.589   3.206  0.0136 -0.0407 -0.2887
   39MOL0     C 5141   4.674   1.664   3.122  0.1603  0.4301  1.3326
   39MOL0     C 5142   4.710   1.630   2.975  0.9983  0.2256 -0.1708
   39MOL0     C 5143   4.637   1.724   2.887  0.7586 -0.0101 -0.2692
   39MOL0     C 5144   4.700   1.729   2.750 -0.7443 -0.4879 -0.1278
   39MOL0     C 5145   4.628   1.828   2.655 -0.5477  0.3445  0.1671
   39MOL0     C 5146   4.658   1.805   2.495 -0.1545 -0.8322 -0.8188
   39MOL0     N 5147   4.806   1.821   2.482  0.2064  0.8187  0.2058
   39MOL0     C 5148   4.874   1.934   2.512 -0.0213 -0.2089  0.0660
   39MOL0     C 5149   4.999   1.906   2.469  0.2056 -0.5892  0.3714
   39MOL0     C 5150   5.124   1.992   2.474  0.0472 -0.1771 -0.5521
   39MOL0     C 5151   5.247   1.913   2.508  0.8214  1.1328 -0.4949
   39MOL0     C 5152   5.332   1.993   2.608 -0.6839  0.3125 -0.0090
   39MOL0     C 5153   5.466   1.928   2.647 -0.5686  0.4893 -0.5796
   39MOL0     O 5154   5.558   1.937   2.537  0.8180 -0.3370 -0.2502
   39MOL0     C 5155   5.653   2.030   2.536  0.7369  0.1476  0.0544
   39MOL0     C 5156   5.703   2.048   2.410 -0.3846  0.0044 -0.1029
   39MOL0     C 5157   5.801   2.148   2.391  0.1475  0.2643 -0.5548
   39MOL0     C 5158   5.850   2.224   2.497 -0.7244 -0.3583  0.7520
   39MOL0     C 5159   5.952   2.335   2.478 -0.1213  0.0928 -0.5625
   39MOL0     O 5160   6.003   2.397   2.587  0.7071  0.8824  0.0428
   39MOL0     C 5161   6.106   2.485   2.572 -0.4396  0.0078 -0.5519
   39MOL0     C 5162   6.227   2.445   2.628 -0.6424 -0.3174 -0.2774
   39MOL0     C 5163   6.340   2.522   2.603 -0.3941 -0.1386  0.1983
   39MOL0     C 5164   6.341   2.644   2.529  0.6889 -0.1520  0.5760
   39MOL0     O 5165   6.451   2.726   2.514  0.7305  0.6848 -0.4593
   39MOL0     C 5166   6.582   2.675   2.508  0.5454 -0.2509 -0.0122
   39MOL0     C 5167   6.671   2.783   2.434  0.3624 -0.2905 -0.8233
   39MOL0     C 5168   6.703   2.909   2.523  0.3651 -0.0228  0.5385
   39MOL0     C 5169   6.800   3.003   2.450  0.5518  0.3922  0.2024
   39MOL0     C 5170   6.860   3.097   2.547 -0.4743  0.1801 -0.0047
   39MOL0     C 5171   6.764   3.161   2.644  0.4443  0.5047  0.3642
   39MOL0     C 5172   6.682   3.272   2.571 -0.0226  0.2318 -0.0027
   39MOL0     C 5173   6.613   3.376   2.657  0.3949 -1.3956  0.3548
   39MOL0    Cl 5174   6.492   3.299   2.768 -0.0869 -0.3718 -0.1934
   39MOL0     C 5175   6.214   2.691   2.503 -0.2417  0.6026  0.6026
   39MOL0     C 5176   6.094   2.614   2.517 -0.2172  1.1430 -0.7988
   39MOL0     O 5177   5.986   2.369   2.364 -0.0940  0.6096 -0.3259
   39MOL0     C 5178   5.813   2.188   2.630 -0.0972 -0.8572 -0.5003
   39MOL0     C 5179   5.709   2.094   2.645 -0.6062 -0.3050  0.2120
   39MOL0     N 5180   5.002   1.783   2.411 -0.1693 -0.3094  0.6612
   39MOL0     N 5181   4.889   1.727   2.423 -0.0023  0.0722  0.0271
   39MOL0     C 5182   4.407   1.415   3.365  0.6907 -0.6060 -0.1573
   39MOL0     C 5183   4.307   1.407   3.460 -0.6343 -0.1310 -0.1225
   39MOL0     C 5184   4.022   1.357   3.779  0.3064  0.3242  0.1424
   39MOL0     C 5185   4.058   1.448   3.876  0.2807 -0.9861  0.4656
   39MOL0     C 5186   3.965   1.482   3.978 -0.3176 -0.5369  1.2581
   39MOL0     C 5187   3.837   1.431   3.979 -0.2423 -0.5311  1.1449
   39MOL0     O 5188   3.754   1.468   4.076  0.8221  0.0438 -0.0282
   39MOL0     C 5189   3.636   1.390   4.111 -0.0151 -0.3936  0.4224
   39MOL0     C 5190   3.516   1.435   4.025  0.4410 -0.2012 -0.4672
   39MOL0     C 5191   3.455   1.574   4.060 -0.6399  0.8555 -0.3850
   39MOL0     C 5192   3.369   1.632   3.945 -0.2666  1.1218  0.3380
   39MOL0     C 5193   3.264   1.541   3.900  0.8708  0.7379 -0.3802
   39MOL0     C 5194   3.169   1.464   3.870 -0.8560 -0.6084 -0.0600
   39MOL0     C 5195   3.807   1.336   3.890 -0.5481 -0.2312  0.0030
   39MOL0     C 5196   3.895   1.302   3.787  0.3199  0.8273  0.0379
   39MOL0     C 5197   3.830   1.216   3.677  0.1321 -0.6222 -0.3607
   39MOL0     H 5198   4.496   1.427   3.743 -0.6795  0.8568  0.8030
   39MOL0     H 5199   4.664   1.440   3.580  0.1506  1.9214 -0.0588
   39MOL0     H 5200   4.695   1.607   3.412  0.3022  0.0508  1.0754
   39MOL0     H 5201   4.817   1.477   3.389  2.7784  3.8972  1.3081
   39MOL0     H 5202   4.823   1.507   3.147  2.3750  0.5840  0.3522
   39MOL0     H 5203   4.853   1.671   3.224  0.8671 -0.9412  0.5574
   39MOL0     H 5204   4.680   1.772   3.135  1.5832  0.5447 -0.0692
   39MOL0     H 5205   4.577   1.616   3.136  0.6616 -1.5487 -1.2330
   39MOL0     H 5206   4.819   1.642   2.972  0.9721  0.5509  0.1900
   39MOL0     H 5207   4.678   1.526   2.961  1.5430  0.1621 -1.0378
   39MOL0     H 5208   4.531   1.699   2.888  0.5102  0.8722  2.3020
   39MOL0     H 5209   4.620   1.818   2.939  1.7551 -0.0936  0.2513
   39MOL0     H 5210   4.806   1.753   2.761 -0.9729  1.1720 -1.2693
   39MOL0     H 5211   4.683   1.631   2.705 -0.5413 -1.0722  1.0291
   39MOL0     H 5212   4.659   1.931   2.678  0.5330 -0.0466  0.4922
   39MOL0     H 5213   4.519   1.826   2.666 -0.7131  1.1258 -1.1848
   39MOL0     H 5214   4.623   1.707   2.462 -0.3823 -1.3407  0.8508
   39MOL0     H 5215   4.606   1.874   2.428  1.0299 -0.9148 -1.8416
   39MOL0     H 5216   4.834   2.019   2.566  3.6662  1.0467  1.1081
   39MOL0     H 5217   5.146   2.026   2.373  1.3600 -1.1921 -0.6371
   39MOL0     H 5218   5.101   2.073   2.544  0.5082 -1.3030  0.9751
   39MOL0     H 5219   5.212   1.818   2.548 -1.3475  1.5333 -1.3106
   39MOL0     H 5220   5.301   1.876   2.421 -0.7234  0.2753 -1.1277
   39MOL0     H 5221   5.283   1.998   2.706 -1.3994 -1.0902 -0.2539
   39MOL0     H 5222   5.362   2.089   2.566 -0.0598 -0.5579 -1.6693
   39MOL0     H 5223   5.440   1.823   2.663 -1.1572  0.5371 -1.1811
   39MOL0     H 5224   5.509   1.964   2.741 -0.9453  0.1679 -0.2805
   39MOL0     H 5225   5.654   1.993   2.330 -1.9742 -0.3355  1.0378
   39MOL0     H 5226   5.830   2.167   2.289  0.3506  0.5889 -0.4379
   39MOL0     H 5227   6.229   2.348   2.678  1.9162  1.0571  2.5902
   39MOL0     H 5228   6.436   2.480   2.631  0.1922  0.2209 -1.1413
   39MOL0     H 5229   6.606   2.647   2.611 -0.1689  0.5112  0.3733
   39MOL0     H 5230   6.581   2.587   2.443  4.1598 -1.0821  0.8772
   39MOL0     H 5231   6.767   2.739   2.402 -1.0753 -3.4718 -1.1957
   39MOL0     H 5232   6.625   2.813   2.339  1.2851 -1.2011 -1.5869
   39MOL0     H 5233   6.610   2.955   2.559  0.1416 -0.3635  0.4047
   39MOL0     H 5234   6.756   2.878   2.614 -1.4383 -0.6486  1.4439
   39MOL0     H 5235   6.733   3.050   2.377 -1.5567 -1.9440  0.5005
   39MOL0     H 5236   6.869   2.956   2.380  0.2251  2.3489 -1.5441
   39MOL0     H 5237   6.914   3.172   2.489  0.8245 -1.4769 -1.0255
   39MOL0     H 5238   6.938   3.049   2.607 -0.5309 -0.6635 -0.5821
   39MOL0     H 5239   6.692   3.089   2.683 -1.8635  2.1069 -0.7443
   39MOL0     H 5240   6.817   3.205   2.729 -3.3992 -0.4175  3.5075
   39MOL0     H 5241   6.603   3.233   2.505 -1.3463  2.4350  0.1873
   39MOL0     H 5242   6.753   3.327   2.509  0.4275  1.2377  1.3691
   39MOL0     H 5243   6.692   3.421   2.718  2.0231 -0.6418 -2.1436
   39MOL0     H 5244   6.575   3.453   2.589  0.4004 -3.1031 -1.7079
   39MOL0     H 5245   6.211   2.797   2.482 -0.7135  1.7648  5.3904
   39MOL0     H 5246   5.990   2.644   2.509 -1.5433 -1.8300  2.8136
   39MOL0     H 5247   5.841   2.236   2.723  0.3367  0.6767 -1.3947
   39MOL0     H 5248   5.673   2.078   2.746 -0.3306 -1.7412  0.1073
   39MOL0     H 5249   4.388   1.415   3.258  0.5710 -1.3567 -0.1420
   39MOL0     H 5250   4.202   1.416   3.433 -0.0603 -0.3585 -2.6296
   39MOL0     H 5251   4.156   1.492   3.883  0.3641 -0.7114 -1.7007
   39MOL0     H 5252   3.984   1.563   4.047 -0.2743  3.0888 -2.6518
   39MOL0     H 5253   3.610   1.415   4.214  3.3246 -1.7326  1.7227
   39MOL0     H 5254   3.653   1.282   4.108 -2.4775 -0.8174 -1.8583
   39MOL0     H 5255   3.445   1.352   4.036  1.3970 -1.4200 -2.7985
   39MOL0     H 5256   3.561   1.443   3.925  1.4927  2.8061  0.1435
   39MOL0     H 5257   3.545   1.636   4.065  1.5116 -2.0565 -0.1083
   39MOL0     H 5258   3.411   1.577   4.160 -0.3943  0.2282 -0.2486
   39MOL0     H 5259   3.325   1.727   3.975 -0.5623  0.8730  0.7026
   39MOL0     H 5260   3.440   1.644   3.862 -0.6350  3.3749  0.2714
   39MOL0     H 5261   3.086   1.400   3.849 -0.9612 -0.1313 -1.1446
   39MOL0     H 5262   3.710   1.287   3.900 -0.0465 -0.8064  3.5100
   39MOL0     H 5263   3.901   1.138   3.650  0.1111 -0.9969  0.6269
   39MOL0     H 5264   3.732   1.183   3.713 -0.2021  1.3524  0.7239
   39MOL0     H 5265   3.806   1.278   3.590 -0.5331  0.8114  0.7897
   40MOL0     O 5266   0.765   0.184  10.998  0.1214  0.0265 -0.1100
   40MOL0     C 5267   0.842   0.111  10.933  0.8175 -0.1734  0.5033
   40MOL0     O 5268   0.978   0.108  10.940 -1.0026  0.8472 -0.0182
   40MOL0     C 5269   1.039   0.212  11.002 -0.3593 -0.7031 -0.5315
   40MOL0     C 5270   1.149   0.279  10.934  0.1561 -0.7523 -0.1484
   40MOL0     C 5271   1.200   0.394  10.983 -0.5269  0.5106  0.7362
   40MOL0     C 5272   1.162   0.455  11.102 -0.0823 -0.0372  0.0227
   40MOL0     O 5273   1.216   0.578  11.143 -0.0858 -0.5755  0.5376
   40MOL0     C 5274   1.221   0.605  11.282 -0.2186  0.5582 -0.0736
   40MOL0     C 5275   1.308   0.725  11.322 -0.6200 -0.3306  0.2407
   40MOL0     C 5276   1.391   0.698  11.452  0.5077 -1.0150 -1.2073
   40MOL0     C 5277   1.518   0.611  11.429 -0.2904  0.7265  0.5154
   40MOL0     C 5278   1.590   0.580  11.563 -0.5113 -0.3330  0.6063
   40MOL0     C 5279   1.716   0.493  11.537  0.3206 -1.1814 -0.0010
   40MOL0     C 5280   1.676   0.341  11.549 -0.9486 -0.3951 -0.2233
   40MOL0     C 5281   1.638   0.295  11.688  0.3251  0.3497 -0.8203
   40MOL0     N 5282   1.632   0.146  11.694 -0.7969  0.5977 -0.1607
   40MOL0     C 5283   1.524   0.070  11.703 -0.1507  0.0547  0.3419
   40MOL0     C 5284   1.560  -0.057  11.713 -0.6181  0.1060  1.7804
   40MOL0     C 5285   1.465  -0.175  11.719 -0.0524 -0.2306 -0.5175
   40MOL0     C 5286   1.424  -0.197  11.867  0.8283 -0.2439  0.5177
   40MOL0     C 5287   1.500  -0.314  11.929 -0.4873 -0.1603 -1.1554
   40MOL0     C 5288   1.643  -0.261  11.980 -0.2069  0.3505  0.0143
   40MOL0     O 5289   1.708  -0.374  12.043 -0.5822  0.0160  0.4015
   40MOL0     C 5290   1.846  -0.373  12.074  0.6518  0.1597  0.3190
   40MOL0     C 5291   1.916  -0.257  12.099 -0.2941 -0.2592 -0.0337
   40MOL0     C 5292   2.043  -0.261  12.133 -0.9015  0.3494 -0.6998
   40MOL0     C 5293   2.116  -0.391  12.157 -0.1964  0.3240  0.2434
   40MOL0     C 5294   2.264  -0.397  12.209  0.1396 -0.0616 -0.1008
   40MOL0     O 5295   2.337  -0.279  12.201  0.7355  0.2654  0.9523
   40MOL0     C 5296   2.475  -0.285  12.228  0.1464 -0.9870  0.4361
   40MOL0     C 5297   2.574  -0.288  12.123  0.1559 -0.0552  0.2152
   40MOL0     C 5298   2.720  -0.313  12.135  0.2434 -0.1997 -0.5517
   40MOL0     C 5299   2.763  -0.313  12.271  0.3752 -0.4716 -0.0743
   40MOL0     O 5300   2.889  -0.340  12.293  0.4821  0.0899  0.0955
   40MOL0     C 5301   2.946  -0.317  12.432 -0.5444 -0.0795  0.4901
   40MOL0     C 5302   3.101  -0.320  12.430  0.7082 -0.5280 -0.5562
   40MOL0     C 5303   3.138  -0.287  12.577 -0.1183  0.5674  0.4740
   40MOL0     C 5304   3.292  -0.292  12.598  0.4421  0.6417  0.6326
   40MOL0     C 5305   3.306  -0.256  12.745 -0.0691  0.8688  0.1236
   40MOL0     C 5306   3.431  -0.328  12.792 -0.6225  0.0112  0.4289
   40MOL0     C 5307   3.555  -0.254  12.745  0.1404 -0.2315  0.5863
   40MOL0     C 5308   3.685  -0.296  12.808 -0.6213 -0.2244 -0.6779
   40MOL0    Cl 5309   3.700  -0.256  12.987 -0.3453 -0.4401  0.0079
   40MOL0     C 5310   2.665  -0.291  12.372  0.0083 -0.0952  0.0090
   40MOL0     C 5311   2.529  -0.290  12.348 -0.2999 -0.2247  0.4138
   40MOL0     O 5312   2.300  -0.500  12.265 -0.0534  0.2372 -1.0940
   40MOL0     C 5313   2.053  -0.513  12.125  0.8554 -0.1687 -0.1781
   40MOL0     C 5314   1.917  -0.494  12.090  0.1439  0.1253 -0.1893
   40MOL0     N 5315   1.701  -0.060  11.712  0.1465 -0.0985  1.3098
   40MOL0     N 5316   1.741   0.058  11.706 -0.2525 -0.6437 -0.4072
   40MOL0     C 5317   1.059   0.389  11.168 -0.9097  0.1629 -0.4872
   40MOL0     C 5318   0.996   0.272  11.123 -0.1435 -0.3178 -0.1521
   40MOL0     C 5319   0.779   0.023  10.822  0.0382 -0.8986 -0.3887
   40MOL0     C 5320   0.648   0.043  10.788 -1.0649 -0.1432  0.2698
   40MOL0     C 5321   0.586  -0.019  10.678 -0.4135 -0.3750 -0.7657
   40MOL0     C 5322   0.662  -0.103  10.594 -1.0863  0.4509 -0.3464
   40MOL0     O 5323   0.588  -0.174  10.502 -1.3596 -0.0370  0.0483
   40MOL0     C 5324   0.662  -0.269  10.423 -0.3648 -0.4199 -0.2622
   40MOL0     C 5325   0.746  -0.206  10.310 -0.0217  0.6784 -0.2435
   40MOL0     C 5326   0.671  -0.096  10.225  0.3690  0.3322 -0.4130
   40MOL0     C 5327   0.766  -0.027  10.127 -1.1935 -0.1179  0.0466
   40MOL0     C 5328   0.696   0.090  10.066 -0.1678  0.4405 -0.1360
   40MOL0     C 5329   0.630   0.175  10.014  0.6691 -0.0070 -0.2422
   40MOL0     C 5330   0.794  -0.129  10.631 -0.5560 -1.3376 -0.4792
   40MOL0     C 5331   0.843  -0.074  10.746 -0.4199 -0.3768 -0.2949
   40MOL0     C 5332   0.969  -0.128  10.794  0.5016  0.1784  0.7634
   40MOL0     H 5333   1.204   0.233  10.852  1.4424 -1.8374  1.2614
   40MOL0     H 5334   1.282   0.449  10.937  2.0831 -1.9653  2.1059
   40MOL0     H 5335   1.125   0.625  11.328  0.4121 -0.5915  1.8436
   40MOL0     H 5336   1.247   0.515  11.338 -1.5812  0.5077  0.4983
   40MOL0     H 5337   1.255   0.821  11.323  0.0030  0.0160  0.6265
   40MOL0     H 5338   1.382   0.736  11.241  0.2735  1.6626  1.2464
   40MOL0     H 5339   1.330   0.663  11.536  0.0231  1.0501 -0.6472
   40MOL0     H 5340   1.416   0.798  11.488  0.1852  0.6243 -4.9788
   40MOL0     H 5341   1.479   0.520  11.382 -1.7160  1.7553 -0.3777
   40MOL0     H 5342   1.596   0.645  11.360 -0.4056 -3.1797 -1.8526
   40MOL0     H 5343   1.621   0.671  11.616 -0.0406 -1.0058  1.5163
   40MOL0     H 5344   1.522   0.535  11.636 -0.3417 -1.7282 -0.0612
   40MOL0     H 5345   1.738   0.510  11.431 -1.0272  0.2281 -0.0844
   40MOL0     H 5346   1.802   0.518  11.600 -1.0604  0.6578  1.2291
   40MOL0     H 5347   1.764   0.287  11.514 -0.5405  0.4652 -0.5432
   40MOL0     H 5348   1.600   0.324  11.472 -0.9671  0.1841 -0.3378
   40MOL0     H 5349   1.704   0.324  11.771  1.3425  0.9712 -1.8161
   40MOL0     H 5350   1.540   0.340  11.706  0.1040 -0.4255 -0.0146
   40MOL0     H 5351   1.420   0.103  11.701 -0.6525 -1.3729 -2.0214
   40MOL0     H 5352   1.382  -0.149  11.654  1.3496  0.5008 -2.0959
   40MOL0     H 5353   1.521  -0.266  11.694  1.8513  0.4921  0.8078
   40MOL0     H 5354   1.434  -0.105  11.925 -0.4360  0.1795  0.1036
   40MOL0     H 5355   1.316  -0.214  11.865  0.7373  0.3526 -1.0359
   40MOL0     H 5356   1.499  -0.408  11.873  0.3897 -0.8598 -0.0388
   40MOL0     H 5357   1.438  -0.337  12.016 -0.1845  1.4303 -0.4894
   40MOL0     H 5358   1.634  -0.170  12.041  0.7004 -1.0294  2.3407
   40MOL0     H 5359   1.711  -0.228  11.901  1.6378  1.3554  1.9128
   40MOL0     H 5360   1.856  -0.167  12.100 -0.1564 -0.1623  0.9874
   40MOL0     H 5361   2.092  -0.167  12.157 -1.5953  0.3058  0.9902
   40MOL0     H 5362   2.527  -0.290  12.025 -0.1455  0.9020  0.3297
   40MOL0     H 5363   2.803  -0.328  12.066  1.3546  0.2702  0.6192
   40MOL0     H 5364   2.920  -0.217  12.467  2.5599  1.1600 -0.4674
   40MOL0     H 5365   2.903  -0.386  12.505  2.2756 -1.6191  0.8350
   40MOL0     H 5366   3.142  -0.417  12.402  1.4931  0.1865 -1.9453
   40MOL0     H 5367   3.142  -0.244  12.362  1.7896 -0.3627  0.2490
   40MOL0     H 5368   3.087  -0.198  12.614 -0.6289 -0.2052  1.7169
   40MOL0     H 5369   3.101  -0.368  12.641 -3.4549 -0.6764 -2.6511
   40MOL0     H 5370   3.334  -0.210  12.540  0.9988  0.5060  0.8313
   40MOL0     H 5371   3.329  -0.390  12.565  3.1839  1.1803  1.8567
   40MOL0     H 5372   3.215  -0.270  12.805  0.6653 -2.5310  0.5995
   40MOL0     H 5373   3.322  -0.148  12.750 -0.6183  0.9623 -0.0300
   40MOL0     H 5374   3.420  -0.333  12.901  0.5844  0.6862  0.5993
   40MOL0     H 5375   3.434  -0.433  12.763 -0.1893  0.2073 -0.2488
   40MOL0     H 5376   3.550  -0.145  12.750  0.5686 -0.0849 -1.4440
   40MOL0     H 5377   3.579  -0.277  12.641  1.0590 -2.7159  1.2584
   40MOL0     H 5378   3.701  -0.404  12.807  1.5504  0.0127  0.6793
   40MOL0     H 5379   3.767  -0.247  12.755 -0.4053  1.6999  1.2651
   40MOL0     H 5380   2.694  -0.304  12.476  0.6541 -3.0799 -0.4664
   40MOL0     H 5381   2.457  -0.303  12.428  0.6066 -0.6079  1.2011
   40MOL0     H 5382   2.088  -0.615  12.130 -1.1162 -0.9964 -1.8742
   40MOL0     H 5383   1.853  -0.577  12.062 -1.8949  2.4229 -2.9744
   40MOL0     H 5384   1.034   0.437  11.262  0.5207 -2.8102  1.5734
   40MOL0     H 5385   0.911   0.243  11.184 -1.1627 -1.0165 -1.8241
   40MOL0     H 5386   0.588   0.108  10.850 -2.4956 -0.8090 -0.3837
   40MOL0     H 5387   0.479  -0.012  10.669 -0.7117 -0.2084  1.9594
   40MOL0     H 5388   0.590  -0.333  10.371  0.7858 -2.1289  0.1418
   40MOL0     H 5389   0.715  -0.339  10.488 -4.0521  1.6580  5.7907
   40MOL0     H 5390   0.786  -0.290  10.253 -1.0224 -0.7115  0.9961
   40MOL0     H 5391   0.831  -0.154  10.356  0.8810 -0.5659 -0.4594
   40MOL0     H 5392   0.627  -0.020  10.290  0.9936 -0.1355  0.5797
   40MOL0     H 5393   0.591  -0.138  10.163  2.0940  0.2167 -2.7122
   40MOL0     H 5394   0.857   0.015  10.171 -1.4732  1.0095 -0.3952
   40MOL0     H 5395   0.787  -0.098  10.046  0.6189 -2.5133  2.4532
   40MOL0     H 5396   0.586   0.258   9.963 -0.1418  0.0871  0.5870
   40MOL0     H 5397   0.858  -0.199  10.577 -0.6563 -2.0084  0.2534
   40MOL0     H 5398   1.050  -0.064  10.759 -0.8697  1.4980 -0.1217
   40MOL0     H 5399   0.993  -0.140  10.900  3.2744  0.9082  0.2840
   40MOL0     H 5400   0.995  -0.226  10.751  1.5042  1.4081 -1.6285
   41MOL0     O 5401   3.662  10.415   3.384 -0.2157 -0.4079  0.0974
   41MOL0     C 5402   3.624  10.534   3.375 -0.6918  0.1706 -0.2824
   41MOL0     O 5403   3.702  10.642   3.337  0.5957 -1.2210  0.5020
   41MOL0     C 5404   3.843  10.649   3.317  0.4403  0.6702  0.5483
   41MOL0     C 5405   3.936  10.546   3.347 -0.5686  0.6165  0.6700
   41MOL0     C 5406   4.074  10.563   3.333 -0.2204 -1.0599  0.4162
   41MOL0     C 5407   4.120  10.681   3.284  0.2656 -0.3284  0.5931
   41MOL0     O 5408   4.258  10.699   3.288  0.0956 -1.0835 -0.2728
   41MOL0     C 5409   4.285  10.834   3.331 -0.2815  0.8240 -0.4173
   41MOL0     C 5410   4.421  10.831   3.375 -1.6134  1.4074  0.8591
   41MOL0     C 5411   4.459  10.952   3.451  0.7796  0.0873 -0.1419
   41MOL0     C 5412   4.583  10.929   3.533 -1.3373  0.8973  1.3035
   41MOL0     C 5413   4.634  11.050   3.602 -0.4066 -1.1869  0.3133
   41MOL0     C 5414   4.748  11.015   3.693  0.1839  0.2522  0.2434
   41MOL0     C 5415   4.883  11.025   3.616  0.0033  0.3977 -0.0615
   41MOL0     C 5416   4.930  11.173   3.605  0.5623  0.4657 -0.6903
   41MOL0     N 5417   5.071  11.193   3.579 -0.2645  0.3715  0.0313
   41MOL0     C 5418   5.183  11.179   3.662  0.0111  0.3955 -0.4180
   41MOL0     C 5419   5.286  11.193   3.579  0.1414  0.1030  0.1035
   41MOL0     C 5420   5.420  11.198   3.639  0.0714 -0.0501  1.3291
   41MOL0     C 5421   5.504  11.307   3.589 -0.1910 -0.8376 -0.5449
   41MOL0     C 5422   5.639  11.293   3.668  0.7486 -0.2255 -1.1594
   41MOL0     C 5423   5.726  11.406   3.611 -0.2770  0.1154  0.1545
   41MOL0     O 5424   5.840  11.425   3.695  0.0622  0.2755 -0.1754
   41MOL0     C 5425   5.950  11.349   3.682  0.2799 -0.2629  0.8761
   41MOL0     C 5426   5.970  11.243   3.593  0.5872  0.2998 -0.8898
   41MOL0     C 5427   6.085  11.168   3.599  0.5620 -0.3989  0.6300
   41MOL0     C 5428   6.192  11.220   3.680 -0.1613 -0.7580  0.1444
   41MOL0     C 5429   6.332  11.176   3.671 -0.4960  0.4682 -0.4460
   41MOL0     O 5430   6.437  11.235   3.739 -0.1401 -0.0414 -0.4046
   41MOL0     C 5431   6.572  11.218   3.704 -0.1261 -0.3484 -0.1786
   41MOL0     C 5432   6.668  11.241   3.812  0.4244 -0.2402  0.2089
   41MOL0     C 5433   6.804  11.248   3.794  0.3307 -0.5007  0.5288
   41MOL0     C 5434   6.864  11.221   3.663  1.0148 -0.3561 -0.6437
   41MOL0     O 5435   6.998  11.215   3.662 -0.3321  0.0449 -0.0636
   41MOL0     C 5436   7.068  11.123   3.573 -0.5747  0.1660 -0.5108
   41MOL0     C 5437   7.175  11.039   3.635 -0.6869  0.1015  0.1644
   41MOL0     C 5438   7.309  11.087   3.693 -0.1083  0.3262  0.4826
   41MOL0     C 5439   7.391  11.152   3.578  0.6105  1.1578 -0.2257
   41MOL0     C 5440   7.538  11.180   3.611 -0.4903 -0.0344 -0.0864
   41MOL0     C 5441   7.552  11.291   3.711 -0.4682 -0.4971 -0.3223
   41MOL0     C 5442   7.696  11.353   3.715 -0.0608 -0.4329  0.8621
   41MOL0     C 5443   7.723  11.432   3.837  0.3577  0.0439 -0.3486
   41MOL0    Cl 5444   7.890  11.496   3.824 -0.2232 -0.1815  0.3507
   41MOL0     C 5445   6.774  11.206   3.558 -0.1163  0.3374  0.2695
   41MOL0     C 5446   6.631  11.195   3.579 -0.6611 -0.4355 -0.2575
   41MOL0     O 5447   6.356  11.093   3.585 -0.4684  0.0238 -0.4956
   41MOL0     C 5448   6.171  11.333   3.765  0.8025  0.1960 -0.4472
   41MOL0     C 5449   6.051  11.396   3.761 -0.3318 -0.0134 -0.3266
   41MOL0     N 5450   5.245  11.207   3.447  0.3321 -0.2309 -0.7673
   41MOL0     N 5451   5.117  11.213   3.452 -0.1564 -0.2565  0.4545
   41MOL0     C 5452   4.028  10.788   3.260  0.0698  0.2695  0.1897
   41MOL0     C 5453   3.893  10.774   3.270  0.4569  0.3149 -0.2484
   41MOL0     C 5454   3.477  10.562   3.382  0.8133 -0.0889 -0.7169
   41MOL0     C 5455   3.420  10.674   3.316 -0.1054 -0.3436  0.4114
   41MOL0     C 5456   3.280  10.696   3.315  0.3534  0.0831 -0.0697
   41MOL0     C 5457   3.197  10.612   3.390  0.1023 -0.1863  0.6857
   41MOL0     O 5458   3.061  10.635   3.373 -1.0926 -0.4775  0.1076
   41MOL0     C 5459   2.966  10.567   3.453  0.6908 -0.7054  0.1821
   41MOL0     C 5460   2.838  10.636   3.425 -0.3572  0.7444 -0.5202
   41MOL0     C 5461   2.782  10.621   3.283 -0.9998  0.1148  0.0294
   41MOL0     C 5462   2.647  10.677   3.260  0.0962  0.7560 -0.5056
   41MOL0     C 5463   2.548  10.603   3.340  0.0900  0.1936 -0.7549
   41MOL0     C 5464   2.461  10.542   3.401  0.7629 -0.5368  0.2328
   41MOL0     C 5465   3.248  10.501   3.454  0.4954 -0.2378 -0.1769
   41MOL0     C 5466   3.384  10.478   3.453 -0.6614  0.1093  0.3946
   41MOL0     C 5467   3.422  10.366   3.545  0.7034  0.4660 -0.5984
   41MOL0     H 5468   3.907  10.447   3.378  3.1710 -0.4119  1.3662
   41MOL0     H 5469   4.136  10.480   3.365 -4.0386 -3.7584  1.6191
   41MOL0     H 5470   4.287  10.907   3.250  1.3293 -2.2932 -3.4642
   41MOL0     H 5471   4.217  10.867   3.411  2.2218 -0.4339  2.4509
   41MOL0     H 5472   4.484  10.820   3.286 -0.4647  4.5135  1.1447
   41MOL0     H 5473   4.435  10.739   3.432 -0.8615 -1.0803 -2.9998
   41MOL0     H 5474   4.371  10.987   3.505 -0.9709 -0.4564 -2.4953
   41MOL0     H 5475   4.472  11.034   3.381 -2.2910  0.0238 -0.8897
   41MOL0     H 5476   4.552  10.846   3.598  1.3364 -1.7974 -0.6133
   41MOL0     H 5477   4.663  10.876   3.481 -4.4320 -1.7036 -1.2353
   41MOL0     H 5478   4.662  11.119   3.522  0.2318 -1.1734  0.5420
   41MOL0     H 5479   4.546  11.097   3.647  0.2332  0.7099 -0.3145
   41MOL0     H 5480   4.763  11.066   3.788 -0.2022 -1.6856  1.3970
   41MOL0     H 5481   4.736  10.910   3.721  1.3340 -0.3676 -1.4071
   41MOL0     H 5482   4.871  10.991   3.513  1.6716  1.2095 -0.5730
   41MOL0     H 5483   4.958  10.965   3.669  1.0959  1.8623  0.1242
   41MOL0     H 5484   4.878  11.212   3.517  0.9303 -1.4437 -1.7970
   41MOL0     H 5485   4.896  11.220   3.697 -1.3919 -2.4269  0.2078
   41MOL0     H 5486   5.187  11.144   3.764  1.8491 -3.4377 -1.5973
   41MOL0     H 5487   5.418  11.200   3.748 -0.3352  0.7067  1.3086
   41MOL0     H 5488   5.471  11.105   3.610 -0.1807 -0.1101  1.0726
   41MOL0     H 5489   5.526  11.280   3.486 -1.9227  0.4781 -1.3077
   41MOL0     H 5490   5.457  11.404   3.610 -1.3745 -1.8242  1.7704
   41MOL0     H 5491   5.681  11.192   3.668 -0.7571 -1.0363  2.9843
   41MOL0     H 5492   5.612  11.304   3.773  1.8382  0.2622 -0.9083
   41MOL0     H 5493   5.675  11.503   3.611 -1.1184 -0.3061  0.7812
   41MOL0     H 5494   5.748  11.382   3.507  3.2618  0.6796  0.6421
   41MOL0     H 5495   5.886  11.198   3.541 -0.4232 -3.1377  3.1097
   41MOL0     H 5496   6.095  11.072   3.551 -0.6297 -0.5531  0.6717
   41MOL0     H 5497   6.632  11.259   3.913 -0.3963  1.5831 -0.3767
   41MOL0     H 5498   6.878  11.257   3.873  2.2831  2.8824 -1.4093
   41MOL0     H 5499   6.991  11.062   3.526 -1.7231  1.4975 -0.4345
   41MOL0     H 5500   7.111  11.188   3.496 -0.3274  1.7680  0.9009
   41MOL0     H 5501   7.122  10.990   3.717  0.1015  1.1643  1.3485
   41MOL0     H 5502   7.198  10.965   3.557  3.6998  2.0191 -0.6607
   41MOL0     H 5503   7.297  11.158   3.775  1.6566  0.9104  0.2859
   41MOL0     H 5504   7.373  11.003   3.721 -0.7069 -1.1460 -2.2500
   41MOL0     H 5505   7.349  11.244   3.534  1.6345  0.2159 -3.4733
   41MOL0     H 5506   7.388  11.075   3.500 -2.4208 -3.3183  3.8096
   41MOL0     H 5507   7.599  11.200   3.522 -1.6510 -1.4303 -1.2424
   41MOL0     H 5508   7.584  11.090   3.654  1.5388  2.0843  2.5327
   41MOL0     H 5509   7.481  11.374   3.702  1.2181  1.0107 -0.2721
   41MOL0     H 5510   7.536  11.249   3.811 -0.1276  1.6012  0.6713
   41MOL0     H 5511   7.704  11.418   3.627  0.6717  1.7145  2.4172
   41MOL0     H 5512   7.766  11.270   3.705  1.1574  0.7740 -1.3710
   41MOL0     H 5513   7.652  11.513   3.854  0.7227  0.7998 -2.2380
   41MOL0     H 5514   7.715  11.363   3.922 -0.3339  1.0973  0.4716
   41MOL0     H 5515   6.813  11.190   3.458 -0.9620  1.1034 -0.2048
   41MOL0     H 5516   6.569  11.155   3.499 -1.4151 -1.5272  0.8352
   41MOL0     H 5517   6.249  11.368   3.831  2.2065 -2.0747 -0.7843
   41MOL0     H 5518   6.041  11.474   3.835  0.7988 -1.7758  1.7888
   41MOL0     H 5519   4.056  10.885   3.221 -1.7878 -0.7038 -4.0817
   41MOL0     H 5520   3.829  10.859   3.245 -2.1894 -1.7324 -0.9676
   41MOL0     H 5521   3.493  10.736   3.264 -0.5437 -2.2925 -2.8036
   41MOL0     H 5522   3.231  10.772   3.255 -1.6856 -1.5225 -0.5469
   41MOL0     H 5523   2.984  10.572   3.561  0.6133  0.2080  0.1602
   41MOL0     H 5524   2.960  10.464   3.418  3.0620 -0.2089 -1.9319
   41MOL0     H 5525   2.848  10.742   3.449  0.0067  0.6506 -0.2383
   41MOL0     H 5526   2.766  10.594   3.496  1.5722  1.2938  1.9131
   41MOL0     H 5527   2.774  10.517   3.251 -0.2928  0.7139 -2.2758
   41MOL0     H 5528   2.855  10.673   3.219 -0.4341 -0.2714  0.3488
   41MOL0     H 5529   2.630  10.782   3.284 -3.6391  0.2324 -0.3210
   41MOL0     H 5530   2.623  10.665   3.154 -0.3152  0.3332 -0.3706
   41MOL0     H 5531   2.394  10.479   3.457 -1.3935  0.9515 -0.5527
   41MOL0     H 5532   3.200  10.417   3.505  0.8921 -0.4234 -0.1052
   41MOL0     H 5533   3.453  10.275   3.492  1.3486 -0.0629  0.6303
   41MOL0     H 5534   3.508  10.387   3.609  0.6524 -1.5359  0.2218
   41MOL0     H 5535   3.343  10.332   3.613  1.1422  0.3184 -0.1555
   42MOL0     O 5536   9.659   6.891   2.859 -0.3573 -0.4684 -0.6138
   42MOL0     C 5537   9.669   6.921   2.738  0.1476  0.5029 -0.0161
   42MOL0     O 5538   9.781   6.898   2.647  0.0784 -0.0400  0.0937
   42MOL0     C 5539   9.888   6.835   2.703  0.5119 -0.6176  0.5262
   42MOL0     C 5540   9.868   6.706   2.763  0.2901 -0.1622  0.6643
   42MOL0     C 5541   9.968   6.642   2.834 -0.2074  0.5736 -0.0805
   42MOL0     C 5542  10.096   6.695   2.838 -0.4330  0.3059  1.0001
   42MOL0     O 5543  10.207   6.638   2.894 -0.8666 -0.1406  0.2218
   42MOL0     C 5544  10.206   6.495   2.922 -0.4345  0.3322  1.4477
   42MOL0     C 5545  10.347   6.463   2.975 -0.2317 -0.0736  0.3244
   42MOL0     C 5546  10.365   6.500   3.121  0.3540 -0.7434 -0.1817
   42MOL0     C 5547  10.353   6.658   3.145  0.0346 -0.8135 -0.3541
   42MOL0     C 5548  10.400   6.690   3.286  0.8518  0.9807  0.3197
   42MOL0     C 5549  10.403   6.847   3.307  0.4060  1.0369 -0.1859
   42MOL0     C 5550  10.520   6.925   3.236 -0.9728  0.6273 -0.8796
   42MOL0     C 5551  10.662   6.871   3.266 -0.0780 -0.3264  0.1949
   42MOL0     N 5552  10.759   6.972   3.246 -0.1801  0.8987 -0.6541
   42MOL0     C 5553  10.794   7.015   3.122 -0.0083  0.3639 -0.6746
   42MOL0     C 5554  10.910   7.079   3.150 -0.5380 -0.0418 -0.7593
   42MOL0     C 5555  11.017   7.093   3.042 -0.2056 -0.3577 -0.2219
   42MOL0     C 5556  11.141   6.994   3.025  1.3181  0.0329 -0.5038
   42MOL0     C 5557  11.237   7.035   2.903 -0.0800 -0.0904 -0.2646
   42MOL0     C 5558  11.335   7.152   2.923  0.1137 -0.1486  0.4972
   42MOL0     O 5559  11.413   7.132   3.039 -0.3017 -0.0876 -0.9507
   42MOL0     C 5560  11.533   7.201   3.048  0.8928  0.3320  0.5580
   42MOL0     C 5561  11.613   7.167   3.155  0.0245  0.1348  0.5825
   42MOL0     C 5562  11.742   7.199   3.168 -0.0454 -0.8193 -0.2991
   42MOL0     C 5563  11.802   7.277   3.071 -0.2044 -1.2568 -0.0104
   42MOL0     C 5564  11.946   7.318   3.080  0.3643  0.8096  0.2725
   42MOL0     O 5565  12.007   7.390   2.979 -0.0188  0.4352  0.0198
   42MOL0     C 5566  12.132   7.437   3.013  0.3805  0.5798  0.2568
   42MOL0     C 5567  12.252   7.387   2.966  0.1315 -0.4560  0.3281
   42MOL0     C 5568  12.378   7.452   2.989 -0.2217 -0.5601 -0.2455
   42MOL0     C 5569  12.375   7.565   3.077  0.2780 -0.8677 -0.1940
   42MOL0     O 5570  12.490   7.633   3.122  0.7661 -0.5981 -0.4622
   42MOL0     C 5571  12.612   7.589   3.085  0.0815  0.3578  0.1554
   42MOL0     C 5572  12.716   7.695   3.107 -0.2629 -0.5586 -0.5773
   42MOL0     C 5573  12.713   7.808   3.004 -0.8729 -0.1780  0.6343
   42MOL0     C 5574  12.854   7.878   2.997  0.9434  0.1302 -0.8308
   42MOL0     C 5575  12.870   7.985   2.888 -1.0876 -0.1333  0.5444
   42MOL0     C 5576  12.758   8.097   2.883 -0.5644 -0.2028 -1.3394
   42MOL0     C 5577  12.795   8.215   2.787  0.1125 -0.0672 -0.4332
   42MOL0     C 5578  12.678   8.321   2.790  0.1545 -0.6292  0.1170
   42MOL0    Cl 5579  12.684   8.418   2.939  0.0645 -0.7315 -0.1669
   42MOL0     C 5580  12.254   7.612   3.131 -0.2145 -0.1133  0.7071
   42MOL0     C 5581  12.136   7.551   3.093 -0.2690  0.4920  0.0351
   42MOL0     O 5582  12.002   7.286   3.189 -0.2592  0.3493 -0.3682
   42MOL0     C 5583  11.723   7.319   2.957  0.3011  0.8331  0.3789
   42MOL0     C 5584  11.590   7.280   2.953  0.5395 -0.1013  0.4054
   42MOL0     N 5585  10.932   7.087   3.293 -0.0773  0.4185  0.8563
   42MOL0     N 5586  10.831   7.028   3.348  0.6263 -0.6077  0.1364
   42MOL0     C 5587  10.119   6.819   2.777  0.3451  0.5618  0.1379
   42MOL0     C 5588  10.018   6.885   2.704 -0.2533 -0.0542  0.1907
   42MOL0     C 5589   9.537   6.981   2.686  0.4398 -0.1255 -0.9260
   42MOL0     C 5590   9.452   7.050   2.773 -0.4682 -0.0737 -1.3435
   42MOL0     C 5591   9.333   7.116   2.731  0.6400  0.0684 -0.3789
   42MOL0     C 5592   9.299   7.121   2.592 -0.0572  0.2969  0.5913
   42MOL0     O 5593   9.176   7.186   2.564  0.2285 -0.5931  0.1910
   42MOL0     C 5594   9.110   7.159   2.438 -0.3840  0.1490  0.7848
   42MOL0     C 5595   8.978   7.221   2.420 -0.5322  0.0836  0.0827
   42MOL0     C 5596   8.984   7.378   2.416  0.7026  0.0380  0.6675
   42MOL0     C 5597   9.045   7.431   2.284 -0.7983 -0.4156  0.0210
   42MOL0     C 5598   9.062   7.580   2.284  0.2991 -0.3341 -0.0142
   42MOL0     C 5599   9.076   7.708   2.275  0.0529  1.9961 -0.2838
   42MOL0     C 5600   9.382   7.052   2.495 -0.5649 -0.3495 -0.9014
   42MOL0     C 5601   9.503   6.995   2.544 -0.2207  0.8224 -0.6228
   42MOL0     C 5602   9.589   6.922   2.442 -0.2599 -0.0797  0.7984
   42MOL0     H 5603   9.772   6.662   2.737  0.1952  1.1544 -1.4426
   42MOL0     H 5604   9.943   6.549   2.882 -0.4734  1.1385  0.9000
   42MOL0     H 5605  10.135   6.470   3.001 -0.5449 -0.6200  1.0627
   42MOL0     H 5606  10.185   6.437   2.831 -0.6322  1.1539  0.9651
   42MOL0     H 5607  10.428   6.508   2.916  0.0051 -1.6532 -0.5931
   42MOL0     H 5608  10.375   6.358   2.962 -0.1252  0.0248 -0.3051
   42MOL0     H 5609  10.468   6.470   3.139  0.7258 -0.5294 -1.8250
   42MOL0     H 5610  10.291   6.461   3.192  0.3948  0.5527  0.6062
   42MOL0     H 5611  10.426   6.699   3.074 -1.4250  1.4142 -0.6454
   42MOL0     H 5612  10.257   6.708   3.130 -0.2934 -1.7404 -1.5069
   42MOL0     H 5613  10.324   6.656   3.357 -0.7035  1.3112 -1.1257
   42MOL0     H 5614  10.495   6.653   3.324  1.0346  1.3327  0.2126
   42MOL0     H 5615  10.310   6.881   3.262 -0.3817 -0.7927 -0.0166
   42MOL0     H 5616  10.411   6.891   3.407 -3.2242  1.7803 -0.1058
   42MOL0     H 5617  10.509   7.028   3.270 -3.6008 -0.2917  1.4028
   42MOL0     H 5618  10.509   6.924   3.127 -2.2484  2.3176 -0.8065
   42MOL0     H 5619  10.667   6.857   3.374 -1.6236  2.3555  0.7147
   42MOL0     H 5620  10.688   6.779   3.212  0.1198  0.6064 -1.3759
   42MOL0     H 5621  10.756   6.980   3.027 -2.3203 -3.6178  1.4577
   42MOL0     H 5622  10.970   7.106   2.944  0.5301 -1.7785 -0.7962
   42MOL0     H 5623  11.063   7.189   3.066 -0.5837 -0.7294  2.1733
   42MOL0     H 5624  11.201   6.998   3.117 -2.0214  1.6880  1.8106
   42MOL0     H 5625  11.103   6.892   3.020  1.7762 -0.1859  0.2657
   42MOL0     H 5626  11.184   7.054   2.809  1.4497  0.6536 -1.0100
   42MOL0     H 5627  11.302   6.951   2.875  0.6676 -0.0552  1.2751
   42MOL0     H 5628  11.277   7.245   2.929 -2.3143 -1.6112  1.1248
   42MOL0     H 5629  11.399   7.144   2.835 -1.2318 -1.3090 -0.4246
   42MOL0     H 5630  11.568   7.105   3.232  0.3951 -1.0863 -0.1535
   42MOL0     H 5631  11.804   7.163   3.249 -1.1406 -0.4731  0.7287
   42MOL0     H 5632  12.254   7.304   2.897  3.9514 -0.6124  0.3783
   42MOL0     H 5633  12.468   7.421   2.937  0.0125  0.4293 -0.4507
   42MOL0     H 5634  12.642   7.499   3.141  0.3811  0.4164  0.0887
   42MOL0     H 5635  12.603   7.573   2.977 -1.7771  1.6419  0.0776
   42MOL0     H 5636  12.717   7.735   3.209 -0.7996 -0.3506 -0.6487
   42MOL0     H 5637  12.809   7.638   3.097 -1.0069 -1.6582 -1.4576
   42MOL0     H 5638  12.700   7.768   2.902  1.9543  0.1978  0.0478
   42MOL0     H 5639  12.633   7.880   3.025 -0.1262  0.9526 -0.2654
   42MOL0     H 5640  12.931   7.801   2.985  0.7729 -0.5129  1.5788
   42MOL0     H 5641  12.868   7.928   3.094  2.8684  1.8721 -1.9277
   42MOL0     H 5642  12.878   7.947   2.786  0.0556 -1.6529  1.1637
   42MOL0     H 5643  12.968   8.030   2.908 -1.3303  0.4288  0.4830
   42MOL0     H 5644  12.658   8.063   2.857 -0.2176 -1.2512 -1.3207
   42MOL0     H 5645  12.766   8.151   2.978  0.4856 -0.3223 -1.3486
   42MOL0     H 5646  12.793   8.167   2.689  0.2977  0.4340 -0.6880
   42MOL0     H 5647  12.897   8.250   2.808 -1.0259  2.3585  1.5659
   42MOL0     H 5648  12.686   8.396   2.712 -0.6475  0.3366  0.9224
   42MOL0     H 5649  12.578   8.277   2.783 -1.5131  2.6582  1.1207
   42MOL0     H 5650  12.254   7.699   3.196  1.3129  0.0903  0.4614
   42MOL0     H 5651  12.043   7.593   3.132  1.4607  2.1945  2.6460
   42MOL0     H 5652  11.764   7.373   2.872  0.8109  0.0095  0.0899
   42MOL0     H 5653  11.530   7.316   2.869 -0.5522 -0.3930  1.0405
   42MOL0     H 5654  10.215   6.870   2.785  0.2052  0.7695  0.5183
   42MOL0     H 5655  10.030   6.981   2.655 -1.1995 -0.7773 -1.5307
   42MOL0     H 5656   9.469   7.045   2.880 -1.2724  0.5638 -1.1784
   42MOL0     H 5657   9.259   7.153   2.801  0.3292 -0.9120 -0.1737
   42MOL0     H 5658   9.097   7.051   2.446  0.7150  0.1252  3.2183
   42MOL0     H 5659   9.179   7.178   2.356 -0.8763 -0.0885  0.3100
   42MOL0     H 5660   8.904   7.194   2.496 -2.9697  3.6771 -0.7802
   42MOL0     H 5661   8.940   7.177   2.327  1.0741  2.9786 -2.1125
   42MOL0     H 5662   9.038   7.418   2.501 -0.6584  2.3786  0.5280
   42MOL0     H 5663   8.881   7.414   2.415  0.4227 -0.7336 -0.0857
   42MOL0     H 5664   9.149   7.399   2.275 -0.4750  0.2560  1.1352
   42MOL0     H 5665   8.983   7.411   2.196  0.4443 -0.0901 -0.9565
   42MOL0     H 5666   9.109   7.810   2.281  1.8720  1.4196  0.1567
   42MOL0     H 5667   9.361   7.034   2.390 -3.5355 -1.7595 -0.1694
   42MOL0     H 5668   9.525   6.887   2.360 -0.2652  1.3885  0.1486
   42MOL0     H 5669   9.659   6.991   2.394  1.2280 -3.6449 -2.7591
   42MOL0     H 5670   9.640   6.829   2.471 -1.4295 -1.3585 -1.0053
   43MOL0     O 5671  11.044   8.518   1.023 -0.6340  0.3865  0.1777
   43MOL0     C 5672  11.004   8.509   1.138 -0.8210  0.0335 -0.1026
   43MOL0     O 5673  11.003   8.396   1.220 -0.1348  0.1729  0.4019
   43MOL0     C 5674  10.920   8.401   1.338 -0.4728  0.6874  0.0064
   43MOL0     C 5675  10.788   8.396   1.324 -0.1550 -0.6909 -0.1259
   43MOL0     C 5676  10.702   8.379   1.432  0.1905 -0.6269 -0.5509
   43MOL0     C 5677  10.757   8.371   1.564  0.5235 -0.1484 -0.1257
   43MOL0     O 5678  10.673   8.359   1.683  0.1377  0.2813  0.1957
   43MOL0     C 5679  10.596   8.469   1.702 -0.5504  0.3050 -0.8451
   43MOL0     C 5680  10.616   8.519   1.847 -0.4148 -0.0415 -0.9109
   43MOL0     C 5681  10.574   8.416   1.967  0.5895  0.9021  0.6646
   43MOL0     C 5682  10.646   8.444   2.093  0.1060  0.0512  0.6468
   43MOL0     C 5683  10.600   8.377   2.218  0.2761  0.3748  0.9184
   43MOL0     C 5684  10.673   8.419   2.342  0.1386 -0.9325 -0.8332
   43MOL0     C 5685  10.813   8.368   2.333  0.0761  0.1613  0.2497
   43MOL0     C 5686  10.865   8.381   2.471 -0.3959 -0.4319 -0.4647
   43MOL0     N 5687  11.004   8.352   2.498  0.1446  0.2634  0.1735
   43MOL0     C 5688  11.042   8.245   2.568 -0.8613  0.2409 -0.4772
   43MOL0     C 5689  11.181   8.228   2.559  1.4605 -0.5659  0.0413
   43MOL0     C 5690  11.261   8.119   2.620  0.2430  0.1929 -0.5492
   43MOL0     C 5691  11.413   8.117   2.596  0.6125 -0.1717 -0.7141
   43MOL0     C 5692  11.427   8.052   2.458 -0.3232  0.0720 -0.5629
   43MOL0     C 5693  11.570   8.037   2.406 -0.8670  0.2021 -0.7237
   43MOL0     O 5694  11.651   7.960   2.498 -0.8985  0.0317  0.1247
   43MOL0     C 5695  11.775   7.929   2.445  0.5079 -0.2845 -0.2772
   43MOL0     C 5696  11.869   8.029   2.401  0.2111 -0.0329  0.2481
   43MOL0     C 5697  11.997   7.997   2.361  1.2558  0.4118 -0.1850
   43MOL0     C 5698  12.027   7.865   2.338  0.5344 -0.4299 -0.3165
   43MOL0     C 5699  12.144   7.840   2.252 -0.2286  0.1324  0.2850
   43MOL0     O 5700  12.187   7.713   2.249 -0.0821 -0.1961  0.1716
   43MOL0     C 5701  12.281   7.650   2.176 -0.4892 -0.4628  0.7983
   43MOL0     C 5702  12.357   7.708   2.072  0.0489  0.2523 -0.1202
   43MOL0     C 5703  12.466   7.638   2.012 -0.6169  0.0522 -0.0055
   43MOL0     C 5704  12.484   7.504   2.036 -0.1031 -0.5395 -0.2324
   43MOL0     O 5705  12.587   7.439   1.988  0.7164  0.2221  0.8820
   43MOL0     C 5706  12.682   7.385   2.086  0.1870 -0.0312  0.6228
   43MOL0     C 5707  12.810   7.457   2.064  0.2998 -0.0239  1.3540
   43MOL0     C 5708  12.886   7.462   2.201 -0.5916 -0.0560 -0.5405
   43MOL0     C 5709  13.036   7.508   2.172 -0.0174 -0.3318  0.4614
   43MOL0     C 5710  13.110   7.557   2.298 -0.0415  0.0345 -0.2531
   43MOL0     C 5711  13.041   7.668   2.374 -0.5488  0.4408  0.8630
   43MOL0     C 5712  13.139   7.716   2.481 -0.6783  0.0638 -0.0457
   43MOL0     C 5713  13.061   7.811   2.565 -0.7803 -0.3542 -0.1605
   43MOL0    Cl 5714  13.168   7.900   2.673  0.4706  0.4554  0.6113
   43MOL0     C 5715  12.406   7.447   2.133 -0.6595 -0.3970 -0.3071
   43MOL0     C 5716  12.309   7.519   2.214  0.2631  0.2890  0.8768
   43MOL0     O 5717  12.190   7.927   2.179  0.0679  0.1805  0.4873
   43MOL0     C 5718  11.936   7.769   2.395  0.2206  0.1155 -0.0320
   43MOL0     C 5719  11.812   7.798   2.455 -0.1000 -0.7295  0.9236
   43MOL0     N 5720  11.223   8.323   2.465 -1.1630  0.9726 -0.1804
   43MOL0     N 5721  11.122   8.398   2.435  0.0426  0.6575  0.5563
   43MOL0     C 5722  10.891   8.370   1.577 -0.1267 -0.4878  0.0044
   43MOL0     C 5723  10.979   8.381   1.462 -0.3574  0.6252 -0.2220
   43MOL0     C 5724  10.969   8.637   1.188  1.1354 -0.0002 -0.1744
   43MOL0     C 5725  10.843   8.682   1.147  0.3267  0.9669 -0.4141
   43MOL0     C 5726  10.797   8.804   1.204  0.4290  0.3311 -0.0080
   43MOL0     C 5727  10.859   8.871   1.308 -0.1747  0.0111  1.1218
   43MOL0     O 5728  10.811   8.991   1.353 -0.1887 -0.2152  0.2646
   43MOL0     C 5729  10.863   9.060   1.466  0.1892 -0.6887  0.2431
   43MOL0     C 5730  10.787   9.185   1.496  0.1040  0.1226 -1.0080
   43MOL0     C 5731  10.633   9.162   1.530  0.2295  0.1737 -0.1410
   43MOL0     C 5732  10.551   9.291   1.516  0.5032  0.3817  0.0818
   43MOL0     C 5733  10.413   9.269   1.562 -0.0066  0.8846 -0.5858
   43MOL0     C 5734  10.302   9.258   1.603  0.4203  0.8396 -0.3432
   43MOL0     C 5735  10.978   8.811   1.349 -0.0829  0.0166  0.1501
   43MOL0     C 5736  11.032   8.701   1.290  0.6379  0.3839 -0.3814
   43MOL0     C 5737  11.171   8.659   1.330 -1.1052 -0.4207 -0.3943
   43MOL0     H 5738  10.750   8.401   1.223  0.6457 -2.1604 -0.5290
   43MOL0     H 5739  10.595   8.390   1.423  0.3795  1.1083 -0.9793
   43MOL0     H 5740  10.604   8.546   1.625 -2.5918  1.8144  0.3674
   43MOL0     H 5741  10.490   8.445   1.699 -0.5814  0.4614 -0.9873
   43MOL0     H 5742  10.550   8.606   1.853  2.2184  2.0438 -0.9527
   43MOL0     H 5743  10.716   8.560   1.860 -1.5554  2.3501  1.0356
   43MOL0     H 5744  10.592   8.313   1.934 -4.0400  0.1300 -0.2324
   43MOL0     H 5745  10.470   8.421   2.000  0.7049 -1.3326  1.5241
   43MOL0     H 5746  10.753   8.438   2.074 -0.1441 -0.5285 -0.6548
   43MOL0     H 5747  10.627   8.551   2.108 -2.7404 -0.1131 -1.0575
   43MOL0     H 5748  10.496   8.408   2.227  0.3531  1.0500 -0.3125
   43MOL0     H 5749  10.594   8.269   2.204  0.2519  0.1227  2.6508
   43MOL0     H 5750  10.675   8.524   2.376  1.7096 -1.5845  1.3651
   43MOL0     H 5751  10.620   8.379   2.429  1.4442  1.2209  1.0999
   43MOL0     H 5752  10.874   8.429   2.266 -1.2584  0.1367 -1.0382
   43MOL0     H 5753  10.813   8.263   2.302 -4.0379 -0.0039  0.3671
   43MOL0     H 5754  10.847   8.487   2.493 -1.2574 -0.7809  0.6195
   43MOL0     H 5755  10.797   8.332   2.542 -0.4954  0.6374  0.2096
   43MOL0     H 5756  10.976   8.178   2.621 -0.3091 -0.9066 -1.1936
   43MOL0     H 5757  11.232   8.105   2.724 -1.2255 -2.1699 -1.2009
   43MOL0     H 5758  11.220   8.024   2.585  0.8905 -0.8109  1.2924
   43MOL0     H 5759  11.472   8.208   2.612 -0.2110  0.0867  1.0500
   43MOL0     H 5760  11.456   8.047   2.668 -3.8944 -0.8095  1.7084
   43MOL0     H 5761  11.378   8.107   2.377  0.3493 -1.1694 -1.8641
   43MOL0     H 5762  11.380   7.953   2.464 -3.4167  1.5112  1.2600
   43MOL0     H 5763  11.611   8.138   2.403  0.4445 -0.1687  2.1305
   43MOL0     H 5764  11.573   7.978   2.314  1.7614 -3.0499  1.2392
   43MOL0     H 5765  11.845   8.134   2.413  0.8167  0.3497 -1.6225
   43MOL0     H 5766  12.070   8.068   2.325  0.5614  1.8309  1.1291
   43MOL0     H 5767  12.335   7.809   2.039  0.2281  0.7758  1.2705
   43MOL0     H 5768  12.540   7.684   1.947  0.4484  1.2785  1.9831
   43MOL0     H 5769  12.650   7.401   2.189 -1.0297 -0.8849  0.4167
   43MOL0     H 5770  12.698   7.279   2.061 -1.4138 -0.0208 -0.6666
   43MOL0     H 5771  12.855   7.397   1.985  2.0068 -0.7615  2.8276
   43MOL0     H 5772  12.785   7.558   2.029 -0.3321 -0.4252  0.6187
   43MOL0     H 5773  12.835   7.530   2.271  1.2842 -1.0175  1.9131
   43MOL0     H 5774  12.893   7.367   2.255  1.1016 -0.1503 -0.8808
   43MOL0     H 5775  13.045   7.583   2.092 -0.8171  1.5099  2.0091
   43MOL0     H 5776  13.087   7.427   2.120  2.0509  1.5084 -0.5567
   43MOL0     H 5777  13.211   7.587   2.268  1.1631  0.2831  3.5443
   43MOL0     H 5778  13.123   7.476   2.370  2.1204  0.0061 -0.6076
   43MOL0     H 5779  13.026   7.739   2.292 -2.6525 -3.1924 -2.2191
   43MOL0     H 5780  12.947   7.627   2.411 -0.1148 -0.6317  0.8302
   43MOL0     H 5781  13.231   7.760   2.442  0.8411  1.1781  4.2529
   43MOL0     H 5782  13.178   7.634   2.542  1.1297  2.0397  1.6019
   43MOL0     H 5783  13.001   7.880   2.504  1.3281  1.1502 -0.6584
   43MOL0     H 5784  12.997   7.754   2.632 -0.9102  2.1749  2.0505
   43MOL0     H 5785  12.420   7.342   2.152 -3.1230 -0.5179  1.3702
   43MOL0     H 5786  12.247   7.489   2.298 -1.0155 -3.0207 -1.0411
   43MOL0     H 5787  11.976   7.668   2.404  0.5600 -0.0061 -2.3984
   43MOL0     H 5788  11.747   7.716   2.483  0.0372 -1.1009  0.1890
   43MOL0     H 5789  10.926   8.351   1.679 -1.4765 -2.3401  0.1866
   43MOL0     H 5790  11.085   8.390   1.480 -0.1878  0.2700 -0.9880
   43MOL0     H 5791  10.779   8.630   1.077  0.6976 -1.0305  0.6731
   43MOL0     H 5792  10.712   8.862   1.170  1.5399  0.4345 -2.8997
   43MOL0     H 5793  10.967   9.090   1.446 -0.9873  3.1948 -1.0040
   43MOL0     H 5794  10.875   8.998   1.555  0.0467  0.3169  0.9909
   43MOL0     H 5795  10.797   9.245   1.405  0.1070  1.5467 -0.0924
   43MOL0     H 5796  10.844   9.225   1.579 -0.4771 -0.7257 -0.1813
   43MOL0     H 5797  10.618   9.105   1.621  3.5059 -1.6542 -0.5893
   43MOL0     H 5798  10.597   9.099   1.448  4.2419 -3.2470  0.4188
   43MOL0     H 5799  10.590   9.366   1.584 -0.8292  1.1192  0.0689
   43MOL0     H 5800  10.553   9.338   1.417 -0.9709 -1.3708 -0.8535
   43MOL0     H 5801  10.206   9.231   1.643  0.8343  0.8578  0.6871
   43MOL0     H 5802  11.039   8.853   1.429  2.0276 -2.7455  0.1469
   43MOL0     H 5803  11.222   8.741   1.381 -0.1011 -1.1387 -0.2001
   43MOL0     H 5804  11.189   8.567   1.387  2.5332  0.7809  0.7006
   43MOL0     H 5805  11.227   8.649   1.237  0.1050 -0.8553  0.3578
   44MOL0     O 5806  10.280   4.734   3.923 -0.8117 -0.4283  0.3312
   44MOL0     C 5807  10.326   4.625   3.954  0.0477  0.1199  0.5367
   44MOL0     O 5808  10.463   4.592   3.951 -0.6237 -0.0182  0.1510
   44MOL0     C 5809  10.560   4.681   3.923 -0.4817  0.1155  0.4614
   44MOL0     C 5810  10.672   4.627   3.849  0.0579 -0.3784 -0.3091
   44MOL0     C 5811  10.778   4.711   3.823 -0.5191 -0.8516 -0.6739
   44MOL0     C 5812  10.780   4.842   3.867 -0.9754  0.5447  0.0265
   44MOL0     O 5813  10.899   4.904   3.839  0.0507 -0.8153 -0.2245
   44MOL0     C 5814  10.933   4.997   3.945  0.0929  0.2538  0.0986
   44MOL0     C 5815  11.085   5.004   3.985  0.3440 -0.4542  0.5091
   44MOL0     C 5816  11.179   5.000   3.874 -0.6479 -0.0857  0.2940
   44MOL0     C 5817  11.316   5.070   3.915  0.7454 -0.2793 -0.1608
   44MOL0     C 5818  11.421   5.117   3.800  0.6450  0.9958  0.1958
   44MOL0     C 5819  11.525   5.218   3.849  0.4431  0.3512 -0.1385
   44MOL0     C 5820  11.625   5.138   3.915 -0.6241  0.1538  0.2203
   44MOL0     C 5821  11.724   5.238   3.967  0.2616 -0.0975 -0.3116
   44MOL0     N 5822  11.861   5.205   3.922  0.1046 -0.2575 -1.4436
   44MOL0     C 5823  11.932   5.274   3.821 -0.0021  0.1250 -0.6726
   44MOL0     C 5824  12.049   5.205   3.805  0.0769 -0.1960  0.3321
   44MOL0     C 5825  12.151   5.225   3.707 -0.0415  0.3589  0.4583
   44MOL0     C 5826  12.142   5.152   3.567  0.7322 -0.3625 -0.0724
   44MOL0     C 5827  12.254   5.171   3.468  0.0466 -0.5603 -0.4621
   44MOL0     C 5828  12.374   5.099   3.523 -0.4937  0.2231  0.1166
   44MOL0     O 5829  12.463   5.099   3.418 -0.3257  0.4018  0.0110
   44MOL0     C 5830  12.589   5.092   3.466 -0.1935  0.4962 -0.2348
   44MOL0     C 5831  12.676   5.204   3.458 -0.1677 -0.5111  0.1860
   44MOL0     C 5832  12.808   5.189   3.501  0.9100  0.3667 -0.6114
   44MOL0     C 5833  12.853   5.076   3.568 -0.2088  0.2924  0.8849
   44MOL0     C 5834  12.998   5.074   3.616  0.6368  0.3196 -0.4733
   44MOL0     O 5835  13.096   5.110   3.530  0.1795  0.2747  0.4231
   44MOL0     C 5836  13.220   5.114   3.586  0.1585 -0.3965 -0.4217
   44MOL0     C 5837  13.287   5.240   3.579  0.0225  0.1715  0.1128
   44MOL0     C 5838  13.422   5.249   3.627  0.8461  0.2076 -0.2742
   44MOL0     C 5839  13.491   5.135   3.683  0.7258 -0.8941 -0.1720
   44MOL0     O 5840  13.618   5.147   3.738 -1.4201 -0.1357 -0.6200
   44MOL0     C 5841  13.707   5.031   3.731 -0.5227 -0.1765  0.2822
   44MOL0     C 5842  13.746   4.995   3.584 -0.1346  0.2226 -0.1800
   44MOL0     C 5843  13.825   5.114   3.529 -0.3534  0.0961  0.0278
   44MOL0     C 5844  13.978   5.103   3.577  0.9602  0.2333  0.6686
   44MOL0     C 5845  14.057   5.214   3.506 -0.0475  0.7514 -0.9289
   44MOL0     C 5846  14.205   5.198   3.544 -0.3349  0.4575  1.1958
   44MOL0     C 5847  14.292   5.257   3.434  0.4849  0.0446 -0.1573
   44MOL0     C 5848  14.297   5.407   3.412  0.1415  0.1262  0.6054
   44MOL0    Cl 5849  14.286   5.503   3.564 -0.0279  0.4150  0.6053
   44MOL0     C 5850  13.422   5.018   3.677  0.5080 -0.4979 -0.3178
   44MOL0     C 5851  13.288   5.006   3.630  0.0293 -0.7597 -0.0578
   44MOL0     O 5852  13.013   5.056   3.739  0.0397 -0.3179 -0.1084
   44MOL0     C 5853  12.769   4.959   3.575 -0.2594 -0.0462  0.3900
   44MOL0     C 5854  12.637   4.965   3.516 -0.0006  0.6118 -0.2279
   44MOL0     N 5855  12.046   5.095   3.891  0.2489  0.0320 -0.8468
   44MOL0     N 5856  11.938   5.102   3.964  0.1381  0.2515 -0.5219
   44MOL0     C 5857  10.662   4.895   3.931  0.5131 -0.1145 -0.3266
   44MOL0     C 5858  10.550   4.813   3.961  0.7804  1.0452 -0.1131
   44MOL0     C 5859  10.230   4.519   3.975 -0.4641  0.1402 -0.0139
   44MOL0     C 5860  10.262   4.383   3.922  0.6360  0.1333 -0.6282
   44MOL0     C 5861  10.176   4.270   3.946 -0.6656 -0.3844 -0.1266
   44MOL0     C 5862  10.058   4.295   4.017  0.7215  0.1369 -0.2245
   44MOL0     O 5863   9.977   4.202   4.074  0.3740  0.2766  0.5202
   44MOL0     C 5864  10.028   4.067   4.085  0.7984 -0.6738  0.1095
   44MOL0     C 5865   9.973   3.974   3.983 -0.4929  0.7415 -0.0485
   44MOL0     C 5866   9.825   3.982   3.969  0.7486 -0.8272 -0.5742
   44MOL0     C 5867   9.735   3.956   4.096 -0.7930  0.0964  0.1290
   44MOL0     C 5868   9.726   3.816   4.128  0.3944 -0.0289  0.2700
   44MOL0     C 5869   9.709   3.698   4.136 -0.1344 -0.3057  0.4867
   44MOL0     C 5870  10.028   4.422   4.062  0.5343  0.0137 -0.9433
   44MOL0     C 5871  10.105   4.537   4.039 -0.0835 -0.6292 -0.1385
   44MOL0     C 5872  10.056   4.670   4.114  0.4561 -0.3480  0.4987
   44MOL0     H 5873  10.674   4.523   3.817 -0.3667 -0.1697 -1.0470
   44MOL0     H 5874  10.862   4.679   3.763  0.1476 -0.0846 -0.1815
   44MOL0     H 5875  10.899   5.095   3.909  1.3750 -0.3962 -3.2832
   44MOL0     H 5876  10.881   4.985   4.040 -2.9979  0.4283 -1.4468
   44MOL0     H 5877  11.113   4.924   4.055  0.2396  0.1739  1.2901
   44MOL0     H 5878  11.097   5.102   4.033  0.2968 -0.0955 -0.2038
   44MOL0     H 5879  11.135   5.048   3.786 -1.5089 -1.8953 -0.3026
   44MOL0     H 5880  11.200   4.898   3.843 -0.2914 -0.6020  2.1008
   44MOL0     H 5881  11.291   5.161   3.970  1.6810 -1.1067  1.6974
   44MOL0     H 5882  11.364   5.006   3.990  0.9239 -0.3352 -0.3232
   44MOL0     H 5883  11.472   5.037   3.746 -2.3362  0.9117 -2.8408
   44MOL0     H 5884  11.367   5.166   3.719 -0.1359 -0.5393 -0.2535
   44MOL0     H 5885  11.574   5.278   3.772  4.9506  0.8405  2.7406
   44MOL0     H 5886  11.476   5.284   3.921  0.0456  1.1411 -1.1026
   44MOL0     H 5887  11.674   5.070   3.845  0.3741 -0.1285  1.1667
   44MOL0     H 5888  11.582   5.091   4.004 -0.1940  2.9587  2.0666
   44MOL0     H 5889  11.706   5.343   3.943  0.6723 -0.3518 -1.8268
   44MOL0     H 5890  11.729   5.234   4.076  0.0184 -0.7949 -0.3227
   44MOL0     H 5891  11.893   5.362   3.770 -1.1911  0.2437  0.3906
   44MOL0     H 5892  12.164   5.332   3.690  0.8063 -0.0226 -1.5174
   44MOL0     H 5893  12.245   5.181   3.743 -0.2143 -1.4568 -1.1314
   44MOL0     H 5894  12.127   5.048   3.597  2.1479 -0.8950 -1.1248
   44MOL0     H 5895  12.053   5.192   3.517  0.9798  0.0706 -0.1737
   44MOL0     H 5896  12.279   5.275   3.447 -1.5859  0.4571  2.1656
   44MOL0     H 5897  12.213   5.127   3.376 -1.6430 -0.9523  0.4326
   44MOL0     H 5898  12.357   4.995   3.554 -0.1931  0.2332  0.3206
   44MOL0     H 5899  12.415   5.151   3.610 -0.0234  0.1669 -0.0723
   44MOL0     H 5900  12.642   5.297   3.413 -0.1868 -0.7267 -0.2520
   44MOL0     H 5901  12.865   5.282   3.499 -0.0632  0.9832 -0.2961
   44MOL0     H 5902  13.221   5.318   3.540 -0.9739 -1.8932 -2.6045
   44MOL0     H 5903  13.486   5.336   3.631  1.8155 -0.4556 -0.9737
   44MOL0     H 5904  13.795   5.061   3.788  0.5992 -1.3349 -0.7813
   44MOL0     H 5905  13.659   4.953   3.791  1.1570 -0.7376  0.9467
   44MOL0     H 5906  13.798   4.900   3.572 -0.8471 -0.3310  0.9741
   44MOL0     H 5907  13.659   4.981   3.519  1.5807  0.2219 -2.6212
   44MOL0     H 5908  13.835   5.103   3.420 -0.1036  3.5791 -0.4093
   44MOL0     H 5909  13.787   5.211   3.563 -0.9680 -0.5216  1.1488
   44MOL0     H 5910  14.013   5.007   3.539 -0.5635  0.1951 -0.7575
   44MOL0     H 5911  13.981   5.101   3.686 -1.5955  1.4167  0.8352
   44MOL0     H 5912  14.046   5.316   3.543  3.0178  1.0366 -0.5391
   44MOL0     H 5913  14.036   5.210   3.399 -1.1173  0.1805 -0.7161
   44MOL0     H 5914  14.233   5.224   3.646  0.3385 -1.7728  1.6364
   44MOL0     H 5915  14.219   5.089   3.543 -0.8000  0.3854 -0.1326
   44MOL0     H 5916  14.270   5.211   3.337 -0.8208 -1.0219  0.6207
   44MOL0     H 5917  14.395   5.227   3.455 -0.0550 -2.4223 -0.6899
   44MOL0     H 5918  14.382   5.432   3.348  0.0361  1.9983  1.1411
   44MOL0     H 5919  14.216   5.436   3.345  1.5381 -2.3521 -2.3988
   44MOL0     H 5920  13.459   4.925   3.721  3.1823  0.7339  0.2828
   44MOL0     H 5921  13.246   4.906   3.625 -0.9451 -0.3093 -1.4521
   44MOL0     H 5922  12.801   4.866   3.621  0.3374 -0.0951 -0.1137
   44MOL0     H 5923  12.572   4.879   3.529  0.1934  0.6284  1.0316
   44MOL0     H 5924  10.657   5.002   3.948  0.4962 -0.0867 -0.4998
   44MOL0     H 5925  10.461   4.844   4.015 -0.1448 -0.2767 -0.8341
   44MOL0     H 5926  10.352   4.364   3.864  0.7563  1.0041 -0.7470
   44MOL0     H 5927  10.216   4.173   3.920  5.1663  1.0177  2.1246
   44MOL0     H 5928   9.994   4.024   4.179  1.8691 -1.1870  0.2813
   44MOL0     H 5929  10.138   4.067   4.081  0.7948 -2.0684 -0.2985
   44MOL0     H 5930  10.006   3.871   3.999 -2.9029 -0.0487  0.2206
   44MOL0     H 5931  10.012   4.003   3.885  0.2929  4.7584  1.2682
   44MOL0     H 5932   9.788   3.912   3.893 -0.7069 -0.4649 -0.2253
   44MOL0     H 5933   9.788   4.079   3.936  1.3934 -0.1750  0.5790
   44MOL0     H 5934   9.753   4.011   4.189 -3.9947  0.6079  0.5588
   44MOL0     H 5935   9.638   3.994   4.063  0.1164  2.5292  0.0754
   44MOL0     H 5936   9.701   3.591   4.133  0.9379 -0.4213  1.2470
   44MOL0     H 5937   9.936   4.436   4.117 -0.6952  1.5516 -3.2253
   44MOL0     H 5938  10.140   4.691   4.180  1.4071 -3.5005  0.4369
   44MOL0     H 5939  10.044   4.760   4.052  4.3056 -0.2202 -0.2648
   44MOL0     H 5940   9.971   4.649   4.180 -0.9463  1.9354 -0.4443
   45MOL0     O 5941   6.397   1.205   1.623  0.4451  0.1617 -0.3661
   45MOL0     C 5942   6.333   1.247   1.716 -0.0505 -0.3453 -0.1208
   45MOL0     O 5943   6.391   1.316   1.816 -0.6584 -0.2808 -1.0129
   45MOL0     C 5944   6.528   1.314   1.834  0.1581  0.2151 -0.2529
   45MOL0     C 5945   6.597   1.430   1.853  0.0917  0.0019 -0.1820
   45MOL0     C 5946   6.731   1.427   1.895  0.3525 -0.1034  0.3668
   45MOL0     C 5947   6.795   1.311   1.923  0.0076  0.4444 -0.5968
   45MOL0     O 5948   6.918   1.309   1.978 -0.2965  0.6518 -0.0015
   45MOL0     C 5949   6.989   1.427   2.013  0.2516 -0.6282  0.0435
   45MOL0     C 5950   7.101   1.385   2.106 -0.3632  0.3113 -0.6155
   45MOL0     C 5951   7.204   1.288   2.042  0.6160  1.2987 -0.2473
   45MOL0     C 5952   7.164   1.148   2.076  0.3225 -0.3117 -0.3293
   45MOL0     C 5953   7.188   1.044   1.963  0.2295 -0.4263  0.8028
   45MOL0     C 5954   7.326   1.020   1.911  0.5462 -0.4144 -0.0798
   45MOL0     C 5955   7.435   0.942   2.002 -0.5344  0.2460  0.4454
   45MOL0     C 5956   7.518   1.037   2.096  0.9256 -0.3562  1.3141
   45MOL0     N 5957   7.644   1.080   2.034 -0.3857  0.2142 -0.5319
   45MOL0     C 5958   7.751   0.999   2.035 -0.0554  0.0795  0.5866
   45MOL0     C 5959   7.843   1.075   1.969 -0.5864 -0.0459  0.1174
   45MOL0     C 5960   7.975   1.030   1.922 -0.2970  0.2534 -0.0808
   45MOL0     C 5961   8.079   1.141   1.958  0.2710 -0.0648 -0.0269
   45MOL0     C 5962   8.220   1.093   1.908 -0.2855  0.2770  0.0952
   45MOL0     C 5963   8.331   1.184   1.959  0.2007 -0.1524 -0.3909
   45MOL0     O 5964   8.451   1.153   1.894  0.0479 -0.3256  0.7426
   45MOL0     C 5965   8.553   1.243   1.922 -0.3791 -0.5633  0.1134
   45MOL0     C 5966   8.678   1.198   1.872  0.6785 -0.7389  0.0171
   45MOL0     C 5967   8.801   1.251   1.924 -0.5606 -1.3158  0.7284
   45MOL0     C 5968   8.803   1.357   2.016 -1.2668 -0.3078 -0.2071
   45MOL0     C 5969   8.926   1.416   2.080 -0.2756  0.3774 -0.3122
   45MOL0     O 5970   8.893   1.504   2.186 -0.6264 -0.1199  0.2716
   45MOL0     C 5971   9.000   1.554   2.252 -0.0315 -0.2239  0.3892
   45MOL0     C 5972   9.089   1.651   2.204  0.0922 -0.0615 -0.1384
   45MOL0     C 5973   9.183   1.714   2.290 -0.2436 -0.4474  0.2803
   45MOL0     C 5974   9.202   1.667   2.418  0.3606  0.1217 -1.1186
   45MOL0     O 5975   9.293   1.740   2.494  0.4627 -0.5919  0.1476
   45MOL0     C 5976   9.293   1.721   2.638  0.0889 -0.8889 -0.8052
   45MOL0     C 5977   9.396   1.821   2.703  0.5159 -0.5127 -0.1696
   45MOL0     C 5978   9.536   1.764   2.723 -0.0561 -0.1400 -0.3140
   45MOL0     C 5979   9.618   1.880   2.783  0.9284 -0.3662 -0.5818
   45MOL0     C 5980   9.754   1.826   2.836  0.3306  0.2706  0.7129
   45MOL0     C 5981   9.843   1.769   2.729  0.1228 -0.0155 -0.3428
   45MOL0     C 5982   9.886   1.877   2.625 -0.1300  0.6116 -0.7287
   45MOL0     C 5983  10.025   1.864   2.561  0.3936  0.2577 -0.4595
   45MOL0    Cl 5984  10.028   1.713   2.456 -0.3735  0.3414 -0.0568
   45MOL0     C 5985   9.123   1.560   2.459 -0.0138  0.5614  0.0584
   45MOL0     C 5986   9.025   1.497   2.379  0.1013 -0.1655  1.0675
   45MOL0     O 5987   9.042   1.377   2.051  0.0939 -0.2188 -0.4024
   45MOL0     C 5988   8.678   1.403   2.059  0.7736  0.1631  0.0277
   45MOL0     C 5989   8.556   1.350   2.015  0.6399  0.4983  0.3119
   45MOL0     N 5990   7.789   1.208   1.951 -0.5012  0.2341  0.2845
   45MOL0     N 5991   7.674   1.206   1.981 -0.1831 -0.0112 -0.2106
   45MOL0     C 5992   6.727   1.188   1.891  0.2305 -0.0691  0.1078
   45MOL0     C 5993   6.590   1.194   1.852  0.3970 -0.0208  0.0340
   45MOL0     C 5994   6.193   1.218   1.723  0.4048  0.0951  0.0790
   45MOL0     C 5995   6.113   1.322   1.775 -0.2004  0.6576  0.1514
   45MOL0     C 5996   5.980   1.310   1.783  0.4114 -1.5286 -0.0417
   45MOL0     C 5997   5.915   1.204   1.726  0.4737 -0.3678 -0.7006
   45MOL0     O 5998   5.776   1.218   1.716 -0.0055 -0.4653 -0.5620
   45MOL0     C 5999   5.715   1.177   1.591  0.9921  0.0198  1.3349
   45MOL0     C 6000   5.573   1.222   1.593 -0.0048  0.4042 -0.2562
   45MOL0     C 6001   5.553   1.359   1.657 -0.3386  0.3869 -1.4966
   45MOL0     C 6002   5.448   1.444   1.584 -2.1222  0.0192 -0.4664
   45MOL0     C 6003   5.322   1.380   1.591  1.4032  0.7708  0.1952
   45MOL0     C 6004   5.201   1.351   1.606 -0.0753 -0.0578 -0.3015
   45MOL0     C 6005   5.987   1.099   1.661  0.8366  0.1520 -0.1749
   45MOL0     C 6006   6.129   1.106   1.653 -0.0490  0.3817 -0.1802
   45MOL0     C 6007   6.209   1.001   1.598 -0.1440 -0.4252  0.3295
   45MOL0     H 6008   6.551   1.527   1.838 -0.0719 -0.4321 -3.2774
   45MOL0     H 6009   6.772   1.527   1.908  3.1419 -1.3443  2.1599
   45MOL0     H 6010   7.026   1.468   1.919 -4.2408 -0.4206 -1.9217
   45MOL0     H 6011   6.927   1.507   2.054  2.1517  1.8694 -1.6288
   45MOL0     H 6012   7.048   1.343   2.192  0.1798  1.1873  0.1615
   45MOL0     H 6013   7.165   1.467   2.140 -2.9741  1.4793  1.8874
   45MOL0     H 6014   7.303   1.319   2.076  0.7021  2.6392 -1.5975
   45MOL0     H 6015   7.198   1.291   1.932 -1.5241 -0.7804 -0.2803
   45MOL0     H 6016   7.234   1.132   2.158  1.5508  1.9287 -0.8693
   45MOL0     H 6017   7.064   1.135   2.117  0.5599 -0.0239  0.3448
   45MOL0     H 6018   7.152   0.948   2.000  0.7595 -1.3159 -0.8702
   45MOL0     H 6019   7.115   1.061   1.884 -1.6783 -4.2912  1.5203
   45MOL0     H 6020   7.320   0.964   1.817  3.1157 -1.0580  0.0522
   45MOL0     H 6021   7.362   1.121   1.892 -1.9743  0.4988 -0.3027
   45MOL0     H 6022   7.509   0.887   1.942 -0.5179 -1.5513  2.0140
   45MOL0     H 6023   7.387   0.868   2.066  2.6017 -1.3110  1.1960
   45MOL0     H 6024   7.449   1.121   2.109 -2.8980 -2.2120 -3.4814
   45MOL0     H 6025   7.533   0.977   2.187 -0.7919  0.9828  2.5329
   45MOL0     H 6026   7.762   0.904   2.086  0.2582  0.1359  0.6280
   45MOL0     H 6027   8.004   0.930   1.953  1.1052  0.8761  0.7032
   45MOL0     H 6028   7.967   1.026   1.813 -0.2453  0.1688 -0.0812
   45MOL0     H 6029   8.054   1.239   1.916 -1.9993 -0.1558  0.9611
   45MOL0     H 6030   8.085   1.140   2.067 -0.7095 -2.2667  0.0718
   45MOL0     H 6031   8.238   1.097   1.800  2.4965  1.6962  0.4916
   45MOL0     H 6032   8.251   0.995   1.945  1.3384  1.7703  3.1340
   45MOL0     H 6033   8.348   1.161   2.065  1.2139  0.9840 -0.2901
   45MOL0     H 6034   8.299   1.289   1.959 -2.2029 -0.6492  4.0629
   45MOL0     H 6035   8.690   1.114   1.804 -0.2422 -0.5575 -0.3866
   45MOL0     H 6036   8.894   1.221   1.877  0.6325  3.6711 -0.7356
   45MOL0     H 6037   9.067   1.690   2.105  0.2623  0.1516 -0.0939
   45MOL0     H 6038   9.236   1.802   2.257  0.5356  0.0240  2.6039
   45MOL0     H 6039   9.191   1.740   2.675  1.0276  0.2274  1.4207
   45MOL0     H 6040   9.328   1.622   2.668  0.4277 -1.3754 -2.7363
   45MOL0     H 6041   9.393   1.914   2.646 -1.8262 -0.8819 -0.7435
   45MOL0     H 6042   9.352   1.839   2.802  0.1519  0.0591 -0.4282
   45MOL0     H 6043   9.546   1.687   2.800  0.7359  2.2693  2.1809
   45MOL0     H 6044   9.568   1.727   2.625 -2.2510 -1.0418 -0.7314
   45MOL0     H 6045   9.559   1.923   2.865  1.5649 -3.2211  1.5323
   45MOL0     H 6046   9.635   1.957   2.707  0.5210  0.4245  0.1091
   45MOL0     H 6047   9.739   1.740   2.902  0.1077  0.5432  1.0264
   45MOL0     H 6048   9.799   1.910   2.890  0.8509 -0.3499  1.2635
   45MOL0     H 6049   9.937   1.738   2.774  1.5852  4.1059 -0.1519
   45MOL0     H 6050   9.795   1.684   2.679  3.8121 -3.0678  0.8596
   45MOL0     H 6051   9.875   1.974   2.674  0.6062 -0.3184  1.3907
   45MOL0     H 6052   9.809   1.879   2.547 -3.6501  0.4438  2.3996
   45MOL0     H 6053  10.053   1.956   2.509  0.4355  0.0654 -0.7799
   45MOL0     H 6054  10.098   1.841   2.638  0.4218 -3.0193 -1.2926
   45MOL0     H 6055   9.129   1.521   2.560  1.9227 -0.7870 -0.5170
   45MOL0     H 6056   8.969   1.416   2.425  1.3199 -0.0429  2.8409
   45MOL0     H 6057   8.656   1.487   2.125 -1.4785  1.0393 -1.7052
   45MOL0     H 6058   8.469   1.396   2.062  0.4099  2.3647 -1.7575
   45MOL0     H 6059   6.771   1.089   1.891  1.5941  0.5046  0.1520
   45MOL0     H 6060   6.533   1.103   1.838  0.1929 -0.0370  0.9155
   45MOL0     H 6061   6.173   1.399   1.821  1.9039 -1.5046  1.2411
   45MOL0     H 6062   5.929   1.398   1.822 -0.0402 -1.1216 -1.5114
   45MOL0     H 6063   5.714   1.070   1.566 -1.0527 -0.0157  1.3870
   45MOL0     H 6064   5.754   1.215   1.497 -0.8661  0.6985  0.7996
   45MOL0     H 6065   5.526   1.152   1.663  2.1652  0.4536  1.3624
   45MOL0     H 6066   5.535   1.206   1.492  3.1256 -0.0222 -1.4652
   45MOL0     H 6067   5.639   1.423   1.677 -2.0440  2.7562 -1.2659
   45MOL0     H 6068   5.514   1.344   1.758 -1.3340  1.9250 -1.6205
   45MOL0     H 6069   5.449   1.546   1.626 -0.5214 -0.3090  0.3662
   45MOL0     H 6070   5.491   1.450   1.484  0.2467  1.3596  0.5449
   45MOL0     H 6071   5.096   1.333   1.620 -0.3970  1.2056 -0.9340
   45MOL0     H 6072   5.938   1.010   1.625  1.5326 -2.0736  3.8080
   45MOL0     H 6073   6.308   0.988   1.643  0.9323 -2.7907 -2.3541
   45MOL0     H 6074   6.159   0.904   1.609 -1.4330  0.2401  0.5267
   45MOL0     H 6075   6.227   1.017   1.491 -1.5989  0.8453  0.2420
   46MOL0     O 6076   0.178   5.198   9.645 -0.5079  0.7425 -1.1927
   46MOL0     C 6077   0.112   5.250   9.729  0.5241 -0.4526 -0.6985
   46MOL0     O 6078   0.160   5.338   9.829  0.1800  0.0729  0.0957
   46MOL0     C 6079   0.284   5.379   9.816 -0.5330 -0.4662 -0.1221
   46MOL0     C 6080   0.380   5.331   9.904 -0.5466  0.8351  0.2259
   46MOL0     C 6081   0.513   5.359   9.883  0.3714  0.4674  0.3712
   46MOL0     C 6082   0.554   5.464   9.810  0.0252 -0.3695  0.1098
   46MOL0     O 6083   0.687   5.507   9.794  0.5051 -0.4560 -0.1148
   46MOL0     C 6084   0.775   5.485   9.903 -0.7762  0.4180  0.0990
   46MOL0     C 6085   0.904   5.562   9.872  0.5345 -0.6736 -0.4271
   46MOL0     C 6086   0.964   5.504   9.745  0.6052  0.1692  0.7894
   46MOL0     C 6087   1.105   5.571   9.714 -0.8125  0.3692 -0.0514
   46MOL0     C 6088   1.204   5.481   9.643 -0.6909  0.2688 -0.1281
   46MOL0     C 6089   1.301   5.565   9.572 -0.1816 -0.7739  0.4635
   46MOL0     C 6090   1.404   5.480   9.487 -1.2457  0.0564 -0.0689
   46MOL0     C 6091   1.507   5.580   9.430  0.6631 -0.6388 -0.2624
   46MOL0     N 6092   1.598   5.511   9.340 -0.5132  0.0744  0.2430
   46MOL0     C 6093   1.637   5.379   9.351 -0.6513  0.4299 -0.1288
   46MOL0     C 6094   1.729   5.366   9.251 -0.2792  0.2376  0.0213
   46MOL0     C 6095   1.791   5.236   9.221  0.3172  0.7949 -0.5698
   46MOL0     C 6096   1.691   5.112   9.203  0.8516  0.6859 -0.3642
   46MOL0     C 6097   1.726   5.013   9.096 -0.5599  0.4087 -0.0512
   46MOL0     C 6098   1.833   4.904   9.130  0.1437  0.5153 -0.2487
   46MOL0     O 6099   1.760   4.792   9.195 -0.5936 -0.0835  0.0532
   46MOL0     C 6100   1.823   4.670   9.226 -0.3631 -0.4070 -0.3273
   46MOL0     C 6101   1.737   4.566   9.251  0.5427 -0.1074 -0.0642
   46MOL0     C 6102   1.775   4.441   9.305 -0.2048  0.2491 -0.8812
   46MOL0     C 6103   1.913   4.409   9.320  0.3108 -0.1202  0.1533
   46MOL0     C 6104   1.977   4.279   9.369  0.7729  0.4117  0.8727
   46MOL0     O 6105   1.889   4.175   9.406  0.1916  0.6914 -0.4819
   46MOL0     C 6106   1.949   4.059   9.451 -0.4171  0.0172  0.0704
   46MOL0     C 6107   2.011   4.045   9.589 -0.3189 -0.1164 -1.0637
   46MOL0     C 6108   2.068   3.912   9.627  0.0549  0.3954  0.4620
   46MOL0     C 6109   2.044   3.800   9.550  0.2654 -0.4074  0.7301
   46MOL0     O 6110   2.108   3.680   9.582  0.0898 -0.3537 -0.5646
   46MOL0     C 6111   2.022   3.564   9.610 -0.3893 -0.1983  0.9608
   46MOL0     C 6112   1.958   3.551   9.749 -0.0427 -0.3209  0.3506
   46MOL0     C 6113   1.854   3.440   9.735 -0.4494  0.0938  0.8640
   46MOL0     C 6114   1.930   3.300   9.721  0.3317  0.1180  0.6331
   46MOL0     C 6115   1.829   3.190   9.750  0.8786  1.0765 -0.3265
   46MOL0     C 6116   1.699   3.189   9.665  0.4093  0.7415  0.6057
   46MOL0     C 6117   1.603   3.097   9.732 -0.3617  0.7335 -0.2345
   46MOL0     C 6118   1.503   3.046   9.638 -0.2541  0.1246 -0.0080
   46MOL0    Cl 6119   1.347   3.022   9.724 -0.0546 -0.1637  0.6416
   46MOL0     C 6120   1.998   3.822   9.418  0.1202  0.3231  0.0509
   46MOL0     C 6121   1.955   3.941   9.363  0.8563 -0.1797 -0.0105
   46MOL0     O 6122   2.101   4.264   9.347 -0.1235 -0.3723 -0.7458
   46MOL0     C 6123   1.999   4.516   9.288 -0.0270 -0.3260  0.2001
   46MOL0     C 6124   1.959   4.639   9.233 -0.0991  0.3414  0.0434
   46MOL0     N 6125   1.738   5.484   9.174  0.2775  0.1534  0.3442
   46MOL0     N 6126   1.659   5.569   9.233  0.3003 -0.2644 -0.3389
   46MOL0     C 6127   0.460   5.544   9.740  0.2013  0.7073  0.5017
   46MOL0     C 6128   0.327   5.495   9.741 -0.5893 -0.0793  0.9653
   46MOL0     C 6129  -0.030   5.233   9.754 -0.0033  0.5877 -0.0721
   46MOL0     C 6130  -0.061   5.180   9.879  0.3723 -0.1372  0.2622
   46MOL0     C 6131  -0.197   5.150   9.904 -0.5803  0.1335  0.5530
   46MOL0     C 6132  -0.301   5.169   9.808 -0.3110  0.5318  0.8794
   46MOL0     O 6133  -0.435   5.138   9.825 -0.2361 -0.2454 -0.5672
   46MOL0     C 6134  -0.498   5.129   9.951 -0.0286 -0.1337  0.7502
   46MOL0     C 6135  -0.643   5.072   9.928  0.5348  1.5395  0.1232
   46MOL0     C 6136  -0.720   5.095  10.063  0.2423  0.0708 -1.1158
   46MOL0     C 6137  -0.867   5.051  10.049 -0.2688 -0.8098 -0.6420
   46MOL0     C 6138  -0.873   4.918   9.998  0.5783 -0.2815 -0.1812
   46MOL0     C 6139  -0.871   4.800   9.960  0.5146 -0.9650 -0.1400
   46MOL0     C 6140  -0.267   5.214   9.686 -0.4148 -0.0574  0.0186
   46MOL0     C 6141  -0.133   5.254   9.654  0.2709  0.2605 -0.4690
   46MOL0     C 6142  -0.102   5.300   9.514  0.1684 -0.8409  1.0351
   46MOL0     H 6143   0.365   5.246   9.970  3.7692  1.2253  2.0573
   46MOL0     H 6144   0.579   5.289   9.933 -0.1627 -0.5543 -0.3064
   46MOL0     H 6145   0.721   5.519   9.992 -1.3349  0.8410 -0.3895
   46MOL0     H 6146   0.803   5.380   9.908  2.1314  1.1611  1.4292
   46MOL0     H 6147   0.972   5.535   9.954  0.3508  2.3380  0.8433
   46MOL0     H 6148   0.885   5.670   9.874  1.1571 -0.5386 -1.1869
   46MOL0     H 6149   0.895   5.509   9.660 -2.2675 -0.0015  2.9519
   46MOL0     H 6150   0.986   5.400   9.772 -0.8873 -0.2016  0.6561
   46MOL0     H 6151   1.081   5.657   9.652 -1.3199  1.4673  1.6051
   46MOL0     H 6152   1.141   5.600   9.813 -2.7794 -1.6550  1.3653
   46MOL0     H 6153   1.245   5.398   9.701  1.6698  0.4299 -1.4303
   46MOL0     H 6154   1.149   5.427   9.566 -0.2224  2.0421 -1.8039
   46MOL0     H 6155   1.249   5.629   9.499  1.5213 -0.5796 -0.6344
   46MOL0     H 6156   1.356   5.636   9.634  1.6387 -0.9257 -0.8714
   46MOL0     H 6157   1.355   5.421   9.409 -1.2582  1.0773 -0.8605
   46MOL0     H 6158   1.461   5.409   9.546  2.1155  1.2276 -1.6899
   46MOL0     H 6159   1.460   5.659   9.371  0.3824 -0.8843 -0.3716
   46MOL0     H 6160   1.572   5.628   9.504 -0.5614 -0.3748  0.6814
   46MOL0     H 6161   1.601   5.311   9.427  1.7721 -0.1714  0.5676
   46MOL0     H 6162   1.858   5.253   9.136  1.6877  1.4894  0.5962
   46MOL0     H 6163   1.863   5.211   9.300 -0.6476  0.3433  0.1836
   46MOL0     H 6164   1.678   5.058   9.297 -0.4753  0.7587 -0.4861
   46MOL0     H 6165   1.595   5.151   9.169  0.7434  0.3163 -0.4857
   46MOL0     H 6166   1.772   5.072   9.017 -1.1458 -0.1639 -0.8407
   46MOL0     H 6167   1.638   4.967   9.049 -0.7871  0.5792  0.2013
   46MOL0     H 6168   1.906   4.950   9.198 -0.0759 -0.5677  0.7697
   46MOL0     H 6169   1.885   4.869   9.040 -0.5889 -2.1557  0.2569
   46MOL0     H 6170   1.636   4.604   9.263  1.1928  2.0472 -0.8601
   46MOL0     H 6171   1.706   4.360   9.329 -0.5096  0.9000  0.5027
   46MOL0     H 6172   2.008   4.138   9.644 -0.2764 -0.7251  0.0045
   46MOL0     H 6173   2.114   3.895   9.723 -2.3358 -0.5222  1.5172
   46MOL0     H 6174   1.939   3.574   9.539 -1.0092  1.2161  1.8433
   46MOL0     H 6175   2.079   3.476   9.579  0.5772  0.9698 -0.7790
   46MOL0     H 6176   2.031   3.519   9.825  0.1960 -0.4823  0.0570
   46MOL0     H 6177   1.919   3.652   9.766 -1.2964 -0.4987 -1.2246
   46MOL0     H 6178   1.791   3.417   9.822 -0.3640 -2.4565  0.3453
   46MOL0     H 6179   1.780   3.445   9.655 -0.0368 -3.9046  0.0170
   46MOL0     H 6180   1.999   3.293   9.805  1.7704  1.3209 -0.3855
   46MOL0     H 6181   1.986   3.280   9.630  0.3909  1.4480  0.3598
   46MOL0     H 6182   1.802   3.180   9.856 -0.9507 -0.9595 -0.8918
   46MOL0     H 6183   1.886   3.101   9.725 -1.5241 -0.3060 -1.2891
   46MOL0     H 6184   1.653   3.288   9.658 -2.7914 -0.7478 -1.3015
   46MOL0     H 6185   1.713   3.151   9.564 -5.1067 -2.7470  0.7915
   46MOL0     H 6186   1.550   3.154   9.809 -1.5493  2.8476 -2.4817
   46MOL0     H 6187   1.655   3.012   9.777 -1.0315  0.7848  0.6576
   46MOL0     H 6188   1.490   3.125   9.564  1.3673  2.1676  1.7633
   46MOL0     H 6189   1.521   2.948   9.593 -2.2451 -2.4643  4.1567
   46MOL0     H 6190   1.995   3.737   9.350  1.3899  1.3607 -1.4055
   46MOL0     H 6191   1.907   3.945   9.266  0.5780  0.9319  0.1684
   46MOL0     H 6192   2.107   4.501   9.291  0.2247  1.4455  2.8762
   46MOL0     H 6193   2.037   4.712   9.209  0.9710 -0.8938 -0.3270
   46MOL0     H 6194   0.499   5.630   9.687  1.7110 -1.0173 -1.3603
   46MOL0     H 6195   0.266   5.561   9.681  4.7788  5.3470  0.5203
   46MOL0     H 6196   0.023   5.159   9.944  1.3351 -0.4220 -1.0311
   46MOL0     H 6197  -0.235   5.112   9.999  0.4153 -0.3813  0.7514
   46MOL0     H 6198  -0.512   5.230   9.991  1.1978  0.6745 -0.7386
   46MOL0     H 6199  -0.441   5.061  10.014  2.0915  0.7824 -0.0850
   46MOL0     H 6200  -0.634   4.967   9.898 -0.2474  1.2255  0.9394
   46MOL0     H 6201  -0.684   5.129   9.844 -0.0896 -2.5232 -2.6275
   46MOL0     H 6202  -0.702   5.199  10.090  2.8225 -0.7120  0.5902
   46MOL0     H 6203  -0.673   5.036  10.143 -0.6184 -4.0489 -3.3570
   46MOL0     H 6204  -0.901   5.060  10.152  1.0797 -2.1286 -0.0593
   46MOL0     H 6205  -0.931   5.118   9.990 -1.4148 -1.3509 -0.0376
   46MOL0     H 6206  -0.859   4.695   9.940  0.3162 -0.8851 -0.7004
   46MOL0     H 6207  -0.356   5.216   9.624 -1.0575  0.5825  0.9390
   46MOL0     H 6208  -0.017   5.367   9.497 -1.4859  1.5586  1.7319
   46MOL0     H 6209  -0.069   5.206   9.466 -2.1567 -0.3452 -1.8110
   46MOL0     H 6210  -0.192   5.332   9.461  1.5069  1.3992 -0.0384
   47MOL0     O 6211   4.816   4.583   7.158 -0.2108 -0.2104 -0.4872
   47MOL0     C 6212   4.783   4.487   7.229 -0.4032  0.1765 -0.9034
   47MOL0     O 6213   4.870   4.393   7.282 -0.2993 -0.4154  0.4822
   47MOL0     C 6214   5.003   4.425   7.267 -0.2994  0.1777  0.3949
   47MOL0     C 6215   5.069   4.452   7.381 -0.0586 -0.4322 -0.9628
   47MOL0     C 6216   5.204   4.502   7.367 -0.0552  0.7509  0.2810
   47MOL0     C 6217   5.267   4.509   7.238 -0.5199  0.1542 -0.8027
   47MOL0     O 6218   5.393   4.563   7.223  0.4485  0.1126  0.2605
   47MOL0     C 6219   5.497   4.566   7.314 -0.2845  0.1675 -0.2069
   47MOL0     C 6220   5.618   4.615   7.227  0.0478  0.5246 -0.4636
   47MOL0     C 6221   5.743   4.555   7.289 -0.5815 -0.0156 -0.7380
   47MOL0     C 6222   5.813   4.641   7.389  0.0698  0.6702 -0.9652
   47MOL0     C 6223   5.933   4.566   7.470  0.2583 -0.1208 -0.4821
   47MOL0     C 6224   6.061   4.544   7.387 -1.2950  0.8272  0.7756
   47MOL0     C 6225   6.190   4.529   7.464  0.3313  0.5584  0.2700
   47MOL0     C 6226   6.227   4.653   7.543  0.2069 -0.6024  0.4970
   47MOL0     N 6227   6.363   4.654   7.591 -0.7338  0.2540  0.4317
   47MOL0     C 6228   6.472   4.605   7.514 -0.3214 -0.1782 -0.3791
   47MOL0     C 6229   6.571   4.579   7.605  0.2747 -0.2081 -1.0788
   47MOL0     C 6230   6.713   4.551   7.566  0.3983 -0.5535 -0.4451
   47MOL0     C 6231   6.785   4.689   7.535 -0.5585  0.6416 -0.5278
   47MOL0     C 6232   6.933   4.677   7.492 -0.1482  0.6961  0.3101
   47MOL0     C 6233   7.004   4.807   7.435 -0.0415 -0.0979  0.0864
   47MOL0     O 6234   7.122   4.774   7.360  0.1436 -0.2436  0.5362
   47MOL0     C 6235   7.251   4.819   7.389 -0.6654 -0.5067 -0.3821
   47MOL0     C 6236   7.286   4.881   7.510 -0.1796  0.2223 -0.1227
   47MOL0     C 6237   7.412   4.935   7.526  0.2417 -0.3403 -0.1312
   47MOL0     C 6238   7.504   4.938   7.424 -0.8230  0.3256  0.7045
   47MOL0     C 6239   7.624   5.018   7.431 -0.3206 -0.5716  0.1689
   47MOL0     O 6240   7.714   5.014   7.323  0.4635  0.5237 -0.2731
   47MOL0     C 6241   7.826   5.090   7.321 -0.0603 -0.5593  0.1276
   47MOL0     C 6242   7.917   5.096   7.425 -0.3062 -0.6115 -0.0050
   47MOL0     C 6243   8.039   5.170   7.414 -0.3240  0.4599  0.4780
   47MOL0     C 6244   8.083   5.223   7.291 -0.2002 -0.2206 -0.2789
   47MOL0     O 6245   8.216   5.275   7.285  1.0140 -0.6973  0.1675
   47MOL0     C 6246   8.314   5.203   7.359  0.5924 -0.3641 -0.3108
   47MOL0     C 6247   8.449   5.203   7.290 -0.2342 -0.8960 -0.2088
   47MOL0     C 6248   8.439   5.152   7.142 -0.9643  0.6522 -0.0751
   47MOL0     C 6249   8.572   5.205   7.072 -0.3915 -0.0855  0.6294
   47MOL0     C 6250   8.702   5.130   7.112  0.4706  0.0720  0.4480
   47MOL0     C 6251   8.826   5.203   7.091 -0.3098  0.5972  1.0309
   47MOL0     C 6252   8.943   5.137   7.157  0.4529  0.4232 -0.0810
   47MOL0     C 6253   9.063   5.232   7.167 -1.0899  0.4746 -0.4180
   47MOL0    Cl 6254   9.166   5.172   7.283  0.1984  0.2840  0.1356
   47MOL0     C 6255   7.990   5.213   7.182  0.1411  0.7072  0.9288
   47MOL0     C 6256   7.863   5.160   7.200 -0.0904  0.5366  0.9576
   47MOL0     O 6257   7.638   5.094   7.526 -0.1355  0.5411 -0.8764
   47MOL0     C 6258   7.472   4.869   7.298  0.3273 -0.0981 -0.3971
   47MOL0     C 6259   7.339   4.832   7.279 -0.0803  0.1926 -0.1067
   47MOL0     N 6260   6.530   4.606   7.729  0.3544  0.1728 -0.5077
   47MOL0     N 6261   6.409   4.641   7.721  0.2000 -0.3191 -0.1450
   47MOL0     C 6262   5.199   4.456   7.134  0.6123 -0.6623  0.6218
   47MOL0     C 6263   5.067   4.418   7.144 -0.1050  0.9944 -0.0175
   47MOL0     C 6264   4.634   4.452   7.242 -0.7212 -0.4213 -0.7357
   47MOL0     C 6265   4.602   4.318   7.276  1.2547  0.4824 -0.5927
   47MOL0     C 6266   4.464   4.280   7.267 -0.2232 -0.6426 -0.7334
   47MOL0     C 6267   4.357   4.366   7.238 -0.1440 -0.5262 -0.4973
   47MOL0     O 6268   4.230   4.340   7.220 -0.2976 -0.1907 -0.5159
   47MOL0     C 6269   4.195   4.221   7.156  0.1683 -0.2797  0.1182
   47MOL0     C 6270   4.222   4.239   7.008 -0.6863  0.4680 -0.2023
   47MOL0     C 6271   4.145   4.133   6.927 -0.3726 -0.8099 -0.4650
   47MOL0     C 6272   4.185   4.146   6.778 -1.4843  0.0385  0.3326
   47MOL0     C 6273   4.328   4.116   6.758 -0.5394  0.6743 -1.1467
   47MOL0     C 6274   4.431   4.057   6.743 -0.1710 -0.1644 -0.6465
   47MOL0     C 6275   4.389   4.500   7.222 -0.9513  0.2005 -1.3218
   47MOL0     C 6276   4.526   4.541   7.223 -0.2926  0.4196 -0.3486
   47MOL0     C 6277   4.554   4.688   7.211  0.1751  0.1969 -0.2220
   47MOL0     H 6278   5.022   4.438   7.478  1.1257 -0.3393 -0.3587
   47MOL0     H 6279   5.252   4.536   7.458 -3.8344 -0.0753  2.8438
   47MOL0     H 6280   5.476   4.634   7.397 -2.1347 -2.1104  1.3247
   47MOL0     H 6281   5.513   4.464   7.352 -5.4511 -0.5030  0.8451
   47MOL0     H 6282   5.614   4.724   7.217  1.5755  0.3746 -3.4841
   47MOL0     H 6283   5.609   4.569   7.129  1.1565 -0.6490 -0.0333
   47MOL0     H 6284   5.812   4.539   7.206  0.4199 -1.3088  0.2996
   47MOL0     H 6285   5.728   4.454   7.328  2.1649 -0.6651 -1.1290
   47MOL0     H 6286   5.852   4.735   7.349  0.4563  1.4307  1.1098
   47MOL0     H 6287   5.735   4.664   7.462  1.3816 -3.2962  2.0396
   47MOL0     H 6288   5.947   4.631   7.557  0.9008  0.3035 -0.9013
   47MOL0     H 6289   5.891   4.473   7.509  2.1755 -0.3091  1.3316
   47MOL0     H 6290   6.046   4.453   7.328 -0.2259  1.5507 -0.6703
   47MOL0     H 6291   6.076   4.627   7.317 -1.3835  1.7173  1.7849
   47MOL0     H 6292   6.265   4.507   7.387 -0.7023 -2.0202 -0.1320
   47MOL0     H 6293   6.196   4.445   7.534  3.0375  0.7617  0.3714
   47MOL0     H 6294   6.208   4.748   7.491  0.5659 -0.6408  0.2855
   47MOL0     H 6295   6.165   4.666   7.632 -0.1737  1.9321 -0.0544
   47MOL0     H 6296   6.479   4.597   7.406  1.9021  0.1886 -0.3123
   47MOL0     H 6297   6.755   4.508   7.658  0.3245 -0.6379 -0.4507
   47MOL0     H 6298   6.723   4.490   7.476  0.7492 -0.3899 -0.5159
   47MOL0     H 6299   6.727   4.731   7.451  0.9606 -1.1145 -2.5707
   47MOL0     H 6300   6.782   4.757   7.620 -2.5282  0.3178 -0.2723
   47MOL0     H 6301   6.948   4.606   7.410  3.9580  0.8864  0.6795
   47MOL0     H 6302   6.991   4.642   7.577  1.5591  0.9009 -0.7209
   47MOL0     H 6303   7.026   4.870   7.522 -4.3968 -0.9484  2.0464
   47MOL0     H 6304   6.942   4.856   7.360 -0.6413 -0.1822  0.5196
   47MOL0     H 6305   7.221   4.908   7.593 -0.8985  6.4298 -2.1564
   47MOL0     H 6306   7.443   4.979   7.621 -2.5165  0.3339  0.5625
   47MOL0     H 6307   7.898   5.047   7.520 -0.6778  0.7256  0.6409
   47MOL0     H 6308   8.105   5.181   7.499  1.0690 -1.4797 -0.3112
   47MOL0     H 6309   8.325   5.260   7.452  0.1253  0.9271 -1.0233
   47MOL0     H 6310   8.276   5.102   7.377 -0.4609  0.2295  0.9875
   47MOL0     H 6311   8.489   5.305   7.295 -2.3293 -0.0777  2.7945
   47MOL0     H 6312   8.511   5.138   7.352 -2.4015 -2.8655  0.0445
   47MOL0     H 6313   8.444   5.043   7.141 -0.8318  0.6577 -0.0874
   47MOL0     H 6314   8.349   5.189   7.093  0.1294  2.5549 -0.7911
   47MOL0     H 6315   8.581   5.314   7.080 -1.1249  0.0462 -0.1151
   47MOL0     H 6316   8.566   5.184   6.964 -1.4162  1.1861  0.4069
   47MOL0     H 6317   8.715   5.040   7.051  3.6206 -1.4684  3.0622
   47MOL0     H 6318   8.699   5.108   7.219  0.9289  0.6133  0.5763
   47MOL0     H 6319   8.838   5.207   6.982  2.1656  0.3324  1.2437
   47MOL0     H 6320   8.815   5.308   7.119  0.5663  0.9150  0.2466
   47MOL0     H 6321   8.969   5.049   7.097 -1.7283 -0.6939  0.5094
   47MOL0     H 6322   8.917   5.091   7.252 -0.2057 -0.1934 -0.5466
   47MOL0     H 6323   9.114   5.221   7.070 -0.4699 -0.9525  0.0514
   47MOL0     H 6324   9.038   5.337   7.189 -0.1242  0.3838  1.2451
   47MOL0     H 6325   8.010   5.274   7.095 -1.2165  0.5060  0.4550
   47MOL0     H 6326   7.790   5.160   7.121  0.0934 -1.8202  0.7208
   47MOL0     H 6327   7.541   4.876   7.215  2.9665 -1.0270  1.5596
   47MOL0     H 6328   7.302   4.797   7.183 -2.1196 -4.9075  2.1936
   47MOL0     H 6329   5.241   4.462   7.034  3.3049 -1.9732  1.5802
   47MOL0     H 6330   5.012   4.383   7.056  0.0244 -0.6140  0.5040
   47MOL0     H 6331   4.670   4.235   7.294  0.7821  0.2861  0.3386
   47MOL0     H 6332   4.435   4.178   7.292 -2.0185 -0.6631 -2.6419
   47MOL0     H 6333   4.087   4.203   7.166  0.6914 -2.2691  3.8549
   47MOL0     H 6334   4.244   4.134   7.201  1.5370 -0.5509 -1.7840
   47MOL0     H 6335   4.328   4.220   6.990 -1.1804 -5.2064  1.1508
   47MOL0     H 6336   4.192   4.338   6.971 -0.1956  0.5789 -0.3135
   47MOL0     H 6337   4.036   4.146   6.933 -0.3625 -0.9157 -0.0660
   47MOL0     H 6338   4.171   4.031   6.956 -1.2380 -1.1659 -0.9116
   47MOL0     H 6339   4.130   4.068   6.725 -1.8929 -0.8102  1.9375
   47MOL0     H 6340   4.167   4.247   6.739 -0.6379 -0.3835 -1.2639
   47MOL0     H 6341   4.525   4.006   6.743 -1.5962 -3.0049  0.1236
   47MOL0     H 6342   4.307   4.568   7.201 -0.8937 -0.3973 -3.7516
   47MOL0     H 6343   4.644   4.736   7.249  0.0558  2.7676 -2.8484
   47MOL0     H 6344   4.556   4.698   7.102 -2.4102 -0.4661 -0.4056
   47MOL0     H 6345   4.471   4.747   7.252  0.2655  1.4439 -1.7261
   48MOL0     O 6346   6.300   2.976   9.564 -1.0344 -0.3790 -0.3143
   48MOL0     C 6347   6.307   2.968   9.684 -0.4382 -0.4616 -0.3076
   48MOL0     O 6348   6.414   3.015   9.766  0.1875 -0.1951  0.4291
   48MOL0     C 6349   6.519   3.077   9.712  0.1285 -0.8673  0.0044
   48MOL0     C 6350   6.582   3.178   9.785 -0.0146 -0.3087  0.7224
   48MOL0     C 6351   6.703   3.236   9.734  0.2144  0.3057  0.5091
   48MOL0     C 6352   6.776   3.184   9.633  0.0652  0.6405  0.7248
   48MOL0     O 6353   6.898   3.243   9.591  0.1395  0.0698 -0.1487
   48MOL0     C 6354   6.983   3.197   9.485 -0.0455  0.0085 -0.4704
   48MOL0     C 6355   7.091   3.314   9.471  0.3413 -0.7576 -0.6127
   48MOL0     C 6356   7.204   3.315   9.574 -0.3731  0.4536 -0.2840
   48MOL0     C 6357   7.305   3.425   9.553 -0.8009  0.5386  0.4259
   48MOL0     C 6358   7.422   3.427   9.654 -0.1826  0.3379  0.5599
   48MOL0     C 6359   7.518   3.303   9.632  0.0262 -1.0770 -0.1598
   48MOL0     C 6360   7.606   3.325   9.503 -0.2305  0.8314 -0.8184
   48MOL0     C 6361   7.649   3.198   9.430 -0.1993  0.0770 -0.5508
   48MOL0     N 6362   7.753   3.209   9.342  0.5990 -0.6519  0.4373
   48MOL0     C 6363   7.877   3.271   9.356  0.7110 -0.1295 -0.4001
   48MOL0     C 6364   7.920   3.310   9.240  1.5145  0.8233  0.5071
   48MOL0     C 6365   8.051   3.363   9.202  0.1133 -0.4837  0.4660
   48MOL0     C 6366   8.153   3.247   9.159  0.5482  0.4832 -0.0896
   48MOL0     C 6367   8.112   3.163   9.041 -0.5772 -0.3598 -0.1401
   48MOL0     C 6368   8.233   3.074   9.009 -0.2059 -0.5705  0.0743
   48MOL0     O 6369   8.288   3.000   9.120 -0.0601 -0.6619 -1.1649
   48MOL0     C 6370   8.395   2.919   9.095 -0.0922 -0.4257 -0.9845
   48MOL0     C 6371   8.449   2.862   9.206  0.3352 -1.5826 -0.3342
   48MOL0     C 6372   8.567   2.789   9.206  0.1384  1.3998  0.5264
   48MOL0     C 6373   8.639   2.776   9.086  0.1533 -0.3928 -0.1536
   48MOL0     C 6374   8.760   2.695   9.074 -0.1442 -0.0090  0.1275
   48MOL0     O 6375   8.818   2.694   8.954  0.4534  0.2157  0.3886
   48MOL0     C 6376   8.949   2.647   8.939  0.5145 -0.6389  0.0561
   48MOL0     C 6377   8.998   2.618   8.808 -0.7246 -0.1063  0.3607
   48MOL0     C 6378   9.133   2.570   8.785  0.7268  0.0521  0.0607
   48MOL0     C 6379   9.217   2.549   8.897  0.1485  0.5957 -0.4125
   48MOL0     O 6380   9.343   2.503   8.862  0.0418  0.2790  0.0892
   48MOL0     C 6381   9.443   2.509   8.964  0.8156  0.3539  0.4019
   48MOL0     C 6382   9.571   2.474   8.902  0.7577  0.2275  0.2680
   48MOL0     C 6383   9.683   2.477   9.002 -0.6963  0.2747  0.1444
   48MOL0     C 6384   9.819   2.490   8.926  0.6288 -0.1147 -0.4060
   48MOL0     C 6385   9.940   2.489   9.023  0.2236 -1.2850  0.0873
   48MOL0     C 6386  10.061   2.543   8.953  0.5054 -0.5592 -0.1237
   48MOL0     C 6387  10.187   2.510   9.033 -0.1790  0.1305 -0.1457
   48MOL0     C 6388  10.308   2.571   8.961  0.3650 -0.1375  0.4988
   48MOL0    Cl 6389  10.453   2.553   9.066 -0.3338 -0.0250  0.1179
   48MOL0     C 6390   9.170   2.578   9.018 -0.7126 -0.4463 -0.1903
   48MOL0     C 6391   9.045   2.635   9.043  0.5914  0.2159  0.4445
   48MOL0     O 6392   8.796   2.625   9.179  0.2604 -0.4256 -0.0219
   48MOL0     C 6393   8.567   2.819   8.970 -1.0012  0.2934 -0.0468
   48MOL0     C 6394   8.453   2.893   8.978 -0.2800 -0.1159  0.0521
   48MOL0     N 6395   7.826   3.274   9.143 -0.0875 -0.8624 -0.3159
   48MOL0     N 6396   7.732   3.217   9.207 -0.2341 -0.5120  0.5380
   48MOL0     C 6397   6.720   3.070   9.567  0.8032 -0.0916 -0.7728
   48MOL0     C 6398   6.590   3.033   9.600 -0.0820  0.2761  0.6100
   48MOL0     C 6399   6.197   2.900   9.762  0.6383  0.6117  0.1652
   48MOL0     C 6400   6.119   2.806   9.684 -0.4941 -0.2409 -0.9219
   48MOL0     C 6401   6.021   2.734   9.761 -0.1362 -0.9150  1.1819
   48MOL0     C 6402   5.984   2.763   9.891  0.3298 -0.0714  0.0027
   48MOL0     O 6403   5.890   2.684   9.970 -0.4440 -0.3558  0.1287
   48MOL0     C 6404   5.887   2.545   9.952 -0.3677 -0.0069 -0.2612
   48MOL0     C 6405   5.752   2.489   9.996  0.9831  0.0990  0.0304
   48MOL0     C 6406   5.721   2.501  10.150  0.3443  0.3680 -0.5702
   48MOL0     C 6407   5.581   2.444  10.197  0.1128 -1.2396  0.5673
   48MOL0     C 6408   5.584   2.405  10.348  1.1847 -0.4720  0.3300
   48MOL0     C 6409   5.588   2.392  10.468 -0.4496 -0.2186 -0.0510
   48MOL0     C 6410   6.063   2.861   9.959 -0.4994  0.4006 -0.0661
   48MOL0     C 6411   6.166   2.929   9.898 -1.1449  0.2787  0.6966
   48MOL0     C 6412   6.233   3.043   9.973  0.0259  0.7351  0.0484
   48MOL0     H 6413   6.544   3.220   9.877 -0.9466  1.5738 -0.4533
   48MOL0     H 6414   6.741   3.307   9.806  0.1602  0.4959  0.3490
   48MOL0     H 6415   7.035   3.104   9.512  1.1338  0.8340  0.1684
   48MOL0     H 6416   6.916   3.198   9.398  1.0564  0.4522 -1.3290
   48MOL0     H 6417   7.045   3.413   9.471  0.7193 -0.5655  0.3630
   48MOL0     H 6418   7.128   3.299   9.370  3.4006  0.2463  0.2595
   48MOL0     H 6419   7.254   3.219   9.560  2.9249  2.0114 -0.0318
   48MOL0     H 6420   7.166   3.322   9.677 -1.0037 -1.8521 -0.3011
   48MOL0     H 6421   7.346   3.411   9.452  2.8536 -1.4167  1.9903
   48MOL0     H 6422   7.250   3.520   9.559 -3.1475 -0.7182  0.1542
   48MOL0     H 6423   7.475   3.522   9.665 -0.9530  0.8642 -0.1854
   48MOL0     H 6424   7.380   3.408   9.753  2.1425 -1.2126  1.3497
   48MOL0     H 6425   7.578   3.300   9.723 -1.7960  1.3477  1.2475
   48MOL0     H 6426   7.458   3.215   9.608 -1.2051 -0.0531 -1.0102
   48MOL0     H 6427   7.694   3.381   9.536 -0.8795  2.1287 -1.2291
   48MOL0     H 6428   7.562   3.390   9.427  1.5313  0.6913 -2.0279
   48MOL0     H 6429   7.695   3.135   9.505  0.1833  0.3181 -0.5807
   48MOL0     H 6430   7.558   3.154   9.387 -0.7430  2.8367 -2.5745
   48MOL0     H 6431   7.917   3.297   9.453 -2.1945  2.0175  0.3734
   48MOL0     H 6432   8.041   3.442   9.127  0.6236  0.5525  1.4605
   48MOL0     H 6433   8.094   3.419   9.286 -2.5414  1.5152  0.6580
   48MOL0     H 6434   8.258   3.275   9.158  0.9090 -0.5741  2.1480
   48MOL0     H 6435   8.152   3.181   9.246 -0.1694 -0.1578 -0.5628
   48MOL0     H 6436   8.093   3.221   8.951 -0.7730  1.3752  0.9620
   48MOL0     H 6437   8.017   3.112   9.057 -1.2797  0.4294 -1.6321
   48MOL0     H 6438   8.307   3.139   8.960 -0.6600 -0.6913 -0.7930
   48MOL0     H 6439   8.197   3.000   8.937 -3.0014 -0.4850  1.2442
   48MOL0     H 6440   8.410   2.891   9.303  3.2473  3.6125 -0.3503
   48MOL0     H 6441   8.587   2.739   9.300 -0.7487 -0.5005 -0.2587
   48MOL0     H 6442   8.934   2.639   8.723 -0.6752  0.0173  0.3537
   48MOL0     H 6443   9.170   2.555   8.684 -1.0132 -2.1264 -0.3383
   48MOL0     H 6444   9.437   2.615   8.991 -1.9057  0.5704 -0.6602
   48MOL0     H 6445   9.432   2.443   9.051  1.3679 -0.8450 -0.4179
   48MOL0     H 6446   9.565   2.371   8.866 -1.7877 -0.1174  1.4588
   48MOL0     H 6447   9.601   2.539   8.819  1.9044 -1.8931 -1.0581
   48MOL0     H 6448   9.678   2.554   9.079 -0.2309 -1.5913  2.1373
   48MOL0     H 6449   9.684   2.384   9.061 -0.8164 -1.5951 -2.5824
   48MOL0     H 6450   9.803   2.583   8.870  2.7481  0.7239  0.2989
   48MOL0     H 6451   9.827   2.407   8.854 -1.7950 -0.5841 -0.2499
   48MOL0     H 6452   9.956   2.388   9.062  0.6113 -0.9653  0.7623
   48MOL0     H 6453   9.910   2.561   9.100  2.5630  1.9838 -1.7809
   48MOL0     H 6454  10.076   2.495   8.856 -0.1591  2.3518 -1.7972
   48MOL0     H 6455  10.054   2.650   8.930 -0.4333 -0.3253  1.1257
   48MOL0     H 6456  10.188   2.402   9.045  1.9422  0.3432  2.3973
   48MOL0     H 6457  10.166   2.551   9.132 -1.5492  0.2699 -0.4601
   48MOL0     H 6458  10.329   2.517   8.868 -1.1889 -0.5566  0.3659
   48MOL0     H 6459  10.290   2.676   8.939 -1.4169  0.0808  2.6824
   48MOL0     H 6460   9.232   2.574   9.108 -4.1481  2.4687  2.6433
   48MOL0     H 6461   9.018   2.656   9.146 -0.8762  2.0503 -0.2686
   48MOL0     H 6462   8.614   2.804   8.874 -0.5794  0.2769  0.1598
   48MOL0     H 6463   8.410   2.927   8.884  0.7533 -2.2661 -1.2740
   48MOL0     H 6464   6.767   3.028   9.479  1.7387 -0.0465 -0.3079
   48MOL0     H 6465   6.547   2.953   9.540 -0.0361  1.6921 -1.3988
   48MOL0     H 6466   6.139   2.780   9.581  1.6209  0.8910 -0.8438
   48MOL0     H 6467   5.969   2.656   9.706 -0.8728 -1.1460  2.1702
   48MOL0     H 6468   5.961   2.491  10.012 -0.8433 -0.3582  0.0180
   48MOL0     H 6469   5.891   2.515   9.847 -1.5524 -0.4495 -0.1998
   48MOL0     H 6470   5.740   2.387   9.959 -1.3819  0.6124 -0.8056
   48MOL0     H 6471   5.674   2.553   9.952  0.8321  0.0144  0.1731
   48MOL0     H 6472   5.728   2.603  10.186 -1.0832  1.0223 -2.0160
   48MOL0     H 6473   5.804   2.447  10.197 -0.2737  0.2807  0.4400
   48MOL0     H 6474   5.507   2.520  10.172  1.5868 -0.8841 -3.2803
   48MOL0     H 6475   5.544   2.355  10.145  0.1904 -2.1245  1.9479
   48MOL0     H 6476   5.602   2.379  10.573  2.4808  2.7134  0.0989
   48MOL0     H 6477   6.026   2.882  10.059 -0.1637  1.9367 -0.2543
   48MOL0     H 6478   6.330   3.011  10.012  0.9190 -1.1422 -3.3770
   48MOL0     H 6479   6.263   3.136   9.924 -0.4125  0.1127 -1.4447
   48MOL0     H 6480   6.164   3.072  10.053  0.0699  0.1844  0.2911
   49MOL0     O 6481   8.941   0.061  10.537  0.0651  0.0069 -1.0864
   49MOL0     C 6482   8.919  -0.022  10.450  0.1609  1.1193  0.3658
   49MOL0     O 6483   9.011  -0.065  10.355  0.1151 -0.3055  0.2788
   49MOL0     C 6484   9.124   0.011  10.332  0.0306 -0.8630 -0.2078
   49MOL0     C 6485   9.132   0.149  10.352 -0.1984 -0.2649 -1.4046
   49MOL0     C 6486   9.241   0.220  10.317 -0.6615  0.0336  0.1253
   49MOL0     C 6487   9.355   0.157  10.272  0.6851 -1.5500  0.2077
   49MOL0     O 6488   9.465   0.242  10.245  0.6129  0.6561  0.3698
   49MOL0     C 6489   9.455   0.313  10.117 -0.5049  0.3067 -0.1811
   49MOL0     C 6490   9.581   0.398  10.093 -0.7197  1.3822 -0.4329
   49MOL0     C 6491   9.697   0.319  10.028 -0.4564  0.1731 -0.0336
   49MOL0     C 6492   9.670   0.311   9.877 -0.0997 -0.1339  0.4778
   49MOL0     C 6493   9.785   0.253   9.788 -0.1798  1.1232  0.5165
   49MOL0     C 6494   9.723   0.199   9.660 -0.5327  0.3925 -0.1541
   49MOL0     C 6495   9.829   0.136   9.568  0.8644 -0.0244  0.3328
   49MOL0     C 6496   9.777   0.083   9.434  0.5741 -0.6420 -0.2171
   49MOL0     N 6497   9.875  -0.009   9.376  0.3196 -0.2087 -0.0897
   49MOL0     C 6498   9.957   0.029   9.274  0.7610 -0.2753  0.2377
   49MOL0     C 6499  10.010  -0.093   9.231  0.3357  0.3695 -1.2648
   49MOL0     C 6500  10.116  -0.112   9.130 -0.3952  1.0257 -0.5374
   49MOL0     C 6501  10.263  -0.076   9.182  0.2531 -1.1350  0.5636
   49MOL0     C 6502  10.337   0.005   9.069  0.0516  0.5704 -0.6439
   49MOL0     C 6503  10.480   0.039   9.110  0.1165  0.2977  0.4239
   49MOL0     O 6504  10.564  -0.082   9.103 -0.4088  0.7322  0.3674
   49MOL0     C 6505  10.694  -0.076   9.076 -0.9016 -0.6325 -1.0113
   49MOL0     C 6506  10.782  -0.158   9.152  0.8865 -0.2810 -0.1406
   49MOL0     C 6507  10.916  -0.161   9.130 -0.2531 -0.0276 -0.0690
   49MOL0     C 6508  10.968  -0.105   9.008 -0.3491 -0.3572  0.0407
   49MOL0     C 6509  11.109  -0.113   8.969 -0.1146  0.0307 -0.7563
   49MOL0     O 6510  11.134  -0.072   8.843  0.0812  0.0547 -0.0341
   49MOL0     C 6511  11.257  -0.041   8.802  0.2908 -0.4276  0.5561
   49MOL0     C 6512  11.317   0.075   8.849  0.1592  0.0291 -0.5679
   49MOL0     C 6513  11.436   0.127   8.783  0.2576  0.3550 -0.4679
   49MOL0     C 6514  11.497   0.049   8.683  0.5511 -0.8479  0.0040
   49MOL0     O 6515  11.610   0.095   8.626  0.1167  0.4995  0.5229
   49MOL0     C 6516  11.730   0.014   8.654  0.3676 -0.5242 -0.1315
   49MOL0     C 6517  11.820   0.073   8.755 -0.1965 -0.1111 -0.4799
   49MOL0     C 6518  11.912   0.173   8.688 -0.4377  0.2134 -0.1680
   49MOL0     C 6519  11.986   0.243   8.803 -1.3540  0.6568 -0.1986
   49MOL0     C 6520  12.102   0.330   8.773 -0.5799  0.4524  0.7052
   49MOL0     C 6521  12.211   0.277   8.686  0.2451  0.8574 -0.5392
   49MOL0     C 6522  12.308   0.386   8.636  0.2325  0.1899  0.4405
   49MOL0     C 6523  12.364   0.465   8.748 -0.5922 -0.8573  0.6891
   49MOL0    Cl 6524  12.473   0.360   8.834  0.0373  0.1901 -0.1513
   49MOL0     C 6525  11.439  -0.063   8.635 -0.2633  0.5532 -0.3976
   49MOL0     C 6526  11.318  -0.105   8.695 -0.1694 -1.3238  0.5724
   49MOL0     O 6527  11.189  -0.173   9.040  0.0596 -0.5803  0.4542
   49MOL0     C 6528  10.875  -0.033   8.926  0.4628  1.0708 -0.6465
   49MOL0     C 6529  10.744  -0.016   8.963 -0.1558 -0.1226 -0.2675
   49MOL0     N 6530   9.958  -0.188   9.309 -0.4452  0.4266 -0.0604
   49MOL0     N 6531   9.890  -0.136   9.404 -0.6459  0.0411  1.2206
   49MOL0     C 6532   9.353   0.017  10.240  0.0566 -0.0174 -0.9539
   49MOL0     C 6533   9.244  -0.056  10.284 -0.2253  0.0422  0.4125
   49MOL0     C 6534   8.774  -0.074  10.455 -0.2034 -1.2761 -0.3489
   49MOL0     C 6535   8.689  -0.037  10.565  0.7968  0.3770  0.4341
   49MOL0     C 6536   8.562  -0.087  10.568  0.5337  0.3868 -0.1850
   49MOL0     C 6537   8.505  -0.175  10.475 -0.2636 -0.3640 -0.2537
   49MOL0     O 6538   8.378  -0.207  10.485 -0.4795 -0.2790  0.3264
   49MOL0     C 6539   8.298  -0.214  10.363 -0.2874 -0.4209 -0.3039
   49MOL0     C 6540   8.169  -0.281  10.398 -0.5240 -0.1609  0.4463
   49MOL0     C 6541   8.082  -0.182  10.475  0.5155 -0.0803  0.1656
   49MOL0     C 6542   7.946  -0.236  10.508 -0.0338  0.0648 -0.4543
   49MOL0     C 6543   7.864  -0.243  10.380 -0.1603 -0.1431  0.0356
   49MOL0     C 6544   7.802  -0.257  10.277  0.2322 -0.9887 -0.0387
   49MOL0     C 6545   8.584  -0.194  10.373  0.8068  0.8093 -0.3108
   49MOL0     C 6546   8.716  -0.151  10.352 -0.8375  0.1119 -0.6134
   49MOL0     C 6547   8.792  -0.189  10.229  0.2542  0.5308 -0.2736
   49MOL0     H 6548   9.048   0.212  10.381  1.2343  1.7668 -1.5206
   49MOL0     H 6549   9.253   0.324  10.347  1.8882  0.4734 -1.9599
   49MOL0     H 6550   9.443   0.234  10.042  0.0821 -0.3669  0.4187
   49MOL0     H 6551   9.363   0.373  10.117  0.3721  1.7478  1.8703
   49MOL0     H 6552   9.610   0.444  10.188 -1.9666 -1.3793  1.3885
   49MOL0     H 6553   9.549   0.488  10.038 -1.0563  2.6872  1.7779
   49MOL0     H 6554   9.707   0.221  10.076  0.4495  1.2345  2.0511
   49MOL0     H 6555   9.788   0.379  10.032  0.8096 -1.2564 -3.4589
   49MOL0     H 6556   9.577   0.254   9.866  0.0531 -0.3845  0.4808
   49MOL0     H 6557   9.647   0.407   9.832  2.0447  0.5062  0.6467
   49MOL0     H 6558   9.854   0.335   9.768 -0.3646  1.1260 -0.1501
   49MOL0     H 6559   9.840   0.171   9.835 -0.8308 -0.3432 -1.1386
   49MOL0     H 6560   9.643   0.128   9.681  2.0147 -1.8328  2.9207
   49MOL0     H 6561   9.691   0.292   9.610  3.2027  1.0678 -1.6586
   49MOL0     H 6562   9.872   0.053   9.624 -3.1641 -0.2999  3.4766
   49MOL0     H 6563   9.904   0.214   9.547  1.4032 -1.0481 -1.9017
   49MOL0     H 6564   9.686   0.025   9.453  0.0264 -0.2133 -1.4442
   49MOL0     H 6565   9.736   0.154   9.362  1.1412 -0.6445 -0.5481
   49MOL0     H 6566   9.976   0.125   9.227  0.3924  1.1101  2.7626
   49MOL0     H 6567  10.106  -0.213   9.091  0.0450  0.8913 -0.3119
   49MOL0     H 6568  10.095  -0.045   9.046 -1.4204  1.6618  0.1941
   49MOL0     H 6569  10.261  -0.014   9.273  3.3696 -0.1621  0.0815
   49MOL0     H 6570  10.322  -0.166   9.203  1.4637 -0.0433  2.1163
   49MOL0     H 6571  10.281   0.096   9.045 -2.6444 -0.9703 -0.5525
   49MOL0     H 6572  10.329  -0.064   8.985 -1.2594  1.1612 -1.0412
   49MOL0     H 6573  10.480   0.084   9.210 -0.6330  2.4045 -0.4478
   49MOL0     H 6574  10.517   0.119   9.044  1.0939 -1.0527 -0.7223
   49MOL0     H 6575  10.745  -0.224   9.230 -0.5075  0.3629 -0.2109
   49MOL0     H 6576  10.984  -0.217   9.193 -0.6367  2.7701  3.1091
   49MOL0     H 6577  11.276   0.143   8.923  2.9598 -0.9212  2.0846
   49MOL0     H 6578  11.481   0.219   8.818  1.1491 -1.0726  2.5063
   49MOL0     H 6579  11.702  -0.087   8.685 -1.8043  0.3227  0.8777
   49MOL0     H 6580  11.790  -0.007   8.565  0.7335  0.8612 -0.2355
   49MOL0     H 6581  11.763   0.122   8.834 -1.3301 -1.1538 -0.6281
   49MOL0     H 6582  11.877  -0.004   8.808 -1.8064  0.6274  2.5469
   49MOL0     H 6583  11.975   0.115   8.620  0.0763  1.9612 -1.2471
   49MOL0     H 6584  11.858   0.248   8.629  0.5195  1.0910  0.0329
   49MOL0     H 6585  12.034   0.170   8.868  2.0849  1.9121 -1.1010
   49MOL0     H 6586  11.921   0.291   8.876 -0.1271  0.3260  1.1567
   49MOL0     H 6587  12.139   0.359   8.871 -0.4451  1.6800  0.3113
   49MOL0     H 6588  12.065   0.421   8.725  0.8548  1.5005  1.5139
   49MOL0     H 6589  12.269   0.205   8.744  0.6709  1.5182 -0.1244
   49MOL0     H 6590  12.181   0.217   8.600  2.8019 -0.4359 -0.6101
   49MOL0     H 6591  12.256   0.447   8.561  2.0527 -0.4442 -1.4404
   49MOL0     H 6592  12.394   0.342   8.585 -0.5550  0.2647 -1.0062
   49MOL0     H 6593  12.416   0.548   8.699 -0.8332 -0.6048  0.8541
   49MOL0     H 6594  12.282   0.516   8.799 -1.4321  2.5430 -3.5002
   49MOL0     H 6595  11.484  -0.136   8.569 -3.0546 -1.6774 -0.0350
   49MOL0     H 6596  11.265  -0.198   8.681 -1.7372 -0.7126  2.1733
   49MOL0     H 6597  10.904   0.007   8.829  0.2472  2.5736 -0.1131
   49MOL0     H 6598  10.671   0.038   8.903  0.6232 -0.2984 -1.3999
   49MOL0     H 6599   9.437  -0.020  10.182  2.7979  0.8641  2.1757
   49MOL0     H 6600   9.244  -0.158  10.247 -0.5785 -0.3946  1.5650
   49MOL0     H 6601   8.719   0.042  10.634 -1.6249  1.8949 -0.1449
   49MOL0     H 6602   8.500  -0.052  10.649  0.2641 -2.0084  0.7358
   49MOL0     H 6603   8.337  -0.284  10.289 -3.3661 -1.7320 -0.8257
   49MOL0     H 6604   8.285  -0.121  10.308  0.5701  1.8642  3.0188
   49MOL0     H 6605   8.192  -0.375  10.448  2.2348 -0.2232 -0.7951
   49MOL0     H 6606   8.106  -0.305  10.311 -0.1164 -0.9724  0.3639
   49MOL0     H 6607   8.068  -0.098  10.407  0.5867  0.1698  0.4565
   49MOL0     H 6608   8.133  -0.147  10.566 -0.7659  0.4276  0.7085
   49MOL0     H 6609   7.952  -0.335  10.555  2.1088  0.0541 -0.6766
   49MOL0     H 6610   7.888  -0.175  10.578  0.4078  2.9406 -2.4175
   49MOL0     H 6611   7.741  -0.254  10.189  1.7751 -0.9804 -1.1453
   49MOL0     H 6612   8.552  -0.250  10.285  0.1215 -0.5829  0.7803
   49MOL0     H 6613   8.875  -0.257  10.252  0.1103  0.7658  1.0426
   49MOL0     H 6614   8.725  -0.244  10.161 -0.8259  0.5423  0.7376
   49MOL0     H 6615   8.826  -0.102  10.174  1.3453 -0.6932 -1.6172
   50MOL0     O 6616  10.465   5.514   2.400  0.9854 -0.3263  1.0363
   50MOL0     C 6617  10.567   5.476   2.343 -0.4185  0.5888 -0.1257
   50MOL0     O 6618  10.582   5.464   2.206 -0.4321 -0.1651 -0.2256
   50MOL0     C 6619  10.480   5.483   2.110 -0.0443  0.1517 -0.0995
   50MOL0     C 6620  10.348   5.541   2.129  0.0374  0.5399  0.2330
   50MOL0     C 6621  10.259   5.571   2.015 -0.2713  0.6932 -0.1182
   50MOL0     C 6622  10.311   5.559   1.889  0.3802  0.2304  0.8579
   50MOL0     O 6623  10.230   5.575   1.785 -0.6142  0.2583  0.4499
   50MOL0     C 6624  10.266   5.671   1.682  0.3335 -0.2329 -0.3918
   50MOL0     C 6625  10.161   5.655   1.574  0.8037  0.4520  0.2981
   50MOL0     C 6626  10.182   5.765   1.468  0.6756  1.0279  0.1295
   50MOL0     C 6627  10.296   5.731   1.367 -0.1730 -0.3654  0.1776
   50MOL0     C 6628  10.341   5.863   1.298  0.5166 -1.4811  0.4365
   50MOL0     C 6629  10.467   5.847   1.210  1.0125 -0.5537 -0.6313
   50MOL0     C 6630  10.499   5.986   1.167 -0.2066 -0.0273 -0.4162
   50MOL0     C 6631  10.618   5.959   1.065  0.5917  0.7382  0.5519
   50MOL0     N 6632  10.699   6.081   1.040  0.1131  0.7546 -0.3908
   50MOL0     C 6633  10.653   6.190   0.973 -0.3552  0.1521 -0.5333
   50MOL0     C 6634  10.750   6.281   0.989 -1.1811  0.5551  0.4716
   50MOL0     C 6635  10.753   6.418   0.929 -0.8119 -0.3185 -0.1476
   50MOL0     C 6636  10.783   6.408   0.772 -0.5987  0.6588  0.1797
   50MOL0     C 6637  10.896   6.302   0.740  0.4297 -0.7779 -0.1450
   50MOL0     C 6638  10.955   6.305   0.599  0.5329 -0.4368  0.3265
   50MOL0     O 6639  11.096   6.293   0.596 -0.1175  0.2484  0.2389
   50MOL0     C 6640  11.169   6.333   0.488  0.6412  0.3975  1.0351
   50MOL0     C 6641  11.111   6.378   0.368 -0.3811 -0.0346 -0.0485
   50MOL0     C 6642  11.186   6.426   0.265  0.3981  0.6459 -0.4386
   50MOL0     C 6643  11.331   6.412   0.265  0.6896 -0.4661 -0.2125
   50MOL0     C 6644  11.414   6.435   0.146 -0.6553  0.4230  1.1389
   50MOL0     O 6645  11.551   6.427   0.162  0.2433  0.5020 -0.2250
   50MOL0     C 6646  11.642   6.446   0.068 -1.0241 -0.0725 -0.1128
   50MOL0     C 6647  11.771   6.451   0.123  0.5084 -0.3649  0.1715
   50MOL0     C 6648  11.883   6.470   0.043  0.6188 -0.4409  0.3421
   50MOL0     C 6649  11.869   6.499  -0.090  0.3450 -0.7072  0.3080
   50MOL0     O 6650  11.991   6.528  -0.152 -0.2359 -0.5119 -1.4875
   50MOL0     C 6651  11.998   6.492  -0.291 -0.3006  0.7137  0.4291
   50MOL0     C 6652  12.131   6.541  -0.353 -0.3745  0.2886 -0.2364
   50MOL0     C 6653  12.135   6.554  -0.509 -0.3042 -1.1857  0.8452
   50MOL0     C 6654  12.279   6.581  -0.551  0.1035 -0.7960 -0.1944
   50MOL0     C 6655  12.303   6.610  -0.702 -0.4676  0.0221  0.1909
   50MOL0     C 6656  12.455   6.653  -0.726  0.3075  0.3051  0.0900
   50MOL0     C 6657  12.495   6.631  -0.877  0.4177 -0.1438  0.4150
   50MOL0     C 6658  12.543   6.761  -0.932 -0.0134 -0.1628  0.2063
   50MOL0    Cl 6659  12.408   6.883  -0.941 -0.6350 -0.0944  0.0909
   50MOL0     C 6660  11.743   6.478  -0.150 -0.5389  0.6578 -0.1710
   50MOL0     C 6661  11.631   6.451  -0.072  0.1225  0.4549  0.2313
   50MOL0     O 6662  11.364   6.454   0.036 -0.5202 -0.3294 -0.8483
   50MOL0     C 6663  11.380   6.380   0.392 -0.3658  0.0243  0.0831
   50MOL0     C 6664  11.302   6.340   0.496  0.4344 -0.1576 -1.0710
   50MOL0     N 6665  10.849   6.236   1.075  0.2750  0.0099 -0.3812
   50MOL0     N 6666  10.809   6.113   1.100 -0.0216 -0.4457 -0.0191
   50MOL0     C 6667  10.442   5.518   1.871  0.4425 -0.8962 -0.5242
   50MOL0     C 6668  10.519   5.476   1.977 -0.0936  0.6443 -0.2041
   50MOL0     C 6669  10.679   5.440   2.429  0.6524 -0.3620  0.0833
   50MOL0     C 6670  10.806   5.476   2.390 -0.7002  0.6469  0.6473
   50MOL0     C 6671  10.916   5.429   2.460  0.5188 -0.6646  0.9213
   50MOL0     C 6672  10.902   5.360   2.580 -0.3094  0.1541  0.2533
   50MOL0     O 6673  11.018   5.330   2.653  0.6782  0.8912  0.4894
   50MOL0     C 6674  11.013   5.217   2.744 -0.1875 -0.4172  0.7126
   50MOL0     C 6675  11.151   5.230   2.823  0.8632 -0.7176 -0.4735
   50MOL0     C 6676  11.263   5.295   2.745  0.2468  0.3505 -0.0632
   50MOL0     C 6677  11.384   5.294   2.843  0.2185  0.2485 -0.0249
   50MOL0     C 6678  11.372   5.400   2.940  0.5507 -0.1324 -0.8251
   50MOL0     C 6679  11.355   5.499   3.015  0.0997 -0.6048  0.3010
   50MOL0     C 6680  10.775   5.336   2.626  0.2798  0.1458  0.8957
   50MOL0     C 6681  10.661   5.366   2.552 -0.0025  0.5189  0.6661
   50MOL0     C 6682  10.533   5.310   2.606 -0.3043  0.6489  0.8669
   50MOL0     H 6683  10.305   5.558   2.227 -2.3041 -2.6825 -0.0788
   50MOL0     H 6684  10.158   5.604   2.039  0.1231  1.1013  1.0582
   50MOL0     H 6685  10.270   5.776   1.713  0.4679 -0.4982  0.5245
   50MOL0     H 6686  10.358   5.647   1.628 -1.8001 -3.3144 -3.0153
   50MOL0     H 6687  10.058   5.658   1.611  0.3724 -1.0341 -0.6724
   50MOL0     H 6688  10.171   5.550   1.545  1.5233 -0.1445  2.4503
   50MOL0     H 6689  10.198   5.858   1.523  1.7238 -0.8719  3.2652
   50MOL0     H 6690  10.087   5.786   1.418 -0.1621 -1.9426  0.3273
   50MOL0     H 6691  10.383   5.683   1.413 -0.4549 -1.6848 -0.6466
   50MOL0     H 6692  10.251   5.668   1.291 -0.8160  1.3712 -0.9491
   50MOL0     H 6693  10.267   5.907   1.230  1.2027 -2.0959 -0.7451
   50MOL0     H 6694  10.363   5.930   1.381 -3.5686 -0.6832  1.0931
   50MOL0     H 6695  10.548   5.806   1.270 -0.1102  1.6073  2.6332
   50MOL0     H 6696  10.440   5.793   1.119 -2.2867  3.7787 -2.6317
   50MOL0     H 6697  10.545   6.047   1.245 -1.1110  0.3371 -0.1546
   50MOL0     H 6698  10.406   6.027   1.126 -0.0926 -0.0644 -0.7089
   50MOL0     H 6699  10.678   5.873   1.094  0.1066  0.2126  0.0275
   50MOL0     H 6700  10.563   5.933   0.973 -0.0035 -4.8371  2.1191
   50MOL0     H 6701  10.573   6.201   0.900  2.6433  1.6690 -3.9289
   50MOL0     H 6702  10.653   6.461   0.939 -2.2782 -3.3789 -0.3682
   50MOL0     H 6703  10.832   6.479   0.975  1.5093 -1.0992 -2.7871
   50MOL0     H 6704  10.692   6.374   0.720  0.6544 -1.0212 -1.0345
   50MOL0     H 6705  10.815   6.504   0.730 -0.0742 -0.1576 -1.3876
   50MOL0     H 6706  10.843   6.206   0.751 -1.8960  0.4196 -0.2034
   50MOL0     H 6707  10.977   6.301   0.813  1.5179 -0.4403 -1.3201
   50MOL0     H 6708  10.919   6.394   0.546  1.7711  0.0623  0.2936
   50MOL0     H 6709  10.915   6.219   0.543  1.2653 -0.7874  0.3337
   50MOL0     H 6710  11.005   6.363   0.353 -1.4405  3.2038  2.8208
   50MOL0     H 6711  11.127   6.464   0.182  0.0671  0.8321 -0.1152
   50MOL0     H 6712  11.784   6.444   0.231 -2.3158  0.8541  0.6840
   50MOL0     H 6713  11.982   6.475   0.087 -0.6598  4.3576  3.4995
   50MOL0     H 6714  11.989   6.385  -0.312  0.8380  0.5865  0.5083
   50MOL0     H 6715  11.917   6.537  -0.349  1.1353  1.6789 -0.9225
   50MOL0     H 6716  12.152   6.633  -0.297  0.3085 -0.4226  0.7060
   50MOL0     H 6717  12.209   6.469  -0.325 -0.3722  1.0400  1.8670
   50MOL0     H 6718  12.111   6.455  -0.548  1.1474 -0.6803 -1.4876
   50MOL0     H 6719  12.066   6.629  -0.548  0.6814  0.2417  1.7559
   50MOL0     H 6720  12.350   6.512  -0.504  1.0179  0.3390  0.1300
   50MOL0     H 6721  12.307   6.677  -0.508  2.8102 -2.2884  1.6593
   50MOL0     H 6722  12.240   6.685  -0.750  1.2046 -1.7841 -5.6817
   50MOL0     H 6723  12.281   6.521  -0.763  1.9896 -0.9593  0.6430
   50MOL0     H 6724  12.464   6.759  -0.701 -1.2576  0.3472  0.5821
   50MOL0     H 6725  12.520   6.586  -0.670  0.9026  1.9803  1.5026
   50MOL0     H 6726  12.407   6.609  -0.939  0.2811  1.7576 -0.1170
   50MOL0     H 6727  12.575   6.557  -0.890 -0.6215 -1.0847 -0.9423
   50MOL0     H 6728  12.623   6.802  -0.869 -1.0536 -0.3867  1.7077
   50MOL0     H 6729  12.603   6.742  -1.022  0.9783  1.4097  0.4785
   50MOL0     H 6730  11.731   6.483  -0.257  1.7483 -2.7220 -0.7645
   50MOL0     H 6731  11.534   6.454  -0.121 -0.4740 -1.2578  1.2099
   50MOL0     H 6732  11.487   6.395   0.403 -0.6303  1.3344  1.0091
   50MOL0     H 6733  11.330   6.314   0.598  1.1601  1.0683 -0.9504
   50MOL0     H 6734  10.493   5.511   1.775 -1.3957 -0.8701 -1.5479
   50MOL0     H 6735  10.618   5.432   1.978 -0.1591  0.4772  1.4534
   50MOL0     H 6736  10.841   5.530   2.303  1.4383  0.2113  1.1840
   50MOL0     H 6737  11.008   5.448   2.406  0.6223  0.0065  1.3242
   50MOL0     H 6738  11.012   5.126   2.683  3.4484 -0.2952  0.2864
   50MOL0     H 6739  10.924   5.213   2.808 -1.1716  0.6363 -0.5322
   50MOL0     H 6740  11.181   5.129   2.854  3.8766 -0.5533 -2.4048
   50MOL0     H 6741  11.147   5.295   2.910  4.9285 -1.3458  0.4176
   50MOL0     H 6742  11.241   5.397   2.713  0.2498  0.6656  0.9099
   50MOL0     H 6743  11.292   5.240   2.655  0.1536  6.0228 -4.0861
   50MOL0     H 6744  11.402   5.204   2.901  0.8623  0.7708  0.5931
   50MOL0     H 6745  11.474   5.306   2.782  0.6835 -0.9055  0.4082
   50MOL0     H 6746  11.345   5.589   3.072  1.3915  1.0753 -1.9819
   50MOL0     H 6747  10.774   5.270   2.712  0.3438  0.6389  1.2759
   50MOL0     H 6748  10.478   5.256   2.527  1.3764  1.3312 -0.8460
   50MOL0     H 6749  10.553   5.237   2.685 -0.8901 -2.4128 -1.5731
   50MOL0     H 6750  10.466   5.383   2.651 -1.2250 -0.4121  1.2604
   51MOL0     O 6751   4.523  10.303   1.679  0.0104  0.4071  0.1069
   51MOL0     C 6752   4.435  10.370   1.629 -0.5167  0.0829 -0.3508
   51MOL0     O 6753   4.440  10.503   1.615 -0.4122  0.0288  0.7533
   51MOL0     C 6754   4.512  10.577   1.701  0.4412 -0.2969 -0.8081
   51MOL0     C 6755   4.612  10.653   1.655 -0.1639 -0.7015 -0.5227
   51MOL0     C 6756   4.676  10.744   1.739  0.2833 -0.3687  1.2854
   51MOL0     C 6757   4.634  10.765   1.872  0.6964 -0.3583 -0.1694
   51MOL0     O 6758   4.689  10.861   1.952 -0.0972  0.7191  0.2113
   51MOL0     C 6759   4.826  10.890   1.943 -0.3963  0.4220  0.4142
   51MOL0     C 6760   4.871  10.960   2.078  0.7346 -1.0135  1.0709
   51MOL0     C 6761   5.023  10.993   2.081 -0.2288 -0.1956  0.0658
   51MOL0     C 6762   5.059  11.055   2.217 -0.1996  0.0790  0.5537
   51MOL0     C 6763   5.207  11.100   2.230 -0.5956  0.0498 -0.5571
   51MOL0     C 6764   5.310  11.005   2.167 -0.6557  0.2058  0.3882
   51MOL0     C 6765   5.459  11.031   2.205 -0.2153  0.0830 -0.0180
   51MOL0     C 6766   5.505  11.183   2.191 -0.3141  0.1516 -0.4513
   51MOL0     N 6767   5.649  11.205   2.184  0.2424 -0.8166  0.4731
   51MOL0     C 6768   5.734  11.292   2.249 -0.5420 -0.0771 -0.7351
   51MOL0     C 6769   5.860  11.252   2.215  0.1077  0.3168 -0.4845
   51MOL0     C 6770   5.990  11.321   2.270 -0.8569  0.0340  0.5615
   51MOL0     C 6771   6.083  11.222   2.340  0.0259  0.4283  0.4907
   51MOL0     C 6772   6.195  11.290   2.425 -0.8534 -1.0123  0.2612
   51MOL0     C 6773   6.261  11.192   2.515  0.1682 -0.1344  0.4418
   51MOL0     O 6774   6.338  11.085   2.444  0.2724 -0.0787 -0.1713
   51MOL0     C 6775   6.458  11.088   2.379  0.4450 -0.5811  0.6205
   51MOL0     C 6776   6.469  11.059   2.243  0.8584  0.3761  0.4671
   51MOL0     C 6777   6.593  11.062   2.183  0.0050  0.3295  0.0859
   51MOL0     C 6778   6.707  11.089   2.262  0.2057 -0.2969 -0.6750
   51MOL0     C 6779   6.842  11.108   2.197  0.0659 -1.0954  0.1246
   51MOL0     O 6780   6.942  11.167   2.266 -0.8989  0.0622  0.2116
   51MOL0     C 6781   7.077  11.161   2.232  0.0358  0.2647  0.3938
   51MOL0     C 6782   7.160  11.261   2.264 -0.6308 -0.2461 -0.3244
   51MOL0     C 6783   7.298  11.262   2.228  0.2418 -0.7813  0.7563
   51MOL0     C 6784   7.363  11.150   2.185 -0.7671  0.1634  0.5815
   51MOL0     O 6785   7.494  11.164   2.159  0.0161 -0.3455  0.2133
   51MOL0     C 6786   7.569  11.056   2.119  1.4054 -0.1626 -0.5245
   51MOL0     C 6787   7.714  11.105   2.108 -0.0694 -0.8182  0.5213
   51MOL0     C 6788   7.778  11.199   2.217 -0.4786 -0.4339 -0.0537
   51MOL0     C 6789   7.934  11.207   2.203  0.5136  0.8308 -0.2758
   51MOL0     C 6790   7.987  11.321   2.292  0.3335  0.4115  0.3724
   51MOL0     C 6791   8.136  11.352   2.253 -0.2128  0.3816 -0.8663
   51MOL0     C 6792   8.240  11.249   2.301  0.5823 -0.0519  1.0870
   51MOL0     C 6793   8.387  11.287   2.256 -0.0068 -0.3169 -0.3326
   51MOL0    Cl 6794   8.400  11.303   2.079 -0.2750  0.7334 -0.0421
   51MOL0     C 6795   7.276  11.038   2.151  0.0570 -0.3456 -0.5134
   51MOL0     C 6796   7.138  11.041   2.180 -0.8402  0.1986 -0.4581
   51MOL0     O 6797   6.859  11.076   2.079  0.5422  0.4469 -0.2323
   51MOL0     C 6798   6.693  11.112   2.399  0.7483 -0.3031  0.0553
   51MOL0     C 6799   6.567  11.123   2.455 -0.0202  0.3100 -0.4476
   51MOL0     N 6800   5.855  11.138   2.143 -0.3419 -0.0276  0.2222
   51MOL0     N 6801   5.731  11.110   2.129 -0.3387  0.7423  0.1576
   51MOL0     C 6802   4.537  10.686   1.922  0.4317 -0.2031 -0.9890
   51MOL0     C 6803   4.474  10.590   1.839 -0.1559 -0.4228  0.3761
   51MOL0     C 6804   4.319  10.303   1.574  0.4398 -0.9397  0.8089
   51MOL0     C 6805   4.339  10.181   1.511  0.9069 -0.4153  0.4048
   51MOL0     C 6806   4.234  10.107   1.460  0.1802 -0.0026 -0.4766
   51MOL0     C 6807   4.098  10.154   1.469 -0.3484 -0.1672 -0.0903
   51MOL0     O 6808   4.005  10.085   1.397 -0.1316 -0.1422  0.0844
   51MOL0     C 6809   3.867  10.088   1.433 -0.3969 -0.4161  0.2334
   51MOL0     C 6810   3.856   9.994   1.557 -1.4151 -0.3013 -0.7967
   51MOL0     C 6811   3.930   9.861   1.543  0.2920  0.1294  0.5240
   51MOL0     C 6812   3.857   9.775   1.438 -0.4779 -0.1270 -0.0057
   51MOL0     C 6813   3.919   9.650   1.432  0.5263 -0.4756  0.7178
   51MOL0     C 6814   3.943   9.538   1.439  0.5789 -0.6693  0.4238
   51MOL0     C 6815   4.075  10.271   1.539  0.2218 -0.5022  0.8136
   51MOL0     C 6816   4.187  10.339   1.594  0.7534  0.4017 -0.1513
   51MOL0     C 6817   4.164  10.448   1.690 -0.2037  0.7254  0.4044
   51MOL0     H 6818   4.651  10.639   1.555  1.3102 -1.8464  0.1750
   51MOL0     H 6819   4.752  10.813   1.704 -0.6600 -0.9384 -2.2819
   51MOL0     H 6820   4.879  10.794   1.938 -1.6645 -0.3121  0.4394
   51MOL0     H 6821   4.859  10.944   1.854  2.4770 -1.6491  0.0993
   51MOL0     H 6822   4.840  10.910   2.170  0.8056  2.4746  3.1645
   51MOL0     H 6823   4.808  11.050   2.078 -0.1977 -1.5447 -2.0391
   51MOL0     H 6824   5.061  11.044   1.992  0.4388  1.2375  1.1231
   51MOL0     H 6825   5.072  10.895   2.082 -0.1531 -0.2205 -2.0717
   51MOL0     H 6826   4.996  11.142   2.239  0.6361  0.5008  1.3140
   51MOL0     H 6827   5.026  10.995   2.302 -3.3799 -0.2155 -0.7226
   51MOL0     H 6828   5.216  11.203   2.195 -0.8313 -0.1904 -1.3421
   51MOL0     H 6829   5.226  11.105   2.338  0.0481 -2.2005 -0.5179
   51MOL0     H 6830   5.292  10.900   2.193 -0.9775  0.5772  1.7283
   51MOL0     H 6831   5.302  11.010   2.058 -0.5814 -2.9783  0.1434
   51MOL0     H 6832   5.524  10.965   2.147 -0.1928 -1.4248  1.6618
   51MOL0     H 6833   5.481  11.003   2.308 -1.3256  1.9202  0.7714
   51MOL0     H 6834   5.466  11.220   2.096  1.6902  0.0959 -1.3314
   51MOL0     H 6835   5.468  11.239   2.278  1.6824 -2.2932  2.1551
   51MOL0     H 6836   5.704  11.361   2.327  0.1374  1.3316 -1.6805
   51MOL0     H 6837   6.051  11.351   2.183 -0.2202 -0.1015  0.9540
   51MOL0     H 6838   5.965  11.402   2.339  2.5526 -0.3744  2.5132
   51MOL0     H 6839   6.020  11.165   2.409  3.1513 -1.4975  1.9567
   51MOL0     H 6840   6.128  11.148   2.273  2.4484  0.1660  2.2963
   51MOL0     H 6841   6.158  11.367   2.493  0.9758 -0.3639  0.5630
   51MOL0     H 6842   6.278  11.323   2.362 -0.9576 -1.1985  0.0281
   51MOL0     H 6843   6.184  11.149   2.579 -1.1060 -0.5055 -1.2690
   51MOL0     H 6844   6.334  11.256   2.566 -1.2941  3.5120 -1.6278
   51MOL0     H 6845   6.375  11.034   2.194  1.1544 -3.9799  1.7158
   51MOL0     H 6846   6.598  11.052   2.075  1.1502 -1.1866  0.2555
   51MOL0     H 6847   7.115  11.346   2.315  1.8875 -0.0567  1.8289
   51MOL0     H 6848   7.353  11.352   2.254 -0.9242  0.8561 -1.9642
   51MOL0     H 6849   7.574  10.985   2.203  1.0784  2.1799  1.5927
   51MOL0     H 6850   7.519  11.014   2.031  3.6320 -0.5550 -1.6678
   51MOL0     H 6851   7.774  11.013   2.109  0.9620 -0.1508  0.6629
   51MOL0     H 6852   7.729  11.152   2.011  2.3433  0.2482  1.3482
   51MOL0     H 6853   7.730  11.297   2.216 -1.4705 -0.8978  0.6605
   51MOL0     H 6854   7.756  11.145   2.310  1.3054 -5.5778 -2.2482
   51MOL0     H 6855   7.958  11.225   2.098 -0.7183  0.0384 -0.7183
   51MOL0     H 6856   7.978  11.111   2.232 -0.8413  0.4554  0.6553
   51MOL0     H 6857   7.986  11.290   2.396  0.5099 -0.2654  0.1737
   51MOL0     H 6858   7.919  11.406   2.276 -1.3102 -0.6829  1.3161
   51MOL0     H 6859   8.150  11.371   2.146  3.5611 -2.4938 -1.0842
   51MOL0     H 6860   8.156  11.447   2.304 -1.3251  0.5283 -0.6695
   51MOL0     H 6861   8.226  11.148   2.262 -1.5304  0.6851 -0.2365
   51MOL0     H 6862   8.235  11.253   2.411  2.4251 -0.9429  1.2439
   51MOL0     H 6863   8.415  11.376   2.313  0.6978  0.8308 -2.3737
   51MOL0     H 6864   8.466  11.217   2.285  0.1323  1.3345  4.0501
   51MOL0     H 6865   7.332  10.947   2.134 -2.2118 -1.9951  0.3239
   51MOL0     H 6866   7.065  10.963   2.163 -1.3798  0.4224  0.7267
   51MOL0     H 6867   6.781  11.109   2.462  0.4354 -1.8824  0.4432
   51MOL0     H 6868   6.543  11.132   2.560  0.4978  2.1275 -0.4440
   51MOL0     H 6869   4.512  10.696   2.027  1.8439 -4.0392 -0.0842
   51MOL0     H 6870   4.409  10.524   1.894  1.0221 -1.2443  0.8268
   51MOL0     H 6871   4.441  10.149   1.493  0.6870 -0.2339 -1.3603
   51MOL0     H 6872   4.251  10.016   1.403  0.4080 -0.5263  0.4116
   51MOL0     H 6873   3.799  10.045   1.359 -1.3254  4.4306 -2.1214
   51MOL0     H 6874   3.824  10.186   1.457  1.6537  0.3376  1.0900
   51MOL0     H 6875   3.750   9.969   1.564 -1.7339  1.4971  1.8922
   51MOL0     H 6876   3.894  10.044   1.646  2.6152 -3.3531 -0.4869
   51MOL0     H 6877   3.925   9.809   1.640 -1.3171 -1.3926 -0.3300
   51MOL0     H 6878   4.035   9.881   1.520  0.1476 -1.8186 -2.3350
   51MOL0     H 6879   3.749   9.763   1.454 -0.6012 -0.4028 -0.9771
   51MOL0     H 6880   3.861   9.826   1.341 -1.7273 -0.1223 -0.0716
   51MOL0     H 6881   3.957   9.431   1.442 -1.6371 -1.1253 -1.9907
   51MOL0     H 6882   3.974  10.302   1.562 -0.7101 -2.5600 -0.2627
   51MOL0     H 6883   4.058  10.462   1.713 -0.2695 -1.3301  1.5380
   51MOL0     H 6884   4.220  10.439   1.784 -0.0714 -0.0244  0.2621
   51MOL0     H 6885   4.184  10.543   1.640 -2.3044 -0.6423 -3.4690
   52MOL0     O 6886   4.590   9.190   3.758 -0.2271 -0.1533  0.1747
   52MOL0     C 6887   4.605   9.199   3.882  0.4094 -0.3148  0.4223
   52MOL0     O 6888   4.698   9.284   3.944 -0.0990  0.0281 -0.5521
   52MOL0     C 6889   4.783   9.349   3.857 -0.8539 -0.2555 -0.1657
   52MOL0     C 6890   4.898   9.285   3.815 -0.3319  0.1807 -1.0089
   52MOL0     C 6891   4.991   9.357   3.732  0.7339 -0.2003 -0.4145
   52MOL0     C 6892   4.969   9.491   3.702 -0.1168 -0.9007 -0.3033
   52MOL0     O 6893   5.045   9.572   3.620  0.0008  0.1127 -0.3577
   52MOL0     C 6894   5.146   9.506   3.545 -0.5967 -0.0385 -0.1576
   52MOL0     C 6895   5.108   9.410   3.433  0.4897  0.4413  0.3590
   52MOL0     C 6896   5.223   9.318   3.382 -0.6280  0.2475  0.6916
   52MOL0     C 6897   5.359   9.406   3.374  0.4190  0.1748 -0.4459
   52MOL0     C 6898   5.493   9.317   3.326  1.4738 -0.7409  0.3821
   52MOL0     C 6899   5.622   9.394   3.317 -0.3915 -0.0979  1.3501
   52MOL0     C 6900   5.731   9.295   3.284 -0.2856  0.3136 -0.0108
   52MOL0     C 6901   5.859   9.374   3.268  0.3285 -0.6749 -0.6141
   52MOL0     N 6902   5.966   9.281   3.236  0.4693 -0.6905  0.0694
   52MOL0     C 6903   5.982   9.209   3.124  0.0295 -1.1411 -0.1423
   52MOL0     C 6904   6.093   9.131   3.145  0.3825 -0.3068  0.7100
   52MOL0     C 6905   6.155   9.042   3.047 -0.1216  0.8558  0.4651
   52MOL0     C 6906   6.205   9.115   2.927 -0.0700  0.2734 -0.0142
   52MOL0     C 6907   6.328   9.199   2.972 -0.6642 -0.2346 -0.1116
   52MOL0     C 6908   6.423   9.224   2.849  0.1845  0.3292  0.0305
   52MOL0     O 6909   6.487   9.096   2.813  0.5988  0.4332  0.0178
   52MOL0     C 6910   6.612   9.104   2.750 -0.3392  0.7549  0.8164
   52MOL0     C 6911   6.691   8.993   2.761 -1.0277 -0.9293 -0.4663
   52MOL0     C 6912   6.825   8.986   2.704 -0.3907 -0.0668 -0.3735
   52MOL0     C 6913   6.882   9.102   2.641 -0.3607 -0.1811  0.7547
   52MOL0     C 6914   7.025   9.116   2.607 -0.6832  0.2205  0.2762
   52MOL0     O 6915   7.081   9.245   2.594  0.8546 -0.7752  0.1854
   52MOL0     C 6916   7.219   9.246   2.578  0.4566  0.1124 -0.5383
   52MOL0     C 6917   7.266   9.247   2.448 -0.4230  0.3487 -0.2804
   52MOL0     C 6918   7.408   9.253   2.429  0.3958  0.7941 -0.7726
   52MOL0     C 6919   7.494   9.238   2.537 -0.7219  0.8437  0.4756
   52MOL0     O 6920   7.631   9.241   2.520  0.7597 -0.1369  0.2083
   52MOL0     C 6921   7.699   9.267   2.394  1.4111  1.0365 -0.3864
   52MOL0     C 6922   7.848   9.279   2.395  0.2431 -0.0866  0.2294
   52MOL0     C 6923   7.900   9.421   2.445  0.2887 -0.2451 -0.1198
   52MOL0     C 6924   8.052   9.434   2.413  1.2469  1.1708  0.2778
   52MOL0     C 6925   8.104   9.561   2.468  0.1849  0.4871 -0.3891
   52MOL0     C 6926   8.208   9.546   2.574 -1.2041 -0.4482 -0.1695
   52MOL0     C 6927   8.331   9.473   2.521 -0.1578  0.1909 -0.7548
   52MOL0     C 6928   8.420   9.475   2.642 -0.5154 -0.4070  0.6942
   52MOL0    Cl 6929   8.394   9.346   2.767  0.2049  0.3522  0.4314
   52MOL0     C 6930   7.437   9.224   2.663 -0.1625  0.4561 -0.9543
   52MOL0     C 6931   7.304   9.230   2.688  0.4596 -0.3883 -0.0861
   52MOL0     O 6932   7.093   9.009   2.583  0.8031 -0.2580 -0.1150
   52MOL0     C 6933   6.798   9.208   2.624  0.0009 -0.8683 -0.9539
   52MOL0     C 6934   6.664   9.208   2.669  0.1203  0.6613  0.0034
   52MOL0     N 6935   6.135   9.154   3.266 -0.0768 -0.1612 -0.1901
   52MOL0     N 6936   6.070   9.249   3.320  0.0414 -0.4949  0.1553
   52MOL0     C 6937   4.862   9.555   3.761 -0.0430  1.2589 -0.0707
   52MOL0     C 6938   4.775   9.486   3.841  0.5280  0.3215 -0.5558
   52MOL0     C 6939   4.532   9.111   3.981  0.7404 -0.8495 -0.0745
   52MOL0     C 6940   4.558   9.119   4.123  1.5109  0.1290  0.3910
   52MOL0     C 6941   4.481   9.052   4.220  0.4698  0.5176  0.4415
   52MOL0     C 6942   4.366   8.979   4.188  0.8107  0.1583 -0.6306
   52MOL0     O 6943   4.298   8.910   4.288 -0.9142  0.1810  0.1725
   52MOL0     C 6944   4.213   8.800   4.256  0.1164 -0.3467 -0.0206
   52MOL0     C 6945   4.275   8.666   4.195  0.6786  0.3907  0.1269
   52MOL0     C 6946   4.366   8.607   4.304 -0.2760  0.0191 -0.1860
   52MOL0     C 6947   4.370   8.447   4.296  0.1158 -0.6049  0.2981
   52MOL0     C 6948   4.480   8.403   4.208  0.7634  0.6710  0.7792
   52MOL0     C 6949   4.564   8.366   4.128  0.9138 -0.8288 -0.6925
   52MOL0     C 6950   4.337   8.973   4.054 -0.0047 -0.3848  0.0785
   52MOL0     C 6951   4.409   9.040   3.947  0.0937 -0.7125 -0.7438
   52MOL0     C 6952   4.355   9.011   3.806  0.1209 -0.4739  1.1380
   52MOL0     H 6953   4.927   9.181   3.824  0.8513  0.5708 -0.0609
   52MOL0     H 6954   5.083   9.307   3.702  0.0161 -1.2903 -0.8290
   52MOL0     H 6955   5.189   9.594   3.497 -0.8381 -0.2390 -0.7494
   52MOL0     H 6956   5.227   9.458   3.601 -1.1527 -1.5164 -0.5612
   52MOL0     H 6957   5.085   9.475   3.348 -0.8516 -2.6118 -1.7823
   52MOL0     H 6958   5.018   9.351   3.451  1.3990 -1.1507 -0.1534
   52MOL0     H 6959   5.194   9.278   3.284 -2.6073 -1.8681  2.0436
   52MOL0     H 6960   5.240   9.238   3.454  0.8690 -0.5015 -0.4303
   52MOL0     H 6961   5.341   9.491   3.307 -0.4596 -0.2151 -0.7167
   52MOL0     H 6962   5.389   9.432   3.476  0.6301 -3.0281  0.4278
   52MOL0     H 6963   5.509   9.232   3.394 -0.0460 -1.2315  0.1720
   52MOL0     H 6964   5.460   9.273   3.231 -4.3864 -0.8541  2.0191
   52MOL0     H 6965   5.600   9.456   3.229 -1.5074 -0.5621  1.2765
   52MOL0     H 6966   5.650   9.448   3.408  2.9804 -2.6427  2.0152
   52MOL0     H 6967   5.715   9.231   3.197 -1.1082 -1.2198  1.2213
   52MOL0     H 6968   5.754   9.228   3.367  3.2490  2.0026  0.5876
   52MOL0     H 6969   5.863   9.453   3.193  3.9779 -0.0646  0.0458
   52MOL0     H 6970   5.876   9.429   3.361  0.1900  1.6550 -1.9142
   52MOL0     H 6971   5.925   9.239   3.036 -1.3168  2.5914  1.8022
   52MOL0     H 6972   6.239   8.987   3.092  1.0757  0.6722 -1.8264
   52MOL0     H 6973   6.081   8.967   3.019  1.0009  0.2864 -1.1877
   52MOL0     H 6974   6.229   9.042   2.849  0.6904  0.1994  0.2710
   52MOL0     H 6975   6.135   9.188   2.885 -1.1635 -0.3144  0.7479
   52MOL0     H 6976   6.388   9.135   3.039  2.0318 -1.9749 -3.8296
   52MOL0     H 6977   6.300   9.291   3.023 -3.2757  0.0295 -1.8455
   52MOL0     H 6978   6.500   9.297   2.877  1.7090 -1.6802  1.3249
   52MOL0     H 6979   6.352   9.254   2.771 -0.5424 -0.0771  0.5291
   52MOL0     H 6980   6.652   8.909   2.819  0.3247  0.2213  2.3011
   52MOL0     H 6981   6.885   8.896   2.712  0.6193  0.5698 -0.5995
   52MOL0     H 6982   7.202   9.244   2.360 -0.4531  1.5123 -0.3147
   52MOL0     H 6983   7.446   9.267   2.328 -1.4936 -2.1504 -2.0255
   52MOL0     H 6984   7.665   9.188   2.325  0.4411  0.8836  0.2402
   52MOL0     H 6985   7.650   9.359   2.363 -0.4157  1.0736  2.2703
   52MOL0     H 6986   7.895   9.190   2.438  0.4338 -0.1403 -0.0859
   52MOL0     H 6987   7.864   9.282   2.287 -0.3260 -2.5496  0.0117
   52MOL0     H 6988   7.838   9.491   2.389  0.0259 -1.1154 -0.9477
   52MOL0     H 6989   7.874   9.435   2.550  1.1877  1.3932 -0.0978
   52MOL0     H 6990   8.069   9.425   2.305 -1.1918 -2.2233 -0.0031
   52MOL0     H 6991   8.101   9.351   2.464  1.2526  2.9623  3.4662
   52MOL0     H 6992   8.022   9.609   2.522 -1.2815 -3.9122  1.7981
   52MOL0     H 6993   8.134   9.634   2.392  4.0114  0.1271  0.5434
   52MOL0     H 6994   8.228   9.646   2.613 -1.1105  0.7283 -3.0187
   52MOL0     H 6995   8.164   9.491   2.658 -1.6095  0.4147  0.1958
   52MOL0     H 6996   8.366   9.525   2.431 -1.4861  3.8437  0.6518
   52MOL0     H 6997   8.315   9.371   2.484 -0.1216  0.2251 -0.8654
   52MOL0     H 6998   8.517   9.439   2.606 -0.5155 -1.2775  1.5090
   52MOL0     H 6999   8.444   9.571   2.690  2.1253 -1.5331  1.8589
   52MOL0     H 7000   7.504   9.191   2.741 -3.2492 -1.9959  0.9286
   52MOL0     H 7001   7.276   9.220   2.793  1.4629  0.4022  0.2734
   52MOL0     H 7002   6.825   9.299   2.571  0.2813 -2.1342 -3.1167
   52MOL0     H 7003   6.608   9.299   2.645  3.1955  2.3306 -1.4494
   52MOL0     H 7004   4.843   9.659   3.736  0.0962  1.3130  0.0474
   52MOL0     H 7005   4.700   9.547   3.891  2.0977  1.1815  0.8364
   52MOL0     H 7006   4.652   9.169   4.145  2.0511 -0.9049  0.4968
   52MOL0     H 7007   4.522   9.037   4.319  1.1871 -3.2185 -0.2680
   52MOL0     H 7008   4.140   8.841   4.186  0.5740 -0.6493 -0.6854
   52MOL0     H 7009   4.157   8.777   4.347  0.5284 -0.4675  0.2038
   52MOL0     H 7010   4.330   8.685   4.103 -0.5098 -0.7766 -0.8560
   52MOL0     H 7011   4.192   8.596   4.184  1.4264 -0.4604 -0.1506
   52MOL0     H 7012   4.313   8.608   4.400  0.6707 -1.8755  0.3975
   52MOL0     H 7013   4.466   8.649   4.321  0.1004 -1.2706  0.9332
   52MOL0     H 7014   4.399   8.412   4.396 -0.0401 -1.1248  0.1600
   52MOL0     H 7015   4.276   8.396   4.275 -2.2043  2.0959  3.2002
   52MOL0     H 7016   4.640   8.338   4.058 -0.3113 -2.7072 -1.3451
   52MOL0     H 7017   4.261   8.904   4.018 -0.4703  0.6544 -1.0264
   52MOL0     H 7018   4.283   8.930   3.806 -1.0645  0.5269  2.4210
   52MOL0     H 7019   4.293   9.093   3.767 -1.1273 -1.0370  1.8824
   52MOL0     H 7020   4.433   8.978   3.737  1.8045  2.8489  1.2029
   53MOL0     O 7021   4.060   3.742  11.261 -0.2767  0.1640 -0.1019
   53MOL0     C 7022   4.075   3.805  11.149 -0.0997 -0.0141 -0.6922
   53MOL0     O 7023   4.193   3.842  11.088  0.1758  0.1457  0.5193
   53MOL0     C 7024   4.318   3.790  11.135  0.6995  0.4004 -0.0089
   53MOL0     C 7025   4.336   3.653  11.148  0.0398 -0.2789  0.6207
   53MOL0     C 7026   4.461   3.594  11.172 -0.1204 -0.2889  0.3680
   53MOL0     C 7027   4.569   3.685  11.182 -0.9585 -0.4372 -0.4005
   53MOL0     O 7028   4.698   3.627  11.199 -0.1091  0.1921 -0.2450
   53MOL0     C 7029   4.772   3.598  11.079  0.0752 -0.4426 -0.0861
   53MOL0     C 7030   4.896   3.697  11.077  0.2005  0.0434 -0.0702
   53MOL0     C 7031   4.965   3.699  11.216  0.5587 -0.1705 -0.1842
   53MOL0     C 7032   5.012   3.568  11.278 -0.8551  0.4363  0.1729
   53MOL0     C 7033   5.130   3.590  11.381 -0.2972 -0.3300  0.0289
   53MOL0     C 7034   5.265   3.614  11.324 -0.7700 -0.7528  0.2840
   53MOL0     C 7035   5.378   3.649  11.425  0.0573 -0.6043 -0.4617
   53MOL0     C 7036   5.512   3.641  11.355  0.4261  0.5753  0.6215
   53MOL0     N 7037   5.622   3.689  11.430  0.4260 -0.2152 -0.5386
   53MOL0     C 7038   5.632   3.786  11.529 -0.0748  0.0211  0.5297
   53MOL0     C 7039   5.748   3.772  11.594 -0.7251  0.7650  0.1756
   53MOL0     C 7040   5.788   3.855  11.710  0.7815  0.7222  0.2366
   53MOL0     C 7041   5.942   3.873  11.701 -0.0040  0.1579  0.2449
   53MOL0     C 7042   5.985   3.921  11.844  0.5520  0.7838 -0.2002
   53MOL0     C 7043   6.140   3.923  11.831  1.1420 -0.2305  1.1340
   53MOL0     O 7044   6.211   3.933  11.954  0.4875  0.1050  0.0148
   53MOL0     C 7045   6.307   4.031  11.953  0.0476  0.5552 -0.0459
   53MOL0     C 7046   6.312   4.120  12.058  0.6985  0.0859  0.0798
   53MOL0     C 7047   6.418   4.202  12.081 -0.0757  0.0942 -0.8342
   53MOL0     C 7048   6.532   4.200  11.997  0.7949  0.1058 -0.2609
   53MOL0     C 7049   6.641   4.299  12.023  0.6319 -0.3492 -0.6884
   53MOL0     O 7050   6.646   4.341  12.153  0.1496  0.4208 -0.1981
   53MOL0     C 7051   6.729   4.446  12.194  0.1312 -0.2813  0.7586
   53MOL0     C 7052   6.852   4.481  12.136 -0.2791  0.4134  0.1760
   53MOL0     C 7053   6.931   4.582  12.183  0.8637 -0.0646 -0.1938
   53MOL0     C 7054   6.878   4.668  12.285 -0.1788  0.3365 -0.2342
   53MOL0     O 7055   6.943   4.776  12.325  0.3540 -0.3631 -0.6011
   53MOL0     C 7056   6.998   4.865  12.224 -0.4100 -0.0330 -0.4706
   53MOL0     C 7057   7.106   4.963  12.290  0.2082  1.1589 -0.0536
   53MOL0     C 7058   7.233   4.889  12.317 -0.2405  0.6568 -0.0544
   53MOL0     C 7059   7.318   4.861  12.191 -0.7891  0.2377 -0.8205
   53MOL0     C 7060   7.459   4.807  12.229  0.8390  0.5396  0.0988
   53MOL0     C 7061   7.557   4.923  12.239  0.0883  0.0827  0.1691
   53MOL0     C 7062   7.701   4.884  12.261  0.9151  0.0480  1.2483
   53MOL0     C 7063   7.804   5.002  12.265  0.5574 -0.2240 -0.0296
   53MOL0    Cl 7064   7.974   4.930  12.234 -0.1454  0.1377  0.0219
   53MOL0     C 7065   6.747   4.637  12.337 -0.9277 -0.0832 -0.4009
   53MOL0     C 7066   6.678   4.532  12.288 -0.4664 -0.7076  1.1921
   53MOL0     O 7067   6.718   4.331  11.937  1.1056  0.2931 -0.7574
   53MOL0     C 7068   6.529   4.114  11.887 -0.3721  0.4261  0.0647
   53MOL0     C 7069   6.413   4.032  11.865 -0.0397  0.8769  0.0629
   53MOL0     N 7070   5.810   3.666  11.536  0.3653 -0.3565 -0.2602
   53MOL0     N 7071   5.741   3.627  11.437 -0.8603  0.5370  0.1212
   53MOL0     C 7072   4.548   3.826  11.176  0.2242  0.1066  0.2742
   53MOL0     C 7073   4.424   3.877  11.153 -0.6805  0.2400 -0.1854
   53MOL0     C 7074   3.957   3.868  11.076 -0.5189 -0.0325 -0.3895
   53MOL0     C 7075   3.985   3.942  10.959 -0.1157 -0.3821 -0.2596
   53MOL0     C 7076   3.890   4.004  10.886  0.4891 -0.1275  0.3687
   53MOL0     C 7077   3.756   3.990  10.916  0.4019 -0.8092 -0.1818
   53MOL0     O 7078   3.669   4.046  10.827  0.5463 -1.3815 -0.0608
   53MOL0     C 7079   3.536   3.990  10.830  0.1929  0.5996 -0.9405
   53MOL0     C 7080   3.454   4.042  10.715 -0.7733  0.4494 -0.1234
   53MOL0     C 7081   3.312   3.989  10.702 -0.2497  0.4852 -0.6914
   53MOL0     C 7082   3.314   3.853  10.656  0.0924  0.8073  0.3888
   53MOL0     C 7083   3.184   3.792  10.630  0.3504  0.3136 -0.4199
   53MOL0     C 7084   3.062   3.770  10.627  0.9169  0.2508 -0.4768
   53MOL0     C 7085   3.721   3.908  11.026 -0.5738  0.8746 -0.5137
   53MOL0     C 7086   3.817   3.848  11.112 -0.5662  0.3101 -0.2898
   53MOL0     C 7087   3.762   3.749  11.219 -0.2269  0.3071  0.0502
   53MOL0     H 7088   4.259   3.581  11.123 -0.0938  0.0098  0.1792
   53MOL0     H 7089   4.477   3.487  11.188 -1.1230 -0.6276 -0.7243
   53MOL0     H 7090   4.806   3.494  11.084 -1.3029 -1.0212 -1.7419
   53MOL0     H 7091   4.708   3.598  10.990  1.4143 -1.4903 -1.0876
   53MOL0     H 7092   4.856   3.798  11.063 -0.5652  0.0174  1.7165
   53MOL0     H 7093   4.965   3.664  10.998 -1.4096 -2.6548 -0.4970
   53MOL0     H 7094   4.895   3.743  11.288  1.0724 -0.5423  0.5518
   53MOL0     H 7095   5.053   3.762  11.204  2.0257 -1.5716  2.2876
   53MOL0     H 7096   4.933   3.507  11.322  0.4727 -1.6833 -0.2391
   53MOL0     H 7097   5.046   3.509  11.193 -2.4001  1.5505 -1.2793
   53MOL0     H 7098   5.104   3.668  11.452  1.6506 -0.5459  1.0657
   53MOL0     H 7099   5.157   3.502  11.440 -0.4782  0.9042  2.0390
   53MOL0     H 7100   5.306   3.533  11.263  0.7660 -2.0090  2.7786
   53MOL0     H 7101   5.257   3.698  11.255  2.1448 -0.6981 -0.0991
   53MOL0     H 7102   5.376   3.585  11.514 -0.8934  0.3052  0.1887
   53MOL0     H 7103   5.365   3.752  11.462  0.2645 -1.2411  1.5190
   53MOL0     H 7104   5.523   3.535  11.330 -1.2487  0.9036 -1.9339
   53MOL0     H 7105   5.514   3.708  11.268 -0.1579 -0.1843  0.0058
   53MOL0     H 7106   5.552   3.857  11.547 -1.2167 -1.4611  1.5249
   53MOL0     H 7107   5.732   3.948  11.706 -0.5204 -0.0661 -2.5195
   53MOL0     H 7108   5.752   3.801  11.798 -1.4383  1.5692 -0.0878
   53MOL0     H 7109   5.988   3.781  11.665  1.1512  0.0736  1.8247
   53MOL0     H 7110   5.972   3.948  11.628 -0.4219  0.5177  0.4378
   53MOL0     H 7111   5.958   3.842  11.915 -2.2212 -0.0853 -2.0302
   53MOL0     H 7112   5.937   4.015  11.873  1.1940  0.6374  1.3981
   53MOL0     H 7113   6.168   4.007  11.767  0.2697 -1.1421 -0.5245
   53MOL0     H 7114   6.168   3.832  11.777  0.0851  1.2277 -2.1281
   53MOL0     H 7115   6.232   4.108  12.131 -0.7796 -1.2331 -1.6483
   53MOL0     H 7116   6.416   4.266  12.168 -0.4817  0.9918 -1.4836
   53MOL0     H 7117   6.904   4.409  12.074 -1.9681 -1.7844  1.1426
   53MOL0     H 7118   7.031   4.586  12.141  1.5058  0.7622  1.2926
   53MOL0     H 7119   7.057   4.808  12.151  1.5908  1.0489  0.2232
   53MOL0     H 7120   6.915   4.923  12.183 -2.2099  0.2012  3.0671
   53MOL0     H 7121   7.127   5.054  12.234 -0.2627  0.7927 -0.8429
   53MOL0     H 7122   7.062   5.001  12.383  0.2833  1.3728 -0.1060
   53MOL0     H 7123   7.295   4.952  12.381 -0.8669 -0.4643  1.7382
   53MOL0     H 7124   7.214   4.801  12.378 -0.0324  1.8958  1.8720
   53MOL0     H 7125   7.321   4.941  12.117 -0.7447  0.0928 -0.9785
   53MOL0     H 7126   7.283   4.766  12.150 -1.7533 -0.4893  1.5167
   53MOL0     H 7127   7.493   4.737  12.152 -2.3904 -0.2363 -0.7835
   53MOL0     H 7128   7.444   4.749  12.320 -0.3775  1.9951  0.8773
   53MOL0     H 7129   7.557   4.973  12.142 -1.2013 -0.0368  0.0850
   53MOL0     H 7130   7.532   5.002  12.310 -0.4491  1.3352 -1.3620
   53MOL0     H 7131   7.727   4.822  12.174 -0.2118 -1.0525  1.6563
   53MOL0     H 7132   7.700   4.836  12.359  3.8611  1.0877  1.8886
   53MOL0     H 7133   7.769   5.081  12.198  0.4600 -0.0420  0.2320
   53MOL0     H 7134   7.791   5.068  12.352 -1.3376  1.0168 -1.1883
   53MOL0     H 7135   6.699   4.690  12.419 -3.8533  1.2335 -2.7614
   53MOL0     H 7136   6.580   4.497  12.319 -1.3472  2.0347  1.8139
   53MOL0     H 7137   6.612   4.103  11.817 -0.3258 -2.8925  0.4531
   53MOL0     H 7138   6.409   3.958  11.786  1.6113  1.5045 -0.6337
   53MOL0     H 7139   4.643   3.876  11.194  0.5469 -0.3725 -0.0575
   53MOL0     H 7140   4.412   3.984  11.148  0.3301  0.3312 -1.3423
   53MOL0     H 7141   4.082   3.956  10.913  0.3915 -1.7370  0.3323
   53MOL0     H 7142   3.918   4.058  10.796  0.7775 -0.1743  0.4306
   53MOL0     H 7143   3.492   4.017  10.926 -2.5125 -4.4251 -0.4096
   53MOL0     H 7144   3.538   3.881  10.832  1.7626  0.5879 -1.6597
   53MOL0     H 7145   3.500   4.005  10.623 -3.2069 -2.3060 -0.3832
   53MOL0     H 7146   3.456   4.151  10.719  1.6841  0.4444  0.2379
   53MOL0     H 7147   3.252   4.044  10.629 -0.8641  0.2437 -0.3738
   53MOL0     H 7148   3.257   4.006  10.795 -0.8384  1.7648 -1.2531
   53MOL0     H 7149   3.356   3.853  10.555  0.3252 -2.1365  0.3915
   53MOL0     H 7150   3.380   3.793  10.719  0.9741 -0.8632 -1.9555
   53MOL0     H 7151   2.957   3.752  10.631  0.9080  0.4617  2.0828
   53MOL0     H 7152   3.623   3.889  11.070  0.1992  0.2508  1.0105
   53MOL0     H 7153   3.822   3.657  11.217 -0.3249  0.2125  1.0676
   53MOL0     H 7154   3.758   3.790  11.320 -3.5736  3.7830 -1.2300
   53MOL0     H 7155   3.659   3.721  11.194  0.0301 -0.1259 -0.5314
   54MOL0     O 7156   7.188   1.015   9.939 -0.2690 -0.1873  0.9397
   54MOL0     C 7157   7.207   0.896   9.962  0.1871 -0.2600 -0.2449
   54MOL0     O 7158   7.112   0.811  10.014  0.0853  0.1068 -0.5677
   54MOL0     C 7159   7.001   0.853  10.081 -0.4859 -0.2240  0.6004
   54MOL0     C 7160   6.949   0.756  10.170 -0.1184  0.4529  0.3649
   54MOL0     C 7161   6.833   0.773  10.252  0.5023  0.1891 -0.3765
   54MOL0     C 7162   6.766   0.890  10.243 -0.2060  0.4489 -0.1459
   54MOL0     O 7163   6.649   0.911  10.316  0.6593  0.0941 -0.6631
   54MOL0     C 7164   6.589   1.039  10.335 -0.1503  0.0507  0.0527
   54MOL0     C 7165   6.434   1.025  10.303 -0.4970  0.2738 -0.9814
   54MOL0     C 7166   6.372   1.170  10.304 -0.4025  0.1960  0.1699
   54MOL0     C 7167   6.359   1.225  10.447 -0.3360  0.6292 -0.5748
   54MOL0     C 7168   6.298   1.364  10.443 -0.2877 -1.1700 -0.2770
   54MOL0     C 7169   6.253   1.439  10.576  0.0983  0.1388  0.2632
   54MOL0     C 7170   6.185   1.573  10.548 -0.4297  0.4114  0.3432
   54MOL0     C 7171   6.187   1.659  10.671  0.0377 -0.0426 -0.3414
   54MOL0     N 7172   6.080   1.756  10.669  0.4429  0.6894  0.0619
   54MOL0     C 7173   6.049   1.846  10.572  0.5077  0.3199 -0.4686
   54MOL0     C 7174   5.934   1.901  10.601  0.5109  0.4808  1.0246
   54MOL0     C 7175   5.872   2.025  10.528  0.6330  0.4419  0.1697
   54MOL0     C 7176   5.966   2.124  10.473  0.0572  0.5003 -0.1321
   54MOL0     C 7177   5.902   2.256  10.418  1.2097  0.2198 -1.5118
   54MOL0     C 7178   6.014   2.322  10.353  0.3493 -0.2273 -0.1362
   54MOL0     O 7179   6.094   2.370  10.459  0.4839 -0.6588  0.0258
   54MOL0     C 7180   6.223   2.344  10.465 -0.3485 -0.2861 -0.2212
   54MOL0     C 7181   6.303   2.343  10.351 -0.4006 -0.0612  0.1589
   54MOL0     C 7182   6.444   2.344  10.356 -0.4519 -0.2211 -0.7728
   54MOL0     C 7183   6.499   2.353  10.489  0.6756  0.3542 -0.6098
   54MOL0     C 7184   6.647   2.375  10.513 -0.3181  0.1093  0.4309
   54MOL0     O 7185   6.681   2.413  10.642 -0.2713  0.0166  0.2252
   54MOL0     C 7186   6.810   2.438  10.662 -0.1514 -0.4783  0.6052
   54MOL0     C 7187   6.887   2.524  10.576 -0.8584 -0.0228 -0.6734
   54MOL0     C 7188   7.025   2.532  10.588  0.8581 -0.2488 -0.0573
   54MOL0     C 7189   7.086   2.463  10.696  0.3881 -0.0982 -0.2945
   54MOL0     O 7190   7.227   2.454  10.714  0.0918 -0.2060  0.8902
   54MOL0     C 7191   7.311   2.547  10.647  0.6599  0.4005  0.0379
   54MOL0     C 7192   7.454   2.528  10.696  0.3739  0.2155  0.0000
   54MOL0     C 7193   7.550   2.607  10.613  0.6307 -0.0808  0.3703
   54MOL0     C 7194   7.609   2.524  10.505  0.1811 -0.2489 -0.0158
   54MOL0     C 7195   7.724   2.591  10.431 -0.0495  0.3076 -0.2756
   54MOL0     C 7196   7.672   2.693  10.322  0.0418  0.1628 -0.2768
   54MOL0     C 7197   7.804   2.757  10.264 -0.2305  0.6342  0.5726
   54MOL0     C 7198   7.790   2.863  10.153 -0.9546  0.2767  0.6708
   54MOL0    Cl 7199   7.768   2.795   9.991  0.0392 -0.5687  0.2107
   54MOL0     C 7200   7.014   2.385  10.785  0.0447  0.4599  0.1517
   54MOL0     C 7201   6.871   2.379  10.772  0.8634 -0.2555  0.4960
   54MOL0     O 7202   6.723   2.368  10.411  0.4622  0.7465 -0.1036
   54MOL0     C 7203   6.416   2.349  10.603 -0.4171  0.6265 -0.8012
   54MOL0     C 7204   6.281   2.339  10.586 -0.2002  0.1482  0.3377
   54MOL0     N 7205   5.876   1.838  10.703  0.1521 -0.0577  0.5668
   54MOL0     N 7206   5.967   1.749  10.753  0.2930  0.1396  0.1490
   54MOL0     C 7207   6.819   0.990  10.156  0.0535  1.1377  1.1834
   54MOL0     C 7208   6.933   0.978  10.073  0.0095  0.2142  0.4302
   54MOL0     C 7209   7.346   0.840   9.947 -0.0695  0.7448 -0.2786
   54MOL0     C 7210   7.369   0.711   9.998 -1.1870 -0.1076 -0.8150
   54MOL0     C 7211   7.504   0.658   9.984  0.0256  0.1300  0.0256
   54MOL0     C 7212   7.608   0.720   9.921  0.3644 -0.2835  0.2039
   54MOL0     O 7213   7.734   0.655   9.929 -0.0047 -0.2392  0.5470
   54MOL0     C 7214   7.843   0.721   9.867  0.0626  0.1548 -0.1236
   54MOL0     C 7215   7.910   0.847   9.935  0.5142  1.2008 -0.9690
   54MOL0     C 7216   8.032   0.789  10.021  0.1176  0.3642 -0.5573
   54MOL0     C 7217   8.087   0.894  10.117  0.1844  0.1049  0.3224
   54MOL0     C 7218   8.163   0.998  10.054 -0.8698 -0.7353 -0.2523
   54MOL0     C 7219   8.224   1.095  10.017 -0.4364 -0.2157 -0.7613
   54MOL0     C 7220   7.582   0.849   9.870 -0.3949  0.0926  0.4483
   54MOL0     C 7221   7.454   0.909   9.879 -0.0813 -0.0928 -0.2610
   54MOL0     C 7222   7.438   1.047   9.820  0.1676  0.2150  0.4076
   54MOL0     H 7223   6.997   0.659  10.176 -2.2749 -0.5728  2.6197
   54MOL0     H 7224   6.812   0.691  10.319  0.9351 -2.0059 -2.7471
   54MOL0     H 7225   6.611   1.072  10.437  0.0910  0.2070 -0.0478
   54MOL0     H 7226   6.621   1.120  10.269 -0.7481  0.3374  0.1071
   54MOL0     H 7227   6.393   0.953  10.374  1.6348 -0.4127 -0.3607
   54MOL0     H 7228   6.420   0.978  10.205 -1.0083 -0.5007 -0.5499
   54MOL0     H 7229   6.271   1.162  10.264  0.5433  1.2524 -2.6738
   54MOL0     H 7230   6.439   1.237  10.248  3.1989  0.0539  3.8663
   54MOL0     H 7231   6.281   1.173  10.504 -1.0635  1.1322 -1.0825
   54MOL0     H 7232   6.455   1.236  10.497 -0.2932  0.6095 -0.6539
   54MOL0     H 7233   6.375   1.429  10.402  0.2641 -0.0299  2.3721
   54MOL0     H 7234   6.212   1.352  10.376  0.3480  0.1809 -1.3926
   54MOL0     H 7235   6.195   1.376  10.645 -1.6695  1.6392  0.2301
   54MOL0     H 7236   6.348   1.478  10.615  0.9327 -1.0168 -0.5648
   54MOL0     H 7237   6.081   1.555  10.519 -0.1588  1.5607 -1.5230
   54MOL0     H 7238   6.239   1.626  10.468 -0.2948  2.9221  1.9785
   54MOL0     H 7239   6.182   1.605  10.766 -0.0068 -0.1625 -0.4136
   54MOL0     H 7240   6.279   1.718  10.676 -0.9039  1.6625 -1.9746
   54MOL0     H 7241   6.107   1.882  10.488 -1.1830 -2.7267 -3.1690
   54MOL0     H 7242   5.804   1.984  10.452  1.7378 -3.2752  0.9844
   54MOL0     H 7243   5.821   2.081  10.606 -0.8665 -1.0719  0.3326
   54MOL0     H 7244   6.040   2.141  10.553  1.1075  3.6243 -1.6124
   54MOL0     H 7245   6.029   2.073  10.400  2.1131  1.5690  0.8100
   54MOL0     H 7246   5.854   2.315  10.497 -1.3413 -3.5850  0.0844
   54MOL0     H 7247   5.823   2.239  10.344 -0.3281  2.6093 -0.5670
   54MOL0     H 7248   5.986   2.418  10.308 -4.0146 -2.4877 -2.8903
   54MOL0     H 7249   6.068   2.265  10.277 -0.6329  2.8896 -3.4372
   54MOL0     H 7250   6.269   2.347  10.248  0.2375  0.4240 -0.0435
   54MOL0     H 7251   6.508   2.341  10.269  0.1123  1.1090 -0.4290
   54MOL0     H 7252   6.849   2.588  10.497 -0.2361  1.6855  0.3313
   54MOL0     H 7253   7.079   2.600  10.523  0.9610 -1.5937 -1.4376
   54MOL0     H 7254   7.297   2.518  10.543 -3.6224  1.2263  0.2073
   54MOL0     H 7255   7.271   2.648  10.664 -0.6210 -0.1283  0.2406
   54MOL0     H 7256   7.455   2.573  10.796  0.9346 -0.0071  0.1015
   54MOL0     H 7257   7.478   2.422  10.704  0.6778  0.2805 -0.0458
   54MOL0     H 7258   7.502   2.695  10.568  0.6660 -0.4162 -0.3275
   54MOL0     H 7259   7.624   2.656  10.676  0.3640  1.8109 -0.6981
   54MOL0     H 7260   7.529   2.502  10.434 -1.2382  1.3534  0.9910
   54MOL0     H 7261   7.646   2.432  10.553  1.3873  1.4429  2.5234
   54MOL0     H 7262   7.784   2.516  10.378  0.5777  1.1407 -0.7750
   54MOL0     H 7263   7.786   2.642  10.506 -1.4850 -2.4918  3.1226
   54MOL0     H 7264   7.621   2.629  10.249  1.5190 -1.1532 -0.2079
   54MOL0     H 7265   7.598   2.764  10.361 -0.4761 -0.9139  0.7807
   54MOL0     H 7266   7.882   2.686  10.233 -0.2343  1.3172 -1.1033
   54MOL0     H 7267   7.854   2.807  10.347  0.0253  0.5087  0.4964
   54MOL0     H 7268   7.700   2.914  10.188  0.5281  0.2242  5.1697
   54MOL0     H 7269   7.878   2.927  10.151 -1.5213  1.0685  0.2606
   54MOL0     H 7270   7.062   2.324  10.861 -2.6405 -1.6358  0.2943
   54MOL0     H 7271   6.815   2.322  10.845 -2.0410  2.5313  0.6921
   54MOL0     H 7272   6.449   2.355  10.706 -2.3690  1.5869 -0.1895
   54MOL0     H 7273   6.209   2.343  10.667  2.2401 -0.6122  2.6918
   54MOL0     H 7274   6.773   1.086  10.137 -2.0314  0.0692  0.5265
   54MOL0     H 7275   6.959   1.064  10.012 -1.8342 -0.7621 -1.9015
   54MOL0     H 7276   7.303   0.654  10.062 -1.1472  1.1384  0.3814
   54MOL0     H 7277   7.536   0.565  10.030  0.6672  0.7752  0.9222
   54MOL0     H 7278   7.820   0.754   9.766  2.3740  0.4716 -0.5950
   54MOL0     H 7279   7.919   0.644   9.850 -1.1811 -1.2268  0.2457
   54MOL0     H 7280   7.833   0.892   9.998 -1.6768  2.8367 -4.5359
   54MOL0     H 7281   7.948   0.920   9.863  0.6958  2.3408  0.2414
   54MOL0     H 7282   8.111   0.755   9.953  3.0501  0.0875  2.7204
   54MOL0     H 7283   7.993   0.704  10.077  0.3092  1.6455  1.6323
   54MOL0     H 7284   8.005   0.939  10.173 -1.2748  0.8008 -2.2279
   54MOL0     H 7285   8.156   0.859  10.194 -0.4752  0.0923  0.9191
   54MOL0     H 7286   8.270   1.177   9.966  1.8136 -1.9284 -1.6781
   54MOL0     H 7287   7.665   0.911   9.838 -1.9277  2.5147  0.8746
   54MOL0     H 7288   7.349   1.067   9.760 -0.9673  1.8709  2.5032
   54MOL0     H 7289   7.440   1.120   9.902 -2.0411  1.3051 -0.4354
   54MOL0     H 7290   7.521   1.059   9.750  1.5877 -1.4704  1.6867
   55MOL0     O 7291   1.058   2.856   5.171 -0.0278 -0.2008  0.4774
   55MOL0     C 7292   0.967   2.930   5.210  0.7668 -1.2187  0.4435
   55MOL0     O 7293   0.985   3.013   5.309 -1.1058 -0.1397  1.1970
   55MOL0     C 7294   1.088   2.992   5.393 -0.1229 -0.3797 -0.2018
   55MOL0     C 7295   1.159   3.109   5.443  0.0351  0.8156  0.2436
   55MOL0     C 7296   1.245   3.102   5.552  0.1537  0.3737  0.3682
   55MOL0     C 7297   1.276   2.975   5.602 -0.7620 -0.3873  0.1555
   55MOL0     O 7298   1.374   2.951   5.697 -0.4404 -0.0659 -0.4383
   55MOL0     C 7299   1.442   3.065   5.742 -0.4420 -0.1265  0.1837
   55MOL0     C 7300   1.578   3.021   5.815  0.0132  1.1455  0.6283
   55MOL0     C 7301   1.693   3.005   5.718 -0.1238  0.4465 -0.2434
   55MOL0     C 7302   1.738   3.136   5.661 -0.7093  0.5963  0.5201
   55MOL0     C 7303   1.867   3.116   5.580  0.1570 -0.9598 -0.0512
   55MOL0     C 7304   1.914   3.254   5.534 -0.8165  0.1312 -0.0438
   55MOL0     C 7305   2.032   3.241   5.430 -0.2366  0.5309 -0.8786
   55MOL0     C 7306   1.985   3.188   5.287 -0.3075 -0.5885 -0.8820
   55MOL0     N 7307   2.092   3.168   5.194 -0.5711  0.4139  0.4538
   55MOL0     C 7308   2.153   3.044   5.192  0.6107  0.4471  0.1998
   55MOL0     C 7309   2.253   3.061   5.097 -0.1256  0.9725 -1.2142
   55MOL0     C 7310   2.354   2.973   5.042 -1.3594  0.3836  0.4278
   55MOL0     C 7311   2.505   3.008   5.093  1.1798  0.0378 -0.4458
   55MOL0     C 7312   2.621   2.914   5.047 -0.4343 -0.3340 -0.8353
   55MOL0     C 7313   2.756   2.984   5.079  0.0219  0.2909  1.1707
   55MOL0     O 7314   2.780   2.964   5.218 -0.6615  0.9291 -0.6745
   55MOL0     C 7315   2.897   3.001   5.282  0.0877 -0.1197 -0.1231
   55MOL0     C 7316   2.998   3.075   5.217  0.1879 -0.9269 -0.2179
   55MOL0     C 7317   3.109   3.120   5.291  0.0971 -0.2432 -0.2921
   55MOL0     C 7318   3.132   3.081   5.418  0.6238  0.3724  0.2008
   55MOL0     C 7319   3.255   3.117   5.486  0.1755  0.5506  0.5681
   55MOL0     O 7320   3.291   3.049   5.596  0.4636  0.2544  0.2367
   55MOL0     C 7321   3.407   3.049   5.670  0.2845  0.3236 -1.0084
   55MOL0     C 7322   3.535   3.064   5.617  1.0191  0.4531  0.2436
   55MOL0     C 7323   3.645   3.055   5.706 -0.3027 -0.2985 -0.0579
   55MOL0     C 7324   3.638   3.022   5.838 -0.2595 -0.8009  0.5293
   55MOL0     O 7325   3.744   3.022   5.917 -0.2631  0.4673 -0.1060
   55MOL0     C 7326   3.824   3.137   5.942  0.1810 -0.2333 -0.4010
   55MOL0     C 7327   3.959   3.084   5.955 -0.1054  0.3982  0.5565
   55MOL0     C 7328   4.073   3.195   5.967 -0.1865  0.0384 -1.3229
   55MOL0     C 7329   4.196   3.125   6.023  0.5379 -0.2188  0.4488
   55MOL0     C 7330   4.314   3.219   6.012  0.3919  0.2436  0.0512
   55MOL0     C 7331   4.439   3.153   6.071 -0.1567  0.4238  0.0317
   55MOL0     C 7332   4.561   3.255   6.077  0.4848 -0.3966 -0.7990
   55MOL0     C 7333   4.621   3.292   5.940  0.8359 -0.1804 -0.5979
   55MOL0    Cl 7334   4.717   3.442   5.933  0.1786  0.0375 -0.3344
   55MOL0     C 7335   3.515   2.983   5.879  1.0845  0.8504  0.5681
   55MOL0     C 7336   3.399   2.996   5.803  1.0481 -0.3716  1.4514
   55MOL0     O 7337   3.323   3.193   5.432 -0.1914 -1.1477  0.3043
   55MOL0     C 7338   3.037   2.996   5.477  0.5285 -0.1720  0.0688
   55MOL0     C 7339   2.923   2.951   5.409 -0.0070  0.0144  0.3500
   55MOL0     N 7340   2.240   3.191   5.053 -0.0219  0.6304  0.6340
   55MOL0     N 7341   2.143   3.254   5.104 -0.0057 -0.3762  0.0484
   55MOL0     C 7342   1.232   2.858   5.541  0.8235 -0.0396  0.4189
   55MOL0     C 7343   1.131   2.865   5.446  0.5625 -0.0523  0.1346
   55MOL0     C 7344   0.821   2.924   5.160 -0.1211  0.7101 -0.0025
   55MOL0     C 7345   0.728   3.021   5.198 -0.0019  0.1744 -0.0007
   55MOL0     C 7346   0.594   3.008   5.162 -0.0616  0.3392 -0.1513
   55MOL0     C 7347   0.546   2.890   5.103 -0.2686  0.2751 -0.2490
   55MOL0     O 7348   0.410   2.885   5.059  0.3631 -0.1547 -0.0850
   55MOL0     C 7349   0.404   2.900   4.913  0.2904 -0.2183 -0.1260
   55MOL0     C 7350   0.253   2.886   4.877  0.1827 -0.4862 -0.1478
   55MOL0     C 7351   0.211   2.976   4.762  0.4631  0.5087  0.6663
   55MOL0     C 7352   0.058   2.999   4.727 -0.9872 -0.4135 -0.2945
   55MOL0     C 7353  -0.010   2.876   4.689 -0.8787  0.5178  0.1542
   55MOL0     C 7354  -0.069   2.780   4.651  0.3561 -0.0955  0.4439
   55MOL0     C 7355   0.637   2.783   5.085 -0.1331 -0.0614 -0.1571
   55MOL0     C 7356   0.777   2.798   5.099 -0.1522  0.0041  0.0438
   55MOL0     C 7357   0.868   2.692   5.030 -0.0214  0.6371  0.2163
   55MOL0     H 7358   1.146   3.209   5.401 -0.4269  0.6969  0.0921
   55MOL0     H 7359   1.283   3.195   5.593  2.0433  1.3191 -3.0573
   55MOL0     H 7360   1.465   3.139   5.664 -2.7945  0.2124 -0.2749
   55MOL0     H 7361   1.377   3.120   5.811  0.9720  3.7286 -1.2509
   55MOL0     H 7362   1.564   2.928   5.870  2.5702 -0.2017 -0.8100
   55MOL0     H 7363   1.598   3.102   5.887 -3.1750  1.1267  1.6865
   55MOL0     H 7364   1.657   2.934   5.643  0.7381  0.6548 -0.8754
   55MOL0     H 7365   1.777   2.953   5.766 -1.1698  0.6847  1.9621
   55MOL0     H 7366   1.663   3.169   5.588 -1.2127  3.2486  2.1040
   55MOL0     H 7367   1.744   3.204   5.747  0.7296  1.0472  0.0819
   55MOL0     H 7368   1.947   3.069   5.637 -1.8895  0.0121  3.9575
   55MOL0     H 7369   1.837   3.048   5.500 -1.2940  1.1199 -1.3956
   55MOL0     H 7370   1.828   3.305   5.490 -1.8355  0.4252  2.1613
   55MOL0     H 7371   1.947   3.316   5.618  3.4085  0.6279 -1.8355
   55MOL0     H 7372   2.102   3.176   5.483 -4.4849 -2.0889  2.1667
   55MOL0     H 7373   2.080   3.339   5.421  0.7721  0.1433  0.0794
   55MOL0     H 7374   1.933   3.093   5.295  0.6825 -1.1235 -0.5419
   55MOL0     H 7375   1.922   3.266   5.244  1.3609  0.7618 -0.9933
   55MOL0     H 7376   2.137   2.959   5.257 -0.4755  1.7217  1.6453
   55MOL0     H 7377   2.336   2.869   5.073 -0.8471 -0.5731 -2.1950
   55MOL0     H 7378   2.348   2.971   4.933 -0.8962 -0.4300  0.4036
   55MOL0     H 7379   2.540   3.107   5.061  1.3543  0.1115 -0.0405
   55MOL0     H 7380   2.503   3.006   5.203  1.8931 -1.7403 -0.4389
   55MOL0     H 7381   2.598   2.891   4.942 -1.4910  1.5808 -1.0896
   55MOL0     H 7382   2.616   2.823   5.106 -1.6184 -0.2126 -0.7194
   55MOL0     H 7383   2.766   3.084   5.036  1.2864  0.3321  1.5083
   55MOL0     H 7384   2.813   2.913   5.017  1.1546  0.5784  1.8574
   55MOL0     H 7385   2.999   3.114   5.116  0.8818 -2.1288 -0.6898
   55MOL0     H 7386   3.175   3.191   5.241  0.2021 -0.0288  0.1497
   55MOL0     H 7387   3.551   3.089   5.513  2.4592  1.2128  0.6189
   55MOL0     H 7388   3.742   3.066   5.659 -0.8850 -0.7185 -1.4032
   55MOL0     H 7389   3.818   3.217   5.868 -0.5556  1.4212  1.3653
   55MOL0     H 7390   3.791   3.180   6.037 -0.1459 -1.0469 -0.1304
   55MOL0     H 7391   3.963   3.022   6.045  7.0271 -0.7142  0.0599
   55MOL0     H 7392   3.975   3.014   5.873  0.3897  0.3943  0.6531
   55MOL0     H 7393   4.086   3.233   5.865 -2.0310  2.6252 -0.6910
   55MOL0     H 7394   4.049   3.278   6.033  0.2913 -1.9281  1.4794
   55MOL0     H 7395   4.219   3.035   5.966  1.8559  1.2463 -1.5010
   55MOL0     H 7396   4.183   3.097   6.127 -0.1787 -4.0100 -0.5199
   55MOL0     H 7397   4.299   3.311   6.069 -0.5661 -1.4518  2.7090
   55MOL0     H 7398   4.325   3.246   5.907 -2.2882  0.2260 -0.2862
   55MOL0     H 7399   4.408   3.129   6.173 -1.5413 -0.8824 -0.6498
   55MOL0     H 7400   4.468   3.058   6.025 -2.3543 -0.7233  0.8532
   55MOL0     H 7401   4.645   3.211   6.130  1.8208  1.1812 -1.5307
   55MOL0     H 7402   4.525   3.349   6.119 -0.3402 -0.4699 -1.3002
   55MOL0     H 7403   4.673   3.200   5.913 -1.4817 -1.2098 -1.8983
   55MOL0     H 7404   4.541   3.295   5.865  0.3405  1.8457 -0.0473
   55MOL0     H 7405   3.506   2.943   5.979 -0.5433  0.2776  0.2341
   55MOL0     H 7406   3.301   2.976   5.843  0.7388 -1.2504  0.2997
   55MOL0     H 7407   3.057   2.957   5.577  2.0040  1.7396  0.5639
   55MOL0     H 7408   2.844   2.886   5.444 -0.9794  1.8215  1.6549
   55MOL0     H 7409   1.275   2.763   5.570  0.8574 -0.7152 -1.7042
   55MOL0     H 7410   1.068   2.786   5.405 -1.0453  2.3619 -2.4984
   55MOL0     H 7411   0.773   3.109   5.243  0.4392 -1.1263  2.2704
   55MOL0     H 7412   0.509   3.070   5.188 -1.0742 -1.0902  0.0523
   55MOL0     H 7413   0.459   2.824   4.858  0.8193 -1.5482  2.1034
   55MOL0     H 7414   0.442   2.999   4.886  0.1221 -0.1964 -0.2821
   55MOL0     H 7415   0.193   2.907   4.966  0.8300  1.0438 -0.0438
   55MOL0     H 7416   0.231   2.779   4.868 -0.8163 -0.6111  2.6941
   55MOL0     H 7417   0.263   2.928   4.679  0.8148 -2.4255  2.4584
   55MOL0     H 7418   0.249   3.079   4.765 -2.3692  1.6741  0.4315
   55MOL0     H 7419  -0.003   3.027   4.814 -3.0987  2.2206 -2.4480
   55MOL0     H 7420   0.046   3.070   4.645  0.8553 -0.8377 -0.9726
   55MOL0     H 7421  -0.124   2.697   4.611 -1.4881  1.2433  0.0615
   55MOL0     H 7422   0.603   2.685   5.051 -0.8492 -0.8854  2.7236
   55MOL0     H 7423   0.944   2.747   4.974  0.8459  0.5565  1.2804
   55MOL0     H 7424   0.907   2.617   5.098  0.1461  2.8548  2.7091
   55MOL0     H 7425   0.819   2.632   4.952  2.4187  1.8405 -2.4327
   56MOL0     O 7426   2.237   0.966   9.356 -0.2349  0.5423  0.3485
   56MOL0     C 7427   2.237   0.915   9.244 -0.7727 -0.1043  0.6079
   56MOL0     O 7428   2.298   0.796   9.218  0.0590  0.2912  0.2669
   56MOL0     C 7429   2.374   0.732   9.314  0.1761 -0.5829  0.5114
   56MOL0     C 7430   2.335   0.598   9.319 -0.1125 -0.1835  0.0528
   56MOL0     C 7431   2.384   0.512   9.419  0.1881 -0.0220  0.2462
   56MOL0     C 7432   2.464   0.562   9.522 -0.2210 -0.1978 -0.2515
   56MOL0     O 7433   2.514   0.481   9.620  0.3294  0.5592 -0.4660
   56MOL0     C 7434   2.558   0.521   9.747 -0.9682 -0.5504  0.1367
   56MOL0     C 7435   2.598   0.401   9.833  0.8970 -0.3163 -0.1676
   56MOL0     C 7436   2.694   0.311   9.761  0.5175  1.1076 -0.4276
   56MOL0     C 7437   2.729   0.184   9.826 -0.1128 -0.5769 -0.0024
   56MOL0     C 7438   2.807   0.094   9.729 -0.5874 -0.7687  0.2325
   56MOL0     C 7439   2.905   0.006   9.805  0.2286 -0.3489 -1.2328
   56MOL0     C 7440   2.997  -0.086   9.725 -0.3232 -0.1143  0.2331
   56MOL0     C 7441   2.923  -0.177   9.630 -0.4881 -0.0758  0.2741
   56MOL0     N 7442   3.018  -0.261   9.560 -0.1389  0.3747 -0.2074
   56MOL0     C 7443   3.066  -0.374   9.621 -0.0952 -0.5240  0.1881
   56MOL0     C 7444   3.154  -0.425   9.536  0.9865 -0.4237  0.6145
   56MOL0     C 7445   3.229  -0.543   9.553  0.4793  0.1341 -0.1002
   56MOL0     C 7446   3.370  -0.518   9.603 -0.3721  0.6273  0.4630
   56MOL0     C 7447   3.438  -0.655   9.618 -1.2906 -0.9532  0.0622
   56MOL0     C 7448   3.592  -0.646   9.655  0.4632 -0.0577  0.1186
   56MOL0     O 7449   3.672  -0.763   9.624 -0.0162 -0.2008 -0.0018
   56MOL0     C 7450   3.704  -0.845   9.728 -0.8263 -0.2274 -0.4038
   56MOL0     C 7451   3.796  -0.949   9.700  0.3329 -0.0516  0.4724
   56MOL0     C 7452   3.824  -1.051   9.795  1.1681  0.3609 -0.0836
   56MOL0     C 7453   3.767  -1.039   9.919  0.1323 -0.0209  0.9769
   56MOL0     C 7454   3.805  -1.134  10.019  0.3635  0.2617  0.1363
   56MOL0     O 7455   3.892  -1.228   9.990 -0.1710  0.0158  0.2246
   56MOL0     C 7456   3.950  -1.307  10.087  0.7439  0.2133 -0.0633
   56MOL0     C 7457   4.044  -1.391  10.030 -0.1937 -0.3274 -0.6941
   56MOL0     C 7458   4.124  -1.486  10.105 -0.3616  0.1921  0.4217
   56MOL0     C 7459   4.110  -1.486  10.244 -0.9798 -0.6397 -0.1895
   56MOL0     O 7460   4.195  -1.554  10.333  0.3196 -0.7999  0.1320
   56MOL0     C 7461   4.236  -1.679  10.290 -0.3796 -0.2143 -0.1846
   56MOL0     C 7462   4.326  -1.720  10.415  0.2847  0.1226  0.0059
   56MOL0     C 7463   4.440  -1.622  10.453  1.2305  0.1408  1.0862
   56MOL0     C 7464   4.518  -1.695  10.564  0.1888  0.1528 -0.3421
   56MOL0     C 7465   4.596  -1.598  10.651  0.5053 -0.2194 -0.3731
   56MOL0     C 7466   4.713  -1.539  10.568 -0.5660  0.2998 -0.0384
   56MOL0     C 7467   4.773  -1.415  10.637 -0.0809  0.5198 -0.5854
   56MOL0     C 7468   4.900  -1.362  10.571 -0.2305 -0.1315 -0.8698
   56MOL0    Cl 7469   4.926  -1.192  10.606  0.1507 -0.4119 -0.1624
   56MOL0     C 7470   4.006  -1.411  10.297 -0.5995 -0.1651  0.6701
   56MOL0     C 7471   3.931  -1.318  10.226  0.4250  0.0782  0.4112
   56MOL0     O 7472   3.763  -1.113  10.129 -0.5984 -0.0495 -0.2709
   56MOL0     C 7473   3.687  -0.929   9.954  0.0621 -0.5066 -0.0215
   56MOL0     C 7474   3.650  -0.836   9.860 -0.3721 -0.2675  0.4132
   56MOL0     N 7475   3.143  -0.355   9.415  0.2197  0.0180 -0.6005
   56MOL0     N 7476   3.064  -0.253   9.432 -0.4470  0.2526 -0.6897
   56MOL0     C 7477   2.507   0.694   9.519  0.8190  0.7038 -0.6740
   56MOL0     C 7478   2.471   0.778   9.416  0.3374  0.5175 -0.3601
   56MOL0     C 7479   2.158   0.972   9.129  0.2685  0.2245  0.1796
   56MOL0     C 7480   2.155   0.903   9.006 -0.6806 -0.0837  0.6066
   56MOL0     C 7481   2.095   0.956   8.888  0.1583  0.7088 -0.2519
   56MOL0     C 7482   2.032   1.083   8.899 -0.1124 -0.4162 -0.1906
   56MOL0     O 7483   1.970   1.153   8.797 -0.4484 -0.0826  0.0067
   56MOL0     C 7484   1.980   1.117   8.661  0.0785  0.0372  0.1724
   56MOL0     C 7485   2.116   1.157   8.599 -0.4639 -0.5419  0.0429
   56MOL0     C 7486   2.119   1.093   8.460 -0.9285  0.3148  0.4901
   56MOL0     C 7487   2.153   0.944   8.452  0.0316  0.1721 -0.7365
   56MOL0     C 7488   2.287   0.925   8.513  0.4141  0.0578 -0.1740
   56MOL0     C 7489   2.401   0.887   8.554 -0.2815 -0.3740  0.7558
   56MOL0     C 7490   2.042   1.155   9.018 -0.2028 -0.2940  0.8469
   56MOL0     C 7491   2.099   1.100   9.133 -0.0942 -0.0174  0.0894
   56MOL0     C 7492   2.089   1.197   9.254 -0.7915  0.1621 -0.3428
   56MOL0     H 7493   2.264   0.558   9.248  0.4135 -0.2721 -0.4282
   56MOL0     H 7494   2.341   0.412   9.424  0.3234 -0.0331  1.5067
   56MOL0     H 7495   2.647   0.584   9.745 -0.6285 -0.8842  2.1509
   56MOL0     H 7496   2.483   0.583   9.797  0.8559  1.1695  0.8961
   56MOL0     H 7497   2.508   0.343   9.856 -0.2035  1.7353  0.9510
   56MOL0     H 7498   2.641   0.441   9.924 -0.5957  3.0188 -0.7714
   56MOL0     H 7499   2.794   0.350   9.741  1.5876  0.5040  3.2092
   56MOL0     H 7500   2.640   0.284   9.669 -0.5066 -0.3540  0.5564
   56MOL0     H 7501   2.795   0.199   9.912 -2.6378 -0.1432  1.9944
   56MOL0     H 7502   2.640   0.135   9.866 -0.1009  0.0657  0.8270
   56MOL0     H 7503   2.734   0.038   9.669 -1.0598  0.5947 -0.4978
   56MOL0     H 7504   2.865   0.156   9.660 -0.1153 -2.2042 -0.7230
   56MOL0     H 7505   2.966   0.061   9.877 -0.1774 -0.6330 -0.6628
   56MOL0     H 7506   2.841  -0.052   9.872  0.1430  1.2837  0.1793
   56MOL0     H 7507   3.049  -0.154   9.793 -1.2357 -0.6614  0.3945
   56MOL0     H 7508   3.072  -0.033   9.665  0.3668 -1.5928 -0.2485
   56MOL0     H 7509   2.847  -0.234   9.685 -0.7315 -0.4883 -0.4786
   56MOL0     H 7510   2.873  -0.119   9.552  0.9842 -0.1575 -0.7828
   56MOL0     H 7511   3.050  -0.412   9.722 -2.7121  0.9794  0.4243
   56MOL0     H 7512   3.181  -0.586   9.642 -0.7640 -0.2188 -0.9134
   56MOL0     H 7513   3.222  -0.609   9.466  1.6357  1.3398 -1.1536
   56MOL0     H 7514   3.435  -0.474   9.527  2.3510 -2.4107  0.7936
   56MOL0     H 7515   3.368  -0.465   9.699  0.3303 -0.5425  1.1532
   56MOL0     H 7516   3.437  -0.705   9.520 -2.4281  1.5661 -1.3041
   56MOL0     H 7517   3.391  -0.722   9.692  1.4283 -0.1852  2.6549
   56MOL0     H 7518   3.603  -0.608   9.758  0.5291 -1.3504  0.6011
   56MOL0     H 7519   3.630  -0.568   9.588 -1.6350  1.6581  0.7669
   56MOL0     H 7520   3.829  -0.962   9.597 -1.2097 -0.9469  0.0520
   56MOL0     H 7521   3.864  -1.144   9.756  0.4118  0.4883 -1.2273
   56MOL0     H 7522   4.062  -1.382   9.923  0.3481 -0.5428 -0.6230
   56MOL0     H 7523   4.188  -1.544  10.040 -0.8089 -0.7893  0.8508
   56MOL0     H 7524   4.154  -1.749  10.270 -0.1155 -0.2305 -1.2331
   56MOL0     H 7525   4.301  -1.691  10.204 -0.2225  1.4082 -0.3265
   56MOL0     H 7526   4.259  -1.740  10.500  2.8013 -2.4654  1.5990
   56MOL0     H 7527   4.371  -1.816  10.387 -1.7089 -0.9715  0.3544
   56MOL0     H 7528   4.504  -1.606  10.366 -1.3897  0.9103 -0.8391
   56MOL0     H 7529   4.400  -1.529  10.496  1.4845  0.9471 -0.3847
   56MOL0     H 7530   4.594  -1.762  10.521  3.7663  3.9354 -0.5487
   56MOL0     H 7531   4.444  -1.745  10.627 -0.9527 -1.1331 -2.5774
   56MOL0     H 7532   4.644  -1.644  10.737  1.6467  1.0783 -0.2768
   56MOL0     H 7533   4.535  -1.511  10.678 -1.1484 -0.8803 -1.7557
   56MOL0     H 7534   4.797  -1.606  10.547  0.1076  1.7385 -2.3185
   56MOL0     H 7535   4.677  -1.507  10.470  1.4782 -0.1420 -0.9871
   56MOL0     H 7536   4.805  -1.440  10.738  1.4469 -1.3893 -1.4760
   56MOL0     H 7537   4.702  -1.333  10.652 -1.0115 -0.1481 -1.1869
   56MOL0     H 7538   4.991  -1.420  10.582  1.7088  2.4577 -2.2136
   56MOL0     H 7539   4.879  -1.354  10.464 -0.9483  1.1629 -0.6671
   56MOL0     H 7540   3.981  -1.419  10.403 -1.3803  1.6960  0.6542
   56MOL0     H 7541   3.852  -1.269  10.281  0.1293  0.1796 -0.0923
   56MOL0     H 7542   3.630  -0.922  10.046 -0.3786 -0.9785 -0.2474
   56MOL0     H 7543   3.585  -0.755   9.891 -0.9997 -0.5588 -0.1187
   56MOL0     H 7544   2.563   0.739   9.601  0.6732 -0.9763  0.4043
   56MOL0     H 7545   2.494   0.883   9.412  1.2398  0.3063 -1.0965
   56MOL0     H 7546   2.212   0.811   8.999  0.5092  0.7375 -1.5116
   56MOL0     H 7547   2.096   0.902   8.794 -1.9841 -0.8808  0.5393
   56MOL0     H 7548   1.892   1.164   8.616  0.8477 -1.1331 -2.7649
   56MOL0     H 7549   1.974   1.007   8.664  2.8226 -0.1988 -0.7729
   56MOL0     H 7550   2.199   1.130   8.665  1.7720 -0.0418 -2.4057
   56MOL0     H 7551   2.121   1.266   8.591 -0.7867 -0.5758 -0.7788
   56MOL0     H 7552   2.190   1.151   8.399  0.3797 -0.8579  0.8380
   56MOL0     H 7553   2.023   1.098   8.408  1.0376  0.4147 -3.5459
   56MOL0     H 7554   2.072   0.889   8.501 -4.7005  3.2376 -4.1560
   56MOL0     H 7555   2.148   0.905   8.350 -1.6666  0.1428 -0.6852
   56MOL0     H 7556   2.498   0.850   8.581  0.0684 -0.0561 -0.0222
   56MOL0     H 7557   2.002   1.256   9.021 -0.7658 -0.4930  0.3708
   56MOL0     H 7558   2.041   1.290   9.222 -1.0764  0.4646  0.9257
   56MOL0     H 7559   2.026   1.166   9.338  1.1334  0.3629  1.2380
   56MOL0     H 7560   2.192   1.207   9.290 -0.6117 -4.9094  1.4796
   57MOL0     O 7561  10.009   4.303   0.206 -0.5144 -0.1805 -0.6910
   57MOL0     C 7562  10.024   4.288   0.328 -0.5628 -0.5247 -0.2286
   57MOL0     O 7563   9.989   4.181   0.402  1.3011 -0.1562 -0.4731
   57MOL0     C 7564   9.918   4.088   0.338 -0.0698 -1.1959 -0.1936
   57MOL0     C 7565   9.975   4.000   0.245 -0.8804 -0.4112  0.2270
   57MOL0     C 7566   9.890   3.913   0.172 -0.3608 -0.7609  0.4388
   57MOL0     C 7567   9.753   3.903   0.192 -0.2585  0.0916 -0.5333
   57MOL0     O 7568   9.671   3.808   0.127  0.3995  0.8718 -0.4844
   57MOL0     C 7569   9.544   3.767   0.189  0.6410  0.3183 -0.4756
   57MOL0     C 7570   9.463   3.677   0.098 -0.3789 -0.2308  0.8749
   57MOL0     C 7571   9.509   3.533   0.092  0.4387 -0.5094  0.1807
   57MOL0     C 7572   9.504   3.444   0.219 -0.4114  0.7919  0.7125
   57MOL0     C 7573   9.491   3.296   0.190 -0.4942  0.2323  0.0223
   57MOL0     C 7574   9.617   3.233   0.127  0.5656  0.5509 -0.6306
   57MOL0     C 7575   9.586   3.081   0.136 -0.5041 -0.6165  0.4355
   57MOL0     C 7576   9.714   3.003   0.094 -0.2639 -0.5385  1.0502
   57MOL0     N 7577   9.839   3.049   0.158 -0.2739  0.0658 -0.8450
   57MOL0     C 7578   9.866   3.022   0.297 -0.2146  0.5048  0.2026
   57MOL0     C 7579   9.995   3.065   0.319  0.8849  0.3328  0.3162
   57MOL0     C 7580  10.068   3.053   0.447  0.0791 -0.2302  0.5503
   57MOL0     C 7581  10.139   2.916   0.465  0.4094 -0.3687 -0.0872
   57MOL0     C 7582  10.276   2.902   0.402 -0.0366 -0.1321  0.0339
   57MOL0     C 7583  10.383   2.992   0.475  0.3918  0.1541  0.2409
   57MOL0     O 7584  10.510   2.984   0.412  0.2349  0.0743 -0.0189
   57MOL0     C 7585  10.569   3.091   0.344 -0.1767 -0.8523  0.0523
   57MOL0     C 7586  10.514   3.142   0.227 -0.5377  0.2094  0.7984
   57MOL0     C 7587  10.573   3.249   0.159  0.7422  0.3114  0.1094
   57MOL0     C 7588  10.693   3.303   0.195 -0.7046  0.5537 -0.0207
   57MOL0     C 7589  10.746   3.428   0.133  1.2291 -0.2406 -0.2739
   57MOL0     O 7590  10.669   3.475   0.036 -0.4252  0.2354 -0.6148
   57MOL0     C 7591  10.683   3.619   0.014  0.3340 -0.4732 -0.1732
   57MOL0     C 7592  10.681   3.666  -0.118 -0.1193 -0.5936 -0.0472
   57MOL0     C 7593  10.706   3.797  -0.147 -0.0686 -0.1649  0.5882
   57MOL0     C 7594  10.726   3.890  -0.056 -0.2044 -0.9979  0.4776
   57MOL0     O 7595  10.754   4.019  -0.099  0.9010  0.7337  0.5094
   57MOL0     C 7596  10.725   4.128  -0.011  0.5401 -0.2689  0.1099
   57MOL0     C 7597  10.718   4.259  -0.094 -0.4022  0.0013  0.0149
   57MOL0     C 7598  10.655   4.383  -0.025  0.5851 -0.0329  0.9309
   57MOL0     C 7599  10.725   4.424   0.103 -0.4685 -0.6582 -0.4289
   57MOL0     C 7600  10.650   4.540   0.175  0.1232  0.0112 -0.3921
   57MOL0     C 7601  10.738   4.597   0.288 -0.3989 -0.1795  0.1127
   57MOL0     C 7602  10.664   4.715   0.354  0.5528  0.2279 -0.1172
   57MOL0     C 7603  10.552   4.672   0.446 -0.3307 -0.0663 -0.3682
   57MOL0    Cl 7604  10.614   4.606   0.602 -0.1422 -0.6376 -0.0647
   57MOL0     C 7605  10.711   3.854   0.080  0.3674  0.4014  1.0212
   57MOL0     C 7606  10.685   3.716   0.117  0.1109 -0.4152 -0.0094
   57MOL0     O 7607  10.845   3.482   0.175  0.5120 -0.0425 -0.0870
   57MOL0     C 7608  10.758   3.241   0.312  0.0998  0.3773 -0.5251
   57MOL0     C 7609  10.697   3.137   0.381  0.9008  0.5265 -0.0079
   57MOL0     N 7610  10.042   3.120   0.200  0.1632  0.0607 -0.3252
   57MOL0     N 7611   9.957   3.106   0.106  0.1840  1.0359 -0.4187
   57MOL0     C 7612   9.700   3.971   0.309  0.8379  0.1558  0.3309
   57MOL0     C 7613   9.775   4.072   0.371 -0.0128 -0.2509  0.4246
   57MOL0     C 7614  10.083   4.405   0.407 -1.5150  0.6859  0.8749
   57MOL0     C 7615  10.068   4.403   0.549 -0.3959  0.0659  0.1509
   57MOL0     C 7616  10.123   4.500   0.639  0.5728 -0.5474 -0.0505
   57MOL0     C 7617  10.190   4.606   0.574  0.4152  0.0186  0.3071
   57MOL0     O 7618  10.229   4.723   0.638  0.4034  0.1409  0.6320
   57MOL0     C 7619  10.208   4.751   0.778 -0.6397  0.1139  0.3121
   57MOL0     C 7620  10.064   4.789   0.806  1.2107  0.2317 -0.3467
   57MOL0     C 7621  10.040   4.822   0.953 -0.0440 -0.0865  0.0528
   57MOL0     C 7622   9.890   4.830   0.979  1.2164  0.1643  0.4005
   57MOL0     C 7623   9.822   4.955   0.928 -0.9131  0.4873  0.0049
   57MOL0     C 7624   9.751   5.038   0.872  0.8932 -0.4385  0.5498
   57MOL0     C 7625  10.216   4.605   0.438 -0.0589  0.3754  0.3744
   57MOL0     C 7626  10.173   4.509   0.354  0.1517 -0.1682  0.0961
   57MOL0     C 7627  10.214   4.517   0.215 -0.2759  0.3949 -0.3729
   57MOL0     H 7628  10.080   4.012   0.221 -1.0147 -0.3257 -0.3437
   57MOL0     H 7629   9.931   3.850   0.094  0.8292 -0.1177  0.5136
   57MOL0     H 7630   9.567   3.724   0.288  0.9716  3.0077  0.7077
   57MOL0     H 7631   9.478   3.853   0.202 -2.5130 -1.2070 -4.4690
   57MOL0     H 7632   9.466   3.714  -0.004 -2.0111 -0.0201  0.8779
   57MOL0     H 7633   9.358   3.684   0.129 -0.6071 -0.0040  0.0619
   57MOL0     H 7634   9.614   3.539   0.061  1.0287 -0.2727  2.1071
   57MOL0     H 7635   9.447   3.491   0.012 -1.2214  0.8973  0.6902
   57MOL0     H 7636   9.588   3.467   0.284 -1.4832  0.3574  2.2998
   57MOL0     H 7637   9.418   3.469   0.281 -1.2884 -3.0220  1.3107
   57MOL0     H 7638   9.455   3.256   0.285  0.4686  2.3129  1.3093
   57MOL0     H 7639   9.411   3.280   0.116 -0.6957 -0.2290  0.3301
   57MOL0     H 7640   9.636   3.269   0.025 -2.8729  0.6493 -1.3419
   57MOL0     H 7641   9.705   3.251   0.189  0.8985 -2.7839  0.0185
   57MOL0     H 7642   9.508   3.051   0.066 -2.6324  1.5270  1.7012
   57MOL0     H 7643   9.557   3.049   0.237  1.3347 -1.6430  0.6749
   57MOL0     H 7644   9.699   2.898   0.121 -0.8979 -0.9652 -0.8134
   57MOL0     H 7645   9.727   3.002  -0.015 -0.0318 -3.7582  1.0255
   57MOL0     H 7646   9.789   2.990   0.367  1.1934  0.4081  1.7688
   57MOL0     H 7647  10.134   3.140   0.449 -0.5350  0.2686 -0.0554
   57MOL0     H 7648   9.992   3.061   0.525 -0.8015 -0.6221 -0.2410
   57MOL0     H 7649  10.150   2.910   0.574 -0.3112 -1.3170 -0.0509
   57MOL0     H 7650  10.073   2.832   0.440  0.9981 -0.9652  0.3359
   57MOL0     H 7651  10.277   2.922   0.294  1.1377 -0.0541  0.0490
   57MOL0     H 7652  10.300   2.796   0.411  2.1879 -0.3699 -5.0605
   57MOL0     H 7653  10.392   2.956   0.578  2.7776  0.3961  0.1678
   57MOL0     H 7654  10.356   3.097   0.484  3.6333  0.9939  1.6133
   57MOL0     H 7655  10.422   3.105   0.185 -0.0042  0.3014 -0.4820
   57MOL0     H 7656  10.524   3.288   0.070  0.2946  2.3694  1.2009
   57MOL0     H 7657  10.660   3.609  -0.208 -0.2954  2.3546 -1.9948
   57MOL0     H 7658  10.693   3.825  -0.251 -0.0906 -2.3142 -0.0309
   57MOL0     H 7659  10.626   4.111   0.032  1.1951 -3.2057  0.6665
   57MOL0     H 7660  10.797   4.134   0.072  1.6377  1.2287 -0.9019
   57MOL0     H 7661  10.820   4.290  -0.119 -1.4386  2.8494 -1.1158
   57MOL0     H 7662  10.659   4.241  -0.184 -1.9153  0.6384  0.8507
   57MOL0     H 7663  10.655   4.469  -0.093 -2.3471 -0.0829  0.7502
   57MOL0     H 7664  10.553   4.356   0.004  0.4913  0.0764  0.7077
   57MOL0     H 7665  10.825   4.457   0.076 -1.4447  4.0034  0.7315
   57MOL0     H 7666  10.737   4.350   0.182 -0.7051  2.8350  3.2108
   57MOL0     H 7667  10.558   4.498   0.216  0.9011 -2.2817 -0.8240
   57MOL0     H 7668  10.633   4.618   0.100 -0.1770  2.0777  1.7211
   57MOL0     H 7669  10.775   4.524   0.361  1.6779  0.8240  0.1507
   57MOL0     H 7670  10.825   4.643   0.239  0.2840  0.4859  1.8642
   57MOL0     H 7671  10.638   4.792   0.281  0.7872 -0.1260 -0.5780
   57MOL0     H 7672  10.736   4.767   0.419  1.7117 -0.0935 -1.1250
   57MOL0     H 7673  10.493   4.760   0.474 -2.0771 -1.7313  1.4552
   57MOL0     H 7674  10.483   4.601   0.400 -3.4036  2.2783  0.2717
   57MOL0     H 7675  10.719   3.937   0.150 -2.0758  1.3271  0.3097
   57MOL0     H 7676  10.694   3.685   0.221 -1.0339 -3.2299 -0.6566
   57MOL0     H 7677  10.862   3.263   0.332  0.5936 -2.0187 -0.1433
   57MOL0     H 7678  10.750   3.070   0.448  1.6288  0.3326 -0.7502
   57MOL0     H 7679   9.598   3.957   0.345  1.4044 -0.2460  1.8715
   57MOL0     H 7680   9.732   4.137   0.446 -2.7213 -0.6168 -0.6980
   57MOL0     H 7681  10.034   4.315   0.602  0.4790  0.2178  1.0009
   57MOL0     H 7682  10.106   4.494   0.746 -1.0544  1.6001 -0.1117
   57MOL0     H 7683  10.265   4.835   0.820 -0.6193 -0.6608  1.8882
   57MOL0     H 7684  10.234   4.663   0.837  2.9529 -0.1342 -1.3739
   57MOL0     H 7685   9.996   4.710   0.772  0.3351  0.7770  0.0740
   57MOL0     H 7686  10.040   4.884   0.756  1.1268  0.3909 -0.0100
   57MOL0     H 7687  10.091   4.913   0.987  1.7819 -1.6816  1.7868
   57MOL0     H 7688  10.085   4.743   1.014 -1.6747  0.6021  2.2943
   57MOL0     H 7689   9.835   4.742   0.942 -3.1549  1.5903  2.7568
   57MOL0     H 7690   9.877   4.825   1.088  1.4021 -0.0446  0.4141
   57MOL0     H 7691   9.704   5.122   0.825  0.8100  0.6352  2.4405
   57MOL0     H 7692  10.273   4.687   0.394  3.0261 -1.5962  0.3836
   57MOL0     H 7693  10.229   4.414   0.180 -0.7087 -0.2833  1.3525
   57MOL0     H 7694  10.130   4.550   0.153 -0.3270 -0.5489 -0.8208
   57MOL0     H 7695  10.303   4.577   0.196  0.6849 -0.5462  0.9929
   58MOL0     O 7696   0.904   4.034  10.219  0.1913 -0.7939 -0.5585
   58MOL0     C 7697   0.996   4.073  10.143  0.0039  0.3819  0.7471
   58MOL0     O 7698   0.971   4.129  10.020 -0.0410 -0.1794  0.1879
   58MOL0     C 7699   0.840   4.144   9.982 -0.1438  0.0025 -0.3787
   58MOL0     C 7700   0.805   4.084   9.866  0.0190 -0.4485  1.1587
   58MOL0     C 7701   0.664   4.106   9.821 -0.2319  0.3451 -0.3976
   58MOL0     C 7702   0.584   4.210   9.877 -0.6340 -0.1175  0.7826
   58MOL0     O 7703   0.456   4.244   9.844 -0.7744  0.6714 -1.1389
   58MOL0     C 7704   0.412   4.194   9.718  0.7310 -0.0821 -0.2170
   58MOL0     C 7705   0.282   4.266   9.669 -0.0155 -0.4789 -0.0716
   58MOL0     C 7706   0.324   4.413   9.638 -0.3421  0.0352 -0.5004
   58MOL0     C 7707   0.211   4.474   9.571  0.7600 -0.7165 -0.4198
   58MOL0     C 7708   0.232   4.622   9.545 -0.5290  0.4228  1.1049
   58MOL0     C 7709   0.122   4.706   9.483  0.3853  0.4934 -0.0816
   58MOL0     C 7710   0.151   4.853   9.458 -0.2266  0.4463 -0.4205
   58MOL0     C 7711   0.229   4.885   9.322 -1.0325  0.0515 -0.1981
   58MOL0     N 7712   0.354   4.963   9.356 -0.7199  0.3720 -0.3177
   58MOL0     C 7713   0.368   5.089   9.406 -0.9518  0.2352  0.4304
   58MOL0     C 7714   0.509   5.095   9.428  0.3208  0.1269  0.0658
   58MOL0     C 7715   0.589   5.220   9.470  0.5767  0.6167  1.2161
   58MOL0     C 7716   0.611   5.326   9.361 -0.1555 -0.3044 -0.4617
   58MOL0     C 7717   0.641   5.459   9.427  0.6823  0.1815 -0.0852
   58MOL0     C 7718   0.695   5.552   9.327 -0.0098 -0.4803  0.7532
   58MOL0     O 7719   0.656   5.683   9.368 -0.4568 -1.0855  0.1422
   58MOL0     C 7720   0.719   5.801   9.320  0.1615  0.7904  0.4667
   58MOL0     C 7721   0.793   5.815   9.200 -0.3149  0.3231  0.1566
   58MOL0     C 7722   0.853   5.938   9.164  0.0858  0.6503 -0.2797
   58MOL0     C 7723   0.828   6.050   9.240  0.5020 -0.0294 -0.7220
   58MOL0     C 7724   0.892   6.180   9.217  0.6127  0.0801  0.5022
   58MOL0     O 7725   0.945   6.204   9.092 -0.1610  0.0467 -0.3041
   58MOL0     C 7726   1.037   6.301   9.059 -0.6024  0.0215 -0.0659
   58MOL0     C 7727   1.057   6.319   8.926  0.0384 -0.3825 -0.5546
   58MOL0     C 7728   1.160   6.400   8.880 -0.7287  0.1374 -0.1957
   58MOL0     C 7729   1.242   6.470   8.965 -0.7984  0.7298 -0.1314
   58MOL0     O 7730   1.343   6.558   8.928 -0.0564  0.6440 -0.2868
   58MOL0     C 7731   1.371   6.566   8.782  0.4482  0.5807 -0.7150
   58MOL0     C 7732   1.457   6.453   8.730 -0.4152  0.2409  0.3021
   58MOL0     C 7733   1.596   6.469   8.792  0.6670 -0.5453  0.7050
   58MOL0     C 7734   1.679   6.590   8.734  0.0627 -0.0385  0.0631
   58MOL0     C 7735   1.824   6.547   8.700 -0.1216  0.2016 -0.4135
   58MOL0     C 7736   1.913   6.675   8.678 -0.4858 -0.0016  0.5680
   58MOL0     C 7737   2.056   6.649   8.619  0.5282  0.7409  0.3097
   58MOL0     C 7738   2.145   6.772   8.613 -1.1402 -0.2103 -0.3326
   58MOL0    Cl 7739   2.306   6.733   8.559 -0.1098  0.0646 -0.0706
   58MOL0     C 7740   1.219   6.463   9.095 -0.1731  0.4899 -1.0124
   58MOL0     C 7741   1.123   6.374   9.143 -0.5216 -0.0076 -1.2212
   58MOL0     O 7742   0.904   6.250   9.321 -0.2795  0.9301  1.1359
   58MOL0     C 7743   0.745   6.042   9.351 -0.0440  0.3468  0.4186
   58MOL0     C 7744   0.693   5.917   9.390 -0.6467  0.6079  0.4837
   58MOL0     N 7745   0.568   4.978   9.389 -0.1881 -0.4151  0.2999
   58MOL0     N 7746   0.472   4.902   9.360 -0.3771 -0.6293  0.0753
   58MOL0     C 7747   0.637   4.283   9.977 -0.2309  0.8475  0.0447
   58MOL0     C 7748   0.764   4.246  10.039 -0.1946 -0.2676 -1.0155
   58MOL0     C 7749   1.141   4.063  10.207  0.8981  0.7629  1.3909
   58MOL0     C 7750   1.157   3.984  10.324 -0.4805 -0.9805 -0.7882
   58MOL0     C 7751   1.279   3.974  10.393  0.0063  0.1254  0.4150
   58MOL0     C 7752   1.398   4.020  10.337 -0.5981  0.6600  0.1061
   58MOL0     O 7753   1.516   3.996  10.408 -0.4032 -0.9996  0.0489
   58MOL0     C 7754   1.636   4.078  10.383 -0.1759 -0.0021  0.5733
   58MOL0     C 7755   1.755   4.055  10.492  0.2178  0.3918  1.1847
   58MOL0     C 7756   1.818   3.920  10.461  0.2701 -0.4891 -0.0784
   58MOL0     C 7757   1.953   3.901  10.535  1.3956  0.2367 -0.0568
   58MOL0     C 7758   2.053   3.929  10.431  1.3158  0.0831 -0.2931
   58MOL0     C 7759   2.133   3.978  10.350  0.4517  0.1264  0.1998
   58MOL0     C 7760   1.384   4.081  10.211 -0.0186 -0.2488 -0.6176
   58MOL0     C 7761   1.263   4.101  10.142  0.2307  0.7477  0.0446
   58MOL0     C 7762   1.263   4.165  10.001 -0.5178  0.6445 -0.7074
   58MOL0     H 7763   0.873   4.021   9.810 -2.3070 -2.7952  0.8095
   58MOL0     H 7764   0.617   4.048   9.742  0.0240 -1.4041  0.6626
   58MOL0     H 7765   0.490   4.209   9.642  0.9529 -1.0242 -0.1873
   58MOL0     H 7766   0.392   4.087   9.716 -2.5101  0.4018  0.7482
   58MOL0     H 7767   0.201   4.262   9.743 -1.6926 -1.1250 -1.8430
   58MOL0     H 7768   0.247   4.208   9.583  0.0267  1.8576 -1.7590
   58MOL0     H 7769   0.414   4.408   9.574  0.1002 -1.6192  0.1920
   58MOL0     H 7770   0.362   4.465   9.726 -0.9613 -0.1585 -0.1148
   58MOL0     H 7771   0.191   4.423   9.477 -1.9482  1.2373 -1.0106
   58MOL0     H 7772   0.123   4.465   9.635  0.5805 -1.0281 -0.7115
   58MOL0     H 7773   0.279   4.672   9.630 -0.9858  3.1147 -0.1154
   58MOL0     H 7774   0.316   4.620   9.475 -0.8740 -1.2773  0.6878
   58MOL0     H 7775   0.084   4.673   9.386 -0.0776 -0.3747  0.3814
   58MOL0     H 7776   0.039   4.700   9.554  0.7219 -1.5474  0.1944
   58MOL0     H 7777   0.203   4.900   9.541 -0.9711 -0.1576  0.4061
   58MOL0     H 7778   0.054   4.903   9.461  0.5307  1.9529  2.5591
   58MOL0     H 7779   0.253   4.791   9.273 -1.8388 -0.5892  0.6158
   58MOL0     H 7780   0.178   4.949   9.250 -1.5684 -0.8738 -0.6443
   58MOL0     H 7781   0.289   5.162   9.419 -0.3057  0.9426  0.4340
   58MOL0     H 7782   0.540   5.266   9.556  0.8778  0.1105  1.6659
   58MOL0     H 7783   0.692   5.191   9.492  0.8548  1.4298  1.0152
   58MOL0     H 7784   0.697   5.305   9.296  0.2165 -1.3229  0.3433
   58MOL0     H 7785   0.516   5.338   9.307 -0.0517  4.1148 -0.0028
   58MOL0     H 7786   0.694   5.451   9.523 -0.5095 -1.6861  0.4577
   58MOL0     H 7787   0.541   5.487   9.461 -0.7932 -2.0229 -2.2535
   58MOL0     H 7788   0.671   5.530   9.222 -1.1734  2.9291  0.2013
   58MOL0     H 7789   0.804   5.538   9.327 -0.2250 -2.5776  1.1262
   58MOL0     H 7790   0.805   5.726   9.138 -1.7821  0.5018 -0.4387
   58MOL0     H 7791   0.921   5.941   9.080 -0.6021  0.5069 -0.8546
   58MOL0     H 7792   1.006   6.246   8.864  2.7672 -1.7131 -1.3908
   58MOL0     H 7793   1.172   6.387   8.773  4.0422  0.2228  0.1484
   58MOL0     H 7794   1.283   6.563   8.717 -1.4453 -1.8375  1.7029
   58MOL0     H 7795   1.428   6.656   8.759  2.3742 -0.3059  0.3685
   58MOL0     H 7796   1.417   6.365   8.781  1.4231 -0.8302 -0.0141
   58MOL0     H 7797   1.454   6.449   8.620 -1.5281  0.5396  0.3073
   58MOL0     H 7798   1.600   6.475   8.901  2.6071  1.9332  0.5824
   58MOL0     H 7799   1.654   6.378   8.775  0.4687 -0.7566  1.1487
   58MOL0     H 7800   1.684   6.674   8.804 -1.2806  1.3238 -1.3689
   58MOL0     H 7801   1.635   6.621   8.638 -0.0529 -0.9550 -0.1830
   58MOL0     H 7802   1.825   6.476   8.617 -0.2959 -0.5573  0.2229
   58MOL0     H 7803   1.860   6.492   8.788 -0.0681 -2.0989 -1.7956
   58MOL0     H 7804   1.853   6.742   8.616 -1.5330 -3.2226 -2.2653
   58MOL0     H 7805   1.936   6.717   8.776  3.4057  2.0082 -1.0172
   58MOL0     H 7806   2.047   6.612   8.516  1.5645 -0.0374  0.4740
   58MOL0     H 7807   2.091   6.573   8.690 -3.0748  0.4945  2.0578
   58MOL0     H 7808   2.105   6.853   8.552 -0.7184  0.2872  0.0361
   58MOL0     H 7809   2.146   6.807   8.717 -0.7037 -1.4736  0.1127
   58MOL0     H 7810   1.295   6.506   9.160 -0.1412 -1.3843  0.2873
   58MOL0     H 7811   1.115   6.361   9.251  0.1836  1.2734 -1.0016
   58MOL0     H 7812   0.740   6.119   9.428  2.9846 -1.1580  2.2533
   58MOL0     H 7813   0.638   5.927   9.483  0.9809  2.5834  1.2951
   58MOL0     H 7814   0.584   4.360  10.031  1.7870  1.0097  1.9766
   58MOL0     H 7815   0.802   4.295  10.128 -2.9462 -1.6869  1.0975
   58MOL0     H 7816   1.077   3.927  10.370 -0.3800 -0.3798  0.1560
   58MOL0     H 7817   1.292   3.925  10.489  0.1209  0.7306  0.7147
   58MOL0     H 7818   1.616   4.185  10.391  0.9941  0.2004  1.0491
   58MOL0     H 7819   1.669   4.050  10.283 -3.7585 -0.4151 -0.6458
   58MOL0     H 7820   1.717   4.070  10.593  0.0911  2.9489  0.8168
   58MOL0     H 7821   1.835   4.127  10.472  0.2641  0.1663  0.5323
   58MOL0     H 7822   1.824   3.921  10.352  0.3788  2.0654 -0.1087
   58MOL0     H 7823   1.743   3.848  10.495  1.7409 -1.6564  0.8418
   58MOL0     H 7824   1.956   3.959  10.628 -1.2813 -0.1594  0.3573
   58MOL0     H 7825   1.958   3.797  10.567 -2.4121 -0.0026  0.2396
   58MOL0     H 7826   2.214   3.998  10.282  2.9313  0.1027  2.9679
   58MOL0     H 7827   1.467   4.121  10.155 -0.5823  1.1461 -0.5193
   58MOL0     H 7828   1.228   4.089   9.931 -0.6978  1.4056 -1.4636
   58MOL0     H 7829   1.195   4.251   9.998 -1.9634 -0.4986 -1.3799
   58MOL0     H 7830   1.364   4.198   9.973  0.8140 -1.1211  1.6503
   59MOL0     O 7831  10.113   8.994   7.512  0.1138  0.0957  0.2855
   59MOL0     C 7832  10.052   8.906   7.452 -0.1534  0.1063 -0.3170
   59MOL0     O 7833  10.103   8.842   7.338  0.1781  0.6250  0.1395
   59MOL0     C 7834  10.216   8.869   7.263 -0.1138  0.0890  0.5972
   59MOL0     C 7835  10.255   9.001   7.224  0.0466  0.1837 -0.1108
   59MOL0     C 7836  10.366   9.032   7.134 -0.0356 -0.5168 -0.2083
   59MOL0     C 7837  10.441   8.927   7.086 -0.3765  0.6750  0.0381
   59MOL0     O 7838  10.549   8.962   6.992 -0.2184  0.4130  0.0817
   59MOL0     C 7839  10.606   8.846   6.918  0.0104  0.0481  0.0800
   59MOL0     C 7840  10.630   8.881   6.771  0.2212 -0.2882  0.2533
   59MOL0     C 7841  10.728   8.776   6.715 -0.4192 -0.0507 -0.8172
   59MOL0     C 7842  10.823   8.832   6.615 -0.0384  0.4580  0.8807
   59MOL0     C 7843  10.907   8.725   6.536  0.0088 -0.2475 -0.6139
   59MOL0     C 7844  10.970   8.622   6.625 -0.0114  0.0272 -0.3530
   59MOL0     C 7845  11.038   8.518   6.519  0.0346  0.1267 -0.7461
   59MOL0     C 7846  11.069   8.396   6.604  0.4991  0.7006  0.8146
   59MOL0     N 7847  11.167   8.300   6.545  0.2008  0.4293  0.3848
   59MOL0     C 7848  11.151   8.234   6.429  0.3672  0.3302  0.0687
   59MOL0     C 7849  11.275   8.182   6.413  0.5308 -0.0827 -0.2810
   59MOL0     C 7850  11.315   8.098   6.292  0.0730 -0.2221 -0.1409
   59MOL0     C 7851  11.287   7.945   6.308  0.3156  0.4671  0.8287
   59MOL0     C 7852  11.356   7.869   6.197 -0.2391  0.2443 -0.2620
   59MOL0     C 7853  11.510   7.831   6.232 -0.4558 -0.2863  0.1604
   59MOL0     O 7854  11.585   7.958   6.251 -0.5371  0.1075  0.0681
   59MOL0     C 7855  11.704   7.956   6.312 -0.3019  0.3515  0.2993
   59MOL0     C 7856  11.797   7.857   6.280  1.1358  0.1375 -1.1441
   59MOL0     C 7857  11.917   7.858   6.352  0.5737 -0.7347 -0.1203
   59MOL0     C 7858  11.946   7.955   6.457  0.0435  0.7265  0.0335
   59MOL0     C 7859  12.079   7.965   6.521 -0.0552  0.3760  0.6193
   59MOL0     O 7860  12.153   7.863   6.567  0.2499  0.0305 -0.4690
   59MOL0     C 7861  12.274   7.894   6.631 -0.1192 -1.5456 -0.4482
   59MOL0     C 7862  12.398   7.879   6.573  0.9374  0.6437  0.0652
   59MOL0     C 7863  12.521   7.900   6.643  0.1829  0.6514  1.2304
   59MOL0     C 7864  12.525   7.941   6.771  0.8348 -0.8709 -0.0576
   59MOL0     O 7865  12.638   7.950   6.835  0.2621  0.0399 -0.8522
   59MOL0     C 7866  12.634   7.867   6.954  0.1585 -0.3730 -0.6771
   59MOL0     C 7867  12.772   7.801   6.987 -0.5555 -0.4220  0.3847
   59MOL0     C 7868  12.821   7.729   6.863  0.4347  0.1380 -1.0874
   59MOL0     C 7869  12.945   7.652   6.879 -0.0055 -0.8386 -0.8016
   59MOL0     C 7870  13.029   7.625   6.744  0.2819  0.1794 -0.0939
   59MOL0     C 7871  13.166   7.568   6.770  0.1407 -0.7632 -0.9734
   59MOL0     C 7872  13.258   7.657   6.861 -0.1994 -0.2359  1.3753
   59MOL0     C 7873  13.380   7.577   6.901 -0.0394  0.3860  0.5207
   59MOL0    Cl 7874  13.493   7.698   6.973 -0.1287  0.3234 -0.2610
   59MOL0     C 7875  12.399   7.978   6.822 -0.4064 -0.4337 -0.3821
   59MOL0     C 7876  12.280   7.964   6.758 -0.3387 -0.2884 -0.1911
   59MOL0     O 7877  12.113   8.080   6.517 -0.0706 -0.0128 -0.5873
   59MOL0     C 7878  11.844   8.049   6.489 -0.7184 -1.2874  0.5150
   59MOL0     C 7879  11.724   8.056   6.413 -0.1789 -0.2126 -0.1711
   59MOL0     N 7880  11.363   8.216   6.508 -0.0606  0.7645  0.4025
   59MOL0     N 7881  11.304   8.298   6.580 -0.2649  0.6576 -0.3296
   59MOL0     C 7882  10.413   8.796   7.134 -0.0586  0.3622 -0.6475
   59MOL0     C 7883  10.299   8.772   7.216 -0.7734  0.3350 -0.5078
   59MOL0     C 7884   9.936   8.836   7.514  0.6288 -0.4679  1.1217
   59MOL0     C 7885   9.914   8.706   7.469 -0.1574 -0.6989 -0.8982
   59MOL0     C 7886   9.831   8.622   7.549 -0.2615  0.1550 -0.3021
   59MOL0     C 7887   9.764   8.668   7.663 -0.3141 -0.4366 -0.0175
   59MOL0     O 7888   9.691   8.575   7.734  0.1552  0.0692  0.4342
   59MOL0     C 7889   9.649   8.608   7.872  0.6858  0.2204 -0.3279
   59MOL0     C 7890   9.557   8.513   7.937 -1.2297  0.6226  0.2190
   59MOL0     C 7891   9.606   8.369   7.930 -0.3789 -0.2764 -0.3613
   59MOL0     C 7892   9.550   8.273   8.033  0.4684  0.6065  0.1119
   59MOL0     C 7893   9.644   8.159   8.041  0.2123 -0.0431 -0.4369
   59MOL0     C 7894   9.707   8.052   8.055  0.0094  1.0555 -0.6290
   59MOL0     C 7895   9.782   8.798   7.706 -0.3678 -1.2488 -0.3785
   59MOL0     C 7896   9.863   8.876   7.626 -0.1302 -0.6388  0.1563
   59MOL0     C 7897   9.860   9.027   7.664 -0.3189  0.3418  0.7415
   59MOL0     H 7898  10.191   9.084   7.253 -0.0319  0.7056 -1.7168
   59MOL0     H 7899  10.409   9.124   7.095  0.6125  0.3042  2.2796
   59MOL0     H 7900  10.697   8.814   6.969 -0.5192 -2.2224 -0.3161
   59MOL0     H 7901  10.536   8.762   6.923 -0.4025  0.1724 -2.2525
   59MOL0     H 7902  10.674   8.981   6.774 -2.6313  1.1844 -1.9083
   59MOL0     H 7903  10.532   8.892   6.725  0.2479  0.5818  0.4027
   59MOL0     H 7904  10.678   8.685   6.680  1.0773 -0.6815 -1.3918
   59MOL0     H 7905  10.783   8.738   6.801 -2.4350 -1.2754  0.0030
   59MOL0     H 7906  10.774   8.889   6.535  1.9692  2.2924  0.8408
   59MOL0     H 7907  10.894   8.902   6.662 -0.3836  1.8874 -0.6330
   59MOL0     H 7908  10.841   8.689   6.457  0.3746  0.0360 -1.0497
   59MOL0     H 7909  10.987   8.779   6.485 -0.9005  0.5840 -1.1935
   59MOL0     H 7910  11.047   8.679   6.676 -1.0051  0.7954  0.3329
   59MOL0     H 7911  10.902   8.573   6.696  0.1660 -1.8516 -1.4272
   59MOL0     H 7912  11.128   8.562   6.476  0.2536  1.3322  0.8533
   59MOL0     H 7913  10.969   8.494   6.438 -2.3993 -3.0450  1.9482
   59MOL0     H 7914  11.125   8.431   6.691  4.9948  0.5057 -1.6474
   59MOL0     H 7915  10.976   8.347   6.633 -0.3048  0.3407 -2.0044
   59MOL0     H 7916  11.064   8.230   6.366  0.8983  1.7930 -0.8087
   59MOL0     H 7917  11.263   8.137   6.204  0.7092  0.8436 -0.0646
   59MOL0     H 7918  11.422   8.122   6.282  0.0651  1.0244  2.0905
   59MOL0     H 7919  11.316   7.900   6.403  2.8790 -0.7029 -0.4034
   59MOL0     H 7920  11.180   7.921   6.300  0.4718  0.1185 -0.5467
   59MOL0     H 7921  11.336   7.911   6.098 -1.1198 -1.6363 -0.9336
   59MOL0     H 7922  11.310   7.770   6.194  4.2453 -2.1419  1.3384
   59MOL0     H 7923  11.552   7.776   6.147 -0.1046  3.4219 -2.2910
   59MOL0     H 7924  11.527   7.778   6.326  2.0631 -0.3867 -0.2889
   59MOL0     H 7925  11.762   7.777   6.215 -2.8963  0.2129  0.6262
   59MOL0     H 7926  11.998   7.790   6.327  0.2137 -0.8811 -0.9146
   59MOL0     H 7927  12.404   7.841   6.472  1.2133 -0.5452  0.5112
   59MOL0     H 7928  12.613   7.872   6.593 -0.7444  2.4668 -1.7531
   59MOL0     H 7929  12.617   7.942   7.032 -3.3597 -0.0119 -1.6120
   59MOL0     H 7930  12.557   7.789   6.950  0.0086 -0.2327 -0.5540
   59MOL0     H 7931  12.843   7.883   7.000 -3.3971  2.9454 -2.9356
   59MOL0     H 7932  12.772   7.740   7.077  1.0070  0.0960  0.7619
   59MOL0     H 7933  12.751   7.648   6.841  0.6033 -0.9567  2.0060
   59MOL0     H 7934  12.829   7.804   6.783 -2.7435  1.6797 -0.1268
   59MOL0     H 7935  12.913   7.554   6.917 -1.3131 -0.3999 -0.7062
   59MOL0     H 7936  13.000   7.692   6.965 -3.2411 -1.5973  1.8342
   59MOL0     H 7937  13.035   7.714   6.681 -1.2106 -0.2299 -0.8704
   59MOL0     H 7938  12.972   7.548   6.691 -1.6476 -0.5165  2.7678
   59MOL0     H 7939  13.157   7.467   6.811 -0.6672 -1.0369 -1.8050
   59MOL0     H 7940  13.224   7.548   6.680 -1.5045  0.5710 -2.3852
   59MOL0     H 7941  13.207   7.686   6.953 -3.9310  2.1557 -1.1264
   59MOL0     H 7942  13.280   7.755   6.816 -3.6014  1.1577  2.3938
   59MOL0     H 7943  13.352   7.498   6.972 -0.2835 -1.7406 -1.8030
   59MOL0     H 7944  13.431   7.528   6.817 -0.9205 -0.9093  0.7010
   59MOL0     H 7945  12.404   8.028   6.918  1.3801 -1.5565  0.1662
   59MOL0     H 7946  12.194   8.007   6.807  0.0274  0.1470  0.0756
   59MOL0     H 7947  11.869   8.121   6.566 -0.6462  0.5785 -1.1517
   59MOL0     H 7948  11.641   8.119   6.445  0.7877 -0.4335  3.1974
   59MOL0     H 7949  10.476   8.709   7.115 -0.5840 -0.0136 -0.6932
   59MOL0     H 7950  10.287   8.670   7.251  0.8380  0.2014 -0.2546
   59MOL0     H 7951   9.966   8.651   7.391 -0.7702 -2.2184 -0.2951
   59MOL0     H 7952   9.815   8.524   7.506  2.0133  0.2961 -1.6636
   59MOL0     H 7953   9.590   8.700   7.870 -1.0486 -0.8549 -0.6207
   59MOL0     H 7954   9.736   8.627   7.936 -1.7575  3.4132  2.4217
   59MOL0     H 7955   9.459   8.510   7.888 -0.6196 -1.5546 -1.0059
   59MOL0     H 7956   9.527   8.539   8.039  0.1827 -0.7683  1.0334
   59MOL0     H 7957   9.715   8.377   7.940 -0.3145 -0.9931 -0.4322
   59MOL0     H 7958   9.566   8.334   7.834 -2.4574  2.4797 -0.6279
   59MOL0     H 7959   9.545   8.323   8.130  0.6037  1.6101 -0.3843
   59MOL0     H 7960   9.450   8.233   8.015  1.1534 -1.2227  0.1398
   59MOL0     H 7961   9.761   7.960   8.068 -1.1593  0.6743  2.1686
   59MOL0     H 7962   9.734   8.851   7.788  0.4728  3.8738 -2.8416
   59MOL0     H 7963   9.796   9.061   7.747  1.3939  1.0498  1.8449
   59MOL0     H 7964   9.961   9.060   7.693 -0.8996  1.0243  2.0663
   59MOL0     H 7965   9.828   9.088   7.579 -2.0891 -1.9818 -0.3642
   60MOL0     O 7966   1.296   5.211   9.323 -0.6219 -0.2172  0.0758
   60MOL0     C 7967   1.181   5.214   9.283  0.2345 -0.1885  0.0762
   60MOL0     O 7968   1.106   5.329   9.255  0.4365  0.3780 -0.0379
   60MOL0     C 7969   1.162   5.448   9.206  0.5199  0.0449 -0.6076
   60MOL0     C 7970   1.284   5.448   9.142 -0.1508  0.3455  0.0264
   60MOL0     C 7971   1.321   5.577   9.079 -0.1591  0.0608  0.5183
   60MOL0     C 7972   1.255   5.692   9.104 -0.3206 -0.4981 -0.4961
   60MOL0     O 7973   1.310   5.809   9.065 -0.0414 -0.5248  0.7713
   60MOL0     C 7974   1.218   5.905   9.002  0.0261  0.2103 -0.5513
   60MOL0     C 7975   1.283   6.025   8.936  0.6753 -0.2121 -0.2327
   60MOL0     C 7976   1.365   6.116   9.036 -0.2445 -1.2932  0.5029
   60MOL0     C 7977   1.512   6.148   8.989  0.2754  0.0114 -0.6553
   60MOL0     C 7978   1.615   6.035   9.009  0.6907 -0.3916 -0.0032
   60MOL0     C 7979   1.631   6.010   9.164  0.8424 -0.6019 -0.2051
   60MOL0     C 7980   1.743   5.908   9.195 -0.0511  0.2815 -0.2637
   60MOL0     C 7981   1.886   5.958   9.180 -0.3061  0.5228  0.3562
   60MOL0     N 7982   1.980   5.860   9.219  0.4897 -0.3574 -0.7535
   60MOL0     C 7983   1.996   5.742   9.162 -0.5009  0.5151  0.1361
   60MOL0     C 7984   2.056   5.671   9.262  0.3729  0.3157  0.0875
   60MOL0     C 7985   2.090   5.529   9.259 -0.4886  0.6295 -0.5197
   60MOL0     C 7986   2.192   5.501   9.149  0.7689  0.8054 -0.0799
   60MOL0     C 7987   2.205   5.340   9.144 -0.3135  0.2390 -0.1767
   60MOL0     C 7988   2.327   5.277   9.064 -0.5438  0.1882 -0.6454
   60MOL0     O 7989   2.448   5.273   9.148  0.2463  0.0825  0.8128
   60MOL0     C 7990   2.568   5.213   9.096 -0.0070  1.0656 -0.1164
   60MOL0     C 7991   2.691   5.260   9.142  0.6489 -0.6089 -0.8178
   60MOL0     C 7992   2.816   5.207   9.104 -0.6677  0.3145  0.2811
   60MOL0     C 7993   2.831   5.114   8.995 -0.0346 -0.2042  0.2239
   60MOL0     C 7994   2.955   5.056   8.959  0.3203 -0.2957  0.1796
   60MOL0     O 7995   2.951   4.956   8.869  0.3532 -0.6876 -0.0346
   60MOL0     C 7996   3.064   4.892   8.819 -0.5571 -0.0909 -0.0640
   60MOL0     C 7997   3.195   4.932   8.812 -0.6138 -0.6822 -0.1738
   60MOL0     C 7998   3.306   4.849   8.756  0.7610  0.5600 -0.8079
   60MOL0     C 7999   3.272   4.715   8.715  0.5242 -0.0572 -0.9336
   60MOL0     O 8000   3.362   4.628   8.674  0.1577  0.3664 -0.8857
   60MOL0     C 8001   3.499   4.660   8.658 -0.1042  0.3887  0.1297
   60MOL0     C 8002   3.561   4.537   8.589 -0.3904 -0.2010 -0.4751
   60MOL0     C 8003   3.703   4.576   8.545 -1.1720  0.2950  0.0595
   60MOL0     C 8004   3.753   4.473   8.445  0.3805  0.3428  0.4861
   60MOL0     C 8005   3.897   4.501   8.406  0.8086 -0.8217 -0.6706
   60MOL0     C 8006   3.998   4.440   8.500 -0.3014  0.7938  0.0474
   60MOL0     C 8007   4.140   4.466   8.459 -0.8310  0.0209 -0.3469
   60MOL0     C 8008   4.236   4.374   8.536  0.4956  0.1755 -1.0249
   60MOL0    Cl 8009   4.403   4.407   8.480  0.4762  0.5387  0.1624
   60MOL0     C 8010   3.136   4.678   8.721 -0.2794  0.2248 -0.4837
   60MOL0     C 8011   3.041   4.766   8.776 -0.8862  0.7385  0.0126
   60MOL0     O 8012   3.052   5.108   9.007  0.2740  0.3166 -0.7263
   60MOL0     C 8013   2.707   5.074   8.952 -0.1007  0.3860 -0.2049
   60MOL0     C 8014   2.581   5.118   8.996  0.3378 -0.2125 -0.1981
   60MOL0     N 8015   2.086   5.749   9.369 -0.1526  0.5242  0.9117
   60MOL0     N 8016   2.043   5.866   9.337  0.7822  0.0037 -0.0821
   60MOL0     C 8017   1.133   5.689   9.176 -0.1646  0.1193  1.0045
   60MOL0     C 8018   1.082   5.563   9.218 -0.7722  0.1507  0.4144
   60MOL0     C 8019   1.103   5.086   9.286  0.1876  0.1867  0.6000
   60MOL0     C 8020   0.965   5.084   9.277 -0.9748  0.7400 -0.5313
   60MOL0     C 8021   0.892   4.961   9.264  0.3885  0.1082 -0.2681
   60MOL0     C 8022   0.954   4.837   9.288 -0.6883  0.2187 -0.6445
   60MOL0     O 8023   0.889   4.713   9.290 -0.1517  0.0126  0.1436
   60MOL0     C 8024   0.774   4.686   9.377 -0.2787 -1.4789 -0.4214
   60MOL0     C 8025   0.823   4.665   9.515 -0.0644  0.5081  0.2473
   60MOL0     C 8026   0.703   4.654   9.613  0.2112 -0.0249  0.2060
   60MOL0     C 8027   0.737   4.665   9.763 -0.8202 -0.1169  0.2437
   60MOL0     C 8028   0.829   4.560   9.798 -0.2441  0.3038 -0.0196
   60MOL0     C 8029   0.903   4.461   9.826  0.5674 -0.2053 -0.3853
   60MOL0     C 8030   1.090   4.837   9.312 -0.1030 -0.5570 -0.6301
   60MOL0     C 8031   1.166   4.958   9.304 -0.4890  0.2129  0.9340
   60MOL0     C 8032   1.314   4.928   9.310 -0.3649 -0.9256 -0.2122
   60MOL0     H 8033   1.345   5.360   9.128  0.5347  0.5362  1.6141
   60MOL0     H 8034   1.406   5.599   9.015 -0.2937  0.8323  0.5858
   60MOL0     H 8035   1.164   5.852   8.922  2.7220  0.7534 -2.9192
   60MOL0     H 8036   1.147   5.931   9.081  2.5697  0.2810  1.8615
   60MOL0     H 8037   1.215   6.100   8.893  2.4417  2.7674  1.7808
   60MOL0     H 8038   1.350   5.990   8.857  2.6020  1.7483  0.4068
   60MOL0     H 8039   1.358   6.071   9.136 -1.0419  0.5977  1.3520
   60MOL0     H 8040   1.316   6.213   9.049  1.2646 -0.6159  1.5628
   60MOL0     H 8041   1.507   6.168   8.882 -1.0313 -1.9146 -0.9899
   60MOL0     H 8042   1.564   6.235   9.031 -0.6523  0.0754  0.4183
   60MOL0     H 8043   1.586   5.943   8.958  0.8925 -0.0669 -0.7167
   60MOL0     H 8044   1.711   6.054   8.960 -0.1265  0.4733 -1.3357
   60MOL0     H 8045   1.659   6.099   9.221  1.8729 -2.4130  2.2657
   60MOL0     H 8046   1.539   5.959   9.195  1.9977 -2.4385  0.3643
   60MOL0     H 8047   1.720   5.812   9.146 -0.1225 -0.9007  1.9746
   60MOL0     H 8048   1.742   5.883   9.301  0.4072 -1.5716 -0.6541
   60MOL0     H 8049   1.906   6.001   9.081 -1.3569 -2.6915 -1.4113
   60MOL0     H 8050   1.896   6.046   9.244  1.8230  0.9000 -0.4237
   60MOL0     H 8051   1.970   5.715   9.061 -0.4873 -2.1105  0.7679
   60MOL0     H 8052   2.117   5.493   9.359 -2.2802  1.1571  0.2027
   60MOL0     H 8053   2.002   5.468   9.237 -0.9652  1.2193 -0.2605
   60MOL0     H 8054   2.150   5.545   9.057  3.3924 -0.4623 -1.9941
   60MOL0     H 8055   2.283   5.554   9.179  1.1100 -0.5365  1.3575
   60MOL0     H 8056   2.112   5.320   9.092 -1.1150 -2.6942  2.1159
   60MOL0     H 8057   2.195   5.293   9.242  1.4482  1.2455  0.5584
   60MOL0     H 8058   2.351   5.327   8.970 -1.8502  1.5859 -0.2771
   60MOL0     H 8059   2.300   5.173   9.043  1.0242 -0.2511 -0.5894
   60MOL0     H 8060   2.701   5.326   9.227  1.2533 -1.6285 -0.0798
   60MOL0     H 8061   2.900   5.241   9.162  2.4869 -4.1333 -1.0687
   60MOL0     H 8062   3.218   5.033   8.844 -0.5318 -0.0455 -2.1002
   60MOL0     H 8063   3.407   4.889   8.757  1.1562 -0.3295  1.1901
   60MOL0     H 8064   3.499   4.747   8.592  0.5745  1.4298  1.4399
   60MOL0     H 8065   3.558   4.686   8.747 -1.2675 -1.9298  1.6534
   60MOL0     H 8066   3.570   4.455   8.661  1.0009  0.0695 -0.3100
   60MOL0     H 8067   3.498   4.502   8.506 -0.5307  1.1156 -0.9432
   60MOL0     H 8068   3.721   4.676   8.505  1.0654  0.5013  1.4147
   60MOL0     H 8069   3.759   4.566   8.638 -1.8064  0.0844  0.4277
   60MOL0     H 8070   3.681   4.473   8.363  0.1548  0.3683  0.6827
   60MOL0     H 8071   3.752   4.371   8.484 -2.2151 -0.8520 -2.3527
   60MOL0     H 8072   3.920   4.608   8.403 -2.2322 -0.0725 -0.9128
   60MOL0     H 8073   3.915   4.467   8.303  2.1021  2.4715 -1.6633
   60MOL0     H 8074   3.972   4.478   8.599  0.3801 -1.8151  1.3168
   60MOL0     H 8075   3.975   4.333   8.506  0.6907  0.6423  2.1513
   60MOL0     H 8076   4.172   4.568   8.479 -3.4265  0.5704  1.4485
   60MOL0     H 8077   4.144   4.447   8.351  2.6422  3.3382 -1.0143
   60MOL0     H 8078   4.231   4.405   8.641 -1.5803  1.5248 -1.4739
   60MOL0     H 8079   4.208   4.270   8.521 -0.1395  0.4308 -1.6713
   60MOL0     H 8080   3.105   4.583   8.679 -1.5850 -0.5689  2.0685
   60MOL0     H 8081   2.938   4.732   8.769 -0.8147  0.8809 -2.7288
   60MOL0     H 8082   2.709   4.986   8.889 -1.2189 -1.1344  1.7289
   60MOL0     H 8083   2.494   5.069   8.954  0.5135 -1.1950  0.5542
   60MOL0     H 8084   1.078   5.778   9.205  0.3530  0.3910  1.1614
   60MOL0     H 8085   0.990   5.555   9.275  0.2957 -3.0198  1.9541
   60MOL0     H 8086   0.904   5.171   9.252 -2.1356 -0.7797 -3.5754
   60MOL0     H 8087   0.784   4.959   9.251 -0.1809 -1.0941  3.4213
   60MOL0     H 8088   0.719   4.606   9.326  0.6375 -0.9108 -2.4090
   60MOL0     H 8089   0.696   4.763   9.380 -1.7227 -2.8946  0.1481
   60MOL0     H 8090   0.888   4.749   9.544 -2.0001  1.5958  1.6718
   60MOL0     H 8091   0.881   4.573   9.523  0.0987  0.7577  2.5672
   60MOL0     H 8092   0.646   4.562   9.602  0.0873 -1.2048  6.7981
   60MOL0     H 8093   0.637   4.739   9.594  0.8842 -0.0219 -2.4011
   60MOL0     H 8094   0.798   4.754   9.780  1.2157 -1.3944 -0.0236
   60MOL0     H 8095   0.649   4.659   9.828 -0.9049 -1.3027  0.0396
   60MOL0     H 8096   0.963   4.388   9.876  2.3628  0.9750 -0.6972
   60MOL0     H 8097   1.137   4.742   9.334  0.8048 -0.1339 -0.7254
   60MOL0     H 8098   1.369   4.977   9.229  0.9036 -1.6985  0.1504
   60MOL0     H 8099   1.340   4.961   9.411  0.2069  2.0026 -1.2194
   60MOL0     H 8100   1.346   4.823   9.305 -0.6384 -1.1052  1.4404
   61MOL0     O 8101   0.427   7.387   2.465  0.0336  0.2070  0.1591
   61MOL0     C 8102   0.411   7.269   2.502 -0.3712  0.1501  0.2870
   61MOL0     O 8103   0.516   7.181   2.530  0.4765  0.1959 -0.3327
   61MOL0     C 8104   0.642   7.237   2.540 -1.2221  0.7188 -0.4051
   61MOL0     C 8105   0.676   7.350   2.621 -0.3151 -0.4170 -0.4973
   61MOL0     C 8106   0.806   7.396   2.637 -0.2807 -0.3918  0.0790
   61MOL0     C 8107   0.913   7.330   2.568 -0.6087  0.3411 -0.1973
   61MOL0     O 8108   1.036   7.381   2.595  0.2021 -0.3454 -0.7546
   61MOL0     C 8109   1.142   7.325   2.522 -0.0548 -0.5011 -0.2689
   61MOL0     C 8110   1.272   7.407   2.530 -0.9302 -0.1717 -0.1372
   61MOL0     C 8111   1.340   7.379   2.666  0.6627  0.0791 -0.2530
   61MOL0     C 8112   1.478   7.457   2.673  0.0010  0.1273 -0.7225
   61MOL0     C 8113   1.518   7.483   2.815  0.0270 -0.2266 -0.1515
   61MOL0     C 8114   1.514   7.364   2.913  0.4671  0.0365 -0.0167
   61MOL0     C 8115   1.618   7.249   2.879 -0.0522  0.2248  0.4106
   61MOL0     C 8116   1.759   7.298   2.926  0.4726  0.1448 -0.2176
   61MOL0     N 8117   1.872   7.212   2.904  0.8908  0.7972  0.1601
   61MOL0     C 8118   1.960   7.229   2.800  0.0860 -0.1127 -0.1226
   61MOL0     C 8119   2.071   7.152   2.824 -0.3739 -0.0270  0.5992
   61MOL0     C 8120   2.190   7.130   2.731  0.9304  0.4111  0.3847
   61MOL0     C 8121   2.305   7.177   2.796 -0.3482  0.5343 -0.0914
   61MOL0     C 8122   2.432   7.150   2.707  0.2505  0.4322  0.7476
   61MOL0     C 8123   2.554   7.226   2.750 -0.9276 -0.3770 -0.3808
   61MOL0     O 8124   2.673   7.190   2.669 -0.3040 -0.8300 -0.5004
   61MOL0     C 8125   2.795   7.252   2.684  0.2122  0.3212  0.7635
   61MOL0     C 8126   2.824   7.343   2.793 -0.5683  0.0114  0.2499
   61MOL0     C 8127   2.960   7.376   2.813 -0.2647 -0.4847  0.0274
   61MOL0     C 8128   3.059   7.328   2.727  0.1539  0.9039  0.3056
   61MOL0     C 8129   3.192   7.388   2.740 -0.2813  0.4662  0.1106
   61MOL0     O 8130   3.279   7.333   2.653  0.1976  0.0557 -0.2906
   61MOL0     C 8131   3.401   7.395   2.642 -0.3453  0.2262  1.0131
   61MOL0     C 8132   3.497   7.410   2.743  0.1451  0.0327  0.5756
   61MOL0     C 8133   3.626   7.443   2.708 -0.7079  0.4256  0.6282
   61MOL0     C 8134   3.659   7.472   2.580  0.1841  0.0294 -0.0911
   61MOL0     O 8135   3.789   7.506   2.548  0.0660  0.4949  0.3022
   61MOL0     C 8136   3.854   7.426   2.453  0.4485  0.0366  0.1513
   61MOL0     C 8137   4.002   7.474   2.447 -0.1530  0.0746  1.0457
   61MOL0     C 8138   4.078   7.448   2.572 -0.3253 -1.1945  1.1246
   61MOL0     C 8139   4.222   7.499   2.552 -1.4398  0.3220 -0.5076
   61MOL0     C 8140   4.287   7.404   2.464 -0.4333  0.1089  0.2324
   61MOL0     C 8141   4.437   7.385   2.485 -0.3117 -0.2301 -1.5167
   61MOL0     C 8142   4.466   7.295   2.608 -0.2207  0.5735  0.0013
   61MOL0     C 8143   4.619   7.294   2.652 -0.1424  0.3185 -0.8326
   61MOL0    Cl 8144   4.715   7.192   2.540 -0.8339  0.8927  0.0944
   61MOL0     C 8145   3.571   7.463   2.472 -0.0768  0.5809 -0.2611
   61MOL0     C 8146   3.449   7.412   2.506  0.8565  0.7759 -0.1108
   61MOL0     O 8147   3.225   7.474   2.823 -0.2357  0.0594  0.6788
   61MOL0     C 8148   3.026   7.228   2.630 -0.0505  0.2626  0.2124
   61MOL0     C 8149   2.894   7.190   2.615  0.7025 -0.0944  0.7063
   61MOL0     N 8150   2.043   7.083   2.936  0.7458  0.3909 -0.3304
   61MOL0     N 8151   1.930   7.124   2.995 -0.2652 -0.1334  0.4371
   61MOL0     C 8152   0.883   7.205   2.498  0.3618 -0.2540 -0.0449
   61MOL0     C 8153   0.745   7.169   2.482  0.4783  0.2185  0.0536
   61MOL0     C 8154   0.274   7.216   2.528  0.0417 -0.1758  1.2344
   61MOL0     C 8155   0.255   7.075   2.520  0.1016  0.1968  0.1491
   61MOL0     C 8156   0.130   7.027   2.516  0.0177  0.3660  0.4781
   61MOL0     C 8157   0.015   7.108   2.544 -0.3144 -0.3904  0.8070
   61MOL0     O 8158  -0.108   7.048   2.552 -0.0759 -0.3061  0.2763
   61MOL0     C 8159  -0.127   6.908   2.515 -1.2428 -0.3002  0.3600
   61MOL0     C 8160  -0.277   6.873   2.531 -0.7256 -0.5294 -1.7047
   61MOL0     C 8161  -0.372   6.985   2.501 -0.0106  0.3427  0.0198
   61MOL0     C 8162  -0.510   6.923   2.529 -0.6587 -0.3612  0.2757
   61MOL0     C 8163  -0.615   7.027   2.522 -0.2946  0.9498  0.3093
   61MOL0     C 8164  -0.700   7.108   2.519  0.5484  0.3996  0.2183
   61MOL0     C 8165   0.033   7.246   2.571 -0.6567  0.9223 -0.0381
   61MOL0     C 8166   0.164   7.297   2.564 -0.3223 -0.5161 -0.1555
   61MOL0     C 8167   0.179   7.448   2.587 -0.3959  0.4005 -0.9194
   61MOL0     H 8168   0.593   7.388   2.679 -1.5008 -1.9453 -1.1265
   61MOL0     H 8169   0.815   7.475   2.711 -0.6611  0.9953 -1.2968
   61MOL0     H 8170   1.163   7.223   2.555 -0.1408  0.0015  1.4010
   61MOL0     H 8171   1.110   7.315   2.418  0.7454 -1.3315 -0.4337
   61MOL0     H 8172   1.257   7.516   2.522  0.3026  0.1030  0.9359
   61MOL0     H 8173   1.340   7.375   2.451  1.0484  2.0258  0.5505
   61MOL0     H 8174   1.339   7.270   2.680 -1.1042  0.2694  1.6089
   61MOL0     H 8175   1.275   7.411   2.748  1.2695  1.2721 -0.2227
   61MOL0     H 8176   1.547   7.408   2.603 -1.7989 -1.1455 -1.6861
   61MOL0     H 8177   1.476   7.554   2.623  0.9382 -0.1391 -1.3102
   61MOL0     H 8178   1.616   7.531   2.809  0.7306 -1.5211  0.7231
   61MOL0     H 8179   1.445   7.548   2.864 -0.8524 -1.8904  0.7935
   61MOL0     H 8180   1.548   7.409   3.007  2.7246  0.1287 -0.8181
   61MOL0     H 8181   1.410   7.331   2.919  0.2577  0.1149 -2.4183
   61MOL0     H 8182   1.640   7.220   2.776  0.2499 -3.4656  1.3853
   61MOL0     H 8183   1.589   7.152   2.920 -1.6440  0.9260  0.9977
   61MOL0     H 8184   1.793   7.387   2.873  1.3719  0.4843  0.8844
   61MOL0     H 8185   1.748   7.331   3.030 -2.2722  1.5656 -0.8526
   61MOL0     H 8186   1.953   7.293   2.712  3.9887 -0.8192 -1.1843
   61MOL0     H 8187   2.203   7.023   2.713  0.7144  0.4331  0.0927
   61MOL0     H 8188   2.166   7.184   2.639 -0.8582 -0.5592  0.2351
   61MOL0     H 8189   2.305   7.286   2.803  1.6620  0.5936 -0.5315
   61MOL0     H 8190   2.321   7.131   2.894  3.3564 -3.2953 -2.1338
   61MOL0     H 8191   2.405   7.176   2.604 -0.1450  0.0681  0.7547
   61MOL0     H 8192   2.463   7.046   2.701 -1.9580 -0.3763  2.1347
   61MOL0     H 8193   2.582   7.187   2.848 -0.4310 -0.2863 -0.4837
   61MOL0     H 8194   2.538   7.334   2.756 -0.3011 -0.3369  0.9177
   61MOL0     H 8195   2.744   7.388   2.850  0.0077  1.3712  0.0313
   61MOL0     H 8196   2.996   7.442   2.892  0.5046 -0.1115 -0.6185
   61MOL0     H 8197   3.473   7.394   2.848  0.5042 -1.3217  0.4795
   61MOL0     H 8198   3.704   7.445   2.784  0.8545  0.3198 -0.9136
   61MOL0     H 8199   3.844   7.319   2.473  0.1645  0.1411  0.5755
   61MOL0     H 8200   3.816   7.447   2.352  2.1138  0.4944 -0.4134
   61MOL0     H 8201   4.043   7.432   2.354 -2.0671  0.7157 -0.1479
   61MOL0     H 8202   4.005   7.582   2.430  2.7417 -0.0275  0.3242
   61MOL0     H 8203   4.040   7.508   2.656  1.4316  1.6998 -0.0165
   61MOL0     H 8204   4.076   7.340   2.591 -1.3811 -1.1151  1.5187
   61MOL0     H 8205   4.264   7.498   2.653  2.0166 -0.5686 -1.8331
   61MOL0     H 8206   4.236   7.600   2.511 -1.1573 -0.0827 -1.4285
   61MOL0     H 8207   4.267   7.445   2.365 -3.0278  0.7127  0.9458
   61MOL0     H 8208   4.249   7.301   2.471 -0.4365  0.1925  5.2657
   61MOL0     H 8209   4.485   7.335   2.401 -1.4806 -1.1709 -1.6414
   61MOL0     H 8210   4.481   7.485   2.495 -2.7527  0.7142  1.6084
   61MOL0     H 8211   4.435   7.193   2.583  2.7863 -0.1130 -1.2499
   61MOL0     H 8212   4.409   7.333   2.693 -0.9261  2.1030 -1.1097
   61MOL0     H 8213   4.658   7.395   2.668 -2.3928  0.9190  1.2835
   61MOL0     H 8214   4.634   7.236   2.743  0.7099  2.2476  0.3202
   61MOL0     H 8215   3.598   7.474   2.368 -2.3646 -0.4964 -1.0471
   61MOL0     H 8216   3.376   7.384   2.430 -0.2281 -1.4750  1.6630
   61MOL0     H 8217   3.104   7.184   2.568 -0.6510 -3.1341  1.6458
   61MOL0     H 8218   2.874   7.113   2.541  2.0872  0.6103 -0.4539
   61MOL0     H 8219   0.964   7.156   2.445 -0.3830 -1.7818  0.1582
   61MOL0     H 8220   0.727   7.083   2.419 -1.4525  0.4503  0.2389
   61MOL0     H 8221   0.344   7.012   2.513  2.5168  3.2196  1.1070
   61MOL0     H 8222   0.131   6.923   2.483  1.2176  0.2473  0.8307
   61MOL0     H 8223  -0.066   6.847   2.582 -2.0948  0.3091  1.7413
   61MOL0     H 8224  -0.094   6.889   2.413 -0.0128 -1.7595  0.9952
   61MOL0     H 8225  -0.292   6.839   2.634 -1.3769  2.3605 -0.7382
   61MOL0     H 8226  -0.293   6.783   2.472 -0.2635 -4.9142  3.9970
   61MOL0     H 8227  -0.358   7.017   2.397  1.8458 -3.3083 -1.0338
   61MOL0     H 8228  -0.358   7.072   2.566 -1.8156  0.4020  0.3649
   61MOL0     H 8229  -0.536   6.841   2.462 -0.4106 -0.4556  0.2941
   61MOL0     H 8230  -0.521   6.889   2.632 -1.6350 -1.2482 -0.1024
   61MOL0     H 8231  -0.783   7.176   2.511 -0.1450 -0.5429 -1.1598
   61MOL0     H 8232  -0.051   7.306   2.606  0.3286  0.9895  2.4184
   61MOL0     H 8233   0.085   7.483   2.630 -0.0169  0.9506 -0.5198
   61MOL0     H 8234   0.262   7.485   2.648 -0.5396  2.0917 -1.6767
   61MOL0     H 8235   0.202   7.505   2.496  1.1787 -1.3025 -1.6529
   62MOL0     O 8236   6.197   7.749   4.860  0.4868  0.4867 -0.7636
   62MOL0     C 8237   6.089   7.778   4.900 -0.1508 -1.0654  0.1227
   62MOL0     O 8238   6.067   7.847   5.020 -0.0849 -0.1247 -0.5176
   62MOL0     C 8239   6.163   7.944   5.058  0.7801 -0.8120 -0.4140
   62MOL0     C 8240   6.271   7.927   5.144 -0.1681 -0.3524 -0.7043
   62MOL0     C 8241   6.375   8.031   5.161 -0.6187 -0.5183  1.0420
   62MOL0     C 8242   6.346   8.164   5.112 -0.1826  0.0928 -1.0855
   62MOL0     O 8243   6.432   8.273   5.140  0.0197 -0.0499  0.7368
   62MOL0     C 8244   6.363   8.399   5.155 -0.1189 -1.1774 -0.2556
   62MOL0     C 8245   6.442   8.506   5.239 -0.4954 -0.3839 -1.3150
   62MOL0     C 8246   6.549   8.557   5.152 -0.2654 -0.9471  0.0496
   62MOL0     C 8247   6.623   8.671   5.225 -0.2578  0.1648 -0.2843
   62MOL0     C 8248   6.753   8.718   5.155  0.0739  0.0989 -0.0501
   62MOL0     C 8249   6.842   8.611   5.096  0.4634 -0.3714  0.3993
   62MOL0     C 8250   6.953   8.672   5.004 -0.6073  0.3458 -0.6520
   62MOL0     C 8251   7.061   8.738   5.097 -0.6282  0.1258  0.4999
   62MOL0     N 8252   7.187   8.755   5.023 -0.3743  0.3040  0.1346
   62MOL0     C 8253   7.280   8.663   4.995 -0.3487  0.5210  0.0329
   62MOL0     C 8254   7.378   8.730   4.938  0.2059 -0.0396  1.3543
   62MOL0     C 8255   7.512   8.670   4.903  0.6048  0.7033 -0.8065
   62MOL0     C 8256   7.619   8.737   4.989 -0.3344 -0.1277 -0.6910
   62MOL0     C 8257   7.771   8.686   4.962  1.8210  0.4132 -0.4598
   62MOL0     C 8258   7.818   8.711   4.822 -0.7889  0.7017 -0.3632
   62MOL0     O 8259   7.964   8.684   4.806 -0.7510  0.2005  0.4448
   62MOL0     C 8260   8.034   8.741   4.702  0.5802 -0.1589 -0.2128
   62MOL0     C 8261   7.981   8.766   4.573 -0.2004  1.1803  0.3370
   62MOL0     C 8262   8.081   8.813   4.479  1.0153 -0.4495  0.1833
   62MOL0     C 8263   8.208   8.844   4.515 -1.1528 -0.2383  0.1165
   62MOL0     C 8264   8.307   8.883   4.419 -0.3218  0.2167  0.5065
   62MOL0     O 8265   8.440   8.863   4.456  0.2096  0.6873 -0.5582
   62MOL0     C 8266   8.544   8.914   4.387  0.1999  0.1651 -0.1588
   62MOL0     C 8267   8.545   9.041   4.331  0.2182  0.4413  0.5894
   62MOL0     C 8268   8.661   9.085   4.278  0.3403 -0.5345 -0.4659
   62MOL0     C 8269   8.782   9.010   4.273 -0.0912  1.0040 -0.2880
   62MOL0     O 8270   8.894   9.046   4.200 -0.2528 -0.3702 -0.1953
   62MOL0     C 8271   8.945   9.180   4.189 -0.7108  0.1787 -0.1512
   62MOL0     C 8272   9.071   9.180   4.279 -0.0407  0.2740 -0.9447
   62MOL0     C 8273   9.165   9.305   4.257  0.1487 -0.0691 -0.1963
   62MOL0     C 8274   9.306   9.280   4.318 -0.5611 -0.2720 -0.0623
   62MOL0     C 8275   9.383   9.413   4.321  0.2512 -1.1823  0.5712
   62MOL0     C 8276   9.523   9.404   4.278 -0.2366 -0.0558 -0.0443
   62MOL0     C 8277   9.544   9.410   4.127 -0.2167 -0.7358 -0.6478
   62MOL0     C 8278   9.689   9.456   4.088 -0.3222  0.0828 -0.4821
   62MOL0    Cl 8279   9.673   9.639   4.112  0.2566 -0.5617  0.2259
   62MOL0     C 8280   8.776   8.890   4.335 -0.6758  0.1151 -0.2194
   62MOL0     C 8281   8.661   8.843   4.398 -0.0005  0.0405 -0.1379
   62MOL0     O 8282   8.270   8.919   4.304  0.3932  0.0952 -0.5031
   62MOL0     C 8283   8.258   8.814   4.643  0.3565 -0.6874 -0.8125
   62MOL0     C 8284   8.169   8.758   4.734 -0.3873 -0.8290  0.1286
   62MOL0     N 8285   7.330   8.856   4.916  0.5710 -0.2423 -0.2598
   62MOL0     N 8286   7.211   8.871   4.969  0.3201  0.0215 -0.4236
   62MOL0     C 8287   6.228   8.179   5.043 -0.0286 -0.6615 -0.0150
   62MOL0     C 8288   6.146   8.076   5.010  0.4398 -0.0285  0.2342
   62MOL0     C 8289   5.958   7.726   4.839 -0.2845  0.4184  0.9305
   62MOL0     C 8290   5.836   7.741   4.907 -0.0739 -0.3523  0.9257
   62MOL0     C 8291   5.722   7.683   4.845  0.0701  0.0737 -0.3072
   62MOL0     C 8292   5.729   7.616   4.726 -0.1000 -1.1526 -0.2145
   62MOL0     O 8293   5.618   7.549   4.684 -0.9479  0.0618 -0.1531
   62MOL0     C 8294   5.513   7.631   4.627 -0.5515 -0.3820  1.0114
   62MOL0     C 8295   5.535   7.670   4.479  0.2737 -0.0403  0.6265
   62MOL0     C 8296   5.417   7.758   4.420 -0.1321  0.2677 -0.5445
   62MOL0     C 8297   5.441   7.818   4.284  0.4911 -0.4512  0.7639
   62MOL0     C 8298   5.546   7.919   4.285 -0.7511  0.1612 -0.6399
   62MOL0     C 8299   5.643   7.990   4.291 -0.5090 -0.5168 -0.2729
   62MOL0     C 8300   5.848   7.606   4.656  0.1401  1.0118  0.9831
   62MOL0     C 8301   5.970   7.654   4.715  0.0231  0.5033 -1.0690
   62MOL0     C 8302   6.092   7.616   4.640  0.7352  0.1583 -0.7613
   62MOL0     H 8303   6.275   7.833   5.198 -1.2595  0.3541  0.6510
   62MOL0     H 8304   6.461   8.017   5.225 -1.0596  0.0787  1.7820
   62MOL0     H 8305   6.330   8.452   5.066 -1.5861  2.4049  2.1899
   62MOL0     H 8306   6.277   8.391   5.222  1.7340  0.0437  2.4404
   62MOL0     H 8307   6.476   8.451   5.327 -2.2623 -0.2982 -0.5453
   62MOL0     H 8308   6.378   8.585   5.280  0.1163 -1.5618  2.2278
   62MOL0     H 8309   6.521   8.581   5.049  1.8954  0.0242 -0.3658
   62MOL0     H 8310   6.615   8.471   5.137  0.6965  0.1104 -2.2970
   62MOL0     H 8311   6.551   8.751   5.246 -2.8212 -2.2545  0.7332
   62MOL0     H 8312   6.652   8.625   5.320 -0.7960 -3.3590 -1.6583
   62MOL0     H 8313   6.708   8.791   5.088 -1.8551  0.1020  1.1622
   62MOL0     H 8314   6.810   8.782   5.223  0.7924 -0.8955  0.2982
   62MOL0     H 8315   6.894   8.561   5.178 -0.2590  1.8571  2.3332
   62MOL0     H 8316   6.786   8.531   5.047  1.2999 -1.5253  1.2542
   62MOL0     H 8317   6.909   8.743   4.934  1.4719 -0.3449 -2.7720
   62MOL0     H 8318   7.001   8.596   4.942  0.1771  1.5744 -1.6147
   62MOL0     H 8319   7.022   8.839   5.117 -0.0184  0.9213 -1.9705
   62MOL0     H 8320   7.073   8.685   5.192  2.1331  0.2346  0.2777
   62MOL0     H 8321   7.276   8.559   5.024 -0.0420  0.6650  0.5962
   62MOL0     H 8322   7.518   8.565   4.935 -0.2464  1.0727  0.6646
   62MOL0     H 8323   7.529   8.683   4.796 -1.5493 -1.0448 -1.4350
   62MOL0     H 8324   7.619   8.846   4.987  0.0899  0.0203  2.3106
   62MOL0     H 8325   7.596   8.719   5.095 -1.1114 -0.8677 -0.9737
   62MOL0     H 8326   7.779   8.579   4.984 -1.2512  0.0873 -0.4417
   62MOL0     H 8327   7.837   8.735   5.034  4.2750 -1.6661 -1.1489
   62MOL0     H 8328   7.794   8.814   4.792  0.1719  0.6044 -1.5264
   62MOL0     H 8329   7.770   8.642   4.752  2.5945  0.8811 -3.1333
   62MOL0     H 8330   7.880   8.746   4.539  0.1396  1.3300 -0.8265
   62MOL0     H 8331   8.033   8.825   4.382 -1.0063  1.3452  1.3440
   62MOL0     H 8332   8.457   9.104   4.329 -0.9641 -1.0351 -3.0894
   62MOL0     H 8333   8.656   9.179   4.224 -0.5520 -1.8852 -2.8924
   62MOL0     H 8334   8.976   9.204   4.087 -1.5967  1.1281 -0.2141
   62MOL0     H 8335   8.880   9.262   4.221 -1.8346 -0.6351 -0.3107
   62MOL0     H 8336   9.044   9.176   4.385  1.9779 -3.0173 -0.3804
   62MOL0     H 8337   9.129   9.090   4.255  0.9069  0.3537  0.8435
   62MOL0     H 8338   9.177   9.331   4.152  0.4981  0.1225 -0.1109
   62MOL0     H 8339   9.109   9.383   4.310 -0.0588 -0.8800  0.8138
   62MOL0     H 8340   9.353   9.209   4.248 -1.1623 -0.7708  0.0405
   62MOL0     H 8341   9.297   9.241   4.419 -2.2284 -0.4744 -0.2718
   62MOL0     H 8342   9.380   9.452   4.423  0.5220  1.6552 -0.4279
   62MOL0     H 8343   9.337   9.490   4.258 -1.3545 -1.9500  0.7468
   62MOL0     H 8344   9.570   9.494   4.319 -1.0867 -0.2174  1.3432
   62MOL0     H 8345   9.575   9.317   4.320  0.9967  1.8957  2.8076
   62MOL0     H 8346   9.476   9.480   4.077 -0.9743 -2.4248 -2.0708
   62MOL0     H 8347   9.541   9.309   4.086  2.7342 -1.5248  0.7438
   62MOL0     H 8348   9.761   9.399   4.148 -0.3253 -0.7630 -1.2663
   62MOL0     H 8349   9.709   9.443   3.981  2.6720  1.8216 -0.2673
   62MOL0     H 8350   8.873   8.840   4.334 -1.2142 -1.0309  1.2355
   62MOL0     H 8351   8.649   8.752   4.456 -1.2628  1.0107  1.2048
   62MOL0     H 8352   8.360   8.826   4.677  0.1358 -2.2439  0.5515
   62MOL0     H 8353   8.207   8.724   4.830  0.4443 -0.2254  0.0232
   62MOL0     H 8354   6.198   8.278   5.010 -0.4856 -0.5446  0.7272
   62MOL0     H 8355   6.057   8.106   4.955  0.1487 -0.0532  0.6900
   62MOL0     H 8356   5.828   7.794   5.001  0.7480  1.8594 -0.2048
   62MOL0     H 8357   5.628   7.668   4.897  0.0622 -0.2681 -0.4170
   62MOL0     H 8358   5.501   7.717   4.694  3.1031  0.1430  1.1599
   62MOL0     H 8359   5.421   7.572   4.637 -0.9834  0.5184  2.9919
   62MOL0     H 8360   5.558   7.576   4.427  1.2384 -0.4947  1.8178
   62MOL0     H 8361   5.625   7.730   4.466 -0.4287  0.6366 -1.5627
   62MOL0     H 8362   5.390   7.847   4.478  0.6737  1.5376 -2.0590
   62MOL0     H 8363   5.327   7.696   4.426  0.0555 -0.0289 -0.8191
   62MOL0     H 8364   5.479   7.739   4.219  2.2867 -0.4474  1.7548
   62MOL0     H 8365   5.341   7.850   4.254  0.9351  1.1734  0.8947
   62MOL0     H 8366   5.732   8.050   4.285 -0.2270 -0.2844  3.4360
   62MOL0     H 8367   5.852   7.561   4.558 -0.0834 -1.5787  2.0833
   62MOL0     H 8368   6.071   7.568   4.544  2.0660  0.3060 -1.1547
   62MOL0     H 8369   6.154   7.705   4.622  1.8695 -0.5265 -0.3219
   62MOL0     H 8370   6.147   7.541   4.696 -0.9059 -1.3558 -1.0821
   63MOL0     O 8371   3.927   5.917   9.969  0.6211  0.1195  0.2462
   63MOL0     C 8372   3.941   5.874   9.855  0.5606 -0.2771 -0.9223
   63MOL0     O 8373   3.854   5.790   9.789 -0.5679 -0.5249 -0.6908
   63MOL0     C 8374   3.743   5.754   9.859  0.0672  0.3493  0.5514
   63MOL0     C 8375   3.739   5.682   9.974  0.5608  0.0761  0.0434
   63MOL0     C 8376   3.620   5.624  10.027 -0.6302 -0.2674  0.7443
   63MOL0     C 8377   3.494   5.636   9.958 -0.6916 -0.1797  0.2382
   63MOL0     O 8378   3.383   5.578  10.011  0.9574  0.0164 -0.1081
   63MOL0     C 8379   3.288   5.512   9.923 -0.6584  0.0532  0.0605
   63MOL0     C 8380   3.147   5.501   9.969  0.4278  0.7773  0.0825
   63MOL0     C 8381   3.072   5.395   9.879 -0.1138 -1.6507 -0.1779
   63MOL0     C 8382   2.918   5.414   9.884  0.1116 -0.1565  0.6101
   63MOL0     C 8383   2.886   5.540   9.802  0.1589 -0.4882 -0.2905
   63MOL0     C 8384   2.747   5.588   9.822  0.1469  0.0683 -0.0059
   63MOL0     C 8385   2.724   5.638   9.962 -0.5839 -0.8159  0.5058
   63MOL0     C 8386   2.629   5.556  10.049 -0.0260  0.1678  0.6303
   63MOL0     N 8387   2.625   5.624  10.179 -0.6323 -0.3913 -0.2866
   63MOL0     C 8388   2.551   5.738  10.208  0.3894 -0.6268  0.2480
   63MOL0     C 8389   2.546   5.744  10.349 -0.2683  0.2048 -0.2378
   63MOL0     C 8390   2.453   5.835  10.428 -0.0666  0.0829 -0.4453
   63MOL0     C 8391   2.480   5.989  10.392 -0.5988 -0.3663 -0.1099
   63MOL0     C 8392   2.606   6.060  10.454 -0.3891  0.0782 -0.0305
   63MOL0     C 8393   2.736   6.020  10.382 -0.4882 -0.3090 -0.0772
   63MOL0     O 8394   2.726   6.089  10.259  1.1358 -0.0808  0.1481
   63MOL0     C 8395   2.809   6.049  10.161 -0.1110  0.6580 -0.0916
   63MOL0     C 8396   2.776   6.064  10.030  0.6491 -0.3354 -0.3330
   63MOL0     C 8397   2.868   6.031   9.925 -0.6487  0.3323 -0.9197
   63MOL0     C 8398   2.991   5.975   9.954  0.2570  0.1623  0.1711
   63MOL0     C 8399   3.096   5.948   9.854 -0.2207 -0.0057  0.4945
   63MOL0     O 8400   3.053   5.915   9.728 -0.0825 -0.3636 -1.0205
   63MOL0     C 8401   3.155   5.892   9.636  0.1448 -1.2281 -0.4212
   63MOL0     C 8402   3.241   5.999   9.601  0.3305  0.3881  0.2950
   63MOL0     C 8403   3.353   5.973   9.510  0.1046 -0.3353 -0.7996
   63MOL0     C 8404   3.369   5.845   9.467 -0.5324  0.5593  0.4834
   63MOL0     O 8405   3.480   5.793   9.397  0.0277 -0.8693  0.4186
   63MOL0     C 8406   3.553   5.875   9.305  0.2653  1.2781  0.7536
   63MOL0     C 8407   3.647   5.783   9.217 -0.6585 -0.3132 -0.5122
   63MOL0     C 8408   3.768   5.744   9.311  0.1496  0.1387 -0.4588
   63MOL0     C 8409   3.870   5.656   9.243  0.2535 -0.4168 -0.0079
   63MOL0     C 8410   3.965   5.615   9.353  0.3490  0.4225 -0.2456
   63MOL0     C 8411   4.074   5.523   9.303  0.5423 -0.0571 -1.6518
   63MOL0     C 8412   4.132   5.453   9.424 -0.6933  0.1487 -0.1893
   63MOL0     C 8413   4.258   5.359   9.397  0.7510 -0.5234 -0.2788
   63MOL0    Cl 8414   4.415   5.457   9.376 -0.0311 -0.1375 -0.0817
   63MOL0     C 8415   3.290   5.744   9.510 -0.6602 -0.5145 -1.2845
   63MOL0     C 8416   3.178   5.769   9.584 -0.3062  0.9234 -0.0963
   63MOL0     O 8417   3.214   5.965   9.884  0.7188  0.4532  0.1886
   63MOL0     C 8418   3.027   5.956  10.084 -1.1179  0.0735 -0.3812
   63MOL0     C 8419   2.936   5.994  10.185  0.1397  0.2347 -0.8952
   63MOL0     N 8420   2.636   5.649  10.404 -0.6939  1.2649  0.1446
   63MOL0     N 8421   2.676   5.581  10.300 -0.2637  0.2212 -0.8839
   63MOL0     C 8422   3.498   5.707   9.837 -0.3456 -0.2684 -0.5038
   63MOL0     C 8423   3.620   5.770   9.789  0.5840 -0.0100  0.1671
   63MOL0     C 8424   4.070   5.893   9.783  0.7681  0.3421  0.3782
   63MOL0     C 8425   4.082   5.866   9.650 -0.2777  0.3908 -0.2626
   63MOL0     C 8426   4.201   5.891   9.570 -0.7028 -0.2648  0.2589
   63MOL0     C 8427   4.317   5.934   9.632 -0.0375 -0.0546 -0.2118
   63MOL0     O 8428   4.439   5.930   9.577 -0.2219  0.5062  0.4900
   63MOL0     C 8429   4.498   5.796   9.589 -0.2203  0.0102 -0.4345
   63MOL0     C 8430   4.629   5.778   9.525 -0.5882  0.8116 -0.1285
   63MOL0     C 8431   4.642   5.852   9.389 -0.0651  0.0749 -1.0237
   63MOL0     C 8432   4.771   5.814   9.305 -0.6780 -0.3472 -0.0363
   63MOL0     C 8433   4.767   5.881   9.171  0.5890  0.2331 -0.2678
   63MOL0     C 8434   4.764   5.926   9.063  0.0449 -0.6039  0.7347
   63MOL0     C 8435   4.310   5.958   9.774  0.2844  0.7067 -0.4104
   63MOL0     C 8436   4.190   5.944   9.846 -0.2047  0.6390 -0.3853
   63MOL0     C 8437   4.202   5.972   9.998  0.0970 -0.7235  0.3619
   63MOL0     H 8438   3.833   5.667  10.025  1.1515  1.5718 -0.5603
   63MOL0     H 8439   3.632   5.554  10.110  1.5716 -2.6104 -1.3713
   63MOL0     H 8440   3.297   5.565   9.827  3.5729  0.2084  0.3709
   63MOL0     H 8441   3.313   5.406   9.907 -4.7923 -1.2871  1.2764
   63MOL0     H 8442   3.106   5.603   9.961  2.3750  1.5139 -1.1071
   63MOL0     H 8443   3.141   5.471  10.074  1.3325 -1.4298 -0.4386
   63MOL0     H 8444   3.105   5.294   9.906  1.5326 -1.6407 -1.9558
   63MOL0     H 8445   3.116   5.425   9.783 -1.5860  0.4908 -0.2603
   63MOL0     H 8446   2.854   5.339   9.837 -1.6095  0.1003  2.4238
   63MOL0     H 8447   2.892   5.426   9.990 -3.7600  0.1289 -0.2403
   63MOL0     H 8448   2.958   5.617   9.832  1.9766 -1.4015 -2.1063
   63MOL0     H 8449   2.905   5.517   9.697  2.8704 -0.1691  0.0460
   63MOL0     H 8450   2.727   5.668   9.750  4.0793  1.6681  0.4281
   63MOL0     H 8451   2.685   5.500   9.800 -0.2348  0.7871 -2.0561
   63MOL0     H 8452   2.686   5.740   9.947  1.5821  0.0451  0.4467
   63MOL0     H 8453   2.815   5.660  10.018 -0.7552  1.7489 -0.0878
   63MOL0     H 8454   2.531   5.547  10.002  0.3521  1.9881 -0.6130
   63MOL0     H 8455   2.668   5.454  10.059 -3.0017 -1.1437  0.0087
   63MOL0     H 8456   2.505   5.791  10.126  0.2591  2.0764  1.9409
   63MOL0     H 8457   2.350   5.806  10.409 -0.3305  0.2731  0.6436
   63MOL0     H 8458   2.467   5.810  10.534 -1.2889 -4.5945 -1.1736
   63MOL0     H 8459   2.480   6.004  10.283  0.5269 -1.1697 -0.2475
   63MOL0     H 8460   2.392   6.034  10.439 -0.9541  0.6757 -1.6765
   63MOL0     H 8461   2.607   6.022  10.556 -0.9686  2.3225  0.8540
   63MOL0     H 8462   2.596   6.169  10.459 -2.8161 -0.0723 -0.4808
   63MOL0     H 8463   2.755   5.913  10.375 -2.6956 -1.0270  3.0893
   63MOL0     H 8464   2.824   6.065  10.429 -2.8773  1.0970  3.5052
   63MOL0     H 8465   2.679   6.107  10.010 -0.7748 -2.8597  0.6330
   63MOL0     H 8466   2.841   6.058   9.823 -1.8431  0.8424 -0.4810
   63MOL0     H 8467   3.224   6.095   9.650 -2.2285  0.2479 -0.1870
   63MOL0     H 8468   3.413   6.054   9.471  1.1845  0.4103  2.1648
   63MOL0     H 8469   3.494   5.930   9.231  2.3116 -0.8320 -2.7000
   63MOL0     H 8470   3.604   5.953   9.363 -1.4131  2.7439  0.3171
   63MOL0     H 8471   3.588   5.699   9.180 -1.5332 -0.1070  0.3784
   63MOL0     H 8472   3.684   5.830   9.125  0.7363 -0.5555 -0.0891
   63MOL0     H 8473   3.822   5.828   9.354 -2.2227  0.9673  1.0552
   63MOL0     H 8474   3.721   5.684   9.389 -0.2438  0.0336 -0.7695
   63MOL0     H 8475   3.918   5.711   9.162 -2.3377  4.2955  1.2856
   63MOL0     H 8476   3.812   5.579   9.190 -2.0292  1.6197 -0.6637
   63MOL0     H 8477   3.903   5.560   9.424  0.4043 -0.4973 -0.8908
   63MOL0     H 8478   4.003   5.703   9.406  0.2950 -0.6163  1.5812
   63MOL0     H 8479   4.019   5.451   9.241  1.6607 -1.1835 -1.3711
   63MOL0     H 8480   4.141   5.571   9.231 -0.2317 -1.2115 -3.2046
   63MOL0     H 8481   4.057   5.398   9.482  0.9684 -0.4745  1.4622
   63MOL0     H 8482   4.178   5.525   9.493  1.4737 -0.1773 -1.2004
   63MOL0     H 8483   4.278   5.281   9.472 -1.9162  0.1248  1.2239
   63MOL0     H 8484   4.235   5.294   9.312 -2.5475  1.4683 -1.0827
   63MOL0     H 8485   3.329   5.645   9.488 -0.3988 -0.9317  0.7793
   63MOL0     H 8486   3.126   5.684   9.627  4.0336 -1.6638  0.6667
   63MOL0     H 8487   3.109   5.886  10.095 -0.7872  0.4433 -0.4770
   63MOL0     H 8488   2.964   5.957  10.284  3.5404  1.0207 -1.4554
   63MOL0     H 8489   3.405   5.723   9.783 -1.0570  0.5732  0.9236
   63MOL0     H 8490   3.611   5.815   9.690  0.9723  2.0487  1.0126
   63MOL0     H 8491   4.011   5.805   9.593 -0.4906  1.1127 -0.7849
   63MOL0     H 8492   4.204   5.873   9.463  1.9134 -2.9648  0.6896
   63MOL0     H 8493   4.432   5.719   9.549 -3.4959  0.7536  2.9054
   63MOL0     H 8494   4.516   5.762   9.691  2.8772 -1.2535 -1.2850
   63MOL0     H 8495   4.645   5.670   9.510  1.3133  0.5361  2.9699
   63MOL0     H 8496   4.714   5.812   9.584 -0.0480 -1.3328  0.4205
   63MOL0     H 8497   4.645   5.956   9.425 -4.4972 -0.1572  0.6225
   63MOL0     H 8498   4.552   5.841   9.327 -0.1081 -0.5795 -0.8489
   63MOL0     H 8499   4.854   5.847   9.369 -2.0083 -1.0011  2.1169
   63MOL0     H 8500   4.783   5.706   9.293  3.5726 -0.2881  1.8303
   63MOL0     H 8501   4.764   5.982   8.972  2.5283  1.6178  1.9430
   63MOL0     H 8502   4.405   5.995   9.811  1.4992  1.8153 -4.1351
   63MOL0     H 8503   4.304   5.991  10.033 -0.1754 -2.2110  2.0892
   63MOL0     H 8504   4.153   6.066  10.026 -0.9767 -1.4559  1.0061
   63MOL0     H 8505   4.165   5.889  10.058  1.1665  0.0894  2.2433
   64MOL0     O 8506   4.457   1.996  10.263  0.1479  0.1788 -0.1624
   64MOL0     C 8507   4.361   2.036  10.334 -1.4442  0.2117  0.8151
   64MOL0     O 8508   4.369   2.141  10.423 -0.8699 -0.0379  0.2270
   64MOL0     C 8509   4.490   2.203  10.449 -0.7684 -0.2117  0.1749
   64MOL0     C 8510   4.545   2.296  10.356 -0.5353 -1.0200 -0.0671
   64MOL0     C 8511   4.654   2.377  10.396 -0.0484  0.7474 -0.3761
   64MOL0     C 8512   4.710   2.356  10.522 -0.2340 -1.2831  0.8923
   64MOL0     O 8513   4.825   2.424  10.559 -0.1197 -0.5862  0.3742
   64MOL0     C 8514   4.946   2.355  10.571  0.4166  0.4841 -0.4393
   64MOL0     C 8515   5.026   2.401  10.447  0.6229  0.0306  0.1266
   64MOL0     C 8516   5.157   2.329  10.434 -0.7548  0.5079 -0.7639
   64MOL0     C 8517   5.246   2.339  10.559  0.4799 -0.0710 -0.5207
   64MOL0     C 8518   5.282   2.476  10.605  0.6387 -0.1909 -0.3842
   64MOL0     C 8519   5.349   2.483  10.746 -0.1822 -0.2588 -0.5683
   64MOL0     C 8520   5.396   2.634  10.762  0.0384  0.6997  0.1218
   64MOL0     C 8521   5.292   2.735  10.775  0.0576  0.7177 -0.7449
   64MOL0     N 8522   5.370   2.854  10.817 -0.1558  0.5413  0.3478
   64MOL0     C 8523   5.390   2.897  10.940 -0.2918  0.6730  0.3333
   64MOL0     C 8524   5.451   3.013  10.935 -0.1366 -0.7055 -0.1337
   64MOL0     C 8525   5.511   3.083  11.050  0.0144  0.1125 -0.3185
   64MOL0     C 8526   5.609   2.986  11.125 -0.3424  0.0980  0.8601
   64MOL0     C 8527   5.708   3.050  11.223  0.0619 -0.3396 -0.9583
   64MOL0     C 8528   5.855   3.015  11.209 -0.5186  0.0601  0.5607
   64MOL0     O 8529   5.920   3.088  11.092  1.0511 -0.8471 -0.3329
   64MOL0     C 8530   6.044   3.038  11.047 -0.0959 -0.4502  0.5063
   64MOL0     C 8531   6.159   3.114  11.069 -0.1892 -0.1036 -0.9917
   64MOL0     C 8532   6.281   3.063  11.023 -0.0438 -0.2210  0.7184
   64MOL0     C 8533   6.294   2.936  10.958  0.2877 -1.5122 -0.5082
   64MOL0     C 8534   6.431   2.902  10.906 -0.9226 -1.0341 -0.4437
   64MOL0     O 8535   6.541   2.989  10.928  0.8154  0.7178 -0.3716
   64MOL0     C 8536   6.671   2.957  10.894 -0.6143 -0.2506  0.1017
   64MOL0     C 8537   6.771   3.000  10.981  0.1741 -0.2317 -0.1867
   64MOL0     C 8538   6.905   2.972  10.962 -0.2969 -1.4199  1.0465
   64MOL0     C 8539   6.940   2.899  10.854 -0.7881  0.7707  0.3839
   64MOL0     O 8540   7.077   2.872  10.821 -0.1689  0.3916 -0.2477
   64MOL0     C 8541   7.176   2.968  10.874 -0.0843 -0.8009  0.1302
   64MOL0     C 8542   7.308   2.920  10.815 -0.0949  0.3347 -0.4711
   64MOL0     C 8543   7.411   3.031  10.825  0.0182  0.0212 -0.0550
   64MOL0     C 8544   7.546   2.985  10.774 -0.8225  0.4758 -0.2458
   64MOL0     C 8545   7.645   3.100  10.723  0.4558  0.2478  0.0614
   64MOL0     C 8546   7.793   3.051  10.711  0.9207  0.0923  0.4730
   64MOL0     C 8547   7.881   3.159  10.650 -0.2398  0.1002  0.1753
   64MOL0     C 8548   7.869   3.175  10.500 -0.0544  0.5390 -0.3877
   64MOL0    Cl 8549   7.930   3.036  10.395 -0.1321  0.0398  0.0221
   64MOL0     C 8550   6.838   2.842  10.764 -0.6103  0.1734 -0.0539
   64MOL0     C 8551   6.705   2.889  10.778  0.9062  0.5533 -0.4157
   64MOL0     O 8552   6.435   2.793  10.852 -0.3545  0.2656 -0.4545
   64MOL0     C 8553   6.171   2.865  10.932 -1.2306  0.7519 -0.4785
   64MOL0     C 8554   6.052   2.918  10.980  0.1565 -0.7990 -0.3076
   64MOL0     N 8555   5.473   3.037  10.797 -0.7741 -0.4246 -0.2642
   64MOL0     N 8556   5.418   2.942  10.731 -0.8953 -0.1268  0.1573
   64MOL0     C 8557   4.645   2.279  10.618 -1.2001 -1.1917 -0.4182
   64MOL0     C 8558   4.529   2.206  10.586 -0.5531  0.4952  0.6019
   64MOL0     C 8559   4.226   1.981  10.317  0.7480 -0.0096 -0.8776
   64MOL0     C 8560   4.189   1.938  10.186  1.5091 -0.2026 -0.3677
   64MOL0     C 8561   4.058   1.898  10.173 -0.9618 -0.2008 -0.7905
   64MOL0     C 8562   3.964   1.907  10.279 -0.7005 -1.0642 -0.0190
   64MOL0     O 8563   3.832   1.904  10.249  1.1002  0.3846  0.2479
   64MOL0     C 8564   3.774   1.969  10.140 -0.4971 -0.2506  0.2533
   64MOL0     C 8565   3.620   1.951  10.143 -0.2599 -0.1026  0.2592
   64MOL0     C 8566   3.587   1.799  10.107 -0.5164  0.1832 -0.9359
   64MOL0     C 8567   3.449   1.765  10.164  0.0350  1.1663 -0.1938
   64MOL0     C 8568   3.344   1.860  10.155  0.8462 -0.0957 -0.4217
   64MOL0     C 8569   3.257   1.945  10.144  1.1758  0.1475 -0.0259
   64MOL0     C 8570   4.008   1.934  10.415  1.0506  0.0380 -0.6452
   64MOL0     C 8571   4.141   1.966  10.430 -0.5273 -0.1920  0.4953
   64MOL0     C 8572   4.197   1.978  10.571 -0.3053  0.6800  1.5263
   64MOL0     H 8573   4.498   2.330  10.264  0.7573 -2.9454 -1.5158
   64MOL0     H 8574   4.680   2.461  10.334 -1.1381  0.2038 -1.6328
   64MOL0     H 8575   4.995   2.385  10.664  1.8508  3.3595 -1.9648
   64MOL0     H 8576   4.920   2.249  10.567 -5.6828  1.6238 -1.0129
   64MOL0     H 8577   5.032   2.509  10.462  0.9972  0.3198 -1.8396
   64MOL0     H 8578   4.968   2.378  10.357  0.6201  0.6914 -0.0476
   64MOL0     H 8579   5.214   2.359  10.345  2.9025 -2.1517  0.4644
   64MOL0     H 8580   5.134   2.223  10.417 -0.4728  0.3118  0.0325
   64MOL0     H 8581   5.197   2.285  10.641  0.3679 -0.1122 -0.6147
   64MOL0     H 8582   5.339   2.286  10.535  1.4498  2.6436 -3.4385
   64MOL0     H 8583   5.347   2.531  10.536  4.9583 -0.1822  3.2349
   64MOL0     H 8584   5.192   2.536  10.618  0.9344  0.4223 -1.1090
   64MOL0     H 8585   5.275   2.460  10.822 -0.1565 -0.2648 -0.5455
   64MOL0     H 8586   5.431   2.413  10.766  0.6130  0.0486 -2.4469
   64MOL0     H 8587   5.462   2.662  10.680  0.7740  1.2497  0.8846
   64MOL0     H 8588   5.458   2.626  10.851 -1.2816 -0.5080  0.9929
   64MOL0     H 8589   5.236   2.745  10.681 -1.1017  0.2174 -0.1237
   64MOL0     H 8590   5.214   2.707  10.846 -1.4762  1.2488 -2.1520
   64MOL0     H 8591   5.347   2.844  11.025  0.5906 -1.9495 -0.7594
   64MOL0     H 8592   5.566   3.173  11.022  5.8487 -2.1182  2.3954
   64MOL0     H 8593   5.439   3.119  11.124  1.8339  2.2659  0.4850
   64MOL0     H 8594   5.542   2.915  11.175 -0.0593 -0.0077  1.0897
   64MOL0     H 8595   5.684   2.932  11.066  1.7381  1.2150  2.3682
   64MOL0     H 8596   5.676   3.021  11.323 -1.7657  3.6979 -0.1582
   64MOL0     H 8597   5.699   3.158  11.209 -0.2063 -0.4464 -1.6817
   64MOL0     H 8598   5.876   2.910  11.189  1.3977  1.0006 -3.1289
   64MOL0     H 8599   5.908   3.040  11.302  1.5177 -2.6140  0.2408
   64MOL0     H 8600   6.150   3.206  11.126  1.4478 -0.6478  0.2269
   64MOL0     H 8601   6.364   3.131  11.037  0.3997 -0.6036 -0.0009
   64MOL0     H 8602   6.740   3.054  11.069 -0.1997 -2.5433  1.1722
   64MOL0     H 8603   6.980   3.026  11.020 -0.2146 -0.3312 -0.0353
   64MOL0     H 8604   7.157   3.068  10.832 -1.2391 -1.1219 -0.1624
   64MOL0     H 8605   7.172   2.969  10.983 -0.0486  0.1697  0.1363
   64MOL0     H 8606   7.335   2.828  10.869  0.7390  0.5444 -0.5126
   64MOL0     H 8607   7.295   2.896  10.710 -2.4092 -0.3456 -0.0710
   64MOL0     H 8608   7.369   3.113  10.766  0.3710  0.8263  0.7750
   64MOL0     H 8609   7.430   3.063  10.928  2.5762 -1.5674  0.0564
   64MOL0     H 8610   7.533   2.917  10.690  1.4039 -0.6374  0.2163
   64MOL0     H 8611   7.590   2.923  10.854 -0.9124 -2.3494 -2.2212
   64MOL0     H 8612   7.628   3.192  10.780  0.2191 -0.6359  1.4656
   64MOL0     H 8613   7.612   3.116  10.620  0.4731  0.6930  0.1197
   64MOL0     H 8614   7.827   3.009  10.806 -1.7580 -2.8579  0.2957
   64MOL0     H 8615   7.796   2.965  10.644  0.7025  0.4184  0.0372
   64MOL0     H 8616   7.984   3.127  10.670 -0.6087 -0.8758  0.5598
   64MOL0     H 8617   7.874   3.255  10.702  0.7960  1.5586 -2.1762
   64MOL0     H 8618   7.764   3.189  10.471  0.0190  6.1644  0.8048
   64MOL0     H 8619   7.908   3.268  10.456 -1.2085  0.3512 -1.8867
   64MOL0     H 8620   6.871   2.774  10.686 -1.3879  0.3648 -0.5582
   64MOL0     H 8621   6.624   2.859  10.712  0.4190 -0.1464  0.4790
   64MOL0     H 8622   6.183   2.778  10.868 -0.2921  1.7504 -1.6867
   64MOL0     H 8623   5.961   2.862  10.966 -0.2170 -0.1545 -0.4868
   64MOL0     H 8624   4.696   2.286  10.713  2.2063 -0.9885 -2.1276
   64MOL0     H 8625   4.481   2.155  10.670 -2.0608 -0.1702 -0.6163
   64MOL0     H 8626   4.255   1.927  10.100  2.2029 -2.2569  0.3648
   64MOL0     H 8627   4.024   1.876  10.072 -0.4495 -1.9941 -0.6048
   64MOL0     H 8628   3.809   1.920  10.049 -2.0850 -2.9714  1.0216
   64MOL0     H 8629   3.811   2.072  10.134  0.5361 -0.6889 -2.2051
   64MOL0     H 8630   3.572   2.020  10.073 -1.2510  3.1811  3.8203
   64MOL0     H 8631   3.596   1.970  10.248  1.3487 -0.2443  0.6768
   64MOL0     H 8632   3.666   1.746  10.161 -0.1932 -0.3625 -1.9205
   64MOL0     H 8633   3.598   1.774  10.001 -1.6918 -2.8357 -0.4590
   64MOL0     H 8634   3.428   1.672  10.110  0.8812 -0.5001  2.1597
   64MOL0     H 8635   3.469   1.743  10.269 -1.3479  2.1357  0.2970
   64MOL0     H 8636   3.183   2.020  10.124 -1.6661 -2.5448 -0.4427
   64MOL0     H 8637   3.940   1.948  10.499  3.6625 -0.9026  1.8283
   64MOL0     H 8638   4.176   2.079  10.605 -1.1252  0.3466  2.0397
   64MOL0     H 8639   4.140   1.914  10.639 -0.4136 -1.9541 -0.8672
   64MOL0     H 8640   4.302   1.948  10.578  0.0932  1.4724 -0.3934
   65MOL0     O 8641   8.471   4.998   5.667 -0.2902 -0.1294 -0.2166
   65MOL0     C 8642   8.419   4.959   5.775  0.0765  0.2508  0.1349
   65MOL0     O 8643   8.484   4.905   5.875  0.5105  0.1132  0.5598
   65MOL0     C 8644   8.616   4.870   5.861 -0.2260 -0.6676  0.1893
   65MOL0     C 8645   8.654   4.755   5.790  0.2953  0.0884  0.2118
   65MOL0     C 8646   8.785   4.715   5.767  0.0332  0.8433 -0.8074
   65MOL0     C 8647   8.891   4.801   5.815  0.7913 -0.4107  0.0312
   65MOL0     O 8648   9.020   4.779   5.799 -0.7989  0.6644 -0.3438
   65MOL0     C 8649   9.072   4.699   5.697 -0.0641 -0.7180  0.3520
   65MOL0     C 8650   9.073   4.555   5.738 -0.3155  0.0209  0.7866
   65MOL0     C 8651   9.217   4.497   5.736 -0.7081  0.0510  0.0932
   65MOL0     C 8652   9.282   4.491   5.590  0.4203 -0.1683 -0.7067
   65MOL0     C 8653   9.424   4.434   5.598  0.0661  0.7089  0.0832
   65MOL0     C 8654   9.496   4.441   5.462  0.0103  0.5542  0.8621
   65MOL0     C 8655   9.630   4.377   5.479 -0.8854 -0.4286  0.3343
   65MOL0     C 8656   9.716   4.404   5.358 -0.2116  0.3883 -0.3849
   65MOL0     N 8657   9.855   4.351   5.379 -0.3456 -0.2065 -0.5726
   65MOL0     C 8658   9.891   4.223   5.393 -1.2623 -0.4044  0.4812
   65MOL0     C 8659  10.019   4.227   5.431  0.1281 -0.6020 -0.2653
   65MOL0     C 8660  10.100   4.105   5.465  0.4798  0.6881 -0.1524
   65MOL0     C 8661  10.234   4.098   5.393 -0.3280 -0.3177 -0.4539
   65MOL0     C 8662  10.335   4.188   5.463 -0.7598 -0.1639  0.0333
   65MOL0     C 8663  10.477   4.155   5.415  0.4420 -0.3859 -0.0966
   65MOL0     O 8664  10.570   4.258   5.445  0.1942 -0.9830 -0.3743
   65MOL0     C 8665  10.691   4.273   5.373  0.1588  0.7072  0.3667
   65MOL0     C 8666  10.745   4.397   5.361  0.3764  0.1824 -0.4576
   65MOL0     C 8667  10.858   4.411   5.284  0.3972 -0.4208 -0.5127
   65MOL0     C 8668  10.920   4.305   5.231  0.1832 -0.0830  0.1676
   65MOL0     C 8669  11.044   4.314   5.139  0.0853  0.6653 -1.0792
   65MOL0     O 8670  11.112   4.194   5.135  0.5879  0.1653  0.1824
   65MOL0     C 8671  11.222   4.189   5.058  0.7765 -0.2550  0.1693
   65MOL0     C 8672  11.241   4.106   4.945  0.9419 -0.3571  0.0188
   65MOL0     C 8673  11.361   4.109   4.870 -0.7823  0.5901  0.8612
   65MOL0     C 8674  11.465   4.200   4.904 -0.2621  0.4084 -0.2653
   65MOL0     O 8675  11.572   4.196   4.822 -0.0204 -0.0904  0.4966
   65MOL0     C 8676  11.699   4.199   4.884  0.3062 -0.4727 -0.5772
   65MOL0     C 8677  11.793   4.202   4.763 -0.9050  0.1138 -0.1557
   65MOL0     C 8678  11.931   4.138   4.786  0.2138  0.5868  0.1973
   65MOL0     C 8679  12.023   4.187   4.898 -0.0747  0.3059 -0.0256
   65MOL0     C 8680  12.170   4.133   4.876 -0.0759  0.3923 -0.1565
   65MOL0     C 8681  12.177   3.983   4.915 -0.2699  0.0388  0.2907
   65MOL0     C 8682  12.307   3.914   4.860 -0.3592 -0.8055  0.2960
   65MOL0     C 8683  12.351   3.769   4.915  0.3886 -0.2924  0.2176
   65MOL0    Cl 8684  12.361   3.766   5.085 -0.3288 -0.0607 -0.0701
   65MOL0     C 8685  11.453   4.270   5.024 -0.3409 -0.6742  0.6566
   65MOL0     C 8686  11.329   4.271   5.095  0.3350 -0.2541  0.5756
   65MOL0     O 8687  11.076   4.416   5.076 -0.3412 -0.3653  0.0465
   65MOL0     C 8688  10.867   4.178   5.253  0.6096  0.0646  0.2177
   65MOL0     C 8689  10.747   4.163   5.315 -0.3114  0.7786 -0.6804
   65MOL0     N 8690  10.062   4.357   5.429  0.5640 -0.4660  0.0157
   65MOL0     N 8691   9.967   4.425   5.399 -0.0805  0.0582  0.0465
   65MOL0     C 8692   8.852   4.924   5.878 -0.0916  0.0255  0.9270
   65MOL0     C 8693   8.719   4.953   5.911 -0.2124 -0.0575  0.0814
   65MOL0     C 8694   8.266   4.962   5.785  0.8224  0.6701  0.2200
   65MOL0     C 8695   8.192   4.921   5.674 -0.0852  0.6172  0.4848
   65MOL0     C 8696   8.052   4.912   5.679  0.1497 -1.2304 -0.3204
   65MOL0     C 8697   7.987   4.942   5.798  0.0364  0.6150  0.0156
   65MOL0     O 8698   7.854   4.918   5.812  0.6600 -0.2956  0.8520
   65MOL0     C 8699   7.778   4.933   5.691 -0.6599 -0.2694 -0.5369
   65MOL0     C 8700   7.656   4.995   5.756 -0.3697  0.1871  0.0419
   65MOL0     C 8701   7.602   4.908   5.865 -0.7010 -0.6989 -0.6150
   65MOL0     C 8702   7.466   4.957   5.903  0.3987 -0.2002  0.9982
   65MOL0     C 8703   7.482   5.075   5.988 -1.3938 -0.1142 -0.0412
   65MOL0     C 8704   7.503   5.164   6.070 -0.1606  0.2366  0.4089
   65MOL0     C 8705   8.057   4.984   5.908 -0.2640 -1.1233  0.9025
   65MOL0     C 8706   8.197   4.992   5.901  0.0506 -0.6051 -0.3072
   65MOL0     C 8707   8.268   5.046   6.025 -0.5195  0.3064  0.6318
   65MOL0     H 8708   8.579   4.683   5.757  1.2204 -1.0026  0.4473
   65MOL0     H 8709   8.812   4.628   5.709 -1.9563  1.7074 -3.1987
   65MOL0     H 8710   9.015   4.724   5.606  2.2661  2.3829 -0.4214
   65MOL0     H 8711   9.173   4.737   5.679  1.0323 -2.3790  2.5998
   65MOL0     H 8712   9.021   4.486   5.671  0.6393 -1.3321  1.3900
   65MOL0     H 8713   9.022   4.543   5.834 -1.5637 -1.3215 -0.0098
   65MOL0     H 8714   9.208   4.394   5.773 -0.7157 -0.4223 -1.1712
   65MOL0     H 8715   9.279   4.555   5.804 -3.4798  0.1363  2.7647
   65MOL0     H 8716   9.221   4.425   5.528  0.9434 -0.3799 -1.0052
   65MOL0     H 8717   9.274   4.592   5.549 -4.6157  0.8564  2.0139
   65MOL0     H 8718   9.480   4.492   5.671  1.9596  2.3757 -2.5046
   65MOL0     H 8719   9.404   4.333   5.634 -1.3156  0.5942 -0.9071
   65MOL0     H 8720   9.442   4.378   5.391  2.7142 -2.2325  1.0471
   65MOL0     H 8721   9.500   4.545   5.431  3.5974  0.4568  0.5795
   65MOL0     H 8722   9.612   4.272   5.504 -0.4652 -0.6899 -0.4450
   65MOL0     H 8723   9.688   4.410   5.566  0.9423 -1.8736 -0.2544
   65MOL0     H 8724   9.669   4.351   5.275  2.2409 -1.3798 -0.7489
   65MOL0     H 8725   9.716   4.511   5.335 -3.1281  0.7278  0.7363
   65MOL0     H 8726   9.832   4.133   5.400 -0.9171 -0.5222  3.7738
   65MOL0     H 8727  10.106   4.096   5.574 -0.5297 -4.2150 -0.2885
   65MOL0     H 8728  10.041   4.019   5.433  1.7915  0.1429 -1.1995
   65MOL0     H 8729  10.264   3.993   5.400  2.9269  0.5269 -0.2608
   65MOL0     H 8730  10.223   4.123   5.287  1.0701  1.7904 -0.1504
   65MOL0     H 8731  10.332   4.160   5.569 -1.8235 -0.6371 -0.1115
   65MOL0     H 8732  10.310   4.293   5.450 -1.2294  0.0650  2.3633
   65MOL0     H 8733  10.473   4.134   5.307  0.7699  1.2558 -0.4552
   65MOL0     H 8734  10.508   4.069   5.474  3.4259  0.1366 -0.7415
   65MOL0     H 8735  10.718   4.483   5.420 -1.8936 -2.0071  1.9533
   65MOL0     H 8736  10.907   4.508   5.274 -0.6923  0.1122 -0.7499
   65MOL0     H 8737  11.176   4.026   4.914  1.5466 -0.5004 -0.9313
   65MOL0     H 8738  11.366   4.038   4.788 -0.3292  2.8191 -1.1412
   65MOL0     H 8739  11.720   4.275   4.960  2.1898 -0.3271 -1.1882
   65MOL0     H 8740  11.705   4.109   4.947 -1.1439  1.1235  1.9915
   65MOL0     H 8741  11.755   4.139   4.682 -0.1385  0.1044 -0.5155
   65MOL0     H 8742  11.795   4.310   4.746 -0.2070  0.0408 -0.5675
   65MOL0     H 8743  11.920   4.029   4.790 -2.6032  0.6628 -1.7977
   65MOL0     H 8744  11.980   4.159   4.690  0.5434 -1.1297 -0.0470
   65MOL0     H 8745  11.980   4.155   4.993 -3.0484  0.6129 -1.1589
   65MOL0     H 8746  12.034   4.296   4.891 -0.3241  0.2882 -0.7802
   65MOL0     H 8747  12.235   4.192   4.942  0.8517 -0.2586 -0.4704
   65MOL0     H 8748  12.203   4.150   4.773 -1.1112 -0.7415 -0.6984
   65MOL0     H 8749  12.167   3.981   5.024  2.5982  5.3791  0.9669
   65MOL0     H 8750  12.091   3.934   4.869 -0.4694  0.1403  0.5572
   65MOL0     H 8751  12.392   3.974   4.896 -1.2640 -1.3053  3.6800
   65MOL0     H 8752  12.300   3.916   4.751 -4.2072 -0.3165  0.4179
   65MOL0     H 8753  12.278   3.692   4.885  1.4842 -1.7868  1.2267
   65MOL0     H 8754  12.454   3.749   4.884  0.4035  0.0185  0.0630
   65MOL0     H 8755  11.533   4.329   5.065 -0.6718  1.0567 -1.0242
   65MOL0     H 8756  11.333   4.332   5.184  1.1200 -0.1514  0.4790
   65MOL0     H 8757  10.910   4.085   5.217 -1.6826 -1.1610  0.4619
   65MOL0     H 8758  10.704   4.067   5.341  0.2643  0.3296 -1.3348
   65MOL0     H 8759   8.927   4.990   5.920 -0.7378  0.4859  1.3656
   65MOL0     H 8760   8.685   5.047   5.953 -0.2184 -0.0085 -0.0327
   65MOL0     H 8761   8.242   4.907   5.578 -1.1409  1.9282 -0.2967
   65MOL0     H 8762   7.999   4.898   5.586 -1.0731  2.2666 -0.3160
   65MOL0     H 8763   7.769   4.838   5.638 -0.6316 -0.6714  0.1630
   65MOL0     H 8764   7.815   5.011   5.623  2.7711  0.8321  2.2450
   65MOL0     H 8765   7.580   5.022   5.681 -1.3443  0.9942  1.2835
   65MOL0     H 8766   7.709   5.082   5.795 -0.3666 -0.9418  2.7268
   65MOL0     H 8767   7.665   4.909   5.954  0.9678 -0.1227 -1.7489
   65MOL0     H 8768   7.581   4.806   5.829  1.7222 -1.1833 -0.8454
   65MOL0     H 8769   7.405   4.969   5.813  0.5947 -2.4800  0.5027
   65MOL0     H 8770   7.414   4.883   5.965  3.2025 -3.1214  0.1089
   65MOL0     H 8771   7.512   5.246   6.138 -1.2720  0.0757  0.7667
   65MOL0     H 8772   8.000   5.011   5.997  0.5342  0.9076  0.8490
   65MOL0     H 8773   8.336   5.125   5.992 -1.0219 -0.7591 -3.6397
   65MOL0     H 8774   8.196   5.100   6.087 -0.8156  0.4960  0.1287
   65MOL0     H 8775   8.309   4.967   6.088  0.4163  2.1948  2.5017
   66MOL0     O 8776   2.316   2.916  10.935 -0.0880  0.4505 -0.4751
   66MOL0     C 8777   2.357   2.860  10.837 -0.6235 -0.7037  0.5975
   66MOL0     O 8778   2.304   2.761  10.763  0.1068  0.0383  0.0128
   66MOL0     C 8779   2.195   2.680  10.799  0.5232 -0.6858 -1.1192
   66MOL0     C 8780   2.186   2.543  10.772 -0.6515  0.4714 -1.1474
   66MOL0     C 8781   2.062   2.479  10.788  0.0288 -0.1413  0.1458
   66MOL0     C 8782   1.948   2.550  10.832 -0.2636 -0.2171 -0.7111
   66MOL0     O 8783   1.828   2.484  10.848  0.7169 -0.3013 -0.3771
   66MOL0     C 8784   1.711   2.534  10.921 -0.6703 -0.1443  0.1348
   66MOL0     C 8785   1.597   2.440  10.902  0.2968  0.4373  0.5289
   66MOL0     C 8786   1.473   2.466  10.986  0.6573 -0.0894 -0.4928
   66MOL0     C 8787   1.354   2.371  10.971  0.1193  0.4508 -1.4380
   66MOL0     C 8788   1.218   2.442  10.979  0.1771  1.0876 -0.9980
   66MOL0     C 8789   1.103   2.352  11.018 -0.6726 -0.3639 -0.8756
   66MOL0     C 8790   1.040   2.292  10.891 -0.2503 -0.3636  0.3976
   66MOL0     C 8791   0.905   2.225  10.922 -0.3248  0.3839 -0.5357
   66MOL0     N 8792   0.930   2.096  10.986 -0.7512  0.3528  0.1257
   66MOL0     C 8793   1.014   1.996  10.943 -0.0359 -0.4864 -0.5917
   66MOL0     C 8794   1.039   1.920  11.054 -0.8494  0.4258 -0.0238
   66MOL0     C 8795   1.098   1.781  11.058  0.0397 -0.3104  0.6204
   66MOL0     C 8796   1.243   1.799  11.001  0.3046 -0.6166 -0.2226
   66MOL0     C 8797   1.298   1.677  10.960  0.2769  0.0936 -0.4840
   66MOL0     C 8798   1.434   1.693  10.898  0.5919 -0.6736 -1.1021
   66MOL0     O 8799   1.522   1.739  10.995 -0.2402 -0.3091 -0.2575
   66MOL0     C 8800   1.651   1.781  10.945  0.5619  0.3558  0.2903
   66MOL0     C 8801   1.750   1.808  11.033 -0.3017  0.1725  0.2077
   66MOL0     C 8802   1.882   1.839  11.002 -0.8091 -0.3992  1.0551
   66MOL0     C 8803   1.922   1.841  10.863  0.0866 -0.6050  0.5317
   66MOL0     C 8804   2.055   1.885  10.820 -0.1361  0.3740 -1.1735
   66MOL0     O 8805   2.084   1.876  10.692  0.2696 -0.7457 -0.2040
   66MOL0     C 8806   2.214   1.862  10.660 -0.2864 -0.8009 -0.4837
   66MOL0     C 8807   2.299   1.759  10.704 -0.0028  0.5886 -0.6749
   66MOL0     C 8808   2.434   1.748  10.660  0.1086 -0.5781  1.4187
   66MOL0     C 8809   2.489   1.850  10.579  0.4626  0.9835 -0.3781
   66MOL0     O 8810   2.629   1.843  10.561 -0.0219  0.0679  0.1066
   66MOL0     C 8811   2.683   1.927  10.448  0.6813  0.5694 -1.0271
   66MOL0     C 8812   2.817   1.866  10.412 -0.0594  0.6431  0.7346
   66MOL0     C 8813   2.919   1.899  10.527 -0.1111 -0.8182  0.0847
   66MOL0     C 8814   3.045   1.854  10.482  0.0121  0.3303  0.3681
   66MOL0     C 8815   3.150   1.882  10.592 -1.3272  0.0116  0.0218
   66MOL0     C 8816   3.285   1.808  10.543 -0.1123  0.6875 -0.0057
   66MOL0     C 8817   3.397   1.842  10.641  0.2482 -0.1460 -0.3296
   66MOL0     C 8818   3.517   1.754  10.615 -0.0746 -0.8555  0.4883
   66MOL0    Cl 8819   3.631   1.757  10.755  0.0198 -0.2604  0.0040
   66MOL0     C 8820   2.402   1.945  10.517  0.4159 -0.3620  0.3220
   66MOL0     C 8821   2.264   1.948  10.559 -0.7877 -1.5066  1.6771
   66MOL0     O 8822   2.128   1.937  10.906  0.3315 -0.2628  0.7945
   66MOL0     C 8823   1.815   1.838  10.770  1.3381  0.0006 -0.3145
   66MOL0     C 8824   1.684   1.805  10.807  0.4714 -0.6476 -0.1512
   66MOL0     N 8825   0.967   1.971  11.158  0.0517  0.2635 -0.5861
   66MOL0     N 8826   0.902   2.079  11.122  0.0540  0.2016 -0.4087
   66MOL0     C 8827   1.962   2.687  10.855 -0.4244  0.0444 -0.5762
   66MOL0     C 8828   2.084   2.750  10.841 -0.0138 -0.1026 -0.2425
   66MOL0     C 8829   2.495   2.902  10.788  0.4683  0.2991 -0.3299
   66MOL0     C 8830   2.569   2.811  10.714 -0.1320  0.0074 -0.6763
   66MOL0     C 8831   2.702   2.826  10.690  0.1981 -0.5624  0.2216
   66MOL0     C 8832   2.776   2.932  10.749 -0.5355  0.0223  0.0578
   66MOL0     O 8833   2.905   2.934  10.769 -0.8042  0.2102  0.0402
   66MOL0     C 8834   2.995   2.883  10.665 -0.2437 -0.1576  0.1101
   66MOL0     C 8835   3.141   2.922  10.687 -0.1140  0.5439  0.0453
   66MOL0     C 8836   3.153   3.072  10.733 -0.0406  0.0135  0.2367
   66MOL0     C 8837   3.143   3.169  10.603 -0.5129 -0.6434 -0.8719
   66MOL0     C 8838   3.170   3.306  10.656 -0.1985 -0.8584  0.7186
   66MOL0     C 8839   3.196   3.418  10.687 -0.8451 -0.1662 -0.8431
   66MOL0     C 8840   2.702   3.035  10.813 -0.1854 -0.6264  1.5567
   66MOL0     C 8841   2.556   3.025  10.820 -0.3730  0.0903  0.4550
   66MOL0     C 8842   2.465   3.141  10.856  0.2846 -0.1158  0.3648
   66MOL0     H 8843   2.266   2.483  10.729 -1.4246 -0.5089 -1.2527
   66MOL0     H 8844   2.059   2.371  10.788  0.7203 -0.1682  0.7732
   66MOL0     H 8845   1.723   2.536  11.030 -0.6111  0.0639  0.1251
   66MOL0     H 8846   1.680   2.632  10.884 -0.6020 -0.0402  0.3543
   66MOL0     H 8847   1.636   2.340  10.923  0.3767  0.5489  0.9195
   66MOL0     H 8848   1.558   2.445  10.800  0.9017  0.9291  0.3220
   66MOL0     H 8849   1.437   2.565  10.958 -0.8996 -0.2512  0.8232
   66MOL0     H 8850   1.494   2.478  11.092  0.5056 -0.2114 -0.4490
   66MOL0     H 8851   1.351   2.318  10.875 -1.0825 -1.0785 -0.5985
   66MOL0     H 8852   1.351   2.309  11.061  0.7607 -2.1766 -3.1020
   66MOL0     H 8853   1.225   2.516  11.060 -0.6847 -1.4487  1.5648
   66MOL0     H 8854   1.195   2.495  10.886 -4.9104 -3.7387 -3.0701
   66MOL0     H 8855   1.135   2.271  11.084 -0.9236  0.1213 -0.1319
   66MOL0     H 8856   1.030   2.407  11.079  1.1342  2.2990 -0.9713
   66MOL0     H 8857   1.105   2.224  10.837 -3.9064 -2.6151 -1.6024
   66MOL0     H 8858   1.021   2.374  10.820  1.3352 -0.5694 -0.2875
   66MOL0     H 8859   0.842   2.284  10.990 -0.1164  0.8043 -0.7049
   66MOL0     H 8860   0.848   2.204  10.831  1.4602 -0.8343 -1.4298
   66MOL0     H 8861   1.048   1.965  10.845  1.1817 -1.9643  0.2284
   66MOL0     H 8862   1.103   1.748  11.163 -0.9708 -1.4704  0.3271
   66MOL0     H 8863   1.042   1.713  10.994 -0.4524  0.1146  0.5965
   66MOL0     H 8864   1.246   1.868  10.916 -2.1180  1.8222  1.5167
   66MOL0     H 8865   1.297   1.840  11.086 -1.5700  0.8873  0.3153
   66MOL0     H 8866   1.231   1.629  10.888  0.4849  0.8233 -1.1766
   66MOL0     H 8867   1.329   1.620  11.048  2.1122  0.7378 -0.6620
   66MOL0     H 8868   1.427   1.756  10.809  2.6787  2.1247  0.5302
   66MOL0     H 8869   1.472   1.601  10.852  0.9088 -0.1158 -1.9689
   66MOL0     H 8870   1.743   1.810  11.142 -1.6771  3.1868  0.1511
   66MOL0     H 8871   1.955   1.865  11.078 -0.3776 -0.5815  0.7053
   66MOL0     H 8872   2.277   1.680  10.776 -0.9549  1.6880  0.2999
   66MOL0     H 8873   2.497   1.664  10.683  1.6874  1.1984  4.2174
   66MOL0     H 8874   2.617   1.925  10.360 -0.2703 -2.0155 -0.3625
   66MOL0     H 8875   2.688   2.030  10.482 -2.9047  0.6846 -0.4540
   66MOL0     H 8876   2.804   1.758  10.409  2.7763  0.2372 -0.4558
   66MOL0     H 8877   2.841   1.906  10.313  1.3459  1.2460  1.2871
   66MOL0     H 8878   2.920   2.004  10.557  0.8226 -1.0892  1.0835
   66MOL0     H 8879   2.885   1.844  10.615 -2.8641  0.2230 -0.2178
   66MOL0     H 8880   3.081   1.898  10.388 -3.3942  2.0241 -0.2899
   66MOL0     H 8881   3.054   1.746  10.467 -0.1692  0.4034 -0.3066
   66MOL0     H 8882   3.115   1.842  10.688 -0.1977 -0.0094  0.4330
   66MOL0     H 8883   3.159   1.990  10.603 -3.3004  0.5895 -2.7764
   66MOL0     H 8884   3.281   1.700  10.528  1.6115  0.5299  0.4905
   66MOL0     H 8885   3.319   1.846  10.446 -2.2047 -1.1331 -1.5578
   66MOL0     H 8886   3.357   1.807  10.737 -1.4808  0.2212 -0.8670
   66MOL0     H 8887   3.430   1.946  10.639  1.7257 -0.5762  0.0921
   66MOL0     H 8888   3.477   1.654  10.598 -0.6035 -0.3224 -1.6402
   66MOL0     H 8889   3.567   1.782  10.522 -0.4823 -3.3583 -0.5418
   66MOL0     H 8890   2.438   2.017  10.444  0.7683  0.9144  1.7126
   66MOL0     H 8891   2.195   2.020  10.516  0.7352  0.4428  2.3730
   66MOL0     H 8892   1.841   1.852  10.665  0.5116 -2.2351 -0.8739
   66MOL0     H 8893   1.603   1.811  10.735 -0.1182  2.7856  0.6475
   66MOL0     H 8894   1.878   2.745  10.893 -0.7897 -1.2554  0.7101
   66MOL0     H 8895   2.095   2.856  10.856  0.7627 -0.0154 -1.2895
   66MOL0     H 8896   2.529   2.719  10.673 -2.3612  0.5733  0.0965
   66MOL0     H 8897   2.764   2.746  10.651  0.1740 -1.1362  1.3117
   66MOL0     H 8898   2.964   2.928  10.571  1.0460 -0.1408 -0.3297
   66MOL0     H 8899   2.992   2.774  10.657  0.4682 -0.2145  0.5213
   66MOL0     H 8900   3.191   2.904  10.592  0.0238  0.5406  0.1186
   66MOL0     H 8901   3.190   2.860  10.763  3.9040  0.0445 -2.6586
   66MOL0     H 8902   3.247   3.089  10.785 -0.4992  0.2358  1.0117
   66MOL0     H 8903   3.068   3.098  10.798  0.2794  1.1995  0.2083
   66MOL0     H 8904   3.216   3.132  10.531 -1.3504 -0.5568 -1.7892
   66MOL0     H 8905   3.047   3.150  10.553 -0.4759 -2.5083 -0.3095
   66MOL0     H 8906   3.213   3.519  10.719  2.4103 -1.2559  1.3440
   66MOL0     H 8907   2.763   3.115  10.852 -3.2449  2.6521  0.1791
   66MOL0     H 8908   2.370   3.150  10.803  1.6577  1.8071 -1.9642
   66MOL0     H 8909   2.452   3.142  10.965  1.9449  1.3065  0.6019
   66MOL0     H 8910   2.520   3.232  10.831  3.4985 -2.3102 -1.4167
   67MOL0     O 8911   2.540   9.888   1.029 -0.1697  0.1619  0.4757
   67MOL0     C 8912   2.524   9.999   0.989  0.4442  0.1613 -0.1644
   67MOL0     O 8913   2.557  10.115   1.056  0.4451 -0.3225 -0.7744
   67MOL0     C 8914   2.629  10.123   1.177  0.1859 -0.1953 -0.2035
   67MOL0     C 8915   2.698  10.240   1.201 -0.4399  0.4099  0.6932
   67MOL0     C 8916   2.788  10.252   1.307 -0.7339  0.6800 -0.0621
   67MOL0     C 8917   2.794  10.152   1.407 -0.2688 -0.6390 -0.1408
   67MOL0     O 8918   2.866  10.177   1.522 -0.5381 -0.2068 -0.2191
   67MOL0     C 8919   2.868  10.087   1.635 -0.7991  0.2019  0.5288
   67MOL0     C 8920   3.004  10.110   1.702 -0.5401 -0.6366  0.7028
   67MOL0     C 8921   3.022  10.005   1.822  0.1889  0.0251  0.6866
   67MOL0     C 8922   3.142  10.031   1.900 -0.4150  0.1744 -0.1559
   67MOL0     C 8923   3.271  10.027   1.817 -1.2081  0.0120 -0.3381
   67MOL0     C 8924   3.389   9.967   1.887 -0.8210  0.0085  0.5053
   67MOL0     C 8925   3.527   9.990   1.812  0.9027 -0.2416 -0.0580
   67MOL0     C 8926   3.652   9.998   1.898 -0.3317 -0.8010  1.0277
   67MOL0     N 8927   3.670   9.876   1.968 -0.3261  0.0810  1.0282
   67MOL0     C 8928   3.673   9.866   2.105  0.1660 -0.8532  0.1922
   67MOL0     C 8929   3.688   9.738   2.130 -0.6104 -0.0803  0.4818
   67MOL0     C 8930   3.687   9.667   2.257 -0.2948 -0.2617 -0.1330
   67MOL0     C 8931   3.728   9.514   2.245  0.7472  0.1816 -0.3462
   67MOL0     C 8932   3.881   9.498   2.200  0.1272  0.4515  0.0453
   67MOL0     C 8933   3.908   9.346   2.233  0.2765 -0.0384 -0.3703
   67MOL0     O 8934   4.019   9.288   2.165 -0.1078 -0.6515 -0.1736
   67MOL0     C 8935   4.154   9.333   2.193 -0.2492 -0.9017 -0.1004
   67MOL0     C 8936   4.200   9.409   2.296  0.4207  0.5258 -0.3627
   67MOL0     C 8937   4.334   9.441   2.314 -0.4710  0.2913 -0.2696
   67MOL0     C 8938   4.431   9.407   2.212  0.9056 -0.2518 -1.6413
   67MOL0     C 8939   4.576   9.429   2.234 -0.4830  0.2505 -0.3545
   67MOL0     O 8940   4.652   9.355   2.143 -0.0537 -0.1807 -0.7852
   67MOL0     C 8941   4.781   9.381   2.140  0.7804 -0.1325  0.2590
   67MOL0     C 8942   4.883   9.320   2.215 -0.0293 -0.1204 -0.7436
   67MOL0     C 8943   5.011   9.364   2.208  0.2720  0.7088 -0.7391
   67MOL0     C 8944   5.044   9.473   2.128  0.0544 -0.4427  0.0848
   67MOL0     O 8945   5.169   9.527   2.114  0.5342 -0.0900 -0.1230
   67MOL0     C 8946   5.290   9.448   2.115  0.5856  0.6641  0.1499
   67MOL0     C 8947   5.332   9.453   1.964 -0.6434 -0.1963  0.6842
   67MOL0     C 8948   5.387   9.592   1.936  0.7981  0.7368 -0.2191
   67MOL0     C 8949   5.530   9.608   1.990  0.4240 -0.2931  0.3705
   67MOL0     C 8950   5.639   9.570   1.886 -1.3429 -0.2176  0.2200
   67MOL0     C 8951   5.765   9.652   1.923 -0.1719  0.2061  0.0557
   67MOL0     C 8952   5.878   9.655   1.816 -0.6019 -0.4108  0.1107
   67MOL0     C 8953   5.841   9.742   1.696  0.2384  0.2117 -0.2647
   67MOL0    Cl 8954   5.928   9.694   1.546  0.2653 -0.3460  0.0800
   67MOL0     C 8955   4.948   9.523   2.042  0.5292  0.3963  0.6123
   67MOL0     C 8956   4.817   9.481   2.057 -0.0592 -0.5936 -0.1975
   67MOL0     O 8957   4.621   9.503   2.323 -0.1055  0.6027  0.6818
   67MOL0     C 8958   4.382   9.341   2.101  0.6934  0.0443  1.2217
   67MOL0     C 8959   4.244   9.315   2.087  0.2863  1.2747  0.2205
   67MOL0     N 8960   3.684   9.675   2.006 -0.7826 -0.3613  0.7687
   67MOL0     N 8961   3.667   9.753   1.914 -0.2140  1.3968  0.6360
   67MOL0     C 8962   2.715  10.040   1.390  0.0391  0.2976  0.3087
   67MOL0     C 8963   2.636  10.026   1.274  0.5186  0.4190 -0.5264
   67MOL0     C 8964   2.418  10.005   0.876 -0.0564 -0.1757 -0.3938
   67MOL0     C 8965   2.399  10.130   0.814  0.5495 -0.5779 -0.2914
   67MOL0     C 8966   2.331  10.149   0.701 -0.6025 -0.2527  0.2004
   67MOL0     C 8967   2.268  10.044   0.627 -0.1167  0.2977  0.2706
   67MOL0     O 8968   2.189  10.067   0.517  0.1541 -0.2996  0.3577
   67MOL0     C 8969   2.172  10.205   0.471  0.3811 -0.3494 -0.4189
   67MOL0     C 8970   2.103  10.225   0.338  0.9184 -0.2418  0.2015
   67MOL0     C 8971   1.953  10.196   0.333  0.3209 -0.0799 -0.0479
   67MOL0     C 8972   1.896  10.189   0.188  0.0047  0.8618 -0.5044
   67MOL0     C 8973   1.894  10.315   0.117  0.1944 -0.1410  0.6184
   67MOL0     C 8974   1.886  10.420   0.061  0.0289 -0.4531  0.0719
   67MOL0     C 8975   2.279   9.913   0.690 -0.4647  0.1455 -0.1013
   67MOL0     C 8976   2.351   9.895   0.816 -0.2709  0.6679 -0.3786
   67MOL0     C 8977   2.348   9.750   0.868 -0.2405 -0.3383 -0.6404
   67MOL0     H 8978   2.699  10.321   1.129  3.0185  0.4897  0.6656
   67MOL0     H 8979   2.856  10.335   1.318 -1.3389  1.1960 -0.1958
   67MOL0     H 8980   2.791  10.087   1.713 -1.7869 -1.3171 -0.3974
   67MOL0     H 8981   2.863   9.986   1.595  3.4441 -0.4278  1.1910
   67MOL0     H 8982   3.013  10.213   1.737  0.3233 -0.7419  0.8066
   67MOL0     H 8983   3.077  10.094   1.622 -0.7497  2.5444 -0.2197
   67MOL0     H 8984   3.017   9.902   1.786  0.1847 -1.0852  3.6382
   67MOL0     H 8985   2.939  10.009   1.892 -0.8347 -0.1700 -0.4715
   67MOL0     H 8986   3.132  10.120   1.962  1.2919 -1.8854  3.4074
   67MOL0     H 8987   3.138   9.945   1.968 -2.3398  1.5051  1.5396
   67MOL0     H 8988   3.272   9.961   1.730  0.3725 -1.8219  0.9615
   67MOL0     H 8989   3.282  10.132   1.787 -4.1789  0.6731  0.6222
   67MOL0     H 8990   3.401  10.010   1.987  0.8441  0.3669  0.1798
   67MOL0     H 8991   3.375   9.861   1.911 -2.7916  0.5369  2.0277
   67MOL0     H 8992   3.522  10.083   1.755  0.6167  0.3936  0.9919
   67MOL0     H 8993   3.535   9.906   1.742 -1.0857 -0.9005  0.4736
   67MOL0     H 8994   3.733  10.024   1.830 -0.5784  0.4756  1.1862
   67MOL0     H 8995   3.637  10.075   1.975  0.3336 -1.6614  2.0431
   67MOL0     H 8996   3.666   9.951   2.172  0.0054  0.8725 -1.8771
   67MOL0     H 8997   3.754   9.711   2.331 -1.9476  1.2595  0.5132
   67MOL0     H 8998   3.588   9.682   2.301 -0.4618 -0.9830 -0.2461
   67MOL0     H 8999   3.703   9.469   2.342 -3.5961  1.5077 -0.6258
   67MOL0     H 9000   3.659   9.458   2.182  0.9540 -1.4057  0.7789
   67MOL0     H 9001   3.949   9.572   2.243  0.7907 -1.8090  3.3113
   67MOL0     H 9002   3.878   9.513   2.092 -1.0550 -2.9034 -0.5190
   67MOL0     H 9003   3.818   9.295   2.197 -0.0223  0.8516 -0.9210
   67MOL0     H 9004   3.911   9.334   2.342 -1.1275 -1.3103 -0.4480
   67MOL0     H 9005   4.137   9.419   2.384 -1.7483 -2.5443 -1.4070
   67MOL0     H 9006   4.366   9.479   2.410  3.4306 -1.9864 -0.4488
   67MOL0     H 9007   4.857   9.236   2.278 -1.2650 -0.2329 -1.3637
   67MOL0     H 9008   5.093   9.323   2.267 -0.0458  1.9385  0.5909
   67MOL0     H 9009   5.360   9.505   2.177  3.0185 -0.0494 -1.7581
   67MOL0     H 9010   5.270   9.349   2.156 -1.0455  0.6089 -0.6703
   67MOL0     H 9011   5.418   9.390   1.943 -0.8485 -1.2885  2.8178
   67MOL0     H 9012   5.250   9.429   1.896 -0.1467 -0.5063  0.1870
   67MOL0     H 9013   5.380   9.604   1.827 -1.0864 -0.2856 -0.2575
   67MOL0     H 9014   5.322   9.671   1.975  0.8810  0.6762  0.0454
   67MOL0     H 9015   5.559   9.540   2.071  3.0833  1.2805  0.8499
   67MOL0     H 9016   5.552   9.711   2.020  1.2858 -0.1529 -0.6955
   67MOL0     H 9017   5.623   9.583   1.779  1.0407 -4.2635 -0.8458
   67MOL0     H 9018   5.662   9.464   1.898 -0.7691 -0.4223 -2.1911
   67MOL0     H 9019   5.741   9.755   1.954  1.2552 -0.0127  2.1037
   67MOL0     H 9020   5.797   9.601   2.014 -2.8384 -1.8517 -0.0393
   67MOL0     H 9021   5.912   9.552   1.803 -2.3823 -0.8167 -1.8485
   67MOL0     H 9022   5.968   9.699   1.860 -0.6278 -1.5835  1.4278
   67MOL0     H 9023   5.734   9.743   1.674 -0.2701  0.6994  1.9928
   67MOL0     H 9024   5.869   9.847   1.713 -0.7637  0.3319  0.7234
   67MOL0     H 9025   4.970   9.592   1.961 -2.1886  2.5249  1.5283
   67MOL0     H 9026   4.738   9.513   1.989 -2.1370  0.8032  2.6599
   67MOL0     H 9027   4.444   9.303   2.021 -2.6407  0.9530 -2.0360
   67MOL0     H 9028   4.210   9.268   1.995 -0.1742  1.3424  0.3506
   67MOL0     H 9029   2.718   9.953   1.454  0.1408  0.4423  0.5019
   67MOL0     H 9030   2.573   9.939   1.259 -1.3765  2.0189 -2.3853
   67MOL0     H 9031   2.439  10.220   0.859  1.0049 -1.0949  0.3577
   67MOL0     H 9032   2.348  10.248   0.661 -0.4157 -0.8338 -1.2291
   67MOL0     H 9033   2.272  10.249   0.466  1.4977 -2.7787 -1.0953
   67MOL0     H 9034   2.121  10.257   0.553  0.9680 -2.9008  1.6925
   67MOL0     H 9035   2.149  10.158   0.266 -0.1058 -1.2634  0.4663
   67MOL0     H 9036   2.125  10.327   0.305 -1.5335  0.3570  0.1904
   67MOL0     H 9037   1.902  10.270   0.395  1.3047  0.6525 -0.0887
   67MOL0     H 9038   1.925  10.102   0.381  1.1659 -0.3806 -0.1111
   67MOL0     H 9039   1.950  10.109   0.136 -0.6793 -0.3802  0.6170
   67MOL0     H 9040   1.791  10.158   0.188 -0.5758  2.5013 -3.3989
   67MOL0     H 9041   1.885  10.524   0.033  1.6263 -0.6692 -0.8948
   67MOL0     H 9042   2.223   9.839   0.634 -0.8926  1.2574 -1.1946
   67MOL0     H 9043   2.448   9.705   0.878  0.7159  1.2155 -2.5285
   67MOL0     H 9044   2.322   9.749   0.974  1.1135  0.5502 -0.2717
   67MOL0     H 9045   2.281   9.690   0.807 -0.3052 -0.5772 -0.3393
   68MOL0     O 9046   6.293   0.285   1.747 -0.6552  0.0384 -0.1384
   68MOL0     C 9047   6.206   0.357   1.804  0.1238 -0.3201 -0.2508
   68MOL0     O 9048   6.234   0.482   1.862  0.5922 -0.4233  0.2334
   68MOL0     C 9049   6.361   0.538   1.860  0.4968  0.0437  0.6269
   68MOL0     C 9050   6.457   0.492   1.949 -0.5159 -0.0182  0.1346
   68MOL0     C 9051   6.583   0.558   1.954 -0.0208  0.1899 -0.1423
   68MOL0     C 9052   6.614   0.656   1.866 -0.0133  0.0672  0.8749
   68MOL0     O 9053   6.732   0.724   1.858 -0.4384  0.3604  0.0598
   68MOL0     C 9054   6.814   0.700   1.977  0.4781  0.1035  0.3465
   68MOL0     C 9055   6.946   0.771   1.971  0.9095 -0.3602  0.1204
   68MOL0     C 9056   7.040   0.689   1.885  0.8120  0.2698 -0.3302
   68MOL0     C 9057   7.122   0.592   1.981 -0.9370  0.9920  0.1487
   68MOL0     C 9058   7.214   0.495   1.913 -0.4167  0.4597  0.1430
   68MOL0     C 9059   7.332   0.579   1.843  0.8288  0.3214 -0.1113
   68MOL0     C 9060   7.432   0.485   1.783  0.5538  0.7669  0.8552
   68MOL0     C 9061   7.565   0.541   1.719  0.3425  0.0015 -0.5200
   68MOL0     N 9062   7.654   0.578   1.835  0.9464  0.0531  0.7084
   68MOL0     C 9063   7.683   0.515   1.953 -0.3707  0.2555  0.4480
   68MOL0     C 9064   7.789   0.581   2.006  0.3942 -0.5651 -0.0321
   68MOL0     C 9065   7.894   0.523   2.102  0.8137 -0.1287  0.2514
   68MOL0     C 9066   8.026   0.587   2.103 -1.0206 -0.9297 -0.2249
   68MOL0     C 9067   8.030   0.722   2.185  0.0369  0.4098 -0.3678
   68MOL0     C 9068   8.164   0.796   2.177  0.2822 -0.2814  0.3683
   68MOL0     O 9069   8.156   0.927   2.226 -0.3930  1.2229  0.5381
   68MOL0     C 9070   8.260   0.989   2.286  0.5503  0.6784  0.0730
   68MOL0     C 9071   8.241   1.090   2.375 -0.1253 -1.0577  0.0724
   68MOL0     C 9072   8.349   1.172   2.419  0.0896 -0.8041 -0.9444
   68MOL0     C 9073   8.485   1.145   2.378 -0.1638 -0.9634  0.3208
   68MOL0     C 9074   8.601   1.219   2.421  0.1444 -0.2920 -1.0333
   68MOL0     O 9075   8.579   1.323   2.510  0.4818 -0.2795  0.2504
   68MOL0     C 9076   8.682   1.354   2.598  0.1876 -0.9699 -0.1223
   68MOL0     C 9077   8.753   1.253   2.674  0.3076 -0.6478 -0.4110
   68MOL0     C 9078   8.845   1.292   2.770  0.5149  0.2277  0.6858
   68MOL0     C 9079   8.864   1.423   2.803 -0.1679 -0.5348  0.0356
   68MOL0     O 9080   8.955   1.454   2.901 -0.0905  0.0901 -0.4208
   68MOL0     C 9081   9.002   1.592   2.907 -0.4800 -0.6129 -0.3144
   68MOL0     C 9082   9.140   1.593   2.974 -0.2159  0.0753  0.2896
   68MOL0     C 9083   9.168   1.727   3.048  0.4716 -0.0829 -0.0756
   68MOL0     C 9084   9.316   1.731   3.094  0.0490  0.7999 -0.5504
   68MOL0     C 9085   9.332   1.872   3.168  0.1858 -0.8489  0.1769
   68MOL0     C 9086   9.458   1.874   3.250 -0.1811 -0.4372 -0.5814
   68MOL0     C 9087   9.587   1.833   3.185  0.2654  0.1431 -0.1189
   68MOL0     C 9088   9.705   1.868   3.276 -0.3808  0.0983  0.1604
   68MOL0    Cl 9089   9.866   1.832   3.208  0.0408  0.0433 -0.2737
   68MOL0     C 9090   8.791   1.522   2.737 -0.0389 -0.0529 -0.0662
   68MOL0     C 9091   8.704   1.490   2.633 -0.1071 -0.4778  0.0019
   68MOL0     O 9092   8.708   1.200   2.371  0.1689 -1.2341 -0.4991
   68MOL0     C 9093   8.497   1.043   2.283  0.5362  0.3949 -0.2996
   68MOL0     C 9094   8.387   0.965   2.241  0.4366  0.0503  0.2531
   68MOL0     N 9095   7.790   0.700   1.928 -0.6320  0.3048  0.2940
   68MOL0     N 9096   7.716   0.692   1.832 -0.1754 -0.5029  0.7862
   68MOL0     C 9097   6.517   0.706   1.773  0.4727  0.0579  0.4244
   68MOL0     C 9098   6.391   0.643   1.774  0.9704 -0.4188 -0.4342
   68MOL0     C 9099   6.060   0.310   1.806 -0.1708  0.6188  0.0437
   68MOL0     C 9100   6.036   0.171   1.808  1.2144 -0.2693 -0.2273
   68MOL0     C 9101   5.906   0.124   1.824  0.6931 -0.2971 -0.6201
   68MOL0     C 9102   5.795   0.208   1.801  0.4667 -0.1682  0.0233
   68MOL0     O 9103   5.673   0.152   1.806  0.4584 -0.4551 -0.6701
   68MOL0     C 9104   5.564   0.208   1.725 -1.0217 -0.5605  0.1015
   68MOL0     C 9105   5.436   0.140   1.760  0.4981  0.0613 -0.4626
   68MOL0     C 9106   5.400   0.167   1.908  0.5466  0.4488 -0.5173
   68MOL0     C 9107   5.265   0.090   1.945 -0.2772  0.8040  0.1401
   68MOL0     C 9108   5.173   0.196   1.915 -0.5086 -0.3279 -0.3052
   68MOL0     C 9109   5.109   0.293   1.867  0.1057  1.1985  0.3607
   68MOL0     C 9110   5.821   0.346   1.785  0.1902  0.2894 -0.6877
   68MOL0     C 9111   5.946   0.403   1.790 -0.4744  0.5461 -1.0966
   68MOL0     C 9112   5.948   0.558   1.772  0.4295 -0.7946  0.7290
   68MOL0     H 9113   6.433   0.410   2.015 -2.1642  0.0878 -0.2887
   68MOL0     H 9114   6.653   0.516   2.026  1.7909 -1.6405 -2.8018
   68MOL0     H 9115   6.758   0.721   2.069  2.5886 -2.4670  2.3954
   68MOL0     H 9116   6.829   0.592   1.989 -0.0626 -0.3392 -2.2806
   68MOL0     H 9117   6.986   0.790   2.071 -2.5744  2.2382  1.2303
   68MOL0     H 9118   6.931   0.870   1.926 -0.8540 -0.0967  1.1528
   68MOL0     H 9119   7.103   0.757   1.826  0.8955  0.8062  0.3624
   68MOL0     H 9120   6.986   0.621   1.819  1.0037 -1.2973  1.0845
   68MOL0     H 9121   7.183   0.647   2.053  0.7696  1.4117 -1.5284
   68MOL0     H 9122   7.043   0.541   2.037 -1.2124 -0.1498 -1.2122
   68MOL0     H 9123   7.264   0.422   1.976  1.6787 -0.5772 -2.5366
   68MOL0     H 9124   7.151   0.437   1.844 -0.0669 -1.0118  1.0301
   68MOL0     H 9125   7.281   0.639   1.767 -2.5188 -3.7658 -1.4676
   68MOL0     H 9126   7.384   0.645   1.913 -0.9707  2.3354 -0.5494
   68MOL0     H 9127   7.375   0.429   1.709 -0.1532  0.6854  1.4528
   68MOL0     H 9128   7.461   0.415   1.861  1.7950  3.4299  2.9492
   68MOL0     H 9129   7.621   0.461   1.669 -0.4780 -2.3772  2.0783
   68MOL0     H 9130   7.530   0.618   1.651 -0.0161 -0.9179 -1.3997
   68MOL0     H 9131   7.650   0.415   1.980  2.5476 -0.6897  0.8785
   68MOL0     H 9132   7.859   0.519   2.206  2.4884 -2.8423  0.8231
   68MOL0     H 9133   7.893   0.419   2.066 -2.3148 -0.6207  1.3959
   68MOL0     H 9134   8.101   0.515   2.137 -0.0632  0.1735  0.0345
   68MOL0     H 9135   8.062   0.606   2.001  2.0330 -0.3848  0.8334
   68MOL0     H 9136   8.017   0.702   2.292  1.7768  3.2304  0.4635
   68MOL0     H 9137   7.949   0.785   2.146 -1.9363 -0.5589  1.8936
   68MOL0     H 9138   8.196   0.798   2.073 -0.5265  1.4535  0.1175
   68MOL0     H 9139   8.236   0.731   2.227 -0.1613  0.5446  2.1730
   68MOL0     H 9140   8.137   1.114   2.396 -0.3452  0.5275 -2.3773
   68MOL0     H 9141   8.332   1.260   2.479  0.1406  0.4747 -2.7160
   68MOL0     H 9142   8.737   1.147   2.657  1.1692 -0.3211 -3.9164
   68MOL0     H 9143   8.900   1.218   2.828  0.3904 -0.3932  0.0227
   68MOL0     H 9144   9.004   1.648   2.813 -0.1223  0.4512  0.3038
   68MOL0     H 9145   8.929   1.646   2.968  0.9220  0.6221  0.3425
   68MOL0     H 9146   9.138   1.515   3.051 -2.2879 -0.4827 -0.2839
   68MOL0     H 9147   9.211   1.574   2.894 -1.2297  0.9414 -0.8519
   68MOL0     H 9148   9.155   1.806   2.973  0.2055 -1.4372 -1.5219
   68MOL0     H 9149   9.093   1.750   3.123 -0.5848  1.1902 -1.4639
   68MOL0     H 9150   9.383   1.718   3.009  2.4060  0.0749  1.3180
   68MOL0     H 9151   9.322   1.651   3.167 -2.2285  0.3843 -0.7374
   68MOL0     H 9152   9.248   1.879   3.237  1.2448  1.5089  1.3409
   68MOL0     H 9153   9.338   1.953   3.096  2.6019 -0.0412  1.1621
   68MOL0     H 9154   9.474   1.971   3.298 -0.8732 -0.6552  0.1313
   68MOL0     H 9155   9.442   1.814   3.341  1.5591  2.0725  1.5391
   68MOL0     H 9156   9.591   1.893   3.093 -1.9276 -1.7065 -1.5264
   68MOL0     H 9157   9.594   1.729   3.153 -2.9579  0.7723 -3.5392
   68MOL0     H 9158   9.704   1.972   3.311  0.0953 -0.2372  1.1989
   68MOL0     H 9159   9.705   1.808   3.367  0.5169 -0.8518 -0.4478
   68MOL0     H 9160   8.808   1.626   2.764  5.2217 -1.5359  3.8320
   68MOL0     H 9161   8.646   1.568   2.584 -2.4690 -1.7306  0.6107
   68MOL0     H 9162   8.593   1.022   2.236  0.3378 -0.2132 -0.4334
   68MOL0     H 9163   8.411   0.882   2.175  0.8428  0.1897  0.2237
   68MOL0     H 9164   6.546   0.781   1.699  0.3561  1.4993  1.7845
   68MOL0     H 9165   6.315   0.686   1.710  1.1618 -0.8403 -0.9530
   68MOL0     H 9166   6.123   0.107   1.821  1.9562 -0.2153 -3.8058
   68MOL0     H 9167   5.877   0.022   1.847 -0.8962  0.8186  3.1148
   68MOL0     H 9168   5.587   0.198   1.618  2.2110 -1.4090  0.7635
   68MOL0     H 9169   5.547   0.313   1.751  0.1949 -0.7511  1.8457
   68MOL0     H 9170   5.452   0.032   1.759  2.9558  0.3182  1.4091
   68MOL0     H 9171   5.358   0.169   1.688 -0.3918  1.3800  0.9826
   68MOL0     H 9172   5.395   0.271   1.942  0.1453 -0.9247  4.3888
   68MOL0     H 9173   5.476   0.109   1.961 -2.1179 -2.0435  0.8332
   68MOL0     H 9174   5.254  -0.000   1.884  1.0423  1.3173 -0.9173
   68MOL0     H 9175   5.251   0.061   2.049 -2.0861 -1.2246 -0.5942
   68MOL0     H 9176   5.058   0.382   1.835  3.0649  2.6077 -0.8109
   68MOL0     H 9177   5.743   0.417   1.757  1.8926  1.8189 -1.8492
   68MOL0     H 9178   5.936   0.607   1.869  0.3308 -0.3976  0.5193
   68MOL0     H 9179   6.042   0.596   1.732  0.2218 -0.7294  0.2978
   68MOL0     H 9180   5.868   0.589   1.704 -0.9253  0.4407  2.7872
   69MOL0     O 9181  10.260  10.496   5.076  0.2757  0.0440 -0.2482
   69MOL0     C 9182  10.196  10.493   4.969 -0.4597 -0.2183 -0.2786
   69MOL0     O 9183  10.225  10.415   4.856 -1.1054  0.4519  0.3148
   69MOL0     C 9184  10.341  10.344   4.858  0.3419  0.7767  0.5009
   69MOL0     C 9185  10.439  10.378   4.767 -0.2810 -0.3715  0.7256
   69MOL0     C 9186  10.559  10.306   4.756  0.1303 -0.6805 -0.4957
   69MOL0     C 9187  10.582  10.189   4.825  0.1914 -0.2608  0.5820
   69MOL0     O 9188  10.699  10.118   4.803  0.0548  0.2437  0.1177
   69MOL0     C 9189  10.715   9.991   4.854 -0.4065 -0.1581 -0.0898
   69MOL0     C 9190  10.849   9.938   4.806 -0.4166 -0.3307  0.3711
   69MOL0     C 9191  10.877   9.802   4.867 -0.1620  0.3272 -0.2237
   69MOL0     C 9192  10.764   9.700   4.872  0.3611 -0.2667  1.0679
   69MOL0     C 9193  10.801   9.556   4.894 -1.1326 -0.3037  0.4058
   69MOL0     C 9194  10.902   9.519   5.013  0.3381  0.0704 -0.4943
   69MOL0     C 9195  10.843   9.559   5.149  0.4316  0.1685 -0.4953
   69MOL0     C 9196  10.911   9.481   5.266  0.4929  0.1013 -0.4517
   69MOL0     N 9197  11.058   9.466   5.252  0.1320 -0.2955 -0.2499
   69MOL0     C 9198  11.150   9.512   5.335  0.5021 -0.6574  0.1374
   69MOL0     C 9199  11.258   9.447   5.296 -0.2847 -0.2750  0.0354
   69MOL0     C 9200  11.388   9.472   5.361  0.0854  0.3269  0.0865
   69MOL0     C 9201  11.443   9.339   5.431  0.3775 -0.2131  0.4371
   69MOL0     C 9202  11.554   9.379   5.534  0.3020 -0.4763 -0.0753
   69MOL0     C 9203  11.635   9.250   5.581  0.4033  0.5106  0.9122
   69MOL0     O 9204  11.760   9.304   5.615 -0.1460  0.1292  1.0379
   69MOL0     C 9205  11.853   9.218   5.664  0.6916  0.7064  0.3041
   69MOL0     C 9206  11.827   9.079   5.688 -0.2451 -0.3055  0.5729
   69MOL0     C 9207  11.922   8.995   5.742 -0.1933  0.2595  1.0602
   69MOL0     C 9208  12.048   9.051   5.774 -0.3738 -0.4404  0.2310
   69MOL0     C 9209  12.157   8.965   5.831  1.2379 -0.6660 -1.1797
   69MOL0     O 9210  12.270   9.033   5.873 -0.0457  0.7094  0.1561
   69MOL0     C 9211  12.385   8.966   5.908 -0.7604 -0.3563  0.1347
   69MOL0     C 9212  12.391   8.877   6.009  0.5073 -0.2662  0.4847
   69MOL0     C 9213  12.509   8.802   6.046 -0.5713 -0.0007  0.9752
   69MOL0     C 9214  12.625   8.818   5.973 -0.4603 -0.1502  0.3998
   69MOL0     O 9215  12.733   8.748   6.002  0.2550  1.4547  0.2269
   69MOL0     C 9216  12.778   8.748   6.143  0.6788  0.3760  0.1896
   69MOL0     C 9217  12.843   8.616   6.174 -0.3447 -0.6902 -0.0831
   69MOL0     C 9218  12.992   8.600   6.120 -0.1124  0.7489  0.1555
   69MOL0     C 9219  12.999   8.529   5.989  0.0198 -0.5324 -0.8577
   69MOL0     C 9220  13.011   8.379   5.984 -0.1591 -0.3214 -0.8835
   69MOL0     C 9221  13.139   8.317   5.971 -0.3568 -0.2011  0.1334
   69MOL0     C 9222  13.240   8.369   6.076 -0.3889  0.7907  0.4493
   69MOL0     C 9223  13.222   8.316   6.217  0.1616 -0.4027  0.4597
   69MOL0    Cl 9224  13.286   8.154   6.238 -0.1252  0.3306  0.0199
   69MOL0     C 9225  12.612   8.899   5.854 -0.9153  0.8225 -0.4053
   69MOL0     C 9226  12.497   8.976   5.834 -0.5759 -0.4630  0.4779
   69MOL0     O 9227  12.145   8.840   5.853  0.6011  1.0818  0.3697
   69MOL0     C 9228  12.075   9.182   5.742 -0.5670 -0.4070 -0.1115
   69MOL0     C 9229  11.980   9.266   5.692  0.1338  0.0246  0.2496
   69MOL0     N 9230  11.236   9.367   5.186  0.2162 -0.0928 -0.6697
   69MOL0     N 9231  11.115   9.374   5.167  0.1990  0.4399 -0.0924
   69MOL0     C 9232  10.477  10.146   4.916 -1.0463 -0.4672 -0.5255
   69MOL0     C 9233  10.364  10.220   4.928 -0.2933  0.4536 -0.1393
   69MOL0     C 9234  10.070  10.573   4.963 -0.9098  0.2389  0.7852
   69MOL0     C 9235   9.976  10.544   4.863 -0.0223  0.0117  0.1372
   69MOL0     C 9236   9.871  10.630   4.847 -0.0120  0.4144  0.6052
   69MOL0     C 9237   9.866  10.752   4.909 -1.0448  0.9579 -0.3098
   69MOL0     O 9238   9.782  10.856   4.872 -0.1869 -0.0084  0.1780
   69MOL0     C 9239   9.682  10.836   4.765 -1.0862  0.9592 -0.2636
   69MOL0     C 9240   9.641  10.961   4.687 -0.4817  0.3691 -0.0510
   69MOL0     C 9241   9.600  11.083   4.770 -0.5676  0.0657  0.0962
   69MOL0     C 9242   9.550  11.201   4.692  1.3749  0.2699 -0.3837
   69MOL0     C 9243   9.520  11.314   4.783 -0.2026 -0.5475  0.4831
   69MOL0     C 9244   9.507  11.410   4.861 -0.4703 -0.8906 -0.2369
   69MOL0     C 9245   9.957  10.776   5.009 -1.1613 -1.2229 -0.7216
   69MOL0     C 9246  10.054  10.692   5.040 -0.0103  1.4297 -0.1356
   69MOL0     C 9247  10.153  10.746   5.148  0.8870  0.6039 -0.9459
   69MOL0     H 9248  10.429  10.466   4.704 -2.8142 -0.3348  1.0915
   69MOL0     H 9249  10.634  10.334   4.682  0.3796 -1.0256 -0.3792
   69MOL0     H 9250  10.716   9.987   4.963 -1.2717  1.5645  0.0213
   69MOL0     H 9251  10.629   9.933   4.819 -1.0313  0.4612  0.3931
   69MOL0     H 9252  10.929  10.008   4.829 -1.4919  1.0715 -0.0331
   69MOL0     H 9253  10.837   9.910   4.701 -0.7255 -0.4338  0.4326
   69MOL0     H 9254  10.921   9.815   4.967  3.0428  2.8599 -1.7671
   69MOL0     H 9255  10.954   9.754   4.807  0.4739 -0.3578  1.0930
   69MOL0     H 9256  10.697   9.729   4.953  1.4205 -1.9067  2.6125
   69MOL0     H 9257  10.710   9.702   4.777  2.7429  2.1920 -0.4039
   69MOL0     H 9258  10.707   9.501   4.894  0.1359 -2.5851  0.7627
   69MOL0     H 9259  10.862   9.524   4.809  0.0396  2.6311  0.0199
   69MOL0     H 9260  10.912   9.411   5.001  0.0680  0.1523 -1.5481
   69MOL0     H 9261  11.003   9.557   4.994 -0.1650  0.9929 -1.4489
   69MOL0     H 9262  10.737   9.533   5.142  0.5065 -0.0363 -0.8965
   69MOL0     H 9263  10.861   9.666   5.164  1.3263  0.2632 -2.0779
   69MOL0     H 9264  10.874   9.520   5.361 -4.2916 -0.1739 -1.9180
   69MOL0     H 9265  10.870   9.380   5.262 -0.7215  0.5881 -0.7693
   69MOL0     H 9266  11.131   9.585   5.413 -3.5234 -1.2268 -0.0782
   69MOL0     H 9267  11.468   9.502   5.293  2.4142 -3.0160  1.1137
   69MOL0     H 9268  11.385   9.545   5.442  0.4355  0.0573  0.3441
   69MOL0     H 9269  11.377   9.282   5.497  0.4837  1.9494  2.5515
   69MOL0     H 9270  11.485   9.276   5.351 -0.1935 -1.0309  0.7625
   69MOL0     H 9271  11.517   9.439   5.618  1.3314 -1.0095  0.7984
   69MOL0     H 9272  11.621   9.445   5.478 -2.7117 -0.1796 -3.7456
   69MOL0     H 9273  11.644   9.182   5.496  1.5483  1.8705 -0.0770
   69MOL0     H 9274  11.584   9.214   5.672 -1.4361 -0.0593 -0.2772
   69MOL0     H 9275  11.734   9.030   5.661 -0.6182  0.5577  0.2300
   69MOL0     H 9276  11.921   8.889   5.763 -0.4007  0.1115  0.3246
   69MOL0     H 9277  12.302   8.858   6.068  0.3970 -0.8018  0.1544
   69MOL0     H 9278  12.502   8.738   6.133 -4.0870  0.0081  0.8025
   69MOL0     H 9279  12.848   8.832   6.144  0.6886  0.3983 -0.7295
   69MOL0     H 9280  12.695   8.764   6.212  1.0878  0.3510  0.6902
   69MOL0     H 9281  12.866   8.605   6.280  0.0007  1.7394  0.1549
   69MOL0     H 9282  12.783   8.529   6.145  1.1488 -2.3911  1.6709
   69MOL0     H 9283  13.032   8.699   6.096  1.8695 -0.2445 -0.8859
   69MOL0     H 9284  13.043   8.543   6.199  1.6999  2.6131  0.3957
   69MOL0     H 9285  13.072   8.577   5.924  1.2313  1.6084  1.8961
   69MOL0     H 9286  12.908   8.554   5.934  0.6674 -0.7678 -2.0703
   69MOL0     H 9287  12.946   8.347   5.902 -1.1629 -0.7828  0.0486
   69MOL0     H 9288  12.950   8.336   6.064  2.0041 -5.4094 -1.5730
   69MOL0     H 9289  13.121   8.209   5.969  1.6626 -0.5800  0.4663
   69MOL0     H 9290  13.181   8.338   5.872 -1.7543 -0.6460 -0.5749
   69MOL0     H 9291  13.250   8.478   6.071  0.4572  0.8835  2.6420
   69MOL0     H 9292  13.337   8.325   6.050 -1.3625 -1.9535  1.0991
   69MOL0     H 9293  13.254   8.391   6.290 -2.7539  2.1301 -0.6388
   69MOL0     H 9294  13.115   8.313   6.241  0.3339  0.0724  1.3180
   69MOL0     H 9295  12.697   8.911   5.787 -0.5177  1.8534  0.2601
   69MOL0     H 9296  12.503   9.047   5.752 -0.2493 -1.1005 -0.0660
   69MOL0     H 9297  12.177   9.210   5.766  1.0365 -2.2328 -3.8950
   69MOL0     H 9298  11.992   9.373   5.691 -1.9974  0.3725 -3.0638
   69MOL0     H 9299  10.516  10.072   4.984  1.3975  1.0978 -0.0877
   69MOL0     H 9300  10.281  10.189   4.989  1.4675 -2.1007  1.1154
   69MOL0     H 9301   9.976  10.457   4.798 -1.8276  0.1857 -0.1309
   69MOL0     H 9302   9.812  10.607   4.759 -1.2459  2.3003  0.8888
   69MOL0     H 9303   9.596  10.790   4.814  0.7192 -2.4233  0.0363
   69MOL0     H 9304   9.721  10.769   4.688  0.2763 -0.5430  1.6130
   69MOL0     H 9305   9.550  10.931   4.634 -0.5545 -0.9564  0.7931
   69MOL0     H 9306   9.720  10.993   4.618  0.6261  0.2688  1.1425
   69MOL0     H 9307   9.688  11.119   4.824 -1.1957  0.1255  1.1121
   69MOL0     H 9308   9.522  11.055   4.842 -1.5776  1.2337 -0.4934
   69MOL0     H 9309   9.616  11.231   4.610  1.4539 -0.5112 -0.6135
   69MOL0     H 9310   9.455  11.168   4.648  1.9682 -0.8433 -0.8531
   69MOL0     H 9311   9.492  11.510   4.898 -1.9455 -0.8693 -0.8207
   69MOL0     H 9312   9.942  10.866   5.066  1.8303 -0.8751 -0.3285
   69MOL0     H 9313  10.253  10.752   5.104  1.0354 -1.9840 -1.1165
   69MOL0     H 9314  10.112  10.844   5.173 -3.8349 -1.1051 -0.8813
   69MOL0     H 9315  10.158  10.669   5.226 -0.1114 -0.5223 -1.9505
   70MOL0     O 9316   7.731   0.703   4.021 -0.1397 -0.1056  0.1609
   70MOL0     C 9317   7.804   0.621   3.975 -0.1224 -0.2353 -0.5787
   70MOL0     O 9318   7.764   0.518   3.902 -0.6467 -0.3284 -0.0860
   70MOL0     C 9319   7.633   0.481   3.885 -0.7276 -0.6204  0.1893
   70MOL0     C 9320   7.585   0.383   3.973  0.6118  0.7378  0.6927
   70MOL0     C 9321   7.449   0.350   3.956 -0.6103  0.1056  0.8233
   70MOL0     C 9322   7.378   0.397   3.851  0.7398 -0.2273  0.4438
   70MOL0     O 9323   7.247   0.362   3.822  0.0540 -0.5968 -0.1900
   70MOL0     C 9324   7.175   0.280   3.915  0.9364  0.5976  0.2693
   70MOL0     C 9325   7.208   0.130   3.912 -0.0162  0.4736  0.5574
   70MOL0     C 9326   7.092   0.045   3.962 -0.4777 -0.3637 -0.0231
   70MOL0     C 9327   7.072   0.062   4.113 -0.0280 -0.2369 -0.5660
   70MOL0     C 9328   7.001  -0.050   4.179 -0.5261 -0.5059  0.2475
   70MOL0     C 9329   6.935   0.017   4.306 -0.1578 -0.1276  0.0935
   70MOL0     C 9330   6.892  -0.082   4.407  0.0239  0.2174 -0.0693
   70MOL0     C 9331   6.832  -0.032   4.537 -0.0960 -0.5089  0.5492
   70MOL0     N 9332   6.790  -0.141   4.628 -0.1196  0.1684  1.1531
   70MOL0     C 9333   6.812  -0.274   4.617  0.0499  0.6152  0.5687
   70MOL0     C 9334   6.742  -0.335   4.719  0.8467  1.4770 -0.2408
   70MOL0     C 9335   6.736  -0.481   4.733  0.3431 -0.2590 -0.2860
   70MOL0     C 9336   6.849  -0.547   4.809  0.2808 -1.0947  0.3480
   70MOL0     C 9337   6.975  -0.558   4.735  1.0416  0.2553 -0.5455
   70MOL0     C 9338   6.983  -0.635   4.606 -0.4337  0.3936  0.2960
   70MOL0     O 9339   6.980  -0.558   4.486  0.5461 -0.7764  0.0385
   70MOL0     C 9340   7.086  -0.503   4.419 -0.4460 -0.2722 -0.1485
   70MOL0     C 9341   7.220  -0.516   4.464 -0.4704  0.1052  0.1447
   70MOL0     C 9342   7.329  -0.450   4.398  0.9082 -0.1398  0.7575
   70MOL0     C 9343   7.310  -0.384   4.281  0.4680 -0.0470  0.7571
   70MOL0     C 9344   7.412  -0.314   4.197 -0.2729  0.4908 -0.1137
   70MOL0     O 9345   7.537  -0.345   4.219 -0.2263  0.4040 -0.1806
   70MOL0     C 9346   7.632  -0.325   4.128  0.5218 -0.4321  0.4978
   70MOL0     C 9347   7.629  -0.354   3.983  0.6277 -0.0932 -0.1229
   70MOL0     C 9348   7.753  -0.317   3.912 -0.1337  0.2190 -0.6532
   70MOL0     C 9349   7.865  -0.273   3.978 -0.0428  0.2333  0.0475
   70MOL0     O 9350   7.981  -0.243   3.909 -0.3173  0.5429  0.8206
   70MOL0     C 9351   8.002  -0.284   3.774  0.4456 -0.7098  0.1453
   70MOL0     C 9352   8.124  -0.220   3.703 -0.1926  0.5102  0.3956
   70MOL0     C 9353   8.259  -0.245   3.777  0.3071  0.5845 -0.0101
   70MOL0     C 9354   8.312  -0.397   3.747 -0.7611 -0.3344  0.1081
   70MOL0     C 9355   8.449  -0.416   3.808 -0.5362  0.1495 -0.3871
   70MOL0     C 9356   8.505  -0.548   3.762 -0.1990  0.3687 -0.2002
   70MOL0     C 9357   8.653  -0.556   3.796 -1.2415  0.3734  0.1828
   70MOL0     C 9358   8.705  -0.691   3.782 -0.7563 -0.3792  0.7903
   70MOL0    Cl 9359   8.674  -0.747   3.618 -0.0054 -0.3788  0.1412
   70MOL0     C 9360   7.853  -0.224   4.117 -0.8824  0.7486  0.4342
   70MOL0     C 9361   7.737  -0.248   4.185 -0.9826  0.3255 -0.2236
   70MOL0     O 9362   7.378  -0.241   4.104 -0.3374 -0.1168 -0.0424
   70MOL0     C 9363   7.174  -0.371   4.233  0.0461 -0.2968 -0.1639
   70MOL0     C 9364   7.070  -0.433   4.301  0.4970 -0.4661  0.4251
   70MOL0     N 9365   6.695  -0.239   4.797 -0.1739  0.1235 -0.1507
   70MOL0     N 9366   6.717  -0.124   4.743  0.0121  0.2057 -0.1517
   70MOL0     C 9367   7.424   0.491   3.763 -0.0904  0.7267 -0.3998
   70MOL0     C 9368   7.556   0.535   3.781  0.4430 -0.1449 -0.1996
   70MOL0     C 9369   7.950   0.652   3.993 -0.3102  0.7025  0.2265
   70MOL0     C 9370   7.997   0.760   4.071 -0.2665 -0.3995 -1.2378
   70MOL0     C 9371   8.124   0.800   4.088 -0.0510 -0.7622  0.4216
   70MOL0     C 9372   8.223   0.729   4.031 -0.1027 -0.5073  0.0051
   70MOL0     O 9373   8.352   0.772   4.032 -0.3036  0.2989  0.3427
   70MOL0     C 9374   8.414   0.770   4.155 -0.0896  0.7960 -0.0263
   70MOL0     C 9375   8.484   0.639   4.184  0.6471 -0.6298 -0.2480
   70MOL0     C 9376   8.580   0.603   4.076  0.5959  0.4167 -0.2259
   70MOL0     C 9377   8.713   0.675   4.080 -0.9423  0.1919 -0.2776
   70MOL0     C 9378   8.790   0.634   4.199 -0.1861  0.1491 -0.2078
   70MOL0     C 9379   8.861   0.609   4.293 -1.1957  0.3242 -0.6248
   70MOL0     C 9380   8.193   0.613   3.952 -0.2727 -0.2981  1.1386
   70MOL0     C 9381   8.059   0.575   3.939  0.7713  0.1005 -0.1291
   70MOL0     C 9382   8.037   0.448   3.855 -0.1688 -0.5155  0.1779
   70MOL0     H 9383   7.648   0.349   4.055  0.5315 -0.2863  0.3436
   70MOL0     H 9384   7.414   0.278   4.030 -0.4398 -0.6706  0.1644
   70MOL0     H 9385   7.170   0.306   4.021  0.4845  3.1867 -0.2966
   70MOL0     H 9386   7.071   0.298   3.883  0.6550 -3.6884 -1.9066
   70MOL0     H 9387   7.294   0.102   3.973 -0.6749 -0.7596  0.9398
   70MOL0     H 9388   7.226   0.103   3.808  0.7636  1.1858  0.4990
   70MOL0     H 9389   7.113  -0.058   3.932  1.0088  0.4331 -1.8695
   70MOL0     H 9390   6.994   0.064   3.917 -1.6723 -3.2547  1.1179
   70MOL0     H 9391   7.166   0.071   4.169 -1.0125  0.4835  1.0544
   70MOL0     H 9392   7.024   0.157   4.139  0.4309 -0.2908  0.5562
   70MOL0     H 9393   6.917  -0.068   4.112  0.6502 -2.2345 -0.8489
   70MOL0     H 9394   7.064  -0.138   4.197 -2.7392 -3.0639 -3.2697
   70MOL0     H 9395   7.005   0.088   4.354 -0.2740  0.5223 -0.6830
   70MOL0     H 9396   6.857   0.087   4.276 -0.5572 -0.9032 -0.7051
   70MOL0     H 9397   6.976  -0.147   4.433 -0.5712 -0.6598 -0.3022
   70MOL0     H 9398   6.813  -0.138   4.357 -0.9513  0.0170  1.6182
   70MOL0     H 9399   6.903   0.029   4.592 -0.3586  0.8045 -0.5290
   70MOL0     H 9400   6.746   0.035   4.525  0.1595 -0.3981 -0.7725
   70MOL0     H 9401   6.861  -0.331   4.538 -0.6871 -0.6775  1.0175
   70MOL0     H 9402   6.641  -0.502   4.781 -1.6087  2.9606 -2.3808
   70MOL0     H 9403   6.738  -0.533   4.637  0.8792 -2.4124  0.8214
   70MOL0     H 9404   6.851  -0.495   4.905 -0.6654 -1.7320  0.7309
   70MOL0     H 9405   6.822  -0.650   4.835  2.4954 -1.5738  1.0462
   70MOL0     H 9406   7.047  -0.588   4.812  0.4327 -1.7606 -0.7003
   70MOL0     H 9407   7.011  -0.458   4.710  0.2930  0.7509  0.3377
   70MOL0     H 9408   6.898  -0.703   4.595  0.4418 -0.7531  0.3752
   70MOL0     H 9409   7.069  -0.703   4.610  0.7035  1.8399  2.8393
   70MOL0     H 9410   7.247  -0.572   4.553  1.5500 -3.8647 -2.6905
   70MOL0     H 9411   7.426  -0.470   4.444  1.9160 -0.0369 -1.2127
   70MOL0     H 9412   7.536  -0.389   3.938  0.8612 -1.4611  0.4170
   70MOL0     H 9413   7.760  -0.325   3.804 -0.4282  0.6751 -0.7083
   70MOL0     H 9414   8.019  -0.392   3.772 -1.5706 -1.0641 -1.7283
   70MOL0     H 9415   7.916  -0.264   3.710  0.1257 -1.3540  0.3656
   70MOL0     H 9416   8.150  -0.234   3.598 -0.3775 -0.9222  0.5271
   70MOL0     H 9417   8.106  -0.113   3.716 -2.3317  0.3936 -1.0739
   70MOL0     H 9418   8.330  -0.171   3.740  1.8160  0.0330  1.6324
   70MOL0     H 9419   8.258  -0.222   3.884 -0.9860  0.1016  0.1052
   70MOL0     H 9420   8.327  -0.423   3.642  1.2272  0.1522  0.2234
   70MOL0     H 9421   8.244  -0.474   3.783 -1.9906  1.2090  1.2075
   70MOL0     H 9422   8.451  -0.409   3.917  0.6104  3.5274 -0.5042
   70MOL0     H 9423   8.519  -0.340   3.774  0.5520 -1.5667 -2.2346
   70MOL0     H 9424   8.457  -0.631   3.815  0.8919 -1.6940 -2.2365
   70MOL0     H 9425   8.486  -0.575   3.658 -1.5007 -2.3636  0.6443
   70MOL0     H 9426   8.678  -0.524   3.898 -0.0386  1.1725 -0.3401
   70MOL0     H 9427   8.706  -0.493   3.724  1.1672  0.6660  2.0970
   70MOL0     H 9428   8.812  -0.694   3.801 -0.8722 -3.0616  1.4633
   70MOL0     H 9429   8.660  -0.775   3.837  0.4741 -2.2998 -0.9685
   70MOL0     H 9430   7.924  -0.151   4.153 -0.7661 -0.0755  1.9312
   70MOL0     H 9431   7.723  -0.224   4.290 -2.2053 -1.8894  0.1959
   70MOL0     H 9432   7.153  -0.316   4.143  4.5999 -0.9302 -1.8822
   70MOL0     H 9433   6.973  -0.425   4.253  0.4709 -0.8813  0.4038
   70MOL0     H 9434   7.358   0.531   3.687 -2.4024 -1.6386  0.2238
   70MOL0     H 9435   7.604   0.593   3.703  0.3920 -3.2725 -2.8056
   70MOL0     H 9436   7.927   0.825   4.121 -2.3565 -1.6179 -2.4523
   70MOL0     H 9437   8.150   0.882   4.155  1.8085 -2.3817  1.8069
   70MOL0     H 9438   8.342   0.786   4.236  0.2429 -1.2384  0.7270
   70MOL0     H 9439   8.481   0.856   4.152 -1.8322  2.2879  1.2976
   70MOL0     H 9440   8.409   0.560   4.189 -1.7516  1.5097 -0.1538
   70MOL0     H 9441   8.542   0.646   4.277  2.5119  0.3309 -1.4152
   70MOL0     H 9442   8.526   0.602   3.980  0.5820  1.0861 -0.2249
   70MOL0     H 9443   8.601   0.497   4.095  2.4959  1.4426  4.7298
   70MOL0     H 9444   8.772   0.667   3.989  1.1884  0.4951  1.0108
   70MOL0     H 9445   8.688   0.780   4.098 -2.3664 -0.4287  1.7528
   70MOL0     H 9446   8.919   0.576   4.377 -0.8540 -1.4382 -1.4888
   70MOL0     H 9447   8.269   0.554   3.902 -0.1443 -1.1333  2.2731
   70MOL0     H 9448   7.960   0.451   3.778  2.0552 -0.1623 -2.1756
   70MOL0     H 9449   8.131   0.431   3.801  0.8096  0.5681  1.4446
   70MOL0     H 9450   8.020   0.359   3.917 -3.5485  0.9671  1.6099
   71MOL0     O 9451   5.311   7.353   2.348  0.0441 -0.8593 -0.1141
   71MOL0     C 9452   5.347   7.259   2.270  0.2096 -0.2952 -0.4192
   71MOL0     O 9453   5.466   7.266   2.201 -0.4588 -0.3455 -0.3762
   71MOL0     C 9454   5.546   7.367   2.238 -0.1932  0.2271  0.6991
   71MOL0     C 9455   5.619   7.357   2.352  0.5107 -0.0401  0.3167
   71MOL0     C 9456   5.695   7.460   2.400 -0.1346 -0.5952  0.8163
   71MOL0     C 9457   5.708   7.583   2.330 -0.2843 -0.0124 -0.5926
   71MOL0     O 9458   5.787   7.691   2.350 -0.0538 -0.6035 -0.6343
   71MOL0     C 9459   5.884   7.693   2.462 -0.1738 -0.5319  0.5106
   71MOL0     C 9460   6.007   7.603   2.424  0.3778  0.5272  0.9185
   71MOL0     C 9461   6.114   7.589   2.535  0.4767  0.1817 -0.9756
   71MOL0     C 9462   6.065   7.555   2.671 -0.2198  0.3934 -0.3048
   71MOL0     C 9463   6.174   7.487   2.752 -0.0892  0.3936  0.5718
   71MOL0     C 9464   6.149   7.502   2.903 -0.6495 -0.3350 -0.6361
   71MOL0     C 9465   6.266   7.459   3.006 -0.7566 -0.3200  0.0793
   71MOL0     C 9466   6.215   7.461   3.153 -0.1878  1.5132  0.8284
   71MOL0     N 9467   6.101   7.379   3.172  0.8031 -0.1254 -0.3175
   71MOL0     C 9468   6.080   7.241   3.181  0.4224 -0.2456  0.0640
   71MOL0     C 9469   5.947   7.224   3.218  0.1732  0.3460 -0.0133
   71MOL0     C 9470   5.876   7.093   3.249  0.0116 -0.4434 -0.5824
   71MOL0     C 9471   5.724   7.078   3.264 -0.7882 -1.1659 -0.2178
   71MOL0     C 9472   5.633   7.087   3.144  0.7011 -0.5215  1.0719
   71MOL0     C 9473   5.491   7.064   3.189 -0.3145  0.0008 -0.3168
   71MOL0     O 9474   5.400   7.055   3.082 -0.4689 -0.6627 -0.3256
   71MOL0     C 9475   5.270   7.009   3.093  0.3084 -0.3174  0.5042
   71MOL0     C 9476   5.201   6.985   3.214 -0.3941  0.7784  0.4593
   71MOL0     C 9477   5.062   6.951   3.224 -1.4448  0.6873 -0.2453
   71MOL0     C 9478   4.996   6.940   3.104  0.3184 -0.3918 -0.0231
   71MOL0     C 9479   4.854   6.897   3.112  0.0385 -0.1097  0.0768
   71MOL0     O 9480   4.790   6.885   3.230  0.6485 -0.0286 -0.2962
   71MOL0     C 9481   4.659   6.860   3.239 -0.1408  1.0590  0.0348
   71MOL0     C 9482   4.594   6.765   3.163 -0.7403 -0.0421  1.0488
   71MOL0     C 9483   4.462   6.733   3.190  0.6963 -0.4965 -0.2407
   71MOL0     C 9484   4.385   6.806   3.277  0.2900  0.2002  0.2886
   71MOL0     O 9485   4.261   6.765   3.311  0.5033  0.0473 -1.4499
   71MOL0     C 9486   4.190   6.814   3.435 -0.0014 -0.8259 -0.6655
   71MOL0     C 9487   4.036   6.787   3.442  0.1031  0.6762  1.0627
   71MOL0     C 9488   3.969   6.873   3.341 -0.0121 -1.7587 -0.7912
   71MOL0     C 9489   3.818   6.839   3.346 -0.0679 -0.0062 -0.1375
   71MOL0     C 9490   3.732   6.957   3.303 -0.0100  0.2526  0.2596
   71MOL0     C 9491   3.581   6.909   3.309 -0.3576 -0.2153  0.9342
   71MOL0     C 9492   3.531   6.818   3.189  0.0435  0.2415 -0.5274
   71MOL0     C 9493   3.386   6.774   3.234  0.4674 -0.1061 -0.9247
   71MOL0    Cl 9494   3.408   6.645   3.335 -0.2454  0.0722 -0.2413
   71MOL0     C 9495   4.448   6.906   3.353  0.1201 -1.2224  0.0433
   71MOL0     C 9496   4.581   6.933   3.338  0.7093  0.7928  0.2906
   71MOL0     O 9497   4.798   6.892   3.001  0.4091 -0.2145  0.6773
   71MOL0     C 9498   5.055   6.972   2.977 -0.4665  0.0989 -0.0252
   71MOL0     C 9499   5.195   6.993   2.974 -0.3347 -0.9202 -0.0440
   71MOL0     N 9500   5.890   7.350   3.234 -0.1497 -0.1166  0.0193
   71MOL0     N 9501   5.983   7.438   3.223  0.4605 -0.1694  0.4907
   71MOL0     C 9502   5.642   7.585   2.205  0.2826 -0.1392 -0.2115
   71MOL0     C 9503   5.569   7.478   2.150  0.7168  0.0283 -0.7627
   71MOL0     C 9504   5.265   7.143   2.246  0.8734  0.3178 -0.5450
   71MOL0     C 9505   5.296   7.065   2.136  0.2305 -0.1273 -0.1801
   71MOL0     C 9506   5.226   6.947   2.102 -0.0380  0.2044  0.3063
   71MOL0     C 9507   5.112   6.904   2.167 -0.1247  0.7234  0.4560
   71MOL0     O 9508   5.035   6.790   2.129 -0.1905  0.0155 -0.8813
   71MOL0     C 9509   5.089   6.710   2.019  0.6226  0.6992  0.5414
   71MOL0     C 9510   5.026   6.565   2.027 -0.4903  0.5351  0.0473
   71MOL0     C 9511   5.043   6.488   2.158  0.3205 -0.1572 -0.5034
   71MOL0     C 9512   4.972   6.363   2.164 -0.7952  0.1647 -0.0366
   71MOL0     C 9513   4.827   6.368   2.157  1.1712 -0.2787 -0.0932
   71MOL0     C 9514   4.709   6.379   2.143 -0.2529  0.9635  0.3140
   71MOL0     C 9515   5.085   6.980   2.284  0.7885  1.0092  0.1812
   71MOL0     C 9516   5.147   7.098   2.318 -0.3269  0.8632 -0.3715
   71MOL0     C 9517   5.093   7.176   2.441 -0.7020  0.4061  0.7222
   71MOL0     H 9518   5.601   7.261   2.399  2.0641 -0.8300 -0.6301
   71MOL0     H 9519   5.756   7.460   2.490 -1.1346  2.9261  1.6571
   71MOL0     H 9520   5.913   7.798   2.466 -0.1029 -0.2898 -3.1084
   71MOL0     H 9521   5.834   7.660   2.553 -0.9657 -1.7201 -0.3270
   71MOL0     H 9522   6.057   7.643   2.336  3.4115 -1.9964  1.3070
   71MOL0     H 9523   5.982   7.498   2.404 -1.9160  0.2579  4.3431
   71MOL0     H 9524   6.155   7.690   2.536 -1.9524  1.2464 -2.2058
   71MOL0     H 9525   6.196   7.520   2.511  0.5317 -1.2642  2.6147
   71MOL0     H 9526   6.034   7.651   2.715 -0.6616  0.2001 -0.1913
   71MOL0     H 9527   5.976   7.493   2.659  0.6316 -0.6780 -1.4483
   71MOL0     H 9528   6.172   7.379   2.736  0.0961  0.5675 -0.6665
   71MOL0     H 9529   6.275   7.521   2.731 -0.3260 -1.0402 -3.7147
   71MOL0     H 9530   6.131   7.609   2.912 -1.0636 -0.2274 -2.4414
   71MOL0     H 9531   6.054   7.458   2.934 -1.3712  2.1707  0.9914
   71MOL0     H 9532   6.352   7.526   3.006  0.1353 -1.4008  1.1674
   71MOL0     H 9533   6.308   7.362   2.980  0.1064 -0.2623  1.1924
   71MOL0     H 9534   6.294   7.432   3.223 -0.2489  0.0366  0.3085
   71MOL0     H 9535   6.185   7.565   3.174  0.3539  1.8529 -0.0306
   71MOL0     H 9536   6.155   7.169   3.149 -1.1897 -0.6822 -3.1184
   71MOL0     H 9537   5.915   7.032   3.167 -1.1033  0.6426 -1.9699
   71MOL0     H 9538   5.915   7.047   3.340  0.8544  0.5169 -0.4467
   71MOL0     H 9539   5.706   6.974   3.294 -0.9632 -0.6010  1.7209
   71MOL0     H 9540   5.691   7.154   3.335 -2.2282 -0.1853 -1.8425
   71MOL0     H 9541   5.662   7.019   3.063 -1.9365 -0.0855 -0.3389
   71MOL0     H 9542   5.645   7.191   3.114  1.0755 -1.0308 -0.6283
   71MOL0     H 9543   5.447   7.146   3.247  0.1155 -0.0741  0.1196
   71MOL0     H 9544   5.481   6.972   3.248  0.6891  0.2491  0.2617
   71MOL0     H 9545   5.269   6.988   3.299  0.5951 -2.5418 -0.0724
   71MOL0     H 9546   5.021   6.923   3.320  0.7286  2.2453  1.2212
   71MOL0     H 9547   4.643   6.715   3.081  0.5558  2.1143  0.4413
   71MOL0     H 9548   4.418   6.646   3.143  4.3786 -2.8124  0.1232
   71MOL0     H 9549   4.241   6.775   3.524  3.0446 -0.3726 -2.0577
   71MOL0     H 9550   4.210   6.922   3.438 -2.6194 -0.3026 -0.2043
   71MOL0     H 9551   4.012   6.682   3.424 -0.7023  0.9859  0.2433
   71MOL0     H 9552   3.992   6.818   3.538 -0.9732  1.3920  0.3664
   71MOL0     H 9553   3.980   6.979   3.365 -2.0203 -1.5535 -0.6096
   71MOL0     H 9554   4.012   6.867   3.240  1.1210  2.6906 -0.8079
   71MOL0     H 9555   3.788   6.814   3.448 -0.9223 -0.1767 -0.4215
   71MOL0     H 9556   3.803   6.750   3.284 -1.6154 -1.0599  1.6602
   71MOL0     H 9557   3.771   6.992   3.207  0.2501  1.0349  0.6436
   71MOL0     H 9558   3.745   7.039   3.375  1.6587  1.8648 -1.7680
   71MOL0     H 9559   3.550   6.863   3.403  0.8134  1.4505  2.1914
   71MOL0     H 9560   3.525   7.003   3.300 -3.0642 -1.7260  0.7446
   71MOL0     H 9561   3.593   6.730   3.170 -1.6920 -0.8324 -1.4393
   71MOL0     H 9562   3.516   6.870   3.094  0.1966  1.9592  0.3471
   71MOL0     H 9563   3.342   6.860   3.286  1.0342  0.8818 -2.0175
   71MOL0     H 9564   3.313   6.752   3.155 -1.4460 -0.2731  0.8037
   71MOL0     H 9565   4.403   6.960   3.436 -2.1283 -1.0266 -1.2076
   71MOL0     H 9566   4.629   7.009   3.399  1.8024  0.6774 -0.4036
   71MOL0     H 9567   4.993   6.973   2.889  0.4498  0.9810 -0.6898
   71MOL0     H 9568   5.237   7.013   2.876 -0.8809 -0.0190 -0.1065
   71MOL0     H 9569   5.641   7.672   2.140 -0.5082 -0.7343 -1.0149
   71MOL0     H 9570   5.516   7.472   2.056 -1.5441 -0.1141  0.4482
   71MOL0     H 9571   5.386   7.087   2.080  0.0421  1.4038  0.0918
   71MOL0     H 9572   5.274   6.900   2.017 -1.6958 -1.9018  0.4566
   71MOL0     H 9573   5.197   6.701   2.029  0.4052 -0.5006  2.3924
   71MOL0     H 9574   5.055   6.759   1.928  1.7093  0.9676  0.2758
   71MOL0     H 9575   5.067   6.511   1.940  0.3798 -0.9006  1.2911
   71MOL0     H 9576   4.921   6.576   2.000 -0.8473 -0.8232  0.7645
   71MOL0     H 9577   5.002   6.549   2.240 -1.9822  1.3310 -2.6237
   71MOL0     H 9578   5.151   6.480   2.172  0.9054  1.6791 -3.1731
   71MOL0     H 9579   5.008   6.302   2.081 -4.1591  1.2363 -2.5261
   71MOL0     H 9580   5.001   6.314   2.257  0.1625  1.3551  0.3083
   71MOL0     H 9581   4.606   6.394   2.120 -0.8309  0.6614  2.4612
   71MOL0     H 9582   4.999   6.943   2.339  0.1312 -0.0976 -1.5277
   71MOL0     H 9583   5.006   7.123   2.482 -0.8512 -0.1181 -0.2481
   71MOL0     H 9584   5.170   7.189   2.518  0.4901 -0.4097 -0.2957
   71MOL0     H 9585   5.062   7.274   2.406 -0.6213 -0.2261 -1.2273
   72MOL0     O 9586   9.744   3.424   1.933 -0.1674  0.7275  0.2372
   72MOL0     C 9587   9.675   3.521   1.969  0.9033 -0.0914  0.2095
   72MOL0     O 9588   9.714   3.646   2.009  0.5042 -0.1576  0.7891
   72MOL0     C 9589   9.851   3.667   2.007  0.6126 -0.3994  0.5897
   72MOL0     C 9590   9.930   3.666   2.122 -0.6859  0.4981 -0.0988
   72MOL0     C 9591  10.067   3.681   2.116 -0.6740  0.8149 -0.1702
   72MOL0     C 9592  10.131   3.685   1.989 -0.5384  0.4893  0.2398
   72MOL0     O 9593  10.265   3.693   1.975 -0.2652  0.3868  0.5094
   72MOL0     C 9594  10.309   3.816   2.019 -0.6761 -0.2032 -0.6524
   72MOL0     C 9595  10.460   3.820   2.004 -0.1123  0.3344  0.2728
   72MOL0     C 9596  10.497   3.822   1.857  0.8403 -0.4389 -0.4438
   72MOL0     C 9597  10.645   3.804   1.842  0.4948 -0.9931 -0.1088
   72MOL0     C 9598  10.724   3.928   1.892  0.3535  0.1532  0.5075
   72MOL0     C 9599  10.873   3.912   1.870  0.0284  0.4662  0.6580
   72MOL0     C 9600  10.948   4.007   1.960 -0.7510 -0.4867 -0.8376
   72MOL0     C 9601  11.068   4.049   1.867  0.0175 -0.9287  0.0187
   72MOL0     N 9602  11.167   3.958   1.807 -0.2079 -0.6061  0.2002
   72MOL0     C 9603  11.229   3.857   1.871 -0.1401 -0.6845  0.0436
   72MOL0     C 9604  11.342   3.821   1.805  0.0331 -0.2491 -0.1523
   72MOL0     C 9605  11.452   3.738   1.862 -0.3755  0.3358  0.3383
   72MOL0     C 9606  11.575   3.822   1.902  0.4007  0.2178 -0.0515
   72MOL0     C 9607  11.648   3.889   1.792 -0.0756 -0.4070 -0.0624
   72MOL0     C 9608  11.792   3.908   1.812  0.2195 -0.4844  0.2385
   72MOL0     O 9609  11.806   3.981   1.934  0.1914  0.0626 -0.0943
   72MOL0     C 9610  11.895   4.090   1.948  0.9836 -0.0294  0.1381
   72MOL0     C 9611  11.845   4.185   2.037  0.6215 -0.3110  0.1301
   72MOL0     C 9612  11.909   4.308   2.064 -0.6818  0.9995  0.9529
   72MOL0     C 9613  12.034   4.337   2.003  0.2239  0.3138  0.6407
   72MOL0     C 9614  12.110   4.450   2.051  0.1491 -0.4698 -0.5784
   72MOL0     O 9615  12.044   4.526   2.145 -0.3661  0.4583  0.8059
   72MOL0     C 9616  12.085   4.659   2.169  0.3054  1.0382 -0.4806
   72MOL0     C 9617  12.075   4.725   2.290  0.0772 -1.2621 -1.2558
   72MOL0     C 9618  12.128   4.849   2.309  0.0853  0.9363 -0.0239
   72MOL0     C 9619  12.181   4.926   2.208 -0.2550  0.2040 -0.3221
   72MOL0     O 9620  12.231   5.051   2.235 -0.4421  0.0231  0.1774
   72MOL0     C 9621  12.377   5.049   2.252  0.6836 -0.4735  0.5857
   72MOL0     C 9622  12.413   5.184   2.302 -0.7556  0.3336  0.2461
   72MOL0     C 9623  12.562   5.193   2.336 -0.5584  0.1716  0.8632
   72MOL0     C 9624  12.606   5.340   2.371  0.1894 -1.1728 -0.3455
   72MOL0     C 9625  12.760   5.371   2.362  0.0479 -0.5145  0.8823
   72MOL0     C 9626  12.852   5.281   2.447 -0.6991 -0.0603 -0.6805
   72MOL0     C 9627  12.991   5.281   2.384 -0.1757  0.1209 -0.4721
   72MOL0     C 9628  13.066   5.155   2.416 -0.2295  0.6339 -1.1628
   72MOL0    Cl 9629  13.206   5.148   2.306  0.2323  0.1148  0.4862
   72MOL0     C 9630  12.190   4.876   2.079  0.6660 -0.6869  0.3040
   72MOL0     C 9631  12.141   4.744   2.060  0.0612 -0.6201 -0.1782
   72MOL0     O 9632  12.225   4.467   2.018 -0.3554  0.7098 -0.4371
   72MOL0     C 9633  12.084   4.245   1.903  0.2570  1.0699 -0.0362
   72MOL0     C 9634  12.013   4.123   1.880 -0.7252  0.0882 -0.4065
   72MOL0     N 9635  11.342   3.901   1.699  0.6966 -0.7106  1.5079
   72MOL0     N 9636  11.233   3.974   1.698  0.7883 -0.2240  0.1395
   72MOL0     C 9637  10.057   3.696   1.870 -0.0387 -1.0520 -0.4534
   72MOL0     C 9638   9.915   3.693   1.877  0.8622 -0.2492 -1.2176
   72MOL0     C 9639   9.536   3.502   1.962  0.5892 -0.5155 -0.4551
   72MOL0     C 9640   9.484   3.381   1.997 -0.5353 -0.1912  0.0237
   72MOL0     C 9641   9.347   3.359   1.999  0.0847  0.0269 -0.6022
   72MOL0     C 9642   9.250   3.463   1.963 -0.4956  0.2426 -0.5601
   72MOL0     O 9643   9.115   3.443   1.967  0.2412  0.0124  0.4513
   72MOL0     C 9644   9.063   3.323   1.926  1.0855  0.0921  0.5351
   72MOL0     C 9645   8.917   3.319   1.937  0.1717 -0.2900  0.0734
   72MOL0     C 9646   8.880   3.347   2.087  0.6086  0.1538  0.2956
   72MOL0     C 9647   8.738   3.294   2.100  0.0962  0.3699 -0.8196
   72MOL0     C 9648   8.693   3.302   2.239  0.8216 -0.2634 -0.4892
   72MOL0     C 9649   8.635   3.307   2.344  0.1321  0.0715  0.2919
   72MOL0     C 9650   9.305   3.587   1.928  0.4761  0.6819 -0.6757
   72MOL0     C 9651   9.446   3.608   1.932  0.1172 -1.0827  0.7412
   72MOL0     C 9652   9.487   3.741   1.891  0.6436  0.2484 -0.3212
   72MOL0     H 9653   9.884   3.660   2.220 -0.9524 -1.1303 -0.2893
   72MOL0     H 9654  10.129   3.683   2.205 -2.4259  2.0936  1.0870
   72MOL0     H 9655  10.272   3.905   1.968 -0.7865  2.0256  2.9675
   72MOL0     H 9656  10.290   3.831   2.126  1.6790 -2.8485  0.2651
   72MOL0     H 9657  10.511   3.734   2.048 -0.9029 -1.3749 -1.9814
   72MOL0     H 9658  10.491   3.912   2.055 -4.1767  2.2121 -0.2056
   72MOL0     H 9659  10.459   3.913   1.809 -0.6018 -1.2987 -0.9804
   72MOL0     H 9660  10.453   3.734   1.810  2.4866 -1.8768  0.5599
   72MOL0     H 9661  10.684   3.718   1.898  1.0617 -1.9614 -1.9137
   72MOL0     H 9662  10.661   3.778   1.737  0.6628  0.5479 -0.4836
   72MOL0     H 9663  10.698   4.025   1.848 -0.6203 -0.1192  0.4612
   72MOL0     H 9664  10.696   3.939   1.998 -3.9855  1.2265 -0.5632
   72MOL0     H 9665  10.902   3.812   1.905  0.5271  0.8190  1.2726
   72MOL0     H 9666  10.897   3.908   1.764 -0.4313 -2.0439  0.5790
   72MOL0     H 9667  11.002   3.967   2.046  3.3090  3.9181 -0.8862
   72MOL0     H 9668  10.893   4.092   2.001 -0.2345 -1.3911  1.9433
   72MOL0     H 9669  11.043   4.118   1.786  2.3520 -0.9191 -0.7765
   72MOL0     H 9670  11.123   4.115   1.934 -0.6223  0.1579 -0.4952
   72MOL0     H 9671  11.204   3.809   1.965 -1.8443  1.8786  1.0047
   72MOL0     H 9672  11.415   3.678   1.945 -1.6304  0.7678  0.1170
   72MOL0     H 9673  11.487   3.663   1.791  1.2263  0.8104  0.5907
   72MOL0     H 9674  11.540   3.897   1.973 -1.4089  0.4234 -1.0952
   72MOL0     H 9675  11.648   3.767   1.962 -0.4413 -0.2641  0.5631
   72MOL0     H 9676  11.596   3.984   1.777 -1.8021 -1.3435 -0.2594
   72MOL0     H 9677  11.646   3.832   1.699  1.8978  0.0980 -0.4544
   72MOL0     H 9678  11.826   3.970   1.729 -1.3768 -0.5646 -0.5000
   72MOL0     H 9679  11.846   3.813   1.811  3.4239  1.1697 -2.6803
   72MOL0     H 9680  11.754   4.149   2.085  0.8156  1.8245  2.2306
   72MOL0     H 9681  11.866   4.381   2.132 -0.7131  0.2522  1.7489
   72MOL0     H 9682  12.040   4.665   2.373 -0.3726  1.5237  0.7008
   72MOL0     H 9683  12.138   4.887   2.411  1.3500  1.0460 -0.1687
   72MOL0     H 9684  12.393   4.972   2.328  2.0719 -0.7737  0.0119
   72MOL0     H 9685  12.431   5.020   2.161  0.5908  1.7621 -0.2388
   72MOL0     H 9686  12.386   5.259   2.227  0.8912  1.4669  0.7265
   72MOL0     H 9687  12.348   5.216   2.384 -1.2526 -0.8179  0.3110
   72MOL0     H 9688  12.598   5.120   2.409  0.1626 -2.3608 -1.8171
   72MOL0     H 9689  12.616   5.164   2.246  0.8633 -0.0626  1.7576
   72MOL0     H 9690  12.584   5.351   2.477 -0.1075  0.6130 -0.5624
   72MOL0     H 9691  12.543   5.410   2.316  0.9921 -0.3326 -0.2265
   72MOL0     H 9692  12.775   5.471   2.404 -1.6030  1.4568 -2.7713
   72MOL0     H 9693  12.785   5.374   2.255  1.0835 -0.8653  1.1061
   72MOL0     H 9694  12.862   5.312   2.551 -0.5995 -1.5086 -0.2350
   72MOL0     H 9695  12.812   5.179   2.455  1.0904 -0.8611 -1.4117
   72MOL0     H 9696  13.052   5.363   2.422 -0.6158 -1.4269  4.2242
   72MOL0     H 9697  12.982   5.281   2.275 -0.8874 -2.9129 -0.4988
   72MOL0     H 9698  13.094   5.168   2.521 -0.2345 -0.4048 -1.0201
   72MOL0     H 9699  13.001   5.069   2.396 -0.6222  0.6793 -0.1063
   72MOL0     H 9700  12.213   4.930   1.987 -1.2422 -3.9981 -2.3017
   72MOL0     H 9701  12.149   4.711   1.957 -0.5584  0.4780 -0.5873
   72MOL0     H 9702  12.171   4.270   1.844  1.4128  0.8217  1.5233
   72MOL0     H 9703  12.049   4.058   1.801 -1.5156  0.1937 -0.8622
   72MOL0     H 9704  10.114   3.703   1.778  0.5457 -1.0889 -0.0979
   72MOL0     H 9705   9.840   3.713   1.801 -3.0618 -0.4126  2.2474
   72MOL0     H 9706   9.550   3.296   2.011 -0.4286  0.0948  1.3081
   72MOL0     H 9707   9.304   3.270   2.043  0.3476  0.1740 -0.0340
   72MOL0     H 9708   9.095   3.248   1.998 -2.8226 -2.1620  0.1936
   72MOL0     H 9709   9.106   3.314   1.826  4.4165  1.8462  1.6375
   72MOL0     H 9710   8.890   3.221   1.898 -0.3933 -0.3966  0.7195
   72MOL0     H 9711   8.873   3.394   1.870  0.2099 -2.1350 -2.1084
   72MOL0     H 9712   8.891   3.452   2.116 -1.0490  0.0874  1.3165
   72MOL0     H 9713   8.947   3.286   2.148  1.7202 -0.5676 -1.5662
   72MOL0     H 9714   8.664   3.352   2.044 -3.0305  0.2899  2.8498
   72MOL0     H 9715   8.731   3.188   2.070  2.2138 -0.4515  1.2980
   72MOL0     H 9716   8.591   3.325   2.440  0.4136 -2.1377  0.8916
   72MOL0     H 9717   9.245   3.673   1.901  1.3770  1.3505 -0.5731
   72MOL0     H 9718   9.393   3.796   1.890 -1.6444 -3.3139  0.4530
   72MOL0     H 9719   9.541   3.806   1.960 -0.8758  0.9173  0.2729
   72MOL0     H 9720   9.542   3.728   1.797 -0.9599  0.4193 -1.3133
   73MOL0     O 9721   7.171   6.945   0.778 -0.4574  0.4190  0.0075
   73MOL0     C 9722   7.107   6.884   0.861 -0.0969  0.5628 -0.6654
   73MOL0     O 9723   7.141   6.875   0.996 -0.2021 -0.2157 -0.0769
   73MOL0     C 9724   7.265   6.913   1.038 -0.6640  0.0767 -0.6757
   73MOL0     C 9725   7.281   7.009   1.145  0.4185  0.0362 -0.4756
   73MOL0     C 9726   7.399   7.043   1.203  0.2773 -0.2541  0.2212
   73MOL0     C 9727   7.514   6.979   1.163 -1.0905 -1.1550  0.2095
   73MOL0     O 9728   7.640   6.995   1.217 -0.9564 -0.4328  0.0996
   73MOL0     C 9729   7.660   7.098   1.319 -0.4827 -0.3687  0.1672
   73MOL0     C 9730   7.804   7.089   1.369  0.9135  0.4692  0.3724
   73MOL0     C 9731   7.837   7.134   1.509 -0.3409 -0.4162  0.4202
   73MOL0     C 9732   7.849   7.279   1.509 -0.2412  0.2596  0.5456
   73MOL0     C 9733   7.902   7.349   1.631 -0.4623  0.5799  0.8545
   73MOL0     C 9734   8.055   7.314   1.659  0.3401 -0.0531  0.3192
   73MOL0     C 9735   8.086   7.405   1.782  0.1119 -0.1997  0.1418
   73MOL0     C 9736   8.225   7.377   1.836 -0.1901 -0.0620  0.8623
   73MOL0     N 9737   8.273   7.457   1.943 -0.3948  0.1368  0.4132
   73MOL0     C 9738   8.403   7.448   1.988  0.0962 -0.0888 -0.2778
   73MOL0     C 9739   8.413   7.561   2.069 -0.3051  0.1285 -0.0270
   73MOL0     C 9740   8.542   7.617   2.123 -0.6635 -0.4092 -0.3402
   73MOL0     C 9741   8.648   7.643   2.012  0.5966 -0.4998  0.0730
   73MOL0     C 9742   8.785   7.674   2.092 -0.9272  1.1205  0.1085
   73MOL0     C 9743   8.901   7.675   1.986  0.5487 -0.1493  0.0689
   73MOL0     O 9744   8.930   7.537   1.941 -0.0703 -0.3747  0.0172
   73MOL0     C 9745   9.044   7.509   1.866  0.5895 -0.0080  0.2507
   73MOL0     C 9746   9.072   7.568   1.743  0.3624  0.7160 -0.3137
   73MOL0     C 9747   9.184   7.545   1.668 -0.0068  0.6992  0.4957
   73MOL0     C 9748   9.277   7.449   1.714  0.7197 -0.6439 -0.3804
   73MOL0     C 9749   9.406   7.433   1.656  0.3483  0.0772  0.4691
   73MOL0     O 9750   9.436   7.520   1.558  0.3389 -0.3646  0.6648
   73MOL0     C 9751   9.561   7.503   1.503 -0.5056  1.2923  0.2935
   73MOL0     C 9752   9.568   7.459   1.366 -0.7076  0.9645 -0.4418
   73MOL0     C 9753   9.701   7.452   1.300 -0.7450 -0.3894  0.2011
   73MOL0     C 9754   9.816   7.492   1.375  0.3344 -0.4585 -0.4549
   73MOL0     O 9755   9.943   7.494   1.325  0.5306 -0.2162  0.8568
   73MOL0     C 9756   9.966   7.461   1.183 -0.1003  0.1837  0.0480
   73MOL0     C 9757  10.116   7.474   1.154  0.0069  0.3046 -0.1585
   73MOL0     C 9758  10.162   7.398   1.026 -0.6472  0.4493  0.1567
   73MOL0     C 9759  10.312   7.383   1.018  0.5537  0.6643 -0.2785
   73MOL0     C 9760  10.352   7.322   0.880  0.7072  0.2461  0.4100
   73MOL0     C 9761  10.499   7.292   0.874  0.0107  0.6510  0.1788
   73MOL0     C 9762  10.541   7.159   0.951  0.3514 -0.5216 -0.0875
   73MOL0     C 9763  10.682   7.106   0.919  0.0888 -0.2388  0.6150
   73MOL0    Cl 9764  10.792   7.259   0.928  0.1106  0.0976  0.2773
   73MOL0     C 9765   9.800   7.522   1.514 -0.6078 -0.4710  0.3108
   73MOL0     C 9766   9.680   7.525   1.572  0.5023  0.0339  0.3335
   73MOL0     O 9767   9.475   7.344   1.705 -0.0270  0.4271  0.4536
   73MOL0     C 9768   9.250   7.384   1.836  0.2660 -0.1448 -0.6737
   73MOL0     C 9769   9.137   7.418   1.913 -0.9470  0.5219  1.1324
   73MOL0     N 9770   8.294   7.621   2.090  0.2429 -0.3795  0.1216
   73MOL0     N 9771   8.207   7.556   2.014  0.0925 -0.2122  0.9249
   73MOL0     C 9772   7.506   6.882   1.069  0.0519  0.0902 -0.1051
   73MOL0     C 9773   7.387   6.847   1.005 -0.3468 -0.6558  0.2255
   73MOL0     C 9774   6.981   6.814   0.832  0.5824  0.0946  0.5773
   73MOL0     C 9775   6.926   6.707   0.916 -0.3178 -0.2257  0.1378
   73MOL0     C 9776   6.803   6.649   0.892  0.0164 -0.6981 -0.0532
   73MOL0     C 9777   6.717   6.709   0.793 -0.1947  0.1553  0.6059
   73MOL0     O 9778   6.589   6.652   0.776  1.5591  0.5943 -0.3523
   73MOL0     C 9779   6.520   6.669   0.653  0.5170 -0.1095  0.1054
   73MOL0     C 9780   6.413   6.560   0.663 -0.0521 -0.2523  0.9131
   73MOL0     C 9781   6.294   6.569   0.552  0.2655 -0.2240  0.3531
   73MOL0     C 9782   6.238   6.437   0.517 -0.2030 -0.3884  0.2977
   73MOL0     C 9783   6.121   6.446   0.432  0.1764  1.2081 -0.0129
   73MOL0     C 9784   6.028   6.481   0.367 -0.3589  1.0447 -0.6162
   73MOL0     C 9785   6.764   6.812   0.714 -0.0631 -0.3372  1.0600
   73MOL0     C 9786   6.896   6.861   0.726 -0.4507  0.7108 -0.3646
   73MOL0     C 9787   6.932   6.955   0.621  0.4321 -0.0018 -0.9635
   73MOL0     H 9788   7.191   7.065   1.167 -0.9247 -1.7527 -1.1651
   73MOL0     H 9789   7.406   7.113   1.285  3.1343 -0.4941  0.2907
   73MOL0     H 9790   7.648   7.198   1.275  2.0978  1.6274  3.4584
   73MOL0     H 9791   7.593   7.082   1.403  0.6027  0.8477  1.3136
   73MOL0     H 9792   7.872   7.143   1.303  1.5414 -0.9085 -0.1416
   73MOL0     H 9793   7.836   6.986   1.356  0.4703 -0.0234  2.6433
   73MOL0     H 9794   7.936   7.094   1.532 -0.1241 -0.5086 -0.5900
   73MOL0     H 9795   7.781   7.087   1.590 -1.2348 -3.1137 -1.6158
   73MOL0     H 9796   7.923   7.304   1.432 -0.5506 -2.4960 -0.7537
   73MOL0     H 9797   7.751   7.311   1.474  0.3302 -0.1138 -1.5191
   73MOL0     H 9798   7.897   7.458   1.632  0.5780  0.6305  1.8943
   73MOL0     H 9799   7.835   7.312   1.710 -1.5530 -2.8506 -1.4262
   73MOL0     H 9800   8.061   7.209   1.690  3.0208  0.9903  3.9726
   73MOL0     H 9801   8.117   7.330   1.571  0.4590  1.2102  0.6176
   73MOL0     H 9802   8.003   7.395   1.853  0.4948 -1.0228  0.4863
   73MOL0     H 9803   8.078   7.512   1.760  0.6538 -0.3337 -0.7363
   73MOL0     H 9804   8.241   7.271   1.859  0.7912 -1.0819 -3.4390
   73MOL0     H 9805   8.294   7.399   1.753  0.2909  2.3618  1.8241
   73MOL0     H 9806   8.480   7.382   1.949 -0.0253  1.8411 -4.2835
   73MOL0     H 9807   8.528   7.714   2.172  0.9733 -0.4044  0.1744
   73MOL0     H 9808   8.581   7.544   2.195 -1.5291  1.6007  2.3451
   73MOL0     H 9809   8.673   7.553   1.955  1.7788 -2.0119  2.8336
   73MOL0     H 9810   8.623   7.727   1.945 -3.2370 -0.8993  0.7535
   73MOL0     H 9811   8.816   7.602   2.167  0.4106  0.1427 -1.3114
   73MOL0     H 9812   8.759   7.767   2.143 -4.0477  0.2966  0.2566
   73MOL0     H 9813   8.990   7.724   2.027  1.1931 -1.1858 -0.0671
   73MOL0     H 9814   8.874   7.736   1.900  1.3051 -0.2314 -0.2357
   73MOL0     H 9815   8.995   7.637   1.709 -0.4616 -0.7215 -1.4567
   73MOL0     H 9816   9.195   7.610   1.582 -0.7285 -0.1396 -0.2686
   73MOL0     H 9817   9.482   7.425   1.310 -0.5375 -2.3122  1.0627
   73MOL0     H 9818   9.700   7.426   1.195  1.7790 -0.4620  0.1370
   73MOL0     H 9819   9.931   7.360   1.157  2.0457 -0.1939 -1.5930
   73MOL0     H 9820   9.916   7.534   1.119  1.9021  0.6753 -1.0383
   73MOL0     H 9821  10.155   7.575   1.162 -1.0608  0.5779  2.5119
   73MOL0     H 9822  10.165   7.423   1.238 -0.0142  2.0694  0.9583
   73MOL0     H 9823  10.118   7.298   1.028 -0.5495  0.3634 -1.0278
   73MOL0     H 9824  10.127   7.443   0.932  0.1581 -0.9816 -0.8760
   73MOL0     H 9825  10.352   7.327   1.103  1.2026  1.3434 -0.1241
   73MOL0     H 9826  10.353   7.483   1.033 -0.8177  1.3644 -0.9391
   73MOL0     H 9827  10.335   7.401   0.806 -1.2178 -0.1152  0.4062
   73MOL0     H 9828  10.296   7.232   0.853  1.7070  0.2679 -2.0194
   73MOL0     H 9829  10.529   7.292   0.769  0.1270 -0.4195  0.2003
   73MOL0     H 9830  10.545   7.378   0.923  2.8067 -1.5260  1.6500
   73MOL0     H 9831  10.466   7.080   0.940  2.5270 -2.6450 -0.4632
   73MOL0     H 9832  10.547   7.178   1.058  1.3472 -0.4113 -0.1572
   73MOL0     H 9833  10.707   7.029   0.992 -2.9984 -1.1411  0.8666
   73MOL0     H 9834  10.684   7.058   0.820 -1.2170 -1.8998  1.3420
   73MOL0     H 9835   9.885   7.543   1.578 -0.3986  0.7516 -0.3240
   73MOL0     H 9836   9.677   7.561   1.675  0.2115 -2.0546  1.1000
   73MOL0     H 9837   9.323   7.317   1.880 -2.1015 -0.8649  2.5489
   73MOL0     H 9838   9.114   7.364   2.004 -1.3562 -1.2241  0.0302
   73MOL0     H 9839   7.597   6.832   1.038 -0.9540 -2.8309  1.3607
   73MOL0     H 9840   7.388   6.761   0.940  0.6135 -0.1797 -0.4125
   73MOL0     H 9841   6.996   6.661   0.986 -0.8713 -1.0561  0.1547
   73MOL0     H 9842   6.781   6.571   0.964 -3.1454  2.9977  3.5424
   73MOL0     H 9843   6.586   6.660   0.566 -1.1450 -0.5085 -1.1545
   73MOL0     H 9844   6.481   6.771   0.649  4.4108  1.6654 -5.3606
   73MOL0     H 9845   6.375   6.567   0.765 -3.8222  0.1611 -0.3674
   73MOL0     H 9846   6.465   6.465   0.650  1.2092  0.8246 -5.3560
   73MOL0     H 9847   6.344   6.612   0.464 -0.0007 -1.2548 -0.3294
   73MOL0     H 9848   6.210   6.633   0.579  0.9633  0.5274  0.7970
   73MOL0     H 9849   6.315   6.380   0.465  0.4941  1.8038 -1.1950
   73MOL0     H 9850   6.197   6.378   0.601  0.9327 -3.9912 -1.4564
   73MOL0     H 9851   5.937   6.498   0.314 -1.5659 -2.4914  0.0770
   73MOL0     H 9852   6.691   6.860   0.649 -0.8413  0.9445  2.8012
   73MOL0     H 9853   6.983   7.047   0.653 -1.9469  0.7271  1.0750
   73MOL0     H 9854   6.993   6.908   0.543 -0.0711  1.8890 -2.6014
   73MOL0     H 9855   6.842   6.987   0.568  0.0914 -0.2535 -0.5447
   74MOL0     O 9856  10.064  11.239   3.390 -0.2971 -0.0086 -0.1693
   74MOL0     C 9857  10.112  11.344   3.437 -0.4428 -0.6579 -0.2965
   74MOL0     O 9858  10.253  11.373   3.453 -0.1484  0.6724 -0.9517
   74MOL0     C 9859  10.349  11.280   3.406  0.5291 -0.5038  0.0781
   74MOL0     C 9860  10.441  11.213   3.494 -0.1735  0.3941 -0.5260
   74MOL0     C 9861  10.534  11.117   3.447  0.1008  1.1042  0.4493
   74MOL0     C 9862  10.526  11.089   3.303 -0.4545 -0.1092 -0.1776
   74MOL0     O 9863  10.619  11.008   3.243  0.2551  0.4365  0.7170
   74MOL0     C 9864  10.658  10.886   3.314  0.3842  1.2973  0.5228
   74MOL0     C 9865  10.805  10.886   3.316 -0.9944 -0.0956  0.5095
   74MOL0     C 9866  10.851  10.733   3.322  0.4800  0.2515  0.2389
   74MOL0     C 9867  10.996  10.698   3.345  0.2752 -0.0420 -0.1403
   74MOL0     C 9868  11.029  10.555   3.322 -0.4088  0.9675 -0.3086
   74MOL0     C 9869  11.183  10.536   3.321  0.5753  0.6093  0.0746
   74MOL0     C 9870  11.206  10.392   3.298 -0.3414  0.1085  0.2294
   74MOL0     C 9871  11.352  10.362   3.264  0.6632  0.2747  0.0786
   74MOL0     N 9872  11.369  10.218   3.275  0.0922  0.0923  0.0453
   74MOL0     C 9873  11.380  10.165   3.400  0.8748  0.1736 -0.9217
   74MOL0     C 9874  11.405  10.028   3.373  0.5221 -0.1543  0.5207
   74MOL0     C 9875  11.434   9.918   3.473  0.3973  0.1695  0.3895
   74MOL0     C 9876  11.550   9.830   3.413 -0.5983 -0.0514 -0.3592
   74MOL0     C 9877  11.582   9.706   3.505 -0.2879  0.4827  0.2201
   74MOL0     C 9878  11.691   9.619   3.449 -0.4561  0.1795 -0.8782
   74MOL0     O 9879  11.653   9.567   3.320  0.3909 -0.3533  0.2063
   74MOL0     C 9880  11.722   9.460   3.273  0.4231 -0.3664 -0.1453
   74MOL0     C 9881  11.682   9.408   3.150  0.2632  0.2391  0.1275
   74MOL0     C 9882  11.767   9.326   3.073  0.2701 -0.1515  0.2476
   74MOL0     C 9883  11.888   9.291   3.117 -0.2717  0.2003 -0.0790
   74MOL0     C 9884  11.963   9.196   3.038 -0.5413 -0.6568 -0.7210
   74MOL0     O 9885  12.099   9.212   3.049 -0.1183 -0.0031 -0.3616
   74MOL0     C 9886  12.184   9.171   2.956 -0.5835 -0.7180  0.6707
   74MOL0     C 9887  12.305   9.254   2.955  0.3261  0.3962 -0.3903
   74MOL0     C 9888  12.402   9.246   2.854 -0.0003  0.2533 -0.3697
   74MOL0     C 9889  12.392   9.140   2.758  0.2479 -0.7280  0.3618
   74MOL0     O 9890  12.490   9.129   2.667 -0.2390  0.0541  0.6483
   74MOL0     C 9891  12.502   9.009   2.576  0.1695  0.0648  0.0826
   74MOL0     C 9892  12.444   9.055   2.444  0.5195 -1.9588  0.0399
   74MOL0     C 9893  12.468   8.951   2.338  0.6738 -0.7539  0.2910
   74MOL0     C 9894  12.608   8.960   2.282 -0.3852 -0.1299  0.5761
   74MOL0     C 9895  12.626   9.087   2.194  0.2135 -0.4166 -0.3483
   74MOL0     C 9896  12.764   9.097   2.125  0.8000 -0.2053  0.7795
   74MOL0     C 9897  12.748   9.220   2.035 -1.0559  0.2202 -0.0779
   74MOL0     C 9898  12.883   9.264   1.974 -0.2604  1.0316  0.2479
   74MOL0    Cl 9899  12.972   9.363   2.098  0.0011 -0.1618 -0.1154
   74MOL0     C 9900  12.276   9.061   2.759  0.2746 -0.1188  0.4433
   74MOL0     C 9901  12.180   9.074   2.860 -0.3292  0.1513 -0.4019
   74MOL0     O 9902  11.898   9.124   2.962 -1.3185 -0.4356 -0.2603
   74MOL0     C 9903  11.931   9.340   3.241 -0.2735 -0.7339  0.4741
   74MOL0     C 9904  11.849   9.423   3.316  0.3540 -0.1878  0.1330
   74MOL0     N 9905  11.419  10.016   3.236 -0.7453  0.0502  0.2665
   74MOL0     N 9906  11.388  10.124   3.177  0.1952 -1.2688  0.5447
   74MOL0     C 9907  10.443  11.159   3.225  0.4190  0.6286  0.5452
   74MOL0     C 9908  10.354  11.251   3.272  0.4117  0.0856  0.3329
   74MOL0     C 9909  10.018  11.434   3.509  0.5642 -0.3284 -0.7996
   74MOL0     C 9910  10.062  11.506   3.623  0.0184 -0.2014 -0.0734
   74MOL0     C 9911   9.977  11.565   3.711 -0.2364 -0.1834 -0.5807
   74MOL0     C 9912   9.846  11.571   3.686  0.5045  0.5261  0.5007
   74MOL0     O 9913   9.769  11.651   3.773  0.0031  0.2771 -0.3632
   74MOL0     C 9914   9.626  11.646   3.754 -0.9785  0.1549 -0.6025
   74MOL0     C 9915   9.563  11.741   3.848 -0.0544 -0.2416  0.1962
   74MOL0     C 9916   9.594  11.884   3.796  0.7214 -0.4066  0.3036
   74MOL0     C 9917   9.513  12.001   3.854 -0.4177 -0.2348  0.2183
   74MOL0     C 9918   9.543  12.022   4.000  0.1319  0.3154 -1.0843
   74MOL0     C 9919   9.576  12.017   4.122  0.0528 -0.1431  0.5322
   74MOL0     C 9920   9.791  11.498   3.571  1.1247  0.3693  0.2053
   74MOL0     C 9921   9.879  11.437   3.490  0.4184 -0.0715  0.1871
   74MOL0     C 9922   9.812  11.363   3.375 -0.8300  0.9337  0.8053
   74MOL0     H 9923  10.433  11.225   3.601  0.9891  0.2895 -0.4039
   74MOL0     H 9924  10.603  11.058   3.507 -1.0109 -0.0314  0.6512
   74MOL0     H 9925  10.616  10.863   3.412  1.3922 -0.6500  0.5518
   74MOL0     H 9926  10.627  10.806   3.247 -0.8419  1.8726  0.3756
   74MOL0     H 9927  10.849  10.950   3.393  1.7393 -4.9415  3.5341
   74MOL0     H 9928  10.846  10.931   3.225 -0.3397 -1.6784 -0.0190
   74MOL0     H 9929  10.805  10.678   3.239  0.8346  1.9959 -1.1646
   74MOL0     H 9930  10.807  10.691   3.413 -0.0212  0.4348  0.0822
   74MOL0     H 9931  11.057  10.749   3.270 -0.1481 -3.3143 -2.9277
   74MOL0     H 9932  11.032  10.732   3.443 -1.6629  0.6332  0.4029
   74MOL0     H 9933  10.982  10.487   3.393 -0.1111 -0.3298 -1.3260
   74MOL0     H 9934  10.988  10.528   3.224 -1.8255  0.4292  0.4074
   74MOL0     H 9935  11.211  10.595   3.234  1.8895 -0.1670 -0.0611
   74MOL0     H 9936  11.227  10.567   3.416 -1.4555 -0.0468  1.2977
   74MOL0     H 9937  11.142  10.356   3.217 -1.0647 -0.1688  0.9018
   74MOL0     H 9938  11.173  10.337   3.387 -0.8955 -2.4063 -1.4481
   74MOL0     H 9939  11.370  10.401   3.163 -0.2152  3.9525  1.2029
   74MOL0     H 9940  11.419  10.406   3.338  0.9157  3.0998 -1.6556
   74MOL0     H 9941  11.379  10.213   3.497 -0.8317  0.7798 -1.2101
   74MOL0     H 9942  11.463   9.966   3.566 -0.8347  1.4052  0.1765
   74MOL0     H 9943  11.343   9.859   3.486  1.0050 -0.4072  2.3726
   74MOL0     H 9944  11.517   9.791   3.317 -0.6538  1.2734 -0.8964
   74MOL0     H 9945  11.624   9.909   3.400 -0.2626 -0.5318 -1.4698
   74MOL0     H 9946  11.496   9.638   3.510 -1.2913  1.6479 -0.5492
   74MOL0     H 9947  11.604   9.753   3.601  0.3316  1.8754 -0.5758
   74MOL0     H 9948  11.715   9.530   3.509 -2.1903 -0.6276 -1.3220
   74MOL0     H 9949  11.784   9.675   3.440 -0.3819  0.2304  0.1059
   74MOL0     H 9950  11.582   9.433   3.114  1.0574  3.0398 -0.3903
   74MOL0     H 9951  11.727   9.290   2.978  0.2409  1.3574 -0.3401
   74MOL0     H 9952  12.295   9.331   3.031 -0.3832  1.8685 -1.9218
   74MOL0     H 9953  12.490   9.310   2.848  0.3001 -0.0696  0.3353
   74MOL0     H 9954  12.610   8.991   2.572  0.4733  1.6654  0.1923
   74MOL0     H 9955  12.449   8.921   2.614  1.5186 -1.3944 -1.2809
   74MOL0     H 9956  12.337   9.066   2.465  0.2876 -0.6102 -1.6151
   74MOL0     H 9957  12.474   9.154   2.407 -1.6031 -0.9447  0.8368
   74MOL0     H 9958  12.448   8.854   2.384 -2.7880  0.0247  0.6976
   74MOL0     H 9959  12.390   8.949   2.262  2.3044 -1.1429 -1.4390
   74MOL0     H 9960  12.616   8.865   2.228 -3.2478 -0.2773  0.2764
   74MOL0     H 9961  12.688   8.959   2.357  0.2696  0.3266 -0.1063
   74MOL0     H 9962  12.629   9.170   2.265  0.0432 -1.4015  0.8331
   74MOL0     H 9963  12.546   9.106   2.121  0.3972  0.4120 -0.3407
   74MOL0     H 9964  12.843   9.113   2.199 -1.0171 -0.5926  2.9026
   74MOL0     H 9965  12.783   9.007   2.065 -0.0294  0.8047 -1.0971
   74MOL0     H 9966  12.715   9.301   2.100  1.3017  0.8284  0.4435
   74MOL0     H 9967  12.672   9.198   1.959 -0.3751  0.8096 -0.9465
   74MOL0     H 9968  12.938   9.175   1.942  2.5945  2.7374  0.0553
   74MOL0     H 9969  12.886   9.323   1.882 -0.6507  0.8660  0.1279
   74MOL0     H 9970  12.263   8.981   2.688  1.6691 -1.1715  1.3129
   74MOL0     H 9971  12.099   9.002   2.858  0.3296 -0.5761 -1.6013
   74MOL0     H 9972  12.026   9.309   3.283  0.8125  1.8348  0.0930
   74MOL0     H 9973  11.900   9.468   3.401  1.2428  0.2928 -0.6375
   74MOL0     H 9974  10.438  11.147   3.117  0.8274 -0.0029  0.5918
   74MOL0     H 9975  10.292  11.313   3.208  0.6995 -0.8467 -0.8758
   74MOL0     H 9976  10.171  11.505   3.631 -0.1165 -0.6024  2.1369
   74MOL0     H 9977  10.012  11.614   3.802  2.5766  1.0481 -2.1999
   74MOL0     H 9978   9.581  11.548   3.774  1.4912 -0.6936  1.1872
   74MOL0     H 9979   9.596  11.674   3.652 -0.1075  0.7995 -0.6910
   74MOL0     H 9980   9.597  11.719   3.950  2.7809 -0.9809 -0.8103
   74MOL0     H 9981   9.455  11.726   3.845 -0.3605  1.2673  1.8363
   74MOL0     H 9982   9.590  11.895   3.688 -0.0646  0.8858  0.4352
   74MOL0     H 9983   9.697  11.915   3.820 -0.0922  2.8770  0.0259
   74MOL0     H 9984   9.540  12.091   3.798  3.1373 -1.5990 -0.4988
   74MOL0     H 9985   9.405  11.990   3.840 -0.3591  0.3159 -0.7750
   74MOL0     H 9986   9.609  12.027   4.223 -1.4568  0.7975  0.9801
   74MOL0     H 9987   9.683  11.492   3.555  1.0100  1.8818  0.1807
   74MOL0     H 9988   9.706  11.391   3.376 -0.4115  2.7793 -0.0541
   74MOL0     H 9989   9.860  11.398   3.283 -1.0393 -1.3036 -0.2128
   74MOL0     H 9990   9.824  11.255   3.384 -0.8589  0.8823  0.2607
   75MOL0     O 9991  10.353   5.401   8.489 -0.4762 -0.0882 -0.1366
   75MOL0     C 9992  10.239   5.443   8.477  0.4057  0.1937 -0.3024
   75MOL0     O 9993  10.214   5.572   8.476 -0.0680 -0.9304  0.1262
   75MOL0     C 9994  10.315   5.660   8.483 -0.6910 -0.2193  0.8043
   75MOL0     C 9995  10.368   5.707   8.599  0.2712 -0.2746 -0.3233
   75MOL0     C 9996  10.470   5.808   8.603  0.2335  0.2921 -0.1993
   75MOL0     C 9997  10.527   5.842   8.480 -0.5129 -1.1118  0.0401
   75MOL0     O 9998  10.630   5.934   8.472 -0.3097  0.4895 -0.0530
   75MOL0     C 9999  10.708   5.962   8.590  0.0330 -0.5912  0.1460
   75MOL0     C10000  10.836   6.030   8.551 -0.5295  0.1679  0.1084
   75MOL0     C10001  10.932   5.932   8.481  0.4615 -0.4528  0.3438
   75MOL0     C10002  11.049   6.012   8.434  1.2127  0.7722 -0.4222
   75MOL0     C10003  11.156   5.912   8.389  0.4737 -1.1685 -1.3022
   75MOL0     C10004  11.281   5.982   8.348 -0.2442 -0.9067 -0.0947
   75MOL0     C10005  11.392   5.890   8.311 -0.2085 -0.4111  0.0776
   75MOL0     C10006  11.504   5.970   8.240  0.4033 -0.6024 -0.2201
   75MOL0     N10007  11.597   6.024   8.340 -0.7762 -0.3979 -0.3301
   75MOL0     C10008  11.695   5.953   8.393  0.3173 -0.0541  0.3230
   75MOL0     C10009  11.760   6.036   8.469  0.3650 -0.2672  0.9855
   75MOL0     C10010  11.886   5.993   8.541  0.2040 -0.4188 -0.2133
   75MOL0     C10011  12.002   6.007   8.443  0.1893 -0.0067  0.6451
   75MOL0     C10012  12.126   5.968   8.515  0.2846 -0.2961  0.1962
   75MOL0     C10013  12.249   5.993   8.420 -0.1232  0.3576 -0.3444
   75MOL0     O10014  12.362   5.977   8.510 -0.1191  0.3096  0.3536
   75MOL0     C10015  12.481   6.011   8.446  1.1710  0.2499  0.2216
   75MOL0     C10016  12.589   6.000   8.529 -0.0522  0.7246  0.7423
   75MOL0     C10017  12.717   6.038   8.487  0.0336  0.1402 -0.5510
   75MOL0     C10018  12.739   6.072   8.352 -0.5080 -0.0001 -0.0049
   75MOL0     C10019  12.873   6.122   8.300 -0.6680  0.0861 -0.4729
   75MOL0     O10020  12.969   6.126   8.399  0.3900 -0.4762  0.2172
   75MOL0     C10021  13.093   6.179   8.388  0.2559  0.6752  0.7265
   75MOL0     C10022  13.167   6.164   8.495 -0.8774  0.1503  0.1682
   75MOL0     C10023  13.304   6.206   8.505  0.2748 -0.6219 -0.3224
   75MOL0     C10024  13.357   6.266   8.392 -0.6741 -0.1899  0.2369
   75MOL0     O10025  13.488   6.301   8.388 -0.2455  0.5044  0.1888
   75MOL0     C10026  13.566   6.311   8.513 -0.8620  0.4220 -0.4276
   75MOL0     C10027  13.719   6.314   8.466 -0.6123  0.1794 -0.4844
   75MOL0     C10028  13.814   6.286   8.592  0.0804  0.3397  0.1868
   75MOL0     C10029  13.916   6.179   8.562  0.1214 -0.3110 -0.1202
   75MOL0     C10030  14.007   6.167   8.688 -0.5231 -0.2305  0.1035
   75MOL0     C10031  14.136   6.089   8.649  0.3574  0.4900 -0.5779
   75MOL0     C10032  14.209   6.066   8.778  0.6131 -0.4481  0.3657
   75MOL0     C10033  14.322   5.975   8.758 -0.1581 -0.1104 -0.7744
   75MOL0    Cl10034  14.288   5.804   8.712  0.3042 -0.7150 -0.1024
   75MOL0     C10035  13.278   6.275   8.269  0.0323 -0.0305  0.0686
   75MOL0     C10036  13.147   6.238   8.270 -0.1524  0.5592  0.2671
   75MOL0     O10037  12.876   6.166   8.186  1.0049  0.3837  0.1715
   75MOL0     C10038  12.627   6.066   8.264 -0.4744  0.5708  0.4436
   75MOL0     C10039  12.505   6.045   8.308 -0.3124  0.1030 -0.9018
   75MOL0     N10040  11.685   6.158   8.478 -0.7293 -0.5337  0.4321
   75MOL0     N10041  11.582   6.135   8.404 -0.4315 -0.4450  0.1075
   75MOL0     C10042  10.482   5.780   8.364 -0.4948 -0.6052 -0.3787
   75MOL0     C10043  10.370   5.700   8.363  0.2496 -0.1728 -0.0664
   75MOL0     C10044  10.124   5.356   8.486  0.7855 -0.4700  0.1348
   75MOL0     C10045   9.989   5.417   8.490 -0.3840  0.9345 -0.0640
   75MOL0     C10046   9.876   5.335   8.491 -0.5464 -0.5754  0.0479
   75MOL0     C10047   9.887   5.192   8.518 -0.2276  0.1141 -0.1986
   75MOL0     O10048   9.784   5.102   8.548 -0.1093  0.2903  0.3008
   75MOL0     C10049   9.645   5.139   8.520 -0.3346  0.0169 -0.0669
   75MOL0     C10050   9.537   5.032   8.547 -0.6572  1.1342 -0.0569
   75MOL0     C10051   9.404   5.068   8.508 -0.6293  0.3311 -0.2293
   75MOL0     C10052   9.300   5.010   8.594  0.4078 -0.0573 -0.3635
   75MOL0     C10053   9.260   5.101   8.709  0.4191  0.8078  0.2022
   75MOL0     C10054   9.237   5.169   8.801 -0.5013 -0.2044  0.2054
   75MOL0     C10055  10.015   5.140   8.503 -0.1352 -0.7918 -0.2705
   75MOL0     C10056  10.133   5.216   8.486 -0.4401 -0.0779 -0.3166
   75MOL0     C10057  10.258   5.124   8.465  0.2196 -0.5039 -0.1273
   75MOL0     H10058  10.321   5.674   8.690  1.2108 -1.4238 -0.2301
   75MOL0     H10059  10.522   5.837   8.694 -0.6336  2.2521 -0.2786
   75MOL0     H10060  10.651   6.026   8.658  0.2693 -1.5089  1.2438
   75MOL0     H10061  10.732   5.864   8.633 -0.1961 -0.1292  1.3566
   75MOL0     H10062  10.884   6.065   8.643  0.5422 -0.2808 -0.2664
   75MOL0     H10063  10.823   6.114   8.483  0.2477 -1.0984 -1.6902
   75MOL0     H10064  10.885   5.890   8.392  0.9251  0.3565 -0.3053
   75MOL0     H10065  10.965   5.848   8.543  1.1563 -3.1322 -3.3453
   75MOL0     H10066  11.023   6.061   8.339  2.0310  2.3157  0.1095
   75MOL0     H10067  11.085   6.097   8.493  2.4655  0.5350 -0.8242
   75MOL0     H10068  11.189   5.839   8.464  1.6419 -0.1114 -0.7629
   75MOL0     H10069  11.106   5.858   8.308 -0.7755 -1.6077 -0.2846
   75MOL0     H10070  11.253   6.044   8.263 -2.4229 -2.7087 -0.7555
   75MOL0     H10071  11.303   6.039   8.439 -1.4169 -2.0783  0.9603
   75MOL0     H10072  11.365   5.804   8.249  0.3939  1.9415 -3.7850
   75MOL0     H10073  11.437   5.853   8.403  3.0084  0.1890 -1.1133
   75MOL0     H10074  11.555   5.903   8.171 -0.5862 -1.2410 -0.3625
   75MOL0     H10075  11.467   6.053   8.179 -1.1491  0.8990  2.5498
   75MOL0     H10076  11.724   5.850   8.377 -1.0022 -0.1508 -1.9226
   75MOL0     H10077  11.904   6.045   8.636 -1.3120 -1.3488  0.6266
   75MOL0     H10078  11.880   5.887   8.570 -2.8940  0.1679  1.7217
   75MOL0     H10079  11.981   5.938   8.361  3.4403 -2.1771  1.4701
   75MOL0     H10080  12.019   6.111   8.413  3.7586 -0.2865  1.2131
   75MOL0     H10081  12.129   5.864   8.552 -0.3119 -1.0825 -1.8479
   75MOL0     H10082  12.128   6.033   8.603 -1.1736 -0.6017  0.4900
   75MOL0     H10083  12.253   6.095   8.380 -2.8053  0.3998 -0.7045
   75MOL0     H10084  12.246   5.920   8.339  1.0651 -0.9398  0.7350
   75MOL0     H10085  12.578   5.983   8.636 -0.7275  3.9836  1.2813
   75MOL0     H10086  12.802   6.037   8.554 -0.7673 -0.4657  0.4761
   75MOL0     H10087  13.127   6.098   8.572  2.1637 -1.1356  0.7781
   75MOL0     H10088  13.351   6.192   8.602 -2.1962 -3.2626  0.6600
   75MOL0     H10089  13.553   6.406   8.567  1.5875  1.1054 -0.9151
   75MOL0     H10090  13.558   6.228   8.584 -0.5020  2.7182  2.5559
   75MOL0     H10091  13.744   6.235   8.395  0.4349 -1.5310  1.6710
   75MOL0     H10092  13.750   6.410   8.424  4.3586 -1.3133 -0.9663
   75MOL0     H10093  13.856   6.384   8.620 -1.0417  0.4657  1.5778
   75MOL0     H10094  13.752   6.249   8.674 -3.2164  0.4402 -2.0860
   75MOL0     H10095  13.979   6.209   8.478  2.3548 -2.2430  0.7232
   75MOL0     H10096  13.865   6.085   8.537 -3.8245  1.6939 -0.2965
   75MOL0     H10097  13.952   6.105   8.759  0.4075 -1.9463 -0.5866
   75MOL0     H10098  14.023   6.261   8.741 -2.7059 -0.8241  1.9300
   75MOL0     H10099  14.115   5.995   8.597 -1.3708 -0.6012  1.9153
   75MOL0     H10100  14.191   6.151   8.578 -0.9635 -1.6126 -3.6453
   75MOL0     H10101  14.137   6.016   8.845  0.9819 -1.7597 -0.1805
   75MOL0     H10102  14.241   6.163   8.816  3.7581 -0.7385 -1.2490
   75MOL0     H10103  14.382   6.004   8.671 -0.5176 -0.3848 -1.1145
   75MOL0     H10104  14.392   5.993   8.841  0.6441  0.9295 -1.6390
   75MOL0     H10105  13.310   6.316   8.174 -2.2226 -0.2436 -0.8555
   75MOL0     H10106  13.087   6.255   8.181 -2.5291 -1.6181  1.3193
   75MOL0     H10107  12.639   6.085   8.158  0.4395  2.3706  0.8362
   75MOL0     H10108  12.429   6.053   8.231 -1.1303  4.0901  0.0758
   75MOL0     H10109  10.538   5.792   8.272 -0.6309 -1.8022 -0.6304
   75MOL0     H10110  10.334   5.676   8.264 -1.0475  0.8730  0.1201
   75MOL0     H10111   9.972   5.524   8.491  1.0297  1.1824  0.4253
   75MOL0     H10112   9.778   5.381   8.491 -0.1561  0.2766  0.1492
   75MOL0     H10113   9.630   5.165   8.415 -0.0988  0.1991 -0.0555
   75MOL0     H10114   9.619   5.236   8.564 -0.6273  1.5878 -3.3795
   75MOL0     H10115   9.544   5.022   8.655  1.1666  2.0685 -0.0586
   75MOL0     H10116   9.551   4.933   8.501 -1.2080  1.0654 -0.0889
   75MOL0     H10117   9.379   5.014   8.417 -4.1187 -3.4747  2.6009
   75MOL0     H10118   9.400   5.177   8.499 -1.9254  0.6804  3.2016
   75MOL0     H10119   9.205   5.003   8.541 -1.1043  5.9956  0.8072
   75MOL0     H10120   9.328   4.911   8.630  1.6728 -0.3948 -2.1570
   75MOL0     H10121   9.216   5.218   8.894 -3.0979 -0.4241 -0.1957
   75MOL0     H10122  10.013   5.032   8.502 -2.3533 -0.7946 -1.3012
   75MOL0     H10123  10.332   5.172   8.401 -0.1487  1.2685  0.7214
   75MOL0     H10124  10.303   5.107   8.563 -1.6045  0.9274  1.0293
   75MOL0     H10125  10.235   5.026   8.421 -0.9073 -0.0790 -0.5049
   76MOL0     O10126   8.720   1.856   2.668  0.0533  0.5164 -0.1094
   76MOL0     C10127   8.792   1.926   2.735  1.3732 -0.0799 -0.1727
   76MOL0     O10128   8.774   1.944   2.870  0.1229 -0.1705  0.5874
   76MOL0     C10129   8.650   1.914   2.911  0.2859 -0.0824 -0.1568
   76MOL0     C10130   8.543   2.013   2.912 -0.6485 -0.9899 -1.0994
   76MOL0     C10131   8.412   1.970   2.945 -0.5569 -0.9498 -0.6898
   76MOL0     C10132   8.378   1.843   2.983 -0.0905  0.0755  0.0874
   76MOL0     O10133   8.248   1.816   3.017  0.4098 -0.1456  0.8374
   76MOL0     C10134   8.206   1.681   3.012 -0.5710 -0.5081 -0.0796
   76MOL0     C10135   8.198   1.628   2.869  0.3517 -0.3281  0.1336
   76MOL0     C10136   8.139   1.479   2.861 -0.6226  0.0349  0.0645
   76MOL0     C10137   7.986   1.492   2.862 -0.2833  0.0081  0.5407
   76MOL0     C10138   7.926   1.353   2.849  0.0738 -0.2014  0.2834
   76MOL0     C10139   7.771   1.342   2.872 -0.2270  0.1783 -0.0496
   76MOL0     C10140   7.703   1.201   2.883 -0.9958 -0.4341  0.3814
   76MOL0     C10141   7.578   1.204   2.970  0.0809 -0.0518  0.3694
   76MOL0     N10142   7.521   1.072   2.969  0.7222  0.2607  0.0849
   76MOL0     C10143   7.452   1.023   3.075 -0.5957  0.4643  0.1335
   76MOL0     C10144   7.389   0.920   3.026 -0.6473  0.0185  0.0827
   76MOL0     C10145   7.308   0.843   3.116 -0.6081 -0.6484 -1.1209
   76MOL0     C10146   7.388   0.760   3.214 -0.5988 -0.5109  0.3751
   76MOL0     C10147   7.442   0.827   3.339 -0.2107 -0.5940  0.5374
   76MOL0     C10148   7.519   0.734   3.428 -0.2332 -0.3195  0.2968
   76MOL0     O10149   7.619   0.802   3.497 -0.9773 -0.5334  0.2188
   76MOL0     C10150   7.748   0.760   3.508 -0.9392 -0.3710  0.6023
   76MOL0     C10151   7.785   0.627   3.496  0.1858 -0.8556 -0.4586
   76MOL0     C10152   7.927   0.601   3.503  0.3218  0.0592  0.1297
   76MOL0     C10153   8.026   0.694   3.549  0.5750  0.1776  0.3882
   76MOL0     C10154   8.169   0.656   3.560  0.4627 -0.0620  0.1946
   76MOL0     O10155   8.263   0.749   3.588 -0.1558 -0.4000  0.9258
   76MOL0     C10156   8.392   0.728   3.555 -0.5849  0.7006 -1.3019
   76MOL0     C10157   8.437   0.768   3.432  0.0714 -0.1412 -0.4129
   76MOL0     C10158   8.569   0.780   3.398 -0.2973 -0.5220  0.5533
   76MOL0     C10159   8.659   0.730   3.492 -0.1739 -0.0525 -0.6941
   76MOL0     O10160   8.790   0.744   3.442  0.2037 -0.0101  0.5579
   76MOL0     C10161   8.896   0.662   3.479 -0.1025  0.8705  0.0377
   76MOL0     C10162   9.011   0.738   3.421  0.6735 -0.1426  0.0201
   76MOL0     C10163   9.145   0.733   3.502  1.0908 -0.1318 -0.0779
   76MOL0     C10164   9.196   0.596   3.536  0.5031  0.3144 -0.2996
   76MOL0     C10165   9.271   0.521   3.422  0.1878 -0.3604  0.5833
   76MOL0     C10166   9.332   0.378   3.465  0.5992 -0.3643 -0.6044
   76MOL0     C10167   9.227   0.274   3.464 -0.6324  0.0381  0.4955
   76MOL0     C10168   9.185   0.210   3.593 -0.4379 -0.4818 -0.2473
   76MOL0    Cl10169   9.061   0.089   3.565 -0.1552 -0.0924  0.0440
   76MOL0     C10170   8.613   0.680   3.621  0.5004 -0.0413 -0.7358
   76MOL0     C10171   8.480   0.682   3.652 -0.3751 -0.0814 -0.2868
   76MOL0     O10172   8.186   0.537   3.546 -0.3980  0.3487  0.2753
   76MOL0     C10173   7.974   0.825   3.554 -0.2151 -0.1948  0.8286
   76MOL0     C10174   7.843   0.861   3.529 -0.5590  0.7174 -0.1359
   76MOL0     N10175   7.411   0.912   2.890 -0.1126  0.8037  0.0466
   76MOL0     N10176   7.498   1.005   2.855  0.1863  0.2228 -0.7708
   76MOL0     C10177   8.482   1.746   2.983 -0.4944 -0.3250  0.8659
   76MOL0     C10178   8.610   1.787   2.948 -0.1705  0.7896 -0.9960
   76MOL0     C10179   8.913   1.984   2.680 -0.5064 -0.5437 -0.3351
   76MOL0     C10180   8.980   2.079   2.753 -0.1557 -1.4669  0.2225
   76MOL0     C10181   9.098   2.143   2.708 -0.5333  0.0903 -0.5233
   76MOL0     C10182   9.154   2.097   2.587 -0.1146  0.5479 -0.1603
   76MOL0     O10183   9.267   2.149   2.525 -0.0691 -0.2596  0.2649
   76MOL0     C10184   9.341   2.251   2.592 -1.6822 -1.2011  0.0659
   76MOL0     C10185   9.428   2.208   2.709 -1.0780  0.6119  0.7256
   76MOL0     C10186   9.520   2.321   2.763  0.3450  0.7804  0.3850
   76MOL0     C10187   9.661   2.276   2.804  0.0677  0.4250  0.1234
   76MOL0     C10188   9.677   2.228   2.943 -0.2593  0.5449  0.1094
   76MOL0     C10189   9.688   2.199   3.062  0.6110 -0.3917 -0.4865
   76MOL0     C10190   9.097   1.992   2.514  0.2798  0.4935  0.6776
   76MOL0     C10191   8.971   1.944   2.557  0.3798  0.7101  0.8545
   76MOL0     C10192   8.899   1.861   2.450 -0.0011  0.6744  0.6854
   76MOL0     H10193   8.564   2.118   2.895  3.2586 -1.5668 -0.7694
   76MOL0     H10194   8.333   2.044   2.936  2.6491  2.7211 -0.9898
   76MOL0     H10195   8.272   1.615   3.069  2.2798  1.0636 -1.3387
   76MOL0     H10196   8.110   1.682   3.065 -0.7763 -0.9048 -0.4457
   76MOL0     H10197   8.295   1.632   2.819  0.6742 -1.8341  0.5992
   76MOL0     H10198   8.127   1.695   2.819  0.3211  1.7186  2.7230
   76MOL0     H10199   8.175   1.417   2.943 -2.7095 -3.9764 -1.7958
   76MOL0     H10200   8.184   1.440   2.769  3.1894  1.3599  1.1566
   76MOL0     H10201   7.943   1.525   2.957  1.1732  0.7435  0.9775
   76MOL0     H10202   7.961   1.563   2.783  2.2828 -1.0210 -1.3607
   76MOL0     H10203   7.943   1.311   2.750 -0.6444  0.3194 -0.0691
   76MOL0     H10204   7.966   1.295   2.933 -4.7612 -2.2823  1.4490
   76MOL0     H10205   7.745   1.398   2.961  0.0779  0.8808 -0.3952
   76MOL0     H10206   7.725   1.385   2.782  1.6377 -0.7511 -1.5380
   76MOL0     H10207   7.757   1.129   2.945 -1.1690 -0.1167  0.9102
   76MOL0     H10208   7.680   1.154   2.787 -1.4031 -0.0960  0.3068
   76MOL0     H10209   7.597   1.244   3.071  1.9736  0.6379 -0.2164
   76MOL0     H10210   7.508   1.271   2.919  0.9692  0.2948 -0.4230
   76MOL0     H10211   7.442   1.074   3.170 -2.5838  0.2782  0.0732
   76MOL0     H10212   7.247   0.914   3.173 -0.8110  1.2702 -3.5510
   76MOL0     H10213   7.240   0.774   3.065 -0.4894 -0.2859 -1.7771
   76MOL0     H10214   7.321   0.680   3.248 -1.0439 -0.3576 -0.1229
   76MOL0     H10215   7.475   0.710   3.170 -3.1250 -2.7282 -2.4877
   76MOL0     H10216   7.365   0.873   3.402  1.8395  4.3755 -0.1191
   76MOL0     H10217   7.513   0.905   3.311 -1.6277  0.7030  0.3977
   76MOL0     H10218   7.541   0.635   3.386 -0.6457 -0.7388  1.0318
   76MOL0     H10219   7.458   0.704   3.514  0.4245  1.2349  1.3589
   76MOL0     H10220   7.715   0.547   3.477 -1.3873  0.5622 -0.9195
   76MOL0     H10221   7.967   0.504   3.473  1.3024 -0.6006  3.1351
   76MOL0     H10222   8.374   0.803   3.352  1.8026  0.5645 -1.5249
   76MOL0     H10223   8.612   0.807   3.303 -1.0547 -0.9182  0.0859
   76MOL0     H10224   8.897   0.669   3.588 -0.5281  2.5233 -0.0385
   76MOL0     H10225   8.883   0.557   3.453 -3.3039  0.5560  2.3371
   76MOL0     H10226   9.035   0.704   3.320  2.7955  1.8627 -0.2339
   76MOL0     H10227   8.978   0.842   3.411  0.2073 -0.0668  1.9554
   76MOL0     H10228   9.220   0.780   3.438  2.2314 -0.7493  0.7595
   76MOL0     H10229   9.139   0.787   3.597  0.7409 -0.6165  0.1780
   76MOL0     H10230   9.117   0.525   3.560  1.7630 -0.8585  0.5409
   76MOL0     H10231   9.270   0.601   3.617  0.0655 -2.5210  0.3690
   76MOL0     H10232   9.351   0.580   3.377 -1.7986 -0.5643 -3.6812
   76MOL0     H10233   9.210   0.509   3.332  0.7804  1.6411 -0.1229
   76MOL0     H10234   9.406   0.341   3.393  0.6216 -1.3906 -0.0693
   76MOL0     H10235   9.384   0.390   3.560 -0.6757 -1.8595  0.3268
   76MOL0     H10236   9.276   0.199   3.400 -0.4899  3.4579 -3.8479
   76MOL0     H10237   9.142   0.309   3.406 -2.0688 -1.8248  1.3743
   76MOL0     H10238   9.256   0.154   3.654 -0.8121 -0.5103  0.1738
   76MOL0     H10239   9.129   0.282   3.654 -1.9715 -0.2167 -1.8803
   76MOL0     H10240   8.683   0.653   3.699 -1.0233  1.6926  1.3705
   76MOL0     H10241   8.442   0.685   3.753 -3.7353 -1.0570 -1.3622
   76MOL0     H10242   8.042   0.910   3.559 -2.4964  1.6993  1.0790
   76MOL0     H10243   7.797   0.959   3.534 -3.8931 -0.7204  0.6253
   76MOL0     H10244   8.461   1.644   3.016  1.9448 -1.4012 -0.5774
   76MOL0     H10245   8.689   1.714   2.963 -0.2552  0.5390 -1.7183
   76MOL0     H10246   8.945   2.130   2.842  1.9394  1.8211 -0.6501
   76MOL0     H10247   9.152   2.218   2.765  4.1887 -2.4269 -1.0986
   76MOL0     H10248   9.270   2.325   2.630  0.3269  1.4773 -1.0575
   76MOL0     H10249   9.401   2.295   2.512 -0.5910 -3.3546 -0.3772
   76MOL0     H10250   9.494   2.130   2.672 -1.0302  1.0637 -0.1682
   76MOL0     H10251   9.366   2.167   2.789  0.0135  0.4698  1.5211
   76MOL0     H10252   9.467   2.368   2.845  5.3982  2.2336  3.2593
   76MOL0     H10253   9.531   2.403   2.692 -0.2863  1.2100  0.7807
   76MOL0     H10254   9.694   2.198   2.736 -2.4088 -1.5572  1.0108
   76MOL0     H10255   9.740   2.349   2.788  2.4360 -1.9544  0.3462
   76MOL0     H10256   9.715   2.160   3.158 -2.2125 -0.6133  0.3312
   76MOL0     H10257   9.141   1.973   2.417 -3.4519  1.3054 -1.3454
   76MOL0     H10258   8.890   1.756   2.478  1.1699  0.9820  2.3546
   76MOL0     H10259   8.799   1.890   2.419 -0.0363  0.4802  0.6160
   76MOL0     H10260   8.955   1.883   2.358 -0.0284  0.2960  0.5757
   77MOL0     O10261   0.352   8.760   2.422  0.4191  0.2415 -0.6616
   77MOL0     C10262   0.377   8.845   2.505  0.2126  0.4957  0.0562
   77MOL0     O10263   0.503   8.916   2.502 -0.4888 -0.5858  0.2751
   77MOL0     C10264   0.557   8.964   2.380  0.1833  1.0630 -0.2355
   77MOL0     C10265   0.494   8.956   2.257  0.8760  0.1004 -0.6095
   77MOL0     C10266   0.549   8.988   2.135 -0.2501  0.3051  0.4728
   77MOL0     C10267   0.675   9.051   2.140  0.0112 -0.2628  0.5381
   77MOL0     O10268   0.727   9.119   2.034  0.1689  0.0772  0.1637
   77MOL0     C10269   0.699   9.065   1.910  0.3237 -0.1127 -0.1487
   77MOL0     C10270   0.826   9.060   1.831  0.1185  0.1235 -0.0875
   77MOL0     C10271   0.868   9.200   1.788  0.4548  0.4997 -0.1888
   77MOL0     C10272   0.997   9.184   1.702  0.3700  0.4212 -0.1380
   77MOL0     C10273   1.065   9.319   1.667  0.9730  1.0829  0.1034
   77MOL0     C10274   1.132   9.395   1.782  0.6626 -0.2462 -0.1784
   77MOL0     C10275   1.221   9.512   1.744 -0.0266 -0.0625  0.4718
   77MOL0     C10276   1.331   9.481   1.643 -0.7447 -1.0674  0.5105
   77MOL0     N10277   1.447   9.568   1.668  0.3966  0.2585  0.1039
   77MOL0     C10278   1.579   9.533   1.656 -0.0515  0.4902 -0.0733
   77MOL0     C10279   1.646   9.648   1.670  0.4852  0.1522 -0.4267
   77MOL0     C10280   1.791   9.652   1.681  0.1563  0.4984  0.0162
   77MOL0     C10281   1.835   9.609   1.831  1.3804  0.2879  0.6604
   77MOL0     C10282   1.971   9.669   1.876 -0.0043 -0.0479 -0.2097
   77MOL0     C10283   2.102   9.594   1.844  0.2142 -0.2583 -0.7741
   77MOL0     O10284   2.082   9.471   1.921 -0.3120  0.3680  0.7884
   77MOL0     C10285   2.194   9.393   1.932 -0.2670 -0.6830  0.1373
   77MOL0     C10286   2.325   9.429   1.883  0.0329 -0.4024  0.0814
   77MOL0     C10287   2.443   9.371   1.933 -0.2747 -0.3422 -0.2065
   77MOL0     C10288   2.432   9.263   2.025  0.1453 -0.8627 -0.6491
   77MOL0     C10289   2.558   9.203   2.081 -0.4393  1.0356 -0.1478
   77MOL0     O10290   2.666   9.197   1.996  0.1162 -0.2535 -0.7312
   77MOL0     C10291   2.791   9.167   2.037 -0.7088 -0.1282 -0.0437
   77MOL0     C10292   2.873   9.131   1.932 -0.5151  0.3274 -0.7375
   77MOL0     C10293   3.010   9.099   1.952  0.3835  0.1368  0.2165
   77MOL0     C10294   3.063   9.097   2.078 -0.3946  0.1112 -0.0560
   77MOL0     O10295   3.194   9.069   2.116 -0.9571  0.1391 -0.0581
   77MOL0     C10296   3.303   9.043   2.025  0.6323  0.1094  0.6698
   77MOL0     C10297   3.432   9.051   2.085 -0.1012  0.6580 -0.6646
   77MOL0     C10298   3.554   8.990   2.018 -0.5999 -0.6551 -0.6156
   77MOL0     C10299   3.680   9.010   2.104 -0.0543  0.6573 -0.4760
   77MOL0     C10300   3.795   8.967   2.019  0.0443  0.3261 -1.2659
   77MOL0     C10301   3.927   8.965   2.103  0.4735  0.5468  0.8517
   77MOL0     C10302   4.050   9.000   2.011  0.7705 -0.1930  0.1192
   77MOL0     C10303   4.082   8.888   1.908  0.2629  0.4021 -0.1620
   77MOL0    Cl10304   4.258   8.884   1.852  0.3341 -0.3966  0.3538
   77MOL0     C10305   2.976   9.125   2.189  0.4204 -0.1730  0.6064
   77MOL0     C10306   2.843   9.163   2.169  0.2865  0.3047  0.0133
   77MOL0     O10307   2.552   9.166   2.191  0.1269 -0.4780  0.2656
   77MOL0     C10308   2.305   9.222   2.075  0.3691  0.1922  0.2092
   77MOL0     C10309   2.190   9.289   2.020 -0.6376 -0.3587 -0.2620
   77MOL0     N10310   1.557   9.756   1.694  0.5776  0.4180 -0.5363
   77MOL0     N10311   1.436   9.706   1.686  0.8432  0.6026  0.2261
   77MOL0     C10312   0.733   9.071   2.260 -0.0195  0.5798  0.4075
   77MOL0     C10313   0.675   9.020   2.378 -0.5005 -0.2047  0.8259
   77MOL0     C10314   0.301   8.846   2.637 -0.6496 -0.3043 -1.1216
   77MOL0     C10315   0.378   8.898   2.747  0.1394 -0.2282  0.0146
   77MOL0     C10316   0.315   8.899   2.871  0.1597  0.0102 -0.4059
   77MOL0     C10317   0.191   8.837   2.892 -0.3043 -0.4798  0.0241
   77MOL0     O10318   0.152   8.832   3.018  0.4171 -1.0223  0.5322
   77MOL0     C10319   0.016   8.879   3.030  0.4661 -0.3931  0.2011
   77MOL0     C10320  -0.019   8.933   3.163 -0.2156  0.9956 -0.2884
   77MOL0     C10321   0.037   9.066   3.190 -0.1838  0.3287 -0.3425
   77MOL0     C10322  -0.005   9.116   3.329  0.3300 -0.4702 -0.7702
   77MOL0     C10323  -0.146   9.158   3.330  0.5237  1.1930  0.4851
   77MOL0     C10324  -0.261   9.205   3.331 -0.7846  0.2002  0.9250
   77MOL0     C10325   0.122   8.777   2.782  0.4552  0.0770 -0.5915
   77MOL0     C10326   0.173   8.795   2.657  0.3956  0.0755  0.4583
   77MOL0     C10327   0.085   8.747   2.545  0.0934 -0.4034  0.4684
   77MOL0     H10328   0.399   8.904   2.251  1.0667 -0.6674  2.0238
   77MOL0     H10329   0.489   8.971   2.046  1.7492 -0.4750 -0.7719
   77MOL0     H10330   0.662   8.963   1.922 -0.9088  0.2443 -0.7699
   77MOL0     H10331   0.626   9.119   1.848 -1.3320 -0.1931  1.6435
   77MOL0     H10332   0.803   9.002   1.742 -0.9359 -0.3962  0.5028
   77MOL0     H10333   0.909   9.010   1.882 -0.7484 -1.5191 -0.2052
   77MOL0     H10334   0.883   9.265   1.875  1.8462  0.5758 -0.4637
   77MOL0     H10335   0.795   9.245   1.719  0.5716  1.2532  0.1663
   77MOL0     H10336   1.073   9.132   1.762  1.8036  0.7262 -1.6067
   77MOL0     H10337   0.984   9.127   1.609  3.2731  0.5223 -0.6890
   77MOL0     H10338   1.139   9.294   1.591  0.8999 -0.8023  0.6032
   77MOL0     H10339   0.990   9.385   1.623  1.0799 -0.0317 -1.8590
   77MOL0     H10340   1.052   9.438   1.843  0.6103  2.6348 -2.0793
   77MOL0     H10341   1.193   9.326   1.842  1.1761  0.1867 -0.1966
   77MOL0     H10342   1.270   9.546   1.836 -1.2247 -0.7015  1.3757
   77MOL0     H10343   1.160   9.593   1.701  0.5992  1.1085  1.7089
   77MOL0     H10344   1.368   9.378   1.645 -1.2797 -1.2755  3.0094
   77MOL0     H10345   1.294   9.506   1.543  2.1910  0.9773 -0.2016
   77MOL0     H10346   1.615   9.433   1.634  0.0595  0.4124  0.4512
   77MOL0     H10347   1.831   9.588   1.602 -2.6720 -0.8190 -0.4841
   77MOL0     H10348   1.817   9.756   1.664 -5.4371  2.2141  0.1264
   77MOL0     H10349   1.765   9.658   1.899  1.5789 -0.8116  1.6813
   77MOL0     H10350   1.819   9.502   1.847  2.2397  0.3028  1.7786
   77MOL0     H10351   1.960   9.689   1.983  1.1513 -0.5217  0.0179
   77MOL0     H10352   1.979   9.761   1.817  1.0271 -2.1822 -3.6917
   77MOL0     H10353   2.189   9.658   1.863 -1.6690  2.5623 -0.8709
   77MOL0     H10354   2.111   9.565   1.739 -4.0180 -0.9752 -1.1339
   77MOL0     H10355   2.332   9.515   1.816 -3.1918 -1.4850 -1.8562
   77MOL0     H10356   2.532   9.411   1.885 -0.3824  1.4102  0.9729
   77MOL0     H10357   2.820   9.132   1.837 -2.3029  2.7351  0.1725
   77MOL0     H10358   3.067   9.073   1.863 -3.7130  1.1205 -3.0354
   77MOL0     H10359   3.298   8.943   1.982 -0.9144  0.9480 -1.3002
   77MOL0     H10360   3.298   9.113   1.940  2.9048  0.9559  1.1595
   77MOL0     H10361   3.465   9.155   2.093  2.1456 -0.0819  0.8640
   77MOL0     H10362   3.423   9.002   2.182 -4.4543  2.6308  0.1626
   77MOL0     H10363   3.549   8.881   2.015  0.0676 -0.8162  1.8661
   77MOL0     H10364   3.582   9.045   1.928 -0.9051 -1.0582 -0.9555
   77MOL0     H10365   3.677   8.950   2.195 -0.8166 -0.7402 -1.3808
   77MOL0     H10366   3.677   9.113   2.138 -1.2965  0.7342 -0.7623
   77MOL0     H10367   3.806   9.034   1.933 -0.0517 -1.8701 -3.1190
   77MOL0     H10368   3.776   8.865   1.983  1.2767 -0.1290 -0.6907
   77MOL0     H10369   3.916   9.039   2.183 -0.2623  1.3806  0.0052
   77MOL0     H10370   3.942   8.868   2.152 -5.5408 -2.4383 -2.1065
   77MOL0     H10371   4.141   9.021   2.068 -0.1790  1.8840  0.9569
   77MOL0     H10372   4.028   9.096   1.962 -2.9670 -1.5096 -1.1339
   77MOL0     H10373   4.055   8.791   1.952  1.2089  0.4761  0.6053
   77MOL0     H10374   4.023   8.915   1.820 -1.1104 -0.3642  0.4774
   77MOL0     H10375   3.020   9.123   2.288 -3.9557 -0.8240  2.7861
   77MOL0     H10376   2.793   9.178   2.265  2.5195 -1.4541  1.5539
   77MOL0     H10377   2.289   9.131   2.133 -0.5456 -1.6083 -2.6476
   77MOL0     H10378   2.087   9.270   2.049 -0.1534  1.4328  3.2252
   77MOL0     H10379   0.831   9.117   2.267  1.6238 -2.3989 -0.9665
   77MOL0     H10380   0.729   9.045   2.469  2.2675 -0.9698 -0.5100
   77MOL0     H10381   0.484   8.923   2.751  0.5071 -0.6611 -3.5175
   77MOL0     H10382   0.365   8.931   2.962 -5.9612  0.0314  3.5554
   77MOL0     H10383  -0.045   8.793   3.002 -2.1600  1.7025 -0.9054
   77MOL0     H10384  -0.020   8.950   2.955 -3.6091  1.3626  3.3952
   77MOL0     H10385   0.022   8.859   3.232  4.0417  1.0117 -2.4777
   77MOL0     H10386  -0.128   8.926   3.174  0.0845 -0.2200  2.9044
   77MOL0     H10387   0.018   9.143   3.115  3.5886  1.5065 -0.3119
   77MOL0     H10388   0.146   9.056   3.200 -0.1671  0.0804 -0.7757
   77MOL0     H10389   0.009   9.034   3.400  0.6063 -0.9634 -1.3841
   77MOL0     H10390   0.065   9.196   3.353  0.4343 -0.7371 -0.1691
   77MOL0     H10391  -0.360   9.245   3.343 -0.6317  1.3073 -1.1280
   77MOL0     H10392   0.035   8.720   2.814  0.2663  1.8925  2.5622
   77MOL0     H10393  -0.018   8.779   2.561  0.2621 -0.5973  2.1239
   77MOL0     H10394   0.130   8.776   2.450  1.1548  0.0557  1.0900
   77MOL0     H10395   0.099   8.639   2.554  0.9318 -0.2025  2.0985
   78MOL0     O10396   1.189   6.873   8.944 -0.6607 -0.1084  0.9122
   78MOL0     C10397   1.219   6.853   9.061 -0.0056 -0.3975 -0.3923
   78MOL0     O10398   1.336   6.892   9.114  0.2489 -0.1001 -1.2081
   78MOL0     C10399   1.426   6.964   9.042  0.2878  0.2866  0.1110
   78MOL0     C10400   1.452   7.095   9.069 -0.6064 -0.7719 -0.0309
   78MOL0     C10401   1.566   7.155   9.021 -0.1676  0.0288  0.1202
   78MOL0     C10402   1.647   7.079   8.935  0.3591 -0.1128 -0.0245
   78MOL0     O10403   1.754   7.141   8.875 -0.9476  0.2639 -0.1846
   78MOL0     C10404   1.794   7.103   8.740 -0.1274  0.9139 -1.0335
   78MOL0     C10405   1.908   7.188   8.690 -0.0547 -0.7097  0.0216
   78MOL0     C10406   1.954   7.169   8.546 -0.1881 -0.6953  0.0494
   78MOL0     C10407   2.094   7.227   8.526  0.4382  0.1574 -0.4821
   78MOL0     C10408   2.151   7.226   8.383 -0.1243 -0.1172 -0.0406
   78MOL0     C10409   2.300   7.251   8.389  0.0041  0.4066  0.4730
   78MOL0     C10410   2.344   7.317   8.259  0.1748 -0.2341  0.2403
   78MOL0     C10411   2.318   7.461   8.260 -0.5518 -0.7309 -0.3460
   78MOL0     N10412   2.328   7.518   8.124 -0.4139  0.0697  0.5042
   78MOL0     C10413   2.245   7.615   8.071  0.3380  0.1520  0.2829
   78MOL0     C10414   2.307   7.643   7.951 -0.7490 -1.1013  0.0683
   78MOL0     C10415   2.263   7.732   7.838 -0.4422 -0.6520  0.2814
   78MOL0     C10416   2.114   7.768   7.840 -0.3178  1.3156  0.7361
   78MOL0     C10417   2.087   7.893   7.906 -0.5650  0.6482  0.9222
   78MOL0     C10418   1.930   7.900   7.930 -0.5168 -0.6606  0.3372
   78MOL0     O10419   1.883   7.807   8.032 -0.5212  0.1032  0.4945
   78MOL0     C10420   1.757   7.784   8.062 -0.4577  0.9922  0.0130
   78MOL0     C10421   1.724   7.729   8.195  0.8993  0.3619 -0.2414
   78MOL0     C10422   1.598   7.696   8.228  0.4204  0.9766 -0.3597
   78MOL0     C10423   1.489   7.717   8.135 -0.0188 -0.4593 -0.9429
   78MOL0     C10424   1.345   7.692   8.169  0.1879 -0.7389 -0.3533
   78MOL0     O10425   1.242   7.756   8.105  0.1529 -0.3156  0.1482
   78MOL0     C10426   1.114   7.747   8.162  0.3298  0.3888  0.0473
   78MOL0     C10427   1.037   7.660   8.090  0.9555 -1.0345  0.3595
   78MOL0     C10428   0.895   7.643   8.104 -0.7199  0.3494  0.1129
   78MOL0     C10429   0.839   7.721   8.209 -0.4991 -0.9195  0.8083
   78MOL0     O10430   0.707   7.696   8.225 -0.3100  0.5131  0.1299
   78MOL0     C10431   0.642   7.762   8.338  1.0989 -0.5652  0.2016
   78MOL0     C10432   0.497   7.723   8.325  0.2070 -0.4816 -0.8093
   78MOL0     C10433   0.403   7.771   8.433  0.6006 -0.7594  0.3953
   78MOL0     C10434   0.259   7.760   8.374 -0.7232  0.1945 -0.1681
   78MOL0     C10435   0.163   7.792   8.484  0.7356 -0.1105 -1.0780
   78MOL0     C10436   0.007   7.762   8.449 -0.9420  0.0876 -1.3440
   78MOL0     C10437  -0.024   7.607   8.448 -0.4997  0.4028 -0.5865
   78MOL0     C10438  -0.177   7.587   8.431 -0.4046  0.3506 -0.0173
   78MOL0    Cl10439  -0.233   7.655   8.275  0.0032 -0.2360  0.2659
   78MOL0     C10440   0.917   7.814   8.289 -0.6816 -0.5246 -0.4903
   78MOL0     C10441   1.059   7.825   8.262 -0.2565  0.5720  0.0424
   78MOL0     O10442   1.325   7.622   8.265 -0.1309 -0.1385 -0.7928
   78MOL0     C10443   1.515   7.769   8.005 -0.3907  1.2294 -0.4196
   78MOL0     C10444   1.651   7.790   7.970 -0.1135  0.7245 -0.3204
   78MOL0     N10445   2.413   7.554   7.922 -0.3252 -0.6517 -0.0169
   78MOL0     N10446   2.432   7.495   8.033  0.1921  0.6096 -0.7837
   78MOL0     C10447   1.630   6.942   8.915  0.0993 -0.0487  0.1409
   78MOL0     C10448   1.521   6.884   8.980  0.3605 -0.3519 -0.5705
   78MOL0     C10449   1.121   6.788   9.157 -1.3296 -0.2061  0.1271
   78MOL0     C10450   1.169   6.770   9.293  0.1758  0.2483 -0.2270
   78MOL0     C10451   1.097   6.701   9.389  0.0787 -0.0104 -0.6449
   78MOL0     C10452   0.972   6.646   9.356  0.3370  0.1002 -0.2862
   78MOL0     O10453   0.904   6.577   9.452  0.6785 -0.1178 -0.2239
   78MOL0     C10454   0.775   6.522   9.426  1.6461  0.1709  0.1283
   78MOL0     C10455   0.654   6.613   9.432  0.1356  0.5243  0.2399
   78MOL0     C10456   0.630   6.712   9.322  0.0326 -0.2458  0.5685
   78MOL0     C10457   0.498   6.789   9.354  0.2232  0.2290 -1.6222
   78MOL0     C10458   0.382   6.702   9.347  0.3857 -0.1992  0.6809
   78MOL0     C10459   0.292   6.622   9.329  0.8181 -0.0121  0.3068
   78MOL0     C10460   0.929   6.661   9.222 -0.4897  0.0263  0.2734
   78MOL0     C10461   1.000   6.734   9.115 -0.5783 -0.8886  0.0412
   78MOL0     C10462   0.956   6.729   8.971 -0.2230  0.1203 -0.5669
   78MOL0     H10463   1.385   7.141   9.141  0.1807  0.3500  0.0095
   78MOL0     H10464   1.588   7.261   9.028  0.1477  0.0338 -0.9017
   78MOL0     H10465   1.834   7.001   8.735 -0.2271  0.7962  0.2700
   78MOL0     H10466   1.711   7.112   8.670  0.4960  1.5517 -1.7071
   78MOL0     H10467   2.000   7.175   8.748  1.7178 -1.2256 -2.7111
   78MOL0     H10468   1.868   7.289   8.706 -0.2535 -0.0209 -3.9293
   78MOL0     H10469   1.887   7.221   8.477  1.2021 -0.1576 -0.9093
   78MOL0     H10470   1.950   7.063   8.519 -0.4493 -0.5165 -0.6328
   78MOL0     H10471   2.092   7.331   8.560 -0.0550 -0.1161  0.3529
   78MOL0     H10472   2.160   7.175   8.595 -1.1784 -1.5201 -0.1243
   78MOL0     H10473   2.132   7.131   8.332  0.6792  0.5797 -1.6763
   78MOL0     H10474   2.106   7.303   8.321  0.5977  1.5389  1.4036
   78MOL0     H10475   2.320   7.309   8.479 -3.0735  3.1309 -0.4075
   78MOL0     H10476   2.349   7.153   8.395 -1.9819 -0.7134 -0.2473
   78MOL0     H10477   2.302   7.273   8.169  0.5063  3.7164 -2.0294
   78MOL0     H10478   2.452   7.304   8.246  0.2751  0.3999  0.3975
   78MOL0     H10479   2.218   7.476   8.301 -1.4272  1.1663 -2.9301
   78MOL0     H10480   2.389   7.503   8.332 -0.7417  0.8199 -1.0374
   78MOL0     H10481   2.155   7.659   8.113 -0.0301  1.1650 -1.4918
   78MOL0     H10482   2.319   7.826   7.835 -2.4734  0.6166 -2.8790
   78MOL0     H10483   2.280   7.666   7.753 -0.7709 -0.4904  0.0869
   78MOL0     H10484   2.086   7.771   7.734 -0.7842 -0.4522  0.7685
   78MOL0     H10485   2.047   7.687   7.872  1.1577 -0.3488 -0.1880
   78MOL0     H10486   2.111   7.978   7.842  1.3596  0.6915  1.6379
   78MOL0     H10487   2.159   7.910   7.987  1.7332 -1.3679 -0.5505
   78MOL0     H10488   1.874   7.881   7.838 -3.9328  1.9040  1.6784
   78MOL0     H10489   1.910   8.003   7.961 -2.5788 -1.1231  0.6830
   78MOL0     H10490   1.799   7.712   8.272 -0.0279 -1.5898  0.2865
   78MOL0     H10491   1.576   7.643   8.320  1.1239  1.2289 -0.0358
   78MOL0     H10492   1.083   7.602   8.011  0.3602  0.4357 -1.1113
   78MOL0     H10493   0.835   7.585   8.035  0.5229 -0.0334 -0.6655
   78MOL0     H10494   0.684   7.737   8.436 -1.5733 -1.8932  1.0983
   78MOL0     H10495   0.656   7.870   8.332  0.6978 -0.5607 -0.8594
   78MOL0     H10496   0.470   7.750   8.222 -0.4048  1.3924 -0.1837
   78MOL0     H10497   0.496   7.614   8.331  1.2838 -0.5081 -0.9605
   78MOL0     H10498   0.396   7.714   8.526 -3.0667  2.5511  2.4383
   78MOL0     H10499   0.423   7.878   8.443  1.4450 -0.9505  0.8400
   78MOL0     H10500   0.234   7.658   8.343  0.9138 -0.9967  2.1074
   78MOL0     H10501   0.266   7.836   8.296  1.1312  0.8707  0.6002
   78MOL0     H10502   0.176   7.899   8.505  1.0991 -0.2806 -0.4159
   78MOL0     H10503   0.174   7.733   8.575 -1.1048 -1.6024 -1.7477
   78MOL0     H10504  -0.044   7.809   8.533 -0.8704  0.3979 -1.4695
   78MOL0     H10505  -0.021   7.812   8.356 -0.7262  0.9647 -0.9525
   78MOL0     H10506   0.009   7.563   8.543 -2.3451  1.2274  0.4792
   78MOL0     H10507   0.026   7.555   8.366 -0.9482  0.0207 -0.6251
   78MOL0     H10508  -0.205   7.482   8.437  1.0580  0.0376  3.1552
   78MOL0     H10509  -0.226   7.642   8.512  3.5559  1.8054  1.6423
   78MOL0     H10510   0.868   7.868   8.370  1.4429  0.8908 -0.0544
   78MOL0     H10511   1.117   7.902   8.312  3.1760 -1.6491 -0.2022
   78MOL0     H10512   1.437   7.778   7.930 -1.2457 -1.4652  0.0554
   78MOL0     H10513   1.666   7.806   7.863 -2.8819 -1.6883 -1.2222
   78MOL0     H10514   1.682   6.880   8.843 -0.3569 -2.7784  2.0126
   78MOL0     H10515   1.509   6.776   8.982  1.0963 -0.4335  1.3388
   78MOL0     H10516   1.263   6.816   9.322 -0.7439  3.4265 -1.8140
   78MOL0     H10517   1.132   6.672   9.488 -2.0452 -1.9938 -0.3802
   78MOL0     H10518   0.759   6.460   9.515  1.1880  1.6145  1.1040
   78MOL0     H10519   0.765   6.466   9.333  1.3695  2.8126 -1.5304
   78MOL0     H10520   0.670   6.676   9.520  0.3561 -1.3284  1.5877
   78MOL0     H10521   0.566   6.552   9.459  0.4184  0.3514  0.7901
   78MOL0     H10522   0.603   6.672   9.224 -0.5610  1.3688  0.0385
   78MOL0     H10523   0.716   6.777   9.305  0.1902 -0.6941 -0.3913
   78MOL0     H10524   0.509   6.835   9.452  0.6163 -0.3959 -1.3655
   78MOL0     H10525   0.475   6.874   9.289  0.8235  1.0489 -0.7912
   78MOL0     H10526   0.213   6.550   9.323  1.1155 -0.4293  1.2794
   78MOL0     H10527   0.830   6.624   9.195  0.6029 -0.8435 -2.9216
   78MOL0     H10528   0.855   6.689   8.970 -1.3919  2.6698  1.9713
   78MOL0     H10529   0.942   6.829   8.929  0.1623  0.1995 -0.5170
   78MOL0     H10530   1.014   6.670   8.900  1.0412 -0.5558  0.9679
   79MOL0     O10531   6.870   6.916   8.023  0.0451  0.5755 -0.2567
   79MOL0     C10532   6.809   6.934   7.921  0.2069 -0.2970  0.6182
   79MOL0     O10533   6.860   6.930   7.791 -0.3535 -0.0047 -0.1438
   79MOL0     C10534   6.997   6.927   7.763  0.0666  0.2744  0.1454
   79MOL0     C10535   7.093   6.842   7.822  0.4397 -0.2387  0.0934
   79MOL0     C10536   7.222   6.828   7.777 -1.1454  0.1382 -0.1265
   79MOL0     C10537   7.269   6.902   7.670 -1.2050 -0.3276  0.0179
   79MOL0     O10538   7.391   6.907   7.621 -0.1147  0.3624  0.6534
   79MOL0     C10539   7.496   6.833   7.677 -0.4871 -0.0818  0.0327
   79MOL0     C10540   7.638   6.890   7.648 -0.2442  0.1413  0.0639
   79MOL0     C10541   7.671   7.041   7.708  0.0738 -0.2361  0.0548
   79MOL0     C10542   7.818   7.078   7.698  1.2351  0.0503  0.1420
   79MOL0     C10543   7.847   7.228   7.722  0.7903  1.2956  0.0406
   79MOL0     C10544   7.997   7.256   7.692 -0.0933  0.4080 -0.1418
   79MOL0     C10545   8.088   7.165   7.777 -0.4196  0.3117  0.3503
   79MOL0     C10546   8.235   7.225   7.771 -0.8803  0.4539 -0.1691
   79MOL0     N10547   8.289   7.231   7.633 -0.3721 -0.7801 -0.1351
   79MOL0     C10548   8.332   7.351   7.567  0.3885  0.3728 -0.8388
   79MOL0     C10549   8.361   7.309   7.441 -0.4679  0.5973 -0.3633
   79MOL0     C10550   8.408   7.386   7.323 -0.9930  0.1379 -0.0387
   79MOL0     C10551   8.559   7.361   7.301  0.3890  0.0149  0.3047
   79MOL0     C10552   8.655   7.404   7.419  0.5934 -0.3800 -0.2266
   79MOL0     C10553   8.779   7.314   7.437 -0.5609 -0.0017  0.1089
   79MOL0     O10554   8.874   7.318   7.325 -0.0906  0.8649  0.1953
   79MOL0     C10555   9.011   7.298   7.333  0.4869 -0.3819 -0.6143
   79MOL0     C10556   9.064   7.237   7.450 -0.1411  0.5017 -1.1652
   79MOL0     C10557   9.207   7.232   7.473  0.3152  0.1212  0.8197
   79MOL0     C10558   9.287   7.277   7.364 -0.6547  0.9677  0.8278
   79MOL0     C10559   9.433   7.282   7.397  0.0198  0.3777  0.4786
   79MOL0     O10560   9.504   7.231   7.298 -0.9930 -0.5821  0.5168
   79MOL0     C10561   9.639   7.278   7.299  0.1024  0.2697  0.3099
   79MOL0     C10562   9.676   7.372   7.207 -0.5514  0.1390 -0.5575
   79MOL0     C10563   9.811   7.412   7.190  0.6904  0.0047  0.0195
   79MOL0     C10564   9.911   7.358   7.282 -0.3175 -0.0980 -0.1788
   79MOL0     O10565  10.045   7.397   7.268  0.3624  0.5293  0.6539
   79MOL0     C10566  10.147   7.332   7.347  0.7564 -0.0010 -0.4707
   79MOL0     C10567  10.287   7.379   7.304 -0.9457 -0.2506  0.6782
   79MOL0     C10568  10.349   7.251   7.234 -0.3166 -0.0797  0.6774
   79MOL0     C10569  10.477   7.285   7.152  0.4974  0.2095 -0.5743
   79MOL0     C10570  10.534   7.173   7.082 -0.6416 -0.9029 -0.1732
   79MOL0     C10571  10.686   7.212   7.058  0.3133  0.3618 -0.8772
   79MOL0     C10572  10.755   7.135   6.949 -0.5105  0.6382 -0.8107
   79MOL0     C10573  10.776   6.991   6.994  0.3667  0.2170 -0.0882
   79MOL0    Cl10574  10.648   6.870   6.954  0.0782 -0.2949  0.3777
   79MOL0     C10575   9.863   7.259   7.367  0.0306  0.0930 -0.5508
   79MOL0     C10576   9.724   7.231   7.387  0.0622  1.0190  0.0407
   79MOL0     O10577   9.481   7.330   7.502 -0.2187 -0.0077  0.7510
   79MOL0     C10578   9.237   7.320   7.239  0.4934 -0.4438  0.0860
   79MOL0     C10579   9.101   7.329   7.232 -0.0953  0.5994 -0.6389
   79MOL0     N10580   8.339   7.171   7.439 -0.4503  0.3516 -0.0374
   79MOL0     N10581   8.289   7.125   7.554 -0.0033 -0.8318  0.8883
   79MOL0     C10582   7.182   6.997   7.611  0.2475  0.4051  0.5937
   79MOL0     C10583   7.054   7.011   7.662 -0.0706  0.9971  0.1374
   79MOL0     C10584   6.661   6.934   7.952  0.4927  0.1389 -0.3041
   79MOL0     C10585   6.614   7.000   8.069 -0.5104 -0.1763 -0.1843
   79MOL0     C10586   6.478   7.007   8.104  0.8867  0.0014 -0.0066
   79MOL0     C10587   6.388   6.946   8.020 -0.0525  0.4154 -0.0880
   79MOL0     O10588   6.258   6.956   8.072  0.1956 -0.6870  0.0700
   79MOL0     C10589   6.149   6.883   8.011 -1.2055 -0.6682 -0.9404
   79MOL0     C10590   6.013   6.959   8.056  0.1030  0.1860 -0.0994
   79MOL0     C10591   5.992   6.952   8.215 -0.6690 -0.6534 -0.7690
   79MOL0     C10592   6.033   7.087   8.272  0.0161  0.2529  0.6759
   79MOL0     C10593   5.953   7.204   8.235 -1.1090 -0.0330  0.3771
   79MOL0     C10594   5.888   7.298   8.204  0.7560  0.0767 -0.4405
   79MOL0     C10595   6.426   6.891   7.902 -0.2981  0.0291  0.6936
   79MOL0     C10596   6.568   6.875   7.871 -0.7017  0.3051  0.2172
   79MOL0     C10597   6.598   6.808   7.735  0.4131 -0.5042  0.1572
   79MOL0     H10598   7.055   6.767   7.890  0.5034 -1.5537 -1.2623
   79MOL0     H10599   7.284   6.759   7.834  1.6233  1.2545 -1.5690
   79MOL0     H10600   7.490   6.853   7.785 -1.7497  2.8587 -0.4712
   79MOL0     H10601   7.486   6.726   7.661 -2.0653 -0.1112  1.0192
   79MOL0     H10602   7.657   6.904   7.541  0.8753 -1.8150 -0.0396
   79MOL0     H10603   7.704   6.810   7.680 -1.3089  0.3430  3.0736
   79MOL0     H10604   7.617   7.052   7.803 -2.2793 -1.4317 -1.0551
   79MOL0     H10605   7.613   7.108   7.645  1.9689  1.0099 -0.4517
   79MOL0     H10606   7.873   7.021   7.774 -1.1951  1.0323  2.8181
   79MOL0     H10607   7.843   7.057   7.594  0.9658  0.2906  0.0298
   79MOL0     H10608   7.778   7.280   7.655 -3.6276 -0.2689  2.9877
   79MOL0     H10609   7.824   7.249   7.827 -2.0586  2.7219 -0.7583
   79MOL0     H10610   8.028   7.243   7.588  3.6632 -1.0426  0.9803
   79MOL0     H10611   7.999   7.357   7.734 -0.2211  0.2532  0.2454
   79MOL0     H10612   8.097   7.068   7.726  1.9238  1.2178 -1.1330
   79MOL0     H10613   8.051   7.151   7.879 -2.9052 -1.7503 -0.6982
   79MOL0     H10614   8.244   7.328   7.805  1.8673  1.2190 -2.7253
   79MOL0     H10615   8.295   7.158   7.834  1.4922 -0.0575 -2.7740
   79MOL0     H10616   8.328   7.454   7.600  1.6691 -0.2776  1.6549
   79MOL0     H10617   8.346   7.349   7.240 -1.3686 -0.3181  0.4338
   79MOL0     H10618   8.383   7.492   7.334 -0.4219  0.2561  0.1226
   79MOL0     H10619   8.569   7.253   7.283  1.0052  0.1936 -0.5130
   79MOL0     H10620   8.594   7.409   7.210 -1.7632 -0.5009 -0.8498
   79MOL0     H10621   8.592   7.400   7.508  0.4244 -0.2343 -0.3377
   79MOL0     H10622   8.678   7.511   7.406  1.1532 -0.6053 -1.2682
   79MOL0     H10623   8.742   7.211   7.449 -1.9499  0.4105 -0.4617
   79MOL0     H10624   8.827   7.333   7.533 -0.9905 -5.0723  1.6380
   79MOL0     H10625   8.990   7.195   7.517 -1.9775  1.1093 -2.7451
   79MOL0     H10626   9.252   7.201   7.567 -0.8063 -3.1481  0.3886
   79MOL0     H10627   9.601   7.418   7.143 -0.0018 -0.4901 -1.7069
   79MOL0     H10628   9.818   7.481   7.107 -1.2216 -2.7048 -2.6285
   79MOL0     H10629  10.134   7.351   7.454  0.0776 -1.9647 -0.1615
   79MOL0     H10630  10.135   7.225   7.331  1.9297 -0.1116 -0.7504
   79MOL0     H10631  10.279   7.465   7.237  1.8426  0.4267  1.0937
   79MOL0     H10632  10.342   7.389   7.398  0.1798 -3.3689  0.4689
   79MOL0     H10633  10.388   7.173   7.301  2.1061 -0.8743 -1.4561
   79MOL0     H10634  10.281   7.215   7.157 -0.2142  1.0266  0.0477
   79MOL0     H10635  10.557   7.324   7.216  2.0961 -2.3847 -0.8608
   79MOL0     H10636  10.444   7.357   7.076  1.3278 -1.7468 -2.9168
   79MOL0     H10637  10.477   7.153   6.991 -0.8567 -2.3101  0.2508
   79MOL0     H10638  10.539   7.079   7.138 -0.0611 -1.4239 -1.0798
   79MOL0     H10639  10.693   7.319   7.037  2.0112  0.2382 -1.0843
   79MOL0     H10640  10.738   7.202   7.153  0.9100 -2.0541 -1.3859
   79MOL0     H10641  10.855   7.178   6.933  2.2199 -2.6295  4.5595
   79MOL0     H10642  10.692   7.140   6.860 -4.5309  2.2029  1.8633
   79MOL0     H10643  10.859   6.946   6.938 -0.5856 -1.8112  0.0249
   79MOL0     H10644  10.801   6.990   7.100 -1.2998  3.0857  0.4266
   79MOL0     H10645   9.936   7.213   7.433 -0.7972  0.0925  0.3863
   79MOL0     H10646   9.691   7.158   7.460 -0.0895  1.8906  0.8622
   79MOL0     H10647   9.309   7.336   7.160  2.3287 -1.9388  1.3800
   79MOL0     H10648   9.065   7.355   7.133 -0.1266  0.9356 -0.5410
   79MOL0     H10649   7.227   7.059   7.534 -0.8203 -0.3937 -0.7149
   79MOL0     H10650   6.980   7.074   7.616 -1.3452 -0.7266 -0.2670
   79MOL0     H10651   6.679   7.063   8.129  0.2033 -1.1101  0.0452
   79MOL0     H10652   6.442   7.054   8.195  3.2698  0.9161  0.5458
   79MOL0     H10653   6.149   6.777   8.038  0.8531  0.0247  2.3548
   79MOL0     H10654   6.151   6.886   7.901 -0.7984  2.9682 -0.9725
   79MOL0     H10655   5.938   6.893   8.012  3.0270 -3.8790  0.4460
   79MOL0     H10656   6.009   7.063   8.021 -0.4979  0.7403  1.5506
   79MOL0     H10657   6.053   6.875   8.264 -1.0727  1.2292  3.0285
   79MOL0     H10658   5.885   6.933   8.227 -1.1492  2.0048 -0.2636
   79MOL0     H10659   6.015   7.087   8.380 -2.4502 -1.2518  0.3433
   79MOL0     H10660   6.139   7.107   8.254  0.1458 -0.0841  1.0170
   79MOL0     H10661   5.826   7.377   8.167  0.9943  0.5051  0.0599
   79MOL0     H10662   6.348   6.855   7.836 -2.9628  2.4066  2.3152
   79MOL0     H10663   6.500   6.764   7.714 -1.0097  1.6296  1.9085
   79MOL0     H10664   6.632   6.876   7.657  0.9391  1.8787  2.3072
   79MOL0     H10665   6.666   6.723   7.745 -0.7949 -1.4918  0.1716
   80MOL0     O10666  10.138   0.660   7.919 -0.0273  0.2110 -0.9968
   80MOL0     C10667  10.107   0.567   7.844 -0.3234 -0.1738  1.0474
   80MOL0     O10668  10.197   0.480   7.783  0.2603  0.7304 -0.1902
   80MOL0     C10669  10.329   0.506   7.798 -0.4202 -0.3371  0.1048
   80MOL0     C10670  10.389   0.630   7.754  0.9400  0.2890 -0.9087
   80MOL0     C10671  10.526   0.659   7.773  0.0113 -1.3209 -0.1369
   80MOL0     C10672  10.610   0.559   7.831 -0.5166 -0.0499 -0.5334
   80MOL0     O10673  10.749   0.570   7.845  0.2991  0.3646 -0.2190
   80MOL0     C10674  10.810   0.692   7.808  0.6418 -0.6772 -0.7272
   80MOL0     C10675  10.957   0.677   7.831 -0.2023 -0.4978  0.0098
   80MOL0     C10676  11.035   0.793   7.775 -0.0716 -0.3485  0.6611
   80MOL0     C10677  11.179   0.791   7.824  0.0078 -0.4569 -1.0574
   80MOL0     C10678  11.273   0.900   7.767  0.3462  1.1060 -0.0038
   80MOL0     C10679  11.408   0.902   7.846 -0.7790 -0.2188  1.2582
   80MOL0     C10680  11.518   0.998   7.803 -0.1826  0.8296 -0.1460
   80MOL0     C10681  11.622   0.992   7.910  0.1047 -0.3877 -0.7785
   80MOL0     N10682  11.727   1.106   7.887  0.0547  0.5643  0.4435
   80MOL0     C10683  11.825   1.118   7.799  0.5028  0.1366  0.1880
   80MOL0     C10684  11.859   1.250   7.797 -0.4394 -0.1117 -0.2674
   80MOL0     C10685  11.960   1.316   7.707  0.0422  0.0834 -0.8400
   80MOL0     C10686  11.899   1.417   7.612 -0.1747  0.6457 -0.1990
   80MOL0     C10687  11.997   1.497   7.523 -0.4046  0.7940 -0.5083
   80MOL0     C10688  12.085   1.578   7.605 -0.7182 -0.7881  0.0274
   80MOL0     O10689  12.187   1.642   7.527 -0.5309  0.4992  0.0133
   80MOL0     C10690  12.279   1.716   7.583 -0.4045 -0.2842 -0.0886
   80MOL0     C10691  12.316   1.729   7.717 -0.1814 -0.9017 -0.1409
   80MOL0     C10692  12.440   1.786   7.762 -0.5052 -0.1714 -1.2328
   80MOL0     C10693  12.516   1.866   7.670 -0.3314 -0.2345 -0.6558
   80MOL0     C10694  12.619   1.962   7.709 -0.7742  0.2803  0.0878
   80MOL0     O10695  12.674   1.940   7.828  0.1222 -0.2258 -0.4134
   80MOL0     C10696  12.809   1.962   7.865 -0.3657  0.3649  0.3762
   80MOL0     C10697  12.833   1.937   7.998 -0.1084 -0.0047 -0.4281
   80MOL0     C10698  12.959   1.951   8.054 -1.1961 -0.6665  0.4458
   80MOL0     C10699  13.069   1.989   7.974  0.0775  0.1061 -0.3009
   80MOL0     O10700  13.183   2.015   8.056 -0.0584  0.0222  0.1003
   80MOL0     C10701  13.290   2.061   7.971  0.6105 -0.7240 -0.5063
   80MOL0     C10702  13.420   2.073   8.044 -1.6328 -0.2835  0.8470
   80MOL0     C10703  13.522   2.136   7.941  0.0145 -0.1941 -0.1668
   80MOL0     C10704  13.645   2.156   8.019 -0.5931  1.2121 -0.4602
   80MOL0     C10705  13.751   2.228   7.937 -0.7992  0.8967 -0.4589
   80MOL0     C10706  13.896   2.252   8.007  0.1073 -0.0581  1.0365
   80MOL0     C10707  13.995   2.130   8.010  0.3277 -0.1869  0.6208
   80MOL0     C10708  14.131   2.174   7.946 -0.5426  0.2329  0.0449
   80MOL0    Cl10709  14.243   2.250   8.069  0.3408 -0.4624  0.0291
   80MOL0     C10710  13.049   1.998   7.835  0.5677 -0.4779  0.3177
   80MOL0     C10711  12.917   1.989   7.779  0.5642  0.7704  0.5025
   80MOL0     O10712  12.661   2.044   7.630 -0.1095  0.1807 -0.3155
   80MOL0     C10713  12.481   1.851   7.535  0.3104 -0.7263  0.7198
   80MOL0     C10714  12.366   1.781   7.496  0.0799 -0.5675 -0.1650
   80MOL0     N10715  11.782   1.317   7.887  0.3215  0.5505 -0.3151
   80MOL0     N10716  11.714   1.230   7.953 -0.4081  0.2011  0.6852
   80MOL0     C10717  10.554   0.434   7.854 -0.1989  0.3369 -0.7196
   80MOL0     C10718  10.418   0.407   7.841 -0.3757  0.2955  1.0137
   80MOL0     C10719   9.964   0.559   7.835 -0.7727  0.2639  0.0269
   80MOL0     C10720   9.910   0.451   7.768 -0.0470  1.0472 -1.2610
   80MOL0     C10721   9.774   0.425   7.756 -0.0412 -0.6650  0.2596
   80MOL0     C10722   9.681   0.523   7.794  0.0165 -0.6919  0.0615
   80MOL0     O10723   9.541   0.516   7.773  0.0183 -0.6864 -1.5822
   80MOL0     C10724   9.499   0.397   7.711 -1.8326  1.1480  0.2429
   80MOL0     C10725   9.342   0.392   7.696 -0.5398 -0.0159 -0.4253
   80MOL0     C10726   9.276   0.397   7.838 -0.1996 -0.7898  0.0935
   80MOL0     C10727   9.134   0.436   7.813 -0.0898 -0.0422 -0.2859
   80MOL0     C10728   9.033   0.451   7.929 -1.0520  1.0986  0.3082
   80MOL0     C10729   8.951   0.465   8.022  0.4831 -0.2692  0.5589
   80MOL0     C10730   9.732   0.629   7.872  0.4281  0.2525  0.6722
   80MOL0     C10731   9.866   0.650   7.895  1.0467 -1.2401  0.4192
   80MOL0     C10732   9.893   0.788   7.968 -0.1904  0.2613 -0.1580
   80MOL0     H10733  10.345   0.714   7.701 -1.2928 -1.8175 -2.6247
   80MOL0     H10734  10.563   0.757   7.746  0.7135 -1.9169 -1.4097
   80MOL0     H10735  10.797   0.722   7.704  0.2289 -1.1366 -0.8131
   80MOL0     H10736  10.759   0.768   7.869  0.4557 -1.1276 -0.3174
   80MOL0     H10737  10.988   0.583   7.784  2.4160 -0.3312  1.1933
   80MOL0     H10738  10.977   0.663   7.938 -0.0377  0.2319  0.0791
   80MOL0     H10739  10.996   0.892   7.800  1.1373 -0.3426  2.7469
   80MOL0     H10740  11.038   0.776   7.667 -2.0081 -3.8384  1.0279
   80MOL0     H10741  11.186   0.804   7.932  4.1787  0.8311 -1.2867
   80MOL0     H10742  11.225   0.691   7.815 -0.2440 -0.4695 -2.5214
   80MOL0     H10743  11.302   0.876   7.664  0.4380  1.5838 -0.0900
   80MOL0     H10744  11.242   1.004   7.756  0.7639  1.1411 -1.0041
   80MOL0     H10745  11.381   0.931   7.947  0.3571  4.5725  0.4371
   80MOL0     H10746  11.451   0.802   7.859  0.4355  0.5146  3.2899
   80MOL0     H10747  11.485   1.103   7.806  0.8156  1.1316  1.8403
   80MOL0     H10748  11.554   0.964   7.705 -0.3544 -0.5448  0.2517
   80MOL0     H10749  11.570   1.007   8.005 -0.6769  0.0256 -1.2668
   80MOL0     H10750  11.666   0.892   7.918 -3.9141 -2.4083 -1.6609
   80MOL0     H10751  11.858   1.034   7.738 -1.3689  0.3215 -1.1585
   80MOL0     H10752  12.030   1.373   7.768 -1.7151  2.0476 -0.5531
   80MOL0     H10753  12.019   1.243   7.650  0.7176  0.8618 -1.1576
   80MOL0     H10754  11.832   1.359   7.547  1.4047 -2.6731  0.8963
   80MOL0     H10755  11.857   1.499   7.671  4.2692  1.3610  2.4168
   80MOL0     H10756  11.937   1.561   7.458  1.0991  1.8344 -0.9292
   80MOL0     H10757  12.052   1.431   7.456 -2.1001 -1.2413 -0.0382
   80MOL0     H10758  12.145   1.523   7.677  1.4399  1.1930 -0.1557
   80MOL0     H10759  12.021   1.652   7.654  1.1092  0.5911  0.4190
   80MOL0     H10760  12.261   1.676   7.795  0.2212 -0.7087  0.2788
   80MOL0     H10761  12.461   1.788   7.869  1.8143 -0.2513 -1.6564
   80MOL0     H10762  12.749   1.907   8.060 -0.6465  1.3268 -0.4899
   80MOL0     H10763  12.961   1.939   8.162 -1.3846 -1.0846  0.4041
   80MOL0     H10764  13.306   2.003   7.880  0.2022 -2.8347  0.7044
   80MOL0     H10765  13.256   2.159   7.936  1.1385 -1.0003 -1.8606
   80MOL0     H10766  13.408   2.131   8.136 -1.3572  0.6287  0.3255
   80MOL0     H10767  13.445   1.968   8.060 -2.6816 -0.2061  3.3857
   80MOL0     H10768  13.553   2.060   7.869  5.5754  0.9162  0.6234
   80MOL0     H10769  13.499   2.234   7.898  2.5297 -0.0082 -1.2885
   80MOL0     H10770  13.687   2.062   8.054 -4.9094 -0.7674  0.0723
   80MOL0     H10771  13.623   2.217   8.107 -1.9159  0.6750 -0.3936
   80MOL0     H10772  13.717   2.322   7.893 -0.8267  0.5606 -1.1611
   80MOL0     H10773  13.776   2.160   7.855  1.9991 -0.5520  1.4077
   80MOL0     H10774  13.940   2.328   7.942 -2.5219  0.7555  0.0467
   80MOL0     H10775  13.898   2.285   8.111  2.2138 -0.9350  1.3236
   80MOL0     H10776  13.958   2.047   7.949 -1.3486  0.4273  0.7516
   80MOL0     H10777  14.001   2.092   8.113  0.3646  0.0386  0.7021
   80MOL0     H10778  14.180   2.081   7.913  1.6134  0.5629  2.0583
   80MOL0     H10779  14.115   2.231   7.853 -1.0329 -0.6135 -0.4000
   80MOL0     H10780  13.130   2.026   7.768  1.8463  1.4007  2.4905
   80MOL0     H10781  12.902   1.995   7.671  1.5630  1.5237  0.3877
   80MOL0     H10782  12.533   1.912   7.463  0.7644 -3.1732 -1.1425
   80MOL0     H10783  12.352   1.772   7.388  1.4633 -2.0738 -0.2631
   80MOL0     H10784  10.610   0.351   7.895  0.9449  2.1997  1.8061
   80MOL0     H10785  10.387   0.303   7.853  0.0005 -0.0694 -0.8667
   80MOL0     H10786   9.976   0.371   7.736  0.0516  0.1634  0.9330
   80MOL0     H10787   9.747   0.332   7.708  0.9590 -1.2058  0.7188
   80MOL0     H10788   9.543   0.326   7.782  0.8579  1.2275 -1.1852
   80MOL0     H10789   9.557   0.387   7.619 -3.4150 -4.9292 -0.5206
   80MOL0     H10790   9.318   0.294   7.654  0.9441 -0.2513 -0.7716
   80MOL0     H10791   9.300   0.473   7.636 -3.9487 -1.2643  0.0403
   80MOL0     H10792   9.326   0.477   7.894  0.6934  1.6290 -3.7826
   80MOL0     H10793   9.291   0.299   7.883  2.7255 -0.4660  0.0003
   80MOL0     H10794   9.122   0.534   7.765 -1.1434 -0.3436 -0.6724
   80MOL0     H10795   9.089   0.366   7.742 -0.6490  0.6542 -0.6388
   80MOL0     H10796   8.884   0.489   8.102  2.3143  2.8221  1.2982
   80MOL0     H10797   9.656   0.700   7.904 -3.1784 -1.7799 -2.5059
   80MOL0     H10798   9.804   0.834   8.012  1.3801  4.2453 -0.7713
   80MOL0     H10799   9.962   0.761   8.049 -0.6574 -1.9220 -0.4185
   80MOL0     H10800   9.930   0.867   7.903 -0.3854  1.8893  1.6194
   81MOL0     O10801  10.738   0.277  10.221  0.7371  0.3846  0.2500
   81MOL0     C10802  10.655   0.248  10.312  0.2977  0.3524  0.5680
   81MOL0     O10803  10.643   0.129  10.367 -0.3284  0.2039 -0.2794
   81MOL0     C10804  10.715   0.023  10.314 -0.1106  0.0663 -0.2726
   81MOL0     C10805  10.833   0.009  10.384 -1.2811  1.1103  0.2263
   81MOL0     C10806  10.923  -0.104  10.364 -0.1292 -0.5860  0.7246
   81MOL0     C10807  10.877  -0.196  10.283 -0.3916  0.7220 -0.5402
   81MOL0     O10808  10.964  -0.303  10.269 -0.3610  0.3518  0.0897
   81MOL0     C10809  10.922  -0.417  10.197 -0.1553 -0.2267  0.0553
   81MOL0     C10810  10.919  -0.408  10.046  0.0292  0.1149  0.5771
   81MOL0     C10811  10.986  -0.531   9.985  0.0059  0.6242  0.3702
   81MOL0     C10812  10.904  -0.662  10.007  0.0660 -0.6608  0.0651
   81MOL0     C10813  10.955  -0.781   9.928  0.0352  0.3937 -0.1498
   81MOL0     C10814  10.965  -0.770   9.779  1.3241  0.1241 -0.5222
   81MOL0     C10815  11.108  -0.804   9.731 -0.6665 -0.7344 -1.0276
   81MOL0     C10816  11.206  -0.689   9.752 -0.8447  0.0930  0.2061
   81MOL0     N10817  11.332  -0.721   9.683 -1.0775 -0.8048  0.7484
   81MOL0     C10818  11.389  -0.656   9.572  0.3588 -0.3343 -1.1514
   81MOL0     C10819  11.517  -0.707   9.574 -0.2147  0.1805 -0.0006
   81MOL0     C10820  11.639  -0.684   9.478  0.3191  0.1967  1.0047
   81MOL0     C10821  11.611  -0.581   9.364  0.3712  0.1837 -0.6696
   81MOL0     C10822  11.697  -0.588   9.228 -0.7700  0.5650 -1.1419
   81MOL0     C10823  11.850  -0.584   9.243  0.4690 -0.0464  0.4934
   81MOL0     O10824  11.891  -0.458   9.314 -0.5070 -0.0833 -0.0621
   81MOL0     C10825  12.030  -0.435   9.322  0.8348 -0.7220  0.3869
   81MOL0     C10826  12.137  -0.493   9.254 -0.1652 -0.7947  0.0676
   81MOL0     C10827  12.269  -0.464   9.284  0.1940 -0.5963  0.1875
   81MOL0     C10828  12.298  -0.378   9.394  0.5096  0.6301 -0.2911
   81MOL0     C10829  12.441  -0.357   9.426  0.1125 -0.4942  0.6375
   81MOL0     O10830  12.476  -0.246   9.497  0.2694  0.0363 -0.3602
   81MOL0     C10831  12.608  -0.231   9.534 -0.2268  0.2377 -0.2672
   81MOL0     C10832  12.679  -0.305   9.631  0.5492  0.1597 -0.0837
   81MOL0     C10833  12.812  -0.284   9.671  0.3256  0.3461  0.0647
   81MOL0     C10834  12.879  -0.173   9.613  0.2556 -0.4964 -0.3489
   81MOL0     O10835  12.994  -0.139   9.667 -1.1859 -1.2580  0.0316
   81MOL0     C10836  13.105  -0.107   9.579 -1.0733  0.1287  0.1777
   81MOL0     C10837  13.191  -0.226   9.556 -0.3001 -1.1838 -0.2552
   81MOL0     C10838  13.297  -0.208   9.441  0.0667 -0.2172 -0.9265
   81MOL0     C10839  13.250  -0.227   9.294  0.9589 -0.2321  0.1314
   81MOL0     C10840  13.381  -0.281   9.222  0.9513  0.3866 -0.2323
   81MOL0     C10841  13.352  -0.300   9.068  0.3693  1.5502 -0.8782
   81MOL0     C10842  13.271  -0.215   8.978 -0.3604 -0.6751  1.0722
   81MOL0     C10843  13.205  -0.284   8.860  0.5368 -1.4440  0.0488
   81MOL0    Cl10844  13.133  -0.158   8.757 -0.2478 -0.0326  0.4200
   81MOL0     C10845  12.805  -0.092   9.525 -0.4705  0.7813 -0.4039
   81MOL0     C10846  12.685  -0.132   9.475  0.2888  0.1626 -0.4811
   81MOL0     O10847  12.522  -0.437   9.383 -0.5324  0.1420 -0.0112
   81MOL0     C10848  12.193  -0.312   9.457 -1.2048 -0.4251 -0.4413
   81MOL0     C10849  12.064  -0.349   9.425  0.1204 -0.7937  0.3641
   81MOL0     N10850  11.524  -0.801   9.668  0.5860 -0.2357 -0.2262
   81MOL0     N10851  11.414  -0.815   9.733 -0.2110 -0.6488 -0.2410
   81MOL0     C10852  10.753  -0.185  10.213 -0.3408  0.4574 -0.1846
   81MOL0     C10853  10.671  -0.078  10.226 -0.1079  0.0899  1.0138
   81MOL0     C10854  10.563   0.344  10.388 -0.2142  0.0851  0.4944
   81MOL0     C10855  10.485   0.291  10.496  0.0485 -0.4410  0.1014
   81MOL0     C10856  10.391   0.371  10.560  0.5421 -0.1105 -0.5090
   81MOL0     C10857  10.367   0.502  10.521 -0.4163  0.2139 -0.1207
   81MOL0     O10858  10.271   0.572  10.590  0.5637  0.4288  0.5452
   81MOL0     C10859  10.302   0.609  10.720 -0.1343 -0.7878 -1.3639
   81MOL0     C10860  10.218   0.729  10.777 -0.1561 -0.9074 -0.2181
   81MOL0     C10861  10.068   0.709  10.797 -0.5107 -0.1265  0.3869
   81MOL0     C10862   9.995   0.733  10.671 -0.4257 -0.6340 -0.1347
   81MOL0     C10863   9.855   0.740  10.707  0.8371  0.1754  0.1055
   81MOL0     C10864   9.739   0.754  10.745 -0.2488  0.4719 -1.2114
   81MOL0     C10865  10.439   0.559  10.423  0.1425  0.0779  1.1567
   81MOL0     C10866  10.537   0.482  10.347  0.8232  0.8775  0.4041
   81MOL0     C10867  10.600   0.553  10.234 -0.6956 -0.2090 -0.3648
   81MOL0     H10868  10.862   0.089  10.451 -0.5435  0.3337  0.8530
   81MOL0     H10869  11.023  -0.105  10.405  0.7277 -0.2388 -1.2617
   81MOL0     H10870  11.001  -0.490  10.217 -1.2406 -1.4591  0.0387
   81MOL0     H10871  10.830  -0.460  10.240 -0.7977  1.8442  0.8892
   81MOL0     H10872  10.978  -0.318  10.026  1.2477 -0.1235  2.7968
   81MOL0     H10873  10.818  -0.411  10.003  1.0907 -5.1768 -2.4934
   81MOL0     H10874  11.086  -0.538  10.028  0.6560  1.3814 -0.9445
   81MOL0     H10875  11.000  -0.516   9.877  3.1973  0.7049  0.7115
   81MOL0     H10876  10.905  -0.676  10.116  1.7728  1.5946  0.4149
   81MOL0     H10877  10.799  -0.642   9.982 -0.1066 -2.0609 -0.4607
   81MOL0     H10878  11.058  -0.787   9.966  0.8158 -2.5553 -2.3119
   81MOL0     H10879  10.908  -0.875   9.957  0.0900  1.1799  2.7877
   81MOL0     H10880  10.898  -0.845   9.737 -1.8557  1.2845  2.1360
   81MOL0     H10881  10.928  -0.674   9.742 -2.8448 -1.1282 -0.1331
   81MOL0     H10882  11.101  -0.837   9.626  2.1644  1.1862 -1.9304
   81MOL0     H10883  11.137  -0.893   9.786 -1.3659 -1.3169 -1.5819
   81MOL0     H10884  11.167  -0.597   9.706 -1.4754 -0.6544 -0.7987
   81MOL0     H10885  11.226  -0.670   9.858  1.7181  1.9119 -0.4978
   81MOL0     H10886  11.337  -0.585   9.508  0.4557 -0.0765 -0.9447
   81MOL0     H10887  11.729  -0.653   9.531  0.5681  2.0077 -0.4060
   81MOL0     H10888  11.659  -0.777   9.425  0.4704  0.5997  0.3480
   81MOL0     H10889  11.508  -0.583   9.329  1.2363  0.1180 -3.4596
   81MOL0     H10890  11.611  -0.485   9.416  2.5609  0.0299 -0.2795
   81MOL0     H10891  11.667  -0.493   9.181  0.4316  3.0899  2.6874
   81MOL0     H10892  11.660  -0.676   9.175 -1.2961 -2.6411  3.8281
   81MOL0     H10893  11.893  -0.572   9.143  0.4867 -1.7886  0.2585
   81MOL0     H10894  11.880  -0.678   9.291 -1.4202 -0.7993  0.2856
   81MOL0     H10895  12.115  -0.567   9.178 -2.8144 -0.5694  0.4928
   81MOL0     H10896  12.349  -0.497   9.220  0.0286  1.2104 -1.0193
   81MOL0     H10897  12.625  -0.392   9.668  1.8888 -1.2626 -1.2928
   81MOL0     H10898  12.865  -0.350   9.739 -0.5305 -2.0697 -1.4809
   81MOL0     H10899  13.051  -0.070   9.492 -2.3165 -0.6745  0.5703
   81MOL0     H10900  13.154  -0.013   9.603 -1.1412  0.1261  0.3388
   81MOL0     H10901  13.240  -0.245   9.652 -0.1828 -2.2512 -0.5058
   81MOL0     H10902  13.124  -0.308   9.530  0.4613 -2.4914  1.6481
   81MOL0     H10903  13.335  -0.106   9.443  0.3949 -0.3133 -1.7858
   81MOL0     H10904  13.373  -0.281   9.471 -1.5389 -0.5564  2.9319
   81MOL0     H10905  13.203  -0.143   9.242 -0.7397  0.7297  3.0247
   81MOL0     H10906  13.177  -0.308   9.296  0.7969 -0.1325 -1.1873
   81MOL0     H10907  13.396  -0.378   9.271 -1.3633 -1.7954 -3.4178
   81MOL0     H10908  13.471  -0.222   9.244  1.5026  0.1783 -1.7367
   81MOL0     H10909  13.451  -0.313   9.023  2.3288  1.4282  3.0422
   81MOL0     H10910  13.290  -0.390   9.071  0.1113  1.7190 -1.1032
   81MOL0     H10911  13.343  -0.143   8.937  2.3914 -3.0030  1.4707
   81MOL0     H10912  13.195  -0.152   9.024 -0.4285  2.1197 -2.4755
   81MOL0     H10913  13.276  -0.340   8.798  1.3476  1.1950 -1.5403
   81MOL0     H10914  13.119  -0.336   8.903 -0.5591 -0.8118 -1.3158
   81MOL0     H10915  12.839   0.002   9.482 -1.1161 -0.0320 -2.8863
   81MOL0     H10916  12.641  -0.070   9.397 -0.8684 -0.2291 -0.1640
   81MOL0     H10917  12.214  -0.242   9.537  0.4317 -2.0713  0.6707
   81MOL0     H10918  11.979  -0.298   9.469 -0.1033 -1.9256  1.3053
   81MOL0     H10919  10.724  -0.266  10.146  2.3563 -2.1643  1.5872
   81MOL0     H10920  10.573  -0.075  10.180  0.3698 -4.0759 -0.6980
   81MOL0     H10921  10.502   0.191  10.534 -0.5546  0.1496  2.0384
   81MOL0     H10922  10.340   0.338  10.650  2.2578 -0.9555  0.1915
   81MOL0     H10923  10.409   0.621  10.737  0.4394 -2.8573 -3.0732
   81MOL0     H10924  10.275   0.524  10.782  0.7362  0.1168  0.3212
   81MOL0     H10925  10.227   0.821  10.718 -1.6520  1.7422  3.2621
   81MOL0     H10926  10.253   0.760  10.876  1.1918  0.1131 -0.9848
   81MOL0     H10927  10.040   0.787  10.868 -1.3817 -0.7588  0.7521
   81MOL0     H10928  10.058   0.609  10.839  0.1143 -0.1050  0.6066
   81MOL0     H10929  10.039   0.820  10.621 -0.6311 -0.5072 -0.0954
   81MOL0     H10930  10.013   0.647  10.607  1.2428 -0.3470 -0.0912
   81MOL0     H10931   9.648   0.776  10.796  0.2232  1.3805 -0.7306
   81MOL0     H10932  10.418   0.661  10.393 -0.8844 -0.2527  0.7142
   81MOL0     H10933  10.709   0.552  10.249 -0.5806 -0.4292 -1.1793
   81MOL0     H10934  10.580   0.498  10.142  0.0892 -2.4041  0.7258
   81MOL0     H10935  10.551   0.651  10.223 -3.4355 -0.9552  3.2679
   82MOL0     O10936   8.173   5.254   9.696 -0.1534 -0.2222  0.0918
   82MOL0     C10937   8.107   5.274   9.797  0.9285 -0.4373  0.0359
   82MOL0     O10938   8.153   5.323   9.926 -0.0451 -0.2069 -0.6152
   82MOL0     C10939   8.287   5.296   9.960  0.2454  1.0472  0.2390
   82MOL0     C10940   8.370   5.186   9.922 -0.0134 -0.1867  1.3841
   82MOL0     C10941   8.498   5.177   9.959  0.0878 -0.1562  0.8648
   82MOL0     C10942   8.559   5.277  10.030 -0.2249  0.1778  0.8323
   82MOL0     O10943   8.697   5.259  10.055  0.4059 -0.1157 -0.5197
   82MOL0     C10944   8.776   5.381  10.063 -0.2356  0.1893 -1.3188
   82MOL0     C10945   8.817   5.412  10.209  0.1999  0.2754 -0.3361
   82MOL0     C10946   8.933   5.310  10.265  0.1565 -0.7725  0.0975
   82MOL0     C10947   9.013   5.393  10.370 -0.6066  0.3601 -0.4040
   82MOL0     C10948   9.126   5.324  10.428 -0.3035  0.0305  0.5213
   82MOL0     C10949   9.192   5.381  10.558 -0.1156 -0.0304 -0.1456
   82MOL0     C10950   9.107   5.370  10.686  0.2783  0.1861 -1.0132
   82MOL0     C10951   9.178   5.415  10.817 -0.2688  1.4127  0.1260
   82MOL0     N10952   9.292   5.334  10.840  0.1711  0.5424 -0.2665
   82MOL0     C10953   9.393   5.370  10.930 -0.1808  0.1359  0.0694
   82MOL0     C10954   9.480   5.263  10.945 -0.1632 -0.0871  0.1271
   82MOL0     C10955   9.602   5.253  11.042  0.6616  0.2048 -0.0799
   82MOL0     C10956   9.569   5.224  11.197 -0.7134  0.0469  0.2357
   82MOL0     C10957   9.690   5.276  11.279  0.0008  0.8859 -0.2290
   82MOL0     C10958   9.674   5.417  11.340 -0.1766  0.3754 -0.0862
   82MOL0     O10959   9.668   5.510  11.229 -1.2480  0.8426  0.4470
   82MOL0     C10960   9.792   5.566  11.205  0.4712  0.1414 -0.3561
   82MOL0     C10961   9.871   5.624  11.302 -0.6333  0.1198 -1.1303
   82MOL0     C10962   9.989   5.693  11.282  0.2205  0.2660 -0.4458
   82MOL0     C10963  10.055   5.690  11.168  0.3591 -0.2760  0.8023
   82MOL0     C10964  10.189   5.751  11.151 -0.3517 -1.0164  1.3137
   82MOL0     O10965  10.255   5.722  11.026 -1.1064  0.3497 -0.7490
   82MOL0     C10966  10.390   5.761  11.002 -0.4218 -0.1234  0.1537
   82MOL0     C10967  10.462   5.681  10.919 -0.6300 -0.7064  0.2768
   82MOL0     C10968  10.598   5.707  10.895  1.2224 -0.5892  0.0613
   82MOL0     C10969  10.656   5.816  10.943 -0.3855 -0.6729 -0.8090
   82MOL0     O10970  10.777   5.841  10.900  0.2037  0.5963  0.2882
   82MOL0     C10971  10.869   5.859  11.013  0.7175 -0.2166  0.7513
   82MOL0     C10972  11.016   5.865  10.974  0.1053 -0.9718 -0.9123
   82MOL0     C10973  11.047   5.975  10.861  0.5876  1.1569 -0.3200
   82MOL0     C10974  11.189   5.997  10.817  0.2203  0.3365  0.9516
   82MOL0     C10975  11.195   6.111  10.708 -0.5904 -0.2022  0.1694
   82MOL0     C10976  11.131   6.241  10.756  0.3137  0.4396 -0.0714
   82MOL0     C10977  11.156   6.334  10.636  0.8370 -0.4076 -0.3867
   82MOL0     C10978  11.085   6.467  10.672 -0.5269  0.4224 -0.0594
   82MOL0    Cl10979  11.011   6.521  10.516  0.1324 -0.0098 -0.5166
   82MOL0     C10980  10.579   5.908  11.019 -0.0373 -0.5847  0.0553
   82MOL0     C10981  10.449   5.879  11.052  0.4244 -0.0416  0.9964
   82MOL0     O10982  10.238   5.822  11.234 -0.1002 -0.5756 -0.1089
   82MOL0     C10983   9.973   5.631  11.064  0.3627 -0.8653 -0.2656
   82MOL0     C10984   9.846   5.582  11.080  0.3014 -0.1096 -0.0351
   82MOL0     N10985   9.436   5.170  10.847  0.0641  0.4517  0.0996
   82MOL0     N10986   9.320   5.203  10.796 -0.0571 -0.2926 -0.8991
   82MOL0     C10987   8.483   5.386  10.074  0.5148 -1.0827 -0.7695
   82MOL0     C10988   8.349   5.397  10.037 -0.4217  0.4076  0.7811
   82MOL0     C10989   7.959   5.242   9.792 -0.0839  0.1726  0.7207
   82MOL0     C10990   7.910   5.139   9.871  0.8954  0.2676  0.7252
   82MOL0     C10991   7.777   5.089   9.854 -0.1911 -0.5825  0.6497
   82MOL0     C10992   7.687   5.162   9.767 -0.9425 -0.2797  0.5156
   82MOL0     O10993   7.554   5.137   9.745 -0.0012 -0.1993 -0.4579
   82MOL0     C10994   7.469   5.132   9.862 -0.8256 -0.1002  0.6920
   82MOL0     C10995   7.404   5.272   9.877 -0.0303 -0.0715  0.2166
   82MOL0     C10996   7.310   5.304   9.764  0.6436 -0.3408  0.4085
   82MOL0     C10997   7.166   5.236   9.764 -0.1200  0.3279 -0.1502
   82MOL0     C10998   7.080   5.265   9.877  0.1729  0.1675 -0.9358
   82MOL0     C10999   7.001   5.279   9.974 -0.1750 -0.2240  0.4268
   82MOL0     C11000   7.734   5.267   9.689 -0.1483 -0.1380 -0.1413
   82MOL0     C11001   7.872   5.302   9.699 -0.0686  0.4768 -0.0255
   82MOL0     C11002   7.932   5.402   9.612 -0.2812 -0.1284 -0.5928
   82MOL0     H11003   8.318   5.109   9.865 -5.6134  2.4100  2.2246
   82MOL0     H11004   8.569   5.106   9.917 -1.5569  0.5731 -3.6698
   82MOL0     H11005   8.857   5.373   9.990 -0.6424  1.9503 -2.0232
   82MOL0     H11006   8.721   5.469  10.030 -0.3874  1.8928  2.8512
   82MOL0     H11007   8.733   5.412  10.280  1.1240  0.1947  0.7794
   82MOL0     H11008   8.860   5.512  10.200  1.1056 -0.1861 -1.2642
   82MOL0     H11009   8.998   5.272  10.186  1.8740 -2.6020  2.2756
   82MOL0     H11010   8.893   5.221  10.313 -0.0165 -0.5750  0.3251
   82MOL0     H11011   9.062   5.484  10.332 -0.2444 -0.5280 -2.1947
   82MOL0     H11012   8.937   5.423  10.443 -1.1991  4.2885 -2.3520
   82MOL0     H11013   9.094   5.222  10.454 -0.0972 -0.0133  0.6074
   82MOL0     H11014   9.205   5.319  10.352  0.4371  0.5288  1.2412
   82MOL0     H11015   9.283   5.323  10.575 -0.6666 -1.3174 -1.3928
   82MOL0     H11016   9.216   5.486  10.540 -1.5926  0.1526 -1.2999
   82MOL0     H11017   9.091   5.262  10.684 -0.8282  0.3465 -1.8097
   82MOL0     H11018   9.010   5.420  10.676  0.9287  1.9674  0.6521
   82MOL0     H11019   9.218   5.517  10.818  1.5585  0.7398  1.0038
   82MOL0     H11020   9.119   5.404  10.909 -1.8044  3.6259 -0.5345
   82MOL0     H11021   9.385   5.466  10.980  0.3106  1.8059 -2.7942
   82MOL0     H11022   9.641   5.165  10.990  2.0997  0.0267  1.2380
   82MOL0     H11023   9.670   5.337  11.025  0.9093 -0.4144 -2.4240
   82MOL0     H11024   9.473   5.266  11.230 -1.2251  0.1093 -1.2455
   82MOL0     H11025   9.555   5.116  11.213  2.3052 -1.1118 -3.3081
   82MOL0     H11026   9.781   5.276  11.218 -0.1717 -2.6942 -0.7041
   82MOL0     H11027   9.706   5.213  11.368  0.9370  0.9012 -0.3769
   82MOL0     H11028   9.756   5.429  11.410  0.4080  2.2164 -1.0351
   82MOL0     H11029   9.586   5.427  11.403  1.3768 -0.1747  2.2988
   82MOL0     H11030   9.843   5.625  11.407  1.3876  1.8161 -0.5399
   82MOL0     H11031  10.038   5.738  11.368 -0.3995 -1.7373  1.0271
   82MOL0     H11032  10.413   5.595  10.874  0.3228 -0.4581 -1.2928
   82MOL0     H11033  10.641   5.649  10.814  1.4868  1.4070 -1.2918
   82MOL0     H11034  10.848   5.945  11.077 -1.0818  0.4452 -0.6536
   82MOL0     H11035  10.855   5.770  11.075  3.0002 -0.0343  1.6314
   82MOL0     H11036  11.084   5.874  11.059  1.1269 -0.9382 -1.7102
   82MOL0     H11037  11.039   5.764  10.940  0.3154 -1.3386  0.2932
   82MOL0     H11038  10.980   5.946  10.779 -0.6591  0.1188  1.0308
   82MOL0     H11039  11.008   6.071  10.896  0.6421  1.3354 -0.7441
   82MOL0     H11040  11.234   5.914  10.762  0.5502  1.2456 -0.1891
   82MOL0     H11041  11.253   6.013  10.904 -1.0455  0.9741  1.8011
   82MOL0     H11042  11.145   6.082  10.615  3.0730 -2.4903 -1.2633
   82MOL0     H11043  11.300   6.124  10.680 -0.5627  0.4138  0.5449
   82MOL0     H11044  11.026   6.226  10.781  0.5342 -0.5170  0.3627
   82MOL0     H11045  11.173   6.274  10.852 -1.3395  1.0283  0.4775
   82MOL0     H11046  11.115   6.286  10.546  2.4300 -1.8076 -0.4147
   82MOL0     H11047  11.264   6.349  10.629  0.7253  0.0107 -1.2784
   82MOL0     H11048  11.001   6.451  10.741 -0.4587 -1.0027 -0.2645
   82MOL0     H11049  11.154   6.540  10.716  1.3443 -0.1707 -1.8262
   82MOL0     H11050  10.626   5.996  11.061 -1.3365  1.3713 -2.3153
   82MOL0     H11051  10.386   5.953  11.100 -1.7187  1.7740 -3.9605
   82MOL0     H11052  10.016   5.642  10.965 -1.2687  1.0111 -0.8266
   82MOL0     H11053   9.795   5.563  10.986 -0.3954  4.0639 -0.6657
   82MOL0     H11054   8.512   5.455  10.152 -0.8074 -1.1493 -0.1925
   82MOL0     H11055   8.287   5.480  10.071  0.1159  0.6240  1.2476
   82MOL0     H11056   7.983   5.087   9.931  0.6762 -0.0461  0.7245
   82MOL0     H11057   7.742   5.004   9.910 -1.9940 -1.0462 -1.0797
   82MOL0     H11058   7.529   5.110   9.952  4.2660  0.5790 -2.1429
   82MOL0     H11059   7.386   5.064   9.842 -1.0562 -0.3422  2.3421
   82MOL0     H11060   7.487   5.343   9.888 -0.2845 -0.0113  2.0164
   82MOL0     H11061   7.349   5.273   9.972 -0.2817  1.2533  0.0716
   82MOL0     H11062   7.355   5.285   9.666  1.4272 -2.1670  1.0793
   82MOL0     H11063   7.297   5.412   9.766  1.3098 -0.2532  2.5246
   82MOL0     H11064   7.112   5.264   9.673  0.2799 -1.0919 -0.8464
   82MOL0     H11065   7.189   5.129   9.755 -0.6170  0.2890 -1.1275
   82MOL0     H11066   6.936   5.295  10.057  0.4749  0.7344  0.7705
   82MOL0     H11067   7.667   5.312   9.617 -2.2340 -0.4016  1.5488
   82MOL0     H11068   7.853   5.439   9.546 -0.6530  4.1742  1.8447
   82MOL0     H11069   7.974   5.490   9.663  2.2507 -0.8945 -1.2361
   82MOL0     H11070   8.002   5.350   9.547 -2.1609 -0.6961 -2.2438
   83MOL0     O11071   6.302   6.192   5.382  0.5617  0.0933  0.4641
   83MOL0     C11072   6.260   6.300   5.407  0.4482 -0.3614  0.3140
   83MOL0     O11073   6.333   6.412   5.401  0.2708 -0.0710 -0.2716
   83MOL0     C11074   6.469   6.406   5.416 -0.5236 -0.0975  0.7188
   83MOL0     C11075   6.546   6.477   5.325 -0.7218  0.2544 -1.2949
   83MOL0     C11076   6.688   6.468   5.334  0.2238 -0.1422  0.5040
   83MOL0     C11077   6.759   6.391   5.423 -0.2544  1.2811  0.9293
   83MOL0     O11078   6.900   6.404   5.414 -0.1978  0.8913  0.0390
   83MOL0     C11079   6.969   6.367   5.541 -0.4415 -0.4276 -0.4723
   83MOL0     C11080   7.091   6.461   5.543  0.2128 -0.2436 -0.8918
   83MOL0     C11081   7.177   6.433   5.668 -0.3267 -0.0347 -0.5648
   83MOL0     C11082   7.266   6.554   5.692 -0.5990  0.2890  1.0250
   83MOL0     C11083   7.389   6.505   5.766 -0.7338 -1.0859  0.1819
   83MOL0     C11084   7.479   6.620   5.811  0.5973  0.9345  0.9452
   83MOL0     C11085   7.600   6.560   5.893 -0.6800 -0.2308 -0.5428
   83MOL0     C11086   7.682   6.448   5.838  0.7003 -0.1067 -0.3220
   83MOL0     N11087   7.762   6.485   5.721  0.4374  0.2589 -0.3632
   83MOL0     C11088   7.886   6.537   5.714  0.3074  0.0910 -0.6846
   83MOL0     C11089   7.932   6.527   5.587 -0.5888  0.1873 -0.0271
   83MOL0     C11090   8.070   6.587   5.557  0.5364  0.1219 -0.0136
   83MOL0     C11091   8.093   6.735   5.595 -0.0421 -0.3962  0.4658
   83MOL0     C11092   8.159   6.794   5.470 -0.1894  0.9100 -0.1948
   83MOL0     C11093   8.296   6.740   5.449  0.5122 -0.3736  0.1718
   83MOL0     O11094   8.372   6.730   5.569  0.0847  0.1080 -0.2090
   83MOL0     C11095   8.503   6.765   5.565 -0.5744  0.6347  1.1375
   83MOL0     C11096   8.597   6.724   5.469  0.5319  0.5563 -0.3108
   83MOL0     C11097   8.728   6.785   5.454  0.3256  0.0062  0.2211
   83MOL0     C11098   8.760   6.880   5.545 -0.3417 -1.6660  0.2761
   83MOL0     C11099   8.887   6.959   5.539 -0.8740 -0.6575  0.0274
   83MOL0     O11100   8.900   7.088   5.595 -0.2131  0.1640 -0.4328
   83MOL0     C11101   9.026   7.136   5.620 -1.1638 -0.2509  0.2813
   83MOL0     C11102   9.086   7.121   5.747  0.4666  0.1711 -0.4018
   83MOL0     C11103   9.221   7.147   5.768 -0.7976 -0.5797 -0.5270
   83MOL0     C11104   9.311   7.192   5.663 -0.2449  0.3120  0.0095
   83MOL0     O11105   9.450   7.210   5.685  0.6655  0.5333 -0.2317
   83MOL0     C11106   9.546   7.227   5.574 -0.1642 -0.0630  0.3269
   83MOL0     C11107   9.681   7.278   5.620 -0.2490 -0.1647 -0.4900
   83MOL0     C11108   9.810   7.236   5.537  0.2404  0.5184 -0.0579
   83MOL0     C11109   9.932   7.292   5.589  0.8361  0.5084  0.6801
   83MOL0     C11110  10.052   7.249   5.500  1.0047  0.3480 -0.0239
   83MOL0     C11111  10.154   7.368   5.505  0.3774 -0.9285  0.0427
   83MOL0     C11112  10.196   7.393   5.655 -0.2424  0.4435 -0.2343
   83MOL0     C11113  10.350   7.402   5.676 -0.9968  0.0220  0.2855
   83MOL0    Cl11114  10.406   7.431   5.836  0.4342 -0.0982 -0.4340
   83MOL0     C11115   9.243   7.202   5.534 -0.8345 -0.0803 -0.2753
   83MOL0     C11116   9.112   7.175   5.515  0.0526  0.4090 -0.8268
   83MOL0     O11117   8.988   6.902   5.498  0.1991 -0.0467 -0.9086
   83MOL0     C11118   8.670   6.920   5.652  0.9644 -0.6146  0.5561
   83MOL0     C11119   8.543   6.865   5.657  0.2334  0.8564 -0.0551
   83MOL0     N11120   7.835   6.464   5.518 -0.0834 -0.2016  0.1091
   83MOL0     N11121   7.733   6.445   5.593  0.2576  0.8467 -0.2154
   83MOL0     C11122   6.676   6.320   5.516  0.6805  0.1052 -0.5650
   83MOL0     C11123   6.537   6.332   5.517 -0.1262 -0.3615  0.4874
   83MOL0     C11124   6.117   6.316   5.437  0.2468 -0.4043  0.5543
   83MOL0     C11125   6.034   6.201   5.434 -0.8544  1.4891 -0.7061
   83MOL0     C11126   5.901   6.204   5.450 -0.8173  0.0619 -0.2061
   83MOL0     C11127   5.830   6.323   5.464 -0.2291 -0.7066  0.2640
   83MOL0     O11128   5.691   6.324   5.477 -0.3587 -1.1989  0.3657
   83MOL0     C11129   5.629   6.449   5.478  0.3927 -0.2981  0.1909
   83MOL0     C11130   5.479   6.439   5.477  0.0254  0.0540 -0.2239
   83MOL0     C11131   5.388   6.558   5.461 -0.7037 -1.0609 -1.0855
   83MOL0     C11132   5.438   6.675   5.539 -0.1326 -0.7386  0.1520
   83MOL0     C11133   5.356   6.790   5.505  0.6661  0.0366  0.2350
   83MOL0     C11134   5.302   6.885   5.448 -0.9356 -0.6764 -0.3479
   83MOL0     C11135   5.907   6.443   5.466 -0.2235 -0.9784 -0.2606
   83MOL0     C11136   6.051   6.441   5.463  0.1129  0.5246 -0.0047
   83MOL0     C11137   6.116   6.577   5.471  0.2578  0.3618 -0.1930
   83MOL0     H11138   6.493   6.543   5.256 -4.0358 -0.1409  0.6489
   83MOL0     H11139   6.757   6.519   5.267 -1.7567 -1.0218 -2.4382
   83MOL0     H11140   6.902   6.385   5.626  1.5060  0.4239  0.9626
   83MOL0     H11141   7.004   6.264   5.553 -0.6789 -0.4801 -0.1992
   83MOL0     H11142   7.049   6.561   5.544 -2.7527 -1.4144  0.3779
   83MOL0     H11143   7.154   6.437   5.456  1.0615  0.1008 -0.3835
   83MOL0     H11144   7.238   6.346   5.643  1.2608  0.6753  0.6646
   83MOL0     H11145   7.125   6.413   5.762  3.2233 -2.1564  1.1749
   83MOL0     H11146   7.302   6.594   5.596  0.5713 -1.4766  0.6783
   83MOL0     H11147   7.207   6.631   5.742 -0.4033  2.6629 -2.0510
   83MOL0     H11148   7.372   6.451   5.860  2.3451 -1.5891  0.5354
   83MOL0     H11149   7.453   6.442   5.704 -0.2616 -1.9230  1.4773
   83MOL0     H11150   7.523   6.668   5.723  2.7064  0.8973  1.9207
   83MOL0     H11151   7.428   6.706   5.856 -0.6472  1.7959 -1.8675
   83MOL0     H11152   7.561   6.528   5.990  1.5495  2.4583  1.4045
   83MOL0     H11153   7.665   6.641   5.927  0.7878 -1.5710 -0.0047
   83MOL0     H11154   7.753   6.407   5.909  0.9571  1.6186  0.4843
   83MOL0     H11155   7.610   6.368   5.818 -1.0515  1.0428  1.0613
   83MOL0     H11156   7.946   6.568   5.798  0.1150 -1.8430  0.2315
   83MOL0     H11157   8.148   6.529   5.607  2.5280  0.5662 -2.3798
   83MOL0     H11158   8.078   6.568   5.450  1.6765 -2.1529  0.4126
   83MOL0     H11159   7.994   6.780   5.603 -0.0758 -0.3214 -0.2631
   83MOL0     H11160   8.144   6.750   5.690  2.2190  4.1904 -1.1832
   83MOL0     H11161   8.170   6.903   5.474  3.7521  0.7105 -1.1080
   83MOL0     H11162   8.109   6.775   5.375 -1.0510  0.7503  0.2853
   83MOL0     H11163   8.341   6.803   5.371 -0.9327 -0.0109 -0.3936
   83MOL0     H11164   8.282   6.645   5.396  0.5873  0.4897 -1.4703
   83MOL0     H11165   8.549   6.654   5.401 -0.8551  1.1066  0.0491
   83MOL0     H11166   8.798   6.737   5.386  0.0963  2.8699 -2.2264
   83MOL0     H11167   9.033   7.095   5.838  1.9751  0.7073  0.6690
   83MOL0     H11168   9.251   7.133   5.871 -1.5607  2.1959  0.1498
   83MOL0     H11169   9.546   7.123   5.539  1.2585 -0.3470  1.0603
   83MOL0     H11170   9.511   7.297   5.498 -0.9329 -1.3238 -0.5187
   83MOL0     H11171   9.683   7.387   5.611  1.2600  0.0480  1.6903
   83MOL0     H11172   9.697   7.261   5.727 -1.4157 -4.1561 -0.7664
   83MOL0     H11173   9.820   7.127   5.540 -0.2047  0.4762  0.0461
   83MOL0     H11174   9.787   7.272   5.436  0.6607 -1.4010 -0.8713
   83MOL0     H11175   9.943   7.271   5.696 -0.0620  0.7395  0.8184
   83MOL0     H11176   9.917   7.400   5.582  2.2896  0.9838  3.3410
   83MOL0     H11177  10.003   7.231   5.404 -0.4799  0.4610  0.6909
   83MOL0     H11178  10.090   7.153   5.538 -0.9409 -1.3068 -2.0044
   83MOL0     H11179  10.244   7.350   5.445  2.3785  0.4534  2.4685
   83MOL0     H11180  10.102   7.461   5.478  2.3313 -0.2926 -1.8464
   83MOL0     H11181  10.158   7.314   5.719 -1.1973  0.0025 -1.3078
   83MOL0     H11182  10.146   7.484   5.688  1.6464  1.3228  0.3957
   83MOL0     H11183  10.394   7.308   5.642 -0.9833 -1.3646  3.7726
   83MOL0     H11184  10.381   7.477   5.602  0.0618 -0.9304 -0.2674
   83MOL0     H11185   9.302   7.238   5.450 -0.3767 -1.1728 -0.4534
   83MOL0     H11186   9.062   7.184   5.420 -1.0268 -1.5124 -0.4849
   83MOL0     H11187   8.697   6.989   5.732  0.9675  0.7518 -0.5840
   83MOL0     H11188   8.469   6.895   5.731 -1.0065 -4.1439  1.1272
   83MOL0     H11189   6.724   6.259   5.592  1.0215 -0.4713 -1.2384
   83MOL0     H11190   6.481   6.272   5.587 -1.6026  1.7328  1.1772
   83MOL0     H11191   6.075   6.101   5.417  0.3848  2.2111 -2.1787
   83MOL0     H11192   5.849   6.110   5.463 -1.2903  0.4678  1.0414
   83MOL0     H11193   5.658   6.496   5.383  0.0175  0.3541  0.3893
   83MOL0     H11194   5.653   6.506   5.569 -0.9862 -1.7337  1.5181
   83MOL0     H11195   5.448   6.398   5.573  0.9030 -0.7104 -0.2599
   83MOL0     H11196   5.461   6.368   5.395  3.6972  0.4995 -1.6002
   83MOL0     H11197   5.287   6.522   5.481 -0.8082 -0.4819 -0.5416
   83MOL0     H11198   5.382   6.595   5.358 -2.3337  3.0783  0.2873
   83MOL0     H11199   5.411   6.669   5.645 -0.7305  2.9579  0.3316
   83MOL0     H11200   5.539   6.701   5.507  0.5927 -1.1111  2.0303
   83MOL0     H11201   5.247   6.961   5.398  0.0482  0.0871 -0.2974
   83MOL0     H11202   5.858   6.539   5.476  0.1492 -0.9521  2.0230
   83MOL0     H11203   6.177   6.596   5.383 -0.1837 -1.3371 -0.8956
   83MOL0     H11204   6.039   6.649   5.500 -1.1495 -0.2797 -2.1685
   83MOL0     H11205   6.194   6.572   5.548 -0.3159 -0.3707  0.3558
   84MOL0     O11206   0.319   8.787   1.012  0.6475  0.1521  0.4194
   84MOL0     C11207   0.219   8.721   1.032  0.1562  0.7292  0.2588
   84MOL0     O11208   0.137   8.718   1.140  1.3033  0.0542  0.6125
   84MOL0     C11209   0.190   8.770   1.249  0.5714 -1.4187 -0.5201
   84MOL0     C11210   0.285   8.710   1.331  0.2300 -0.6560  0.0482
   84MOL0     C11211   0.340   8.781   1.444  0.8194  0.0095 -0.0274
   84MOL0     C11212   0.302   8.911   1.467  0.2313 -0.8403 -0.7642
   84MOL0     O11213   0.383   8.979   1.562 -0.1503 -0.1189 -0.2294
   84MOL0     C11214   0.338   9.105   1.620  0.1446 -0.5860 -0.2569
   84MOL0     C11215   0.222   9.064   1.717  0.5342  0.1732  0.2119
   84MOL0     C11216   0.244   8.958   1.828 -0.0461  0.1171  0.5594
   84MOL0     C11217   0.126   8.881   1.876 -0.0586 -0.2048 -0.0305
   84MOL0     C11218   0.181   8.772   1.962  0.7551 -0.0964 -0.7374
   84MOL0     C11219   0.066   8.691   2.025 -0.0816 -0.0131 -0.1694
   84MOL0     C11220  -0.041   8.761   2.108 -0.2725 -0.2763  0.7293
   84MOL0     C11221  -0.118   8.664   2.198 -0.8965  0.8698 -0.8077
   84MOL0     N11222  -0.244   8.722   2.242 -0.6201 -0.1076 -0.1860
   84MOL0     C11223  -0.354   8.736   2.159 -0.0529  0.3878 -0.1435
   84MOL0     C11224  -0.432   8.812   2.231 -0.6187  1.1030  0.6783
   84MOL0     C11225  -0.560   8.861   2.188  0.4317  0.1169  0.1736
   84MOL0     C11226  -0.682   8.828   2.287 -0.3611 -0.8760 -0.3443
   84MOL0     C11227  -0.821   8.893   2.266  0.3205  0.0902  0.7735
   84MOL0     C11228  -0.879   8.863   2.125  0.6141  0.0453 -0.3572
   84MOL0     O11229  -1.002   8.930   2.118  0.3598 -0.5463 -0.0400
   84MOL0     C11230  -1.073   8.914   2.002 -0.3608 -0.3657  0.3530
   84MOL0     C11231  -1.046   8.821   1.899 -0.5670 -0.4959 -0.2201
   84MOL0     C11232  -1.135   8.805   1.790  0.6626  0.4052 -0.2222
   84MOL0     C11233  -1.247   8.886   1.772  0.1803 -0.0975  0.8884
   84MOL0     C11234  -1.340   8.857   1.661  0.5517 -0.6278  1.3616
   84MOL0     O11235  -1.424   8.964   1.614  0.0389  0.0704 -0.4629
   84MOL0     C11236  -1.530   8.923   1.532  0.2914 -0.4490 -0.4852
   84MOL0     C11237  -1.527   8.949   1.397 -0.9918 -0.6326 -0.2499
   84MOL0     C11238  -1.638   8.915   1.315 -0.3331  0.3342  0.1408
   84MOL0     C11239  -1.745   8.859   1.372  1.0578  0.0569  0.0189
   84MOL0     O11240  -1.853   8.838   1.293 -0.5670 -0.0891 -0.1341
   84MOL0     C11241  -1.977   8.794   1.362  0.4972  0.6874  0.7888
   84MOL0     C11242  -2.090   8.770   1.264 -0.5800 -0.2794  0.6754
   84MOL0     C11243  -2.140   8.917   1.222  0.9580  1.3249  0.4320
   84MOL0     C11244  -2.215   8.909   1.094 -0.1554 -0.5287  0.4991
   84MOL0     C11245  -2.345   8.838   1.104 -0.0163 -1.0936 -0.4033
   84MOL0     C11246  -2.426   8.878   0.971 -0.6390  0.2376 -0.4217
   84MOL0     C11247  -2.576   8.834   0.986 -0.0783 -0.6483 -0.2150
   84MOL0     C11248  -2.666   8.870   0.868  0.7223  0.1770 -0.3040
   84MOL0    Cl11249  -2.660   9.045   0.846  0.0188  0.0990 -0.6905
   84MOL0     C11250  -1.741   8.829   1.512  0.7334  0.4495  0.6872
   84MOL0     C11251  -1.634   8.854   1.591  0.1918 -0.5769  0.3242
   84MOL0     O11252  -1.340   8.744   1.612  0.6610  0.2371 -0.2484
   84MOL0     C11253  -1.273   8.981   1.876 -0.4382  0.4540  0.3817
   84MOL0     C11254  -1.186   8.992   1.986  0.5006 -0.1635 -0.2747
   84MOL0     N11255  -0.372   8.849   2.346 -0.5634  0.5963  0.6283
   84MOL0     N11256  -0.256   8.800   2.350 -0.9125  0.0945 -0.5390
   84MOL0     C11257   0.189   8.972   1.391  0.4950 -0.2747 -0.1480
   84MOL0     C11258   0.147   8.906   1.278 -0.2811 -0.3346 -0.5371
   84MOL0     C11259   0.161   8.638   0.924  0.4913 -0.1574 -0.0970
   84MOL0     C11260   0.027   8.609   0.921  0.7711 -0.2536 -0.0879
   84MOL0     C11261  -0.033   8.550   0.807 -0.2118  1.2693 -0.7383
   84MOL0     C11262   0.050   8.481   0.707  0.4305  0.6998 -0.9466
   84MOL0     O11263  -0.012   8.391   0.622 -0.4665  0.2116  0.0194
   84MOL0     C11264   0.025   8.402   0.488 -0.3844  0.5211 -0.2210
   84MOL0     C11265  -0.017   8.285   0.393  0.0019 -0.3076 -0.4714
   84MOL0     C11266  -0.165   8.289   0.344  0.2607 -0.5071 -0.2760
   84MOL0     C11267  -0.255   8.245   0.461  0.4325  0.9375  0.2413
   84MOL0     C11268  -0.399   8.218   0.424 -0.6673  0.1959  0.0223
   84MOL0     C11269  -0.504   8.193   0.379  0.1375 -0.2788  1.2135
   84MOL0     C11270   0.191   8.504   0.718 -0.0479  1.3438 -0.0485
   84MOL0     C11271   0.244   8.572   0.826  0.2246  0.8143 -0.0330
   84MOL0     C11272   0.395   8.562   0.853  0.3214  0.5712  0.1578
   84MOL0     H11273   0.307   8.606   1.310  0.9518 -0.0888 -2.1806
   84MOL0     H11274   0.411   8.733   1.511 -0.4234  0.1305  1.4312
   84MOL0     H11275   0.425   9.134   1.680 -1.0032 -2.1573  2.3244
   84MOL0     H11276   0.305   9.181   1.548  2.4276 -1.1678 -2.0114
   84MOL0     H11277   0.135   9.023   1.663  0.0143  1.9309 -0.3693
   84MOL0     H11278   0.184   9.155   1.765  1.8715  0.8395  0.0537
   84MOL0     H11279   0.296   9.012   1.908  0.0723  0.0405  0.5337
   84MOL0     H11280   0.309   8.884   1.781 -0.2239 -0.2155  0.8251
   84MOL0     H11281   0.068   8.951   1.937  3.2077  1.2048  1.7120
   84MOL0     H11282   0.061   8.846   1.795 -1.7434  0.1321  1.1181
   84MOL0     H11283   0.238   8.702   1.900  0.8830 -0.0454 -0.6783
   84MOL0     H11284   0.240   8.813   2.044 -1.2111  0.4021  0.4979
   84MOL0     H11285   0.014   8.629   1.952 -2.4880  1.6387  0.0269
   84MOL0     H11286   0.109   8.621   2.098 -2.4917 -1.9404 -0.4499
   84MOL0     H11287  -0.114   8.821   2.053 -0.0760 -1.4176 -0.8700
   84MOL0     H11288   0.011   8.828   2.177  2.4504 -1.4198 -0.0639
   84MOL0     H11289  -0.150   8.574   2.144 -0.4588  0.2053  0.0011
   84MOL0     H11290  -0.057   8.637   2.285 -1.6499  0.2992 -0.4382
   84MOL0     H11291  -0.355   8.706   2.055 -0.1508 -0.0264 -0.0248
   84MOL0     H11292  -0.549   8.966   2.158 -0.1857  0.4672  1.1320
   84MOL0     H11293  -0.591   8.818   2.093  0.1449  0.8553 -0.0695
   84MOL0     H11294  -0.696   8.720   2.274  1.7667 -1.0070 -2.2006
   84MOL0     H11295  -0.642   8.854   2.386  1.6924 -0.6686 -1.1626
   84MOL0     H11296  -0.808   9.001   2.278  0.5338  0.3931 -1.7266
   84MOL0     H11297  -0.887   8.852   2.342  0.1459 -0.0647  0.5378
   84MOL0     H11298  -0.887   8.754   2.118  0.0967 -0.0919  1.7508
   84MOL0     H11299  -0.803   8.896   2.053  2.3357  1.9731  2.1668
   84MOL0     H11300  -0.963   8.755   1.921 -1.3736 -1.8061 -1.0068
   84MOL0     H11301  -1.110   8.732   1.712 -0.3189  0.8826 -1.0105
   84MOL0     H11302  -1.443   8.995   1.347 -2.1642 -2.9837 -4.9132
   84MOL0     H11303  -1.629   8.944   1.211 -1.4129  2.0261  0.4932
   84MOL0     H11304  -1.957   8.702   1.417 -4.3762 -0.1648  1.6459
   84MOL0     H11305  -2.017   8.868   1.432 -1.3463 -0.6973  1.2718
   84MOL0     H11306  -2.068   8.699   1.184 -2.5010  0.7862 -0.8967
   84MOL0     H11307  -2.170   8.721   1.321  0.2177 -1.8663  0.4709
   84MOL0     H11308  -2.183   8.965   1.311  2.2842  1.9456  0.7550
   84MOL0     H11309  -2.048   8.973   1.203  1.3802  0.2158 -0.9486
   84MOL0     H11310  -2.159   8.837   1.033  1.4823 -2.5322  4.0682
   84MOL0     H11311  -2.222   9.008   1.048  1.6511 -1.2173 -1.4372
   84MOL0     H11312  -2.405   8.873   1.189 -0.6468 -0.9800 -0.8903
   84MOL0     H11313  -2.328   8.730   1.107  2.7031 -0.7283 -0.6627
   84MOL0     H11314  -2.396   8.982   0.957  0.5434 -0.1999 -1.2824
   84MOL0     H11315  -2.388   8.816   0.890 -0.6047  0.8429 -0.8739
   84MOL0     H11316  -2.621   8.877   1.076  2.2064 -1.0287  1.1684
   84MOL0     H11317  -2.583   8.727   1.007 -4.2399 -0.4657  0.1809
   84MOL0     H11318  -2.636   8.828   0.771  0.0616 -1.1603  0.0371
   84MOL0     H11319  -2.763   8.826   0.894  2.2004 -3.0411  0.3498
   84MOL0     H11320  -1.833   8.790   1.553  1.2568 -0.3496  1.1249
   84MOL0     H11321  -1.640   8.854   1.700 -3.4116  0.6508  0.2631
   84MOL0     H11322  -1.362   9.041   1.855 -2.0263 -2.1935 -0.9316
   84MOL0     H11323  -1.202   9.078   2.051  0.1774 -0.9198  0.6630
   84MOL0     H11324   0.157   9.075   1.408  5.2011  1.5427 -0.8869
   84MOL0     H11325   0.073   8.945   1.210 -1.6698 -4.2791 -1.5865
   84MOL0     H11326  -0.047   8.643   0.992 -2.4844  1.3738 -3.8416
   84MOL0     H11327  -0.138   8.533   0.788 -0.0268 -0.9213 -0.0286
   84MOL0     H11328   0.134   8.417   0.483 -0.2306  0.2735  1.6907
   84MOL0     H11329  -0.013   8.495   0.446  0.1150  0.3802 -1.0100
   84MOL0     H11330   0.005   8.190   0.442  0.6927 -0.1422 -0.4475
   84MOL0     H11331   0.045   8.283   0.303  0.2975  1.8513 -0.3731
   84MOL0     H11332  -0.181   8.206   0.274  1.3957 -0.0894 -1.0554
   84MOL0     H11333  -0.193   8.375   0.283 -0.3735 -1.1166 -0.8632
   84MOL0     H11334  -0.213   8.151   0.498 -0.8946  0.3448  0.3022
   84MOL0     H11335  -0.269   8.320   0.539 -1.9652  1.3361 -0.4861
   84MOL0     H11336  -0.597   8.203   0.327 -0.6124 -1.2631  2.3230
   84MOL0     H11337   0.253   8.476   0.635 -0.6286 -0.1166 -0.0158
   84MOL0     H11338   0.411   8.507   0.946  1.2783 -2.1904 -1.5074
   84MOL0     H11339   0.440   8.495   0.779 -1.1174 -0.5747  0.2808
   84MOL0     H11340   0.461   8.649   0.863  0.6824  0.1584  1.4754
   85MOL0     O11341   2.145   1.987   8.415  0.0892  0.3051  0.7226
   85MOL0     C11342   2.108   2.080   8.484  0.0782 -0.7060 -0.5242
   85MOL0     O11343   2.193   2.169   8.544  0.7966  0.6549 -0.0130
   85MOL0     C11344   2.331   2.195   8.525  0.1048  0.3024  0.3601
   85MOL0     C11345   2.399   2.141   8.412 -0.5997 -0.0959  0.3832
   85MOL0     C11346   2.541   2.156   8.406 -1.8264  0.7698 -0.0964
   85MOL0     C11347   2.612   2.214   8.507  0.2735  0.1242 -0.4490
   85MOL0     O11348   2.750   2.215   8.493  0.0299  0.3438 -0.2231
   85MOL0     C11349   2.828   2.181   8.607  0.3748 -0.1164  0.0097
   85MOL0     C11350   2.972   2.168   8.559  0.4612 -1.4876 -0.4045
   85MOL0     C11351   3.001   2.056   8.463  0.5813 -0.6911 -0.1684
   85MOL0     C11352   3.144   2.054   8.413 -0.3666  0.3296  0.3804
   85MOL0     C11353   3.158   1.952   8.308 -0.3762  0.4420  0.8157
   85MOL0     C11354   3.143   1.806   8.363 -0.1829  0.4749 -0.9106
   85MOL0     C11355   3.168   1.702   8.264 -0.6647  0.6708 -0.0861
   85MOL0     C11356   3.143   1.556   8.308  0.6255  0.2870 -0.0917
   85MOL0     N11357   2.997   1.538   8.335 -0.2563 -0.3824  0.4845
   85MOL0     C11358   2.943   1.459   8.439 -0.5825  0.0944 -0.0302
   85MOL0     C11359   2.815   1.445   8.403 -0.1512  0.4501 -0.9539
   85MOL0     C11360   2.716   1.367   8.475 -0.3496  0.6021 -0.8076
   85MOL0     C11361   2.620   1.452   8.547  0.7524  0.1619  0.4102
   85MOL0     C11362   2.560   1.359   8.657  0.0166 -0.4433 -0.7336
   85MOL0     C11363   2.498   1.431   8.769  0.2057 -0.2015 -0.1963
   85MOL0     O11364   2.446   1.344   8.865 -0.1439 -0.3980 -0.2492
   85MOL0     C11365   2.530   1.287   8.958 -0.7854  0.7506 -0.8640
   85MOL0     C11366   2.487   1.186   9.053  0.2418 -0.2515 -0.0896
   85MOL0     C11367   2.561   1.141   9.161  0.4230  0.4083  0.4468
   85MOL0     C11368   2.698   1.174   9.167  0.7110  0.1479 -0.0428
   85MOL0     C11369   2.793   1.115   9.263  0.1701 -0.1482 -0.1358
   85MOL0     O11370   2.881   1.210   9.313 -0.1139 -0.2980  0.3170
   85MOL0     C11371   2.952   1.169   9.422  0.4465  0.2948 -0.4970
   85MOL0     C11372   2.883   1.157   9.548 -0.1297  0.5032  0.5347
   85MOL0     C11373   2.960   1.111   9.655  0.7676 -0.2615 -0.1101
   85MOL0     C11374   3.100   1.081   9.645  0.2768 -0.8394 -0.9554
   85MOL0     O11375   3.166   1.033   9.754  0.1698  0.8300 -0.3158
   85MOL0     C11376   3.145   1.092   9.888 -0.7384 -0.0792 -1.0394
   85MOL0     C11377   3.054   1.003   9.962  0.0817  0.4845 -0.1226
   85MOL0     C11378   3.117   0.867   9.999  0.3863 -0.7241 -0.2950
   85MOL0     C11379   3.013   0.757   9.990 -0.4607  0.3900  0.3938
   85MOL0     C11380   3.081   0.623  10.016  0.1343 -0.6452  0.4106
   85MOL0     C11381   3.000   0.512   9.965  0.0845  0.4112  0.4199
   85MOL0     C11382   3.026   0.384  10.048  0.8491 -0.9161  1.2354
   85MOL0     C11383   2.922   0.366  10.161 -0.3856 -0.8070  0.5530
   85MOL0    Cl11384   2.948   0.500  10.290  0.0306  0.3336  0.2377
   85MOL0     C11385   3.169   1.103   9.526  0.7068 -0.5929 -0.3926
   85MOL0     C11386   3.092   1.145   9.415 -0.5868 -0.1364  0.4726
   85MOL0     O11387   2.773   1.005   9.305 -0.8916 -0.4601 -1.0542
   85MOL0     C11388   2.754   1.256   9.065  0.8704  0.0327  0.0919
   85MOL0     C11389   2.675   1.308   8.970  0.1527 -0.1034  1.2133
   85MOL0     N11390   2.790   1.501   8.286 -0.5108  0.0023 -0.9770
   85MOL0     N11391   2.896   1.558   8.239 -0.0385  0.0688 -1.1136
   85MOL0     C11392   2.544   2.265   8.613  0.1810 -0.8149 -0.1519
   85MOL0     C11393   2.407   2.273   8.614  0.1728 -0.0692  0.2249
   85MOL0     C11394   1.961   2.109   8.496 -0.2978 -0.2709  0.1616
   85MOL0     C11395   1.874   2.071   8.392 -0.3264 -0.0757 -0.5056
   85MOL0     C11396   1.739   2.079   8.395 -0.0068 -0.6139  0.1627
   85MOL0     C11397   1.681   2.119   8.516 -0.0233  0.1918  0.3391
   85MOL0     O11398   1.549   2.124   8.547 -0.6258  0.4826 -0.0598
   85MOL0     C11399   1.459   2.074   8.448  0.6032  0.3736 -0.8165
   85MOL0     C11400   1.460   1.914   8.425 -0.3364  0.0034 -0.9013
   85MOL0     C11401   1.413   1.841   8.552  0.9854 -0.4483  0.4692
   85MOL0     C11402   1.352   1.694   8.522 -0.3401 -0.1125 -0.3713
   85MOL0     C11403   1.214   1.697   8.509  0.7988  0.1308  0.1448
   85MOL0     C11404   1.097   1.703   8.480  0.2168  0.0046 -0.5536
   85MOL0     C11405   1.753   2.164   8.619 -0.1411 -0.6128 -0.2177
   85MOL0     C11406   1.898   2.169   8.609  0.5863  0.2584  0.3859
   85MOL0     C11407   1.973   2.209   8.731 -0.0777 -0.8236  0.4016
   85MOL0     H11408   2.355   2.095   8.324 -0.2116  0.1543  0.0538
   85MOL0     H11409   2.599   2.117   8.323  0.8702  0.5350  1.7767
   85MOL0     H11410   2.822   2.263   8.680  0.1614  0.7250 -0.9316
   85MOL0     H11411   2.794   2.087   8.651  0.7044 -0.6462 -0.8551
   85MOL0     H11412   3.035   2.139   8.643 -2.3383 -2.4742  1.4855
   85MOL0     H11413   3.008   2.260   8.511  2.0784 -1.3007  1.0458
   85MOL0     H11414   2.937   2.078   8.377  0.4445 -0.4720 -0.0095
   85MOL0     H11415   2.982   1.960   8.513  2.6378 -1.6851 -1.1530
   85MOL0     H11416   3.160   2.157   8.379 -2.2913  0.4267 -0.3556
   85MOL0     H11417   3.216   2.034   8.493 -0.8584  1.2329  1.0751
   85MOL0     H11418   3.089   1.977   8.227  1.9246  1.3076 -1.0040
   85MOL0     H11419   3.259   1.959   8.266 -0.2716  0.1245  1.0118
   85MOL0     H11420   3.225   1.799   8.435 -2.6058  2.8057  2.4033
   85MOL0     H11421   3.053   1.783   8.420  0.1759 -0.4495 -0.7034
   85MOL0     H11422   3.271   1.706   8.226 -1.2342  0.8436 -1.7044
   85MOL0     H11423   3.107   1.717   8.174  1.2238 -3.2146 -2.3274
   85MOL0     H11424   3.176   1.490   8.227  0.2963 -2.3709  1.8232
   85MOL0     H11425   3.211   1.547   8.393  1.6280  3.6771 -0.3839
   85MOL0     H11426   2.990   1.392   8.511 -2.2300 -2.8886 -1.5381
   85MOL0     H11427   2.658   1.307   8.404 -2.7555 -1.2185  2.4170
   85MOL0     H11428   2.769   1.297   8.540 -2.9972 -2.3221 -1.5157
   85MOL0     H11429   2.664   1.540   8.595 -1.7231  0.6957  1.9048
   85MOL0     H11430   2.549   1.490   8.473  2.7054 -0.7074 -2.0345
   85MOL0     H11431   2.623   1.286   8.707 -0.7967  0.9573  2.6608
   85MOL0     H11432   2.469   1.316   8.615 -1.5253  1.6415  0.2514
   85MOL0     H11433   2.421   1.495   8.724  0.4590  0.7165  0.6506
   85MOL0     H11434   2.570   1.499   8.815  1.2293 -2.3278  1.4883
   85MOL0     H11435   2.381   1.164   9.055 -0.2538  1.9324  2.0011
   85MOL0     H11436   2.522   1.064   9.227  0.2340 -1.4061 -1.6504
   85MOL0     H11437   2.778   1.173   9.568  0.3542  3.6152  1.1248
   85MOL0     H11438   2.910   1.086   9.748 -0.6832  0.6743 -0.5931
   85MOL0     H11439   3.238   1.084   9.945 -0.8338  0.4218 -0.8143
   85MOL0     H11440   3.110   1.195   9.889  1.2747  0.6596 -0.9887
   85MOL0     H11441   3.022   1.055  10.053  0.1148  1.0882 -0.4561
   85MOL0     H11442   2.963   0.989   9.903 -1.0221 -0.9852  1.7815
   85MOL0     H11443   3.207   0.846   9.939  0.2971  0.7958 -1.0075
   85MOL0     H11444   3.146   0.885  10.103 -2.7123 -0.2382  0.5721
   85MOL0     H11445   2.977   0.757   9.887  0.0337 -0.0314  0.2105
   85MOL0     H11446   2.932   0.768  10.063 -0.7328  1.1292 -0.0162
   85MOL0     H11447   3.103   0.623  10.123  1.6007 -0.7681  0.1331
   85MOL0     H11448   3.177   0.624   9.963 -0.2224 -0.2187 -0.2443
   85MOL0     H11449   2.894   0.534   9.975 -0.9805 -3.1194 -1.3159
   85MOL0     H11450   3.019   0.497   9.858 -0.3347  0.5786  0.3202
   85MOL0     H11451   3.128   0.378  10.087  0.4135  0.3300  2.6724
   85MOL0     H11452   3.013   0.297   9.983 -1.4884 -0.1726  0.6105
   85MOL0     H11453   2.818   0.380  10.130 -0.7906  0.6335  2.4241
   85MOL0     H11454   2.937   0.268  10.205  2.9995  0.4675  2.6494
   85MOL0     H11455   3.274   1.081   9.510  1.2062  1.5559 -0.3699
   85MOL0     H11456   3.144   1.170   9.324 -0.0618  4.7433  1.8136
   85MOL0     H11457   2.858   1.288   9.065  1.7218 -1.8744 -4.8509
   85MOL0     H11458   2.724   1.374   8.899 -3.0622 -1.2167 -2.4472
   85MOL0     H11459   2.604   2.317   8.687  0.7235 -0.7532 -0.6292
   85MOL0     H11460   2.353   2.325   8.693 -1.0210 -1.5469  0.4193
   85MOL0     H11461   1.918   2.030   8.302 -0.2408 -0.3691 -0.3327
   85MOL0     H11462   1.696   2.050   8.300 -1.9270 -1.2487  1.1711
   85MOL0     H11463   1.492   2.113   8.351  1.4450  1.3759 -0.1388
   85MOL0     H11464   1.362   2.117   8.476  1.9620  2.8148  0.4263
   85MOL0     H11465   1.562   1.883   8.404 -0.3162 -0.1223 -0.6247
   85MOL0     H11466   1.392   1.871   8.351 -3.0345 -0.0493  1.4001
   85MOL0     H11467   1.346   1.906   8.609  3.0693  0.7553  1.7028
   85MOL0     H11468   1.492   1.820   8.624  0.7014  1.2833  1.3313
   85MOL0     H11469   1.393   1.638   8.438 -0.9461  1.6165 -1.8663
   85MOL0     H11470   1.358   1.625   8.608 -0.6646  0.3173  0.0012
   85MOL0     H11471   0.995   1.704   8.449 -0.1949 -4.6854 -0.0579
   85MOL0     H11472   1.695   2.194   8.706  0.5648  5.0855 -1.3369
   85MOL0     H11473   1.900   2.254   8.800 -0.4174 -0.1278 -0.3944
   85MOL0     H11474   2.025   2.128   8.783  1.3130 -0.8541 -0.9692
   85MOL0     H11475   2.038   2.294   8.710 -0.6999 -0.7376 -1.3678
   86MOL0     O11476   2.984   2.197   9.820  0.0877 -0.6019  0.3208
   86MOL0     C11477   3.000   2.306   9.766 -0.0620 -0.2054  0.5139
   86MOL0     O11478   3.121   2.371   9.736 -0.0576  0.5429 -0.1405
   86MOL0     C11479   3.246   2.323   9.770 -0.4529  0.4101  0.7606
   86MOL0     C11480   3.351   2.405   9.738 -0.5895  0.2862 -0.0703
   86MOL0     C11481   3.484   2.375   9.774 -0.5937  0.5488  0.5102
   86MOL0     C11482   3.508   2.254   9.847  0.4468 -0.1310 -0.9968
   86MOL0     O11483   3.627   2.227   9.910  0.5180 -0.4847  0.3896
   86MOL0     C11484   3.734   2.252   9.822 -0.9113 -0.6966  0.0638
   86MOL0     C11485   3.856   2.183   9.882 -0.3996 -1.0252  0.5355
   86MOL0     C11486   3.991   2.225   9.807  0.3538  0.1202 -0.0483
   86MOL0     C11487   4.112   2.155   9.865  0.5742 -0.3453 -0.7680
   86MOL0     C11488   4.235   2.214   9.810 -0.6097  0.6591 -0.0168
   86MOL0     C11489   4.351   2.125   9.853  0.0748  0.6248 -0.5024
   86MOL0     C11490   4.486   2.172   9.792  0.1096 -1.5103  0.0103
   86MOL0     C11491   4.583   2.068   9.737  0.9171  0.4305  0.0697
   86MOL0     N11492   4.545   2.036   9.598 -1.0797  0.3034 -0.5152
   86MOL0     C11493   4.481   1.921   9.559  0.3633 -0.4649  0.0277
   86MOL0     C11494   4.428   1.964   9.439  0.3378  1.1205 -0.5388
   86MOL0     C11495   4.339   1.870   9.361  1.1801  0.0063  0.7773
   86MOL0     C11496   4.202   1.930   9.331  0.5461 -0.1488 -0.4931
   86MOL0     C11497   4.113   1.959   9.449  0.5237 -0.2497 -0.7302
   86MOL0     C11498   4.008   2.058   9.414  0.1679  0.0916  0.7573
   86MOL0     O11499   3.903   1.991   9.340  0.3738 -0.1104  0.0526
   86MOL0     C11500   3.777   2.045   9.334 -0.1583 -0.3376 -0.1641
   86MOL0     C11501   3.690   1.981   9.244  0.4937  0.3356 -0.5787
   86MOL0     C11502   3.557   2.005   9.235 -0.0038 -0.6272 -0.6123
   86MOL0     C11503   3.501   2.100   9.320 -0.3844  0.8245  0.6378
   86MOL0     C11504   3.355   2.123   9.326 -0.1358  0.5279 -0.2681
   86MOL0     O11505   3.312   2.247   9.329 -0.2319 -0.0402  1.1687
   86MOL0     C11506   3.181   2.274   9.300  0.3131 -0.6581 -0.1072
   86MOL0     C11507   3.079   2.237   9.383  0.5615 -0.3355  0.2648
   86MOL0     C11508   2.947   2.287   9.359 -0.3427  0.0978 -0.6224
   86MOL0     C11509   2.921   2.349   9.239  0.3264  0.5500 -0.8110
   86MOL0     O11510   2.792   2.374   9.196  0.3364 -0.7446 -1.0006
   86MOL0     C11511   2.729   2.480   9.270 -0.2390 -1.0054  0.4079
   86MOL0     C11512   2.582   2.495   9.213 -0.8316 -0.4312  0.1709
   86MOL0     C11513   2.493   2.368   9.201  0.8018 -0.0452  0.4168
   86MOL0     C11514   2.450   2.341   9.057  0.4392 -0.5980 -0.4948
   86MOL0     C11515   2.347   2.234   9.037 -0.4521  0.3215  0.1269
   86MOL0     C11516   2.215   2.243   9.124 -1.0877 -0.6588  0.3180
   86MOL0     C11517   2.122   2.354   9.077 -0.0807 -0.2300 -0.3008
   86MOL0     C11518   1.984   2.344   9.143 -0.3976  0.8002  0.6897
   86MOL0    Cl11519   1.976   2.365   9.318  0.0066 -0.8106 -0.6632
   86MOL0     C11520   3.026   2.380   9.154 -0.2425 -0.0796  0.4329
   86MOL0     C11521   3.149   2.342   9.180 -0.9595  0.0587 -0.6853
   86MOL0     O11522   3.285   2.025   9.320 -0.3711 -0.1120  0.2643
   86MOL0     C11523   3.583   2.180   9.406 -0.3212 -0.4440  0.1151
   86MOL0     C11524   3.724   2.150   9.407 -0.1848 -0.7587 -0.3725
   86MOL0     N11525   4.462   2.098   9.413  0.2572  0.9583  0.7028
   86MOL0     N11526   4.551   2.134   9.501  0.1980  0.3146  0.5401
   86MOL0     C11527   3.408   2.157   9.867  0.1330 -0.1928  1.1802
   86MOL0     C11528   3.273   2.199   9.827  0.7270 -0.2634 -0.2566
   86MOL0     C11529   2.879   2.372   9.703  0.0710 -0.0532 -0.0241
   86MOL0     C11530   2.887   2.512   9.656 -0.0492 -0.7020  0.4111
   86MOL0     C11531   2.777   2.588   9.600 -0.1395  0.3181  0.0868
   86MOL0     C11532   2.650   2.531   9.605  0.7248 -0.8746  0.5726
   86MOL0     O11533   2.535   2.610   9.564 -0.3266 -0.1365  0.0190
   86MOL0     C11534   2.400   2.563   9.593  0.2890  0.1044  0.5101
   86MOL0     C11535   2.317   2.685   9.619 -0.6076  0.3694  0.4462
   86MOL0     C11536   2.306   2.784   9.492  0.1009 -0.3914 -0.2286
   86MOL0     C11537   2.237   2.704   9.378  0.2207 -0.1813  0.1893
   86MOL0     C11538   2.223   2.802   9.271 -0.8159 -0.4943 -0.0611
   86MOL0     C11539   2.207   2.887   9.187 -0.6143 -0.2686 -0.3431
   86MOL0     C11540   2.641   2.393   9.640 -0.3017 -0.3139  0.8981
   86MOL0     C11541   2.748   2.316   9.693 -0.6134  0.0628 -0.1780
   86MOL0     C11542   2.711   2.168   9.726  0.4273 -0.7224 -0.0308
   86MOL0     H11543   3.334   2.502   9.692 -0.4666 -0.0059 -0.7551
   86MOL0     H11544   3.559   2.453   9.764 -0.4591  0.6174  1.8601
   86MOL0     H11545   3.731   2.198   9.728 -1.7714 -0.8647  0.1864
   86MOL0     H11546   3.772   2.354   9.807  1.3739 -1.6857 -1.4752
   86MOL0     H11547   3.838   2.076   9.884 -1.0992 -0.9404 -0.4051
   86MOL0     H11548   3.864   2.213   9.987 -3.0240 -1.0052  0.8029
   86MOL0     H11549   4.003   2.333   9.805 -0.0802  0.2057  0.9720
   86MOL0     H11550   3.984   2.198   9.702 -2.5635  0.6869 -0.1050
   86MOL0     H11551   4.112   2.169   9.974 -0.0151  1.2681 -0.9497
   86MOL0     H11552   4.096   2.048   9.849  1.0770 -1.3941  4.0856
   86MOL0     H11553   4.228   2.222   9.701  1.3968  0.0216 -0.2490
   86MOL0     H11554   4.255   2.309   9.859  0.4881 -0.9329  2.9017
   86MOL0     H11555   4.362   2.132   9.962 -1.2644  0.3620 -0.3356
   86MOL0     H11556   4.340   2.021   9.821 -0.0424 -0.4116  2.5450
   86MOL0     H11557   4.533   2.218   9.880 -2.1718 -4.1460  2.8405
   86MOL0     H11558   4.467   2.249   9.716  1.5000 -1.7351 -0.6039
   86MOL0     H11559   4.686   2.103   9.750  2.6415 -4.2283  0.9758
   86MOL0     H11560   4.566   1.969   9.782  1.1668  0.2768 -0.1706
   86MOL0     H11561   4.470   1.824   9.606  0.6996 -0.0447  1.0006
   86MOL0     H11562   4.380   1.833   9.266 -0.9749 -1.0061  0.1693
   86MOL0     H11563   4.317   1.776   9.413 -2.7077 -0.6162 -1.5562
   86MOL0     H11564   4.204   2.026   9.278 -6.0391  0.3229 -0.6990
   86MOL0     H11565   4.153   1.860   9.262  1.8376 -1.0066 -0.5728
   86MOL0     H11566   4.180   1.998   9.527 -0.5785  0.6996 -0.2319
   86MOL0     H11567   4.068   1.869   9.490 -0.4472  1.0529  1.2542
   86MOL0     H11568   4.050   2.142   9.358 -2.6766  2.9285  2.5258
   86MOL0     H11569   3.969   2.097   9.508  1.0753 -0.0995  1.2226
   86MOL0     H11570   3.735   1.904   9.182 -0.8366 -2.3709  1.6293
   86MOL0     H11571   3.495   1.936   9.180 -0.4508 -1.1366  0.4932
   86MOL0     H11572   3.108   2.182   9.472 -0.0148 -0.8111  0.1609
   86MOL0     H11573   2.865   2.252   9.421  2.4914 -1.3370  2.6845
   86MOL0     H11574   2.736   2.445   9.374 -0.1297 -2.4910 -0.0785
   86MOL0     H11575   2.776   2.577   9.254 -1.3428 -0.1874  1.8718
   86MOL0     H11576   2.531   2.569   9.275  0.1620  1.3703 -1.0670
   86MOL0     H11577   2.584   2.533   9.111  0.7180 -2.0179 -0.4368
   86MOL0     H11578   2.545   2.282   9.243  0.5993  0.5425  1.9245
   86MOL0     H11579   2.395   2.383   9.248 -0.6488 -1.6154 -1.8675
   86MOL0     H11580   2.538   2.305   9.003  1.1546  1.0425 -0.4842
   86MOL0     H11581   2.413   2.435   9.016 -1.3310 -0.1340  1.9532
   86MOL0     H11582   2.387   2.133   9.047 -1.9018 -0.0280  3.7351
   86MOL0     H11583   2.304   2.230   8.936 -1.7819 -2.6812  0.6874
   86MOL0     H11584   2.165   2.146   9.116  1.5953 -2.0695 -1.1467
   86MOL0     H11585   2.231   2.271   9.228  0.1877 -2.8719  0.7946
   86MOL0     H11586   2.109   2.368   8.969 -0.3325  0.6610 -0.1612
   86MOL0     H11587   2.160   2.447   9.119  1.1063 -1.0527  0.4964
   86MOL0     H11588   1.911   2.416   9.105 -0.2223  0.8893  0.5216
   86MOL0     H11589   1.946   2.241   9.137  2.6904 -0.4349  0.7424
   86MOL0     H11590   3.009   2.422   9.055 -0.8273 -2.0143 -0.3398
   86MOL0     H11591   3.232   2.370   9.116  3.1049 -1.0975  3.5054
   86MOL0     H11592   3.542   2.262   9.463  1.9871  1.7928 -1.2548
   86MOL0     H11593   3.792   2.201   9.473  3.1691 -2.1351 -2.5119
   86MOL0     H11594   3.423   2.064   9.922  1.1419 -0.1151  1.0613
   86MOL0     H11595   3.196   2.132   9.864  0.0786  0.2517 -0.6492
   86MOL0     H11596   2.978   2.571   9.666 -1.1006  1.9294 -3.0943
   86MOL0     H11597   2.782   2.693   9.572 -0.1144 -0.2370 -2.1482
   86MOL0     H11598   2.394   2.499   9.681 -0.8624 -2.0215 -1.0310
   86MOL0     H11599   2.368   2.505   9.506  1.3321  0.3288 -0.0484
   86MOL0     H11600   2.364   2.740   9.701  3.4601 -1.5216 -0.3560
   86MOL0     H11601   2.216   2.657   9.651  0.0118 -2.0776  0.4514
   86MOL0     H11602   2.407   2.819   9.472  1.1263 -2.5434  0.8689
   86MOL0     H11603   2.240   2.868   9.517 -1.1845 -0.3095 -3.4092
   86MOL0     H11604   2.287   2.613   9.345 -0.7220 -0.3191 -0.9612
   86MOL0     H11605   2.136   2.681   9.413 -0.0357 -1.1690 -1.1119
   86MOL0     H11606   2.213   2.971   9.120  0.3190 -0.1544 -0.1241
   86MOL0     H11607   2.540   2.354   9.638  0.7386 -3.4173 -2.7474
   86MOL0     H11608   2.778   2.101   9.672 -2.9522 -2.4808 -2.4008
   86MOL0     H11609   2.719   2.154   9.834 -2.3761 -0.5673  0.2614
   86MOL0     H11610   2.610   2.138   9.696  0.9783 -3.3592  0.4918
   87MOL0     O11611   3.234   0.807   7.835 -0.0367 -0.1253 -0.3297
   87MOL0     C11612   3.210   0.821   7.712  0.3590  0.5049 -0.3341
   87MOL0     O11613   3.289   0.848   7.611 -0.5051 -0.0959  0.2766
   87MOL0     C11614   3.428   0.863   7.631  0.5726  1.5377 -0.4240
   87MOL0     C11615   3.472   0.980   7.689 -0.1292 -0.4097  0.4904
   87MOL0     C11616   3.608   1.017   7.707  0.5757  0.5989 -0.7978
   87MOL0     C11617   3.699   0.923   7.652 -0.9245  0.2670 -0.4247
   87MOL0     O11618   3.834   0.942   7.644 -0.3183  0.5206  1.0991
   87MOL0     C11619   3.897   1.034   7.727  0.8670  0.5663  0.1184
   87MOL0     C11620   4.046   1.013   7.738 -0.7007 -0.3504  0.1566
   87MOL0     C11621   4.107   1.094   7.849 -0.6968  0.0016  0.0293
   87MOL0     C11622   4.256   1.111   7.827  0.0050  0.3426  0.0030
   87MOL0     C11623   4.327   1.141   7.959  0.6807  0.3109  0.3252
   87MOL0     C11624   4.477   1.180   7.932  0.5718 -0.8397  0.3935
   87MOL0     C11625   4.556   1.244   8.053 -0.5967  0.2750 -0.2888
   87MOL0     C11626   4.690   1.306   8.000 -0.6362 -0.3049 -0.3876
   87MOL0     N11627   4.790   1.337   8.108  0.9771 -0.3993  0.4470
   87MOL0     C11628   4.930   1.311   8.114 -0.0837 -0.1545  0.8137
   87MOL0     C11629   4.966   1.337   8.237  0.9602 -0.2874  0.5527
   87MOL0     C11630   5.109   1.326   8.276 -0.6932 -0.2194  0.0775
   87MOL0     C11631   5.183   1.464   8.274  0.1132 -0.5214 -0.3477
   87MOL0     C11632   5.137   1.570   8.381  0.2429 -0.4634 -0.2586
   87MOL0     C11633   5.233   1.687   8.383  0.7277  0.5350  0.3894
   87MOL0     O11634   5.198   1.799   8.304  0.3192 -0.2774 -0.1077
   87MOL0     C11635   5.281   1.902   8.288 -0.0668 -0.7094  0.6118
   87MOL0     C11636   5.395   1.918   8.360  0.4314 -0.9775  0.9711
   87MOL0     C11637   5.486   2.027   8.331 -0.3457  0.4736 -0.6636
   87MOL0     C11638   5.462   2.105   8.219  0.2617  0.2725 -0.9406
   87MOL0     C11639   5.563   2.207   8.185  0.5576 -0.2669  0.1056
   87MOL0     O11640   5.686   2.207   8.256  0.8621  0.2637  0.0871
   87MOL0     C11641   5.777   2.293   8.201  0.3586 -0.5507  0.1912
   87MOL0     C11642   5.848   2.272   8.085  0.0050 -0.4238 -0.4535
   87MOL0     C11643   5.950   2.357   8.040  0.2028  0.5853  0.4093
   87MOL0     C11644   5.983   2.458   8.121  0.2430 -0.2500 -0.4108
   87MOL0     O11645   6.092   2.527   8.076 -0.0092  0.6553  0.0688
   87MOL0     C11646   6.075   2.670   8.081 -0.0377 -0.5080  0.1371
   87MOL0     C11647   6.187   2.734   8.000 -0.4224 -0.1378 -0.2751
   87MOL0     C11648   6.172   2.890   8.015 -0.0112  0.4533 -0.7613
   87MOL0     C11649   6.283   2.970   7.933 -0.4892 -0.7519 -0.3505
   87MOL0     C11650   6.285   3.123   7.940 -0.5447 -1.8174  0.4026
   87MOL0     C11651   6.401   3.173   7.854 -0.9036  0.2280  0.3904
   87MOL0     C11652   6.434   3.318   7.891 -1.4183  0.0114  0.0779
   87MOL0     C11653   6.336   3.430   7.860 -0.1385  0.6384  0.2596
   87MOL0    Cl11654   6.279   3.433   7.698 -0.3200 -0.0250 -0.7138
   87MOL0     C11655   5.910   2.489   8.231 -0.2245  0.3968  0.7561
   87MOL0     C11656   5.813   2.396   8.285  0.4130  0.3150  0.8642
   87MOL0     O11657   5.531   2.289   8.099 -0.2152 -0.0626 -1.2523
   87MOL0     C11658   5.345   2.091   8.148 -0.0797  0.8364  0.0977
   87MOL0     C11659   5.248   1.994   8.185 -0.3196  0.1581  0.6948
   87MOL0     N11660   4.855   1.394   8.301 -0.5950 -0.3380 -0.0476
   87MOL0     N11661   4.755   1.398   8.227  0.8421  0.1487  0.1389
   87MOL0     C11662   3.658   0.805   7.589  0.3859  0.5614  0.3784
   87MOL0     C11663   3.518   0.779   7.575 -0.1675 -0.2862 -0.2281
   87MOL0     C11664   3.056   0.824   7.678 -0.1901 -0.0782 -0.0635
   87MOL0     C11665   3.016   0.914   7.586 -0.4271 -0.8223  0.0574
   87MOL0     C11666   2.879   0.939   7.564 -0.2151 -0.1058 -0.1836
   87MOL0     C11667   2.784   0.868   7.627  0.3275  0.7998  0.2399
   87MOL0     O11668   2.648   0.895   7.600 -0.7254 -0.3933  0.1028
   87MOL0     C11669   2.555   0.791   7.601 -0.6323  0.6018  0.3149
   87MOL0     C11670   2.426   0.853   7.632  0.6017 -0.2533 -0.3344
   87MOL0     C11671   2.300   0.765   7.619  0.4758  0.9775  0.4235
   87MOL0     C11672   2.324   0.617   7.644  0.5718  0.3171 -0.1044
   87MOL0     C11673   2.218   0.536   7.584  0.2636  0.1220 -0.3237
   87MOL0     C11674   2.125   0.466   7.533 -0.2471 -0.3247 -0.2455
   87MOL0     C11675   2.822   0.779   7.725 -0.1652 -0.7577  0.6534
   87MOL0     C11676   2.959   0.756   7.752  0.8895  1.2094  0.4504
   87MOL0     C11677   2.982   0.660   7.867 -0.4102  0.0102  0.0825
   87MOL0     H11678   3.396   1.049   7.724 -0.8035 -1.6043  1.4446
   87MOL0     H11679   3.649   1.102   7.761  1.8257 -0.4249 -0.0722
   87MOL0     H11680   3.885   1.130   7.677 -2.3428  0.6850  0.9367
   87MOL0     H11681   3.860   1.028   7.830 -1.2712 -2.8211 -0.6914
   87MOL0     H11682   4.088   1.046   7.642 -1.8033  0.3705 -0.1053
   87MOL0     H11683   4.070   0.909   7.758 -0.5830 -0.4978 -0.7177
   87MOL0     H11684   4.102   1.033   7.940  0.2458 -2.1455 -1.2915
   87MOL0     H11685   4.056   1.184   7.884 -0.4461 -1.1521  3.9084
   87MOL0     H11686   4.304   1.021   7.787  1.4803  1.0057  0.2403
   87MOL0     H11687   4.273   1.187   7.750  2.1245  0.9949  1.0593
   87MOL0     H11688   4.275   1.223   8.008  0.3010  0.0538  0.3595
   87MOL0     H11689   4.325   1.055   8.027 -0.1583  0.0192 -0.0563
   87MOL0     H11690   4.526   1.091   7.892  0.9969 -0.1208 -0.7369
   87MOL0     H11691   4.453   1.246   7.848 -0.8503 -1.1126  0.5660
   87MOL0     H11692   4.584   1.166   8.125  0.8958  1.5248  0.5375
   87MOL0     H11693   4.500   1.324   8.104  0.2646  2.4534 -2.5922
   87MOL0     H11694   4.730   1.235   7.926 -0.1527 -1.3737  0.8626
   87MOL0     H11695   4.669   1.403   7.954  2.8985  0.6172 -0.3558
   87MOL0     H11696   4.988   1.266   8.034 -0.5484  1.8238 -0.7021
   87MOL0     H11697   5.113   1.273   8.372 -0.0518 -2.6959 -1.2374
   87MOL0     H11698   5.164   1.269   8.202 -0.6016  0.0645 -0.0735
   87MOL0     H11699   5.290   1.441   8.286 -0.3257 -1.6644  1.8358
   87MOL0     H11700   5.189   1.518   8.179  1.4070  1.2493  0.6832
   87MOL0     H11701   5.128   1.523   8.479  2.5423 -3.3230 -1.2779
   87MOL0     H11702   5.044   1.618   8.348  1.6237  3.3077  0.7707
   87MOL0     H11703   5.334   1.659   8.352  1.3789  4.1757 -1.4202
   87MOL0     H11704   5.247   1.719   8.487 -1.1384 -1.5743  1.3607
   87MOL0     H11705   5.428   1.866   8.450 -1.6981 -1.2143  1.6831
   87MOL0     H11706   5.567   2.053   8.398 -1.5499 -0.8455  1.4122
   87MOL0     H11707   5.821   2.188   8.021 -2.0311 -0.0116 -0.2059
   87MOL0     H11708   5.993   2.339   7.942 -0.0297 -2.3385  0.7630
   87MOL0     H11709   5.983   2.698   8.029  0.2224  3.2616  1.4480
   87MOL0     H11710   6.067   2.702   8.185 -0.6838 -0.0765 -0.0432
   87MOL0     H11711   6.276   2.697   8.051 -0.1022  1.1411  0.1178
   87MOL0     H11712   6.197   2.705   7.894  2.5285  1.0717 -0.4413
   87MOL0     H11713   6.077   2.929   7.979 -1.3155 -1.8389  0.0500
   87MOL0     H11714   6.192   2.909   8.121  1.6805 -2.0398 -0.5434
   87MOL0     H11715   6.258   2.947   7.830 -1.8996 -0.1863 -0.1614
   87MOL0     H11716   6.384   2.936   7.958  0.9300  2.7890 -0.5567
   87MOL0     H11717   6.299   3.151   8.045  2.7400  1.5001 -0.6981
   87MOL0     H11718   6.189   3.158   7.901  2.1210  1.2606 -4.3379
   87MOL0     H11719   6.490   3.113   7.875  1.1182  2.2797 -1.7320
   87MOL0     H11720   6.378   3.160   7.748 -0.0596  0.6575  0.1459
   87MOL0     H11721   6.535   3.335   7.854 -1.4321  1.1154  0.4981
   87MOL0     H11722   6.455   3.327   7.998  1.4000 -1.7413 -0.2427
   87MOL0     H11723   6.255   3.408   7.931  3.3387 -0.4995  4.3021
   87MOL0     H11724   6.385   3.523   7.892  4.8089 -1.6130  0.1283
   87MOL0     H11725   5.925   2.583   8.283 -0.6068 -0.4196  2.3802
   87MOL0     H11726   5.768   2.411   8.383 -0.5634  0.2721  0.4311
   87MOL0     H11727   5.333   2.157   8.062  4.6652  0.8175 -0.8438
   87MOL0     H11728   5.151   1.969   8.142 -0.2551 -0.9405  1.1522
   87MOL0     H11729   3.733   0.732   7.563 -0.3974 -0.1298 -0.0075
   87MOL0     H11730   3.500   0.682   7.530  4.2018 -2.8041  2.6978
   87MOL0     H11731   3.088   0.975   7.533  0.1949 -0.7572  0.9597
   87MOL0     H11732   2.864   1.007   7.481  2.4570 -0.0608 -0.7168
   87MOL0     H11733   2.575   0.715   7.677 -0.0532 -1.0369 -1.3906
   87MOL0     H11734   2.555   0.748   7.500 -0.5487 -1.5763  1.1998
   87MOL0     H11735   2.408   0.942   7.571  1.0406 -0.1582 -0.3345
   87MOL0     H11736   2.427   0.888   7.735 -1.2478 -2.4548  0.4989
   87MOL0     H11737   2.262   0.765   7.517  0.3874 -2.1065  0.3588
   87MOL0     H11738   2.224   0.806   7.687  2.4507  4.0390  1.0077
   87MOL0     H11739   2.414   0.589   7.588 -1.0659 -0.3695 -2.5161
   87MOL0     H11740   2.330   0.602   7.752 -1.9762  0.8063  0.1562
   87MOL0     H11741   2.046   0.421   7.475  1.3131 -1.8520 -1.2658
   87MOL0     H11742   2.741   0.737   7.783 -1.8761  1.5200  0.0937
   87MOL0     H11743   2.906   0.583   7.878 -0.3665 -0.0309  0.1000
   87MOL0     H11744   3.082   0.617   7.861 -0.1320  0.4016  1.4469
   87MOL0     H11745   2.968   0.727   7.953 -0.3768  2.6224 -1.8106
   88MOL0     O11746   6.430   0.991   7.282  0.7066 -0.2513 -0.1116
   88MOL0     C11747   6.348   1.024   7.361 -0.5558  0.3809  0.2519
   88MOL0     O11748   6.376   1.117   7.467  0.3595  0.4618  0.5490
   88MOL0     C11749   6.498   1.173   7.463 -0.8014 -0.1011  1.1151
   88MOL0     C11750   6.516   1.297   7.412 -0.1863 -0.1618 -1.1381
   88MOL0     C11751   6.641   1.359   7.402 -0.7491  0.0469  0.0117
   88MOL0     C11752   6.755   1.290   7.435  0.4134 -0.4616 -0.6134
   88MOL0     O11753   6.889   1.334   7.423  0.0672 -0.4114  0.7916
   88MOL0     C11754   6.898   1.476   7.433  0.6457 -0.2196 -0.1834
   88MOL0     C11755   7.048   1.516   7.453  0.0894 -0.4051 -0.1459
   88MOL0     C11756   7.112   1.457   7.579 -0.7734 -0.0674 -0.4668
   88MOL0     C11757   7.262   1.455   7.555 -0.7180  0.9219  0.5684
   88MOL0     C11758   7.342   1.447   7.692  0.5988 -0.0930  0.2313
   88MOL0     C11759   7.489   1.423   7.653 -0.0207 -0.0832  0.1485
   88MOL0     C11760   7.589   1.441   7.768 -0.7539 -0.6853  0.0639
   88MOL0     C11761   7.729   1.409   7.748 -0.1035 -0.7387 -0.0726
   88MOL0     N11762   7.785   1.471   7.626 -0.1735  0.1426  0.6583
   88MOL0     C11763   7.887   1.569   7.641  0.5391  0.5279  0.1008
   88MOL0     C11764   7.895   1.623   7.512 -0.0170 -1.0297  0.2695
   88MOL0     C11765   8.002   1.729   7.485 -0.0969 -0.4802  0.3998
   88MOL0     C11766   7.934   1.868   7.462 -0.1158 -0.1746 -0.3187
   88MOL0     C11767   7.890   1.897   7.318  0.5237 -0.4990  0.3444
   88MOL0     C11768   7.994   1.972   7.240 -0.4096 -0.3320 -0.5495
   88MOL0     O11769   8.124   1.922   7.275  0.8694  0.3664 -0.1527
   88MOL0     C11770   8.238   1.909   7.196  0.4415 -0.0538 -0.0572
   88MOL0     C11771   8.239   1.950   7.060 -0.0833  0.3499 -0.6798
   88MOL0     C11772   8.358   1.942   6.987 -0.2410 -0.2286 -0.7848
   88MOL0     C11773   8.474   1.887   7.044 -1.2523 -0.0079  0.4662
   88MOL0     C11774   8.603   1.894   6.961 -0.3255 -0.0757  0.1152
   88MOL0     O11775   8.707   1.845   7.022 -0.0211  0.8719 -0.0341
   88MOL0     C11776   8.835   1.858   6.982 -0.3172 -0.4272  0.2313
   88MOL0     C11777   8.881   1.976   6.931 -0.5284  0.3386  0.2769
   88MOL0     C11778   9.015   1.984   6.891  0.0694  0.5333  0.3723
   88MOL0     C11779   9.104   1.882   6.900 -0.3468 -0.1336 -0.3152
   88MOL0     O11780   9.230   1.883   6.853  0.9290  0.4625 -0.3164
   88MOL0     C11781   9.288   1.993   6.790  0.4175 -0.1617  0.4039
   88MOL0     C11782   9.411   1.939   6.716 -0.0482 -0.5072  1.0191
   88MOL0     C11783   9.470   2.057   6.632 -0.5595  0.2703 -0.5541
   88MOL0     C11784   9.597   2.005   6.550  0.2088 -0.2145 -0.0249
   88MOL0     C11785   9.722   1.990   6.633  0.1491 -0.1082 -0.3830
   88MOL0     C11786   9.835   1.976   6.540 -0.1061 -0.1900 -0.4958
   88MOL0     C11787   9.894   2.108   6.485  0.1745  0.2906 -0.0396
   88MOL0     C11788  10.019   2.104   6.401  0.0795  0.4053  0.7633
   88MOL0    Cl11789  10.154   1.997   6.466  0.2555 -0.1656 -0.2188
   88MOL0     C11790   9.060   1.764   6.955 -1.0996  0.2167  0.2272
   88MOL0     C11791   8.927   1.755   6.994  1.0568 -0.1537  0.6519
   88MOL0     O11792   8.606   1.952   6.853  0.2567 -0.2164  0.5680
   88MOL0     C11793   8.472   1.843   7.179 -0.2050 -0.1191  0.1972
   88MOL0     C11794   8.354   1.856   7.250  1.2145  0.5699 -0.7808
   88MOL0     N11795   7.832   1.542   7.418  0.6663  1.0578 -0.1080
   88MOL0     N11796   7.765   1.452   7.495 -0.4954 -0.2246  0.4793
   88MOL0     C11797   6.737   1.156   7.479 -0.4826 -0.3636 -0.2558
   88MOL0     C11798   6.613   1.099   7.494  0.8458 -0.3059  0.2416
   88MOL0     C11799   6.217   0.958   7.352 -0.6489  0.3354 -0.4366
   88MOL0     C11800   6.157   0.934   7.226  0.8915  0.0339 -0.9088
   88MOL0     C11801   6.043   0.859   7.210  0.0829 -0.1693  0.2141
   88MOL0     C11802   5.971   0.813   7.327 -0.3688  0.4540  0.2216
   88MOL0     O11803   5.844   0.756   7.333  0.0921  0.2866 -0.1638
   88MOL0     C11804   5.792   0.726   7.205  0.2930  0.4385  0.8140
   88MOL0     C11805   5.639   0.719   7.215 -0.3706  0.2158 -0.0392
   88MOL0     C11806   5.601   0.632   7.333  0.0693 -0.6339 -0.0470
   88MOL0     C11807   5.450   0.607   7.331 -0.5135  0.2204  0.0560
   88MOL0     C11808   5.419   0.532   7.458  0.0632 -1.0323  1.0066
   88MOL0     C11809   5.377   0.461   7.547 -0.3846  0.3018  0.3677
   88MOL0     C11810   6.030   0.850   7.452 -0.5379  0.0843  0.8558
   88MOL0     C11811   6.157   0.906   7.470 -0.6674 -0.0271  0.1712
   88MOL0     C11812   6.208   0.928   7.613 -0.7007 -0.0138  1.0348
   88MOL0     H11813   6.426   1.355   7.392  0.8631  2.0091  0.1043
   88MOL0     H11814   6.658   1.460   7.364  0.0390  0.1639  0.6315
   88MOL0     H11815   6.855   1.503   7.337  2.6239 -1.1179 -1.3863
   88MOL0     H11816   6.843   1.520   7.517  1.5463  1.5420 -0.4525
   88MOL0     H11817   7.040   1.625   7.451  1.0990 -0.3280 -0.5566
   88MOL0     H11818   7.102   1.478   7.365  0.4425 -2.8933  1.0626
   88MOL0     H11819   7.078   1.357   7.609 -2.0493  0.4069 -0.2650
   88MOL0     H11820   7.088   1.512   7.671 -0.2548 -1.3958  0.4963
   88MOL0     H11821   7.283   1.363   7.500  1.1261 -0.2267  3.0184
   88MOL0     H11822   7.289   1.544   7.496 -1.6762 -0.5543 -2.3068
   88MOL0     H11823   7.335   1.546   7.739  0.8338 -0.2041  0.4988
   88MOL0     H11824   7.317   1.372   7.768  0.9753  0.7960  1.2622
   88MOL0     H11825   7.499   1.326   7.603  1.9584 -0.3228  0.9265
   88MOL0     H11826   7.505   1.499   7.576 -1.6982 -0.9048 -1.0872
   88MOL0     H11827   7.545   1.387   7.852  0.5379 -2.4958 -0.3689
   88MOL0     H11828   7.580   1.549   7.783 -0.5411 -0.7584  0.7524
   88MOL0     H11829   7.764   1.449   7.844 -0.9911  0.5814 -0.2788
   88MOL0     H11830   7.742   1.300   7.740  1.0161 -0.6738  0.7038
   88MOL0     H11831   7.939   1.602   7.730  1.9492 -1.0747 -0.0740
   88MOL0     H11832   8.071   1.738   7.569 -1.0032  2.5980  0.9591
   88MOL0     H11833   8.055   1.698   7.394 -0.5983 -0.6970  0.1828
   88MOL0     H11834   7.835   1.869   7.508 -0.7628  2.3928 -1.5798
   88MOL0     H11835   7.994   1.950   7.502  1.5841 -0.4373 -2.1450
   88MOL0     H11836   7.794   1.950   7.313 -0.5224 -2.0886  2.2608
   88MOL0     H11837   7.858   1.801   7.279  0.9118 -0.8690  0.9136
   88MOL0     H11838   7.995   2.078   7.269  0.3178  0.5873 -3.5650
   88MOL0     H11839   7.981   1.960   7.132  2.2066  3.0774 -1.4093
   88MOL0     H11840   8.151   1.995   7.014  0.2351 -0.5599 -2.2315
   88MOL0     H11841   8.355   1.987   6.888  4.6474  0.4866 -0.8559
   88MOL0     H11842   8.813   2.060   6.923 -1.6433 -0.6830 -2.3004
   88MOL0     H11843   9.050   2.072   6.837  2.1061 -1.6164 -2.1428
   88MOL0     H11844   9.220   2.038   6.717  0.1929 -1.9609 -0.5410
   88MOL0     H11845   9.308   2.068   6.867 -1.1088  0.3804  0.2930
   88MOL0     H11846   9.486   1.908   6.790 -0.6884 -2.8171  0.7787
   88MOL0     H11847   9.379   1.853   6.657 -1.9173  0.8928 -0.1200
   88MOL0     H11848   9.390   2.083   6.562  0.5334 -0.3901 -2.1168
   88MOL0     H11849   9.492   2.144   6.695  0.4004  0.0859 -0.6113
   88MOL0     H11850   9.612   2.066   6.461 -1.3299  0.8471  0.3960
   88MOL0     H11851   9.569   1.905   6.514  1.3800 -1.0140  1.1917
   88MOL0     H11852   9.721   1.903   6.700  2.1119  0.7280  0.8211
   88MOL0     H11853   9.743   2.080   6.691  0.5186 -1.0967  1.0754
   88MOL0     H11854   9.923   1.931   6.588  1.1022  2.4999  0.0113
   88MOL0     H11855   9.805   1.911   6.457  1.8588 -1.8900  0.0264
   88MOL0     H11856   9.927   2.163   6.574  1.8030 -3.2806  1.7553
   88MOL0     H11857   9.820   2.166   6.430  0.9416  2.5455  1.1548
   88MOL0     H11858  10.000   2.067   6.300 -0.8737  0.6859  0.8353
   88MOL0     H11859  10.071   2.201   6.394  2.5473 -0.6799  2.7158
   88MOL0     H11860   9.127   1.680   6.964 -2.3671 -0.8047  0.4383
   88MOL0     H11861   8.885   1.664   7.036 -1.3578  1.6257  2.3853
   88MOL0     H11862   8.559   1.798   7.225  0.5737 -0.5290 -1.5872
   88MOL0     H11863   8.343   1.818   7.351  0.2521  2.5295 -0.0905
   88MOL0     H11864   6.827   1.098   7.499  0.0994  0.4506 -0.4619
   88MOL0     H11865   6.602   0.992   7.510  0.7640 -0.3398 -0.0236
   88MOL0     H11866   6.200   0.964   7.131 -0.4209  1.4175 -1.0987
   88MOL0     H11867   6.015   0.838   7.107  2.5310 -2.6747 -0.0611
   88MOL0     H11868   5.831   0.629   7.170 -1.7269 -0.9021  2.0608
   88MOL0     H11869   5.806   0.808   7.134 -1.9766  1.1488  1.1298
   88MOL0     H11870   5.602   0.683   7.118 -0.3032  0.4623 -0.1593
   88MOL0     H11871   5.601   0.820   7.233  2.1655  1.0567  1.0396
   88MOL0     H11872   5.622   0.693   7.422  3.3953 -1.0224 -0.4536
   88MOL0     H11873   5.654   0.536   7.328 -0.7775 -1.2149  1.2051
   88MOL0     H11874   5.395   0.700   7.348  1.6126  1.7153 -0.8306
   88MOL0     H11875   5.417   0.541   7.250 -0.2898  0.6857 -0.4178
   88MOL0     H11876   5.348   0.394   7.625 -1.5355 -0.1159 -0.3922
   88MOL0     H11877   5.968   0.822   7.537 -0.7065 -0.8736  0.4278
   88MOL0     H11878   6.188   1.026   7.656  0.0234  0.3666  0.5291
   88MOL0     H11879   6.178   0.848   7.680 -1.4854 -1.8024 -1.3045
   88MOL0     H11880   6.317   0.923   7.611 -0.7032  0.0331 -0.1367
   89MOL0     O11881   1.960   4.791   9.628  0.0363  0.6891 -0.3708
   89MOL0     C11882   1.944   4.672   9.664 -0.5281  1.0530  0.7116
   89MOL0     O11883   2.049   4.581   9.674 -0.3935 -1.6074 -0.4881
   89MOL0     C11884   2.176   4.636   9.695 -0.4179  0.7383  0.8466
   89MOL0     C11885   2.279   4.554   9.643  0.4686  0.0834  0.3917
   89MOL0     C11886   2.408   4.595   9.656 -0.4395 -0.2047 -0.6609
   89MOL0     C11887   2.443   4.725   9.700 -0.8395  1.0169  0.5175
   89MOL0     O11888   2.574   4.765   9.713 -0.2675  0.5228 -0.7753
   89MOL0     C11889   2.664   4.657   9.725 -0.0821  0.1982  0.0049
   89MOL0     C11890   2.810   4.699   9.783  1.2161  0.4689 -0.4102
   89MOL0     C11891   2.915   4.587   9.772 -0.1201 -0.2703  0.2434
   89MOL0     C11892   2.986   4.581   9.638  0.1539 -0.4514 -0.0391
   89MOL0     C11893   3.134   4.516   9.640 -0.6176 -0.2794  0.4480
   89MOL0     C11894   3.194   4.508   9.498  0.1584  0.4040  0.7105
   89MOL0     C11895   3.323   4.426   9.521 -0.6623  0.3707 -0.2886
   89MOL0     C11896   3.350   4.319   9.421  0.2547  0.0910 -0.0720
   89MOL0     N11897   3.490   4.282   9.430  0.0188  0.1809  0.2586
   89MOL0     C11898   3.559   4.210   9.520 -0.1940  1.3041 -0.1994
   89MOL0     C11899   3.688   4.230   9.495  0.6652 -0.2795  0.2883
   89MOL0     C11900   3.786   4.143   9.557 -0.6241 -0.2311 -0.6200
   89MOL0     C11901   3.931   4.205   9.574  0.0950  0.5750 -0.0998
   89MOL0     C11902   4.042   4.100   9.583  0.3267 -0.0747  0.7303
   89MOL0     C11903   4.180   4.163   9.591  0.0925  0.0016  0.4954
   89MOL0     O11904   4.276   4.050   9.613  0.6566 -0.0700 -0.1275
   89MOL0     C11905   4.405   4.077   9.648  0.2309 -1.0567  0.5786
   89MOL0     C11906   4.451   4.205   9.668  0.2872  0.0403 -0.1055
   89MOL0     C11907   4.580   4.223   9.721  0.1124 -0.1662  0.1905
   89MOL0     C11908   4.666   4.114   9.744 -0.4027  0.3505  0.4222
   89MOL0     C11909   4.805   4.137   9.787  0.1312  0.9273 -0.2168
   89MOL0     O11910   4.875   4.016   9.807 -0.4864 -0.5668 -0.6203
   89MOL0     C11911   5.009   4.020   9.838 -1.0962 -0.0390 -0.1392
   89MOL0     C11912   5.084   4.129   9.891  0.3452 -0.1443 -0.1723
   89MOL0     C11913   5.217   4.118   9.931  0.9854  0.1342  0.0269
   89MOL0     C11914   5.279   3.989   9.917  0.2388  0.2592 -0.7277
   89MOL0     O11915   5.412   3.972   9.953  0.2384  0.2883 -0.1526
   89MOL0     C11916   5.475   4.050  10.054 -0.1519  0.8816 -0.0175
   89MOL0     C11917   5.594   3.967  10.098 -0.2784 -0.7713  0.2564
   89MOL0     C11918   5.697   4.066  10.153  0.2204  0.2431  0.3669
   89MOL0     C11919   5.842   4.018  10.139  0.4900  0.3032 -0.9433
   89MOL0     C11920   5.926   4.128  10.205 -0.6484 -0.0530 -0.9268
   89MOL0     C11921   6.081   4.136  10.159  0.2976 -1.4002 -0.3684
   89MOL0     C11922   6.149   4.266  10.207  0.6825 -0.0720 -0.4644
   89MOL0     C11923   6.303   4.255  10.189 -0.0017  0.0354  0.3686
   89MOL0    Cl11924   6.345   4.272  10.017 -0.1857 -0.3318  0.0535
   89MOL0     C11925   5.214   3.882   9.862  0.7205  0.5649  0.0830
   89MOL0     C11926   5.076   3.897   9.820 -0.2557 -0.4328  0.1349
   89MOL0     O11927   4.847   4.250   9.780 -0.9806  0.0390  0.0428
   89MOL0     C11928   4.625   3.988   9.700  0.0007  0.5875 -0.4045
   89MOL0     C11929   4.492   3.969   9.660  0.6283 -0.3582 -0.2876
   89MOL0     N11930   3.698   4.320   9.395  0.4694  0.3587  0.2136
   89MOL0     N11931   3.577   4.349   9.348  0.5240  0.0866  0.7419
   89MOL0     C11932   2.338   4.801   9.749 -0.4123  0.2960  0.2209
   89MOL0     C11933   2.204   4.760   9.749 -0.0004  0.0892  0.2300
   89MOL0     C11934   1.807   4.624   9.682 -0.1080 -0.1171 -0.4837
   89MOL0     C11935   1.711   4.697   9.607 -0.6389  0.7179 -0.0832
   89MOL0     C11936   1.575   4.666   9.618 -0.2461 -0.4828 -0.4632
   89MOL0     C11937   1.528   4.570   9.709 -1.0030 -0.5938 -1.0189
   89MOL0     O11938   1.397   4.545   9.735 -0.5182  0.1340 -0.5146
   89MOL0     C11939   1.348   4.613   9.856  0.9604 -0.3972 -0.4852
   89MOL0     C11940   1.202   4.631   9.881  0.7018 -0.0805  0.0899
   89MOL0     C11941   1.181   4.717  10.007 -0.1408  0.6923  1.0510
   89MOL0     C11942   1.032   4.751  10.039  0.4069 -0.1099  0.4636
   89MOL0     C11943   1.006   4.802  10.169  0.2369 -0.7986  0.2105
   89MOL0     C11944   0.981   4.847  10.280 -0.3917 -1.3323 -0.5796
   89MOL0     C11945   1.631   4.506   9.781 -0.7208  0.1041 -0.9577
   89MOL0     C11946   1.769   4.524   9.768 -0.7365  0.3818 -0.2706
   89MOL0     C11947   1.850   4.449   9.867  0.6389  0.0014  0.5679
   89MOL0     H11948   2.255   4.457   9.601  1.0081 -0.2081  0.7443
   89MOL0     H11949   2.487   4.524   9.634  1.0447 -1.2635  6.0732
   89MOL0     H11950   2.634   4.573   9.788  1.0508 -1.1658 -1.1852
   89MOL0     H11951   2.683   4.611   9.627 -0.9275 -0.7157  0.2540
   89MOL0     H11952   2.807   4.718   9.891  0.0082 -0.6591 -0.2089
   89MOL0     H11953   2.853   4.783   9.728  0.4451 -0.0736 -1.9216
   89MOL0     H11954   2.866   4.490   9.787 -0.1363 -0.1379  1.1256
   89MOL0     H11955   2.984   4.592   9.857  0.4946  0.9907 -0.3143
   89MOL0     H11956   2.913   4.553   9.562 -2.4729  1.1863  1.7275
   89MOL0     H11957   3.008   4.684   9.608  2.1214 -1.0681 -0.9244
   89MOL0     H11958   3.193   4.580   9.706  0.3439  0.3303 -0.9579
   89MOL0     H11959   3.134   4.418   9.688  0.3926 -1.2932 -1.4989
   89MOL0     H11960   3.139   4.439   9.433  3.0869 -1.2480 -0.2196
   89MOL0     H11961   3.215   4.597   9.438  2.4539  0.3737  1.3787
   89MOL0     H11962   3.332   4.378   9.619  1.9158  2.0244  0.3716
   89MOL0     H11963   3.410   4.492   9.525  1.6190 -2.1992 -3.1129
   89MOL0     H11964   3.291   4.228   9.440  0.2482 -0.9379 -4.1244
   89MOL0     H11965   3.321   4.344   9.319 -1.5108 -0.8043  0.1598
   89MOL0     H11966   3.526   4.135   9.591  1.2853  2.1568  1.4678
   89MOL0     H11967   3.747   4.116   9.655  1.2764  1.8286  0.8025
   89MOL0     H11968   3.788   4.049   9.501 -2.7230 -0.1070 -0.9868
   89MOL0     H11969   3.948   4.270   9.487 -3.3042  1.3876 -0.3058
   89MOL0     H11970   3.917   4.266   9.664 -3.8709 -0.2211 -0.0022
   89MOL0     H11971   4.046   4.037   9.493 -0.4421  2.3321 -1.1086
   89MOL0     H11972   4.025   4.041   9.673 -0.2013 -0.0564  0.6458
   89MOL0     H11973   4.180   4.240   9.670 -0.9231 -1.3108  1.8240
   89MOL0     H11974   4.216   4.204   9.496  0.5774 -0.1746  0.5983
   89MOL0     H11975   4.390   4.294   9.657  0.7901  1.0040  3.6397
   89MOL0     H11976   4.608   4.323   9.751 -1.0473  0.5819 -1.0867
   89MOL0     H11977   5.045   4.230   9.896 -2.0215 -0.9500 -0.7648
   89MOL0     H11978   5.268   4.202   9.977  0.8807  1.5870 -2.3492
   89MOL0     H11979   5.502   4.150  10.020  4.2079 -0.5183 -1.2771
   89MOL0     H11980   5.403   4.044  10.136 -3.1221 -2.3937 -2.5419
   89MOL0     H11981   5.569   3.883  10.163  1.7569 -2.0259 -0.4819
   89MOL0     H11982   5.630   3.931  10.001 -0.4022  0.2529 -0.1896
   89MOL0     H11983   5.687   4.171  10.121 -0.2034  0.0930 -0.0093
   89MOL0     H11984   5.658   4.054  10.255  0.8634  0.1745  0.6079
   89MOL0     H11985   5.858   4.026  10.031  0.5343  0.9485 -0.8936
   89MOL0     H11986   5.857   3.917  10.178  1.1169  0.4893 -0.6931
   89MOL0     H11987   5.901   4.127  10.312 -2.0663  0.0123 -1.2397
   89MOL0     H11988   5.904   4.227  10.163  1.8654  1.1895  0.4811
   89MOL0     H11989   6.131   4.055  10.212 -1.0254 -0.7358  2.0733
   89MOL0     H11990   6.086   4.146  10.050  2.5065  3.6357 -0.1009
   89MOL0     H11991   6.133   4.279  10.315  2.5525  0.5284 -0.2262
   89MOL0     H11992   6.117   4.350  10.144  3.0419  1.5663  0.3797
   89MOL0     H11993   6.349   4.344  10.234 -0.1657 -0.5347  1.6861
   89MOL0     H11994   6.346   4.162  10.225  2.2901  0.5597 -0.7860
   89MOL0     H11995   5.253   3.781   9.850  1.0686  0.7521 -0.4001
   89MOL0     H11996   5.014   3.814   9.787  1.0881 -0.8425 -1.5048
   89MOL0     H11997   4.690   3.900   9.703  0.1114  0.6718 -0.3323
   89MOL0     H11998   4.451   3.877   9.621  1.6153 -0.4849 -1.0740
   89MOL0     H11999   2.371   4.889   9.803  0.8221  0.1734 -0.3178
   89MOL0     H12000   2.128   4.820   9.798  1.2404  2.2504 -0.3235
   89MOL0     H12001   1.745   4.777   9.542  1.2553 -0.0612 -0.1388
   89MOL0     H12002   1.499   4.721   9.564 -0.1604  0.0880 -0.0110
   89MOL0     H12003   1.392   4.713   9.852  1.2574 -0.5191 -0.2778
   89MOL0     H12004   1.400   4.560   9.936 -0.9553  0.5813  1.5220
   89MOL0     H12005   1.151   4.535   9.895  2.6812 -1.0560  0.9698
   89MOL0     H12006   1.160   4.680   9.793 -0.4628  0.2532  0.8074
   89MOL0     H12007   1.237   4.810   9.998  3.0916 -1.1173  0.7983
   89MOL0     H12008   1.218   4.661  10.093 -2.2872  0.2889  1.7852
   89MOL0     H12009   0.975   4.813   9.970 -1.3428 -0.1614  1.8065
   89MOL0     H12010   0.982   4.654  10.031 -1.2746  0.8455 -1.4373
   89MOL0     H12011   0.964   4.884  10.379  0.7998  2.9946 -1.7615
   89MOL0     H12012   1.585   4.432   9.846 -2.9706  1.0608 -1.3729
   89MOL0     H12013   1.862   4.345   9.833 -0.3456  0.5735 -1.7153
   89MOL0     H12014   1.951   4.488   9.879  0.5671 -0.0093  1.2583
   89MOL0     H12015   1.804   4.449   9.966  1.5506 -0.9424  1.0115
   90MOL0     O12016   9.294   6.564   7.965  0.1137  0.2314 -0.0281
   90MOL0     C12017   9.300   6.446   8.002 -0.7552 -0.4161 -0.6696
   90MOL0     O12018   9.412   6.379   8.032 -0.9782 -0.4966  0.3612
   90MOL0     C12019   9.541   6.417   7.989 -0.0350  0.5522 -0.4237
   90MOL0     C12020   9.654   6.375   8.067 -0.6133 -0.5727 -0.0591
   90MOL0     C12021   9.790   6.395   8.024 -0.0784 -1.1411 -0.0101
   90MOL0     C12022   9.816   6.461   7.902  1.4809 -0.2515  0.1595
   90MOL0     O12023   9.940   6.498   7.862  0.5708  0.2704 -0.3236
   90MOL0     C12024  10.047   6.493   7.951 -0.4593  0.0423  0.4242
   90MOL0     C12025  10.165   6.529   7.877 -0.4001  0.0533  1.0239
   90MOL0     C12026  10.288   6.546   7.969  0.1298 -0.2732  0.1754
   90MOL0     C12027  10.404   6.633   7.924 -0.1250 -0.3488 -0.5434
   90MOL0     C12028  10.535   6.606   7.977 -0.2151  0.9434  0.1105
   90MOL0     C12029  10.644   6.701   7.919 -0.8614  0.4734 -0.2658
   90MOL0     C12030  10.700   6.646   7.786  0.5444  0.0126  0.9816
   90MOL0     C12031  10.836   6.707   7.735 -0.4982  0.1841 -0.1321
   90MOL0     N12032  10.871   6.661   7.601 -0.0803  0.1192  0.3386
   90MOL0     C12033  10.888   6.743   7.487 -0.0092  0.2319 -0.8701
   90MOL0     C12034  10.927   6.652   7.396  0.7530 -0.5017  0.6741
   90MOL0     C12035  10.974   6.695   7.257 -0.1941  0.1493 -0.1942
   90MOL0     C12036  11.124   6.702   7.256  0.0444  0.2250 -0.0687
   90MOL0     C12037  11.179   6.831   7.313 -0.0870  0.3476 -0.1108
   90MOL0     C12038  11.326   6.832   7.321  1.0598  0.8058 -0.4056
   90MOL0     O12039  11.392   6.829   7.197 -0.0261 -0.4280  0.4593
   90MOL0     C12040  11.528   6.851   7.203 -0.6492 -0.2308  0.0578
   90MOL0     C12041  11.580   6.864   7.074  0.5868 -0.4275 -0.8222
   90MOL0     C12042  11.714   6.892   7.057  0.4953  0.6046  0.1585
   90MOL0     C12043  11.798   6.902   7.173 -0.3471  0.1253 -0.2302
   90MOL0     C12044  11.946   6.908   7.167 -0.2797 -0.7821 -0.7236
   90MOL0     O12045  12.015   6.945   7.276 -0.4895  0.3603  0.3353
   90MOL0     C12046  12.151   6.955   7.256  0.2194 -0.1002 -0.5348
   90MOL0     C12047  12.242   6.848   7.238 -0.4629  0.1286  0.1611
   90MOL0     C12048  12.385   6.873   7.228  0.3508 -0.1996 -0.2749
   90MOL0     C12049  12.429   7.000   7.260 -0.8328 -0.1859  0.8915
   90MOL0     O12050  12.563   7.017   7.265 -0.2254  0.1023  0.1386
   90MOL0     C12051  12.615   7.154   7.274 -0.3669  1.0342  0.2023
   90MOL0     C12052  12.769   7.130   7.311  0.5743  0.4269  0.2035
   90MOL0     C12053  12.801   7.029   7.418 -0.2311 -0.0539 -0.6117
   90MOL0     C12054  12.875   6.897   7.376  0.2149 -0.2449 -0.5193
   90MOL0     C12055  12.932   6.821   7.492 -0.2112 -0.3961 -0.5979
   90MOL0     C12056  12.980   6.683   7.451  0.1466 -0.2819  0.4575
   90MOL0     C12057  13.051   6.605   7.556  0.2014 -0.0433 -0.3997
   90MOL0     C12058  12.953   6.531   7.647 -0.1221 -0.2364  0.4937
   90MOL0    Cl12059  12.925   6.376   7.559  0.2136  0.0237  0.0082
   90MOL0     C12060  12.342   7.106   7.272  0.5529 -0.3604  0.7238
   90MOL0     C12061  12.208   7.082   7.263  0.1750 -0.0068 -0.5826
   90MOL0     O12062  11.999   6.889   7.053 -0.0865 -0.3286  0.5530
   90MOL0     C12063  11.750   6.870   7.302 -0.2111  0.7629  0.2907
   90MOL0     C12064  11.613   6.846   7.316  1.0684  0.3319  0.2273
   90MOL0     N12065  10.923   6.525   7.451 -0.3841  0.4012  0.4228
   90MOL0     N12066  10.897   6.530   7.572  0.1329 -0.1082 -0.5117
   90MOL0     C12067   9.701   6.486   7.819  0.4791 -0.3650 -0.8590
   90MOL0     C12068   9.568   6.477   7.867 -0.0081  0.5947  0.3912
   90MOL0     C12069   9.162   6.378   8.012  0.0797 -0.7926  0.0965
   90MOL0     C12070   9.156   6.266   8.089 -0.2299  0.2528 -0.0516
   90MOL0     C12071   9.045   6.186   8.098  0.1696 -0.1558 -0.2731
   90MOL0     C12072   8.931   6.222   8.024 -0.1049 -0.9399 -0.7757
   90MOL0     O12073   8.820   6.136   8.044 -0.4579  0.0356 -0.3683
   90MOL0     C12074   8.710   6.154   7.961  1.3738 -1.1006  0.6269
   90MOL0     C12075   8.597   6.092   8.030 -0.2969  0.1928 -0.2978
   90MOL0     C12076   8.629   5.938   8.042  0.0853 -0.5652  0.9546
   90MOL0     C12077   8.561   5.860   8.154  0.7460 -0.0660  0.1822
   90MOL0     C12078   8.417   5.848   8.127  0.7330  0.0405 -0.4042
   90MOL0     C12079   8.297   5.867   8.117  0.5944  0.9925 -0.2059
   90MOL0     C12080   8.935   6.339   7.954 -0.3091  0.2732  0.8971
   90MOL0     C12081   9.050   6.420   7.941  0.1170  0.4087 -0.1884
   90MOL0     C12082   9.049   6.525   7.830  0.4172  0.1311  0.3088
   90MOL0     H12083   9.627   6.330   8.162 -2.7150 -1.1067 -0.8688
   90MOL0     H12084   9.873   6.358   8.083  1.2514  0.5799 -0.7246
   90MOL0     H12085  10.029   6.572   8.024 -1.4945 -0.8738  1.2133
   90MOL0     H12086  10.069   6.394   7.994 -1.1521 -1.3594 -2.2514
   90MOL0     H12087  10.145   6.626   7.829 -0.3664  0.0866  1.0773
   90MOL0     H12088  10.178   6.452   7.800 -0.4127 -0.1321  1.2082
   90MOL0     H12089  10.330   6.446   7.989  1.3396  0.1809 -0.0288
   90MOL0     H12090  10.250   6.591   8.061  1.0686  4.1915 -1.4002
   90MOL0     H12091  10.405   6.622   7.815  1.0319 -3.0033 -0.3486
   90MOL0     H12092  10.381   6.739   7.937 -0.5574 -0.6295  1.2735
   90MOL0     H12093  10.512   6.625   8.082 -2.2864  1.9837 -0.4625
   90MOL0     H12094  10.556   6.499   7.967 -0.3149  0.7616  1.6119
   90MOL0     H12095  10.609   6.803   7.900  0.6890  0.9814 -0.5611
   90MOL0     H12096  10.724   6.711   7.993 -1.9801  0.8558  0.9277
   90MOL0     H12097  10.627   6.657   7.706  0.4427 -0.8403  0.9498
   90MOL0     H12098  10.702   6.537   7.796 -1.0698  0.0050  1.5400
   90MOL0     H12099  10.838   6.815   7.724 -0.6101  0.3353  1.1819
   90MOL0     H12100  10.911   6.678   7.809 -3.5397 -0.2537  3.1066
   90MOL0     H12101  10.871   6.850   7.479 -2.6509  0.1737  1.9873
   90MOL0     H12102  10.944   6.626   7.178 -1.2595 -1.5134  1.5622
   90MOL0     H12103  10.930   6.792   7.232  1.0994  0.9818  0.6111
   90MOL0     H12104  11.162   6.610   7.300 -2.8979 -0.3744  1.4431
   90MOL0     H12105  11.155   6.696   7.151 -0.7516  2.9299 -0.5393
   90MOL0     H12106  11.126   6.845   7.408 -0.0624  0.8942 -0.1777
   90MOL0     H12107  11.147   6.915   7.252  1.6398  2.4859  1.7638
   90MOL0     H12108  11.345   6.747   7.387  1.5898  1.8309  0.8158
   90MOL0     H12109  11.343   6.922   7.381  1.7831 -0.0387  0.6921
   90MOL0     H12110  11.524   6.831   6.987  2.4044 -3.9539 -0.8470
   90MOL0     H12111  11.749   6.910   6.956 -0.8919  0.6736 -0.3350
   90MOL0     H12112  12.207   6.745   7.243 -1.5006  0.4849  0.7224
   90MOL0     H12113  12.450   6.786   7.215  0.6615  0.2443 -1.9692
   90MOL0     H12114  12.600   7.190   7.172 -3.5175 -2.5566 -0.8216
   90MOL0     H12115  12.581   7.220   7.355 -1.0330  0.7401  0.1639
   90MOL0     H12116  12.824   7.109   7.218  0.2543  1.1420 -0.1488
   90MOL0     H12117  12.827   7.217   7.344  1.5825 -0.2569  0.3062
   90MOL0     H12118  12.876   7.081   7.477 -0.4893 -1.5371  1.1068
   90MOL0     H12119  12.721   7.017   7.491  0.2096  3.0110  0.5193
   90MOL0     H12120  12.956   6.926   7.309 -0.0116  0.3445 -0.5422
   90MOL0     H12121  12.808   6.833   7.317  0.5890  1.7264 -3.2803
   90MOL0     H12122  12.853   6.805   7.566  0.3725 -1.1562 -0.1295
   90MOL0     H12123  13.008   6.871   7.552 -1.2033 -1.5130  1.7204
   90MOL0     H12124  12.909   6.617   7.401  2.2976 -4.4868  2.4235
   90MOL0     H12125  13.054   6.703   7.372  0.0378 -0.5095  0.2975
   90MOL0     H12126  13.114   6.681   7.603 -0.6699  0.5611 -0.1637
   90MOL0     H12127  13.111   6.529   7.507  1.0756 -0.1909  0.8499
   90MOL0     H12128  12.990   6.502   7.746 -0.6596 -1.4848  0.3388
   90MOL0     H12129  12.854   6.576   7.660  0.8400  2.0570  0.4844
   90MOL0     H12130  12.373   7.206   7.299 -2.9077  0.3737  2.6564
   90MOL0     H12131  12.139   7.164   7.280 -3.6930 -3.3302  1.3635
   90MOL0     H12132  11.813   6.870   7.390  0.6110 -2.9911 -0.1394
   90MOL0     H12133  11.578   6.831   7.417  4.2378  0.5657  1.4975
   90MOL0     H12134   9.709   6.504   7.712 -3.2609 -2.8362 -1.7199
   90MOL0     H12135   9.486   6.500   7.800  1.1950  1.0140 -0.9773
   90MOL0     H12136   9.245   6.220   8.130  1.2748  2.6031 -0.4581
   90MOL0     H12137   9.048   6.086   8.141  0.0723  0.7026  1.8622
   90MOL0     H12138   8.729   6.127   7.857 -1.2211 -2.8383  0.5270
   90MOL0     H12139   8.666   6.254   7.957 -0.3866 -1.8145  1.2164
   90MOL0     H12140   8.511   6.122   7.971 -0.1418  1.5229  0.1143
   90MOL0     H12141   8.580   6.134   8.130 -2.7548  2.1836 -1.4518
   90MOL0     H12142   8.734   5.920   8.064  0.1412 -1.1779  0.2097
   90MOL0     H12143   8.609   5.893   7.944 -3.1983  1.6727  0.4164
   90MOL0     H12144   8.608   5.762   8.147  2.6308  0.9161 -3.8600
   90MOL0     H12145   8.584   5.896   8.255 -1.3109 -1.8999  1.3828
   90MOL0     H12146   8.192   5.892   8.113  0.3097 -0.0980  0.2918
   90MOL0     H12147   8.844   6.369   7.904  0.3336 -0.2094 -0.6241
   90MOL0     H12148   9.043   6.624   7.875 -2.2783  0.7443 -1.2115
   90MOL0     H12149   9.138   6.522   7.767 -0.3426 -0.1796 -0.7742
   90MOL0     H12150   8.967   6.523   7.758  1.9283  1.6151 -1.5618
   91MOL0     O12151   3.389   0.388   0.104 -0.5343  0.6517  0.4838
   91MOL0     C12152   3.290   0.372   0.030 -0.9101 -0.6878  0.0253
   91MOL0     O12153   3.299   0.338  -0.099  0.2232 -0.1278  0.1474
   91MOL0     C12154   3.424   0.326  -0.148  0.3970  0.5356 -0.7216
   91MOL0     C12155   3.488   0.432  -0.209  0.7384  0.5479  0.4408
   91MOL0     C12156   3.617   0.432  -0.258  0.9329 -0.0192  0.4885
   91MOL0     C12157   3.693   0.315  -0.233  0.9212  0.0355 -0.0428
   91MOL0     O12158   3.827   0.322  -0.253  0.3519 -0.4482 -0.3627
   91MOL0     C12159   3.906   0.199  -0.277  1.0626 -0.6065  0.1479
   91MOL0     C12160   3.893   0.153  -0.424 -0.3037  0.7914  0.9336
   91MOL0     C12161   4.027   0.079  -0.455 -0.1244 -0.0627 -0.1500
   91MOL0     C12162   4.040   0.029  -0.592 -0.9357  0.8865  0.5837
   91MOL0     C12163   4.187  -0.011  -0.620 -0.3036  0.0486 -0.1688
   91MOL0     C12164   4.214  -0.158  -0.573  0.5580  0.5566  0.1215
   91MOL0     C12165   4.345  -0.213  -0.636 -0.2552 -0.2250 -0.1939
   91MOL0     C12166   4.376  -0.352  -0.589  0.3937  0.5194 -0.2903
   91MOL0     N12167   4.472  -0.434  -0.671  0.3756 -0.8724 -0.4014
   91MOL0     C12168   4.508  -0.563  -0.646 -0.1192  0.0426  0.0527
   91MOL0     C12169   4.612  -0.585  -0.730 -0.0149 -0.0528  0.4469
   91MOL0     C12170   4.685  -0.709  -0.740 -1.1815 -0.1844 -0.1315
   91MOL0     C12171   4.836  -0.685  -0.738 -0.1029 -0.7140 -0.3041
   91MOL0     C12172   4.907  -0.820  -0.710  0.2416 -0.6447  0.6956
   91MOL0     C12173   5.049  -0.813  -0.660  0.1392 -0.8633  0.1982
   91MOL0     O12174   5.053  -0.731  -0.540  0.2253  0.2010  0.3437
   91MOL0     C12175   5.160  -0.647  -0.537  0.1627  0.3847  0.3092
   91MOL0     C12176   5.291  -0.690  -0.518 -0.6299 -0.5760 -0.1756
   91MOL0     C12177   5.391  -0.592  -0.534  0.0764  0.1115  0.1511
   91MOL0     C12178   5.373  -0.464  -0.582 -0.2011 -0.1192  0.4105
   91MOL0     C12179   5.492  -0.372  -0.603 -0.0839  0.5175 -0.3695
   91MOL0     O12180   5.616  -0.431  -0.578 -0.6052 -0.3611 -0.3357
   91MOL0     C12181   5.732  -0.352  -0.573 -0.1756  0.0673  0.1458
   91MOL0     C12182   5.755  -0.222  -0.630  0.6928 -0.2210  0.2855
   91MOL0     C12183   5.881  -0.163  -0.613  0.4115  0.7810  0.3608
   91MOL0     C12184   5.984  -0.230  -0.540  0.0311  0.8889  0.3612
   91MOL0     O12185   6.102  -0.153  -0.508  0.3837 -0.5991 -0.2578
   91MOL0     C12186   6.178  -0.198  -0.390  1.0112 -0.1547 -0.6575
   91MOL0     C12187   6.292  -0.289  -0.445  0.6315 -0.3559 -0.0801
   91MOL0     C12188   6.402  -0.198  -0.509 -0.5075  0.1200  0.8847
   91MOL0     C12189   6.537  -0.266  -0.536  0.1861  0.1046 -0.5971
   91MOL0     C12190   6.625  -0.192  -0.627 -0.6165 -0.0036  0.3519
   91MOL0     C12191   6.761  -0.263  -0.648 -0.2090  0.2407  0.1842
   91MOL0     C12192   6.845  -0.188  -0.758 -0.4573  0.2884  0.9681
   91MOL0     C12193   6.990  -0.238  -0.766 -0.1763 -0.1673 -0.8202
   91MOL0    Cl12194   7.003  -0.420  -0.778 -0.6028  0.2155  0.0077
   91MOL0     C12195   5.965  -0.363  -0.500 -0.4420  1.0173 -0.3127
   91MOL0     C12196   5.838  -0.423  -0.515 -0.1198  0.4790 -1.0739
   91MOL0     O12197   5.464  -0.264  -0.643  0.3081  0.3567  0.1529
   91MOL0     C12198   5.238  -0.431  -0.619  0.9456  1.3470  0.1755
   91MOL0     C12199   5.131  -0.522  -0.600  0.2752  0.2169 -1.3130
   91MOL0     N12200   4.630  -0.472  -0.803  0.1829 -0.2589  0.1320
   91MOL0     N12201   4.548  -0.384  -0.778  0.4444  0.3218  0.2488
   91MOL0     C12202   3.628   0.197  -0.176 -0.7307  0.3699  0.1147
   91MOL0     C12203   3.491   0.204  -0.126  0.0934 -0.1830  0.4157
   91MOL0     C12204   3.151   0.397   0.090 -0.2301  1.0016  0.8310
   91MOL0     C12205   3.047   0.331   0.012 -0.2091 -0.0338 -0.0566
   91MOL0     C12206   2.912   0.328   0.060  0.7619 -0.4555 -0.2587
   91MOL0     C12207   2.873   0.397   0.179 -0.5051 -0.3027  0.4084
   91MOL0     O12208   2.739   0.388   0.226  0.4417 -0.5609  0.2846
   91MOL0     C12209   2.709   0.457   0.339  0.2382  0.1602  0.0341
   91MOL0     C12210   2.574   0.417   0.401 -0.7434  0.1349 -0.6980
   91MOL0     C12211   2.455   0.404   0.317  0.3116  0.0931  0.0016
   91MOL0     C12212   2.324   0.385   0.403 -0.1035  0.5990 -0.1098
   91MOL0     C12213   2.212   0.384   0.309 -0.1124  0.5039  0.6142
   91MOL0     C12214   2.109   0.381   0.244 -0.2325 -0.0171  1.2113
   91MOL0     C12215   2.977   0.481   0.238  0.3759  0.4700  0.3068
   91MOL0     C12216   3.109   0.472   0.199  0.7352  0.1710 -0.7963
   91MOL0     C12217   3.204   0.542   0.278 -0.0279  0.0724 -0.3621
   91MOL0     H12218   3.442   0.529  -0.225 -1.3163 -0.5324 -0.6394
   91MOL0     H12219   3.656   0.523  -0.303  0.8590  0.2438  0.9475
   91MOL0     H12220   4.010   0.230  -0.264  0.7985  0.7219 -0.6460
   91MOL0     H12221   3.896   0.123  -0.199 -0.0589 -0.8986 -0.2631
   91MOL0     H12222   3.882   0.244  -0.484 -0.5127  1.6580  2.2424
   91MOL0     H12223   3.808   0.088  -0.443  0.5878 -0.3294  0.6556
   91MOL0     H12224   4.034  -0.014  -0.397  0.6339 -0.4436 -0.8257
   91MOL0     H12225   4.110   0.146  -0.429 -0.3817  0.7773 -1.4412
   91MOL0     H12226   3.980  -0.061  -0.609 -0.8341  0.7745  0.8152
   91MOL0     H12227   4.007   0.104  -0.664  0.3280 -1.3736 -2.5572
   91MOL0     H12228   4.194  -0.003  -0.729 -0.2331  1.3091 -0.0968
   91MOL0     H12229   4.251   0.063  -0.571 -3.2581  2.4246  0.4173
   91MOL0     H12230   4.216  -0.171  -0.465  3.6341 -3.3041 -0.1847
   91MOL0     H12231   4.130  -0.218  -0.610  1.2914 -1.0437  0.9814
   91MOL0     H12232   4.424  -0.143  -0.609 -1.7528  1.0164  1.2053
   91MOL0     H12233   4.332  -0.205  -0.744 -1.0297  1.9705  0.0034
   91MOL0     H12234   4.400  -0.361  -0.482 -0.6130  1.6387  0.0478
   91MOL0     H12235   4.287  -0.413  -0.604  2.2827 -2.7567  0.5871
   91MOL0     H12236   4.478  -0.634  -0.568  0.9055 -0.7415 -0.2423
   91MOL0     H12237   4.654  -0.770  -0.654 -1.8731  1.6043  0.9385
   91MOL0     H12238   4.662  -0.766  -0.831 -1.1706  0.8402 -0.7913
   91MOL0     H12239   4.874  -0.647  -0.833 -1.2455 -0.2298 -0.5872
   91MOL0     H12240   4.854  -0.608  -0.663 -0.9285 -0.5125 -0.2949
   91MOL0     H12241   4.898  -0.878  -0.803 -0.1227  0.0818  0.2687
   91MOL0     H12242   4.846  -0.873  -0.637  0.4078  1.0814  2.1433
   91MOL0     H12243   5.110  -0.770  -0.741  0.5834 -0.6947  0.6185
   91MOL0     H12244   5.092  -0.912  -0.647 -2.4363 -1.9792  0.8252
   91MOL0     H12245   5.304  -0.793  -0.486 -1.3142  0.0752  2.4206
   91MOL0     H12246   5.492  -0.630  -0.526 -0.0475 -0.8007 -1.8905
   91MOL0     H12247   5.689  -0.162  -0.691  2.2456  1.5838  0.3040
   91MOL0     H12248   5.906  -0.063  -0.649  0.8831  0.1212 -1.2114
   91MOL0     H12249   6.211  -0.111  -0.332 -1.4222 -0.1125  0.8082
   91MOL0     H12250   6.113  -0.246  -0.317  1.8108 -0.0583  0.1437
   91MOL0     H12251   6.336  -0.345  -0.362 -0.0826  0.5615  0.9538
   91MOL0     H12252   6.255  -0.367  -0.511 -0.9251  0.5578 -0.3456
   91MOL0     H12253   6.368  -0.152  -0.602 -0.4748 -0.3572  0.6377
   91MOL0     H12254   6.423  -0.115  -0.441  1.2860  0.0082  0.5163
   91MOL0     H12255   6.526  -0.370  -0.569  0.4794 -0.0224 -0.3050
   91MOL0     H12256   6.593  -0.264  -0.442  1.1890  5.1945 -0.9994
   91MOL0     H12257   6.642  -0.090  -0.590 -1.5422 -1.0615  4.0480
   91MOL0     H12258   6.581  -0.186  -0.727  3.7516  0.4551 -1.7880
   91MOL0     H12259   6.827  -0.275  -0.562  0.5574  0.9445 -0.2890
   91MOL0     H12260   6.751  -0.366  -0.685  4.6885 -0.4022 -0.1284
   91MOL0     H12261   6.857  -0.082  -0.730 -0.2455  0.7748 -0.8270
   91MOL0     H12262   6.788  -0.205  -0.849  1.5398  0.1483 -0.3184
   91MOL0     H12263   7.031  -0.185  -0.853 -1.7442  0.4450 -1.2234
   91MOL0     H12264   7.041  -0.193  -0.680 -1.0527  1.0778 -0.9196
   91MOL0     H12265   6.042  -0.421  -0.451 -0.9444 -1.2996 -2.1015
   91MOL0     H12266   5.829  -0.529  -0.495 -3.9907  0.7304 -0.6660
   91MOL0     H12267   5.212  -0.329  -0.647 -0.1424  0.5945 -1.6806
   91MOL0     H12268   5.033  -0.482  -0.624 -0.2318  0.7309  1.3765
   91MOL0     H12269   3.692   0.111  -0.158 -0.9088 -0.2934 -2.0784
   91MOL0     H12270   3.443   0.124  -0.071 -0.6729 -1.4593 -1.9757
   91MOL0     H12271   3.075   0.274  -0.075  0.8487 -0.4687  0.5591
   91MOL0     H12272   2.832   0.278   0.007  0.6611  0.8534 -1.3952
   91MOL0     H12273   2.710   0.564   0.318  0.7516  0.4258  1.3176
   91MOL0     H12274   2.789   0.443   0.412 -1.2789  1.3000  2.0041
   91MOL0     H12275   2.551   0.491   0.479 -2.2474 -0.5097 -0.4895
   91MOL0     H12276   2.588   0.319   0.447  0.3636 -0.0085 -1.3020
   91MOL0     H12277   2.476   0.317   0.253 -0.6132  0.5412 -0.9520
   91MOL0     H12278   2.439   0.496   0.260 -2.6146  0.3520  1.0807
   91MOL0     H12279   2.316   0.305   0.476  2.2101  2.0778  1.9208
   91MOL0     H12280   2.321   0.474   0.467  0.4401  0.5765 -0.0554
   91MOL0     H12281   2.031   0.385   0.171 -1.8685 -2.0967  2.7239
   91MOL0     H12282   2.956   0.544   0.324  0.5898  2.6214 -1.1498
   91MOL0     H12283   3.262   0.469   0.335 -0.9482  0.7950  1.6071
   91MOL0     H12284   3.275   0.605   0.224  1.0333 -0.3569  0.4845
   91MOL0     H12285   3.152   0.596   0.358 -0.4876 -1.2834  0.2798
   92MOL0     O12286   9.492   3.304   6.880 -0.5266  0.2203  0.1394
   92MOL0     C12287   9.436   3.409   6.849 -0.0911 -0.6869 -0.2674
   92MOL0     O12288   9.491   3.506   6.778 -0.2438 -0.8492 -0.2791
   92MOL0     C12289   9.593   3.474   6.687  0.7169 -0.0485  1.0015
   92MOL0     C12290   9.577   3.514   6.557 -0.1427 -0.0667 -0.2594
   92MOL0     C12291   9.684   3.472   6.471  0.7371 -0.3558  0.7989
   92MOL0     C12292   9.793   3.400   6.508 -0.5504 -0.4441 -0.3492
   92MOL0     O12293   9.905   3.389   6.428  0.3275 -0.5442  0.5903
   92MOL0     C12294   9.888   3.345   6.290  0.5754 -0.8042  0.1801
   92MOL0     C12295   9.969   3.431   6.185 -1.0958 -0.6638 -0.3706
   92MOL0     C12296   9.910   3.421   6.044 -1.0752  0.2091 -0.6534
   92MOL0     C12297  10.034   3.443   5.952  0.2984  0.4284  0.0103
   92MOL0     C12298   9.987   3.476   5.813  0.2814 -0.4005 -0.3965
   92MOL0     C12299   9.938   3.625   5.786 -0.3815 -0.4692 -0.5804
   92MOL0     C12300  10.056   3.730   5.778 -0.0164 -1.1653  0.1201
   92MOL0     C12301  10.195   3.664   5.735 -0.6825 -0.4811  0.4572
   92MOL0     N12302  10.299   3.767   5.731 -0.8064  0.0242 -0.2631
   92MOL0     C12303  10.388   3.788   5.835  0.4301  0.0424  0.0735
   92MOL0     C12304  10.479   3.878   5.778 -0.3046 -0.1715  0.1988
   92MOL0     C12305  10.600   3.924   5.854  0.0224  0.0996 -0.1273
   92MOL0     C12306  10.731   3.905   5.771 -0.6820 -0.2127  0.5031
   92MOL0     C12307  10.772   4.038   5.713  0.5375 -0.1157 -0.9764
   92MOL0     C12308  10.887   4.027   5.622  0.2155  0.0285  0.3647
   92MOL0     O12309  10.850   3.924   5.524  0.6276  0.0473 -0.1004
   92MOL0     C12310  10.946   3.888   5.435 -0.4624 -0.5737 -0.2962
   92MOL0     C12311  10.894   3.815   5.336 -0.9136 -0.6092 -0.2855
   92MOL0     C12312  10.970   3.778   5.227  0.8094 -0.9084  0.7980
   92MOL0     C12313  11.098   3.827   5.214  0.4179  1.3020 -0.3045
   92MOL0     C12314  11.193   3.786   5.100  0.5031 -0.5078  0.4778
   92MOL0     O12315  11.317   3.823   5.114 -0.5318  0.5755 -0.0721
   92MOL0     C12316  11.419   3.786   5.034 -1.0514  0.2209 -0.8269
   92MOL0     C12317  11.542   3.843   5.064 -0.1101  0.7350 -1.2436
   92MOL0     C12318  11.663   3.808   4.996  0.1199  0.6631  0.2516
   92MOL0     C12319  11.655   3.707   4.897  0.0411  0.1721  0.0038
   92MOL0     O12320  11.763   3.653   4.833 -0.0813 -0.1471  0.5927
   92MOL0     C12321  11.867   3.614   4.929  0.2363 -0.3892 -0.5904
   92MOL0     C12322  11.922   3.476   4.888 -0.5348  0.4666 -0.7429
   92MOL0     C12323  12.010   3.408   4.998  0.0523 -0.2368  0.2863
   92MOL0     C12324  12.135   3.499   5.028 -0.2699  0.0824 -0.2556
   92MOL0     C12325  12.219   3.422   5.130 -0.5625  1.1640 -0.1296
   92MOL0     C12326  12.303   3.300   5.080  0.0013 -0.2681  0.4830
   92MOL0     C12327  12.401   3.328   4.961 -0.0726  0.7919  0.2172
   92MOL0     C12328  12.504   3.433   5.000 -0.3190  0.5841  0.0447
   92MOL0    Cl12329  12.618   3.460   4.873  0.0028  0.0546  0.4705
   92MOL0     C12330  11.531   3.663   4.853  0.8978  0.2512  0.2309
   92MOL0     C12331  11.418   3.695   4.920  0.3687  0.4192 -0.4292
   92MOL0     O12332  11.143   3.718   5.011  0.5302  0.9492  0.7769
   92MOL0     C12333  11.151   3.902   5.315  0.2982 -0.8205 -0.1697
   92MOL0     C12334  11.076   3.944   5.419  0.8592 -0.1471  0.1226
   92MOL0     N12335  10.442   3.909   5.646  0.3993 -0.3849 -0.0424
   92MOL0     N12336  10.332   3.848   5.621 -0.5883 -0.0716 -0.1039
   92MOL0     C12337   9.801   3.372   6.641  0.6521  0.4346  0.1410
   92MOL0     C12338   9.704   3.405   6.727  0.5804  0.5218 -0.5190
   92MOL0     C12339   9.298   3.444   6.895 -0.7288  0.4247 -0.7368
   92MOL0     C12340   9.208   3.522   6.817 -0.4637 -0.3331 -0.7503
   92MOL0     C12341   9.084   3.567   6.863 -0.6046  0.0154 -0.1069
   92MOL0     C12342   9.046   3.545   6.997 -0.6340  0.1896  0.8199
   92MOL0     O12343   8.937   3.610   7.036 -0.6250 -0.4817 -0.4408
   92MOL0     C12344   8.888   3.576   7.167  0.7102 -0.3901  0.2299
   92MOL0     C12345   8.770   3.675   7.210 -0.2786  0.1116 -0.3348
   92MOL0     C12346   8.636   3.605   7.203 -0.2970 -0.3474 -0.6318
   92MOL0     C12347   8.581   3.600   7.061 -0.6934 -0.3929  0.1114
   92MOL0     C12348   8.437   3.617   7.053 -0.8821  0.0745 -0.7629
   92MOL0     C12349   8.321   3.626   7.084  0.3736  0.3761 -0.5507
   92MOL0     C12350   9.129   3.453   7.070  0.3675  0.4420  0.1114
   92MOL0     C12351   9.251   3.409   7.024  0.1237 -0.1370 -0.4504
   92MOL0     C12352   9.326   3.319   7.127 -0.5598 -1.0949 -0.3494
   92MOL0     H12353   9.486   3.567   6.534 -0.4055 -0.3537  0.1002
   92MOL0     H12354   9.686   3.513   6.370 -0.8445  0.0351  0.8909
   92MOL0     H12355   9.918   3.241   6.274  0.9713 -0.6353 -0.1933
   92MOL0     H12356   9.782   3.336   6.264  1.1826 -2.6700 -2.0105
   92MOL0     H12357  10.072   3.394   6.198 -0.8040 -0.0893 -1.0168
   92MOL0     H12358   9.976   3.533   6.222 -3.1306 -1.0166  1.1804
   92MOL0     H12359   9.834   3.498   6.026 -2.2266 -0.7143  0.0426
   92MOL0     H12360   9.865   3.326   6.012 -0.3417  0.6876 -3.3451
   92MOL0     H12361  10.095   3.526   5.988  1.8794 -1.0860  1.0231
   92MOL0     H12362  10.103   3.358   5.948  2.0830  1.8170  0.1642
   92MOL0     H12363  10.062   3.452   5.737  0.5078 -1.7938  0.2235
   92MOL0     H12364   9.902   3.407   5.801 -0.8800  0.9506 -0.1560
   92MOL0     H12365   9.888   3.625   5.689 -3.4316 -1.3682  0.8552
   92MOL0     H12366   9.865   3.655   5.863 -0.9442 -1.1056 -0.8541
   92MOL0     H12367  10.057   3.774   5.878 -2.2383 -1.8241  0.4908
   92MOL0     H12368  10.021   3.809   5.711  0.1550  0.2824  1.6697
   92MOL0     H12369  10.229   3.588   5.806  2.4308  0.9873  0.7172
   92MOL0     H12370  10.193   3.611   5.639 -2.0686  0.2026  0.0767
   92MOL0     H12371  10.385   3.731   5.927  4.4158  0.1113  0.3897
   92MOL0     H12372  10.584   4.031   5.871 -1.2319  0.3152 -2.2973
   92MOL0     H12373  10.600   3.884   5.956 -1.4401 -0.4739 -0.3317
   92MOL0     H12374  10.802   3.865   5.844 -1.1349  0.6571  1.4309
   92MOL0     H12375  10.728   3.827   5.694  0.8194 -1.1407  1.3404
   92MOL0     H12376  10.795   4.109   5.793  1.6447  1.1965 -2.4080
   92MOL0     H12377  10.691   4.082   5.654  0.3502 -2.5850 -2.6956
   92MOL0     H12378  10.969   3.993   5.686  1.6190  2.3678 -0.0744
   92MOL0     H12379  10.911   4.128   5.587  2.2197 -0.5360 -0.0317
   92MOL0     H12380  10.792   3.780   5.332 -1.1517  0.0228  0.2227
   92MOL0     H12381  10.933   3.716   5.145  0.3880  0.6880 -0.2724
   92MOL0     H12382  11.541   3.907   5.152  2.3225 -1.8660  0.8490
   92MOL0     H12383  11.758   3.853   5.024  1.9050 -3.1153  0.8917
   92MOL0     H12384  11.952   3.682   4.916 -2.0247  2.4618 -1.5185
   92MOL0     H12385  11.831   3.613   5.032 -2.4345  3.4421 -1.3057
   92MOL0     H12386  11.833   3.416   4.866 -1.8650  2.4184 -0.9114
   92MOL0     H12387  11.972   3.472   4.791  0.1073 -1.1003 -0.3819
   92MOL0     H12388  11.958   3.385   5.092 -1.7758 -1.9200 -1.0548
   92MOL0     H12389  12.035   3.309   4.960  1.9691  0.0445  0.7254
   92MOL0     H12390  12.109   3.597   5.068 -2.2787 -1.2839  2.0809
   92MOL0     H12391  12.176   3.498   4.926 -0.2319 -0.8572 -0.2387
   92MOL0     H12392  12.150   3.382   5.205 -1.0832  0.2619 -1.0661
   92MOL0     H12393  12.281   3.491   5.188 -0.7807 -0.7126  2.5614
   92MOL0     H12394  12.355   3.262   5.168  0.3835 -2.9416 -0.7810
   92MOL0     H12395  12.239   3.216   5.049  0.8207 -0.6747 -0.1255
   92MOL0     H12396  12.349   3.354   4.869  0.5349  0.5647 -0.1941
   92MOL0     H12397  12.454   3.234   4.942 -2.4971 -0.3992 -1.0820
   92MOL0     H12398  12.448   3.524   5.023 -1.9881 -0.9512  2.6041
   92MOL0     H12399  12.561   3.401   5.088  0.8058  1.9675 -0.1363
   92MOL0     H12400  11.534   3.595   4.768 -3.0359  0.4724 -0.2843
   92MOL0     H12401  11.329   3.640   4.892 -0.2083  1.1447 -0.0417
   92MOL0     H12402  11.252   3.940   5.319  0.4306 -0.8325 -2.3302
   92MOL0     H12403  11.125   4.012   5.487 -1.2922  3.1483 -1.3814
   92MOL0     H12404   9.885   3.306   6.659 -0.2037 -0.6593  0.2123
   92MOL0     H12405   9.715   3.387   6.834  0.6705  0.3964 -0.5490
   92MOL0     H12406   9.231   3.550   6.714 -3.3193 -1.3678 -1.7569
   92MOL0     H12407   9.023   3.627   6.796  0.3439  1.2548  0.0999
   92MOL0     H12408   8.968   3.590   7.240  1.8144 -2.3103 -0.5233
   92MOL0     H12409   8.859   3.471   7.184 -0.7697  0.3944  3.2217
   92MOL0     H12410   8.779   3.765   7.149  0.0310  1.5167  1.6976
   92MOL0     H12411   8.788   3.697   7.316 -2.1706  0.6082 -0.0915
   92MOL0     H12412   8.566   3.656   7.270  0.9990  0.9088 -0.1732
   92MOL0     H12413   8.651   3.507   7.249  0.2187  0.4555  0.9822
   92MOL0     H12414   8.602   3.689   7.001 -1.2005 -0.2945  0.0768
   92MOL0     H12415   8.614   3.513   7.004 -1.5762  0.8435 -2.4716
   92MOL0     H12416   8.214   3.616   7.092  0.3984  0.8674  0.4800
   92MOL0     H12417   9.103   3.411   7.166 -1.7917 -1.4643 -1.1904
   92MOL0     H12418   9.322   3.212   7.102  0.7968 -1.1436 -0.3945
   92MOL0     H12419   9.432   3.343   7.130 -1.1196  1.8508 -0.6201
   92MOL0     H12420   9.299   3.331   7.232  2.7568  0.4902  0.4325
   93MOL0     O12421   2.758   5.388   7.572 -0.5331 -1.1017 -0.3119
   93MOL0     C12422   2.671   5.423   7.648  0.2974 -0.4750  0.3422
   93MOL0     O12423   2.685   5.433   7.790 -0.4648  0.0349 -0.2117
   93MOL0     C12424   2.814   5.423   7.837 -0.9285 -0.8661 -0.0368
   93MOL0     C12425   2.919   5.508   7.788  0.1292  0.3125 -0.0375
   93MOL0     C12426   3.049   5.503   7.833 -0.7846 -0.5733  0.1448
   93MOL0     C12427   3.088   5.399   7.916 -0.3629 -0.4184  0.2525
   93MOL0     O12428   3.215   5.419   7.967  0.5581 -0.5678  0.1873
   93MOL0     C12429   3.310   5.332   7.911 -0.0108 -0.1234  1.2293
   93MOL0     C12430   3.429   5.337   8.003 -0.8012  0.6610  0.0767
   93MOL0     C12431   3.542   5.247   7.966 -0.2885  0.3298 -0.6715
   93MOL0     C12432   3.669   5.268   8.053  0.5600 -0.0499  0.0230
   93MOL0     C12433   3.804   5.217   7.999 -0.2565 -0.5792  0.4472
   93MOL0     C12434   3.916   5.240   8.091 -0.5661  0.2219  0.5511
   93MOL0     C12435   4.048   5.168   8.052 -0.3898 -0.5129  0.6797
   93MOL0     C12436   4.143   5.161   8.171  0.5247 -0.1439 -0.4465
   93MOL0     N12437   4.197   5.291   8.231 -0.5388 -0.4149 -0.1110
   93MOL0     C12438   4.133   5.407   8.263 -0.0597  0.2578 -0.2428
   93MOL0     C12439   4.222   5.481   8.330  0.1624 -1.1889  0.3155
   93MOL0     C12440   4.202   5.611   8.412 -0.0793  0.2898  0.1412
   93MOL0     C12441   4.052   5.637   8.426 -1.2828  0.2227  0.1525
   93MOL0     C12442   4.027   5.769   8.504  0.1549  0.0648  0.1347
   93MOL0     C12443   3.888   5.796   8.549  0.2322  0.0923  0.4694
   93MOL0     O12444   3.867   5.925   8.599  0.2780  0.9122  0.2596
   93MOL0     C12445   3.744   5.949   8.647 -0.5330  0.8340 -0.5284
   93MOL0     C12446   3.746   5.990   8.784 -0.5736 -0.6781  0.0502
   93MOL0     C12447   3.632   6.006   8.861 -0.7318 -0.2139  0.0453
   93MOL0     C12448   3.501   5.994   8.797  0.7206 -0.1817  1.0034
   93MOL0     C12449   3.386   6.020   8.882  0.1827  1.2998  1.2302
   93MOL0     O12450   3.390   6.031   9.012 -0.2852 -0.1815  0.7895
   93MOL0     C12451   3.268   6.042   9.078 -0.3858  0.2189 -0.4946
   93MOL0     C12452   3.227   5.936   9.163 -0.1653 -0.6487  0.2214
   93MOL0     C12453   3.105   5.944   9.229 -0.4871  0.6937  1.3146
   93MOL0     C12454   3.013   6.048   9.197 -0.9643 -0.8322 -0.4161
   93MOL0     O12455   2.882   6.055   9.243 -0.1521 -0.4398  0.1482
   93MOL0     C12456   2.859   6.006   9.375  0.3958 -0.1316  0.0038
   93MOL0     C12457   2.711   6.029   9.408 -1.0110 -0.0575 -0.6069
   93MOL0     C12458   2.672   5.957   9.535 -0.6065  0.0112 -0.2578
   93MOL0     C12459   2.527   5.984   9.558  0.0141 -0.0346 -0.9293
   93MOL0     C12460   2.478   5.924   9.694  0.0592 -0.8190 -0.1135
   93MOL0     C12461   2.353   5.836   9.661 -0.0744  0.1147 -0.0568
   93MOL0     C12462   2.307   5.781   9.791 -0.4584  0.2839  0.1492
   93MOL0     C12463   2.227   5.651   9.778  0.1492 -1.3803 -0.0773
   93MOL0    Cl12464   2.328   5.522   9.726  0.0102 -0.0705 -0.2306
   93MOL0     C12465   3.067   6.157   9.128  0.3628  0.9126  0.0642
   93MOL0     C12466   3.196   6.156   9.077 -0.1568  0.1864  0.0015
   93MOL0     O12467   3.277   6.017   8.817 -0.3047  0.4051 -0.2879
   93MOL0     C12468   3.498   5.960   8.660  0.3585  0.4449 -0.5682
   93MOL0     C12469   3.621   5.941   8.589 -0.7194 -0.2632  0.0901
   93MOL0     N12470   4.344   5.415   8.322  0.6300 -0.5701  0.0502
   93MOL0     N12471   4.327   5.307   8.257 -0.5475  0.8846 -0.2542
   93MOL0     C12472   3.000   5.304   7.961 -0.6439 -0.0209 -0.6324
   93MOL0     C12473   2.863   5.314   7.924 -0.2625  0.4982  0.6874
   93MOL0     C12474   2.536   5.458   7.606 -0.7372  0.0679 -0.4884
   93MOL0     C12475   2.466   5.360   7.532  0.2357 -0.0766  0.1199
   93MOL0     C12476   2.331   5.396   7.488 -1.0640  0.3505 -0.5248
   93MOL0     C12477   2.272   5.519   7.524  0.6495  0.1946 -0.0682
   93MOL0     O12478   2.147   5.554   7.465  0.4871  0.1531 -0.2860
   93MOL0     C12479   2.051   5.627   7.542 -0.2243 -0.1068 -0.1187
   93MOL0     C12480   1.959   5.705   7.444  0.3092  0.7633  0.1695
   93MOL0     C12481   1.850   5.628   7.366  0.1413  0.9024  0.2769
   93MOL0     C12482   1.903   5.499   7.299  0.0330 -0.2208  0.4585
   93MOL0     C12483   1.995   5.528   7.189  0.0054 -0.2395 -0.3614
   93MOL0     C12484   2.079   5.560   7.111  0.4476 -0.3650  0.1761
   93MOL0     C12485   2.348   5.612   7.593  0.6968 -1.0641  0.1691
   93MOL0     C12486   2.476   5.584   7.633  0.1506  0.0764  1.1007
   93MOL0     C12487   2.564   5.692   7.700  0.4497  0.3201  0.0320
   93MOL0     H12488   2.895   5.594   7.727 -0.0756  1.0787  1.0885
   93MOL0     H12489   3.124   5.576   7.806  0.1630 -1.7942 -0.6230
   93MOL0     H12490   3.265   5.232   7.903  0.8560 -0.3676 -5.2157
   93MOL0     H12491   3.336   5.363   7.810  0.6970 -1.4159  0.9984
   93MOL0     H12492   3.395   5.314   8.105  1.3927 -1.6093  0.3843
   93MOL0     H12493   3.464   5.440   8.015 -0.4168  0.4451  0.8795
   93MOL0     H12494   3.574   5.274   7.865 -1.1207 -0.1070 -1.0653
   93MOL0     H12495   3.507   5.143   7.971 -3.5220  1.3609  0.1828
   93MOL0     H12496   3.672   5.367   8.099 -1.5072 -0.4905  1.2106
   93MOL0     H12497   3.641   5.209   8.140 -6.4286  1.7398 -0.4175
   93MOL0     H12498   3.803   5.111   7.971 -2.8069 -0.3688 -0.5385
   93MOL0     H12499   3.833   5.263   7.904  0.3311  0.7626  1.2475
   93MOL0     H12500   3.927   5.348   8.102 -2.3573  0.6489 -1.3204
   93MOL0     H12501   3.882   5.200   8.187  0.6040 -1.0577  0.4794
   93MOL0     H12502   4.088   5.213   7.960 -1.6798  1.0392  0.8480
   93MOL0     H12503   4.020   5.065   8.027  0.9931 -0.3114 -2.1490
   93MOL0     H12504   4.098   5.110   8.256  1.0896 -0.3269 -0.2481
   93MOL0     H12505   4.222   5.093   8.137 -2.2482 -2.3065 -3.1349
   93MOL0     H12506   4.031   5.441   8.248 -0.7717 -2.1970 -1.4384
   93MOL0     H12507   4.262   5.607   8.503  0.0826  1.7032  0.1091
   93MOL0     H12508   4.252   5.687   8.352  0.2227 -1.8087 -2.4834
   93MOL0     H12509   4.022   5.647   8.321  0.0048 -1.1408 -0.3774
   93MOL0     H12510   4.002   5.556   8.479 -0.6067  2.1291  4.1025
   93MOL0     H12511   4.056   5.850   8.437 -1.4842  1.2125  0.7431
   93MOL0     H12512   4.093   5.765   8.591 -2.9839 -4.6876  2.7885
   93MOL0     H12513   3.858   5.715   8.616  0.2019 -1.7464 -1.6407
   93MOL0     H12514   3.821   5.789   8.463 -1.1945  2.8542  1.2205
   93MOL0     H12515   3.850   5.996   8.816 -0.3373 -0.6274 -0.7087
   93MOL0     H12516   3.640   6.031   8.967 -1.3801  1.6996 -0.3154
   93MOL0     H12517   3.287   5.850   9.191 -0.4774 -1.9845 -2.8622
   93MOL0     H12518   3.077   5.873   9.307 -0.5544 -0.7621  0.0069
   93MOL0     H12519   2.890   5.902   9.369  3.4014  0.7492 -3.1462
   93MOL0     H12520   2.917   6.065   9.447  1.0682 -0.3097 -0.3841
   93MOL0     H12521   2.696   6.136   9.420  1.2140  0.1300  1.2434
   93MOL0     H12522   2.650   6.001   9.321 -0.5332  1.0088 -1.3108
   93MOL0     H12523   2.697   5.851   9.524  0.7797  0.1860  0.8357
   93MOL0     H12524   2.730   5.988   9.623 -0.6207 -1.5552  0.3440
   93MOL0     H12525   2.481   5.934   9.473  0.2121 -0.4562 -0.7916
   93MOL0     H12526   2.513   6.092   9.552  0.0777 -0.0884 -2.3389
   93MOL0     H12527   2.470   6.003   9.769 -0.9571  1.6732 -2.6676
   93MOL0     H12528   2.548   5.853   9.739 -1.4129 -0.6556  2.6305
   93MOL0     H12529   2.279   5.891   9.603  0.2748 -1.1643 -1.8035
   93MOL0     H12530   2.379   5.749   9.600 -2.2325 -0.1601 -0.6625
   93MOL0     H12531   2.240   5.858   9.831  0.5161  0.6137  1.2012
   93MOL0     H12532   2.385   5.769   9.866 -1.4810  0.2572  1.2452
   93MOL0     H12533   2.194   5.635   9.881  2.4037 -0.6929  0.8099
   93MOL0     H12534   2.143   5.649   9.708  1.4401  1.2715 -1.8634
   93MOL0     H12535   3.002   6.244   9.124  1.0760  1.4924  0.9030
   93MOL0     H12536   3.240   6.244   9.031 -0.6287  0.8795  0.8316
   93MOL0     H12537   3.400   5.958   8.614 -0.2082  2.3138  0.4656
   93MOL0     H12538   3.617   5.899   8.489 -0.2016 -2.0065  0.7707
   93MOL0     H12539   3.045   5.228   8.024  0.6962  1.7008  0.5864
   93MOL0     H12540   2.789   5.243   7.958  1.7871 -1.2937  1.6645
   93MOL0     H12541   2.506   5.262   7.512 -0.3372 -0.4275  0.6735
   93MOL0     H12542   2.274   5.325   7.430 -0.2267  0.9529 -2.1502
   93MOL0     H12543   2.102   5.707   7.597  0.0038  0.6026 -1.3344
   93MOL0     H12544   1.997   5.564   7.613  0.7900 -0.3793  0.4374
   93MOL0     H12545   2.008   5.758   7.362 -1.6920  1.9265 -0.3570
   93MOL0     H12546   1.891   5.774   7.496 -0.8167 -0.5852  0.5564
   93MOL0     H12547   1.810   5.699   7.294 -2.9849  0.8731  1.8226
   93MOL0     H12548   1.774   5.595   7.438  1.8997 -0.6230  1.5339
   93MOL0     H12549   1.952   5.438   7.375  0.3347 -1.3280 -0.5767
   93MOL0     H12550   1.814   5.441   7.272 -0.9550  1.7512 -0.7623
   93MOL0     H12551   2.163   5.590   7.050 -0.4512 -0.5894 -1.2313
   93MOL0     H12552   2.310   5.712   7.614  1.1524 -1.4051  3.0249
   93MOL0     H12553   2.668   5.683   7.666  0.5941 -0.2999  0.6283
   93MOL0     H12554   2.515   5.787   7.676 -1.1837 -0.0918  1.5461
   93MOL0     H12555   2.557   5.673   7.807 -1.5043  2.0135  0.2709
   94MOL0     O12556   9.655   1.678   4.332  0.4756 -0.1857  0.4072
   94MOL0     C12557   9.531   1.663   4.329 -0.0859  0.0352  0.3315
   94MOL0     O12558   9.448   1.705   4.225 -0.1860 -0.4607  0.7597
   94MOL0     C12559   9.502   1.749   4.105  0.5439  0.6292  0.3132
   94MOL0     C12560   9.627   1.703   4.061 -0.1179  0.0878  1.0520
   94MOL0     C12561   9.700   1.763   3.950  0.4126  0.8323 -0.1539
   94MOL0     C12562   9.641   1.868   3.885  0.2934 -0.0882 -0.0677
   94MOL0     O12563   9.711   1.929   3.784  0.6103  0.1821 -0.2832
   94MOL0     C12564   9.641   2.038   3.720  0.1673 -0.9514  0.2664
   94MOL0     C12565   9.735   2.079   3.611  0.5153 -0.3945  0.2766
   94MOL0     C12566   9.690   2.204   3.539 -0.0821 -0.0768  0.5482
   94MOL0     C12567   9.804   2.274   3.463  0.1730  0.1286  0.1484
   94MOL0     C12568   9.912   2.317   3.561  0.4871 -0.3537  0.0120
   94MOL0     C12569   9.994   2.430   3.510  0.2754  0.1452  0.7634
   94MOL0     C12570  10.125   2.450   3.594 -0.3719 -0.2510  0.6118
   94MOL0     C12571  10.220   2.553   3.531 -0.1394  0.3269 -0.4289
   94MOL0     N12572  10.356   2.554   3.592 -0.1674 -0.0647 -0.2873
   94MOL0     C12573  10.450   2.639   3.534  0.1795  0.1502  0.3900
   94MOL0     C12574  10.551   2.634   3.618 -0.6710 -0.3017  0.1036
   94MOL0     C12575  10.691   2.684   3.591  0.8545 -0.0016  0.4428
   94MOL0     C12576  10.695   2.832   3.604 -0.4056 -0.4616 -0.0279
   94MOL0     C12577  10.840   2.884   3.624 -0.6355  0.2961 -0.5350
   94MOL0     C12578  10.925   2.869   3.498 -0.9350 -0.5760 -0.3577
   94MOL0     O12579  10.978   2.737   3.473 -0.4693  0.1363 -0.0715
   94MOL0     C12580  11.104   2.716   3.526  0.1583  0.3519  0.2459
   94MOL0     C12581  11.226   2.750   3.460  0.1461 -0.2943  0.8045
   94MOL0     C12582  11.351   2.730   3.512  0.5970  1.1030 -0.4554
   94MOL0     C12583  11.365   2.664   3.634  0.6940  0.0654  1.0001
   94MOL0     C12584  11.494   2.643   3.701  0.2640 -0.3096  0.2260
   94MOL0     O12585  11.493   2.585   3.818 -0.8604  0.0080 -0.0545
   94MOL0     C12586  11.616   2.578   3.880  0.5594  0.1002 -1.2527
   94MOL0     C12587  11.703   2.687   3.903  0.4062  0.7286  0.8057
   94MOL0     C12588  11.822   2.681   3.981  0.0296 -0.4825 -0.4134
   94MOL0     C12589  11.852   2.558   4.045  1.1456  0.1031 -0.6643
   94MOL0     O12590  11.958   2.530   4.127 -0.1709  0.0372  0.4273
   94MOL0     C12591  12.075   2.504   4.051  0.0537  0.4607  0.5446
   94MOL0     C12592  12.140   2.364   4.071 -0.1896 -0.0619  0.2036
   94MOL0     C12593  12.274   2.351   3.996 -0.1598 -0.1804 -0.0120
   94MOL0     C12594  12.336   2.224   4.047  0.1699  0.6216 -0.1169
   94MOL0     C12595  12.464   2.196   3.977  0.5725 -0.2245  0.2358
   94MOL0     C12596  12.451   2.179   3.823  0.3193 -0.3302 -0.1126
   94MOL0     C12597  12.340   2.090   3.772 -0.2014 -0.0691 -0.4398
   94MOL0     C12598  12.344   2.086   3.618  0.5143  1.2676  0.0236
   94MOL0    Cl12599  12.288   2.239   3.555 -0.0657  0.4421  0.0201
   94MOL0     C12600  11.769   2.448   4.014 -0.5743  0.2934 -0.6518
   94MOL0     C12601  11.648   2.460   3.948 -0.5486 -0.6281 -0.1605
   94MOL0     O12602  11.592   2.692   3.647 -1.0065 -0.5112  0.6356
   94MOL0     C12603  11.244   2.622   3.700  0.2028  0.8759 -1.1112
   94MOL0     C12604  11.118   2.642   3.645 -0.1534 -0.1357 -0.2665
   94MOL0     N12605  10.524   2.550   3.727 -0.1526 -0.2013 -0.8675
   94MOL0     N12606  10.403   2.501   3.710  0.7317 -0.1943  0.3331
   94MOL0     C12607   9.505   1.905   3.922 -0.1774 -1.0067 -0.1992
   94MOL0     C12608   9.445   1.853   4.029 -0.4281  0.7083 -0.1425
   94MOL0     C12609   9.458   1.611   4.443  0.4154  0.0522 -0.3355
   94MOL0     C12610   9.315   1.614   4.443 -0.3047 -0.6056 -0.8590
   94MOL0     C12611   9.247   1.590   4.562 -0.4273 -0.1560 -0.5234
   94MOL0     C12612   9.308   1.532   4.674  0.0075  0.6235  0.5950
   94MOL0     O12613   9.254   1.503   4.793  0.2816  0.3244 -0.7489
   94MOL0     C12614   9.121   1.553   4.830  0.6003  0.6387 -0.5087
   94MOL0     C12615   9.006   1.464   4.782 -0.3500 -0.0408 -0.5840
   94MOL0     C12616   9.008   1.319   4.830  0.1793 -0.0623  0.4708
   94MOL0     C12617   8.882   1.245   4.789 -0.8637  0.5216  0.6376
   94MOL0     C12618   8.778   1.270   4.894  0.5854 -0.1863  0.1093
   94MOL0     C12619   8.695   1.279   4.976  1.5088  0.2438 -0.4817
   94MOL0     C12620   9.451   1.506   4.662  0.8267 -0.6628 -0.8431
   94MOL0     C12621   9.523   1.547   4.553  0.8478  0.2210  0.0662
   94MOL0     C12622   9.667   1.502   4.551 -0.1491 -0.4814 -0.1200
   94MOL0     H12623   9.671   1.617   4.110 -1.7028  0.7752  3.9699
   94MOL0     H12624   9.798   1.728   3.921 -0.2724 -2.0371  0.6478
   94MOL0     H12625   9.545   2.004   3.682 -1.9279  2.5850  1.9420
   94MOL0     H12626   9.623   2.123   3.786 -1.2148  0.8878 -2.2792
   94MOL0     H12627   9.724   2.001   3.535 -1.6174 -3.2841  3.2221
   94MOL0     H12628   9.838   2.079   3.649 -0.2989 -0.8603  2.6981
   94MOL0     H12629   9.644   2.269   3.614 -1.1651  0.3249 -0.4309
   94MOL0     H12630   9.602   2.189   3.475 -1.0751  0.1285  1.8142
   94MOL0     H12631   9.852   2.200   3.399  0.8449  0.6407  0.0456
   94MOL0     H12632   9.773   2.365   3.411  0.8654  0.9469  1.1356
   94MOL0     H12633   9.872   2.348   3.658 -1.3147  1.1541 -1.1335
   94MOL0     H12634   9.983   2.235   3.576  1.5704  0.8436  1.6934
   94MOL0     H12635  10.015   2.413   3.404 -1.3458  2.9453 -0.1183
   94MOL0     H12636   9.935   2.522   3.513 -0.0631  0.0404 -1.3397
   94MOL0     H12637  10.179   2.355   3.593 -1.1850 -0.7340  1.3140
   94MOL0     H12638  10.100   2.470   3.699  2.7234 -1.1031  1.6404
   94MOL0     H12639  10.221   2.521   3.426  0.5080  1.1173 -0.6717
   94MOL0     H12640  10.170   2.650   3.535 -2.1041 -0.5026 -2.6513
   94MOL0     H12641  10.446   2.702   3.446 -0.1404 -0.5156 -0.0787
   94MOL0     H12642  10.748   2.638   3.673  3.2023  1.7057 -0.1286
   94MOL0     H12643  10.728   2.647   3.495  0.6462  3.0575 -0.9231
   94MOL0     H12644  10.646   2.872   3.515 -1.0071 -1.5491 -0.1978
   94MOL0     H12645  10.634   2.868   3.687 -3.4509  1.8501 -2.9909
   94MOL0     H12646  10.889   2.819   3.696 -1.7941 -0.7117 -0.6236
   94MOL0     H12647  10.835   2.993   3.634  1.5847  0.4232 -0.3101
   94MOL0     H12648  11.004   2.943   3.506 -0.3184 -1.2186 -0.4163
   94MOL0     H12649  10.856   2.890   3.415  1.2301 -0.8037 -2.3109
   94MOL0     H12650  11.211   2.793   3.362  1.6592 -2.9187 -0.6613
   94MOL0     H12651  11.449   2.758   3.473  1.7993 -2.5809 -0.4333
   94MOL0     H12652  11.683   2.783   3.856 -0.4176 -0.3404 -1.1528
   94MOL0     H12653  11.881   2.768   4.010 -0.1306 -0.7255  0.6618
   94MOL0     H12654  12.036   2.492   3.949  0.1200 -1.2748  0.7045
   94MOL0     H12655  12.152   2.578   4.075  3.7210 -3.0405  0.6084
   94MOL0     H12656  12.152   2.367   4.180 -0.4789  4.1340  0.2619
   94MOL0     H12657  12.068   2.287   4.042 -1.7300  1.5698 -0.4690
   94MOL0     H12658  12.263   2.362   3.888  0.2796  0.6932  0.0258
   94MOL0     H12659  12.338   2.436   4.020 -1.0476  1.6006 -3.3948
   94MOL0     H12660  12.265   2.141   4.040 -0.1692  0.8509  0.5320
   94MOL0     H12661  12.358   2.229   4.154  0.9381 -0.2085 -0.2288
   94MOL0     H12662  12.500   2.099   4.013  1.6520 -0.0352 -0.3004
   94MOL0     H12663  12.535   2.277   3.998  0.4316  0.2639 -1.0756
   94MOL0     H12664  12.443   2.279   3.780 -1.1649  0.2207  1.3338
   94MOL0     H12665  12.543   2.128   3.793 -1.2449 -2.2227 -2.0288
   94MOL0     H12666  12.249   2.136   3.812  0.3693  0.7017  0.0027
   94MOL0     H12667  12.341   1.987   3.806  1.0565  0.0422 -0.0895
   94MOL0     H12668  12.447   2.067   3.589  0.5841 -1.3985  1.6792
   94MOL0     H12669  12.290   2.000   3.576  1.9097 -0.1774  1.0390
   94MOL0     H12670  11.790   2.342   4.028  1.6480  0.9569  1.8938
   94MOL0     H12671  11.580   2.377   3.930 -2.1215  0.9475 -1.8535
   94MOL0     H12672  11.251   2.566   3.793  2.1245  0.3945 -1.5066
   94MOL0     H12673  11.040   2.595   3.704  0.2913  0.6424  0.9653
   94MOL0     H12674   9.459   1.990   3.871 -0.9551 -1.9033 -1.0276
   94MOL0     H12675   9.344   1.876   4.061 -1.2186  0.3355 -2.2227
   94MOL0     H12676   9.263   1.668   4.365 -1.5283  2.7727  2.0366
   94MOL0     H12677   9.141   1.609   4.573 -0.1434  0.8247  0.6884
   94MOL0     H12678   9.100   1.655   4.796 -0.4810  0.7961  0.5684
   94MOL0     H12679   9.118   1.557   4.939  2.4205 -2.8388 -0.2156
   94MOL0     H12680   8.990   1.479   4.674 -2.1074  0.2949 -0.3154
   94MOL0     H12681   8.917   1.512   4.824 -1.2474  0.0377 -2.4484
   94MOL0     H12682   9.018   1.306   4.938  0.6306 -3.7648  0.1288
   94MOL0     H12683   9.096   1.277   4.781  1.4867  3.1067 -0.1412
   94MOL0     H12684   8.852   1.294   4.696  2.3928  0.7713 -0.4039
   94MOL0     H12685   8.895   1.141   4.756  0.3037  0.8427  0.0338
   94MOL0     H12686   8.627   1.282   5.059  1.0652 -0.5315 -0.8074
   94MOL0     H12687   9.492   1.466   4.754  2.0585  3.0582  0.4088
   94MOL0     H12688   9.683   1.434   4.635 -1.4403  2.8882  3.1696
   94MOL0     H12689   9.690   1.445   4.461 -1.0070 -0.6655 -0.2318
   94MOL0     H12690   9.739   1.585   4.550  0.5736 -0.9916  2.4297
   95MOL0     O12691   3.098  11.011  10.434 -0.8876  0.8056  0.6579
   95MOL0     C12692   3.150  10.908  10.485 -0.7145 -0.3430 -0.3743
   95MOL0     O12693   3.082  10.781  10.487 -0.5838  0.2589  0.3892
   95MOL0     C12694   2.956  10.778  10.432  0.1459  0.2047  0.0196
   95MOL0     C12695   2.851  10.829  10.516 -0.0266  0.7642  0.0108
   95MOL0     C12696   2.720  10.832  10.465 -0.0744 -0.5670 -0.9860
   95MOL0     C12697   2.693  10.783  10.341 -0.0873  0.0091  0.3671
   95MOL0     O12698   2.578  10.778  10.270 -0.2472 -0.1497 -0.5244
   95MOL0     C12699   2.483  10.877  10.312 -0.2984 -1.1203 -0.5518
   95MOL0     C12700   2.365  10.867  10.206 -0.4786 -0.6984  0.1239
   95MOL0     C12701   2.267  10.984  10.218  0.0071  0.1026 -0.8841
   95MOL0     C12702   2.181  11.014  10.094 -0.6499 -0.3468  0.4415
   95MOL0     C12703   2.054  11.090  10.128 -0.6990  1.6318 -0.5783
   95MOL0     C12704   1.991  11.158   9.997  0.5158 -1.0439  0.5417
   95MOL0     C12705   1.839  11.199  10.016 -0.5266  0.7607 -0.8161
   95MOL0     C12706   1.822  11.340  10.078 -0.4773  0.7683  0.3849
   95MOL0     N12707   1.861  11.348  10.214  0.0580  0.0179 -0.5347
   95MOL0     C12708   1.822  11.262  10.310 -0.2787 -0.4486  0.0447
   95MOL0     C12709   1.870  11.318  10.426 -0.0328  0.0980  0.2439
   95MOL0     C12710   1.852  11.261  10.563 -0.1360  0.0732  0.5347
   95MOL0     C12711   1.944  11.140  10.587 -0.6194  0.5245  0.1967
   95MOL0     C12712   2.094  11.187  10.611  0.4975 -0.1185 -0.0601
   95MOL0     C12713   2.187  11.084  10.675  0.3622 -0.2309  0.8026
   95MOL0     O12714   2.222  10.973  10.584  0.2396  0.2780 -0.1493
   95MOL0     C12715   2.300  10.865  10.630 -0.6062 -0.1721  0.9781
   95MOL0     C12716   2.293  10.743  10.561 -0.1399 -0.4058  0.1116
   95MOL0     C12717   2.380  10.633  10.588  0.1503  0.0208  0.6184
   95MOL0     C12718   2.478  10.646  10.690 -1.3144 -0.2559 -0.2890
   95MOL0     C12719   2.559  10.526  10.729 -0.2619 -0.4851  0.1677
   95MOL0     O12720   2.665  10.545  10.811 -0.2879 -0.1052 -0.8698
   95MOL0     C12721   2.776  10.470  10.783 -0.5928 -0.4139 -1.0347
   95MOL0     C12722   2.865  10.506  10.682  1.1185  1.0047 -0.3768
   95MOL0     C12723   2.977  10.441  10.658 -0.7067 -0.1898 -0.6624
   95MOL0     C12724   3.015  10.331  10.742  0.0168  0.3116 -0.3680
   95MOL0     O12725   3.126  10.254  10.721  0.5906  0.5094 -0.6488
   95MOL0     C12726   3.207  10.275  10.613 -0.0413  0.1476  0.3174
   95MOL0     C12727   3.347  10.247  10.641 -1.1178  0.4044 -0.4469
   95MOL0     C12728   3.410  10.326  10.759  0.9117  1.0263  0.7609
   95MOL0     C12729   3.566  10.321  10.762 -0.6229  0.5476 -0.3806
   95MOL0     C12730   3.641  10.439  10.819  0.4793 -0.4217  1.0402
   95MOL0     C12731   3.611  10.448  10.970  0.2801  0.5363  0.7913
   95MOL0     C12732   3.699  10.552  11.045  0.7999  0.2001  0.8647
   95MOL0     C12733   3.631  10.620  11.172 -1.0493  0.5318  0.5226
   95MOL0    Cl12734   3.499  10.723  11.124 -0.5537 -0.3766 -0.3220
   95MOL0     C12735   2.936  10.300  10.850  0.4424 -0.1159  0.0931
   95MOL0     C12736   2.816  10.368  10.872  0.4043  0.0495 -0.1194
   95MOL0     O12737   2.519  10.418  10.699  0.0987 -0.4397  0.1828
   95MOL0     C12738   2.484  10.768  10.752 -0.6043  0.6979 -0.3082
   95MOL0     C12739   2.397  10.873  10.727 -0.0657 -0.7495  0.0344
   95MOL0     N12740   1.937  11.431  10.403 -0.1283 -0.2314 -0.6134
   95MOL0     N12741   1.925  11.447  10.284  0.0526 -0.2792  1.2860
   95MOL0     C12742   2.798  10.731  10.265  0.7564  0.0090 -0.1340
   95MOL0     C12743   2.927  10.728  10.311  0.3320  0.2153 -0.2661
   95MOL0     C12744   3.296  10.917  10.512  0.6549  0.7791  0.2136
   95MOL0     C12745   3.364  11.024  10.450 -0.7394  0.0579 -0.1436
   95MOL0     C12746   3.498  11.054  10.483  0.6074  0.1270 -0.4121
   95MOL0     C12747   3.563  10.981  10.577 -0.2979 -0.4703 -0.2438
   95MOL0     O12748   3.689  11.026  10.594 -0.3193 -0.1735 -0.4127
   95MOL0     C12749   3.788  10.922  10.581 -0.6542  0.4681  0.4730
   95MOL0     C12750   3.889  10.944  10.692  0.4835 -0.9237 -0.8188
   95MOL0     C12751   3.821  10.915  10.822  0.6537  0.9425  0.1346
   95MOL0     C12752   3.922  10.903  10.932  0.5020  0.5214  0.2608
   95MOL0     C12753   3.985  10.768  10.926 -0.1225 -1.0730 -0.0731
   95MOL0     C12754   4.045  10.667  10.909 -0.0515  0.0502  0.5981
   95MOL0     C12755   3.495  10.878  10.642 -1.1668  0.2601  0.0369
   95MOL0     C12756   3.363  10.849  10.618  0.2023  0.7551 -0.1384
   95MOL0     C12757   3.297  10.741  10.710 -0.2436  0.1131 -0.4419
   95MOL0     H12758   2.857  10.874  10.615  0.6634 -2.7657  1.7385
   95MOL0     H12759   2.641  10.867  10.531  2.1221  0.0784  1.5116
   95MOL0     H12760   2.448  10.872  10.415 -1.9729  3.6731 -0.6022
   95MOL0     H12761   2.524  10.979  10.313 -0.0576 -1.1354  3.0362
   95MOL0     H12762   2.309  10.776  10.227 -0.6927 -0.4161  0.8200
   95MOL0     H12763   2.408  10.862  10.105 -1.8927  2.7557 -0.8101
   95MOL0     H12764   2.314  11.073  10.260 -2.5305  0.8946  0.4615
   95MOL0     H12765   2.200  10.963  10.302 -1.3522  1.1997 -1.6556
   95MOL0     H12766   2.237  11.075  10.022  0.1613  1.4051  2.4463
   95MOL0     H12767   2.152  10.920  10.045  0.6388 -0.0891 -0.9156
   95MOL0     H12768   1.981  11.025  10.177  1.6517 -1.1066 -0.4547
   95MOL0     H12769   2.073  11.166  10.205  1.3261  0.2766  0.3509
   95MOL0     H12770   2.045  11.249   9.972 -0.9195 -0.1980  0.4500
   95MOL0     H12771   2.004  11.101   9.905 -0.2754  1.2069 -1.0426
   95MOL0     H12772   1.793  11.126  10.083  2.8300  0.5203  1.4787
   95MOL0     H12773   1.777  11.198   9.926 -0.9827  4.0006 -0.6633
   95MOL0     H12774   1.872  11.419  10.021  0.9812 -0.2956  0.1344
   95MOL0     H12775   1.714  11.358  10.085 -0.8452 -1.1138 -0.0830
   95MOL0     H12776   1.774  11.165  10.302  0.3871 -0.8670  0.8319
   95MOL0     H12777   1.871  11.333  10.643  1.6386 -2.3734  2.5243
   95MOL0     H12778   1.748  11.231  10.579  0.1626 -0.7992  0.9237
   95MOL0     H12779   1.920  11.086  10.679 -0.5832 -1.8097 -1.0813
   95MOL0     H12780   1.954  11.070  10.503  1.1594  0.9632  0.0081
   95MOL0     H12781   2.086  11.280  10.668  0.5302 -0.5769  0.7055
   95MOL0     H12782   2.152  11.205  10.520 -0.2537 -0.6192 -0.6541
   95MOL0     H12783   2.144  11.032  10.761 -0.7683 -0.6429  0.0130
   95MOL0     H12784   2.277  11.130  10.715  1.6890 -2.1616  0.2065
   95MOL0     H12785   2.216  10.732  10.484  1.7386 -2.9502 -1.5570
   95MOL0     H12786   2.379  10.550  10.519  2.7022  1.1133 -0.8649
   95MOL0     H12787   2.831  10.587  10.618 -1.1595 -1.7761 -2.9965
   95MOL0     H12788   3.035  10.482  10.575  2.4946  2.2202  2.4484
   95MOL0     H12789   3.165  10.214  10.533  1.3138 -2.1417  1.2540
   95MOL0     H12790   3.210  10.383  10.593 -0.1915  0.0909 -0.0005
   95MOL0     H12791   3.351  10.142  10.669 -0.2641  0.7353  0.8163
   95MOL0     H12792   3.407  10.272  10.552 -2.5716  3.9147 -0.5945
   95MOL0     H12793   3.383  10.432  10.758  2.6769  1.5806 -2.9116
   95MOL0     H12794   3.360  10.276  10.843  1.1885 -1.0599 -0.2325
   95MOL0     H12795   3.610  10.308  10.662 -0.2897 -0.2378 -0.1472
   95MOL0     H12796   3.585  10.232  10.824 -3.3228  0.5814  0.6081
   95MOL0     H12797   3.606  10.527  10.764 -0.4879 -0.6133  1.3267
   95MOL0     H12798   3.749  10.424  10.804  0.4453  1.1882 -1.3077
   95MOL0     H12799   3.503  10.467  10.981  0.4422  0.7698  2.1619
   95MOL0     H12800   3.624  10.352  11.021 -0.1368  0.4354  0.7178
   95MOL0     H12801   3.741  10.632  10.983  1.5736 -3.2610 -3.5949
   95MOL0     H12802   3.788  10.501  11.083  1.2708  1.4132  1.4646
   95MOL0     H12803   3.604  10.536  11.238 -0.0809 -1.2656 -1.2415
   95MOL0     H12804   3.708  10.684  11.215  1.1259 -1.6811  0.1747
   95MOL0     H12805   2.973  10.226  10.920  0.9036  0.7643  0.7835
   95MOL0     H12806   2.749  10.343  10.954 -1.7088 -1.2045 -2.1315
   95MOL0     H12807   2.562  10.775  10.828 -1.0664 -0.9210  0.3549
   95MOL0     H12808   2.409  10.968  10.779 -1.1724 -0.2454 -0.6069
   95MOL0     H12809   2.781  10.690  10.166  2.7982 -2.8200  0.5478
   95MOL0     H12810   3.014  10.690  10.258 -0.9362 -0.2739 -2.0857
   95MOL0     H12811   3.321  11.087  10.373 -1.1522  0.3785  0.3342
   95MOL0     H12812   3.550  11.134  10.430 -0.7182 -0.0545 -2.0643
   95MOL0     H12813   3.845  10.938  10.489 -0.7833 -2.1124 -0.1346
   95MOL0     H12814   3.747  10.821  10.573 -3.2707  1.5520 -0.9996
   95MOL0     H12815   3.933  11.043  10.679 -3.1822  0.8998 -0.7724
   95MOL0     H12816   3.971  10.873  10.685  0.2916 -1.3793  0.9667
   95MOL0     H12817   3.755  10.828  10.824  2.6330 -0.8092  4.6945
   95MOL0     H12818   3.754  10.999  10.842  3.4400  2.7265  2.8626
   95MOL0     H12819   3.996  10.983  10.937 -1.1225  2.0039  2.0421
   95MOL0     H12820   3.872  10.911  11.029  3.1781 -0.2434  1.7907
   95MOL0     H12821   4.104  10.578  10.910  2.2535  1.4638  3.0961
   95MOL0     H12822   3.544  10.822  10.721  2.8205  2.1547 -0.8332
   95MOL0     H12823   3.244  10.668  10.648  0.8989 -1.0885 -0.0458
   95MOL0     H12824   3.362  10.677  10.770  0.8493 -0.0547 -1.7604
   95MOL0     H12825   3.231  10.792  10.781 -1.4808  0.4506 -1.7786
   96MOL0     O12826  10.853   2.543   0.021  0.2848  0.3857 -0.7667
   96MOL0     C12827  10.765   2.455   0.012 -0.6240 -0.1032 -0.2751
   96MOL0     O12828  10.662   2.458  -0.085 -0.6364 -0.0699  0.0468
   96MOL0     C12829  10.659   2.532  -0.197  0.3610  0.2190  0.9809
   96MOL0     C12830  10.543   2.505  -0.275  0.0732  0.0242  0.4916
   96MOL0     C12831  10.521   2.569  -0.391  0.1340 -0.4395 -0.1058
   96MOL0     C12832  10.603   2.681  -0.432  0.0018  1.4781 -0.4598
   96MOL0     O12833  10.579   2.736  -0.553 -0.4325  0.4351  0.4602
   96MOL0     C12834  10.594   2.881  -0.564  0.3462 -0.1739  0.9544
   96MOL0     C12835  10.659   2.934  -0.702 -0.6674 -1.0321  0.1956
   96MOL0     C12836  10.798   2.885  -0.733  0.5502  0.0248  0.1062
   96MOL0     C12837  10.912   2.941  -0.652 -0.0165  0.0179 -0.1988
   96MOL0     C12838  11.046   2.867  -0.657 -0.6140 -0.3010 -0.6203
   96MOL0     C12839  11.161   2.921  -0.562  0.0646  0.5191  0.3851
   96MOL0     C12840  11.147   2.888  -0.415  0.1639 -0.3861  0.6467
   96MOL0     C12841  11.142   2.740  -0.390  0.0015  1.3989 -1.1493
   96MOL0     N12842  11.167   2.707  -0.253  0.0675 -0.0849 -0.3003
   96MOL0     C12843  11.168   2.793  -0.145  0.2906 -0.2769 -0.5753
   96MOL0     C12844  11.220   2.716  -0.036  0.5125  0.3743 -0.4066
   96MOL0     C12845  11.232   2.769   0.106 -0.5576  0.1769  0.0677
   96MOL0     C12846  11.309   2.674   0.205  0.5342 -0.0720 -0.2829
   96MOL0     C12847  11.461   2.672   0.169 -0.3245  0.4023 -0.6062
   96MOL0     C12848  11.547   2.795   0.208  1.0094  0.2065 -0.0081
   96MOL0     O12849  11.684   2.758   0.203  0.5708  0.0930 -0.6966
   96MOL0     C12850  11.796   2.837   0.219  0.1065  0.2360 -1.1965
   96MOL0     C12851  11.799   2.974   0.189  0.0655  0.4986  1.0278
   96MOL0     C12852  11.919   3.036   0.197 -0.4604 -1.0691 -0.4860
   96MOL0     C12853  12.037   2.977   0.248 -0.2668  0.0435 -0.1119
   96MOL0     C12854  12.165   3.054   0.256  0.4672  0.4021 -0.4054
   96MOL0     O12855  12.269   2.996   0.327  0.0487  0.7616  0.3438
   96MOL0     C12856  12.400   3.049   0.315 -0.0052 -0.0262  0.0640
   96MOL0     C12857  12.506   2.974   0.269 -0.5664 -0.0248 -0.8223
   96MOL0     C12858  12.635   3.035   0.262  0.8838  0.2355 -0.3793
   96MOL0     C12859  12.653   3.161   0.308  0.0575  0.0647 -0.0994
   96MOL0     O12860  12.777   3.220   0.291  0.0921 -0.2245  0.2950
   96MOL0     C12861  12.838   3.239   0.417 -0.0665 -0.2907  0.1259
   96MOL0     C12862  12.941   3.125   0.442  0.7809 -1.1772 -0.5086
   96MOL0     C12863  13.047   3.108   0.330 -0.6405 -0.5636  0.2165
   96MOL0     C12864  13.120   2.972   0.348 -0.0232  1.0888  0.8388
   96MOL0     C12865  13.256   2.978   0.280 -0.4393  0.1328 -0.3738
   96MOL0     C12866  13.340   2.850   0.307  0.1008 -0.4887 -0.1749
   96MOL0     C12867  13.490   2.859   0.260  0.2492  0.4407  0.3953
   96MOL0     C12868  13.595   2.752   0.281  0.4995 -0.3274 -0.5961
   96MOL0    Cl12869  13.611   2.724   0.452 -0.3158  0.0717 -0.0699
   96MOL0     C12870  12.541   3.226   0.358 -0.5839  0.2578 -0.4272
   96MOL0     C12871  12.414   3.177   0.353  1.3984  0.4087 -0.7838
   96MOL0     O12872  12.177   3.156   0.193 -0.0270 -0.9734  1.1360
   96MOL0     C12873  12.027   2.844   0.292 -0.3477  0.3241  0.0613
   96MOL0     C12874  11.909   2.772   0.264 -0.1078 -0.5026 -0.7819
   96MOL0     N12875  11.257   2.594  -0.087  0.3026 -0.0272 -0.7250
   96MOL0     N12876  11.236   2.598  -0.218 -0.1388  0.1587  0.5982
   96MOL0     C12877  10.706   2.723  -0.342 -0.4927 -0.4887 -0.4548
   96MOL0     C12878  10.730   2.649  -0.225 -0.1721 -0.5236 -0.0777
   96MOL0     C12879  10.779   2.342   0.108 -0.4901 -1.4937  0.3378
   96MOL0     C12880  10.805   2.363   0.244  0.5903  0.2998  0.5652
   96MOL0     C12881  10.795   2.261   0.335  1.0472  0.3304 -0.5608
   96MOL0     C12882  10.785   2.126   0.286 -0.2050  0.9994  0.2719
   96MOL0     O12883  10.780   2.010   0.356  0.0670 -0.2275  1.0634
   96MOL0     C12884  10.809   2.004   0.495  0.3560 -0.1212  0.7182
   96MOL0     C12885  10.704   1.925   0.579  0.7548  0.1482 -0.5340
   96MOL0     C12886  10.559   1.992   0.566 -0.6473  0.2351  0.8630
   96MOL0     C12887  10.455   1.949   0.675 -0.0639 -0.6618  0.0634
   96MOL0     C12888  10.435   1.808   0.691  0.0994 -0.8583 -0.5015
   96MOL0     C12889  10.411   1.687   0.700  0.5825  0.1111 -0.1429
   96MOL0     C12890  10.770   2.106   0.148 -0.5142  0.7466  0.2562
   96MOL0     C12891  10.754   2.213   0.057 -0.0899  0.3938  0.2885
   96MOL0     C12892  10.739   2.182  -0.091  0.4759  1.0721  0.8597
   96MOL0     H12893  10.464   2.434  -0.252  0.5656 -0.4423  0.7517
   96MOL0     H12894  10.440   2.547  -0.459 -0.7490 -0.3432  0.8996
   96MOL0     H12895  10.500   2.935  -0.549 -1.2551 -3.3168  3.3463
   96MOL0     H12896  10.664   2.919  -0.490  0.9897 -1.0452  0.8028
   96MOL0     H12897  10.651   3.043  -0.706  2.0682 -0.6002  2.5741
   96MOL0     H12898  10.605   2.901  -0.791 -0.5484  1.2274 -0.7693
   96MOL0     H12899  10.824   2.922  -0.833  0.1583 -0.8207 -0.3173
   96MOL0     H12900  10.804   2.776  -0.733 -1.4491 -0.1239  0.0702
   96MOL0     H12901  10.916   3.049  -0.671 -1.4336 -0.3115 -2.6663
   96MOL0     H12902  10.881   2.930  -0.548  3.9799 -0.2147  1.1490
   96MOL0     H12903  11.019   2.762  -0.641 -3.2509  0.1125 -1.7184
   96MOL0     H12904  11.078   2.880  -0.761  0.9129 -2.2055 -0.4305
   96MOL0     H12905  11.260   2.893  -0.599 -0.2723 -1.8997  1.1371
   96MOL0     H12906  11.156   3.030  -0.562 -4.0154  0.5534  2.9219
   96MOL0     H12907  11.063   2.941  -0.370  1.0841  0.2060  1.7208
   96MOL0     H12908  11.237   2.932  -0.371 -0.0797  1.8068 -0.9446
   96MOL0     H12909  11.040   2.710  -0.414 -1.2576  4.0887  0.2945
   96MOL0     H12910  11.214   2.684  -0.450  0.3307  1.1090 -0.5021
   96MOL0     H12911  11.141   2.898  -0.140  0.0521 -0.4102  3.0891
   96MOL0     H12912  11.289   2.861   0.100  1.1112 -0.8889 -1.6700
   96MOL0     H12913  11.130   2.795   0.136 -0.2436  0.3764  0.9787
   96MOL0     H12914  11.289   2.700   0.309 -1.3944 -1.3444 -0.2841
   96MOL0     H12915  11.268   2.573   0.198 -1.9732  0.9878 -3.0419
   96MOL0     H12916  11.488   2.654   0.065 -0.4938  1.8686 -0.9235
   96MOL0     H12917  11.496   2.584   0.224 -2.7119  1.0179  2.1198
   96MOL0     H12918  11.514   2.845   0.300  0.1998 -0.9895  0.3723
   96MOL0     H12919  11.530   2.874   0.134 -3.7382 -2.0079 -1.6715
   96MOL0     H12920  11.719   3.016   0.129  0.4447 -1.8261 -1.2806
   96MOL0     H12921  11.924   3.139   0.164  0.6556 -1.3707 -1.3025
   96MOL0     H12922  12.485   2.874   0.231  0.6037  0.8582 -4.1575
   96MOL0     H12923  12.722   2.989   0.217  0.6766  0.0871 -0.6355
   96MOL0     H12924  12.892   3.333   0.410 -1.2348  0.3534 -0.5519
   96MOL0     H12925  12.762   3.249   0.495 -2.3016 -0.1402 -1.9265
   96MOL0     H12926  12.986   3.139   0.541 -3.1705  3.0020  1.0394
   96MOL0     H12927  12.883   3.032   0.438 -0.6452 -0.4388  1.4909
   96MOL0     H12928  13.001   3.104   0.231  3.4575 -2.6334 -1.8906
   96MOL0     H12929  13.115   3.194   0.341 -1.7368  0.5070 -1.0186
   96MOL0     H12930  13.065   2.889   0.302 -0.5750 -0.1277  3.4744
   96MOL0     H12931  13.139   2.954   0.454  3.3160  1.3987  0.3849
   96MOL0     H12932  13.309   3.061   0.328  1.4946 -2.7162  2.9130
   96MOL0     H12933  13.247   2.983   0.172  2.6146 -1.0955 -0.7639
   96MOL0     H12934  13.345   2.824   0.413  2.0801  0.7121  0.0747
   96MOL0     H12935  13.291   2.768   0.254 -1.1271 -0.1263  0.3615
   96MOL0     H12936  13.533   2.945   0.312 -0.9927  1.5650 -0.3781
   96MOL0     H12937  13.483   2.887   0.155 -2.7337  4.1071  1.3541
   96MOL0     H12938  13.560   2.657   0.241 -2.6736  1.4563 -2.4464
   96MOL0     H12939  13.682   2.785   0.224 -1.6953  1.8743 -2.9423
   96MOL0     H12940  12.538   3.329   0.391  2.8582 -0.7180  3.7926
   96MOL0     H12941  12.329   3.226   0.398 -0.1552 -3.5271  1.0234
   96MOL0     H12942  12.115   2.786   0.319 -1.1002 -0.6211  0.5835
   96MOL0     H12943  11.908   2.665   0.283  0.0433 -0.3208  0.3213
   96MOL0     H12944  10.773   2.807  -0.355  0.5470 -1.0753  0.8912
   96MOL0     H12945  10.814   2.683  -0.165  0.5148 -0.3052 -1.1434
   96MOL0     H12946  10.815   2.460   0.290 -0.9485 -0.0576  1.7474
   96MOL0     H12947  10.791   2.277   0.442  0.6032  1.0618 -0.6823
   96MOL0     H12948  10.817   2.101   0.546 -0.5800 -0.6609  1.9423
   96MOL0     H12949  10.900   1.945   0.510 -0.4712 -1.1200  2.0126
   96MOL0     H12950  10.740   1.944   0.681  1.6141  0.7381 -0.9358
   96MOL0     H12951  10.705   1.818   0.560 -0.0136 -0.0153  0.2708
   96MOL0     H12952  10.516   1.980   0.466 -1.8125  0.2319  1.3498
   96MOL0     H12953  10.573   2.100   0.565 -1.5542  0.3864 -1.4489
   96MOL0     H12954  10.477   1.976   0.778  2.4361 -1.5461 -0.1651
   96MOL0     H12955  10.359   1.994   0.647  0.0318 -0.8033 -0.5143
   96MOL0     H12956  10.388   1.583   0.707  0.2156  0.1480 -0.7711
   96MOL0     H12957  10.754   2.007   0.107 -1.8422  1.5243 -1.2305
   96MOL0     H12958  10.812   2.246  -0.143  1.1053 -1.6284 -1.9144
   96MOL0     H12959  10.751   2.075  -0.109  0.2724  0.9950  1.1876
   96MOL0     H12960  10.642   2.209  -0.135  0.8620  0.9063 -0.1231
   97MOL0     O12961   0.217   6.093   7.928  0.0404 -0.0724  0.2214
   97MOL0     C12962   0.267   6.004   7.865  0.5504 -0.1120  0.4250
   97MOL0     O12963   0.196   5.893   7.824  0.4769  0.0865 -0.1056
   97MOL0     C12964   0.076   5.857   7.876  1.1490 -1.4642  0.4300
   97MOL0     C12965  -0.029   5.954   7.882  0.1324  0.0950  0.1486
   97MOL0     C12966  -0.149   5.918   7.940  0.0147  0.3729  0.0233
   97MOL0     C12967  -0.176   5.793   7.992  0.4838  0.2325  0.1107
   97MOL0     O12968  -0.291   5.757   8.065 -0.7724  0.3031 -0.0406
   97MOL0     C12969  -0.414   5.812   8.032 -0.1577  0.0745  0.5252
   97MOL0     C12970  -0.508   5.691   8.013  0.0394  0.5838 -0.3145
   97MOL0     C12971  -0.655   5.729   8.033  0.4766  0.5841 -0.4425
   97MOL0     C12972  -0.733   5.750   7.896  0.8475  0.0447 -0.2709
   97MOL0     C12973  -0.880   5.739   7.916 -0.0340 -0.1633  0.2213
   97MOL0     C12974  -0.948   5.771   7.770 -0.1043  0.0408 -0.5744
   97MOL0     C12975  -1.094   5.736   7.769  0.5154 -0.3332 -0.0499
   97MOL0     C12976  -1.171   5.801   7.650  0.9733  0.5799 -0.1208
   97MOL0     N12977  -1.306   5.757   7.636  0.1581  0.2728  0.0615
   97MOL0     C12978  -1.346   5.654   7.554  0.4621 -0.2081 -0.1766
   97MOL0     C12979  -1.474   5.631   7.592  0.3080  1.1861 -0.6829
   97MOL0     C12980  -1.556   5.514   7.529  0.0384 -0.5046 -0.3333
   97MOL0     C12981  -1.570   5.396   7.621  0.0687 -0.4169 -0.9251
   97MOL0     C12982  -1.671   5.291   7.567 -0.4255 -0.5800 -0.1582
   97MOL0     C12983  -1.637   5.196   7.455 -0.1297  0.1006 -0.7522
   97MOL0     O12984  -1.690   5.064   7.478  0.6335 -0.2163 -0.0901
   97MOL0     C12985  -1.796   5.026   7.395 -0.8146  0.8725  1.2068
   97MOL0     C12986  -1.811   5.040   7.254 -0.3279  0.0536 -0.4049
   97MOL0     C12987  -1.924   4.995   7.186 -0.6711 -1.0427 -0.1058
   97MOL0     C12988  -2.021   4.917   7.249  0.0102  1.2383 -0.0856
   97MOL0     C12989  -2.148   4.872   7.170 -0.4870 -0.3069 -0.5328
   97MOL0     O12990  -2.233   4.792   7.240  0.0796 -0.4227  0.2769
   97MOL0     C12991  -2.357   4.772   7.180 -1.0729 -0.1493 -0.3507
   97MOL0     C12992  -2.375   4.674   7.079 -0.3598  0.0025 -0.4707
   97MOL0     C12993  -2.506   4.644   7.031 -0.1378  0.4687 -0.2199
   97MOL0     C12994  -2.616   4.703   7.102 -0.4890  0.1211  0.7478
   97MOL0     O12995  -2.737   4.662   7.057  0.2733  0.6424 -0.3833
   97MOL0     C12996  -2.847   4.750   7.076 -0.8650 -0.1482 -0.6642
   97MOL0     C12997  -2.973   4.705   7.016 -0.0093 -0.1591  0.1948
   97MOL0     C12998  -3.069   4.820   7.010  0.4149 -0.3943  0.1895
   97MOL0     C12999  -3.204   4.760   6.954  0.0111 -1.3602  0.8643
   97MOL0     C13000  -3.300   4.881   6.934  0.2847 -0.6352  0.1906
   97MOL0     C13001  -3.434   4.856   6.874  0.3466  0.6096  0.9169
   97MOL0     C13002  -3.538   4.955   6.936  0.6187 -0.1181 -0.4380
   97MOL0     C13003  -3.682   4.939   6.901 -0.5875 -0.1786 -0.1490
   97MOL0    Cl13004  -3.792   5.065   6.976  0.5017  0.8088  0.6027
   97MOL0     C13005  -2.592   4.786   7.213  0.3670  0.1818  0.6573
   97MOL0     C13006  -2.462   4.825   7.241  0.2644  0.3874  0.7845
   97MOL0     O13007  -2.163   4.909   7.058 -0.0750  0.6421 -0.3555
   97MOL0     C13008  -1.995   4.889   7.385  0.4772  0.1025 -0.5280
   97MOL0     C13009  -1.894   4.954   7.453 -1.1690  0.4994 -0.8307
   97MOL0     N13010  -1.515   5.728   7.684 -0.0017  0.3369  1.5060
   97MOL0     N13011  -1.410   5.802   7.707  0.2385  0.1699 -0.9760
   97MOL0     C13012  -0.081   5.691   7.984  0.5196 -0.6379  0.6823
   97MOL0     C13013   0.047   5.721   7.926 -0.7798  0.3944  1.0212
   97MOL0     C13014   0.400   6.035   7.805 -0.3411 -0.2920 -0.0480
   97MOL0     C13015   0.433   5.985   7.678  0.4966 -0.2164  0.5198
   97MOL0     C13016   0.549   6.015   7.612 -0.0622 -0.3618  0.9741
   97MOL0     C13017   0.653   6.079   7.683  1.0226 -0.8409 -0.3547
   97MOL0     O13018   0.757   6.099   7.606 -0.3738  0.1131  1.1312
   97MOL0     C13019   0.846   6.209   7.637  0.2071  0.2189 -1.3418
   97MOL0     C13020   0.796   6.344   7.593 -0.3523  0.8268 -0.4326
   97MOL0     C13021   0.740   6.356   7.456  0.1435 -0.6377 -0.4492
   97MOL0     C13022   0.732   6.495   7.391  0.3439  0.2548  0.1432
   97MOL0     C13023   0.629   6.507   7.281 -0.3612 -0.0536 -0.2370
   97MOL0     C13024   0.557   6.517   7.187  1.0918 -0.5088  0.0666
   97MOL0     C13025   0.630   6.122   7.817  0.6221  0.9595 -0.3033
   97MOL0     C13026   0.505   6.100   7.881  0.6549  0.1901 -0.9964
   97MOL0     C13027   0.483   6.146   8.022 -0.2913 -1.3198  0.2596
   97MOL0     H13028  -0.023   6.058   7.852 -1.4656  0.9800  2.5306
   97MOL0     H13029  -0.222   5.998   7.945 -0.7041 -0.1200 -1.6889
   97MOL0     H13030  -0.442   5.871   8.120  0.4625  0.6693  0.3266
   97MOL0     H13031  -0.402   5.872   7.942  0.7643  2.1314  1.9540
   97MOL0     H13032  -0.489   5.627   8.099 -0.5203  1.9687  0.8862
   97MOL0     H13033  -0.482   5.632   7.925  1.1479 -1.6914  1.4538
   97MOL0     H13034  -0.668   5.816   8.099  0.3293 -2.1722  3.5128
   97MOL0     H13035  -0.697   5.645   8.089  1.4295  0.2037 -0.2870
   97MOL0     H13036  -0.701   5.846   7.852 -2.1218  0.6883 -1.2820
   97MOL0     H13037  -0.700   5.670   7.829 -0.7401 -0.1810 -0.8152
   97MOL0     H13038  -0.905   5.634   7.939  0.3822 -0.7932 -2.0199
   97MOL0     H13039  -0.911   5.812   7.992  2.9175  3.6377 -1.9227
   97MOL0     H13040  -0.935   5.876   7.743  1.3996 -0.1642 -0.6890
   97MOL0     H13041  -0.902   5.718   7.686 -2.5481  0.1085 -2.0732
   97MOL0     H13042  -1.136   5.777   7.861  1.7259  2.3665 -0.5942
   97MOL0     H13043  -1.107   5.627   7.767 -0.0490 -0.3084  1.3081
   97MOL0     H13044  -1.168   5.908   7.673  2.4562  0.2486  1.4126
   97MOL0     H13045  -1.132   5.774   7.552  0.0732 -1.2743 -0.0083
   97MOL0     H13046  -1.289   5.600   7.478  3.7199 -0.8057  2.4503
   97MOL0     H13047  -1.654   5.556   7.506  1.2385  3.0158  0.3249
   97MOL0     H13048  -1.511   5.482   7.435  2.3038  0.7851  0.2161
   97MOL0     H13049  -1.471   5.352   7.636  1.5219  3.1377  1.0952
   97MOL0     H13050  -1.596   5.442   7.716  0.8292  1.1162 -1.4225
   97MOL0     H13051  -1.767   5.328   7.527 -0.4345 -2.2898 -1.8669
   97MOL0     H13052  -1.703   5.236   7.655 -0.2167  0.6072  0.6883
   97MOL0     H13053  -1.529   5.183   7.456  0.0023  1.0678 -1.5938
   97MOL0     H13054  -1.678   5.245   7.367  2.2665 -0.3247 -2.1885
   97MOL0     H13055  -1.730   5.091   7.202 -0.6641  1.8130  0.7185
   97MOL0     H13056  -1.926   5.018   7.080 -0.5271  0.7286  0.2500
   97MOL0     H13057  -2.292   4.624   7.031  1.9510  1.2518  1.9619
   97MOL0     H13058  -2.543   4.574   6.957 -2.0036 -0.1804  1.2609
   97MOL0     H13059  -2.861   4.772   7.182 -0.0232 -2.6847  0.0290
   97MOL0     H13060  -2.814   4.843   7.027  0.3527  0.1864  0.6999
   97MOL0     H13061  -2.939   4.670   6.919  2.4096 -1.7158  1.5161
   97MOL0     H13062  -3.013   4.620   7.072  0.2096 -0.2869  0.1561
   97MOL0     H13063  -3.083   4.866   7.108  0.7092  0.0080  0.0433
   97MOL0     H13064  -3.028   4.889   6.936  0.8706 -1.6477 -0.7651
   97MOL0     H13065  -3.248   4.693   7.029 -0.2600 -0.2677  1.7202
   97MOL0     H13066  -3.192   4.720   6.853 -0.7619  2.5978 -1.0235
   97MOL0     H13067  -3.260   4.966   6.878  1.3153 -1.2883 -0.0932
   97MOL0     H13068  -3.305   4.920   7.036  3.3515  1.1765 -0.2250
   97MOL0     H13069  -3.428   4.874   6.767 -0.2945 -4.0908 -0.1356
   97MOL0     H13070  -3.470   4.755   6.894  0.4035  0.8927  2.5765
   97MOL0     H13071  -3.508   5.051   6.894 -0.0236  0.6255  0.7227
   97MOL0     H13072  -3.534   4.953   7.045  1.9728  0.1271 -0.4741
   97MOL0     H13073  -3.705   4.923   6.796  0.0798  2.9527 -0.8645
   97MOL0     H13074  -3.706   4.843   6.949 -3.4992 -0.0645 -1.1916
   97MOL0     H13075  -2.664   4.830   7.280 -0.2203 -0.4069  0.4302
   97MOL0     H13076  -2.451   4.900   7.319 -0.5437  0.6838  0.6266
   97MOL0     H13077  -2.065   4.826   7.439  1.3847 -1.6094 -1.2451
   97MOL0     H13078  -1.877   4.935   7.559 -2.1990  0.1303 -0.7216
   97MOL0     H13079  -0.107   5.592   8.022 -0.7797  0.1869  2.0582
   97MOL0     H13080   0.125   5.646   7.921 -1.6107 -0.4681  0.6985
   97MOL0     H13081   0.364   5.919   7.626 -1.6642  0.0006  2.9277
   97MOL0     H13082   0.575   5.979   7.513  1.6483  1.5001  0.6818
   97MOL0     H13083   0.941   6.188   7.585  1.5641  1.2060  0.6181
   97MOL0     H13084   0.867   6.214   7.744  0.7208  0.1937 -1.4345
   97MOL0     H13085   0.885   6.408   7.600 -0.5292  1.0339 -0.0751
   97MOL0     H13086   0.721   6.375   7.665  0.9492 -1.9278  2.3585
   97MOL0     H13087   0.640   6.320   7.483 -1.9702  3.3505 -2.1739
   97MOL0     H13088   0.782   6.287   7.382 -0.3777 -1.0379 -0.3799
   97MOL0     H13089   0.715   6.558   7.479  0.6488 -0.6860  0.8840
   97MOL0     H13090   0.826   6.528   7.346 -0.4097  1.6646 -0.4968
   97MOL0     H13091   0.484   6.513   7.108 -1.2554 -1.9618  2.1613
   97MOL0     H13092   0.701   6.182   7.873  2.0644 -2.5134  1.9405
   97MOL0     H13093   0.579   6.140   8.076  0.3913  1.8007 -0.4035
   97MOL0     H13094   0.442   6.247   8.025 -0.1043 -1.2460  0.3476
   97MOL0     H13095   0.408   6.091   8.079 -0.5705  1.5490  2.9512
   98MOL0     O13096   3.143   1.778   1.555  0.5829  0.0961 -0.6677
   98MOL0     C13097   3.044   1.753   1.483 -0.6285  0.7405 -0.1343
   98MOL0     O13098   2.916   1.786   1.514  0.1022 -0.5299 -0.2684
   98MOL0     C13099   2.890   1.829   1.643 -0.5716  0.6817  0.2820
   98MOL0     C13100   2.793   1.765   1.723  0.6081  0.3198  0.6865
   98MOL0     C13101   2.776   1.814   1.857 -0.2133  0.5870  0.6841
   98MOL0     C13102   2.824   1.940   1.895  0.1566 -0.1035  0.3431
   98MOL0     O13103   2.801   1.997   2.016  0.0175 -0.0446 -1.0784
   98MOL0     C13104   2.803   1.912   2.131  0.6285  0.0500 -0.3949
   98MOL0     C13105   2.948   1.899   2.179 -0.2850  0.6826  0.1431
   98MOL0     C13106   3.026   2.024   2.205  0.2398  0.5538  0.7561
   98MOL0     C13107   3.176   1.992   2.240 -0.1144 -0.7186 -0.5162
   98MOL0     C13108   3.247   2.118   2.311  0.0722 -0.2288  0.7812
   98MOL0     C13109   3.274   2.242   2.222  0.7514 -0.0210  0.9396
   98MOL0     C13110   3.376   2.343   2.285 -0.4528  0.3609  0.2914
   98MOL0     C13111   3.387   2.470   2.204  0.3806 -0.7872  0.3646
   98MOL0     N13112   3.475   2.565   2.263  0.4057  0.3131 -0.2196
   98MOL0     C13113   3.434   2.690   2.316 -0.3080 -0.5180  1.0576
   98MOL0     C13114   3.560   2.759   2.332  0.2217 -0.3097 -0.3759
   98MOL0     C13115   3.572   2.904   2.353 -0.5050  0.3021  0.3542
   98MOL0     C13116   3.710   2.960   2.396  0.6777  0.2263  0.1133
   98MOL0     C13117   3.829   2.926   2.300  0.3122 -0.1240  0.2835
   98MOL0     C13118   3.919   3.044   2.274 -0.3331 -0.3287  0.3865
   98MOL0     O13119   3.967   3.105   2.394  0.7784 -0.3845 -0.0475
   98MOL0     C13120   4.046   3.218   2.366  0.7622  0.2487  0.2715
   98MOL0     C13121   4.142   3.251   2.466  0.8649  0.2220  0.0006
   98MOL0     C13122   4.232   3.354   2.453  0.0150 -0.1561 -0.0540
   98MOL0     C13123   4.222   3.446   2.349  0.1712  0.2799 -0.4949
   98MOL0     C13124   4.310   3.565   2.318 -0.6564 -0.1172 -0.0379
   98MOL0     O13125   4.347   3.578   2.191 -0.0216  0.4450  0.5905
   98MOL0     C13126   4.448   3.667   2.155 -0.0181  0.1050 -0.2211
   98MOL0     C13127   4.552   3.702   2.242 -0.4239  0.6577 -0.0820
   98MOL0     C13128   4.670   3.756   2.189  0.3657 -1.1278  0.5628
   98MOL0     C13129   4.694   3.772   2.056 -0.1432  1.0813  0.9186
   98MOL0     O13130   4.816   3.835   2.011  0.2937  0.0654  0.5777
   98MOL0     C13131   4.792   3.940   1.922 -0.3809  0.2426 -0.0330
   98MOL0     C13132   4.926   4.000   1.875 -0.2036 -0.3053 -0.0361
   98MOL0     C13133   5.037   4.014   1.984 -0.5683  0.2029  0.7405
   98MOL0     C13134   5.119   4.139   1.942  0.1327  0.4575 -0.9058
   98MOL0     C13135   5.206   4.123   1.821 -1.0994  0.2910 -0.1820
   98MOL0     C13136   5.325   4.220   1.831 -0.0821 -0.7933  0.5377
   98MOL0     C13137   5.417   4.201   1.716 -0.5649  0.6000  0.7641
   98MOL0     C13138   5.560   4.246   1.736 -0.6104 -0.2628  0.0816
   98MOL0    Cl13139   5.574   4.430   1.738 -0.0597 -0.2115 -0.5137
   98MOL0     C13140   4.598   3.728   1.969  1.4355  0.8100  0.7966
   98MOL0     C13141   4.473   3.672   2.018 -1.1971  0.0568 -0.5516
   98MOL0     O13142   4.324   3.646   2.411  0.3405  0.5139 -0.4680
   98MOL0     C13143   4.126   3.416   2.249  0.1029  0.3167  0.1870
   98MOL0     C13144   4.041   3.309   2.261 -0.3743  0.1736  0.1005
   98MOL0     N13145   3.656   2.669   2.304 -1.0347  0.7019 -0.0590
   98MOL0     N13146   3.609   2.560   2.266 -0.1105 -0.5215 -0.1384
   98MOL0     C13147   2.918   2.004   1.804  0.0455 -0.4581 -0.5270
   98MOL0     C13148   2.952   1.950   1.681 -0.0639  0.3395  0.3898
   98MOL0     C13149   3.059   1.677   1.364  0.0231  0.4366 -0.1493
   98MOL0     C13150   2.938   1.630   1.305 -0.2448  0.0036  0.0273
   98MOL0     C13151   2.950   1.563   1.189 -0.6155  0.4573  1.5537
   98MOL0     C13152   3.074   1.529   1.126 -0.2099 -1.2210 -0.3296
   98MOL0     O13153   3.079   1.455   1.009 -0.7476 -0.2203  0.7859
   98MOL0     C13154   3.199   1.414   0.934 -0.7212 -1.1695  0.5652
   98MOL0     C13155   3.157   1.300   0.839  0.3906  1.0639 -0.5847
   98MOL0     C13156   3.040   1.325   0.750 -0.0470  0.7926 -0.9828
   98MOL0     C13157   3.002   1.198   0.667 -1.2014  0.1450 -0.4538
   98MOL0     C13158   3.122   1.158   0.587 -0.1201 -0.0771 -0.6790
   98MOL0     C13159   3.231   1.114   0.541 -0.0569 -0.6608 -0.0412
   98MOL0     C13160   3.185   1.589   1.188  0.2890 -0.3278 -0.9215
   98MOL0     C13161   3.185   1.659   1.301  0.3391 -0.4669 -0.7695
   98MOL0     C13162   3.323   1.713   1.351  0.0761 -0.0542  0.2829
   98MOL0     H13163   2.741   1.683   1.676  1.9080  0.1864 -0.6011
   98MOL0     H13164   2.707   1.765   1.925 -0.2644  1.8307  1.5551
   98MOL0     H13165   2.737   1.963   2.202 -2.4601 -1.4976 -1.9303
   98MOL0     H13166   2.754   1.813   2.128 -0.1855  0.4060  0.4965
   98MOL0     H13167   2.998   1.849   2.095 -2.0799  0.9924 -1.1763
   98MOL0     H13168   2.958   1.834   2.266 -2.5458  1.1568  0.8195
   98MOL0     H13169   2.980   2.079   2.287  0.4192 -0.4627  1.5686
   98MOL0     H13170   3.027   2.082   2.113 -0.7014 -1.3447 -0.5161
   98MOL0     H13171   3.190   1.901   2.299 -0.3143 -1.5126 -1.6617
   98MOL0     H13172   3.237   1.968   2.153  3.4903 -2.2352  2.2221
   98MOL0     H13173   3.186   2.148   2.397  0.3612  1.2538  0.4929
   98MOL0     H13174   3.342   2.081   2.350 -0.9320 -1.9782  1.6962
   98MOL0     H13175   3.307   2.210   2.123 -1.3704 -0.6960  0.3983
   98MOL0     H13176   3.186   2.301   2.199 -0.2020 -1.3382  1.0715
   98MOL0     H13177   3.475   2.302   2.307 -0.8689 -1.2696 -0.7755
   98MOL0     H13178   3.338   2.373   2.384 -0.7644  0.9989 -0.0125
   98MOL0     H13179   3.406   2.453   2.097 -1.2497 -0.9242  0.0603
   98MOL0     H13180   3.283   2.504   2.199 -0.4115 -3.0354  0.0173
   98MOL0     H13181   3.334   2.728   2.329 -0.0465 -0.2728  2.4389
   98MOL0     H13182   3.524   2.956   2.270  0.5961 -0.4060 -0.7559
   98MOL0     H13183   3.513   2.914   2.445 -1.0736  0.3901 -0.0221
   98MOL0     H13184   3.712   3.069   2.404  0.5009  0.1813  0.7780
   98MOL0     H13185   3.738   2.899   2.482 -1.1713 -1.3069 -0.3201
   98MOL0     H13186   3.793   2.902   2.200 -1.7865  2.8847  0.1667
   98MOL0     H13187   3.890   2.847   2.346 -3.1704 -1.9208  2.2001
   98MOL0     H13188   3.857   3.113   2.216  1.9723  1.2442 -0.3674
   98MOL0     H13189   4.002   3.021   2.206 -1.1451 -2.4381  0.0211
   98MOL0     H13190   4.140   3.200   2.562 -2.0146  2.2110  1.1463
   98MOL0     H13191   4.311   3.378   2.522  1.9834 -2.8139 -1.2272
   98MOL0     H13192   4.553   3.676   2.347 -0.9594  0.8025 -0.0336
   98MOL0     H13193   4.750   3.783   2.258 -0.4330  1.1749  0.6538
   98MOL0     H13194   4.732   3.909   1.836 -0.6898 -1.8440  0.8745
   98MOL0     H13195   4.733   4.020   1.968 -4.1293 -1.5932 -1.1786
   98MOL0     H13196   4.955   3.930   1.795 -4.4589 -1.1776 -1.0536
   98MOL0     H13197   4.893   4.096   1.835 -0.8137 -0.6191 -0.2933
   98MOL0     H13198   4.985   4.032   2.078 -1.0193 -1.3096  0.7998
   98MOL0     H13199   5.094   3.921   1.994 -0.8476  0.0029  0.4868
   98MOL0     H13200   5.185   4.162   2.026 -1.5802 -1.9480  1.2734
   98MOL0     H13201   5.051   4.224   1.932  0.8792  1.2234  0.2235
   98MOL0     H13202   5.154   4.141   1.726 -0.7623 -3.4097 -1.2459
   98MOL0     H13203   5.252   4.025   1.806  1.8984  1.4447  0.7724
   98MOL0     H13204   5.295   4.323   1.855 -1.6590 -1.8772  3.7656
   98MOL0     H13205   5.378   4.195   1.923 -0.2245 -1.6174  0.4038
   98MOL0     H13206   5.378   4.246   1.625 -0.0838 -0.7458 -0.1425
   98MOL0     H13207   5.434   4.096   1.688 -0.5253  0.8193 -0.0456
   98MOL0     H13208   5.594   4.201   1.829  0.2589 -4.3384 -1.9660
   98MOL0     H13209   5.627   4.198   1.663  1.2091  0.2217  1.3537
   98MOL0     H13210   4.625   3.731   1.864 -0.8346  3.1763  0.1822
   98MOL0     H13211   4.402   3.623   1.952 -1.3364 -0.1883 -0.2207
   98MOL0     H13212   4.124   3.487   2.167 -0.3397 -0.8748 -0.8742
   98MOL0     H13213   3.969   3.294   2.181 -0.6116 -1.5469  0.6015
   98MOL0     H13214   2.972   2.094   1.833  0.7666 -0.4643 -1.7805
   98MOL0     H13215   3.018   2.001   1.611 -0.9384  0.0023 -0.7136
   98MOL0     H13216   2.835   1.647   1.336 -0.6612 -0.6091 -0.9828
   98MOL0     H13217   2.856   1.534   1.145  0.6579  1.2914 -2.0427
   98MOL0     H13218   3.280   1.374   0.996 -1.5497 -1.0798  1.7581
   98MOL0     H13219   3.239   1.502   0.885  0.0674 -2.0645 -0.4390
   98MOL0     H13220   3.130   1.212   0.899 -1.2567  4.0145  3.3978
   98MOL0     H13221   3.250   1.284   0.782 -0.8418 -0.7566 -2.2282
   98MOL0     H13222   3.067   1.409   0.686  1.8260  0.6959 -0.3588
   98MOL0     H13223   2.955   1.353   0.812  0.3684  1.6358 -0.7798
   98MOL0     H13224   2.984   1.110   0.729  0.8772  0.0275  0.0586
   98MOL0     H13225   2.908   1.212   0.614 -2.3380  0.8300  1.6083
   98MOL0     H13226   3.323   1.080   0.499 -0.6291 -0.3699 -1.6031
   98MOL0     H13227   3.277   1.563   1.136  1.4803 -1.7822  1.7184
   98MOL0     H13228   3.370   1.649   1.426  1.0545 -1.5135 -1.4967
   98MOL0     H13229   3.388   1.702   1.263  1.6587  1.9139  1.1271
   98MOL0     H13230   3.328   1.816   1.388 -1.2281 -0.3213  1.2862
   99MOL0     O13231  10.670   2.035   8.291  0.0730 -0.1015  0.1131
   99MOL0     C13232  10.646   2.016   8.172 -0.2345 -0.6177 -1.1385
   99MOL0     O13233  10.743   1.995   8.072  0.4179 -0.5929 -0.7380
   99MOL0     C13234  10.863   2.024   8.122  0.4678  0.2019 -0.0532
   99MOL0     C13235  10.925   2.136   8.072 -0.2673  0.8868  0.4283
   99MOL0     C13236  11.040   2.180   8.138 -1.0689  0.0504 -0.3858
   99MOL0     C13237  11.099   2.102   8.238  0.0186  0.7535 -0.2754
   99MOL0     O13238  11.217   2.133   8.287 -0.2568 -0.4723 -0.8660
   99MOL0     C13239  11.273   2.050   8.393  0.5750 -0.2587 -0.1138
   99MOL0     C13240  11.411   2.127   8.442  0.1828 -0.2656  0.6673
   99MOL0     C13241  11.367   2.237   8.536  0.6988  0.4651  1.0528
   99MOL0     C13242  11.483   2.254   8.628  0.6799 -0.0384  0.9460
   99MOL0     C13243  11.497   2.412   8.664  0.1583  0.9709 -0.5782
   99MOL0     C13244  11.640   2.449   8.702  0.6121 -0.1641  0.8341
   99MOL0     C13245  11.692   2.383   8.827 -0.4266 -1.0752 -0.3889
   99MOL0     C13246  11.817   2.457   8.888  0.0092  0.7993 -0.0296
   99MOL0     N13247  11.785   2.597   8.930  0.4533  0.3495 -0.9064
   99MOL0     C13248  11.869   2.699   8.937 -0.4386 -0.5440  0.5357
   99MOL0     C13249  11.800   2.813   8.968  0.0685 -0.0936 -0.2649
   99MOL0     C13250  11.864   2.948   8.970 -0.0076 -0.6391 -0.3614
   99MOL0     C13251  12.009   2.949   9.037 -0.0261  0.6897  0.0403
   99MOL0     C13252  11.994   2.915   9.185  0.0574  0.1303  0.2142
   99MOL0     C13253  12.133   2.914   9.246  0.3012  0.3021  0.0411
   99MOL0     O13254  12.231   2.834   9.176  0.2798 -0.2500 -0.5252
   99MOL0     C13255  12.358   2.887   9.187  1.0455  0.6498 -0.6813
   99MOL0     C13256  12.443   2.833   9.275  0.0855  0.0649  0.2020
   99MOL0     C13257  12.565   2.900   9.305  0.6248  0.1172  0.5738
   99MOL0     C13258  12.597   3.022   9.241 -0.3861  0.2107  0.0040
   99MOL0     C13259  12.723   3.089   9.272 -0.2253  0.0347  0.7218
   99MOL0     O13260  12.706   3.228   9.250  0.5088 -0.1513  0.6644
   99MOL0     C13261  12.805   3.318   9.288 -0.4660  0.4392  0.2858
   99MOL0     C13262  12.788   3.378   9.421 -0.2951  0.4914  0.1447
   99MOL0     C13263  12.883   3.466   9.472 -0.5735  0.9323 -0.5564
   99MOL0     C13264  12.985   3.520   9.388 -0.0529 -0.2989  0.4193
   99MOL0     O13265  13.075   3.613   9.430 -1.1790 -0.4848  0.4257
   99MOL0     C13266  13.031   3.728   9.513  0.0595  0.0164 -0.1056
   99MOL0     C13267  12.959   3.836   9.432  0.4963  0.1792 -0.7256
   99MOL0     C13268  12.899   3.955   9.515 -0.8643  0.5108 -0.0957
   99MOL0     C13269  12.761   3.915   9.576  0.3084 -0.0763 -0.2391
   99MOL0     C13270  12.712   4.030   9.663 -1.2137  0.9625 -0.4735
   99MOL0     C13271  12.647   4.128   9.578  0.4045  0.0779  1.0122
   99MOL0     C13272  12.663   4.272   9.629  0.5563  0.6872  0.9744
   99MOL0     C13273  12.604   4.364   9.521  0.3616  0.0457  1.6615
   99MOL0    Cl13274  12.431   4.349   9.514 -0.1383 -0.1811  0.1812
   99MOL0     C13275  13.007   3.455   9.270  0.0048  0.1601  0.6111
   99MOL0     C13276  12.919   3.357   9.218  0.0128 -0.6276  0.6262
   99MOL0     O13277  12.823   3.041   9.328 -0.2473  0.4661  0.7190
   99MOL0     C13278  12.518   3.064   9.133  0.8859 -0.2981  0.2488
   99MOL0     C13279  12.392   2.996   9.108 -0.6288 -0.1063 -0.2707
   99MOL0     N13280  11.667   2.779   8.968  0.4447  0.5800 -0.3984
   99MOL0     N13281  11.659   2.654   8.946 -0.2562 -0.8608  0.6183
   99MOL0     C13282  11.036   1.981   8.280  0.8506 -0.6611  0.4570
   99MOL0     C13283  10.922   1.933   8.218 -0.6468  0.8687 -0.2048
   99MOL0     C13284  10.509   2.023   8.130  0.0875 -0.0076 -0.3165
   99MOL0     C13285  10.471   2.118   8.035 -1.1378 -0.0541 -0.4750
   99MOL0     C13286  10.339   2.126   7.990  0.2320  0.3914 -0.3139
   99MOL0     C13287  10.236   2.039   8.036 -0.4588  0.2607 -0.6452
   99MOL0     O13288  10.109   2.054   7.988  0.0430  0.2878  0.7463
   99MOL0     C13289  10.030   2.150   8.057 -0.1322  0.0778  0.1349
   99MOL0     C13290   9.890   2.151   7.996  0.5582 -0.2686  0.2086
   99MOL0     C13291   9.806   2.035   8.058  0.0146  0.2591  0.5294
   99MOL0     C13292   9.658   2.031   8.001  0.2904 -0.5316 -0.2816
   99MOL0     C13293   9.622   1.898   7.973  1.1399  0.3086 -0.0615
   99MOL0     C13294   9.593   1.791   7.934 -0.3572  0.5487  0.7427
   99MOL0     C13295  10.272   1.940   8.129  0.0597 -0.3657 -0.0330
   99MOL0     C13296  10.404   1.933   8.183  0.3419 -0.5930 -0.5314
   99MOL0     C13297  10.438   1.818   8.274 -0.8055  0.7300  0.2464
   99MOL0     H13298  10.876   2.205   8.003 -0.1081  0.2829 -0.3085
   99MOL0     H13299  11.098   2.270   8.120 -0.7166  0.4419  2.3127
   99MOL0     H13300  11.217   2.034   8.486  1.0142  0.7543  0.3375
   99MOL0     H13301  11.310   1.956   8.351 -1.0693  0.0699 -2.4331
   99MOL0     H13302  11.455   2.183   8.358  0.6635 -1.3793  0.1616
   99MOL0     H13303  11.472   2.051   8.491 -1.9950 -2.2947  0.4224
   99MOL0     H13304  11.277   2.206   8.590 -0.2279 -1.3726 -1.3401
   99MOL0     H13305  11.345   2.320   8.468  0.3595 -0.9918 -0.7103
   99MOL0     H13306  11.472   2.199   8.722  2.9307 -1.3289  0.5277
   99MOL0     H13307  11.580   2.223   8.588  0.3833 -1.2143  1.0961
   99MOL0     H13308  11.479   2.459   8.567 -1.8008  0.5658 -0.4462
   99MOL0     H13309  11.428   2.446   8.741  3.4147  1.2956  2.5017
   99MOL0     H13310  11.707   2.411   8.625 -0.7138 -0.6771 -0.0928
   99MOL0     H13311  11.648   2.558   8.697  0.7768 -0.2460 -2.2212
   99MOL0     H13312  11.728   2.281   8.806  2.6685 -0.2613  0.3740
   99MOL0     H13313  11.614   2.383   8.903  1.1166 -0.6115  1.2715
   99MOL0     H13314  11.849   2.402   8.976 -0.7244  0.4476  0.0305
   99MOL0     H13315  11.900   2.466   8.817  1.6487  0.2225  1.7287
   99MOL0     H13316  11.974   2.676   8.929 -0.6799 -1.0976 -1.3239
   99MOL0     H13317  11.857   2.992   8.870 -0.5535 -0.1975 -0.1329
   99MOL0     H13318  11.801   3.010   9.034  0.8185  0.6219 -0.7346
   99MOL0     H13319  12.073   2.875   8.988  0.5647  1.3459 -0.2000
   99MOL0     H13320  12.059   3.046   9.028 -0.9996  1.1567 -0.4718
   99MOL0     H13321  11.946   2.817   9.194 -1.0563  0.7085  0.7201
   99MOL0     H13322  11.927   2.987   9.234 -1.1776 -0.3938 -0.6394
   99MOL0     H13323  12.129   2.888   9.352  0.2212 -0.9546 -0.2553
   99MOL0     H13324  12.154   3.022   9.247  0.2063  0.3524  2.4567
   99MOL0     H13325  12.393   2.755   9.331  0.6196 -1.2407 -1.0569
   99MOL0     H13326  12.619   2.859   9.390 -1.3108  1.3048  2.4618
   99MOL0     H13327  12.706   3.360   9.490  1.5247  1.0912  2.5899
   99MOL0     H13328  12.878   3.514   9.569  0.7592 -0.1085  0.0691
   99MOL0     H13329  12.973   3.691   9.598  1.3365 -1.1532  0.3025
   99MOL0     H13330  13.121   3.775   9.553 -0.7893  0.4741  1.3348
   99MOL0     H13331  13.037   3.887   9.375 -0.2799  2.4400  0.0997
   99MOL0     H13332  12.891   3.799   9.354  0.0994  2.9277 -1.8122
   99MOL0     H13333  12.968   3.974   9.598 -0.0611 -4.4253  0.6586
   99MOL0     H13334  12.873   4.047   9.461  0.7722  2.3553  2.0706
   99MOL0     H13335  12.759   3.821   9.632 -2.2798  0.8682  1.4706
   99MOL0     H13336  12.691   3.902   9.492 -0.5811  3.0076 -0.1155
   99MOL0     H13337  12.802   4.072   9.708  0.8794 -1.6542 -1.9504
   99MOL0     H13338  12.640   3.978   9.728 -1.4371 -0.0902 -1.5251
   99MOL0     H13339  12.687   4.121   9.476  0.7508  3.5479  0.8129
   99MOL0     H13340  12.545   4.092   9.561  2.0493 -3.3441 -3.3634
   99MOL0     H13341  12.766   4.295   9.658  1.2347 -2.9447  2.0424
   99MOL0     H13342  12.610   4.288   9.723 -1.9252  0.7966 -0.3609
   99MOL0     H13343  12.625   4.471   9.529  1.7024  0.4430 -3.5779
   99MOL0     H13344  12.642   4.346   9.420  0.1729  0.9795  1.4124
   99MOL0     H13345  13.099   3.483   9.218  0.4473  0.6079  1.6071
   99MOL0     H13346  12.939   3.306   9.124  0.4645 -3.2202  2.0537
   99MOL0     H13347  12.543   3.151   9.074 -0.9595  0.2938  0.2763
   99MOL0     H13348  12.327   3.032   9.029  0.8234 -0.4832 -1.7040
   99MOL0     H13349  11.065   1.908   8.355 -0.2910 -2.2505 -0.5945
   99MOL0     H13350  10.884   1.833   8.239 -0.7239  0.5904 -1.6028
   99MOL0     H13351  10.554   2.181   8.003 -0.7500 -0.3904 -0.1282
   99MOL0     H13352  10.319   2.195   7.909  2.5568  0.1589 -1.1694
   99MOL0     H13353  10.079   2.248   8.057 -0.6775  0.3533 -0.1561
   99MOL0     H13354  10.021   2.118   8.161  1.6965  0.8419  0.5865
   99MOL0     H13355   9.893   2.136   7.887 -2.3855 -1.0690  0.1682
   99MOL0     H13356   9.843   2.247   8.022  3.2845  1.0326  0.7127
   99MOL0     H13357   9.804   2.039   8.168  0.6974 -0.0354  0.5549
   99MOL0     H13358   9.862   1.945   8.031  1.0839  1.3416 -1.0082
   99MOL0     H13359   9.598   2.080   8.077  2.3302 -0.5500  1.4319
   99MOL0     H13360   9.651   2.095   7.912 -1.0549 -2.1450 -1.3973
   99MOL0     H13361   9.572   1.695   7.892 -1.1750 -0.0234  2.3730
   99MOL0     H13362  10.195   1.872   8.163 -1.2997 -0.2308 -2.5206
   99MOL0     H13363  10.526   1.765   8.235 -0.5480  1.3456 -0.0170
   99MOL0     H13364  10.459   1.842   8.378  1.2184 -2.1624  0.6356
   99MOL0     H13365  10.360   1.742   8.285  0.4773 -0.3332  2.9324
  100MOL0     O13366   3.964   9.677   7.139  0.1168  0.2707  0.6459
  100MOL0     C13367   3.852   9.702   7.090 -0.1593 -0.6995  0.1414
  100MOL0     O13368   3.831   9.791   6.987 -0.2012 -0.3683  0.4557
  100MOL0     C13369   3.945   9.859   6.938  0.6896 -0.6137 -0.5315
  100MOL0     C13370   3.985   9.970   7.012  0.2175 -0.0236  0.1299
  100MOL0     C13371   4.118  10.015   6.983  0.0022 -0.5073 -0.0560
  100MOL0     C13372   4.193   9.959   6.875 -0.7768  0.5580 -0.5223
  100MOL0     O13373   4.327   9.994   6.856 -0.3243  0.2061 -0.0104
  100MOL0     C13374   4.357  10.065   6.732 -0.9818  0.5980 -0.1893
  100MOL0     C13375   4.501  10.102   6.747  0.5372  0.6405 -0.4861
  100MOL0     C13376   4.541  10.158   6.615 -0.1104  0.9396  0.4100
  100MOL0     C13377   4.691  10.191   6.592  0.6220 -0.6225 -0.7470
  100MOL0     C13378   4.785  10.075   6.581 -0.1989  0.8317 -0.0996
  100MOL0     C13379   4.936  10.088   6.535 -0.1834 -0.4217  0.2581
  100MOL0     C13380   5.016  10.192   6.617 -0.1118 -0.0838 -0.0303
  100MOL0     C13381   5.043  10.135   6.752 -0.3827 -0.2715 -0.8239
  100MOL0     N13382   5.160  10.202   6.809  0.6947  0.4650  0.1368
  100MOL0     C13383   5.287  10.194   6.768  0.3757  0.6648  0.0962
  100MOL0     C13384   5.354  10.285   6.843 -0.1126 -0.4406 -0.0081
  100MOL0     C13385   5.509  10.329   6.849 -0.3526  0.0195 -0.4083
  100MOL0     C13386   5.542  10.439   6.747 -0.0008 -0.0692 -0.4775
  100MOL0     C13387   5.519  10.408   6.605  0.0112  0.0621 -0.1540
  100MOL0     C13388   5.636  10.340   6.527 -0.7918 -0.2285 -0.4391
  100MOL0     O13389   5.662  10.210   6.573  0.2493 -0.3489 -1.3134
  100MOL0     C13390   5.773  10.144   6.530 -0.1824  0.2297 -0.5255
  100MOL0     C13391   5.852  10.170   6.420  1.0019 -0.3936  0.8519
  100MOL0     C13392   5.971  10.108   6.395 -0.1117 -0.0959  0.8376
  100MOL0     C13393   6.013   9.995   6.473  0.4730 -0.4189 -0.5048
  100MOL0     C13394   6.150   9.941   6.448 -0.3487 -0.8017  0.3946
  100MOL0     O13395   6.192   9.844   6.532  0.7644  0.1226 -0.1382
  100MOL0     C13396   6.324   9.803   6.528  0.5931 -0.2120 -0.5242
  100MOL0     C13397   6.353   9.669   6.529  0.7780 -0.7217 -0.0325
  100MOL0     C13398   6.485   9.629   6.537 -0.3245 -0.6904  0.4337
  100MOL0     C13399   6.585   9.724   6.553  0.8174 -0.9249 -0.2212
  100MOL0     O13400   6.711   9.671   6.564 -0.0418  0.0503 -0.0034
  100MOL0     C13401   6.813   9.757   6.498  0.6265 -0.6122 -0.0047
  100MOL0     C13402   6.937   9.667   6.482 -0.0627 -0.2535  1.1254
  100MOL0     C13403   7.058   9.745   6.454  0.7717  0.5358  0.3606
  100MOL0     C13404   7.177   9.660   6.419  0.0903  0.5624 -0.1845
  100MOL0     C13405   7.301   9.752   6.400  0.1013 -0.0022 -0.3884
  100MOL0     C13406   7.421   9.674   6.439 -0.8210  0.0161  0.5872
  100MOL0     C13407   7.545   9.759   6.433  0.4241  0.1272 -0.2787
  100MOL0     C13408   7.609   9.758   6.289  0.0753  0.3812  0.6853
  100MOL0    Cl13409   7.773   9.833   6.284 -0.5067 -0.2455  0.1097
  100MOL0     C13410   6.551   9.859   6.567 -0.5611 -0.1015 -0.7330
  100MOL0     C13411   6.422   9.902   6.560 -0.7975 -0.3244 -0.0875
  100MOL0     O13412   6.212   9.977   6.353 -0.5878 -0.2028  0.1728
  100MOL0     C13413   5.922   9.955   6.580 -0.0752  0.1397  0.3085
  100MOL0     C13414   5.801  10.027   6.599 -0.4626  0.4113  0.1378
  100MOL0     N13415   5.265  10.353   6.915  0.4528  0.7932  0.2484
  100MOL0     N13416   5.152  10.297   6.902 -0.0483  0.2108 -0.4443
  100MOL0     C13417   4.146   9.848   6.804  0.4879 -0.4621 -0.4001
  100MOL0     C13418   4.018   9.794   6.835 -0.0608 -1.5046  0.5076
  100MOL0     C13419   3.737   9.638   7.141  0.3937  0.5426 -0.0238
  100MOL0     C13420   3.618   9.710   7.127 -0.3874 -0.5378  0.3824
  100MOL0     C13421   3.500   9.672   7.198 -0.8162  0.0878  0.3700
  100MOL0     C13422   3.501   9.556   7.277 -0.2791 -0.1519 -1.2830
  100MOL0     O13423   3.399   9.515   7.361 -0.6854 -0.2829 -0.1926
  100MOL0     C13424   3.281   9.601   7.348 -0.4456 -0.2008  0.7399
  100MOL0     C13425   3.181   9.565   7.450 -0.1296  1.5291 -0.2220
  100MOL0     C13426   3.042   9.607   7.435  0.4037 -0.9030 -0.0346
  100MOL0     C13427   3.009   9.713   7.542  0.6785  0.1379  0.0930
  100MOL0     C13428   2.871   9.717   7.585 -0.1123  0.0939 -0.1405
  100MOL0     C13429   2.761   9.740   7.634  0.0609  0.1370  0.6904
  100MOL0     C13430   3.621   9.486   7.280 -0.2881 -0.2856 -0.4477
  100MOL0     C13431   3.736   9.519   7.208 -0.4907 -0.6549  0.1698
  100MOL0     C13432   3.855   9.431   7.213 -0.2386 -0.0222  0.2360
  100MOL0     H13433   3.941  10.012   7.102 -2.0923  0.6736 -1.2664
  100MOL0     H13434   4.152  10.088   7.055 -1.6375 -0.3378  0.5762
  100MOL0     H13435   4.339  10.001   6.645 -1.4435 -0.8451  0.9294
  100MOL0     H13436   4.302  10.160   6.731 -0.8037  0.8052  2.5011
  100MOL0     H13437   4.566  10.021   6.779  2.7710  2.5582  0.1366
  100MOL0     H13438   4.509  10.182   6.821  0.1231  0.4404 -0.2219
  100MOL0     H13439   4.474  10.235   6.576 -1.4897 -0.2711  0.3472
  100MOL0     H13440   4.527  10.081   6.539  0.3754  2.1256 -0.9273
  100MOL0     H13441   4.691  10.248   6.499  0.6668  2.0194  0.7910
  100MOL0     H13442   4.719  10.250   6.680 -0.1790 -2.1775  0.6125
  100MOL0     H13443   4.796  10.015   6.672  0.5709  0.5598 -0.3557
  100MOL0     H13444   4.742  10.001   6.513  5.3169 -1.9802 -1.1486
  100MOL0     H13445   4.985   9.991   6.538 -2.5130 -1.7215 -0.8111
  100MOL0     H13446   4.936  10.116   6.429  0.4983 -0.0588  0.3501
  100MOL0     H13447   4.964  10.288   6.630  1.1657  0.6299 -0.0222
  100MOL0     H13448   5.109  10.214   6.564  0.4001 -2.0023  0.0116
  100MOL0     H13449   4.957  10.148   6.818  0.0850 -3.4234  0.5628
  100MOL0     H13450   5.065  10.028   6.753  2.6231  0.2647 -0.4198
  100MOL0     H13451   5.330  10.132   6.689  3.4412 -0.1706  2.2393
  100MOL0     H13452   5.538  10.349   6.953  1.2158 -0.9591 -0.6323
  100MOL0     H13453   5.576  10.249   6.818  0.5670  0.1117  1.2259
  100MOL0     H13454   5.489  10.532   6.770 -0.2999 -0.2450 -0.4542
  100MOL0     H13455   5.649  10.450   6.765 -0.3846 -0.7785  2.8329
  100MOL0     H13456   5.512  10.507   6.558 -0.3993  0.2269  0.2473
  100MOL0     H13457   5.430  10.349   6.586 -0.3432  0.3656  0.5615
  100MOL0     H13458   5.721  10.408   6.542 -1.4006  0.2958  0.8256
  100MOL0     H13459   5.614  10.329   6.421  1.5750 -2.4191 -0.8251
  100MOL0     H13460   5.830  10.248   6.348  1.0361 -1.4309 -0.3062
  100MOL0     H13461   6.028  10.159   6.318 -2.3818  2.6203  0.7956
  100MOL0     H13462   6.276   9.594   6.511  0.0406 -0.1076  0.5147
  100MOL0     H13463   6.513   9.524   6.546  1.0187 -0.3517  0.3748
  100MOL0     H13464   6.767   9.797   6.408 -0.6738  1.7798  1.6360
  100MOL0     H13465   6.835   9.837   6.570 -0.9005 -1.5482  1.5908
  100MOL0     H13466   6.947   9.609   6.574 -0.1580 -0.6691  0.8775
  100MOL0     H13467   6.910   9.604   6.396 -1.2310  0.1228  1.2020
  100MOL0     H13468   7.040   9.823   6.381  1.0741 -0.7386 -1.1234
  100MOL0     H13469   7.075   9.800   6.547 -1.2589  2.0129 -0.0740
  100MOL0     H13470   7.154   9.601   6.330  0.9727  2.1589 -1.5306
  100MOL0     H13471   7.185   9.606   6.513 -0.6559  2.3318  0.9610
  100MOL0     H13472   7.287   9.843   6.459  2.1041  0.4833 -0.5745
  100MOL0     H13473   7.316   9.783   6.296  0.3716  1.6179  0.1004
  100MOL0     H13474   7.419   9.650   6.546  3.1004 -0.5254  0.7138
  100MOL0     H13475   7.437   9.586   6.376 -0.7108  2.2644 -2.7714
  100MOL0     H13476   7.614   9.724   6.510  0.0455 -2.4712 -1.0080
  100MOL0     H13477   7.515   9.861   6.459  0.7875  0.6005 -1.6287
  100MOL0     H13478   7.620   9.650   6.270 -0.5037  0.6144 -1.2592
  100MOL0     H13479   7.538   9.792   6.213  0.3315 -1.8276 -0.6548
  100MOL0     H13480   6.625   9.929   6.605  0.4123 -1.8161  0.7603
  100MOL0     H13481   6.394  10.003   6.586  0.1534  0.3693 -1.6375
  100MOL0     H13482   5.962   9.872   6.638  1.2966 -0.1177 -0.9365
  100MOL0     H13483   5.733   9.985   6.672 -0.6228  2.2512  1.1258
  100MOL0     H13484   4.209   9.799   6.731  1.4403  0.3894 -0.1584
  100MOL0     H13485   3.988   9.710   6.773  1.0752 -3.5946  2.6492
  100MOL0     H13486   3.623   9.809   7.084 -2.8922 -0.0424  1.0256
  100MOL0     H13487   3.414   9.736   7.177 -1.6407 -0.5432  1.6475
  100MOL0     H13488   3.242   9.593   7.246  0.9567  1.3812  0.0334
  100MOL0     H13489   3.312   9.705   7.363  3.2567 -1.1457  0.5621
  100MOL0     H13490   3.224   9.586   7.548  2.3508 -1.5612 -0.4661
  100MOL0     H13491   3.180   9.457   7.429  1.1568  1.6346 -0.9430
  100MOL0     H13492   2.983   9.517   7.455 -0.7683  0.0665  1.0069
  100MOL0     H13493   3.012   9.650   7.339 -2.7601 -3.3391 -0.2978
  100MOL0     H13494   3.070   9.699   7.632  1.7751  1.7792 -0.3517
  100MOL0     H13495   3.040   9.808   7.498  1.9264 -0.9716 -1.5870
  100MOL0     H13496   2.663   9.768   7.667  1.1603  0.8067  3.6901
  100MOL0     H13497   3.620   9.401   7.347 -2.0689  1.2960  1.7108
  100MOL0     H13498   3.918   9.485   7.285 -1.9556 -0.2086  1.9251
  100MOL0     H13499   3.842   9.329   7.249  0.8311 -0.4111 -0.4252
  100MOL0     H13500   3.911   9.413   7.120 -0.9719 -2.6127  0.2292
  101MOL0     O13501   3.292   5.489   0.570  0.1496  0.8441  0.0771
  101MOL0     C13502   3.295   5.478   0.448  0.3037  0.1248  0.1204
  101MOL0     O13503   3.321   5.367   0.368  0.1352 -0.9313 -0.4074
  101MOL0     C13504   3.359   5.246   0.408 -0.3367 -0.6884 -0.1510
  101MOL0     C13505   3.380   5.157   0.313 -0.1925 -0.8777  0.3032
  101MOL0     C13506   3.405   5.027   0.326 -0.5169  0.2895 -0.4092
  101MOL0     C13507   3.429   4.975   0.456  0.3147  1.0646  0.8549
  101MOL0     O13508   3.482   4.855   0.493  0.1413  0.5772 -0.6262
  101MOL0     C13509   3.555   4.789   0.386  0.2107 -0.2007  0.3973
  101MOL0     C13510   3.583   4.658   0.441 -0.5527  0.8067  0.6340
  101MOL0     C13511   3.658   4.579   0.339 -0.5488  0.2309  0.0562
  101MOL0     C13512   3.710   4.442   0.397 -0.3185  0.2077  0.0843
  101MOL0     C13513   3.808   4.363   0.313  0.0135 -0.6640  0.2932
  101MOL0     C13514   3.946   4.438   0.301 -0.5524 -0.5246  0.1613
  101MOL0     C13515   4.060   4.355   0.229 -0.4742  0.1678  0.3375
  101MOL0     C13516   4.029   4.340   0.073  0.6178  0.7171 -0.4944
  101MOL0     N13517   4.146   4.292  -0.007  0.2332 -0.1573 -0.4224
  101MOL0     C13518   4.281   4.305   0.011  0.0429  0.6401 -0.3137
  101MOL0     C13519   4.350   4.224  -0.067  0.0057 -0.0686  0.1617
  101MOL0     C13520   4.498   4.208  -0.077  0.0108 -0.6267  0.6106
  101MOL0     C13521   4.566   4.283  -0.194 -0.6744  0.9050  0.2249
  101MOL0     C13522   4.714   4.299  -0.183 -0.4026  0.3586  0.3990
  101MOL0     C13523   4.785   4.162  -0.195 -0.3581  0.2229  0.5374
  101MOL0     O13524   4.813   4.112  -0.063  0.0321  0.4503  0.4574
  101MOL0     C13525   4.937   4.118  -0.013  0.5012 -1.2438 -0.1184
  101MOL0     C13526   4.952   4.190   0.103 -0.0125  0.1151 -0.9417
  101MOL0     C13527   5.078   4.173   0.174  0.5108 -0.3435  0.8478
  101MOL0     C13528   5.191   4.112   0.109  0.0300 -0.1223  0.0086
  101MOL0     C13529   5.314   4.084   0.194  0.5494 -0.7946 -0.4844
  101MOL0     O13530   5.312   4.129   0.324  0.1440  0.2277 -0.3366
  101MOL0     C13531   5.428   4.137   0.393  0.0944  0.2040  0.5672
  101MOL0     C13532   5.538   4.187   0.336 -0.5928 -0.1719 -0.4789
  101MOL0     C13533   5.650   4.216   0.420  0.1327  0.1762 -1.2929
  101MOL0     C13534   5.637   4.194   0.563 -0.4577  0.3328  0.6398
  101MOL0     O13535   5.751   4.226   0.632  0.0650  0.2079  0.4874
  101MOL0     C13536   5.762   4.180   0.764  0.3707  0.9601  0.3725
  101MOL0     C13537   5.708   4.287   0.856 -0.9243 -0.1084  0.0196
  101MOL0     C13538   5.820   4.394   0.882  0.0237 -1.3991  0.0260
  101MOL0     C13539   5.766   4.521   0.955 -0.4232  0.5920 -0.6713
  101MOL0     C13540   5.882   4.611   1.002  0.4561  0.6694 -0.1732
  101MOL0     C13541   5.841   4.721   1.105 -0.1105 -0.0054 -0.2042
  101MOL0     C13542   5.960   4.775   1.176  0.0299  0.0580 -0.3624
  101MOL0     C13543   5.942   4.925   1.205 -0.4194  0.4995 -0.0670
  101MOL0    Cl13544   6.092   5.003   1.273  0.2886  0.0015 -0.1212
  101MOL0     C13545   5.520   4.142   0.614  0.5613  0.5344 -0.3422
  101MOL0     C13546   5.417   4.120   0.532 -0.2540 -0.2946 -0.9504
  101MOL0     O13547   5.408   4.026   0.140  0.3980  0.0163  0.5592
  101MOL0     C13548   5.169   4.054  -0.016  0.1012 -0.5007  0.3412
  101MOL0     C13549   5.043   4.052  -0.077  0.4771 -0.5180  0.1408
  101MOL0     N13550   4.248   4.160  -0.143 -0.0172 -0.0714  0.0512
  101MOL0     N13551   4.139   4.200  -0.110  0.8665  0.4272  0.3159
  101MOL0     C13552   3.421   5.067   0.562 -0.8887 -0.1914  1.1917
  101MOL0     C13553   3.384   5.202   0.539 -0.3085 -0.8212  0.3507
  101MOL0     C13554   3.277   5.606   0.380 -0.0070  0.2814 -0.4112
  101MOL0     C13555   3.367   5.644   0.283  0.0751 -0.1954 -0.3641
  101MOL0     C13556   3.347   5.762   0.215  0.1262  0.3061  0.5596
  101MOL0     C13557   3.245   5.848   0.237 -0.6348 -0.2559 -0.3222
  101MOL0     O13558   3.242   5.960   0.158  0.5139 -0.2616 -0.7160
  101MOL0     C13559   3.132   6.041   0.148  0.1762  0.7048  0.4714
  101MOL0     C13560   3.145   6.161   0.257  0.8072  0.1355  0.3869
  101MOL0     C13561   3.008   6.234   0.258 -0.3022 -0.3486  0.3240
  101MOL0     C13562   2.996   6.315   0.387 -0.2375 -1.3208  0.4494
  101MOL0     C13563   2.868   6.380   0.387 -0.8855 -0.8460  0.8946
  101MOL0     C13564   2.765   6.442   0.403  0.8652  0.5310 -0.5864
  101MOL0     C13565   3.154   5.808   0.336  0.5689 -0.2482 -0.5521
  101MOL0     C13566   3.174   5.701   0.419  0.0091  1.5107  0.0506
  101MOL0     C13567   3.075   5.671   0.521  0.2165 -0.0196 -1.0017
  101MOL0     H13568   3.375   5.180   0.207  0.5010  0.5365  0.5517
  101MOL0     H13569   3.411   4.966   0.237  3.1932  1.5018 -1.1731
  101MOL0     H13570   3.484   4.776   0.304  0.7539  0.5648 -0.2201
  101MOL0     H13571   3.646   4.845   0.360  0.0117  0.2745  0.7168
  101MOL0     H13572   3.490   4.607   0.470  0.2393 -2.1452 -1.5225
  101MOL0     H13573   3.646   4.665   0.530 -0.4522 -1.1117  0.7652
  101MOL0     H13574   3.745   4.642   0.324 -0.3378 -0.1774 -0.4881
  101MOL0     H13575   3.597   4.569   0.248  2.6371 -4.2337 -1.9705
  101MOL0     H13576   3.760   4.469   0.490  0.3627 -0.6378 -0.0253
  101MOL0     H13577   3.626   4.376   0.420 -0.7494  0.6402 -0.2353
  101MOL0     H13578   3.835   4.275   0.371  3.4732 -0.5327 -0.8756
  101MOL0     H13579   3.757   4.336   0.220  1.4937 -1.1508 -0.4107
  101MOL0     H13580   3.920   4.523   0.238  0.9652  0.5776  0.9598
  101MOL0     H13581   3.983   4.480   0.395 -0.9729 -0.8449  0.4765
  101MOL0     H13582   4.066   4.255   0.273 -2.5142 -0.4532 -0.6743
  101MOL0     H13583   4.154   4.410   0.239  1.7611 -2.7638 -2.2820
  101MOL0     H13584   3.955   4.262   0.051 -0.1898  1.0131  0.9963
  101MOL0     H13585   4.002   4.431   0.019  1.4523  1.5398  0.4483
  101MOL0     H13586   4.314   4.364   0.096 -0.5123  0.5230 -0.0128
  101MOL0     H13587   4.538   4.229   0.023 -1.5829 -1.7993  1.5515
  101MOL0     H13588   4.520   4.102  -0.095  0.4968 -0.2600 -1.0689
  101MOL0     H13589   4.548   4.222  -0.283  0.4910 -1.7724  1.7103
  101MOL0     H13590   4.514   4.379  -0.202 -2.3114  0.1706  1.5730
  101MOL0     H13591   4.735   4.352  -0.089 -0.9450  0.0496  0.6973
  101MOL0     H13592   4.748   4.359  -0.268 -3.1559  2.6788  0.7787
  101MOL0     H13593   4.878   4.170  -0.252  1.8529 -0.7638  3.7079
  101MOL0     H13594   4.718   4.100  -0.255  0.1724  0.0449  0.1255
  101MOL0     H13595   4.869   4.245   0.147  2.1528  0.6211  2.9937
  101MOL0     H13596   5.081   4.227   0.268 -2.1619  4.7571 -1.5942
  101MOL0     H13597   5.540   4.208   0.229 -1.2588 -0.7211 -0.6071
  101MOL0     H13598   5.747   4.252   0.388  1.3513 -0.7794  1.1191
  101MOL0     H13599   5.701   4.089   0.772  0.6768  0.7278  0.0547
  101MOL0     H13600   5.862   4.147   0.792 -0.4821 -1.8496  0.4745
  101MOL0     H13601   5.608   4.323   0.828 -0.7425 -0.5673 -1.2859
  101MOL0     H13602   5.691   4.236   0.951 -0.5808 -1.6889 -0.7298
  101MOL0     H13603   5.904   4.358   0.941  1.9673  2.3460 -0.1649
  101MOL0     H13604   5.856   4.429   0.784 -2.1639 -0.7870 -0.6193
  101MOL0     H13605   5.721   4.476   1.044 -1.1938 -1.4036 -1.9995
  101MOL0     H13606   5.692   4.576   0.896 -2.0168  1.5882  2.0674
  101MOL0     H13607   5.938   4.662   0.924 -0.5010  0.6603 -0.8800
  101MOL0     H13608   5.941   4.542   1.064 -1.8285 -0.8805  0.4304
  101MOL0     H13609   5.787   4.801   1.052  0.9532  0.0368 -1.2753
  101MOL0     H13610   5.772   4.670   1.172 -0.1533 -1.8062 -1.5351
  101MOL0     H13611   6.055   4.760   1.123 -0.5099 -1.6300 -0.9092
  101MOL0     H13612   5.970   4.717   1.268  4.6271  0.9246 -0.0454
  101MOL0     H13613   5.922   4.988   1.118 -2.2203  3.2648  2.1803
  101MOL0     H13614   5.858   4.942   1.272 -0.7068 -0.1030 -0.2671
  101MOL0     H13615   5.505   4.146   0.721  1.2710  2.1496 -0.2750
  101MOL0     H13616   5.321   4.096   0.576  1.7787 -1.5394  3.3397
  101MOL0     H13617   5.242   3.995  -0.071 -2.4125 -3.5323 -0.0531
  101MOL0     H13618   5.034   4.005  -0.174 -2.2576  2.6098 -1.3123
  101MOL0     H13619   3.443   5.027   0.661 -2.4044 -0.3628  1.4795
  101MOL0     H13620   3.384   5.272   0.621 -1.9727  0.6318 -0.8244
  101MOL0     H13621   3.454   5.591   0.246 -1.0613 -0.0103 -3.6556
  101MOL0     H13622   3.410   5.790   0.131 -2.8077  3.0670 -0.9411
  101MOL0     H13623   3.036   5.996   0.176 -0.2801  1.5443  0.2746
  101MOL0     H13624   3.120   6.073   0.044  2.8680  1.1004  0.2228
  101MOL0     H13625   3.234   6.222   0.239  0.0022  1.3360  0.3836
  101MOL0     H13626   3.164   6.122   0.358 -0.7725  2.7309  1.7991
  101MOL0     H13627   2.926   6.163   0.273  1.0766 -1.9722  0.5615
  101MOL0     H13628   2.981   6.291   0.169 -1.9205 -1.8730 -0.2322
  101MOL0     H13629   2.999   6.252   0.476  0.4781  0.9126  2.0790
  101MOL0     H13630   3.085   6.379   0.391  0.3102 -1.0140 -5.8057
  101MOL0     H13631   2.679   6.498   0.435  0.5371 -1.3551  2.1044
  101MOL0     H13632   3.068   5.871   0.355  1.2464  0.2845  0.8684
  101MOL0     H13633   3.128   5.641   0.611 -0.8397 -0.4624 -0.5140
  101MOL0     H13634   3.014   5.755   0.555  1.5758  0.3836  0.5540
  101MOL0     H13635   3.001   5.595   0.493 -0.7702  1.7340 -3.5453
  102MOL0     O13636   2.015   9.428   9.922 -0.6708  0.2209 -0.4057
  102MOL0     C13637   2.024   9.362   9.817 -0.6154 -0.1863  0.3643
  102MOL0     O13638   2.136   9.309   9.770 -0.4253 -0.1786  0.2143
  102MOL0     C13639   2.252   9.374   9.811  0.5962  0.9815 -0.0967
  102MOL0     C13640   2.309   9.466   9.717 -0.2162  0.1494  0.0281
  102MOL0     C13641   2.434   9.521   9.741  0.3011  0.3429  0.7457
  102MOL0     C13642   2.501   9.478   9.854 -0.6258 -0.0650  0.4303
  102MOL0     O13643   2.634   9.511   9.880 -0.1586  0.2599  0.3244
  102MOL0     C13644   2.664   9.653   9.911  0.5147  0.7636  0.4314
  102MOL0     C13645   2.795   9.673   9.983 -0.1693  0.3946 -0.0072
  102MOL0     C13646   2.922   9.646   9.900  0.9330 -0.0595  0.2266
  102MOL0     C13647   3.051   9.682   9.980 -0.1508  0.5437 -0.5666
  102MOL0     C13648   3.171   9.605   9.934  0.7719 -0.7559  1.4632
  102MOL0     C13649   3.207   9.656   9.800  0.0132 -0.1724 -0.3692
  102MOL0     C13650   3.320   9.575   9.760 -0.0707 -0.0171  0.2803
  102MOL0     C13651   3.384   9.626   9.636 -0.0853  1.4781 -0.8535
  102MOL0     N13652   3.522   9.572   9.621  0.1388  0.2882  0.0055
  102MOL0     C13653   3.537   9.463   9.540 -0.5716 -0.6282  0.1384
  102MOL0     C13654   3.664   9.457   9.519 -0.6974  0.6503 -0.6117
  102MOL0     C13655   3.736   9.371   9.416  0.1247 -0.0067 -0.5642
  102MOL0     C13656   3.886   9.369   9.436  0.7290 -0.4177  0.0847
  102MOL0     C13657   3.961   9.309   9.314 -0.1014 -0.2857  0.4348
  102MOL0     C13658   4.102   9.318   9.340 -0.6834 -0.5336 -0.7253
  102MOL0     O13659   4.162   9.450   9.342  0.6885  0.3308 -0.0810
  102MOL0     C13660   4.298   9.465   9.323 -0.2705 -0.3154 -0.7774
  102MOL0     C13661   4.351   9.596   9.331 -0.2740 -0.0450 -0.1666
  102MOL0     C13662   4.485   9.619   9.333  0.0270  0.3028  1.1082
  102MOL0     C13663   4.570   9.507   9.322 -0.9092 -0.4899  0.4161
  102MOL0     C13664   4.718   9.522   9.333 -0.3543 -0.3321 -0.0072
  102MOL0     O13665   4.798   9.409   9.340  0.6468 -0.2529 -0.3048
  102MOL0     C13666   4.923   9.424   9.374 -0.1086  0.7659 -0.4032
  102MOL0     C13667   5.019   9.385   9.284 -0.9557 -0.6866  0.2909
  102MOL0     C13668   5.152   9.392   9.312 -0.9378 -0.1344  0.4703
  102MOL0     C13669   5.190   9.424   9.440  0.7006 -0.9354 -0.1864
  102MOL0     O13670   5.314   9.435   9.486 -0.5681  0.1972 -0.0513
  102MOL0     C13671   5.413   9.473   9.384  0.7821 -0.5532  0.2331
  102MOL0     C13672   5.538   9.530   9.450  0.4841  0.5570 -0.7287
  102MOL0     C13673   5.611   9.435   9.547 -0.8812 -0.0742  0.6178
  102MOL0     C13674   5.762   9.467   9.531 -0.3039 -0.4978 -0.7703
  102MOL0     C13675   5.809   9.563   9.646 -0.1984 -0.3000  0.3326
  102MOL0     C13676   5.963   9.601   9.621  0.8129 -0.3953  0.2476
  102MOL0     C13677   5.984   9.654   9.479 -0.3517 -0.0301 -0.1090
  102MOL0     C13678   6.108   9.750   9.480 -0.2034 -0.1769 -0.2643
  102MOL0    Cl13679   6.259   9.668   9.542 -0.3025  0.5443 -0.3487
  102MOL0     C13680   5.096   9.459   9.539  0.5515 -0.4824 -0.0231
  102MOL0     C13681   4.958   9.456   9.508  1.7255  0.2196  0.3843
  102MOL0     O13682   4.760   9.637   9.336 -0.1138  0.0362  0.5496
  102MOL0     C13683   4.520   9.376   9.306 -0.0807  0.8415 -0.4797
  102MOL0     C13684   4.382   9.352   9.304 -0.9124 -0.3653 -0.2814
  102MOL0     N13685   3.726   9.566   9.583 -0.3098 -0.0968  0.4646
  102MOL0     N13686   3.637   9.635   9.640 -0.0696 -0.0456 -0.3635
  102MOL0     C13687   2.448   9.386   9.938  0.9103 -0.1900 -0.6463
  102MOL0     C13688   2.323   9.331   9.921  0.3617  0.2119  0.4226
  102MOL0     C13689   1.895   9.331   9.756 -0.9122 -0.0641 -0.7894
  102MOL0     C13690   1.827   9.217   9.802  0.0271  0.7497  0.7528
  102MOL0     C13691   1.701   9.188   9.757 -0.4841  0.1593 -0.3400
  102MOL0     C13692   1.640   9.267   9.655  0.2239 -1.5605  0.6168
  102MOL0     O13693   1.514   9.231   9.618 -0.0189 -0.0030 -0.1311
  102MOL0     C13694   1.452   9.312   9.516 -0.3664  0.1213  0.1109
  102MOL0     C13695   1.381   9.436   9.575 -0.4359  0.6786 -0.5795
  102MOL0     C13696   1.370   9.554   9.476  1.0584  0.5227  0.3061
  102MOL0     C13697   1.233   9.563   9.409  0.8571  0.3227 -0.3255
  102MOL0     C13698   1.212   9.682   9.325  1.0712  0.2593 -0.8415
  102MOL0     C13699   1.202   9.792   9.275  0.1104  0.1224 -0.7415
  102MOL0     C13700   1.706   9.389   9.612 -0.5213  0.0928  0.0938
  102MOL0     C13701   1.827   9.419   9.669 -0.2342  0.0407  0.0587
  102MOL0     C13702   1.873   9.557   9.626  0.2470  0.5685 -0.3830
  102MOL0     H13703   2.255   9.487   9.625 -1.0429 -2.8506 -0.2942
  102MOL0     H13704   2.495   9.583   9.676  1.9395 -0.2648  1.6629
  102MOL0     H13705   2.664   9.710   9.818  2.4334  0.2505  0.0893
  102MOL0     H13706   2.577   9.684   9.970 -0.4609  0.5524 -0.8440
  102MOL0     H13707   2.790   9.615  10.076  1.1264  0.9467  0.4356
  102MOL0     H13708   2.794   9.780  10.005 -1.3000  0.4575 -0.2832
  102MOL0     H13709   2.922   9.696   9.803 -1.5117 -0.3613 -0.0041
  102MOL0     H13710   2.921   9.537   9.886  0.7464 -0.1038  0.5690
  102MOL0     H13711   3.076   9.788   9.980 -0.7342  0.6895  0.3037
  102MOL0     H13712   3.045   9.656  10.086  2.2321  1.8090 -0.0617
  102MOL0     H13713   3.254   9.620  10.003  0.6692 -1.6022  1.7797
  102MOL0     H13714   3.149   9.498   9.933  2.2668 -1.0758  1.4040
  102MOL0     H13715   3.127   9.651   9.726  2.4390 -0.8103 -3.1203
  102MOL0     H13716   3.240   9.760   9.806  0.8706 -0.4696  0.5786
  102MOL0     H13717   3.296   9.469   9.744  2.3156 -0.7001  0.8080
  102MOL0     H13718   3.391   9.584   9.843 -1.1199 -1.9104  1.4887
  102MOL0     H13719   3.324   9.603   9.547 -0.2172 -0.5868 -0.2856
  102MOL0     H13720   3.389   9.734   9.653 -0.7438  1.2430  1.1282
  102MOL0     H13721   3.466   9.406   9.483 -0.9221 -0.2328  0.1737
  102MOL0     H13722   3.702   9.267   9.417 -0.8500  0.2944  1.0996
  102MOL0     H13723   3.706   9.408   9.317 -0.7367 -0.7638 -0.6006
  102MOL0     H13724   3.921   9.471   9.457 -1.0253  0.4651 -1.0551
  102MOL0     H13725   3.902   9.304   9.523 -0.4047 -0.3010  0.3863
  102MOL0     H13726   3.928   9.367   9.227 -2.2463  2.1458  2.6842
  102MOL0     H13727   3.936   9.203   9.304  3.5785 -1.4456  1.9863
  102MOL0     H13728   4.139   9.273   9.247 -0.1980  0.9556 -1.2804
  102MOL0     H13729   4.136   9.263   9.428  0.6840 -1.7494 -1.9542
  102MOL0     H13730   4.294   9.686   9.354  2.2277  1.0075  2.5764
  102MOL0     H13731   4.521   9.720   9.346 -0.0255  0.4750 -0.0170
  102MOL0     H13732   5.003   9.359   9.180 -1.9994 -1.0459  0.5312
  102MOL0     H13733   5.233   9.369   9.245 -1.1632 -0.6447  0.3726
  102MOL0     H13734   5.443   9.389   9.320 -1.7773 -1.2627 -0.1787
  102MOL0     H13735   5.373   9.549   9.316  0.3939  0.2786  1.3508
  102MOL0     H13736   5.609   9.556   9.371  1.7418 -4.4096 -1.5829
  102MOL0     H13737   5.504   9.623   9.496  0.1820  1.1733 -2.1448
  102MOL0     H13738   5.577   9.452   9.650 -1.6396 -0.2663  0.4086
  102MOL0     H13739   5.590   9.329   9.527  0.4487 -0.5633  1.6121
  102MOL0     H13740   5.789   9.503   9.432  1.9803 -0.4670 -0.1967
  102MOL0     H13741   5.828   9.380   9.532 -0.6163 -0.7447  0.7052
  102MOL0     H13742   5.796   9.507   9.739 -0.9009 -1.5847 -0.5150
  102MOL0     H13743   5.753   9.658   9.643 -0.3423 -0.2231  3.1267
  102MOL0     H13744   5.994   9.674   9.696 -2.0674 -1.4818  2.6674
  102MOL0     H13745   6.016   9.506   9.626 -0.1738 -0.9570  0.2805
  102MOL0     H13746   5.893   9.703   9.444 -1.8416 -0.5874  2.6494
  102MOL0     H13747   6.003   9.566   9.416 -1.2149  0.0666 -0.5218
  102MOL0     H13748   6.107   9.782   9.375 -2.4410  1.4736  0.1775
  102MOL0     H13749   6.085   9.841   9.537 -1.5516 -0.5665 -0.1564
  102MOL0     H13750   5.118   9.487   9.641  1.7930 -0.1610 -0.3569
  102MOL0     H13751   4.885   9.490   9.581  0.3785 -0.1784 -0.7328
  102MOL0     H13752   4.579   9.286   9.294 -1.4345 -0.7914  3.3832
  102MOL0     H13753   4.336   9.255   9.287 -0.4031 -0.9161  1.3249
  102MOL0     H13754   2.508   9.350  10.021  1.3986 -0.7399 -1.2312
  102MOL0     H13755   2.294   9.251   9.987 -0.6595 -0.5291 -0.8851
  102MOL0     H13756   1.858   9.147   9.879  2.4839 -1.1708 -1.7826
  102MOL0     H13757   1.648   9.111   9.813 -2.6723  0.6573 -1.5851
  102MOL0     H13758   1.382   9.239   9.473 -0.0453  0.9803 -1.9748
  102MOL0     H13759   1.532   9.335   9.446  0.7448  0.4125  1.4266
  102MOL0     H13760   1.442   9.467   9.661 -0.1501  3.0734 -1.5726
  102MOL0     H13761   1.286   9.397   9.613 -0.7591  1.0415 -1.0217
  102MOL0     H13762   1.436   9.549   9.388 -0.9508 -1.3535 -1.2074
  102MOL0     H13763   1.393   9.639   9.540  3.6491  0.7775 -0.8214
  102MOL0     H13764   1.214   9.478   9.344  2.3783  1.3287 -2.1943
  102MOL0     H13765   1.162   9.578   9.491  3.9392 -1.1727  2.9370
  102MOL0     H13766   1.212   9.877   9.210  0.5194 -0.4312 -1.4139
  102MOL0     H13767   1.684   9.455   9.529  2.9423 -1.7373 -2.5390
  102MOL0     H13768   1.858   9.574   9.519  0.8223  2.0735 -0.2563
  102MOL0     H13769   1.826   9.643   9.676  0.5438  2.0510 -2.5083
  102MOL0     H13770   1.981   9.568   9.642  0.2947 -0.7345  0.3468
  103MOL0     O13771   8.647   2.058   0.373  0.1838 -0.5503 -0.0377
  103MOL0     C13772   8.539   2.103   0.398  0.7220  0.2622 -0.1737
  103MOL0     O13773   8.414   2.029   0.408 -0.2081  0.6921 -0.3122
  103MOL0     C13774   8.424   1.896   0.459  1.2085 -0.8061  0.2425
  103MOL0     C13775   8.484   1.862   0.581  0.0814  0.1859  0.0873
  103MOL0     C13776   8.473   1.730   0.629 -0.0046  0.2530 -0.1721
  103MOL0     C13777   8.425   1.627   0.549  0.1514 -0.0308  0.3019
  103MOL0     O13778   8.443   1.498   0.590  0.1200  0.2087 -0.0029
  103MOL0     C13779   8.439   1.394   0.496 -0.3061  1.5454 -0.4935
  103MOL0     C13780   8.448   1.253   0.563  0.0009 -0.0902  0.2495
  103MOL0     C13781   8.590   1.248   0.615 -0.2649  0.9006  0.0156
  103MOL0     C13782   8.613   1.302   0.755 -1.0874 -0.5130  0.5551
  103MOL0     C13783   8.753   1.360   0.787 -0.6103 -0.3451  0.7343
  103MOL0     C13784   8.878   1.268   0.760  0.3473  0.0338 -0.1273
  103MOL0     C13785   8.848   1.134   0.829 -0.1206  0.9533 -0.0406
  103MOL0     C13786   8.950   1.024   0.827  0.1117  0.1149 -0.0501
  103MOL0     N13787   9.052   1.041   0.926 -0.5070  0.1971 -0.2890
  103MOL0     C13788   9.035   1.035   1.064  1.0200  0.2026  0.3851
  103MOL0     C13789   9.152   1.079   1.115 -1.3687 -0.6366  0.5533
  103MOL0     C13790   9.176   1.120   1.257  0.2150  0.3970 -0.4937
  103MOL0     C13791   9.308   1.076   1.324 -0.0400 -0.2065  0.4555
  103MOL0     C13792   9.323   0.926   1.352  0.0147  0.6677 -0.5015
  103MOL0     C13793   9.233   0.875   1.466 -0.5712 -0.1248  0.3025
  103MOL0     O13794   9.256   0.932   1.601  0.4611  0.0322  0.5982
  103MOL0     C13795   9.358   0.900   1.687 -0.0191 -1.3705 -0.1466
  103MOL0     C13796   9.439   0.784   1.667  0.4539 -0.1684  0.7529
  103MOL0     C13797   9.537   0.745   1.761  0.2424  0.0830  0.5231
  103MOL0     C13798   9.563   0.819   1.878  1.1188  0.2913 -0.3153
  103MOL0     C13799   9.669   0.775   1.983 -0.2878 -0.2071  0.8450
  103MOL0     O13800   9.731   0.653   1.973 -0.5367 -0.6435 -0.7145
  103MOL0     C13801   9.819   0.608   2.073 -0.0972 -0.6530 -1.1526
  103MOL0     C13802   9.813   0.646   2.211 -0.0362 -0.2757  0.7479
  103MOL0     C13803   9.894   0.587   2.304  0.4388 -0.1788 -0.4466
  103MOL0     C13804   9.989   0.492   2.271 -0.1361 -0.0442 -0.5280
  103MOL0     O13805  10.087   0.448   2.358  0.1501  0.7672  0.4543
  103MOL0     C13806  10.157   0.537   2.444 -0.4354 -0.2923 -0.1109
  103MOL0     C13807  10.308   0.542   2.425 -0.1998 -0.4761 -0.2482
  103MOL0     C13808  10.360   0.615   2.303 -0.5397  0.0027  0.5717
  103MOL0     C13809  10.519   0.608   2.306 -0.1474  1.0187 -0.2025
  103MOL0     C13810  10.567   0.694   2.182  0.2813 -0.1277  0.2366
  103MOL0     C13811  10.691   0.776   2.210  0.4097 -0.7985 -0.0344
  103MOL0     C13812  10.649   0.917   2.263  0.7720 -0.2684 -0.3410
  103MOL0     C13813  10.766   1.007   2.277 -0.3303  0.8536  0.4992
  103MOL0    Cl13814  10.813   1.076   2.117  0.0492  0.0819  0.1499
  103MOL0     C13815   9.991   0.447   2.139 -0.4467 -0.1251 -0.0283
  103MOL0     C13816   9.920   0.510   2.038  0.1469 -0.1060 -0.9989
  103MOL0     O13817   9.684   0.863   2.068 -0.1256  0.4370 -0.0125
  103MOL0     C13818   9.488   0.940   1.888  0.3341 -0.1543  0.3187
  103MOL0     C13819   9.385   0.979   1.798 -0.7705 -0.1529  0.1448
  103MOL0     N13820   9.233   1.119   1.018 -0.5342  0.3709 -0.4644
  103MOL0     N13821   9.175   1.098   0.905  0.1315 -0.5660  0.1472
  103MOL0     C13822   8.361   1.663   0.429 -0.1968  0.5806 -0.8815
  103MOL0     C13823   8.360   1.792   0.381 -0.5539 -0.0262 -0.7538
  103MOL0     C13824   8.528   2.255   0.419  0.2779 -0.1454 -0.3205
  103MOL0     C13825   8.399   2.304   0.445  0.1706  0.1174 -0.6177
  103MOL0     C13826   8.379   2.442   0.457  0.5769 -0.7296  0.4834
  103MOL0     C13827   8.485   2.536   0.434  0.0236  0.2204 -0.4651
  103MOL0     O13828   8.464   2.666   0.433  0.3505  0.1580 -0.5001
  103MOL0     C13829   8.428   2.727   0.309  0.2001  0.0699 -1.1715
  103MOL0     C13830   8.302   2.811   0.324 -0.5791  0.5607 -0.1414
  103MOL0     C13831   8.189   2.728   0.390 -0.7396  0.2473 -0.7066
  103MOL0     C13832   8.063   2.807   0.398  0.2777  0.0695 -0.2136
  103MOL0     C13833   8.020   2.840   0.263 -0.0203 -0.2913 -0.0429
  103MOL0     C13834   7.985   2.889   0.155  1.3318 -0.5363 -0.2568
  103MOL0     C13835   8.613   2.482   0.406  0.3570  0.0555  0.2278
  103MOL0     C13836   8.635   2.346   0.409 -0.4359  0.2623 -1.4899
  103MOL0     C13837   8.777   2.308   0.393  0.2050  0.1209  0.3861
  103MOL0     H13838   8.540   1.935   0.639  0.4127  1.2182 -1.4609
  103MOL0     H13839   8.527   1.715   0.722 -1.0462  1.0106  0.5800
  103MOL0     H13840   8.342   1.403   0.448 -0.2090 -0.8948 -1.2858
  103MOL0     H13841   8.522   1.412   0.427  0.0935  1.2440 -0.1055
  103MOL0     H13842   8.428   1.190   0.476 -0.0637 -1.3385  1.1397
  103MOL0     H13843   8.368   1.233   0.635  1.2699  2.4863  2.5370
  103MOL0     H13844   8.670   1.280   0.547  1.6049  0.2948  1.7963
  103MOL0     H13845   8.613   1.141   0.616 -0.0713  0.9401  0.0150
  103MOL0     H13846   8.542   1.383   0.774  0.2300  0.2793  2.3073
  103MOL0     H13847   8.594   1.236   0.841 -1.3616  0.0333  0.9173
  103MOL0     H13848   8.750   1.441   0.713  0.4079 -1.2426 -0.3331
  103MOL0     H13849   8.758   1.409   0.884  1.6538  0.9011  0.0877
  103MOL0     H13850   8.904   1.249   0.655  4.0253  0.2684  0.5841
  103MOL0     H13851   8.969   1.308   0.807  1.9931 -2.4008 -1.0265
  103MOL0     H13852   8.765   1.085   0.779 -0.0788 -1.1078  1.7650
  103MOL0     H13853   8.820   1.158   0.932 -0.0060  3.1234 -0.4623
  103MOL0     H13854   8.892   0.931   0.832 -1.0747  0.8367  0.0572
  103MOL0     H13855   8.987   1.027   0.724 -4.2171  0.0353 -1.8070
  103MOL0     H13856   8.948   1.006   1.121  0.1431  0.8782 -0.5617
  103MOL0     H13857   9.180   1.229   1.268 -1.1628  0.2146  3.3653
  103MOL0     H13858   9.091   1.090   1.320 -2.6791  1.2737 -3.6933
  103MOL0     H13859   9.391   1.112   1.263 -1.3797  0.0294 -1.3097
  103MOL0     H13860   9.306   1.117   1.425  2.7182 -2.2723  1.4879
  103MOL0     H13861   9.427   0.893   1.362 -0.6545 -1.7602 -0.8032
  103MOL0     H13862   9.287   0.864   1.269 -0.9708  0.5908 -0.0347
  103MOL0     H13863   9.242   0.766   1.469  1.8107 -0.0271 -1.2178
  103MOL0     H13864   9.132   0.892   1.427  0.4480  3.4884 -1.1485
  103MOL0     H13865   9.435   0.731   1.573  1.1187  0.9737  0.0600
  103MOL0     H13866   9.590   0.652   1.744  2.0142  1.1558  0.0123
  103MOL0     H13867   9.732   0.704   2.256 -0.1986  1.3071 -1.3726
  103MOL0     H13868   9.900   0.619   2.407  2.0574 -1.7936  0.0215
  103MOL0     H13869  10.115   0.638   2.438 -1.6299 -0.5510  2.6134
  103MOL0     H13870  10.134   0.503   2.545 -1.3661  2.2687  0.6257
  103MOL0     H13871  10.357   0.577   2.516 -1.2802  1.3712 -0.3374
  103MOL0     H13872  10.336   0.437   2.407  1.4650  0.3322 -3.0193
  103MOL0     H13873  10.335   0.566   2.209  0.4557 -1.2989  0.9471
  103MOL0     H13874  10.314   0.714   2.300 -1.5314 -0.4472  0.2393
  103MOL0     H13875  10.554   0.504   2.303  1.1935  1.3968  1.4200
  103MOL0     H13876  10.551   0.646   2.403  1.0319  1.7075 -0.8413
  103MOL0     H13877  10.488   0.761   2.148  2.5296  2.0730 -1.0090
  103MOL0     H13878  10.587   0.620   2.103 -0.4028 -2.2023  1.8984
  103MOL0     H13879  10.747   0.717   2.282  1.5975  1.8400  1.3385
  103MOL0     H13880  10.742   0.784   2.113  1.2979  0.1590  0.4970
  103MOL0     H13881  10.607   0.918   2.363  0.0863  3.6717 -0.5350
  103MOL0     H13882  10.561   0.956   2.212  0.5438 -0.6946 -0.2851
  103MOL0     H13883  10.754   1.092   2.344  0.5271  1.5030 -0.1454
  103MOL0     H13884  10.848   0.947   2.317  0.7049  1.9720  0.1067
  103MOL0     H13885  10.053   0.359   2.123 -2.1412 -1.1898 -1.0293
  103MOL0     H13886   9.917   0.475   1.935 -3.2515 -2.8883 -0.1605
  103MOL0     H13887   9.506   1.000   1.977 -2.0558 -0.1802  0.8833
  103MOL0     H13888   9.326   1.066   1.824 -3.4154 -1.8249  0.1285
  103MOL0     H13889   8.312   1.585   0.373  1.1469 -0.3728 -0.7610
  103MOL0     H13890   8.310   1.812   0.287  1.6051  1.4774 -1.6800
  103MOL0     H13891   8.311   2.246   0.470 -0.7682  0.8324 -2.1336
  103MOL0     H13892   8.284   2.491   0.471  0.2246 -0.4702 -2.2629
  103MOL0     H13893   8.421   2.653   0.228  0.8686 -0.1277 -1.0542
  103MOL0     H13894   8.515   2.789   0.286  0.1079  1.3579  1.5446
  103MOL0     H13895   8.272   2.853   0.228 -1.1528 -2.2654 -1.2970
  103MOL0     H13896   8.318   2.901   0.383  0.2316  1.7677 -2.0915
  103MOL0     H13897   8.229   2.690   0.485  0.0619  2.2601 -0.1851
  103MOL0     H13898   8.186   2.643   0.322  5.2847  0.0769 -1.3521
  103MOL0     H13899   7.981   2.756   0.450 -1.7437  2.9490 -0.3409
  103MOL0     H13900   8.062   2.904   0.448 -2.3042 -0.9533  1.9797
  103MOL0     H13901   7.962   2.943   0.065 -0.5709 -2.2320 -0.8634
  103MOL0     H13902   8.687   2.558   0.385 -1.0763  1.5307  0.3676
  103MOL0     H13903   8.802   2.287   0.497 -1.4163  0.4403  0.8722
  103MOL0     H13904   8.796   2.219   0.333  1.9978 -0.1015  1.2335
  103MOL0     H13905   8.837   2.383   0.341 -2.2598  1.1985 -1.0964
  104MOL0     O13906   1.078   3.116   8.769 -0.6949  0.8862 -0.0555
  104MOL0     C13907   1.111   3.099   8.652  0.0572  0.4549  0.2342
  104MOL0     O13908   1.243   3.088   8.605  0.5725 -0.1954 -0.2044
  104MOL0     C13909   1.342   3.110   8.691  0.0987  0.1066 -0.1446
  104MOL0     C13910   1.355   3.211   8.772  0.0223 -0.9742 -0.6742
  104MOL0     C13911   1.468   3.220   8.862  0.4882 -0.8125 -0.0245
  104MOL0     C13912   1.567   3.121   8.857  0.7751  0.1150 -0.1435
  104MOL0     O13913   1.677   3.151   8.929 -0.1419 -0.1548 -0.2689
  104MOL0     C13914   1.754   3.037   8.968 -0.3354 -0.6590 -0.4844
  104MOL0     C13915   1.879   3.081   9.040 -0.8131 -0.2602 -0.2706
  104MOL0     C13916   1.842   3.129   9.183  0.7880 -0.0317  0.2505
  104MOL0     C13917   1.966   3.158   9.271  0.4683  0.1889  0.3544
  104MOL0     C13918   2.044   3.284   9.218 -0.3234  0.4532 -0.0453
  104MOL0     C13919   2.183   3.297   9.284  0.4263 -0.6393  0.7180
  104MOL0     C13920   2.255   3.417   9.221  0.0546  0.4236 -0.6595
  104MOL0     C13921   2.384   3.447   9.297 -0.1469  0.5980 -0.4295
  104MOL0     N13922   2.480   3.340   9.269 -0.6279  0.4262  0.9509
  104MOL0     C13923   2.494   3.222   9.345  0.1541  0.4834  0.2001
  104MOL0     C13924   2.599   3.155   9.287 -0.3817  0.0325 -0.5118
  104MOL0     C13925   2.642   3.023   9.335 -0.0101  0.4114  0.0849
  104MOL0     C13926   2.767   2.968   9.260  0.4053 -0.6028  0.0285
  104MOL0     C13927   2.847   2.870   9.338 -0.4814 -0.9452  0.6067
  104MOL0     C13928   2.987   2.839   9.276  0.3047  0.3059  1.1872
  104MOL0     O13929   3.033   2.719   9.346 -0.4976  0.3879 -0.1785
  104MOL0     C13930   3.159   2.669   9.327 -0.2852 -0.5321 -0.4082
  104MOL0     C13931   3.235   2.590   9.416 -0.3290 -1.1711 -0.5404
  104MOL0     C13932   3.368   2.542   9.389  0.7668  0.3879  0.1514
  104MOL0     C13933   3.436   2.591   9.277 -0.1366  0.0534  0.1174
  104MOL0     C13934   3.580   2.566   9.238 -0.1298 -0.2243 -0.4970
  104MOL0     O13935   3.628   2.641   9.133  0.5906 -0.5620 -0.2346
  104MOL0     C13936   3.756   2.635   9.075 -0.1953 -0.5907  0.6274
  104MOL0     C13937   3.873   2.590   9.143  0.7761 -0.3105 -0.2735
  104MOL0     C13938   3.995   2.591   9.075 -0.7529  0.2642 -0.1584
  104MOL0     C13939   4.013   2.639   8.942 -0.3903 -0.3679  0.1048
  104MOL0     O13940   4.136   2.660   8.880 -0.6359  0.1019  0.4604
  104MOL0     C13941   4.165   2.593   8.759 -0.2874 -0.0773  0.3937
  104MOL0     C13942   4.317   2.592   8.726  0.2737 -0.6908  0.4346
  104MOL0     C13943   4.365   2.729   8.664  0.2963 -0.4939  0.0017
  104MOL0     C13944   4.515   2.728   8.641 -0.0252 -0.4901 -0.2402
  104MOL0     C13945   4.557   2.872   8.624  0.2989  0.6292  0.3463
  104MOL0     C13946   4.708   2.893   8.654 -0.2313  0.1641  0.1962
  104MOL0     C13947   4.735   3.042   8.615  0.1029 -0.3512 -0.3234
  104MOL0     C13948   4.886   3.070   8.638 -0.6701 -0.1661 -0.4200
  104MOL0    Cl13949   4.901   3.243   8.674 -0.0562 -0.0459 -0.4810
  104MOL0     C13950   3.893   2.686   8.877 -0.2855 -0.2678  0.1294
  104MOL0     C13951   3.775   2.683   8.943  0.4829 -0.5434 -0.3315
  104MOL0     O13952   3.646   2.480   9.297  0.0812 -0.4089 -0.2072
  104MOL0     C13953   3.354   2.649   9.185  0.1095 -0.6708 -0.8868
  104MOL0     C13954   3.219   2.686   9.202  0.1018  0.1658  0.4331
  104MOL0     N13955   2.654   3.240   9.191 -0.0941  0.2341 -0.4292
  104MOL0     N13956   2.585   3.344   9.184  0.0153 -0.4677 -0.3908
  104MOL0     C13957   1.534   3.009   8.776 -0.7718 -0.3051  0.2763
  104MOL0     C13958   1.431   3.007   8.695 -0.4101  0.3725 -0.2533
  104MOL0     C13959   1.006   3.084   8.558  0.3764 -0.6958  0.5332
  104MOL0     C13960   0.981   2.963   8.512  0.6597  0.0136  0.2649
  104MOL0     C13961   0.880   2.941   8.411 -0.4102  0.1179  0.3232
  104MOL0     C13962   0.814   3.048   8.354 -0.7524  0.4291  0.6690
  104MOL0     O13963   0.728   3.026   8.252  0.3748  0.1370  0.1581
  104MOL0     C13964   0.596   3.045   8.271 -0.2774 -0.3322 -0.2035
  104MOL0     C13965   0.519   3.106   8.156 -0.8397 -1.0810  0.6923
  104MOL0     C13966   0.383   3.124   8.205 -0.4419  0.4295 -0.4084
  104MOL0     C13967   0.307   3.202   8.099  1.2412  0.9775 -0.2130
  104MOL0     C13968   0.159   3.189   8.112 -0.1722  0.0412  0.3849
  104MOL0     C13969   0.041   3.191   8.117  0.8423 -0.1428 -0.7030
  104MOL0     C13970   0.848   3.173   8.405  0.4080  0.0258 -0.5475
  104MOL0     C13971   0.939   3.202   8.504  0.2216  0.9507 -0.5273
  104MOL0     C13972   0.975   3.340   8.552  0.3914  0.0743  0.5550
  104MOL0     H13973   1.291   3.298   8.765  0.0363 -1.0409 -1.8492
  104MOL0     H13974   1.480   3.303   8.930  0.7188 -0.2167 -0.7805
  104MOL0     H13975   1.697   2.968   9.032 -3.2894  0.0779 -2.1319
  104MOL0     H13976   1.788   2.988   8.876 -0.4871 -0.3595 -0.7004
  104MOL0     H13977   1.920   3.168   8.987  2.4005  0.4694  3.0236
  104MOL0     H13978   1.951   2.999   9.040 -1.7839 -1.1370 -0.4397
  104MOL0     H13979   1.778   3.056   9.233  1.4388 -1.6872 -1.2455
  104MOL0     H13980   1.783   3.221   9.171 -1.0716 -0.9369  1.8721
  104MOL0     H13981   1.945   3.175   9.377  1.5960  1.0551  0.4635
  104MOL0     H13982   2.027   3.067   9.277  1.0075  0.3746 -1.5926
  104MOL0     H13983   2.053   3.293   9.110  1.8945 -0.1005  0.0588
  104MOL0     H13984   1.984   3.369   9.252 -0.6953  0.7762 -1.4565
  104MOL0     H13985   2.177   3.309   9.393 -0.1801  1.0474  0.5409
  104MOL0     H13986   2.237   3.204   9.265 -1.0816 -1.1770 -1.3988
  104MOL0     H13987   2.204   3.511   9.243  1.4996  0.3729  4.0686
  104MOL0     H13988   2.283   3.398   9.117  2.4303  0.7137 -0.1204
  104MOL0     H13989   2.422   3.544   9.263  0.7707  0.6259  0.6386
  104MOL0     H13990   2.371   3.459   9.405  1.0573  1.5583 -0.3755
  104MOL0     H13991   2.428   3.184   9.423  0.1545 -1.8391 -0.8431
  104MOL0     H13992   2.664   3.030   9.441 -1.8871  3.2116  0.4073
  104MOL0     H13993   2.568   2.943   9.327 -1.0623  1.4946 -1.6986
  104MOL0     H13994   2.748   2.922   9.163  2.2582  1.6185 -1.4958
  104MOL0     H13995   2.834   3.052   9.241  1.0978  0.0718  4.4101
  104MOL0     H13996   2.781   2.782   9.345 -0.7408 -0.8864 -0.7327
  104MOL0     H13997   2.870   2.908   9.438  0.9738 -0.6477  0.1665
  104MOL0     H13998   3.055   2.923   9.292  2.8775 -1.0158 -1.7816
  104MOL0     H13999   2.975   2.821   9.168 -1.6341  0.4664  1.3338
  104MOL0     H14000   3.189   2.563   9.511  1.4925  1.2178  1.1594
  104MOL0     H14001   3.421   2.474   9.456  0.5420  0.0074 -0.0547
  104MOL0     H14002   3.872   2.533   9.236 -3.8871 -0.5460 -0.1959
  104MOL0     H14003   4.079   2.545   9.126 -0.6889 -1.5272 -1.7545
  104MOL0     H14004   4.119   2.493   8.763 -1.2838  0.1020 -3.1983
  104MOL0     H14005   4.110   2.638   8.677  0.1420  1.6144  0.9984
  104MOL0     H14006   4.365   2.568   8.821 -1.8312 -0.1026  1.7221
  104MOL0     H14007   4.335   2.519   8.646  0.9540  1.6681 -1.6961
  104MOL0     H14008   4.300   2.752   8.579 -3.0163 -1.7016  1.9915
  104MOL0     H14009   4.333   2.798   8.742  1.3710 -0.8925  0.8200
  104MOL0     H14010   4.545   2.674   8.551 -1.7984  0.0119 -1.1707
  104MOL0     H14011   4.574   2.679   8.719  0.7217 -1.9566 -1.6746
  104MOL0     H14012   4.506   2.925   8.705 -0.8268 -1.0528  0.8093
  104MOL0     H14013   4.522   2.917   8.531 -1.6253  0.3763  0.8938
  104MOL0     H14014   4.734   2.872   8.758  0.3616  0.3739  0.0901
  104MOL0     H14015   4.769   2.818   8.602  0.4401  1.5686 -1.1058
  104MOL0     H14016   4.677   3.112   8.676  2.1174  1.8133 -0.7290
  104MOL0     H14017   4.711   3.061   8.510 -0.4371  0.6448 -0.0353
  104MOL0     H14018   4.930   3.007   8.715 -5.1117 -0.9681  1.7987
  104MOL0     H14019   4.941   3.039   8.549  0.0001 -1.1409  0.3263
  104MOL0     H14020   3.905   2.742   8.785  2.3828 -1.8025 -0.5932
  104MOL0     H14021   3.683   2.710   8.892  0.2667  0.4066  0.5314
  104MOL0     H14022   3.388   2.670   9.084 -3.1707  1.2274 -1.7504
  104MOL0     H14023   3.169   2.733   9.117  0.0978  1.0485  0.9139
  104MOL0     H14024   1.607   2.929   8.767  0.9118  1.1930  0.0549
  104MOL0     H14025   1.427   2.927   8.623 -0.6264 -0.5098  0.7113
  104MOL0     H14026   1.036   2.884   8.562  1.0773 -0.1683 -0.4798
  104MOL0     H14027   0.858   2.843   8.370  0.1186  0.6120 -1.2159
  104MOL0     H14028   0.571   3.109   8.356 -2.1868 -0.9568 -0.2506
  104MOL0     H14029   0.548   2.952   8.299 -3.7109  1.8091  1.7319
  104MOL0     H14030   0.507   3.033   8.075 -2.2748  0.7511 -0.8409
  104MOL0     H14031   0.568   3.195   8.117 -3.4999 -0.0733 -0.5942
  104MOL0     H14032   0.375   3.170   8.303 -1.8836  2.2248 -1.3113
  104MOL0     H14033   0.336   3.028   8.229  0.9663  0.0297  0.8706
  104MOL0     H14034   0.327   3.310   8.103 -2.5296  1.8252 -0.4974
  104MOL0     H14035   0.329   3.169   7.997 -2.3185  2.7739 -1.7596
  104MOL0     H14036  -0.066   3.202   8.114  1.0186  1.8865 -0.8790
  104MOL0     H14037   0.794   3.256   8.360 -3.2449 -1.1529  1.2803
  104MOL0     H14038   0.890   3.409   8.557 -0.1507 -0.4182 -1.3678
  104MOL0     H14039   1.020   3.339   8.652  0.9187 -0.9952  0.3181
  104MOL0     H14040   1.042   3.389   8.481 -0.3933  1.4942  0.7422
  105MOL0     O14041  10.820   5.776   2.154 -0.4240  0.0875  0.1199
  105MOL0     C14042  10.730   5.781   2.075  0.4701 -0.3002 -1.0908
  105MOL0     O14043  10.744   5.745   1.948 -0.9589  0.8655 -0.1659
  105MOL0     C14044  10.870   5.717   1.891  0.1094 -1.0494 -0.7413
  105MOL0     C14045  10.883   5.604   1.813 -0.1269  0.1776  0.4157
  105MOL0     C14046  10.998   5.593   1.733 -0.8559 -0.1248  0.6209
  105MOL0     C14047  11.100   5.686   1.733 -0.0587 -0.4537 -0.6730
  105MOL0     O14048  11.200   5.681   1.644 -0.2346  0.0525  0.8767
  105MOL0     C14049  11.236   5.556   1.576  1.2023 -0.2706 -0.2749
  105MOL0     C14050  11.394   5.533   1.571  1.0409  0.6947 -0.0895
  105MOL0     C14051  11.433   5.413   1.496 -0.7991 -0.9371 -1.2089
  105MOL0     C14052  11.587   5.388   1.491 -0.2099  0.1235 -0.3323
  105MOL0     C14053  11.627   5.243   1.439 -0.7759 -0.6223  0.2218
  105MOL0     C14054  11.580   5.196   1.294  0.9264  0.4929 -0.7046
  105MOL0     C14055  11.629   5.284   1.180 -0.5362 -0.3712 -0.4555
  105MOL0     C14056  11.640   5.207   1.053 -0.2722  0.2398 -0.1458
  105MOL0     N14057  11.513   5.142   1.028  0.7120  0.2065 -0.1548
  105MOL0     C14058  11.480   5.009   1.029 -0.2766  0.0136 -0.1682
  105MOL0     C14059  11.351   5.003   1.013  0.6907  0.1860 -0.7490
  105MOL0     C14060  11.272   4.873   1.015 -0.0293 -0.4561  0.3188
  105MOL0     C14061  11.137   4.895   1.093 -0.5138 -0.2407 -0.9765
  105MOL0     C14062  11.034   4.779   1.082  0.1274 -0.2708 -0.4077
  105MOL0     C14063  10.905   4.795   1.167 -0.6949 -0.6635 -0.2033
  105MOL0     O14064  10.867   4.668   1.209  0.2416  0.0094 -0.4488
  105MOL0     C14065  10.746   4.653   1.268  0.6824 -0.5269 -0.1715
  105MOL0     C14066  10.714   4.518   1.302  0.6615 -0.6283  0.2798
  105MOL0     C14067  10.588   4.486   1.351  0.0720  0.3332  0.4366
  105MOL0     C14068  10.493   4.581   1.374  0.2436  0.3769 -0.4895
  105MOL0     C14069  10.345   4.537   1.411 -0.1532  0.2567 -0.4244
  105MOL0     O14070  10.244   4.626   1.376  0.1092  1.1365 -0.6035
  105MOL0     C14071  10.109   4.608   1.404  0.5397 -0.0393  0.8429
  105MOL0     C14072  10.063   4.528   1.508 -0.5126  0.4037  0.6028
  105MOL0     C14073   9.929   4.518   1.537  0.3761 -0.3311  0.5080
  105MOL0     C14074   9.830   4.588   1.464 -0.1376 -0.3039  0.4703
  105MOL0     O14075   9.692   4.584   1.494  0.5628 -0.0353 -0.6541
  105MOL0     C14076   9.652   4.685   1.592 -0.5391 -0.6997 -0.2710
  105MOL0     C14077   9.497   4.693   1.603 -0.3084 -0.1881 -0.1585
  105MOL0     C14078   9.439   4.561   1.649 -0.0194 -0.0426 -0.3375
  105MOL0     C14079   9.281   4.562   1.655  0.1553  0.4341 -0.0109
  105MOL0     C14080   9.223   4.421   1.627 -0.2833  0.3529  0.3676
  105MOL0     C14081   9.069   4.436   1.626  0.6343  0.1490  0.0198
  105MOL0     C14082   8.997   4.310   1.601  0.5231 -0.2891  0.6489
  105MOL0     C14083   8.854   4.339   1.564  0.0884  0.1093  0.8028
  105MOL0    Cl14084   8.764   4.185   1.553  0.3508  0.1675 -0.3087
  105MOL0     C14085   9.878   4.661   1.355  0.2466  0.2499  0.9164
  105MOL0     C14086  10.011   4.675   1.324  1.4130 -0.2700  0.4674
  105MOL0     O14087  10.330   4.430   1.469  0.1323 -0.2117 -0.4278
  105MOL0     C14088  10.528   4.716   1.347  0.1231  0.0323  0.1082
  105MOL0     C14089  10.648   4.755   1.295 -0.2909 -0.5486  0.8394
  105MOL0     N14090  11.302   5.133   0.982  0.1261 -0.0611  0.1774
  105MOL0     N14091  11.401   5.210   0.991  1.1091  0.9647  0.1308
  105MOL0     C14092  11.084   5.800   1.807 -0.4546 -0.4214 -1.2841
  105MOL0     C14093  10.970   5.818   1.880 -0.2145  0.1743 -0.5175
  105MOL0     C14094  10.591   5.838   2.118 -0.1273  0.1557  0.2927
  105MOL0     C14095  10.487   5.847   2.021  0.4251  0.5903  0.1692
  105MOL0     C14096  10.359   5.893   2.060  0.3154 -0.5810  0.6063
  105MOL0     C14097  10.329   5.947   2.186  0.5190 -0.3983 -0.6125
  105MOL0     O14098  10.208   5.997   2.234 -0.6256  0.3949 -0.3006
  105MOL0     C14099  10.102   6.043   2.144  0.2701  0.3360 -0.3116
  105MOL0     C14100   9.959   5.989   2.185  0.0426 -0.7747 -0.6519
  105MOL0     C14101   9.966   5.834   2.160  0.0192 -0.8012  0.2088
  105MOL0     C14102   9.833   5.760   2.191 -0.2068  0.0068  0.7172
  105MOL0     C14103   9.828   5.619   2.132 -0.4362  0.9649 -0.0097
  105MOL0     C14104   9.832   5.510   2.090  0.1959  0.5475 -0.2971
  105MOL0     C14105  10.427   5.945   2.279 -0.3074 -0.4300  0.1498
  105MOL0     C14106  10.559   5.889   2.246  0.5178 -0.0186 -0.4285
  105MOL0     C14107  10.646   5.872   2.365 -0.9514  0.0375  0.2357
  105MOL0     H14108  10.814   5.520   1.810  1.3924 -1.1353  0.7302
  105MOL0     H14109  10.992   5.502   1.675 -1.4535 -2.1426  3.6619
  105MOL0     H14110  11.185   5.469   1.618 -0.0762  1.3497  1.7264
  105MOL0     H14111  11.220   5.572   1.469  0.3385  0.3888 -0.0514
  105MOL0     H14112  11.411   5.512   1.677  2.4902  3.3467  0.2680
  105MOL0     H14113  11.449   5.622   1.540 -0.6479  1.4459 -1.0607
  105MOL0     H14114  11.397   5.424   1.394 -2.8796 -3.0287 -0.8016
  105MOL0     H14115  11.383   5.327   1.542  0.0554  0.5932  3.0474
  105MOL0     H14116  11.630   5.470   1.433 -0.8573  0.3873 -0.4483
  105MOL0     H14117  11.621   5.406   1.594 -2.0903 -0.3954  0.4291
  105MOL0     H14118  11.736   5.242   1.441 -0.7055  1.1330 -0.9698
  105MOL0     H14119  11.580   5.170   1.506 -2.9496  0.7921  0.3404
  105MOL0     H14120  11.613   5.093   1.275  1.8394  0.4575  0.8589
  105MOL0     H14121  11.472   5.185   1.290  1.0038  0.0317 -2.5172
  105MOL0     H14122  11.723   5.338   1.198 -1.4024  0.8840  0.5024
  105MOL0     H14123  11.546   5.355   1.169 -1.3883 -1.0902  1.0133
  105MOL0     H14124  11.655   5.269   0.964  0.5032 -1.8879 -1.5739
  105MOL0     H14125  11.718   5.131   1.061 -0.6659 -0.0525  1.0844
  105MOL0     H14126  11.544   4.925   1.055 -1.0271 -0.9056 -1.2405
  105MOL0     H14127  11.244   4.843   0.914  2.1083 -1.3052 -0.0891
  105MOL0     H14128  11.332   4.790   1.056  0.0312 -0.6586 -0.1736
  105MOL0     H14129  11.143   4.899   1.202 -2.1182  1.2909 -0.8821
  105MOL0     H14130  11.095   4.984   1.045 -2.1418 -0.1898  0.4469
  105MOL0     H14131  11.088   4.687   1.107  0.1160  0.3955  2.4016
  105MOL0     H14132  10.985   4.776   0.984  0.7025 -1.2871 -0.6760
  105MOL0     H14133  10.820   4.844   1.119  0.8585  5.3372  2.1033
  105MOL0     H14134  10.924   4.847   1.262  1.5582 -1.9216  0.1238
  105MOL0     H14135  10.780   4.433   1.287 -0.1892 -1.8896  2.9963
  105MOL0     H14136  10.563   4.383   1.374  1.6465 -0.3766 -0.7604
  105MOL0     H14137  10.121   4.465   1.575 -0.7745 -0.9146 -0.3619
  105MOL0     H14138   9.912   4.452   1.621  4.3335 -0.3179  1.5204
  105MOL0     H14139   9.692   4.655   1.689  0.2237 -0.6443 -0.5620
  105MOL0     H14140   9.694   4.783   1.568 -0.8067 -0.5498 -0.1247
  105MOL0     H14141   9.483   4.770   1.679  0.2065 -0.3634  0.1223
  105MOL0     H14142   9.451   4.726   1.510 -1.4037 -2.6659 -0.5724
  105MOL0     H14143   9.460   4.490   1.568 -1.6807  0.0410 -0.8725
  105MOL0     H14144   9.472   4.538   1.751  1.5828 -1.6549 -1.1520
  105MOL0     H14145   9.239   4.646   1.599  1.7731  0.9148 -0.5664
  105MOL0     H14146   9.258   4.596   1.756 -2.9731  1.8080 -1.0510
  105MOL0     H14147   9.252   4.343   1.699  2.3326  1.1459  0.3002
  105MOL0     H14148   9.253   4.400   1.524  2.5662  3.1387  0.4651
  105MOL0     H14149   9.025   4.478   1.717 -1.5428  1.0750 -1.3844
  105MOL0     H14150   9.043   4.501   1.542  1.7131  2.4758  1.4000
  105MOL0     H14151   8.992   4.266   1.701  1.2402  0.4405  1.0176
  105MOL0     H14152   9.041   4.247   1.524  0.5349 -0.4413  0.7791
  105MOL0     H14153   8.817   4.414   1.635  0.7991  0.9909  0.2839
  105MOL0     H14154   8.850   4.373   1.460  2.1254 -3.9452 -0.8179
  105MOL0     H14155   9.810   4.713   1.288  1.7177  2.5410  1.0970
  105MOL0     H14156  10.042   4.744   1.246  1.9470  0.7328  1.5296
  105MOL0     H14157  10.452   4.793   1.362 -0.0087  0.1531 -1.0652
  105MOL0     H14158  10.675   4.859   1.280 -0.7233 -0.5747 -0.2458
  105MOL0     H14159  11.158   5.879   1.795 -0.7685 -0.1413 -1.4351
  105MOL0     H14160  10.965   5.917   1.923 -1.1756 -0.6278  1.3005
  105MOL0     H14161  10.508   5.812   1.920 -2.7181 -1.8258  0.1833
  105MOL0     H14162  10.280   5.904   1.987  1.7208 -0.0431 -0.8962
  105MOL0     H14163  10.113   6.028   2.036  1.7846  0.6351 -0.2208
  105MOL0     H14164  10.086   6.151   2.156 -1.9981 -0.0011  0.2654
  105MOL0     H14165   9.878   6.044   2.135 -0.6148 -0.2851  0.8960
  105MOL0     H14166   9.947   6.010   2.292 -0.9238  1.8795 -1.2042
  105MOL0     H14167  10.054   5.796   2.212  1.2353  1.3747 -0.1306
  105MOL0     H14168   9.985   5.822   2.053 -0.1745 -1.3260  0.2338
  105MOL0     H14169   9.825   5.751   2.300 -0.0639 -1.7156  0.6078
  105MOL0     H14170   9.746   5.817   2.158  0.9265  0.3118 -1.9888
  105MOL0     H14171   9.847   5.413   2.045  1.2701 -0.7697  2.6723
  105MOL0     H14172  10.406   5.967   2.384  0.7128 -1.1917  0.5331
  105MOL0     H14173  10.754   5.875   2.345 -0.6426 -3.5966  0.6273
  105MOL0     H14174  10.624   5.953   2.436  1.6866 -0.2109  1.4639
  105MOL0     H14175  10.622   5.777   2.415 -1.6465 -0.0410 -0.2320
  106MOL0     O14176   5.139   1.630   0.221  0.0724 -0.1327 -0.5230
  106MOL0     C14177   5.198   1.525   0.237  0.4265 -0.1415  0.2882
  106MOL0     O14178   5.146   1.408   0.268  0.0015 -0.0483  0.7800
  106MOL0     C14179   5.017   1.404   0.321 -0.6508  0.1574 -0.2242
  106MOL0     C14180   4.941   1.508   0.388  0.9412  0.4621  0.6908
  106MOL0     C14181   4.807   1.479   0.412 -0.4923 -0.8204 -0.8545
  106MOL0     C14182   4.755   1.350   0.390  0.3968  0.1372 -0.5795
  106MOL0     O14183   4.617   1.320   0.413  0.1972 -0.0368 -0.9101
  106MOL0     C14184   4.522   1.431   0.405 -0.7059  0.1923 -0.1392
  106MOL0     C14185   4.383   1.384   0.408  0.1183 -0.0190 -0.6360
  106MOL0     C14186   4.331   1.344   0.551 -0.8693  0.1709 -0.2660
  106MOL0     C14187   4.199   1.258   0.575 -0.2572  0.6637 -0.4812
  106MOL0     C14188   4.126   1.268   0.715  0.3807 -0.4945  0.2300
  106MOL0     C14189   4.058   1.408   0.739 -0.0967  0.1189 -0.6310
  106MOL0     C14190   3.959   1.396   0.854  0.5064 -0.7768  0.6585
  106MOL0     C14191   3.882   1.529   0.873 -0.6668 -0.0639  0.1188
  106MOL0     N14192   3.777   1.514   0.972 -0.4171 -0.1049  0.2947
  106MOL0     C14193   3.812   1.504   1.105 -0.0865  0.7352 -1.0880
  106MOL0     C14194   3.696   1.546   1.166 -0.7839  0.0427  0.6501
  106MOL0     C14195   3.677   1.564   1.314 -0.3290  0.3235 -0.0253
  106MOL0     C14196   3.773   1.682   1.356  0.2346  0.4578 -0.3976
  106MOL0     C14197   3.691   1.807   1.353 -0.1414  0.0435  0.5925
  106MOL0     C14198   3.779   1.915   1.407  0.7205 -0.3699 -0.5199
  106MOL0     O14199   3.818   1.904   1.543 -0.4606  0.0332 -0.3930
  106MOL0     C14200   3.886   1.999   1.612  0.5453 -0.4503 -0.8903
  106MOL0     C14201   3.935   1.963   1.743  0.0197 -0.1586 -0.5075
  106MOL0     C14202   4.014   2.060   1.817  0.6885 -0.0575 -0.0951
  106MOL0     C14203   4.036   2.186   1.774 -0.7329  0.1857  0.5336
  106MOL0     C14204   4.146   2.261   1.843 -0.6239 -0.6891  0.1152
  106MOL0     O14205   4.188   2.370   1.776  0.7816 -0.3505  0.4480
  106MOL0     C14206   4.272   2.458   1.841 -0.2192 -0.4360 -0.0506
  106MOL0     C14207   4.255   2.505   1.970 -0.3048 -0.4613 -0.4521
  106MOL0     C14208   4.333   2.598   2.026 -0.5979  0.5400 -0.9996
  106MOL0     C14209   4.431   2.658   1.952 -0.2015 -0.1167 -0.5456
  106MOL0     O14210   4.510   2.747   2.019  0.2705 -0.4180 -0.0597
  106MOL0     C14211   4.648   2.751   1.978  0.3634  0.4789 -0.6271
  106MOL0     C14212   4.720   2.821   2.094  0.2504  0.0663 -1.2854
  106MOL0     C14213   4.879   2.829   2.072  0.1012 -0.2251  0.3407
  106MOL0     C14214   4.959   2.924   2.166  0.6298  0.0395  0.1776
  106MOL0     C14215   5.098   2.868   2.194  0.3069 -0.3354  0.1501
  106MOL0     C14216   5.195   2.978   2.241 -0.1684 -0.4052  0.0167
  106MOL0     C14217   5.338   2.928   2.236  0.5328 -0.0793 -0.1606
  106MOL0     C14218   5.398   2.949   2.097 -1.0720 -0.2652 -0.9118
  106MOL0    Cl14219   5.409   3.114   2.041 -0.2103 -0.5331 -0.2299
  106MOL0     C14220   4.445   2.632   1.823 -0.0307  0.8579  0.1087
  106MOL0     C14221   4.367   2.526   1.772  0.0176 -0.5670  0.5427
  106MOL0     O14222   4.200   2.221   1.948 -0.1612 -0.6799  0.7909
  106MOL0     C14223   3.988   2.222   1.641  0.5086  0.1553 -0.3712
  106MOL0     C14224   3.917   2.126   1.567 -1.1270 -0.7232  0.6871
  106MOL0     N14225   3.592   1.573   1.075  0.1025  0.3030 -0.3577
  106MOL0     N14226   3.646   1.558   0.959 -0.0677  0.2346  0.2873
  106MOL0     C14227   4.836   1.244   0.333 -0.0235 -1.3944  0.3137
  106MOL0     C14228   4.961   1.274   0.294  0.2632  0.4239 -0.1642
  106MOL0     C14229   5.340   1.542   0.224  0.3800 -0.4104 -0.2056
  106MOL0     C14230   5.390   1.659   0.156  0.0002 -0.2802  1.2234
  106MOL0     C14231   5.527   1.683   0.124 -0.2141 -0.2296  0.0799
  106MOL0     C14232   5.619   1.576   0.156 -0.3931  0.0966 -0.2899
  106MOL0     O14233   5.759   1.581   0.143 -0.0653 -0.1833  0.0211
  106MOL0     C14234   5.826   1.687   0.080  0.4947  0.5401 -0.2354
  106MOL0     C14235   5.963   1.689   0.145  0.4316 -0.1659 -0.2409
  106MOL0     C14236   6.037   1.560   0.110  0.0939  0.0795  0.5420
  106MOL0     C14237   6.158   1.540   0.198 -0.0667  0.7833 -0.4344
  106MOL0     C14238   6.119   1.474   0.322 -0.6760  0.8270  0.4041
  106MOL0     C14239   6.100   1.411   0.420  0.5397  0.1562  0.1316
  106MOL0     C14240   5.570   1.467   0.225  0.5560  0.1766 -0.0105
  106MOL0     C14241   5.436   1.448   0.259  0.5339  0.3041 -0.6824
  106MOL0     C14242   5.401   1.305   0.305  1.0126  1.7762  0.0740
  106MOL0     H14243   4.972   1.611   0.403 -1.7319  1.4880 -0.2434
  106MOL0     H14244   4.750   1.562   0.452  2.8110  1.8037 -1.1287
  106MOL0     H14245   4.539   1.503   0.486  1.6575  2.3582 -2.3866
  106MOL0     H14246   4.541   1.485   0.312  3.8922 -0.7214  0.0243
  106MOL0     H14247   4.359   1.299   0.344 -0.9867  0.3183 -0.6883
  106MOL0     H14248   4.317   1.464   0.372 -0.2655 -1.0284 -2.2538
  106MOL0     H14249   4.311   1.434   0.609 -0.2282  0.2592 -0.1792
  106MOL0     H14250   4.411   1.294   0.607 -2.3711 -0.7901  1.1029
  106MOL0     H14251   4.131   1.295   0.497  0.5244 -0.1013 -1.5564
  106MOL0     H14252   4.220   1.151   0.565  0.1396  0.5861  1.0369
  106MOL0     H14253   4.051   1.189   0.709  1.2933 -1.3698  0.1173
  106MOL0     H14254   4.194   1.248   0.798 -0.0991  1.0216  1.0288
  106MOL0     H14255   4.134   1.481   0.765  0.9108 -1.1512  0.1487
  106MOL0     H14256   4.005   1.446   0.651 -1.3929  0.1068  0.1105
  106MOL0     H14257   4.006   1.368   0.948  1.2255  0.2798  0.6345
  106MOL0     H14258   3.885   1.324   0.820 -0.3888  0.6353 -0.5324
  106MOL0     H14259   3.955   1.604   0.904  1.6491 -1.2103 -2.2123
  106MOL0     H14260   3.843   1.568   0.779 -0.2880 -0.4400 -0.1994
  106MOL0     H14261   3.910   1.504   1.151 -0.9209  0.1173  0.7651
  106MOL0     H14262   3.571   1.582   1.334 -1.0762 -1.8268 -1.7411
  106MOL0     H14263   3.706   1.471   1.364 -1.4161  0.3798  0.7605
  106MOL0     H14264   3.821   1.674   1.454  0.7697 -0.5642 -0.7307
  106MOL0     H14265   3.852   1.694   1.281  2.9157  1.3377  2.3750
  106MOL0     H14266   3.603   1.806   1.418 -0.2255  2.9760  0.6361
  106MOL0     H14267   3.648   1.830   1.255  2.9104 -0.3988 -0.9852
  106MOL0     H14268   3.732   2.014   1.399  2.7866  0.6327 -1.1126
  106MOL0     H14269   3.865   1.930   1.341 -0.7992 -1.6867 -2.9443
  106MOL0     H14270   3.916   1.871   1.799  0.8334  1.8129  3.4048
  106MOL0     H14271   4.038   2.028   1.917 -1.5500 -0.8165  0.2671
  106MOL0     H14272   4.180   2.456   2.032  0.8382  0.2941  1.6116
  106MOL0     H14273   4.316   2.630   2.128 -2.7639 -2.3876 -0.3070
  106MOL0     H14274   4.687   2.651   1.960  1.3566  0.5207  1.0391
  106MOL0     H14275   4.654   2.790   1.876 -0.7397 -1.8394 -1.6562
  106MOL0     H14276   4.677   2.922   2.098  0.5944  0.1768 -0.0500
  106MOL0     H14277   4.695   2.763   2.183 -0.3505 -1.5819 -2.4829
  106MOL0     H14278   4.910   2.725   2.087  2.8067  0.3438 -0.7021
  106MOL0     H14279   4.898   2.853   1.967  1.3651 -0.7117  0.4371
  106MOL0     H14280   4.900   2.936   2.257 -2.0647 -3.4264 -0.8796
  106MOL0     H14281   4.956   3.023   2.119  0.8359  0.2659  0.6341
  106MOL0     H14282   5.136   2.819   2.103 -0.9165 -4.4070  1.6117
  106MOL0     H14283   5.086   2.777   2.254 -4.0320 -0.3628 -0.4686
  106MOL0     H14284   5.177   3.061   2.171  0.9993  0.4215  0.6513
  106MOL0     H14285   5.161   3.021   2.335 -0.9011  2.3259 -1.3786
  106MOL0     H14286   5.337   2.822   2.264  1.3437 -0.4571 -1.5083
  106MOL0     H14287   5.398   2.978   2.313  1.2148 -3.4558  1.6855
  106MOL0     H14288   5.503   2.918   2.102  0.0686  3.0814 -1.9626
  106MOL0     H14289   5.343   2.883   2.029 -1.9024  0.7131 -1.2108
  106MOL0     H14290   4.510   2.696   1.764  0.1625  4.0997  3.3911
  106MOL0     H14291   4.378   2.492   1.670 -2.1224  0.1005  0.0393
  106MOL0     H14292   4.016   2.320   1.604  0.1395  1.2291  1.9695
  106MOL0     H14293   3.893   2.153   1.465  0.2586  0.0605  0.5528
  106MOL0     H14294   4.791   1.151   0.302 -2.1501 -0.2188 -0.2732
  106MOL0     H14295   5.024   1.197   0.250 -2.1276 -0.8056 -1.6468
  106MOL0     H14296   5.327   1.723   0.095 -1.3468 -0.5518  2.2870
  106MOL0     H14297   5.561   1.777   0.083  0.2912 -1.1949 -1.8144
  106MOL0     H14298   5.770   1.781   0.086 -0.6264 -0.1767  1.2644
  106MOL0     H14299   5.831   1.673  -0.028 -2.6206 -1.4691 -0.2491
  106MOL0     H14300   5.952   1.695   0.254  1.1205 -1.0156 -0.1136
  106MOL0     H14301   6.016   1.776   0.107  0.7846 -1.0132 -1.7730
  106MOL0     H14302   6.064   1.556   0.005  1.5819 -0.5018  0.9219
  106MOL0     H14303   5.971   1.474   0.128  1.7142 -1.3892 -0.2507
  106MOL0     H14304   6.238   1.483   0.149  0.4142  1.2083 -0.1605
  106MOL0     H14305   6.201   1.635   0.230  0.4680  1.1356 -2.0682
  106MOL0     H14306   6.080   1.366   0.515  2.5919  0.1627  0.6228
  106MOL0     H14307   5.632   1.385   0.260 -2.3483 -2.3691 -0.3942
  106MOL0     H14308   5.369   1.252   0.215  1.5960 -1.0083  1.4070
  106MOL0     H14309   5.486   1.252   0.349 -0.0319 -1.1815 -1.2237
  106MOL0     H14310   5.311   1.288   0.365  0.9718 -2.9082 -0.9467
  107MOL0     O14311   6.912  11.357   1.385 -0.4369 -0.2760 -0.9454
  107MOL0     C14312   6.862  11.377   1.276  0.1723  0.3956  0.2208
  107MOL0     O14313   6.930  11.377   1.162  0.4509 -0.2713  0.0579
  107MOL0     C14314   7.065  11.356   1.163 -0.3558  0.2640  0.3378
  107MOL0     C14315   7.127  11.256   1.242 -0.4368  0.0313  0.2364
  107MOL0     C14316   7.266  11.248   1.259  0.3657 -0.2122 -0.4542
  107MOL0     C14317   7.345  11.334   1.185  0.5525 -0.3068 -0.2144
  107MOL0     O14318   7.477  11.346   1.198 -0.1421  0.0416 -0.5102
  107MOL0     C14319   7.551  11.273   1.298 -0.3748  0.6317 -0.0903
  107MOL0     C14320   7.698  11.294   1.274 -0.4667  0.3858 -0.3014
  107MOL0     C14321   7.796  11.212   1.350 -0.9543  0.0704  0.2428
  107MOL0     C14322   7.765  11.199   1.508 -0.4441 -0.1720 -0.0607
  107MOL0     C14323   7.888  11.137   1.566 -0.3625  1.2811 -1.1653
  107MOL0     C14324   7.865  11.117   1.719 -1.3284  0.0730 -0.2259
  107MOL0     C14325   7.979  11.032   1.781  0.0117  0.6168  0.0823
  107MOL0     C14326   8.118  11.082   1.768 -0.1147 -0.3600  0.5061
  107MOL0     N14327   8.212  10.998   1.842 -0.7921  0.1965 -0.3658
  107MOL0     C14328   8.340  11.041   1.879  0.9808 -0.3504 -0.2948
  107MOL0     C14329   8.407  10.936   1.934 -0.5300  0.8255  0.2160
  107MOL0     C14330   8.554  10.957   1.987  0.3382  0.5489 -0.7427
  107MOL0     C14331   8.638  11.067   1.909 -0.2015  0.2408  0.3065
  107MOL0     C14332   8.786  11.056   1.954 -0.2341  0.1400  0.9011
  107MOL0     C14333   8.879  11.157   1.883 -0.2888 -0.3052  0.5908
  107MOL0     O14334   8.992  11.083   1.831 -0.4220  0.3646 -0.3083
  107MOL0     C14335   9.075  11.017   1.916 -0.0354  0.1517 -0.1457
  107MOL0     C14336   9.109  11.058   2.045 -0.5333  0.2436  0.4509
  107MOL0     C14337   9.204  10.991   2.118 -0.0840 -0.0761  0.0278
  107MOL0     C14338   9.248  10.864   2.075  0.4229 -0.8496  0.2394
  107MOL0     C14339   9.307  10.770   2.169  0.4240  0.3260 -0.1374
  107MOL0     O14340   9.375  10.670   2.113  0.7331 -0.3842  0.1736
  107MOL0     C14341   9.458  10.599   2.183 -0.3111  0.1012  0.8964
  107MOL0     C14342   9.566  10.650   2.247 -0.6115  0.4698 -0.2459
  107MOL0     C14343   9.662  10.572   2.303 -0.1678  0.4874  0.9230
  107MOL0     C14344   9.648  10.433   2.294  0.3388  0.1931  0.6142
  107MOL0     O14345   9.748  10.362   2.352  0.4364  1.0821  0.4352
  107MOL0     C14346   9.773  10.374   2.493 -0.4852  0.0659 -0.0413
  107MOL0     C14347   9.862  10.270   2.549  0.5812  0.4414  0.0036
  107MOL0     C14348   9.994  10.268   2.471 -0.9926 -0.3337  0.2795
  107MOL0     C14349  10.122  10.209   2.542  0.2986  0.2358 -0.9635
  107MOL0     C14350  10.248  10.252   2.458  0.6548  0.0182 -0.3085
  107MOL0     C14351  10.374  10.195   2.524  0.4870 -1.0156  0.3866
  107MOL0     C14352  10.376  10.040   2.545 -0.3019  0.5469 -0.3194
  107MOL0     C14353  10.517  10.000   2.604  0.0176 -0.1017 -0.4836
  107MOL0    Cl14354  10.537   9.825   2.644  0.1175 -0.1679  0.0465
  107MOL0     C14355   9.547  10.377   2.212 -0.2520  0.1178  0.1363
  107MOL0     C14356   9.453  10.463   2.152 -0.2072 -0.7662 -0.3025
  107MOL0     O14357   9.287  10.778   2.292 -0.5494 -0.0667  0.7775
  107MOL0     C14358   9.218  10.823   1.951  0.8099  1.1311  0.0755
  107MOL0     C14359   9.137  10.905   1.869  0.3142 -0.2707  0.0661
  107MOL0     N14360   8.305  10.834   1.946 -0.0693 -0.0905  0.1088
  107MOL0     N14361   8.207  10.873   1.889 -0.9817  0.1051 -1.4351
  107MOL0     C14362   7.285  11.421   1.093 -0.0772  0.4875 -0.4773
  107MOL0     C14363   7.145  11.434   1.079  0.1864 -0.0154  0.2049
  107MOL0     C14364   6.713  11.393   1.265  0.2134  0.1436 -0.0153
  107MOL0     C14365   6.643  11.456   1.370  0.3537 -0.4878 -0.4890
  107MOL0     C14366   6.498  11.474   1.364 -0.1827 -0.1364  0.3374
  107MOL0     C14367   6.417  11.415   1.259 -0.6899 -0.6516  0.5244
  107MOL0     O14368   6.280  11.426   1.254 -0.1199 -0.5993 -0.1218
  107MOL0     C14369   6.207  11.390   1.371  0.3957 -0.3825 -0.2010
  107MOL0     C14370   6.065  11.434   1.346 -0.8928  0.2347 -0.9487
  107MOL0     C14371   5.985  11.436   1.472  0.2320  0.0617  0.1749
  107MOL0     C14372   5.851  11.366   1.447  1.1385 -1.0765  0.5117
  107MOL0     C14373   5.764  11.418   1.339  0.2125  0.2464 -0.1663
  107MOL0     C14374   5.708  11.472   1.247  0.9095  0.2323  0.0266
  107MOL0     C14375   6.488  11.355   1.159 -0.0718 -0.6432 -0.0089
  107MOL0     C14376   6.623  11.344   1.160  0.0549 -0.3023 -0.3982
  107MOL0     C14377   6.691  11.294   1.030  0.0417  0.3793 -0.2973
  107MOL0     H14378   7.060  11.192   1.299  1.1951 -0.4504  1.7060
  107MOL0     H14379   7.313  11.170   1.318  0.0843 -1.5133 -1.8840
  107MOL0     H14380   7.521  11.302   1.400  1.1557 -3.4120  1.7313
  107MOL0     H14381   7.531  11.167   1.284 -1.1896  0.2200  3.3204
  107MOL0     H14382   7.736  11.396   1.289  1.3854  0.0682 -2.3081
  107MOL0     H14383   7.711  11.274   1.167 -1.8732  1.3493 -0.6773
  107MOL0     H14384   7.890  11.266   1.340 -0.1922 -0.8733  1.9765
  107MOL0     H14385   7.815  11.116   1.301 -1.2452 -0.0973  0.4537
  107MOL0     H14386   7.745  11.297   1.551  0.7508 -0.1937  0.5862
  107MOL0     H14387   7.680  11.134   1.534 -1.8291  1.7493  0.4079
  107MOL0     H14388   7.897  11.043   1.510 -0.9075  1.5056 -1.6357
  107MOL0     H14389   7.976  11.197   1.541  0.5477  1.1548  1.3966
  107MOL0     H14390   7.870  11.220   1.753  0.1143  0.5373 -1.6938
  107MOL0     H14391   7.776  11.056   1.740 -0.7112 -1.4375 -1.7397
  107MOL0     H14392   7.976  10.926   1.754 -1.3667  0.0770  2.1124
  107MOL0     H14393   7.954  11.039   1.887  1.3869 -1.1434  0.5558
  107MOL0     H14394   8.145  11.074   1.662 -0.6166 -0.9329  0.4187
  107MOL0     H14395   8.137  11.184   1.804  0.8375 -0.5971  0.7171
  107MOL0     H14396   8.379  11.142   1.874  2.1620 -0.8238 -0.9273
  107MOL0     H14397   8.544  10.977   2.094  1.8106  2.4395 -0.8916
  107MOL0     H14398   8.617  10.868   1.982 -2.1011 -1.3758  0.7390
  107MOL0     H14399   8.626  11.045   1.803  0.7351  0.3740  0.1594
  107MOL0     H14400   8.604  11.168   1.935  1.6963  0.2869  3.0106
  107MOL0     H14401   8.826  10.955   1.951  2.4904  1.1644 -1.2907
  107MOL0     H14402   8.794  11.082   2.060 -2.6635  0.4944  1.0427
  107MOL0     H14403   8.902  11.239   1.952  1.7653 -0.1470 -0.2135
  107MOL0     H14404   8.835  11.200   1.793 -0.6950 -2.4491 -0.3071
  107MOL0     H14405   9.062  11.149   2.083  1.7034  1.4608  0.4384
  107MOL0     H14406   9.245  11.018   2.215  0.6832  1.0018 -0.5768
  107MOL0     H14407   9.580  10.757   2.262  3.2023  0.1113 -0.2309
  107MOL0     H14408   9.747  10.622   2.349  0.4076  0.6376 -0.2626
  107MOL0     H14409   9.820  10.472   2.507 -0.9826  0.4255 -0.7805
  107MOL0     H14410   9.672  10.382   2.536  0.2852  5.1055  1.5436
  107MOL0     H14411   9.891  10.290   2.653  1.5268  1.6204 -0.4779
  107MOL0     H14412   9.801  10.179   2.543 -2.4518  2.3734 -0.8718
  107MOL0     H14413   9.969  10.200   2.389 -0.7053 -0.0984 -0.0038
  107MOL0     H14414  10.014  10.369   2.435  3.1409  0.1926  3.3116
  107MOL0     H14415  10.106  10.101   2.537  1.2645  0.0967 -1.2491
  107MOL0     H14416  10.137  10.239   2.646 -0.2785  1.3394 -1.1772
  107MOL0     H14417  10.254  10.361   2.462 -0.5406  0.1513 -1.3116
  107MOL0     H14418  10.243  10.220   2.353  0.2906 -2.6245  0.4411
  107MOL0     H14419  10.458  10.218   2.458 -0.3535 -1.4097 -0.8490
  107MOL0     H14420  10.387  10.235   2.625 -0.3191  2.6946 -0.8583
  107MOL0     H14421  10.356   9.981   2.456  0.3657 -1.2407  0.6604
  107MOL0     H14422  10.306  10.010   2.624  0.2084  1.9566  0.7137
  107MOL0     H14423  10.588  10.020   2.523  0.2828 -0.2856 -0.2940
  107MOL0     H14424  10.558  10.065   2.681  0.6458  2.5864 -2.8919
  107MOL0     H14425   9.535  10.270   2.197 -0.7195  0.2395 -0.3824
  107MOL0     H14426   9.374  10.422   2.090  0.1437 -0.4750 -0.9511
  107MOL0     H14427   9.242  10.720   1.925  0.0538  1.0151 -0.1965
  107MOL0     H14428   9.104  10.876   1.769  3.1520  1.7756 -1.6022
  107MOL0     H14429   7.338  11.485   1.024  1.1579  0.3532  0.3233
  107MOL0     H14430   7.106  11.512   1.015  0.6789  0.0247 -0.0516
  107MOL0     H14431   6.694  11.502   1.454 -2.2581  1.0987  0.3655
  107MOL0     H14432   6.445  11.523   1.446 -1.4875 -1.7463  0.4930
  107MOL0     H14433   6.251  11.441   1.457  0.5911  0.6545 -0.8924
  107MOL0     H14434   6.215  11.283   1.392  0.6562 -0.2712  0.2810
  107MOL0     H14435   6.022  11.359   1.279 -0.3598 -2.1805  1.2532
  107MOL0     H14436   6.069  11.537   1.310  0.4830  1.5727  2.5589
  107MOL0     H14437   5.971  11.542   1.495 -0.8085 -0.0872  0.2938
  107MOL0     H14438   6.031  11.382   1.555  1.4035 -2.9003 -2.2220
  107MOL0     H14439   5.873  11.264   1.415 -2.4057 -1.3404 -1.5378
  107MOL0     H14440   5.790  11.371   1.538 -0.7436 -1.2923 -0.7010
  107MOL0     H14441   5.646  11.498   1.163  4.0408 -1.1052 -2.9696
  107MOL0     H14442   6.431  11.325   1.072  1.4439  1.3074 -1.7850
  107MOL0     H14443   6.621  11.269   0.949  0.7387 -0.7301 -0.5821
  107MOL0     H14444   6.762  11.367   0.989  1.0282  1.8210  3.5786
  107MOL0     H14445   6.747  11.202   1.050  3.0087  1.5179 -2.5682
  108MOL0     O14446   4.906  10.475   1.703  0.1883  0.3422  0.5140
  108MOL0     C14447   5.009  10.447   1.770 -0.3386  0.5692 -0.0351
  108MOL0     O14448   5.037  10.332   1.836 -0.3492  0.2616 -0.0884
  108MOL0     C14449   4.952  10.225   1.854 -0.2280  0.1697  0.2490
  108MOL0     C14450   4.816  10.222   1.835 -0.8650  0.8102  0.6384
  108MOL0     C14451   4.742  10.108   1.866 -0.5262  0.7291  0.4991
  108MOL0     C14452   4.794   9.982   1.894 -0.1320  0.2772  0.1345
  108MOL0     O14453   4.709   9.886   1.935 -0.0840  0.0187 -0.8028
  108MOL0     C14454   4.596   9.865   1.857  0.0701 -0.3208 -0.2642
  108MOL0     C14455   4.523   9.740   1.893  0.0687  0.0940  0.3002
  108MOL0     C14456   4.379   9.756   1.840 -0.3842  0.3733 -0.0890
  108MOL0     C14457   4.306   9.618   1.862 -0.3333 -0.2983  0.5789
  108MOL0     C14458   4.156   9.636   1.818  0.0562  0.2819  0.2777
  108MOL0     C14459   4.077   9.508   1.801  0.3708  0.8970  0.5072
  108MOL0     C14460   3.927   9.531   1.811  0.0895  0.1045 -0.8892
  108MOL0     C14461   3.843   9.407   1.831 -0.4332  0.4429 -0.4197
  108MOL0     N14462   3.878   9.298   1.728 -0.8429 -0.3710  0.4642
  108MOL0     C14463   3.764   9.243   1.662 -0.1941 -0.3398  0.3150
  108MOL0     C14464   3.807   9.127   1.606 -0.2091 -0.3806  0.0447
  108MOL0     C14465   3.731   9.024   1.526 -0.6921  0.4196 -0.1941
  108MOL0     C14466   3.581   9.061   1.519 -0.8024 -0.5313 -0.0584
  108MOL0     C14467   3.498   9.058   1.649  0.6956  0.3086 -0.3124
  108MOL0     C14468   3.345   9.054   1.631 -0.6909  0.2727  0.2424
  108MOL0     O14469   3.305   9.189   1.603 -0.2041  0.7644  0.3200
  108MOL0     C14470   3.167   9.206   1.581  0.9515  1.2066 -0.1410
  108MOL0     C14471   3.092   9.107   1.517  0.4736  0.4983 -0.9068
  108MOL0     C14472   2.952   9.126   1.503 -0.3061 -0.2443  0.5876
  108MOL0     C14473   2.889   9.236   1.564  0.5380 -1.1244  0.7598
  108MOL0     C14474   2.737   9.254   1.583 -0.3294  0.4207  0.2137
  108MOL0     O14475   2.650   9.186   1.500  0.0106  0.1339 -0.8320
  108MOL0     C14476   2.508   9.195   1.517 -0.5281 -0.0425  0.4275
  108MOL0     C14477   2.449   9.199   1.642  0.1981  0.0739 -0.3535
  108MOL0     C14478   2.306   9.199   1.656  0.0282 -0.4336 -0.2323
  108MOL0     C14479   2.231   9.189   1.538  0.5719 -0.1144  0.2702
  108MOL0     O14480   2.093   9.200   1.545  0.4834 -0.1579 -0.3778
  108MOL0     C14481   2.020   9.291   1.634 -0.3172 -0.7993 -1.1268
  108MOL0     C14482   1.935   9.219   1.745 -0.4158  0.0212  0.2958
  108MOL0     C14483   1.848   9.109   1.688 -0.2253  0.8509  0.3741
  108MOL0     C14484   1.715   9.163   1.631  0.6070 -0.1751 -0.2244
  108MOL0     C14485   1.615   9.044   1.604 -0.7863 -0.2065  0.1045
  108MOL0     C14486   1.480   9.101   1.579  0.3942 -0.0320 -0.1401
  108MOL0     C14487   1.389   9.008   1.517 -0.0283  0.5000 -0.5332
  108MOL0     C14488   1.352   8.892   1.611  0.1228 -0.2581  0.4580
  108MOL0    Cl14489   1.254   8.926   1.748  0.1865 -0.0699 -0.1752
  108MOL0     C14490   2.288   9.177   1.415 -0.0428 -0.1533 -0.2070
  108MOL0     C14491   2.430   9.184   1.402  0.3107 -0.0891 -0.1701
  108MOL0     O14492   2.699   9.334   1.666  0.4073 -0.5396  0.0531
  108MOL0     C14493   2.968   9.331   1.624  0.4008 -1.1550 -0.6724
  108MOL0     C14494   3.104   9.323   1.625  0.3818 -0.1382  0.8283
  108MOL0     N14495   3.942   9.120   1.637  0.5343 -0.7257 -0.3928
  108MOL0     N14496   3.979   9.207   1.726  0.0457 -0.2174  0.0692
  108MOL0     C14497   4.938   9.979   1.909 -0.1149 -1.1852 -0.0737
  108MOL0     C14498   5.009  10.101   1.884  0.8055 -0.2623 -0.2932
  108MOL0     C14499   5.101  10.556   1.793 -0.7636  0.3002 -0.1283
  108MOL0     C14500   5.065  10.692   1.762  0.9679  0.3411 -0.4563
  108MOL0     C14501   5.145  10.807   1.783  0.0586  0.5876  0.0257
  108MOL0     C14502   5.274  10.782   1.847  0.0820 -0.4392  0.1998
  108MOL0     O14503   5.359  10.892   1.862  0.2583 -0.4635  0.3758
  108MOL0     C14504   5.502  10.883   1.845  0.5167  0.1571 -0.5321
  108MOL0     C14505   5.552  10.944   1.713 -0.3300  0.0162 -0.4230
  108MOL0     C14506   5.484  11.066   1.680  0.8728 -0.0618 -0.1462
  108MOL0     C14507   5.557  11.134   1.567  0.6231  0.4977 -0.7060
  108MOL0     C14508   5.496  11.257   1.504  0.3450 -0.1352 -0.6660
  108MOL0     C14509   5.448  11.355   1.444  0.5638  0.7371 -0.5692
  108MOL0     C14510   5.303  10.651   1.888  0.3307  0.0946  0.4465
  108MOL0     C14511   5.230  10.536   1.858 -0.6353 -0.1839 -0.0905
  108MOL0     C14512   5.298  10.402   1.899 -0.6790 -0.0626 -0.2924
  108MOL0     H14513   4.765  10.315   1.808 -1.0219 -0.0858 -2.6230
  108MOL0     H14514   4.634  10.121   1.858 -0.4912  0.9177  0.3338
  108MOL0     H14515   4.528   9.948   1.875  2.4523  2.3755 -2.7132
  108MOL0     H14516   4.620   9.876   1.751 -0.8604  1.4679 -0.3205
  108MOL0     H14517   4.528   9.714   1.999  0.7294 -0.5997  0.1118
  108MOL0     H14518   4.567   9.652   1.845 -0.3516  0.4951 -0.8541
  108MOL0     H14519   4.377   9.788   1.736 -1.1666 -2.4140 -0.9980
  108MOL0     H14520   4.328   9.833   1.898  1.3565  0.6112  1.2190
  108MOL0     H14521   4.341   9.541   1.792 -5.9723 -0.8730 -2.1857
  108MOL0     H14522   4.309   9.573   1.962  0.3118 -1.2832  0.1425
  108MOL0     H14523   4.096   9.702   1.882  1.2729  2.3362 -0.5921
  108MOL0     H14524   4.156   9.686   1.721 -3.8143  2.6467  1.2739
  108MOL0     H14525   4.101   9.474   1.700  0.8717  0.9627  0.6039
  108MOL0     H14526   4.109   9.435   1.875 -0.2569  0.8067  0.6959
  108MOL0     H14527   3.890   9.577   1.719 -1.9441  0.7592  0.1865
  108MOL0     H14528   3.889   9.604   1.883 -2.9840 -0.0703 -2.1433
  108MOL0     H14529   3.867   9.364   1.929  1.6125  0.0058 -1.0666
  108MOL0     H14530   3.735   9.427   1.828 -0.9164 -1.8600 -0.6176
  108MOL0     H14531   3.668   9.294   1.652  0.7234  1.3232 -0.4723
  108MOL0     H14532   3.781   9.037   1.430  0.0022  0.3008  0.1418
  108MOL0     H14533   3.750   8.924   1.564 -2.7100 -0.1277 -0.5033
  108MOL0     H14534   3.577   9.160   1.473  2.5287  1.0538  2.5937
  108MOL0     H14535   3.537   8.994   1.444 -1.2069  0.1019 -0.3939
  108MOL0     H14536   3.528   9.147   1.706 -0.1022  0.0572  0.5363
  108MOL0     H14537   3.519   8.965   1.702  2.3431  1.5421  1.3108
  108MOL0     H14538   3.297   9.021   1.723  0.6973 -0.1358  0.8402
  108MOL0     H14539   3.320   8.976   1.558 -2.8085 -0.3757  1.5765
  108MOL0     H14540   3.138   9.020   1.472  0.3737 -1.8083  2.9771
  108MOL0     H14541   2.891   9.044   1.467  1.8362 -1.3616 -0.7095
  108MOL0     H14542   2.499   9.196   1.739 -0.8235 -2.7234  0.1883
  108MOL0     H14543   2.271   9.208   1.758 -0.1504 -0.7565 -0.2616
  108MOL0     H14544   2.086   9.365   1.681  0.7448 -2.2901 -0.1863
  108MOL0     H14545   1.946   9.334   1.567 -1.3102 -3.1875 -1.6589
  108MOL0     H14546   1.995   9.174   1.825 -1.2713  0.7298  1.3529
  108MOL0     H14547   1.871   9.288   1.801 -1.2623  1.0043 -1.8041
  108MOL0     H14548   1.906   9.068   1.604  0.7943  0.1077  1.4119
  108MOL0     H14549   1.834   9.033   1.765  2.3294  0.7157  0.7860
  108MOL0     H14550   1.739   9.218   1.539 -0.8675  1.5468  0.3620
  108MOL0     H14551   1.667   9.234   1.698 -1.1410 -0.3464 -1.2362
  108MOL0     H14552   1.614   8.990   1.700 -2.7550 -1.7822 -0.7325
  108MOL0     H14553   1.657   8.991   1.519  2.3601 -0.2049  1.5381
  108MOL0     H14554   1.427   9.129   1.671 -0.0409  1.4819 -0.8145
  108MOL0     H14555   1.480   9.195   1.522 -0.1798  1.5306  2.2405
  108MOL0     H14556   1.444   8.971   1.430  1.8921  3.4039 -0.6961
  108MOL0     H14557   1.300   9.065   1.488 -0.8113 -0.4364 -0.0372
  108MOL0     H14558   1.310   8.815   1.546 -0.2198  0.2799  0.0314
  108MOL0     H14559   1.442   8.854   1.661 -0.7145 -3.0503 -0.0146
  108MOL0     H14560   2.216   9.176   1.333 -1.8662  1.0428  1.2808
  108MOL0     H14561   2.462   9.189   1.299 -3.3648 -0.8342 -1.5219
  108MOL0     H14562   2.914   9.416   1.663  0.3883 -0.4936 -2.0671
  108MOL0     H14563   3.155   9.414   1.654  0.5888 -0.2841  0.9212
  108MOL0     H14564   4.983   9.887   1.947  1.2623 -0.5875 -0.1956
  108MOL0     H14565   5.117  10.102   1.894  0.6654 -0.0890  1.5612
  108MOL0     H14566   4.965  10.721   1.730  1.2884  2.4951  0.3310
  108MOL0     H14567   5.120  10.910   1.760 -3.4473  0.0911  1.0944
  108MOL0     H14568   5.521  10.775   1.836 -1.5271 -0.1565 -1.7211
  108MOL0     H14569   5.559  10.917   1.932  0.7659 -4.2858  1.3096
  108MOL0     H14570   5.555  10.867   1.636  2.4929 -5.5469  4.4367
  108MOL0     H14571   5.661  10.941   1.713 -0.3406 -0.6469 -0.1893
  108MOL0     H14572   5.468  11.141   1.758 -2.2800 -0.3037 -0.4546
  108MOL0     H14573   5.385  11.050   1.638  0.9910 -0.8985 -0.1290
  108MOL0     H14574   5.654  11.172   1.598  1.1461 -1.0014 -0.4415
  108MOL0     H14575   5.573  11.051   1.498  2.0397 -1.1722  1.5072
  108MOL0     H14576   5.406  11.426   1.375  0.3058  1.3532  0.2169
  108MOL0     H14577   5.400  10.632   1.932  0.9279  3.3943  0.8207
  108MOL0     H14578   5.405  10.415   1.919 -0.7470 -0.8238  0.6511
  108MOL0     H14579   5.251  10.356   1.986  1.2580 -0.9028  0.3555
  108MOL0     H14580   5.286  10.333   1.815  0.2346 -1.0973  0.4011
  109MOL0     O14581   7.887  11.105   9.916  0.2369 -0.3265  0.3452
  109MOL0     C14582   7.808  11.198   9.922  0.2343 -0.5048  0.0904
  109MOL0     O14583   7.850  11.332   9.915 -0.1810 -0.0890  0.0874
  109MOL0     C14584   7.992  11.346   9.905  0.6192 -0.3020  0.6423
  109MOL0     C14585   8.060  11.356   9.779 -0.4544  0.2212  0.2568
  109MOL0     C14586   8.193  11.402   9.767  0.2751 -0.0006 -0.0929
  109MOL0     C14587   8.260  11.427   9.888 -0.3906  0.9399  0.1955
  109MOL0     O14588   8.392  11.468   9.879 -0.2622  0.2823 -0.5553
  109MOL0     C14589   8.462  11.352   9.908  1.3619 -0.1497 -0.9314
  109MOL0     C14590   8.609  11.372   9.899 -0.5332  0.1736  0.2536
  109MOL0     C14591   8.674  11.475   9.984  0.3353 -0.6087 -0.6206
  109MOL0     C14592   8.634  11.498  10.134 -0.0558 -0.3637 -0.1375
  109MOL0     C14593   8.727  11.572  10.217  0.0982 -0.1399  0.0725
  109MOL0     C14594   8.774  11.703  10.152  0.5673 -0.6795 -0.6496
  109MOL0     C14595   8.846  11.787  10.265  0.4443  0.7587 -0.0520
  109MOL0     C14596   8.934  11.898  10.215  0.2427 -0.0298 -0.0673
  109MOL0     N14597   8.854  11.980  10.115  0.1821  0.5747 -0.5228
  109MOL0     C14598   8.724  12.030  10.111 -0.2906  0.1872  0.0758
  109MOL0     C14599   8.731  12.107  10.004 -0.2443  0.5247  0.3185
  109MOL0     C14600   8.607  12.175   9.953  0.0220  0.6224  1.2086
  109MOL0     C14601   8.476  12.094   9.955  0.7404 -0.4651  0.4474
  109MOL0     C14602   8.481  11.962   9.891 -1.0311  0.4224 -0.0044
  109MOL0     C14603   8.346  11.892   9.849  0.2394 -0.8733  0.2151
  109MOL0     O14604   8.256  11.862   9.954 -0.5715 -0.0855 -0.7089
  109MOL0     C14605   8.130  11.822   9.924 -0.2654 -0.2249 -0.6246
  109MOL0     C14606   8.054  11.801  10.040 -0.7475 -0.6188  0.0661
  109MOL0     C14607   7.930  11.733  10.027 -0.2516 -0.7198 -0.0966
  109MOL0     C14608   7.873  11.699   9.905  0.5861  0.2482  0.3841
  109MOL0     C14609   7.744  11.620   9.891 -0.9529 -0.0311 -0.7246
  109MOL0     O14610   7.719  11.564   9.770  0.0880 -0.1880  0.3068
  109MOL0     C14611   7.588  11.541   9.735  0.9540 -0.7376 -0.7210
  109MOL0     C14612   7.568  11.441   9.642  0.0157  0.6773  0.3111
  109MOL0     C14613   7.437  11.407   9.598 -0.0416  0.5458 -0.6016
  109MOL0     C14614   7.323  11.466   9.655  0.2107 -0.8255  0.4542
  109MOL0     O14615   7.195  11.443   9.611 -0.4541 -0.8563  0.3722
  109MOL0     C14616   7.094  11.467   9.705  0.1272 -0.8069  0.2681
  109MOL0     C14617   6.965  11.419   9.634 -0.1762 -0.3464 -0.0328
  109MOL0     C14618   6.837  11.431   9.717  0.1322  0.0437 -0.5925
  109MOL0     C14619   6.710  11.404   9.644 -1.2051 -0.0443 -0.2905
  109MOL0     C14620   6.580  11.429   9.719  0.0835 -0.7155  0.1410
  109MOL0     C14621   6.543  11.304   9.794 -0.7341 -0.7754 -0.0286
  109MOL0     C14622   6.409  11.316   9.863 -0.6645  0.4020  0.6381
  109MOL0     C14623   6.300  11.361   9.782  0.2525  0.1798 -0.3256
  109MOL0    Cl14624   6.150  11.305   9.864 -0.4259 -0.4408 -0.0389
  109MOL0     C14625   7.350  11.574   9.745 -0.7751 -0.7550 -0.8310
  109MOL0     C14626   7.474  11.605   9.784 -0.1099  0.3621  0.1960
  109MOL0     O14627   7.680  11.602   9.992  0.9697  0.4142  1.1064
  109MOL0     C14628   7.953  11.718   9.786  0.5611  0.9511 -0.6116
  109MOL0     C14629   8.081  11.776   9.795  0.3341  0.1168 -0.4829
  109MOL0     N14630   8.848  12.101   9.945  0.0883 -0.4547 -0.1438
  109MOL0     N14631   8.931  12.032  10.010 -0.2037 -0.0986 -1.3959
  109MOL0     C14632   8.198  11.424  10.015  0.4289 -0.0358  0.6917
  109MOL0     C14633   8.060  11.376  10.021 -0.5384  0.0364 -0.3507
  109MOL0     C14634   7.658  11.166   9.919 -0.5765  0.4034 -0.2087
  109MOL0     C14635   7.579  11.276   9.925  0.9504 -0.4635  0.2479
  109MOL0     C14636   7.437  11.269   9.932  0.3720  0.3127  0.7505
  109MOL0     C14637   7.375  11.150   9.924  0.5894 -0.6134  0.8443
  109MOL0     O14638   7.236  11.151   9.918  0.4429 -0.2184  0.2632
  109MOL0     C14639   7.178  11.056   9.822  0.3196 -0.3905 -0.3670
  109MOL0     C14640   7.233  11.079   9.678 -0.8765  0.0897  0.5363
  109MOL0     C14641   7.141  11.021   9.570 -0.1315 -0.0633  0.3521
  109MOL0     C14642   7.130  11.116   9.444 -0.1644  0.3447 -1.5920
  109MOL0     C14643   7.254  11.093   9.359 -0.6631 -0.9512 -0.1699
  109MOL0     C14644   7.358  11.086   9.291  1.1603  1.1167 -0.5231
  109MOL0     C14645   7.452  11.034   9.912  0.5506 -0.0298  0.7384
  109MOL0     C14646   7.592  11.035   9.917  0.5824  0.5825 -0.1067
  109MOL0     C14647   7.672  10.905   9.910  0.2678 -0.5387 -0.2490
  109MOL0     H14648   7.993  11.343   9.694  0.0173  0.8529 -0.2198
  109MOL0     H14649   8.246  11.437   9.679 -0.8119  4.1683  0.6600
  109MOL0     H14650   8.429  11.307  10.003  3.5359  0.4124  0.1695
  109MOL0     H14651   8.435  11.283   9.828 -1.5613  2.1385 -2.0666
  109MOL0     H14652   8.632  11.403   9.797  2.0247 -1.1772  0.3408
  109MOL0     H14653   8.655  11.276   9.924 -4.5966 -1.6662  1.3717
  109MOL0     H14654   8.665  11.574   9.938  2.2664  0.9527  2.0531
  109MOL0     H14655   8.783  11.463   9.991  0.2031 -0.6667  1.9842
  109MOL0     H14656   8.542  11.556  10.144 -0.6679 -1.2240 -0.6022
  109MOL0     H14657   8.596  11.404  10.176 -1.1429  0.8886  1.8501
  109MOL0     H14658   8.672  11.588  10.310 -1.1533 -2.1390 -0.2740
  109MOL0     H14659   8.809  11.505  10.245  0.3164  0.3104  0.5206
  109MOL0     H14660   8.847  11.679  10.074  0.3784  3.8034 -2.5175
  109MOL0     H14661   8.693  11.754  10.099  1.2207 -1.0088 -2.0092
  109MOL0     H14662   8.911  11.725  10.328  1.0583  0.6907 -0.7454
  109MOL0     H14663   8.766  11.827  10.328 -1.1986  0.0216 -1.5525
  109MOL0     H14664   8.966  11.956  10.302  1.4661 -0.8080  0.0240
  109MOL0     H14665   9.026  11.858  10.171 -0.3569  0.3070 -1.6979
  109MOL0     H14666   8.641  11.991  10.168 -2.8136  1.8227 -2.2024
  109MOL0     H14667   8.580  12.263  10.012  2.4464  0.7165  2.2679
  109MOL0     H14668   8.616  12.201   9.848 -1.1208 -0.1136  0.9004
  109MOL0     H14669   8.453  12.084  10.061  0.0382 -2.6845  0.1415
  109MOL0     H14670   8.396  12.156   9.914  0.9459 -0.5032 -0.0168
  109MOL0     H14671   8.528  11.896   9.964 -2.8323  1.1886  1.9561
  109MOL0     H14672   8.548  11.964   9.805  0.7386 -2.1038  1.1954
  109MOL0     H14673   8.391  11.804   9.800  3.3080  0.2235  0.8391
  109MOL0     H14674   8.297  11.940   9.764  0.1544 -1.6926 -0.2081
  109MOL0     H14675   8.105  11.834  10.130  0.6259 -0.0188 -0.8959
  109MOL0     H14676   7.869  11.727  10.117  1.3964 -0.3176  1.0901
  109MOL0     H14677   7.658  11.394   9.602 -0.2794  0.1414  0.2623
  109MOL0     H14678   7.431  11.329   9.523 -2.3764 -0.2197  0.2676
  109MOL0     H14679   7.108  11.405   9.794  0.0541 -2.9452 -1.1349
  109MOL0     H14680   7.080  11.569   9.743 -1.3213 -0.1709 -1.7553
  109MOL0     H14681   6.960  11.467   9.536  0.2500 -2.3328 -1.0751
  109MOL0     H14682   6.977  11.312   9.618 -0.7550 -0.7012  1.7383
  109MOL0     H14683   6.842  11.360   9.799 -0.5757  0.8098  0.1289
  109MOL0     H14684   6.837  11.530   9.762  1.0806  0.7053 -1.9709
  109MOL0     H14685   6.708  11.302   9.604  0.0200  0.1710 -0.9439
  109MOL0     H14686   6.715  11.465   9.553  0.1799 -0.5902 -0.6020
  109MOL0     H14687   6.496  11.460   9.656 -1.8525 -3.0223  1.4427
  109MOL0     H14688   6.588  11.511   9.790  0.4590 -3.4202  3.4457
  109MOL0     H14689   6.544  11.221   9.723  1.5363 -0.9532  0.1424
  109MOL0     H14690   6.615  11.278   9.872  0.4312  2.4699  0.1653
  109MOL0     H14691   6.419  11.393   9.940 -2.5884 -0.7180  2.1229
  109MOL0     H14692   6.387  11.222   9.915  1.5082  0.3935  1.6783
  109MOL0     H14693   6.290  11.470   9.780 -2.2422  0.1032  2.2115
  109MOL0     H14694   6.307  11.314   9.683 -1.6450  1.6600 -1.2418
  109MOL0     H14695   7.280  11.647   9.785  0.3539 -0.5101  0.8337
  109MOL0     H14696   7.487  11.684   9.858  0.0802  0.9088 -0.4166
  109MOL0     H14697   7.918  11.675   9.693 -4.4561  1.9048  0.5130
  109MOL0     H14698   8.143  11.785   9.706 -0.5788 -1.7455 -1.3612
  109MOL0     H14699   8.247  11.444  10.110  1.4693 -0.1799  0.1962
  109MOL0     H14700   7.997  11.371  10.109 -0.1240  0.3253 -0.0305
  109MOL0     H14701   7.616  11.376   9.942 -2.7639  1.0918 -0.0370
  109MOL0     H14702   7.380  11.359   9.952  1.1700  0.5467  2.0580
  109MOL0     H14703   7.070  11.075   9.821 -0.2565 -3.2161  0.6210
  109MOL0     H14704   7.185  10.950   9.845  2.2146 -0.1219  0.4935
  109MOL0     H14705   7.335  11.039   9.671 -0.2576  1.3399  1.8700
  109MOL0     H14706   7.243  11.187   9.668  1.3093 -0.2864 -3.2512
  109MOL0     H14707   7.038  11.017   9.606 -1.4344  0.0146 -2.9530
  109MOL0     H14708   7.175  10.919   9.548 -0.3195 -0.3797  1.4864
  109MOL0     H14709   7.031  11.093   9.404 -1.1685 -2.4169  1.9225
  109MOL0     H14710   7.130  11.220   9.477 -1.3545 -0.2527  0.5151
  109MOL0     H14711   7.450  11.080   9.236  2.1474  0.4836  1.1142
  109MOL0     H14712   7.394  10.944   9.891 -4.0087  2.5769  0.9863
  109MOL0     H14713   7.711  10.899   9.808  0.0225  2.2489 -0.5990
  109MOL0     H14714   7.751  10.900   9.985  2.1756 -1.0503 -2.1837
  109MOL0     H14715   7.602  10.827   9.942 -0.0154  0.5296  1.9442
  110MOL0     O14716   8.186   0.223   4.990  0.0891  0.5895  0.0207
  110MOL0     C14717   8.189   0.153   4.891 -0.3298 -0.6118 -0.2242
  110MOL0     O14718   8.087   0.148   4.799 -0.2147  0.3322  0.0229
  110MOL0     C14719   8.000   0.248   4.789 -0.3969  0.3687  0.1523
  110MOL0     C14720   7.875   0.227   4.842  0.1663  0.3911 -0.0013
  110MOL0     C14721   7.771   0.327   4.837 -0.5346 -0.0848 -0.1466
  110MOL0     C14722   7.812   0.450   4.772 -0.1818 -0.2710 -0.0109
  110MOL0     O14723   7.729   0.563   4.765  0.3199 -0.6033 -0.0123
  110MOL0     C14724   7.644   0.589   4.878 -0.2117  0.2468 -0.2601
  110MOL0     C14725   7.565   0.720   4.865 -0.2212 -0.6771  0.8512
  110MOL0     C14726   7.462   0.697   4.756 -0.6211  0.5654  0.1865
  110MOL0     C14727   7.356   0.811   4.735 -0.8106  1.1580 -0.2857
  110MOL0     C14728   7.270   0.784   4.614  0.6460  0.7147  0.4855
  110MOL0     C14729   7.167   0.671   4.621  0.6140  0.4703  0.4501
  110MOL0     C14730   7.046   0.693   4.537  0.4643  0.2119 -0.4010
  110MOL0     C14731   6.913   0.763   4.587 -0.0021 -0.5151 -1.0747
  110MOL0     N14732   6.940   0.902   4.618  0.6014 -0.1932  0.0973
  110MOL0     C14733   6.975   0.955   4.739 -0.0778 -0.3780  0.0669
  110MOL0     C14734   6.999   1.088   4.717 -0.0228 -0.0198  0.2765
  110MOL0     C14735   7.033   1.175   4.836 -0.1095 -0.9064  0.3838
  110MOL0     C14736   7.184   1.175   4.854 -0.4401 -0.4280 -0.7683
  110MOL0     C14737   7.238   1.317   4.892  0.2489 -0.6410  0.8413
  110MOL0     C14738   7.360   1.304   4.978 -0.3560 -0.4789  0.4144
  110MOL0     O14739   7.465   1.240   4.903  0.7180  1.1424 -0.1540
  110MOL0     C14740   7.594   1.227   4.942 -1.2668 -0.4226  0.9143
  110MOL0     C14741   7.678   1.168   4.845  0.1428  0.1160  0.3550
  110MOL0     C14742   7.819   1.179   4.870  0.6797  0.0547 -0.4911
  110MOL0     C14743   7.873   1.214   4.995  0.5193  0.3743 -0.6017
  110MOL0     C14744   8.012   1.198   5.019  0.2248 -0.1488 -0.0649
  110MOL0     O14745   8.071   1.101   4.944 -0.3394 -0.8331  0.1343
  110MOL0     C14746   8.197   1.074   4.975 -1.0683  0.6269  0.5500
  110MOL0     C14747   8.214   0.979   5.076 -0.5871 -0.7166  0.0500
  110MOL0     C14748   8.334   0.915   5.096 -0.3528  1.1051  0.7318
  110MOL0     C14749   8.451   0.956   5.027 -1.1567 -0.4784 -0.2099
  110MOL0     O14750   8.571   0.897   5.071  0.0033  0.3072  0.3978
  110MOL0     C14751   8.607   0.929   5.202 -0.4266 -0.4255  0.0062
  110MOL0     C14752   8.754   0.899   5.213  1.5296 -0.0294  0.3508
  110MOL0     C14753   8.841   0.972   5.114  0.0626  0.1422  1.3364
  110MOL0     C14754   8.994   0.922   5.110 -0.4402 -0.5231 -0.4036
  110MOL0     C14755   9.061   0.974   4.979  0.4851  0.2210 -1.6964
  110MOL0     C14756   9.203   0.918   4.954 -0.1110 -0.0168  0.5991
  110MOL0     C14757   9.236   0.937   4.800 -0.1191  0.5200  0.5276
  110MOL0     C14758   9.378   0.987   4.781  0.6362 -0.3997 -0.3949
  110MOL0    Cl14759   9.381   1.166   4.817  0.1060 -0.0136 -0.1220
  110MOL0     C14760   8.443   1.058   4.941 -0.9402  0.0834 -0.3942
  110MOL0     C14761   8.313   1.119   4.910 -0.3021  0.7942 -0.6234
  110MOL0     O14762   8.069   1.276   5.096 -0.1546  0.1359  0.2145
  110MOL0     C14763   7.787   1.263   5.097  0.3250 -0.6991 -0.2952
  110MOL0     C14764   7.648   1.264   5.063  0.2824  0.0142  0.5352
  110MOL0     N14765   6.976   1.108   4.583  0.1220  0.7251  0.9215
  110MOL0     N14766   6.945   0.991   4.522  0.5180 -0.3386 -0.0675
  110MOL0     C14767   7.938   0.468   4.715  1.0870 -0.1028  0.5137
  110MOL0     C14768   8.031   0.366   4.720  0.1561  0.3803 -0.5605
  110MOL0     C14769   8.301   0.052   4.896 -0.5639 -0.5419  0.1234
  110MOL0     C14770   8.388   0.068   5.001 -0.2571 -0.4262 -0.3574
  110MOL0     C14771   8.482  -0.027   5.022 -0.6825  0.3183 -0.0997
  110MOL0     C14772   8.512  -0.142   4.944  0.5119  0.0235 -0.5721
  110MOL0     O14773   8.622  -0.211   4.984 -0.3268  0.7598 -0.6535
  110MOL0     C14774   8.631  -0.339   4.918  0.3149 -0.2268 -0.3801
  110MOL0     C14775   8.759  -0.420   4.951  0.0710  0.0363  0.6139
  110MOL0     C14776   8.881  -0.331   4.940 -0.1545 -0.7204  0.5841
  110MOL0     C14777   9.004  -0.407   4.967 -0.9696  0.7668  0.4353
  110MOL0     C14778   9.111  -0.326   4.908 -0.9279  0.3392 -0.5479
  110MOL0     C14779   9.210  -0.263   4.875  0.7927 -0.7883 -0.3534
  110MOL0     C14780   8.423  -0.158   4.832 -0.1619 -0.3701  0.1373
  110MOL0     C14781   8.322  -0.062   4.807  0.0628 -0.6656  0.1850
  110MOL0     C14782   8.225  -0.091   4.694  0.2019  0.0211 -0.4439
  110MOL0     H14783   7.871   0.127   4.883  3.8355 -0.2364 -0.7923
  110MOL0     H14784   7.677   0.324   4.892  0.0998 -2.9646  0.9439
  110MOL0     H14785   7.572   0.512   4.905 -2.4375  2.8093  1.5692
  110MOL0     H14786   7.701   0.597   4.971 -0.6009 -1.0661  0.1084
  110MOL0     H14787   7.631   0.797   4.825 -0.9372 -1.0319 -1.1518
  110MOL0     H14788   7.523   0.751   4.961  2.6217 -0.6949  2.1776
  110MOL0     H14789   7.396   0.614   4.783 -0.8778  0.5791 -0.3815
  110MOL0     H14790   7.507   0.661   4.663  0.5064 -1.2926  1.3755
  110MOL0     H14791   7.306   0.811   4.832  1.2709  2.3511  0.8551
  110MOL0     H14792   7.411   0.904   4.719  3.0866 -0.6773  1.1332
  110MOL0     H14793   7.227   0.883   4.596 -1.0748 -0.2965 -1.3175
  110MOL0     H14794   7.335   0.757   4.530 -1.8846 -1.5956 -0.8658
  110MOL0     H14795   7.227   0.591   4.576 -0.3665  0.4137 -0.7844
  110MOL0     H14796   7.129   0.648   4.722 -1.9708  1.7640 -0.1481
  110MOL0     H14797   7.018   0.592   4.505  1.5975 -1.2106  2.6164
  110MOL0     H14798   7.076   0.753   4.451  0.5546  2.3038  1.0064
  110MOL0     H14799   6.842   0.765   4.504  0.1531  2.0744 -1.2180
  110MOL0     H14800   6.884   0.714   4.680  1.9455  0.1856 -0.0517
  110MOL0     H14801   6.982   0.911   4.838 -1.5579  0.8157  0.7524
  110MOL0     H14802   6.980   1.270   4.821 -2.9038 -2.4116  0.1720
  110MOL0     H14803   6.994   1.143   4.932  1.0286  0.3433  1.3099
  110MOL0     H14804   7.201   1.112   4.942 -0.2767 -1.1780 -1.3340
  110MOL0     H14805   7.241   1.133   4.771 -1.5737  0.1983 -1.9088
  110MOL0     H14806   7.159   1.367   4.949  1.1409 -0.2556  1.7775
  110MOL0     H14807   7.257   1.373   4.800  0.0343 -2.8012 -0.6089
  110MOL0     H14808   7.330   1.253   5.070 -3.1835 -0.2014 -0.2420
  110MOL0     H14809   7.397   1.404   5.003  0.5159 -0.3203 -1.3934
  110MOL0     H14810   7.649   1.143   4.744 -1.1272  0.3342  0.6431
  110MOL0     H14811   7.887   1.150   4.791  2.0267 -2.0831  1.3133
  110MOL0     H14812   8.130   0.938   5.132 -2.8847  0.9914 -1.9219
  110MOL0     H14813   8.351   0.833   5.165 -0.7455  0.3854 -0.0031
  110MOL0     H14814   8.597   1.035   5.226  1.6869 -0.6177  2.2056
  110MOL0     H14815   8.547   0.876   5.277 -0.5414 -0.3282 -0.0162
  110MOL0     H14816   8.791   0.916   5.315  2.9957  0.9185 -0.2931
  110MOL0     H14817   8.774   0.792   5.202  1.0040 -0.1165  0.2546
  110MOL0     H14818   8.804   0.955   5.013  0.9403 -1.1258  1.2111
  110MOL0     H14819   8.841   1.080   5.134  1.6281  0.5524 -0.5911
  110MOL0     H14820   9.003   0.813   5.116 -0.4481 -0.4803  0.6138
  110MOL0     H14821   9.050   0.957   5.197  0.6350  1.7611 -1.9110
  110MOL0     H14822   9.064   1.084   4.980  1.8213  0.2183  0.4639
  110MOL0     H14823   8.997   0.933   4.900  0.4709 -0.1464 -1.4942
  110MOL0     H14824   9.271   0.973   5.020 -1.7427  2.0945  0.6484
  110MOL0     H14825   9.213   0.814   4.986  0.6874  0.4803  2.0763
  110MOL0     H14826   9.169   1.013   4.757 -1.5963 -0.6858  0.6172
  110MOL0     H14827   9.220   0.840   4.754  0.3428 -0.0508  1.5395
  110MOL0     H14828   9.452   0.942   4.848  0.6311 -1.7969 -1.2696
  110MOL0     H14829   9.399   0.964   4.676 -2.5383 -1.1286 -0.9695
  110MOL0     H14830   8.533   1.095   4.894  0.1715 -2.4344 -0.4323
  110MOL0     H14831   8.307   1.201   4.840 -0.5599  1.1667 -0.1689
  110MOL0     H14832   7.815   1.290   5.198 -1.6463 -0.4202  0.2203
  110MOL0     H14833   7.579   1.299   5.139  1.0911  0.4057  1.0967
  110MOL0     H14834   7.957   0.562   4.664 -0.0618 -1.0541 -1.8306
  110MOL0     H14835   8.132   0.370   4.681  0.2388 -0.1066 -0.4032
  110MOL0     H14836   8.386   0.155   5.066  1.9314 -2.4291  2.6738
  110MOL0     H14837   8.551  -0.017   5.105 -0.1321 -1.0874 -0.3522
  110MOL0     H14838   8.621  -0.323   4.810 -1.2902 -0.7262 -0.3302
  110MOL0     H14839   8.549  -0.400   4.956 -0.7502  1.4690  0.1359
  110MOL0     H14840   8.769  -0.506   4.884 -2.4330  0.1312  0.0403
  110MOL0     H14841   8.745  -0.465   5.049  2.0070 -2.6722 -0.2291
  110MOL0     H14842   8.873  -0.248   5.010  1.8347 -0.2410  0.2789
  110MOL0     H14843   8.881  -0.298   4.836  3.4452 -1.5078  0.2016
  110MOL0     H14844   9.011  -0.405   5.077 -0.2087  0.7569  0.3909
  110MOL0     H14845   9.009  -0.505   4.920  0.2050  0.3106  1.4557
  110MOL0     H14846   9.300  -0.208   4.854  1.3655 -0.9757  1.4376
  110MOL0     H14847   8.426  -0.244   4.766 -1.2991 -0.1585 -0.2166
  110MOL0     H14848   8.234  -0.198   4.676 -0.2964 -0.1156  0.0705
  110MOL0     H14849   8.121  -0.065   4.717  0.7617  0.4531  1.9609
  110MOL0     H14850   8.246  -0.040   4.600 -3.0474 -0.2890 -1.4715
  111MOL0     O14851   6.747   2.113   1.467  0.1739 -0.0459 -0.4059
  111MOL0     C14852   6.730   2.019   1.544  0.0315 -0.6277 -0.1560
  111MOL0     O14853   6.839   1.951   1.602  0.0172  0.1310 -0.7039
  111MOL0     C14854   6.967   1.987   1.579 -0.1165 -0.2563 -0.6105
  111MOL0     C14855   7.027   2.045   1.466 -0.5994 -0.2184  0.3319
  111MOL0     C14856   7.164   2.050   1.447  0.9716  0.5164  0.1811
  111MOL0     C14857   7.253   2.000   1.533  0.6415 -0.9513  0.7823
  111MOL0     O14858   7.390   2.006   1.501  0.1970  0.5900  0.3258
  111MOL0     C14859   7.482   1.961   1.596  0.1704  0.1514 -0.0724
  111MOL0     C14860   7.614   1.953   1.533  0.8999 -0.0467 -0.2966
  111MOL0     C14861   7.625   1.851   1.414 -0.3100 -1.4026  0.2876
  111MOL0     C14862   7.760   1.861   1.345 -0.4593 -0.0398 -0.3342
  111MOL0     C14863   7.785   1.749   1.244  1.0842  0.3940 -0.4448
  111MOL0     C14864   7.918   1.779   1.171 -0.3114  0.2109  0.6238
  111MOL0     C14865   7.898   1.879   1.048 -0.7260 -0.5736  0.1396
  111MOL0     C14866   8.017   1.889   0.955 -0.2349  0.2959  0.2583
  111MOL0     N14867   8.126   1.962   1.014 -0.0302 -0.8381  0.0847
  111MOL0     C14868   8.246   1.913   1.036  0.1195 -0.6838  0.1472
  111MOL0     C14869   8.320   2.001   1.104  0.2483  0.4339 -1.2036
  111MOL0     C14870   8.446   1.976   1.172  0.1974 -0.3775 -0.6796
  111MOL0     C14871   8.553   1.887   1.105  0.3520 -0.3679 -0.2775
  111MOL0     C14872   8.616   1.953   0.985  0.6466  1.0922 -0.1519
  111MOL0     C14873   8.738   1.887   0.939 -0.0637 -0.5782  0.2844
  111MOL0     O14874   8.785   1.937   0.815 -0.2050  0.4641  0.5210
  111MOL0     C14875   8.919   1.970   0.804  0.4748 -0.6259 -0.5996
  111MOL0     C14876   8.947   2.064   0.703  0.0927 -0.3560 -0.6207
  111MOL0     C14877   9.078   2.119   0.686 -0.0614 -0.8520  0.1540
  111MOL0     C14878   9.183   2.094   0.782  0.0062  0.2667  0.9064
  111MOL0     C14879   9.321   2.159   0.783  1.1000 -0.4137  0.1594
  111MOL0     O14880   9.344   2.242   0.685  0.2214 -0.0430  0.6149
  111MOL0     C14881   9.470   2.251   0.634 -0.5368 -0.0714  0.2794
  111MOL0     C14882   9.602   2.204   0.673 -0.3573 -0.3558 -0.3274
  111MOL0     C14883   9.708   2.260   0.594 -0.2321 -0.2958 -0.1523
  111MOL0     C14884   9.693   2.352   0.485  0.4578  0.6611 -0.4098
  111MOL0     O14885   9.792   2.412   0.408  0.7286 -0.8136  0.5770
  111MOL0     C14886   9.922   2.441   0.467  0.7865  0.2959 -0.4743
  111MOL0     C14887   9.931   2.538   0.587  0.0145  0.0903  0.0461
  111MOL0     C14888  10.081   2.538   0.643  1.3390 -0.0638  0.2980
  111MOL0     C14889  10.079   2.639   0.765 -0.3078  0.6180  1.0043
  111MOL0     C14890  10.216   2.644   0.829  0.1646  0.0394 -0.2838
  111MOL0     C14891  10.218   2.680   0.979 -0.3478  0.2773 -0.0089
  111MOL0     C14892  10.335   2.613   1.057 -0.5076 -0.7518  0.9885
  111MOL0     C14893  10.344   2.673   1.190  0.2877 -0.2841 -0.4581
  111MOL0    Cl14894  10.381   2.845   1.188 -0.2739  0.1004 -0.1527
  111MOL0     C14895   9.565   2.373   0.436 -0.2855  0.5103 -0.0188
  111MOL0     C14896   9.456   2.325   0.513 -0.6083  0.3303 -0.5036
  111MOL0     O14897   9.404   2.120   0.869 -0.4764  0.1696  0.6330
  111MOL0     C14898   9.153   1.983   0.871 -0.0549  0.9193  0.2352
  111MOL0     C14899   9.026   1.925   0.882  0.8366 -0.1212 -0.0444
  111MOL0     N14900   8.229   2.106   1.125  0.3486 -0.2457 -0.2050
  111MOL0     N14901   8.117   2.080   1.071 -0.3756 -0.5817  0.4265
  111MOL0     C14902   7.201   1.945   1.650  2.0816  0.1393 -0.7466
  111MOL0     C14903   7.058   1.949   1.677 -0.9066  0.5613  0.3126
  111MOL0     C14904   6.597   1.955   1.569  0.0460  0.1453  1.1217
  111MOL0     C14905   6.589   1.830   1.621  0.3905  0.2133  0.2852
  111MOL0     C14906   6.470   1.767   1.643 -0.9508 -0.7256 -0.1783
  111MOL0     C14907   6.347   1.833   1.628 -0.0289  0.2905 -0.4931
  111MOL0     O14908   6.225   1.782   1.672  0.2531 -0.2224  0.6468
  111MOL0     C14909   6.119   1.765   1.569  0.1854  0.2876 -0.5023
  111MOL0     C14910   6.015   1.664   1.630  0.2325  0.4799  0.6288
  111MOL0     C14911   5.913   1.598   1.533 -0.2071 -0.0218 -0.4442
  111MOL0     C14912   5.799   1.688   1.496  0.8272  0.0704  0.4079
  111MOL0     C14913   5.716   1.719   1.614 -0.1043  0.4680  0.2279
  111MOL0     C14914   5.644   1.737   1.716 -0.1580  1.0209 -0.3920
  111MOL0     C14915   6.351   1.959   1.587 -0.0074 -0.1808  0.5890
  111MOL0     C14916   6.470   2.019   1.546 -0.1620  0.7665 -0.4079
  111MOL0     C14917   6.459   2.154   1.484 -0.1442  1.1658 -0.1446
  111MOL0     H14918   6.962   2.079   1.386 -0.5725  2.4998  1.3376
  111MOL0     H14919   7.205   2.088   1.355  2.2452  2.3553  1.4299
  111MOL0     H14920   7.498   2.022   1.685  1.1395  0.5502 -0.5056
  111MOL0     H14921   7.455   1.861   1.631 -0.7176  0.8932  1.4353
  111MOL0     H14922   7.692   1.927   1.605  0.8676  0.6795  0.0174
  111MOL0     H14923   7.652   2.051   1.503  0.1167  0.7393  1.1258
  111MOL0     H14924   7.549   1.866   1.337 -0.3371  2.8319  0.9174
  111MOL0     H14925   7.616   1.748   1.451 -0.4906 -1.4677  0.0610
  111MOL0     H14926   7.771   1.957   1.294 -2.6944  0.2329 -0.4012
  111MOL0     H14927   7.835   1.856   1.424 -1.8837 -2.3367  0.9854
  111MOL0     H14928   7.787   1.655   1.299 -4.3259 -0.2238 -0.7761
  111MOL0     H14929   7.704   1.742   1.171  0.6240  3.1338 -0.3064
  111MOL0     H14930   7.999   1.816   1.235 -0.8059  3.8488 -0.6465
  111MOL0     H14931   7.943   1.679   1.132 -2.5515 -1.1920  2.5269
  111MOL0     H14932   7.878   1.978   1.089 -1.2130 -1.1987  1.4829
  111MOL0     H14933   7.816   1.840   0.988  0.3974 -1.1398 -1.0752
  111MOL0     H14934   8.043   1.794   0.908 -0.7646  0.8916 -1.2816
  111MOL0     H14935   7.986   1.961   0.879 -0.3884 -1.3811 -1.3132
  111MOL0     H14936   8.259   1.806   1.018 -0.3403 -0.6605 -0.3446
  111MOL0     H14937   8.500   2.070   1.187  4.4613 -2.9208  2.3974
  111MOL0     H14938   8.414   1.941   1.271 -1.0737  2.4901  0.0114
  111MOL0     H14939   8.633   1.874   1.178  0.1748  0.2441  0.0315
  111MOL0     H14940   8.505   1.796   1.067 -1.7497  1.2002 -1.5996
  111MOL0     H14941   8.630   2.057   1.014  1.5560  0.5722  1.3715
  111MOL0     H14942   8.542   1.954   0.903 -0.0375  2.3425  0.4501
  111MOL0     H14943   8.724   1.779   0.935 -2.6111 -0.3194  0.5476
  111MOL0     H14944   8.815   1.898   1.015  2.7663 -0.5753 -2.4018
  111MOL0     H14945   8.869   2.091   0.633 -0.8558 -1.4744 -0.0390
  111MOL0     H14946   9.082   2.186   0.600  0.1278 -0.4298  0.4844
  111MOL0     H14947   9.608   2.132   0.754 -1.4654 -1.9861 -1.6102
  111MOL0     H14948   9.810   2.246   0.629  0.2012  3.4394  0.4517
  111MOL0     H14949   9.967   2.346   0.498 -1.4801 -0.5002  0.5913
  111MOL0     H14950   9.988   2.484   0.391 -1.2944  4.4149 -0.2490
  111MOL0     H14951   9.917   2.644   0.564  1.2580 -0.1704 -2.2622
  111MOL0     H14952   9.858   2.516   0.665  0.8489  0.2931  0.9060
  111MOL0     H14953  10.116   2.439   0.671 -2.3442 -1.4161  0.6767
  111MOL0     H14954  10.152   2.575   0.568  2.0428  2.5220  2.1052
  111MOL0     H14955  10.003   2.612   0.839 -0.6083 -0.8926  0.2047
  111MOL0     H14956  10.045   2.739   0.736  0.7610  0.8562  0.5157
  111MOL0     H14957  10.267   2.723   0.773  1.1708 -0.5715 -0.2560
  111MOL0     H14958  10.261   2.545   0.818 -0.5927 -0.1884 -1.6094
  111MOL0     H14959  10.211   2.789   0.982  4.2151  0.9387 -3.2303
  111MOL0     H14960  10.124   2.634   1.012 -0.2062 -1.1941 -1.5062
  111MOL0     H14961  10.424   2.638   0.999 -1.3626 -0.0636 -0.0576
  111MOL0     H14962  10.320   2.504   1.062 -0.2383 -0.7802  1.2576
  111MOL0     H14963  10.258   2.651   1.253  0.7192  0.9041  0.5930
  111MOL0     H14964  10.423   2.622   1.247 -0.4717 -0.9485  0.0173
  111MOL0     H14965   9.562   2.424   0.340  0.8702 -0.5986 -0.6807
  111MOL0     H14966   9.356   2.344   0.476 -0.9468 -1.5872 -0.6887
  111MOL0     H14967   9.235   1.952   0.935  1.9320  2.1165 -1.6113
  111MOL0     H14968   9.012   1.850   0.959 -0.7742  2.2690  2.1837
  111MOL0     H14969   7.270   1.902   1.722 -1.2541  0.2889  2.9336
  111MOL0     H14970   7.033   1.909   1.775  0.7511 -2.9708 -0.5489
  111MOL0     H14971   6.681   1.781   1.653  0.6479 -0.4939 -1.4057
  111MOL0     H14972   6.472   1.666   1.682 -0.2706 -0.0138  1.8010
  111MOL0     H14973   6.166   1.722   1.480 -0.4297 -0.0309 -0.6752
  111MOL0     H14974   6.072   1.861   1.544  1.0613  0.2235 -2.6023
  111MOL0     H14975   5.956   1.712   1.709 -0.4154  1.4369 -0.4005
  111MOL0     H14976   6.070   1.578   1.669 -1.6710 -2.0197 -1.7300
  111MOL0     H14977   5.882   1.509   1.589  2.3543 -1.2328 -0.7930
  111MOL0     H14978   5.966   1.560   1.445  0.5464 -0.4465  0.1725
  111MOL0     H14979   5.825   1.779   1.441 -0.6229 -1.0526 -2.3676
  111MOL0     H14980   5.738   1.631   1.425  1.5009  1.5257 -1.4258
  111MOL0     H14981   5.598   1.747   1.812 -1.9404 -2.7256 -0.6609
  111MOL0     H14982   6.264   2.024   1.576 -2.0815 -3.1233 -2.0942
  111MOL0     H14983   6.494   2.154   1.380 -0.1770 -1.3569 -0.2041
  111MOL0     H14984   6.356   2.189   1.493 -0.0703  0.8214  3.2323
  111MOL0     H14985   6.511   2.223   1.552 -0.2536 -1.3734  2.6999
  112MOL0     O14986   8.207   8.673   0.912  0.3054  0.1515  0.1333
  112MOL0     C14987   8.171   8.787   0.912 -0.0998 -0.0119 -0.3841
  112MOL0     O14988   8.197   8.888   0.824  0.1807 -0.1781  0.4230
  112MOL0     C14989   8.271   8.872   0.708  0.1895 -0.3624 -0.6860
  112MOL0     C14990   8.378   8.783   0.692  0.1874 -0.3308  0.0487
  112MOL0     C14991   8.444   8.771   0.571  0.1674  0.2565  0.3706
  112MOL0     C14992   8.402   8.853   0.469  0.1123 -0.4962  0.3069
  112MOL0     O14993   8.476   8.837   0.349  0.1755  0.0607 -0.1066
  112MOL0     C14994   8.473   8.915   0.234 -0.6733 -0.2441 -0.2445
  112MOL0     C14995   8.614   8.906   0.169  0.3667 -0.2434 -0.4143
  112MOL0     C14996   8.718   8.991   0.239  0.0848 -0.1845  0.1523
  112MOL0     C14997   8.858   8.974   0.171  0.6416 -0.0038  0.3837
  112MOL0     C14998   8.955   9.071   0.219  0.1499  0.1072  0.5447
  112MOL0     C14999   9.098   9.015   0.196  0.0370 -1.0413  0.2612
  112MOL0     C15000   9.198   9.109   0.262  0.2425  0.5380  0.2391
  112MOL0     C15001   9.335   9.040   0.265  0.2506  0.0348 -0.2645
  112MOL0     N15002   9.453   9.111   0.318 -1.0931 -0.3624 -0.3314
  112MOL0     C15003   9.457   9.150   0.443  0.0876 -0.5595 -0.5417
  112MOL0     C15004   9.583   9.202   0.458  0.8888 -0.2497  0.2263
  112MOL0     C15005   9.639   9.254   0.575  0.6179  0.1419 -0.2744
  112MOL0     C15006   9.739   9.376   0.551  1.0075  0.2614 -0.8199
  112MOL0     C15007   9.823   9.396   0.671 -0.0923 -0.3447 -1.0165
  112MOL0     C15008   9.950   9.466   0.627 -0.0785  0.9318 -0.8820
  112MOL0     O15009  10.046   9.456   0.742  1.4665  0.0386  0.6813
  112MOL0     C15010  10.158   9.536   0.729  0.3782 -0.3598 -0.1919
  112MOL0     C15011  10.240   9.541   0.841  0.1718  0.0068 -0.4714
  112MOL0     C15012  10.356   9.612   0.845  0.0296  0.0637  0.0172
  112MOL0     C15013  10.402   9.686   0.735  0.8408  0.2131 -0.6826
  112MOL0     C15014  10.514   9.773   0.730 -0.9994  1.0706 -0.0005
  112MOL0     O15015  10.588   9.787   0.849  0.8297  0.5059 -0.1601
  112MOL0     C15016  10.683   9.878   0.842 -0.5380 -0.0192 -0.3166
  112MOL0     C15017  10.651  10.010   0.864  0.1164 -0.5166 -0.2846
  112MOL0     C15018  10.758  10.103   0.870 -0.1281  0.4213  0.6178
  112MOL0     C15019  10.893  10.068   0.855  0.0938 -0.3556 -0.9224
  112MOL0     O15020  10.991  10.159   0.878  0.0365  0.5278 -0.7185
  112MOL0     C15021  11.093  10.178   0.773  0.4148 -0.3324 -1.0285
  112MOL0     C15022  11.242  10.158   0.812  0.0929 -0.3605 -0.3863
  112MOL0     C15023  11.340  10.234   0.720 -0.0433  0.1514 -0.4507
  112MOL0     C15024  11.483  10.230   0.785  0.8337 -0.6608 -0.9261
  112MOL0     C15025  11.543  10.090   0.798 -0.1603 -0.3283  0.6717
  112MOL0     C15026  11.697  10.094   0.798  0.3052  0.4930 -0.0436
  112MOL0     C15027  11.755  10.160   0.919 -0.8285  0.0588 -0.8318
  112MOL0     C15028  11.903  10.135   0.926 -0.1187 -0.2296 -0.1537
  112MOL0    Cl15029  11.981  10.259   0.824  0.1167 -0.0164 -0.4758
  112MOL0     C15030  10.920   9.938   0.831 -0.3506 -0.3747  0.4949
  112MOL0     C15031  10.816   9.845   0.825  0.3790 -0.0454 -0.0606
  112MOL0     O15032  10.536   9.834   0.626  0.4836  0.4392  0.4558
  112MOL0     C15033  10.326   9.662   0.625 -0.2013 -0.0749  0.1094
  112MOL0     C15034  10.208   9.599   0.614  0.2181 -0.1723  0.1380
  112MOL0     N15035   9.655   9.198   0.338  0.2545 -1.1431 -0.3184
  112MOL0     N15036   9.567   9.150   0.249 -1.2298 -0.1763 -1.2136
  112MOL0     C15037   8.309   8.956   0.484  0.7256  0.7015 -0.2598
  112MOL0     C15038   8.238   8.960   0.599  0.8011 -0.4252 -0.6553
  112MOL0     C15039   8.085   8.824   1.035  0.3460  0.8660  0.5025
  112MOL0     C15040   8.010   8.945   1.021 -0.1119 -0.1278  0.9306
  112MOL0     C15041   7.911   8.986   1.110  0.2304  0.7317 -0.5129
  112MOL0     C15042   7.896   8.922   1.227  0.1554  0.0374  0.0183
  112MOL0     O15043   7.811   8.988   1.319  0.9277 -0.0469 -0.3153
  112MOL0     C15044   7.803   8.956   1.462  0.4348  0.1206 -0.8514
  112MOL0     C15045   7.727   9.056   1.550  0.0306 -0.6003 -0.3184
  112MOL0     C15046   7.813   9.179   1.574  0.1280  0.3518 -0.3787
  112MOL0     C15047   7.732   9.272   1.663  0.0475  0.7744  0.1586
  112MOL0     C15048   7.821   9.382   1.711  0.6200  0.1862  0.2444
  112MOL0     C15049   7.903   9.467   1.756  0.0181  1.0855  0.0336
  112MOL0     C15050   7.973   8.808   1.246 -0.0793  0.1572 -0.4814
  112MOL0     C15051   8.072   8.759   1.158 -0.1492  1.3180  0.1897
  112MOL0     C15052   8.147   8.628   1.200 -0.6453 -0.7194  0.2619
  112MOL0     H15053   8.415   8.718   0.770 -1.5918 -2.2802 -0.6314
  112MOL0     H15054   8.531   8.707   0.558  1.1496  1.7341 -0.7114
  112MOL0     H15055   8.388   8.891   0.170  0.1985 -1.9215 -0.8271
  112MOL0     H15056   8.457   9.018   0.269 -2.4370 -1.3009  2.3482
  112MOL0     H15057   8.603   8.928   0.062  0.8284 -0.2145 -0.4597
  112MOL0     H15058   8.667   8.810   0.171  1.9535  0.5720  2.1723
  112MOL0     H15059   8.735   8.980   0.346  1.0419  1.1668  0.1787
  112MOL0     H15060   8.689   9.097   0.234  3.9727  1.1670  2.0883
  112MOL0     H15061   8.890   8.873   0.197 -2.8539 -0.9962  1.3649
  112MOL0     H15062   8.841   8.979   0.063 -1.1309  0.1424  0.6383
  112MOL0     H15063   8.947   9.166   0.165 -1.3935  0.1261  0.7448
  112MOL0     H15064   8.937   9.081   0.327 -0.6983 -0.3535  0.4545
  112MOL0     H15065   9.099   8.921   0.252  1.8079 -1.3589 -0.2709
  112MOL0     H15066   9.122   8.994   0.091 -0.0731 -1.8015  0.3841
  112MOL0     H15067   9.165   9.128   0.364 -0.9677 -1.4106  0.2634
  112MOL0     H15068   9.197   9.200   0.200 -2.0567  0.2323 -0.2579
  112MOL0     H15069   9.323   8.948   0.324 -0.5141  0.0685 -0.3646
  112MOL0     H15070   9.366   9.016   0.163  0.7135  0.5639 -0.2531
  112MOL0     H15071   9.382   9.138   0.520  0.0860  0.0769 -0.4366
  112MOL0     H15072   9.559   9.293   0.639  0.2903 -0.9982  0.0419
  112MOL0     H15073   9.685   9.172   0.631  0.7202  0.5434  0.2371
  112MOL0     H15074   9.804   9.361   0.465  1.7770 -0.0706 -0.1952
  112MOL0     H15075   9.682   9.469   0.538  0.6560 -0.1323 -2.2574
  112MOL0     H15076   9.860   9.299   0.707  1.0558 -0.2438 -1.8735
  112MOL0     H15077   9.765   9.447   0.749  1.5469 -0.6435  0.4640
  112MOL0     H15078   9.937   9.571   0.600 -0.3235  0.6387 -1.9505
  112MOL0     H15079  10.007   9.407   0.554  0.7874 -1.8008  1.8101
  112MOL0     H15080  10.216   9.483   0.930 -0.6865  1.4584  0.2827
  112MOL0     H15081  10.415   9.617   0.936  0.5288 -0.2574 -0.2866
  112MOL0     H15082  10.550  10.048   0.878 -0.4365 -2.0522  0.1356
  112MOL0     H15083  10.741  10.208   0.891  0.7048  0.6986 -0.0198
  112MOL0     H15084  11.073  10.113   0.688  1.9420  0.8489 -2.3667
  112MOL0     H15085  11.091  10.280   0.733 -0.8503 -0.7308 -2.0302
  112MOL0     H15086  11.264  10.192   0.914  0.8460 -1.5870 -0.1111
  112MOL0     H15087  11.265  10.051   0.808  2.6491  0.0569  0.9852
  112MOL0     H15088  11.359  10.188   0.623  2.4780 -1.6348  0.7795
  112MOL0     H15089  11.297  10.333   0.704 -0.2144  0.4517  1.5953
  112MOL0     H15090  11.475  10.287   0.878  1.9203  1.4039 -2.0257
  112MOL0     H15091  11.551  10.279   0.715 -0.0808  0.1670 -1.2702
  112MOL0     H15092  11.516  10.029   0.711 -2.2563 -0.0343  1.0560
  112MOL0     H15093  11.504  10.035   0.884  1.0488  1.0884  2.1902
  112MOL0     H15094  11.732   9.991   0.795 -1.1215 -0.2384  3.3998
  112MOL0     H15095  11.729  10.158   0.715  3.6007 -0.5181  0.3255
  112MOL0     H15096  11.717  10.121   1.013  0.0683  2.4975  0.6340
  112MOL0     H15097  11.730  10.267   0.922 -1.1102 -0.0236  1.1067
  112MOL0     H15098  11.938  10.144   1.029 -1.2367 -4.7674  0.8180
  112MOL0     H15099  11.930  10.034   0.895 -0.3345 -0.2210 -0.3794
  112MOL0     H15100  11.024   9.910   0.818  0.0005 -0.3094  2.8064
  112MOL0     H15101  10.832   9.740   0.805  0.8488 -0.2330  1.1595
  112MOL0     H15102  10.358   9.712   0.533 -1.1058 -0.1113 -0.2316
  112MOL0     H15103  10.160   9.593   0.517  0.1263  0.1775  0.1604
  112MOL0     H15104   8.285   9.020   0.400 -0.3997  0.3622 -0.2176
  112MOL0     H15105   8.158   9.028   0.628 -3.6797 -5.3495  0.0846
  112MOL0     H15106   8.020   9.002   0.929 -1.0910 -2.4700 -0.7264
  112MOL0     H15107   7.848   9.070   1.080 -0.5026 -0.8002 -3.6844
  112MOL0     H15108   7.899   8.956   1.514 -0.8340  1.4038  1.7304
  112MOL0     H15109   7.749   8.861   1.470  0.0998  0.4478  1.7616
  112MOL0     H15110   7.681   9.004   1.635 -0.4363 -0.6028 -0.5643
  112MOL0     H15111   7.641   9.086   1.489  1.7959 -1.5517 -3.4597
  112MOL0     H15112   7.847   9.231   1.484  0.9437  3.2390  1.4281
  112MOL0     H15113   7.900   9.140   1.629  0.5884 -1.1233 -2.0768
  112MOL0     H15114   7.641   9.300   1.608  0.3953 -0.0659 -0.8823
  112MOL0     H15115   7.711   9.208   1.748  0.9885 -0.6276 -0.6196
  112MOL0     H15116   7.976   9.530   1.804 -2.3183  1.7887  2.9409
  112MOL0     H15117   7.966   8.762   1.344  2.9928  0.9311  0.2069
  112MOL0     H15118   8.136   8.547   1.127 -0.9520 -2.8525  2.5291
  112MOL0     H15119   8.251   8.651   1.224 -1.9707  3.7275  3.0131
  112MOL0     H15120   8.110   8.585   1.294  0.5206 -1.0406  0.5819
  113MOL0     O15121   5.512   0.780   8.276  0.0409  0.4921 -0.0348
  113MOL0     C15122   5.397   0.814   8.306  0.0836 -0.3756 -0.0316
  113MOL0     O15123   5.285   0.739   8.270  0.0520 -0.1140  0.1487
  113MOL0     C15124   5.294   0.639   8.182 -0.1204 -0.0412 -0.0948
  113MOL0     C15125   5.271   0.674   8.046  0.1347 -0.3448 -0.3827
  113MOL0     C15126   5.258   0.580   7.946 -0.3400  0.9391  0.0917
  113MOL0     C15127   5.283   0.438   7.979  0.6602 -0.7195 -0.2303
  113MOL0     O15128   5.298   0.346   7.881  0.0448  0.0504  0.3598
  113MOL0     C15129   5.311   0.204   7.911  0.3600  0.2804 -0.7919
  113MOL0     C15130   5.296   0.114   7.789 -0.0379 -1.0103 -0.2648
  113MOL0     C15131   5.152   0.067   7.761  1.1120  0.0593 -0.3620
  113MOL0     C15132   5.139  -0.038   7.637  0.0742 -0.3461  0.5516
  113MOL0     C15133   4.998  -0.105   7.654  0.0416  0.8333  0.1531
  113MOL0     C15134   4.976  -0.184   7.530  0.1184 -0.9814  0.7756
  113MOL0     C15135   5.058  -0.306   7.512 -0.2611  0.5380 -0.4164
  113MOL0     C15136   5.091  -0.329   7.363  0.0073  0.1551 -0.4259
  113MOL0     N15137   5.205  -0.252   7.311 -0.0200 -0.4974 -0.1833
  113MOL0     C15138   5.337  -0.261   7.369 -0.2596 -0.1871 -0.3239
  113MOL0     C15139   5.408  -0.186   7.290 -0.2627  0.8145  1.4462
  113MOL0     C15140   5.555  -0.158   7.299 -0.5033  0.3468 -0.5163
  113MOL0     C15141   5.627  -0.195   7.175  0.3086  0.6024 -0.8719
  113MOL0     C15142   5.620  -0.352   7.155  0.1915  0.1558  0.5861
  113MOL0     C15143   5.686  -0.441   7.260 -0.0933 -0.2327 -0.5716
  113MOL0     O15144   5.809  -0.401   7.322  0.2233 -0.6456  0.1207
  113MOL0     C15145   5.923  -0.414   7.249 -0.6567  0.0388  0.7211
  113MOL0     C15146   5.948  -0.477   7.126  0.7797 -0.4624  0.8129
  113MOL0     C15147   6.081  -0.520   7.089  1.0675 -0.7490  0.9305
  113MOL0     C15148   6.189  -0.485   7.164 -0.5877 -0.4572  0.7061
  113MOL0     C15149   6.322  -0.517   7.112  0.5984 -0.1896 -0.5230
  113MOL0     O15150   6.343  -0.576   6.996 -0.2604 -0.5725  0.4769
  113MOL0     C15151   6.471  -0.617   6.959 -0.0071  0.5229 -0.6471
  113MOL0     C15152   6.526  -0.729   7.019 -0.2213  0.1450  0.4088
  113MOL0     C15153   6.653  -0.774   6.979  0.3469  0.2958 -0.3540
  113MOL0     C15154   6.729  -0.707   6.885 -0.1482  0.0816  1.0164
  113MOL0     O15155   6.848  -0.755   6.846 -0.0572 -0.0994 -0.5223
  113MOL0     C15156   6.896  -0.710   6.719 -1.1739 -0.3793  0.0069
  113MOL0     C15157   7.009  -0.800   6.655  0.0702 -0.3158 -0.1526
  113MOL0     C15158   7.136  -0.832   6.747 -0.3484 -0.0427  0.2496
  113MOL0     C15159   7.187  -0.706   6.799 -0.7463 -0.4363  0.7301
  113MOL0     C15160   7.329  -0.727   6.863  0.4630  0.7567  0.4017
  113MOL0     C15161   7.343  -0.854   6.954 -0.2059  0.1904 -0.0200
  113MOL0     C15162   7.468  -0.850   7.043 -0.7349  0.5372  0.6561
  113MOL0     C15163   7.600  -0.847   6.962  0.1539 -0.5718  0.3046
  113MOL0    Cl15164   7.623  -0.980   6.850  0.2821  0.3255 -0.4961
  113MOL0     C15165   6.679  -0.581   6.837  0.4119  0.7687 -0.3157
  113MOL0     C15166   6.555  -0.538   6.883 -0.0903  0.5642 -0.2672
  113MOL0     O15167   6.414  -0.482   7.188  1.2918  0.8407  0.2827
  113MOL0     C15168   6.170  -0.422   7.287  0.1302 -0.4189  0.3942
  113MOL0     C15169   6.036  -0.387   7.332 -0.3978 -0.2203  0.3272
  113MOL0     N15170   5.332  -0.112   7.205  1.2929  0.3914 -0.2620
  113MOL0     N15171   5.212  -0.160   7.212  0.2771  0.2006  0.4398
  113MOL0     C15172   5.320   0.412   8.111  0.2844  1.4914  0.3859
  113MOL0     C15173   5.332   0.509   8.211  0.5113  0.6772 -1.0164
  113MOL0     C15174   5.362   0.941   8.384 -0.1542  0.5471  0.2422
  113MOL0     C15175   5.253   0.931   8.464  0.1347  0.6403 -0.3589
  113MOL0     C15176   5.213   1.040   8.538 -0.7626 -0.0329  0.0641
  113MOL0     C15177   5.285   1.163   8.530 -0.1951  0.0791 -0.1097
  113MOL0     O15178   5.261   1.276   8.605  0.3828  0.8824 -0.0807
  113MOL0     C15179   5.176   1.261   8.718  1.1332 -0.4552 -0.1520
  113MOL0     C15180   5.176   1.385   8.807  0.4831 -0.4792  0.3429
  113MOL0     C15181   5.079   1.398   8.928 -0.1353  1.3197 -0.6364
  113MOL0     C15182   5.097   1.285   9.038  0.4385 -1.3004 -0.0945
  113MOL0     C15183   4.973   1.218   9.074 -0.1672  0.3733  0.3571
  113MOL0     C15184   4.873   1.175   9.121 -1.0239  0.5287  0.5124
  113MOL0     C15185   5.404   1.169   8.452  0.6192  0.4325  1.0725
  113MOL0     C15186   5.443   1.064   8.373  0.0952  0.0453  0.3756
  113MOL0     C15187   5.575   1.073   8.294 -0.4463  0.0119  0.3288
  113MOL0     H15188   5.250   0.778   8.021  1.8939  1.7988  5.3712
  113MOL0     H15189   5.248   0.619   7.845 -0.7494  0.7862  0.0734
  113MOL0     H15190   5.407   0.193   7.963 -0.6389  1.3099  1.3956
  113MOL0     H15191   5.232   0.173   7.980 -0.2681  2.6400 -0.3424
  113MOL0     H15192   5.356   0.023   7.799  0.4600 -0.5636  1.1405
  113MOL0     H15193   5.330   0.165   7.699 -0.1907 -1.8483 -0.8071
  113MOL0     H15194   5.095   0.159   7.750  1.1538  0.3683  1.5754
  113MOL0     H15195   5.124   0.006   7.847  0.8270 -0.2468 -0.6691
  113MOL0     H15196   5.149   0.017   7.543  0.9136 -2.3775 -0.6266
  113MOL0     H15197   5.220  -0.111   7.637 -0.2382 -0.7170 -0.6336
  113MOL0     H15198   5.009  -0.168   7.743  3.1732  2.5003  1.1217
  113MOL0     H15199   4.915  -0.035   7.667 -0.1842  0.9227 -1.5360
  113MOL0     H15200   4.872  -0.218   7.534 -1.0498  2.1631  0.1648
  113MOL0     H15201   4.997  -0.126   7.440  1.3230 -2.1697  0.2558
  113MOL0     H15202   5.000  -0.392   7.546  0.0845 -0.5593 -2.4511
  113MOL0     H15203   5.156  -0.301   7.560  0.7681 -0.5639 -2.2851
  113MOL0     H15204   5.105  -0.437   7.356 -1.9020 -0.3408  2.0156
  113MOL0     H15205   5.006  -0.307   7.299 -0.4749 -3.1651 -1.1253
  113MOL0     H15206   5.371  -0.325   7.450 -1.6096  0.8096  1.0936
  113MOL0     H15207   5.566  -0.050   7.311  0.2195  0.0756  1.6067
  113MOL0     H15208   5.601  -0.204   7.387  1.2095  2.0078 -0.4844
  113MOL0     H15209   5.572  -0.138   7.099  0.2786 -0.3887 -1.6143
  113MOL0     H15210   5.731  -0.161   7.174  0.3044  0.6151 -0.8636
  113MOL0     H15211   5.669  -0.367   7.059 -1.6500 -1.7923 -0.1414
  113MOL0     H15212   5.519  -0.390   7.137  0.3661 -0.7610  1.4181
  113MOL0     H15213   5.686  -0.535   7.205 -3.8267  0.2778 -1.6928
  113MOL0     H15214   5.609  -0.457   7.336 -0.9045 -0.4538 -1.4333
  113MOL0     H15215   5.880  -0.500   7.044  1.4472 -1.8942  0.6204
  113MOL0     H15216   6.083  -0.576   6.997 -0.7689  0.4832  0.0587
  113MOL0     H15217   6.477  -0.785   7.099 -3.0850  1.4487 -0.3022
  113MOL0     H15218   6.687  -0.869   7.020 -1.4099  0.2694  1.1992
  113MOL0     H15219   6.815  -0.697   6.647 -0.1421  0.7178 -1.0153
  113MOL0     H15220   6.930  -0.607   6.733 -1.1234 -0.3956  0.0017
  113MOL0     H15221   6.963  -0.897   6.635 -0.9641 -0.4488  2.4470
  113MOL0     H15222   7.056  -0.747   6.572  1.5958  0.7695  1.3302
  113MOL0     H15223   7.111  -0.889   6.838 -1.9460  0.0463 -0.1059
  113MOL0     H15224   7.214  -0.885   6.692  1.8149  1.4894  1.6757
  113MOL0     H15225   7.123  -0.678   6.883 -1.1884 -2.7375  1.2269
  113MOL0     H15226   7.184  -0.631   6.719 -0.7427 -0.2895  0.8682
  113MOL0     H15227   7.358  -0.641   6.924 -0.8029 -0.1568  2.3968
  113MOL0     H15228   7.394  -0.740   6.776  1.2974  0.6175  1.0232
  113MOL0     H15229   7.248  -0.878   7.002 -0.8775  0.0683 -1.3584
  113MOL0     H15230   7.366  -0.942   6.894 -0.7713 -0.3368  0.5213
  113MOL0     H15231   7.481  -0.936   7.109  3.0431 -0.7878 -1.5115
  113MOL0     H15232   7.470  -0.771   7.118 -2.0250 -0.9488  2.3394
  113MOL0     H15233   7.595  -0.756   6.902  2.5102 -1.3370 -1.1903
  113MOL0     H15234   7.689  -0.832   7.023  1.8218 -2.0753 -1.6255
  113MOL0     H15235   6.738  -0.514   6.776 -0.2968  1.3263 -0.4054
  113MOL0     H15236   6.523  -0.438   6.858 -2.3911 -0.1581 -0.4752
  113MOL0     H15237   6.248  -0.397   7.358  1.5652 -3.5320  0.0521
  113MOL0     H15238   6.018  -0.334   7.425  2.7198  4.0761 -1.2022
  113MOL0     H15239   5.354   0.313   8.141  0.2154  0.3415 -2.9515
  113MOL0     H15240   5.368   0.484   8.310  0.1308  1.7128 -0.6136
  113MOL0     H15241   5.184   0.848   8.451  1.4495 -0.1309 -2.9989
  113MOL0     H15242   5.112   1.035   8.578 -0.6723 -0.5385  0.2302
  113MOL0     H15243   5.210   1.170   8.769  2.1178  0.7596  1.4269
  113MOL0     H15244   5.072   1.252   8.685  0.6471 -0.4245  1.3044
  113MOL0     H15245   5.138   1.471   8.751 -2.8245 -1.3170  1.1245
  113MOL0     H15246   5.278   1.408   8.839  1.2358 -0.7923 -1.6642
  113MOL0     H15247   4.979   1.414   8.885 -0.4281  0.5787 -0.2562
  113MOL0     H15248   5.102   1.487   8.988 -1.3186  1.0286  0.3176
  113MOL0     H15249   5.166   1.210   8.999  2.9302  0.6245  0.3294
  113MOL0     H15250   5.146   1.328   9.126  1.1374  0.9212 -1.4831
  113MOL0     H15251   4.789   1.143   9.179 -0.4297 -0.5234  0.8189
  113MOL0     H15252   5.460   1.262   8.455 -1.0782  1.5060  0.9338
  113MOL0     H15253   5.579   1.004   8.210  2.1845  0.1103  0.3168
  113MOL0     H15254   5.597   1.177   8.268 -2.0793  0.3894  0.3260
  113MOL0     H15255   5.656   1.047   8.363 -0.0878  1.1575  0.3731
  114MOL0     O15256   2.812   9.081   5.448  0.2573  0.4774  0.0191
  114MOL0     C15257   2.868   9.067   5.553  0.4460  0.4229 -0.3950
  114MOL0     O15258   2.986   8.986   5.571 -0.6939  0.1542 -0.2704
  114MOL0     C15259   3.007   8.898   5.470 -0.4331 -0.3623 -0.7572
  114MOL0     C15260   2.915   8.798   5.436 -0.2263  0.0844 -0.7302
  114MOL0     C15261   2.935   8.714   5.327 -0.9623 -0.4380  0.2256
  114MOL0     C15262   3.057   8.730   5.258 -0.6805 -0.0742 -0.0980
  114MOL0     O15263   3.089   8.671   5.135 -0.5986 -1.1394 -0.4425
  114MOL0     C15264   3.064   8.531   5.131 -0.2674 -0.4884 -0.3992
  114MOL0     C15265   3.140   8.472   5.012 -0.4281 -0.6769  0.1693
  114MOL0     C15266   3.288   8.487   5.020 -0.2520  0.5386  0.0821
  114MOL0     C15267   3.348   8.518   4.885 -0.1599 -0.6271  0.1279
  114MOL0     C15268   3.505   8.514   4.894 -0.1885 -0.3168  0.8784
  114MOL0     C15269   3.557   8.585   4.768  1.0067  0.0310 -0.4652
  114MOL0     C15270   3.716   8.583   4.758  1.0285 -0.2153  0.2147
  114MOL0     C15271   3.792   8.450   4.732 -0.1587 -0.1930  0.5043
  114MOL0     N15272   3.747   8.382   4.604 -0.7767 -0.4021  0.6872
  114MOL0     C15273   3.630   8.319   4.567 -0.0958  0.0219  0.3502
  114MOL0     C15274   3.652   8.252   4.449 -0.1134  0.2300 -0.1743
  114MOL0     C15275   3.558   8.166   4.369  0.0048 -0.1551  0.0489
  114MOL0     C15276   3.528   8.038   4.447  0.5932  0.0650 -0.6050
  114MOL0     C15277   3.653   7.946   4.480  0.1715 -0.5538 -0.2804
  114MOL0     C15278   3.608   7.824   4.564  0.4828  0.3452 -0.3580
  114MOL0     O15279   3.627   7.696   4.503 -0.0507 -0.2571  1.2752
  114MOL0     C15280   3.749   7.639   4.506 -0.4325  0.0707 -0.9325
  114MOL0     C15281   3.767   7.514   4.456  0.4509 -0.3031  0.3814
  114MOL0     C15282   3.893   7.455   4.434 -0.3345 -0.0656  0.3513
  114MOL0     C15283   4.003   7.507   4.505 -0.6511  0.0258 -0.3599
  114MOL0     C15284   4.139   7.427   4.497  0.0132  0.1264 -0.5406
  114MOL0     O15285   4.148   7.330   4.398 -0.2577 -0.1262 -0.6787
  114MOL0     C15286   4.275   7.290   4.362  0.1239 -0.2503 -0.0582
  114MOL0     C15287   4.388   7.369   4.355 -0.7375  0.1467  0.1631
  114MOL0     C15288   4.516   7.308   4.349  0.3461  0.0676  0.1086
  114MOL0     C15289   4.534   7.173   4.345  1.1487  1.0636  0.0649
  114MOL0     O15290   4.654   7.113   4.337 -0.0183  0.2164 -0.4856
  114MOL0     C15291   4.753   7.142   4.443 -1.5008  0.2128 -0.1188
  114MOL0     C15292   4.878   7.065   4.414 -0.4462 -1.0472  0.8916
  114MOL0     C15293   4.860   6.911   4.419  0.1873 -0.6681  0.9030
  114MOL0     C15294   4.977   6.831   4.368  0.6785 -0.5990 -0.8809
  114MOL0     C15295   4.932   6.691   4.349 -0.9494  0.3752  0.5569
  114MOL0     C15296   5.041   6.591   4.333  0.9124  0.7902  0.4409
  114MOL0     C15297   5.112   6.578   4.194 -0.2954  0.1999  0.3855
  114MOL0     C15298   5.222   6.477   4.213  0.4187 -0.1042  0.6863
  114MOL0    Cl15299   5.305   6.446   4.059 -0.2717 -0.2084  0.1546
  114MOL0     C15300   4.424   7.087   4.348 -0.6349 -0.5787 -0.4068
  114MOL0     C15301   4.296   7.152   4.362  0.2639 -0.4254 -0.3477
  114MOL0     O15302   4.227   7.454   4.583 -0.1137  0.2928  0.0872
  114MOL0     C15303   3.979   7.623   4.582 -0.6732 -0.2611 -1.0362
  114MOL0     C15304   3.857   7.687   4.576  0.1332  0.1302 -0.1034
  114MOL0     N15305   3.777   8.300   4.403 -0.2065  0.6446  0.5842
  114MOL0     N15306   3.829   8.371   4.493  0.1063 -0.5186 -0.0568
  114MOL0     C15307   3.150   8.824   5.295 -0.3725  0.3549 -0.2717
  114MOL0     C15308   3.130   8.908   5.407 -0.0361 -0.3004  0.4506
  114MOL0     C15309   2.815   9.147   5.664 -0.0670 -0.5880  0.7281
  114MOL0     C15310   2.902   9.184   5.775  0.1176 -0.1359 -0.3224
  114MOL0     C15311   2.859   9.253   5.893  0.0683 -0.1672  1.2124
  114MOL0     C15312   2.724   9.291   5.897 -0.7166 -0.7200  0.2316
  114MOL0     O15313   2.674   9.371   6.000  0.7730  0.4327  0.3703
  114MOL0     C15314   2.759   9.404   6.107  0.9629 -0.5566 -0.3519
  114MOL0     C15315   2.751   9.296   6.215 -0.0972  1.0140 -0.6116
  114MOL0     C15316   2.619   9.266   6.291 -0.5220  0.5684 -0.0224
  114MOL0     C15317   2.636   9.141   6.379  0.1182 -0.2378 -0.6057
  114MOL0     C15318   2.533   9.132   6.476  0.0232  0.1891 -1.1458
  114MOL0     C15319   2.436   9.131   6.551 -0.5328 -0.4866  0.6975
  114MOL0     C15320   2.638   9.253   5.795 -0.6164 -0.9801  0.3314
  114MOL0     C15321   2.681   9.182   5.685  0.4166 -0.2282  0.1793
  114MOL0     C15322   2.570   9.134   5.593  0.0365  0.3680 -0.0039
  114MOL0     H15323   2.825   8.801   5.496 -0.4068 -2.1003 -0.7953
  114MOL0     H15324   2.851   8.647   5.312 -0.3442 -1.9692  2.8871
  114MOL0     H15325   3.089   8.470   5.218  0.0116 -0.8772 -0.7496
  114MOL0     H15326   2.956   8.522   5.116 -0.2466  1.1390 -1.9100
  114MOL0     H15327   3.108   8.509   4.915  0.4398  0.2630  0.2219
  114MOL0     H15328   3.112   8.367   5.026 -0.4110 -0.6888  0.1112
  114MOL0     H15329   3.324   8.389   5.056  0.4787  0.0684 -1.8005
  114MOL0     H15330   3.324   8.570   5.081  1.2271  1.9289 -2.5312
  114MOL0     H15331   3.319   8.437   4.818 -2.4881 -0.3944  0.7757
  114MOL0     H15332   3.316   8.618   4.851  0.3161 -0.4830  0.0987
  114MOL0     H15333   3.533   8.564   4.987 -0.8067  0.6745  0.5452
  114MOL0     H15334   3.544   8.411   4.896  5.1814  1.0303 -4.2460
  114MOL0     H15335   3.529   8.534   4.675 -1.1553 -0.3773  0.3558
  114MOL0     H15336   3.521   8.688   4.769  2.1801  0.4661 -0.0437
  114MOL0     H15337   3.762   8.643   4.837 -1.0792 -0.9232  2.0713
  114MOL0     H15338   3.722   8.650   4.672 -2.3695  0.1125  0.0989
  114MOL0     H15339   3.898   8.469   4.714 -0.6758  1.5742 -0.8888
  114MOL0     H15340   3.781   8.381   4.816 -3.1302  0.5906  0.8658
  114MOL0     H15341   3.542   8.319   4.630  0.7038 -1.3965  1.5332
  114MOL0     H15342   3.465   8.222   4.357 -1.4972 -2.4084  0.5502
  114MOL0     H15343   3.610   8.144   4.275  0.9139  1.6641  0.0958
  114MOL0     H15344   3.470   8.066   4.536 -1.7455  0.7577 -2.2473
  114MOL0     H15345   3.461   7.971   4.392  0.3857 -1.0831  0.9604
  114MOL0     H15346   3.716   8.001   4.550  0.4586 -2.5857  1.1548
  114MOL0     H15347   3.712   7.921   4.391 -0.3126  4.1362 -2.1914
  114MOL0     H15348   3.500   7.833   4.577  0.0329 -0.5628 -2.9374
  114MOL0     H15349   3.646   7.816   4.667 -1.3896  2.4654  0.5945
  114MOL0     H15350   3.683   7.472   4.401  1.3007  2.7702 -3.6883
  114MOL0     H15351   3.895   7.365   4.372 -0.5603  0.2303 -0.0880
  114MOL0     H15352   4.372   7.477   4.352 -0.7947  0.1571  0.7154
  114MOL0     H15353   4.606   7.363   4.325 -0.6435  1.8053  0.2679
  114MOL0     H15354   4.776   7.249   4.450  1.4745 -0.4586  3.3632
  114MOL0     H15355   4.711   7.111   4.539  0.1855 -1.7325  0.0432
  114MOL0     H15356   4.908   7.095   4.314 -2.7584  2.3096  1.0160
  114MOL0     H15357   4.955   7.090   4.488 -0.2064 -0.3602  0.4234
  114MOL0     H15358   4.832   6.875   4.518  1.2951 -1.3760  0.9712
  114MOL0     H15359   4.771   6.897   4.358  0.1138 -0.8055  1.0434
  114MOL0     H15360   5.054   6.842   4.444  1.5339 -1.6782 -1.5553
  114MOL0     H15361   5.009   6.879   4.275 -0.3381  3.3572  0.5951
  114MOL0     H15362   4.880   6.684   4.253  1.7300  3.2793 -1.2586
  114MOL0     H15363   4.874   6.661   4.437  0.1003 -2.3249  0.4477
  114MOL0     H15364   5.117   6.617   4.407 -0.1564  2.9363  0.8645
  114MOL0     H15365   4.991   6.497   4.359  3.2744 -0.0912  2.2322
  114MOL0     H15366   5.160   6.669   4.158  1.0966 -0.3149  0.8756
  114MOL0     H15367   5.038   6.548   4.118 -0.5206  0.4623  0.4975
  114MOL0     H15368   5.299   6.510   4.284  0.4036  0.4654  0.4406
  114MOL0     H15369   5.173   6.390   4.257 -1.8173  0.5869 -0.2907
  114MOL0     H15370   4.442   6.980   4.344 -1.7005 -1.1248  4.2878
  114MOL0     H15371   4.206   7.091   4.374  1.1778 -1.6477  0.5250
  114MOL0     H15372   4.069   7.659   4.630 -0.2951  0.8335 -2.4683
  114MOL0     H15373   3.865   7.780   4.632  0.7720  1.3440 -2.0876
  114MOL0     H15374   3.243   8.824   5.240 -0.8096 -0.1962 -1.0402
  114MOL0     H15375   3.201   8.982   5.439 -1.5028  1.7760 -0.8349
  114MOL0     H15376   3.007   9.161   5.763  0.2339  0.8097 -1.3261
  114MOL0     H15377   2.934   9.284   5.965  0.7785  1.6545 -0.2270
  114MOL0     H15378   2.719   9.495   6.152 -1.1722 -1.7417  0.2855
  114MOL0     H15379   2.864   9.423   6.084  1.2748 -2.3015 -0.5471
  114MOL0     H15380   2.819   9.328   6.294  0.2685 -0.7009 -0.1874
  114MOL0     H15381   2.780   9.199   6.172  1.2997  0.7934  0.7398
  114MOL0     H15382   2.532   9.269   6.224 -1.4294  0.0931  1.1043
  114MOL0     H15383   2.613   9.352   6.357 -0.2005 -0.0303  0.7971
  114MOL0     H15384   2.631   9.053   6.315 -0.3579 -0.7638  0.1448
  114MOL0     H15385   2.734   9.157   6.426 -0.5129 -2.6152  1.7659
  114MOL0     H15386   2.350   9.144   6.612 -0.5765 -1.9680  0.9810
  114MOL0     H15387   2.533   9.278   5.806 -0.4323 -0.7893  1.9024
  114MOL0     H15388   2.488   9.112   5.661 -1.5648  1.5901 -1.4407
  114MOL0     H15389   2.548   9.217   5.524 -1.6132  0.6475  0.8193
  114MOL0     H15390   2.593   9.045   5.534 -0.0231  0.2887  0.0931
  115MOL0     O15391   5.898   3.150  10.501  0.2834 -0.1671  0.1259
  115MOL0     C15392   5.848   3.255  10.532 -0.3113 -0.1644 -0.6912
  115MOL0     O15393   5.908   3.344  10.611  0.0328  0.0873  0.2777
  115MOL0     C15394   6.047   3.354  10.616 -0.8479  0.2936 -0.0878
  115MOL0     C15395   6.121   3.272  10.696  0.2751  0.2429  0.6851
  115MOL0     C15396   6.263   3.293  10.717  0.0635  0.1028 -0.3524
  115MOL0     C15397   6.329   3.403  10.657  0.3274 -0.7289  0.8349
  115MOL0     O15398   6.468   3.419  10.657 -0.5270  0.5179 -0.0530
  115MOL0     C15399   6.564   3.337  10.725 -0.0882  0.2990  0.4925
  115MOL0     C15400   6.607   3.213  10.633  0.2660 -0.6501 -0.2179
  115MOL0     C15401   6.709   3.245  10.516  0.6633 -0.0138 -1.0376
  115MOL0     C15402   6.851   3.266  10.572 -0.3616  0.7430 -0.2146
  115MOL0     C15403   6.945   3.251  10.448  0.1741  0.0943 -0.4029
  115MOL0     C15404   7.089   3.278  10.487 -0.1100 -0.1630  0.1803
  115MOL0     C15405   7.175   3.237  10.367 -0.4319 -0.3110 -0.1772
  115MOL0     C15406   7.329   3.231  10.407  0.6773  0.2231 -1.5620
  115MOL0     N15407   7.395   3.346  10.463  0.0562 -0.5253 -0.0599
  115MOL0     C15408   7.399   3.474  10.411 -0.8859 -0.1142  0.6412
  115MOL0     C15409   7.472   3.542  10.508  0.3560  0.6297  0.8015
  115MOL0     C15410   7.509   3.687  10.501  0.1603 -0.3004 -0.4402
  115MOL0     C15411   7.399   3.777  10.447 -1.2848 -0.2219  1.5005
  115MOL0     C15412   7.295   3.814  10.557 -0.6587 -0.2008 -0.0503
  115MOL0     C15413   7.190   3.704  10.598  0.2342 -0.3800  0.0806
  115MOL0     O15414   7.106   3.661  10.485 -1.0664  0.4814  0.2984
  115MOL0     C15415   6.969   3.690  10.482 -0.3999 -0.1515 -0.2589
  115MOL0     C15416   6.895   3.624  10.390  0.2412 -1.0820  0.7662
  115MOL0     C15417   6.756   3.649  10.384  0.0138  0.3872 -0.5787
  115MOL0     C15418   6.694   3.745  10.456  1.0024  0.6622 -0.8269
  115MOL0     C15419   6.541   3.763  10.449 -1.0389 -0.1838 -0.3093
  115MOL0     O15420   6.496   3.873  10.520 -0.5199 -0.2070  0.4460
  115MOL0     C15421   6.360   3.895  10.520  0.3355 -0.9312  0.0780
  115MOL0     C15422   6.310   3.953  10.635  0.1103  0.1971 -0.1709
  115MOL0     C15423   6.169   3.968  10.653 -0.3839 -0.5268  0.2428
  115MOL0     C15424   6.078   3.928  10.557  0.3449  0.7036  0.7189
  115MOL0     O15425   5.943   3.942  10.585 -0.3597  0.4020 -0.4808
  115MOL0     C15426   5.848   3.842  10.533  0.5396  0.9018 -0.3045
  115MOL0     C15427   5.704   3.903  10.550  0.0822  0.5426  0.8372
  115MOL0     C15428   5.589   3.828  10.489  0.4654 -0.5422  0.5595
  115MOL0     C15429   5.459   3.910  10.508 -1.0211 -0.4207 -0.2831
  115MOL0     C15430   5.329   3.836  10.481  0.6492 -0.5029 -0.1138
  115MOL0     C15431   5.302   3.812  10.330 -0.2218 -0.4945  0.1927
  115MOL0     C15432   5.180   3.723  10.311  0.2727 -0.0750 -0.3540
  115MOL0     C15433   5.158   3.667  10.173 -0.7326  0.4455 -0.0779
  115MOL0    Cl15434   4.998   3.620  10.129  0.1420  0.1218  0.1307
  115MOL0     C15435   6.122   3.868  10.438 -0.1607 -0.0800 -0.0598
  115MOL0     C15436   6.262   3.864  10.426  0.4810 -0.0829  0.4297
  115MOL0     O15437   6.473   3.684  10.388  0.3767  0.5337  0.2208
  115MOL0     C15438   6.770   3.824  10.548 -0.3249 -0.0654  0.2202
  115MOL0     C15439   6.904   3.787  10.560 -0.0409 -1.0588  0.3131
  115MOL0     N15440   7.507   3.457  10.607 -0.1303 -0.2457 -0.1497
  115MOL0     N15441   7.461   3.336  10.579 -0.1504  0.2920 -0.2207
  115MOL0     C15442   6.248   3.491  10.591  0.2198 -0.3490  0.2237
  115MOL0     C15443   6.110   3.472  10.567  1.0356  0.4011 -0.3560
  115MOL0     C15444   5.706   3.284  10.496 -0.4321  0.1559 -0.1242
  115MOL0     C15445   5.605   3.200  10.546  0.1607  0.1498 -0.1937
  115MOL0     C15446   5.469   3.219  10.518  0.7312 -0.5967  0.0946
  115MOL0     C15447   5.436   3.341  10.445 -0.3073  0.1611  0.4235
  115MOL0     O15448   5.309   3.383  10.398  0.2904 -0.4700 -0.3414
  115MOL0     C15449   5.200   3.300  10.440  0.8008 -0.0466  0.1558
  115MOL0     C15450   5.063   3.340  10.391 -1.0221  0.3181  1.6639
  115MOL0     C15451   4.958   3.235  10.399  0.5263 -0.4328 -0.1548
  115MOL0     C15452   4.835   3.286  10.325  0.0806  0.1848  0.3946
  115MOL0     C15453   4.706   3.211  10.352  0.5210  0.5655 -0.4689
  115MOL0     C15454   4.607   3.174  10.407  0.2105 -0.3871 -0.0238
  115MOL0     C15455   5.539   3.437  10.418  0.2924 -0.1763  0.1652
  115MOL0     C15456   5.666   3.408  10.437  0.5949  1.1684  0.4828
  115MOL0     C15457   5.764   3.518  10.383  0.4083 -0.0174 -0.3217
  115MOL0     H15458   6.066   3.194  10.748 -0.2032  1.2958  1.8141
  115MOL0     H15459   6.314   3.212  10.767  1.1090 -0.4282 -2.1648
  115MOL0     H15460   6.650   3.401  10.746  0.4481 -1.0545  2.6900
  115MOL0     H15461   6.524   3.294  10.817  0.6284 -0.1886  0.5857
  115MOL0     H15462   6.509   3.190  10.589  1.8074 -0.5576 -4.1067
  115MOL0     H15463   6.640   3.136  10.703 -3.0669 -2.4858 -0.4469
  115MOL0     H15464   6.692   3.336  10.458  0.6393  0.1056 -0.8464
  115MOL0     H15465   6.701   3.166  10.442 -0.3397  0.0756 -1.0464
  115MOL0     H15466   6.851   3.368  10.611 -1.6515  1.2688 -1.4995
  115MOL0     H15467   6.872   3.192  10.650 -1.1130 -1.0812 -1.6703
  115MOL0     H15468   6.933   3.148  10.415  2.3633  0.0781 -1.3085
  115MOL0     H15469   6.913   3.324  10.373 -1.2172 -0.6700 -0.5765
  115MOL0     H15470   7.093   3.386  10.505 -1.7435  0.1470 -1.0535
  115MOL0     H15471   7.110   3.221  10.578 -0.6422  1.8447  1.6184
  115MOL0     H15472   7.168   3.306  10.283  1.0320  1.4096  1.0543
  115MOL0     H15473   7.145   3.138  10.331  0.6917 -1.2387  1.3248
  115MOL0     H15474   7.341   3.140  10.466 -0.6174  1.1176  0.1911
  115MOL0     H15475   7.375   3.209  10.310 -1.0956  2.3507 -2.9885
  115MOL0     H15476   7.354   3.508  10.318 -3.7784 -0.1242  1.9295
  115MOL0     H15477   7.540   3.716  10.602 -2.7946  1.2910  0.1136
  115MOL0     H15478   7.592   3.698  10.430 -0.6551 -0.5072 -1.4370
  115MOL0     H15479   7.442   3.871  10.411 -1.1965 -1.3984 -1.7717
  115MOL0     H15480   7.349   3.733  10.361  1.6842  2.6724 -2.0154
  115MOL0     H15481   7.235   3.903  10.534 -2.5452 -1.9069 -2.2882
  115MOL0     H15482   7.343   3.846  10.649 -0.8070  1.8022 -0.6197
  115MOL0     H15483   7.129   3.740  10.681 -0.9502  0.0401 -0.9429
  115MOL0     H15484   7.237   3.615  10.642  0.8769 -0.4123 -0.6569
  115MOL0     H15485   6.944   3.552  10.326 -0.4439 -0.4202 -0.5337
  115MOL0     H15486   6.698   3.597  10.310  1.2830 -1.7157 -0.1707
  115MOL0     H15487   6.370   3.986  10.719 -0.7794  1.8089 -0.1252
  115MOL0     H15488   6.125   4.015  10.741  0.1658  1.9692 -0.7386
  115MOL0     H15489   5.857   3.820  10.426 -0.2889 -3.7023  0.3596
  115MOL0     H15490   5.864   3.745  10.581  2.9322  0.9996 -0.7904
  115MOL0     H15491   5.690   3.914  10.658 -1.0822  1.3250  0.6272
  115MOL0     H15492   5.706   4.002  10.502  2.0008  0.5686  0.9221
  115MOL0     H15493   5.619   3.818  10.385  2.8307  0.8297  1.0363
  115MOL0     H15494   5.574   3.732  10.540  0.4680  1.3291  4.4701
  115MOL0     H15495   5.463   4.002  10.448 -1.8581  0.6837  1.2737
  115MOL0     H15496   5.449   3.940  10.613 -1.4615 -0.3657 -0.3359
  115MOL0     H15497   5.236   3.883  10.515 -0.2280 -2.3578  0.2097
  115MOL0     H15498   5.335   3.741  10.535 -1.7916 -0.0905  1.0532
  115MOL0     H15499   5.293   3.910  10.283  1.9128 -0.4572 -0.2320
  115MOL0     H15500   5.391   3.758  10.299  1.0487  0.8128  1.4150
  115MOL0     H15501   5.085   3.767  10.340 -0.3251 -2.4939  1.6335
  115MOL0     H15502   5.197   3.634  10.373  2.9473  0.1310 -0.6375
  115MOL0     H15503   5.197   3.740  10.101  1.1190 -0.8448 -0.4781
  115MOL0     H15504   5.211   3.576  10.142 -3.1903 -0.3022 -2.5220
  115MOL0     H15505   6.065   3.824  10.358  0.4232  0.6004 -0.8644
  115MOL0     H15506   6.291   3.831  10.326  1.6356  0.8838  0.4286
  115MOL0     H15507   6.731   3.904  10.612  0.0440 -0.9971  1.6568
  115MOL0     H15508   6.963   3.848  10.629 -1.9803 -2.6380  3.6247
  115MOL0     H15509   6.309   3.572  10.551 -0.8709  1.7039  2.4209
  115MOL0     H15510   6.057   3.541  10.502  0.2599 -1.5675 -1.8976
  115MOL0     H15511   5.643   3.110  10.595 -1.4045 -0.4665 -0.0753
  115MOL0     H15512   5.388   3.152  10.548 -2.8111  3.0899 -0.4212
  115MOL0     H15513   5.196   3.304  10.549 -2.3773 -0.9223  0.1795
  115MOL0     H15514   5.227   3.200  10.406  1.3359 -0.7800  2.5428
  115MOL0     H15515   5.071   3.384  10.291  0.1086 -1.5530  0.8756
  115MOL0     H15516   5.026   3.418  10.458 -3.1279  2.0778 -1.2959
  115MOL0     H15517   4.943   3.218  10.506  0.0362  0.6795 -0.0320
  115MOL0     H15518   4.984   3.136  10.361 -3.2322 -2.0806  1.0385
  115MOL0     H15519   4.827   3.392  10.350 -1.7354 -0.6662  4.1952
  115MOL0     H15520   4.861   3.287  10.219 -1.4617  2.4502 -0.0307
  115MOL0     H15521   4.517   3.120  10.427 -0.3998 -0.5326 -2.7085
  115MOL0     H15522   5.518   3.539  10.387  1.4277  0.4196  1.2492
  115MOL0     H15523   5.869   3.499  10.406  0.3452 -0.6061 -0.4858
  115MOL0     H15524   5.757   3.518  10.274 -0.3586 -1.9195 -0.3181
  115MOL0     H15525   5.723   3.614  10.413  0.6806  0.2488 -0.7921
  116MOL0     O15526   5.313  10.892   6.821  0.6515 -0.8207 -0.6164
  116MOL0     C15527   5.317  10.817   6.921  0.2876  0.4356 -0.5496
  116MOL0     O15528   5.420  10.740   6.955  0.3631 -0.7656  0.8306
  116MOL0     C15529   5.551  10.766   6.912  1.0023  0.2033  0.0173
  116MOL0     C15530   5.599  10.880   6.832  0.1056  0.7434 -0.2721
  116MOL0     C15531   5.735  10.880   6.788 -0.6735  1.3676  0.7922
  116MOL0     C15532   5.814  10.764   6.808  0.0812 -0.8383 -0.2905
  116MOL0     O15533   5.947  10.756   6.775  0.1653  0.5127 -0.1501
  116MOL0     C15534   6.001  10.845   6.674 -0.0345 -0.1992 -0.9743
  116MOL0     C15535   6.142  10.797   6.641 -0.0242 -0.1458  0.3801
  116MOL0     C15536   6.192  10.890   6.528  0.7809 -0.4466  0.1143
  116MOL0     C15537   6.346  10.905   6.504  0.3127  0.4572 -0.1767
  116MOL0     C15538   6.401  10.765   6.460 -0.0862  0.1374 -0.4726
  116MOL0     C15539   6.511  10.756   6.362  0.4028 -0.0868 -0.6342
  116MOL0     C15540   6.650  10.785   6.424  0.3829 -0.0799  0.2322
  116MOL0     C15541   6.717  10.912   6.357  0.0829 -0.3475 -0.3942
  116MOL0     N15542   6.862  10.931   6.394 -0.1303 -0.4579 -1.5428
  116MOL0     C15543   6.973  10.976   6.327 -0.0666 -0.0132 -0.0546
  116MOL0     C15544   7.054  11.016   6.425 -0.7789  1.1119  0.2218
  116MOL0     C15545   7.189  11.085   6.400 -0.4963 -0.5288 -0.0287
  116MOL0     C15546   7.281  10.997   6.317 -0.3870  0.0681  0.3602
  116MOL0     C15547   7.413  11.074   6.293  1.3888 -0.4516 -0.1086
  116MOL0     C15548   7.515  10.983   6.232  0.0145  0.5324  0.7136
  116MOL0     O15549   7.631  11.053   6.203 -0.4470 -0.1509 -0.5534
  116MOL0     C15550   7.745  10.980   6.190 -0.4668  0.5686 -0.1926
  116MOL0     C15551   7.762  10.866   6.117 -0.0708  0.5055 -0.0187
  116MOL0     C15552   7.877  10.785   6.133  0.7708  0.0403  0.1213
  116MOL0     C15553   7.974  10.829   6.222  0.4825  0.2138  0.6086
  116MOL0     C15554   8.097  10.756   6.242 -0.4380  0.1176 -0.8367
  116MOL0     O15555   8.180  10.793   6.344 -0.2877 -0.8171 -0.7818
  116MOL0     C15556   8.278  10.701   6.378 -0.0338 -0.3474  0.3982
  116MOL0     C15557   8.414  10.740   6.370  0.3449  0.6229 -0.3735
  116MOL0     C15558   8.518  10.644   6.392 -0.2949  0.3502  0.5927
  116MOL0     C15559   8.484  10.524   6.438  0.7241  0.5672 -0.5735
  116MOL0     O15560   8.575  10.424   6.464 -0.4484 -0.3899 -0.2476
  116MOL0     C15561   8.713  10.437   6.439 -0.3522 -0.3891 -0.5400
  116MOL0     C15562   8.788  10.313   6.470 -0.1587 -0.1329 -0.0200
  116MOL0     C15563   8.790  10.251   6.617 -0.6069 -0.3782 -0.2156
  116MOL0     C15564   8.903  10.140   6.644 -0.9794  0.0635  0.1210
  116MOL0     C15565   8.915  10.036   6.526 -0.8914 -0.3035  1.1069
  116MOL0     C15566   8.801   9.937   6.516 -0.2079 -0.1838  0.4888
  116MOL0     C15567   8.818   9.852   6.387 -0.6040 -0.3035 -0.6406
  116MOL0     C15568   8.933   9.749   6.403 -0.9002  0.1746 -0.8588
  116MOL0    Cl15569   8.927   9.626   6.259  0.5305 -0.2833  0.1034
  116MOL0     C15570   8.352  10.485   6.458 -0.1753  0.0740 -0.7656
  116MOL0     C15571   8.250  10.567   6.424 -0.6701 -0.9282  0.6801
  116MOL0     O15572   8.123  10.667   6.154  0.1984  0.0268 -0.1321
  116MOL0     C15573   7.956  10.952   6.289  0.1121 -0.5471  0.2747
  116MOL0     C15574   7.841  11.028   6.282  0.0959  0.1093 -0.0080
  116MOL0     N15575   7.004  10.983   6.550 -0.4852  0.7652 -0.2838
  116MOL0     N15576   6.893  10.919   6.527  0.1243  0.5120 -0.4956
  116MOL0     C15577   5.759  10.658   6.889 -0.7661  0.9517 -0.8146
  116MOL0     C15578   5.633  10.667   6.947  0.6082  0.2568 -0.1012
  116MOL0     C15579   5.188  10.824   7.007 -0.3060  0.9108  0.5278
  116MOL0     C15580   5.098  10.926   6.978  0.1699  0.1887  0.6603
  116MOL0     C15581   4.980  10.942   7.056 -0.4937 -0.0638  0.2156
  116MOL0     C15582   4.946  10.852   7.156 -0.4646  0.4312 -0.4162
  116MOL0     O15583   4.833  10.875   7.227 -0.0701  1.0172 -0.3849
  116MOL0     C15584   4.798  10.781   7.337 -0.2010  0.1177 -0.0972
  116MOL0     C15585   4.700  10.676   7.294 -0.6904  0.1743  0.0015
  116MOL0     C15586   4.575  10.734   7.229  0.5013  0.4247 -0.3152
  116MOL0     C15587   4.474  10.629   7.174  0.3588  0.0742  0.0806
  116MOL0     C15588   4.364  10.694   7.098 -0.0430 -0.9449  0.1155
  116MOL0     C15589   4.271  10.745   7.030 -0.0968 -0.6677 -0.7833
  116MOL0     C15590   5.036  10.741   7.179  0.8483  0.3407 -0.5195
  116MOL0     C15591   5.160  10.724   7.115 -0.4504 -0.7090  1.2873
  116MOL0     C15592   5.249  10.600   7.144 -0.4088  0.5049 -0.6986
  116MOL0     H15593   5.540  10.968   6.810  0.3424  1.5982  2.1601
  116MOL0     H15594   5.774  10.967   6.737 -2.1342  2.5740  1.6436
  116MOL0     H15595   5.941  10.854   6.583  0.3833  2.5356 -1.0829
  116MOL0     H15596   6.001  10.945   6.720  0.0694 -1.3993  1.8394
  116MOL0     H15597   6.141  10.690   6.619  1.4716  0.0469 -0.8476
  116MOL0     H15598   6.198  10.809   6.734  3.3452 -1.4429 -1.3210
  116MOL0     H15599   6.155  10.989   6.557  0.5406 -0.5929  0.3094
  116MOL0     H15600   6.147  10.855   6.434  0.4702 -0.2050  0.1705
  116MOL0     H15601   6.358  10.970   6.417 -0.7458 -0.6795 -1.2142
  116MOL0     H15602   6.393  10.944   6.595  0.9287 -1.5975  0.4533
  116MOL0     H15603   6.435  10.710   6.549 -3.3411  0.2229  0.9509
  116MOL0     H15604   6.327  10.700   6.412  0.4587  1.0694 -2.7144
  116MOL0     H15605   6.508  10.661   6.308  0.0602  0.1438 -1.0373
  116MOL0     H15606   6.501  10.834   6.285  0.9773  0.5665 -0.0584
  116MOL0     H15607   6.718  10.699   6.411 -0.3416 -0.5349 -0.6890
  116MOL0     H15608   6.644  10.814   6.529  1.2312  0.5457  0.1216
  116MOL0     H15609   6.712  10.917   6.248 -0.3245  1.2262 -0.3222
  116MOL0     H15610   6.664  11.002   6.387  0.1221 -0.0490 -1.2136
  116MOL0     H15611   6.994  10.983   6.221  2.1848 -2.6267  0.1114
  116MOL0     H15612   7.173  11.178   6.344 -0.4840 -1.3296 -1.4295
  116MOL0     H15613   7.237  11.112   6.494 -1.1136  2.3526 -0.4205
  116MOL0     H15614   7.294  10.900   6.365 -0.2307 -0.3458 -0.5150
  116MOL0     H15615   7.224  10.975   6.226  0.4664 -0.0509 -0.1503
  116MOL0     H15616   7.459  11.114   6.383 -0.9419  2.9986 -0.2675
  116MOL0     H15617   7.397  11.157   6.223 -1.1182  1.3698  2.3996
  116MOL0     H15618   7.484  10.931   6.141  1.6523 -1.3471  1.1518
  116MOL0     H15619   7.538  10.893   6.290 -1.4776 -0.8282 -0.7084
  116MOL0     H15620   7.680  10.842   6.051  0.4445 -2.7132  0.3742
  116MOL0     H15621   7.873  10.701   6.065 -3.2494 -0.3558  0.5729
  116MOL0     H15622   8.452  10.840   6.349 -1.9288  1.5722 -0.2981
  116MOL0     H15623   8.618  10.680   6.370  0.2119 -1.6491 -0.6385
  116MOL0     H15624   8.731  10.478   6.339  2.8410  0.0352  0.1099
  116MOL0     H15625   8.745  10.515   6.509  2.0210  0.3660 -2.3197
  116MOL0     H15626   8.734  10.237   6.413 -1.8036  1.0834 -0.1633
  116MOL0     H15627   8.883  10.336   6.421 -1.4766  0.1117 -2.5816
  116MOL0     H15628   8.801  10.333   6.688 -0.4031  0.1084 -0.7916
  116MOL0     H15629   8.691  10.209   6.634 -1.1121 -1.0548 -3.9813
  116MOL0     H15630   8.893  10.084   6.737  1.3337 -2.3439 -0.9296
  116MOL0     H15631   8.997  10.195   6.649 -1.9577  1.9898 -1.2262
  116MOL0     H15632   9.009   9.984   6.546 -0.7358 -0.5632 -0.2160
  116MOL0     H15633   8.940  10.081   6.430  2.1975 -0.4151  1.7611
  116MOL0     H15634   8.813   9.886   6.612  1.3615  1.1469  1.0589
  116MOL0     H15635   8.706   9.990   6.521 -0.3757 -0.3367 -0.7593
  116MOL0     H15636   8.835   9.914   6.298  1.5647 -2.1447 -1.6250
  116MOL0     H15637   8.727   9.793   6.372 -0.6779  0.1235 -2.0530
  116MOL0     H15638   9.025   9.807   6.396 -1.0898  0.7763  1.0529
  116MOL0     H15639   8.930   9.692   6.497 -1.4575  3.0962  1.0427
  116MOL0     H15640   8.319  10.385   6.482 -1.3612  0.3240 -1.2794
  116MOL0     H15641   8.145  10.539   6.430 -1.5510  1.6261 -0.8839
  116MOL0     H15642   8.025  10.996   6.361 -1.0490  1.3059  0.3408
  116MOL0     H15643   7.823  11.110   6.352 -2.2174 -1.5045  1.4241
  116MOL0     H15644   5.825  10.574   6.911 -1.6685  0.7949  1.6885
  116MOL0     H15645   5.599  10.584   7.008  2.5083  0.9261  2.0118
  116MOL0     H15646   5.111  10.996   6.896  4.2791  1.0327  1.7791
  116MOL0     H15647   4.921  11.032   7.042  0.2283  0.4585  0.4559
  116MOL0     H15648   4.742  10.838   7.412 -1.9087 -2.5946  0.8202
  116MOL0     H15649   4.878  10.732   7.393 -2.4545 -0.9700  2.3690
  116MOL0     H15650   4.659  10.630   7.384  1.2137 -1.8516 -0.0890
  116MOL0     H15651   4.746  10.602   7.227 -0.5607 -0.8073  1.1496
  116MOL0     H15652   4.595  10.812   7.154  0.8045  0.3714 -0.2927
  116MOL0     H15653   4.520  10.791   7.304 -0.2193 -0.8893  0.1970
  116MOL0     H15654   4.530  10.569   7.102 -1.6508 -0.7210 -0.8947
  116MOL0     H15655   4.437  10.569   7.258  0.1650  0.8234  0.5333
  116MOL0     H15656   4.192  10.767   6.961 -0.3918  0.4022 -0.1241
  116MOL0     H15657   5.001  10.666   7.250 -0.7139  0.3965 -1.1819
  116MOL0     H15658   5.260  10.554   7.045  0.7046  0.2944 -0.4884
  116MOL0     H15659   5.351  10.634   7.167 -0.8011  0.1247  1.8008
  116MOL0     H15660   5.213  10.533   7.222  3.1344  0.8054  1.4141
  117MOL0     O15661  11.047   0.513   8.257  0.1586  0.0229 -0.6754
  117MOL0     C15662  11.081   0.624   8.212  0.0722  0.6235  0.1529
  117MOL0     O15663  11.026   0.751   8.251 -0.3046 -0.7120 -0.2462
  117MOL0     C15664  10.887   0.771   8.267  0.7586  1.1228  0.2532
  117MOL0     C15665  10.834   0.886   8.334  0.1158  0.2081 -0.1134
  117MOL0     C15666  10.699   0.919   8.337  0.1731 -0.0620 -0.1910
  117MOL0     C15667  10.611   0.839   8.257  0.3358  0.0750 -0.3715
  117MOL0     O15668  10.473   0.871   8.258  0.5591  0.6645 -0.5542
  117MOL0     C15669  10.423   1.000   8.305  0.1565  0.6294  0.5495
  117MOL0     C15670  10.283   1.037   8.243 -0.6556 -0.1380  0.1659
  117MOL0     C15671  10.167   0.983   8.338 -1.4069  0.0563  0.1739
  117MOL0     C15672  10.038   0.980   8.260 -0.2723  0.3693 -0.4191
  117MOL0     C15673   9.968   1.117   8.262  0.3502  0.0082 -0.0692
  117MOL0     C15674   9.838   1.095   8.186 -0.5723  0.4505  0.3577
  117MOL0     C15675   9.764   1.224   8.149 -0.0097  0.2722  0.0473
  117MOL0     C15676   9.638   1.197   8.073  0.8862  0.4440  0.2196
  117MOL0     N15677   9.667   1.147   7.938 -0.2099  0.4791  0.4460
  117MOL0     C15678   9.717   1.227   7.844  0.5436 -0.1331 -0.5812
  117MOL0     C15679   9.720   1.140   7.736  0.6247 -0.1115 -0.8739
  117MOL0     C15680   9.757   1.173   7.596 -0.0947  0.0764  0.0833
  117MOL0     C15681   9.670   1.278   7.534  0.9258  0.2533  0.1254
  117MOL0     C15682   9.696   1.310   7.383 -0.3665  0.3313 -0.7200
  117MOL0     C15683   9.689   1.185   7.301 -0.1686 -0.2812 -0.6262
  117MOL0     O15684   9.811   1.105   7.300  0.4220  0.7982  0.0787
  117MOL0     C15685   9.920   1.158   7.230  0.4630 -0.4561 -0.3442
  117MOL0     C15686  10.042   1.090   7.254  0.6122 -0.3838  0.3521
  117MOL0     C15687  10.150   1.147   7.194 -0.4824 -0.2539  0.2553
  117MOL0     C15688  10.149   1.266   7.120 -0.0769  0.9090 -1.0392
  117MOL0     C15689  10.273   1.331   7.086 -0.3930 -0.5483 -0.0438
  117MOL0     O15690  10.384   1.277   7.139  0.5157  0.3847  0.3419
  117MOL0     C15691  10.511   1.333   7.113  0.6374  0.0512  0.0250
  117MOL0     C15692  10.619   1.264   7.163 -0.4635  1.1332 -0.2785
  117MOL0     C15693  10.751   1.311   7.153 -0.1319  0.1092 -0.1337
  117MOL0     C15694  10.769   1.433   7.087  0.0859  0.5977  0.1637
  117MOL0     O15695  10.896   1.485   7.060 -0.3304  0.1743 -0.8738
  117MOL0     C15696  10.961   1.522   7.187 -1.0744  0.1396  0.2412
  117MOL0     C15697  11.109   1.560   7.158 -0.2933 -1.2067  0.1676
  117MOL0     C15698  11.211   1.466   7.211 -0.6790  0.5943  0.7116
  117MOL0     C15699  11.345   1.504   7.153  0.8447  0.4788  0.0677
  117MOL0     C15700  11.449   1.390   7.172  1.2541 -0.0929  0.5113
  117MOL0     C15701  11.589   1.449   7.170 -0.1050 -0.1845 -0.3120
  117MOL0     C15702  11.685   1.341   7.199 -0.1694 -0.1506 -0.0652
  117MOL0     C15703  11.825   1.399   7.171 -0.4850  0.0389 -0.1610
  117MOL0    Cl15704  11.857   1.573   7.205  0.4907  0.1744 -0.2947
  117MOL0     C15705  10.664   1.511   7.048 -0.3016  0.1017 -0.5549
  117MOL0     C15706  10.540   1.464   7.060  0.4822  0.2766 -0.9088
  117MOL0     O15707  10.269   1.432   7.013 -0.3125 -0.2024  0.0619
  117MOL0     C15708  10.032   1.311   7.064  0.9382 -0.4540 -0.1105
  117MOL0     C15709   9.914   1.266   7.128 -0.3309  0.3840  0.9950
  117MOL0     N15710   9.684   1.015   7.775  0.5504  0.7752  0.2455
  117MOL0     N15711   9.647   1.026   7.895 -0.1674  0.2619  0.7503
  117MOL0     C15712  10.657   0.723   8.193 -0.0613 -0.2135  0.4240
  117MOL0     C15713  10.788   0.690   8.197  0.0838  0.0007  0.5846
  117MOL0     C15714  11.217   0.626   8.162 -0.7743  0.6680 -0.0871
  117MOL0     C15715  11.298   0.739   8.192 -0.9053 -0.2233  0.2336
  117MOL0     C15716  11.430   0.736   8.148  0.0585  0.6202  0.1450
  117MOL0     C15717  11.486   0.630   8.073 -0.7877 -0.1239 -0.4237
  117MOL0     O15718  11.611   0.653   8.027  0.0496 -0.3064  0.6089
  117MOL0     C15719  11.679   0.547   7.959 -0.2775 -0.1415  0.0486
  117MOL0     C15720  11.823   0.588   7.958  0.1657  0.1695 -0.6298
  117MOL0     C15721  11.903   0.503   7.860  0.1047 -0.1353 -0.9803
  117MOL0     C15722  11.902   0.356   7.909  0.2509  0.2854  0.2616
  117MOL0     C15723  11.792   0.268   7.870  0.0523 -0.6753  0.9611
  117MOL0     C15724  11.689   0.209   7.825  0.3931  0.6330  0.2961
  117MOL0     C15725  11.408   0.518   8.045  0.3712  0.1330  0.1823
  117MOL0     C15726  11.273   0.518   8.082  1.0794  0.5846  0.5730
  117MOL0     C15727  11.191   0.395   8.032  0.5134 -0.3233 -0.1442
  117MOL0     H15728  10.907   0.941   8.393  0.5696 -0.3352 -0.1601
  117MOL0     H15729  10.661   0.999   8.401  0.9614 -0.5038  0.8533
  117MOL0     H15730  10.407   0.980   8.411 -1.3966  1.4644  0.4975
  117MOL0     H15731  10.491   1.084   8.290  0.2269  0.3158 -1.0885
  117MOL0     H15732  10.297   0.996   8.142  3.8526  1.6379 -0.1483
  117MOL0     H15733  10.282   1.145   8.230  3.2891 -0.1991 -2.3126
  117MOL0     H15734  10.155   1.030   8.437 -3.0906  1.7890 -0.7968
  117MOL0     H15735  10.196   0.881   8.367 -1.9559 -0.1472  0.0039
  117MOL0     H15736  10.060   0.963   8.155 -1.1309  0.5309 -0.6338
  117MOL0     H15737   9.977   0.900   8.303 -1.2093  0.8939 -0.7392
  117MOL0     H15738   9.944   1.146   8.365 -0.5152 -1.1165  0.0650
  117MOL0     H15739  10.040   1.187   8.219 -0.5929  1.5290  0.7304
  117MOL0     H15740   9.869   1.045   8.093 -3.3464 -1.3000  0.2585
  117MOL0     H15741   9.775   1.031   8.249  2.1218 -1.1913  1.5973
  117MOL0     H15742   9.832   1.284   8.088  1.4145 -1.4180 -0.1092
  117MOL0     H15743   9.742   1.283   8.238 -2.8875 -1.0207  0.3220
  117MOL0     H15744   9.587   1.112   8.120 -0.2153  1.1219  0.3000
  117MOL0     H15745   9.578   1.288   8.059  0.6166 -0.1788 -4.2312
  117MOL0     H15746   9.751   1.330   7.852 -0.2769  0.0943  0.0816
  117MOL0     H15747   9.863   1.198   7.587 -0.4011  1.0518 -0.9701
  117MOL0     H15748   9.751   1.078   7.542  1.1565  0.5381 -0.9065
  117MOL0     H15749   9.564   1.254   7.548 -0.0723  2.2340 -2.8736
  117MOL0     H15750   9.687   1.367   7.595  0.0387  0.1209  0.5855
  117MOL0     H15751   9.794   1.359   7.373 -0.8645  1.4808 -0.1441
  117MOL0     H15752   9.631   1.391   7.351 -1.6986 -0.1941  0.5456
  117MOL0     H15753   9.667   1.208   7.196  1.5439  0.6687 -0.8105
  117MOL0     H15754   9.609   1.119   7.337  0.4045 -1.5148 -1.4987
  117MOL0     H15755  10.041   1.000   7.314 -2.9078  0.5234  1.9269
  117MOL0     H15756  10.245   1.094   7.199 -2.0515 -3.1984  1.2327
  117MOL0     H15757  10.614   1.169   7.214  0.8951  0.3944 -1.4636
  117MOL0     H15758  10.845   1.263   7.178  1.3284  0.8148 -3.6242
  117MOL0     H15759  10.910   1.614   7.213  1.4174  2.5588 -2.5956
  117MOL0     H15760  10.954   1.455   7.273  3.2805  2.2762  2.6104
  117MOL0     H15761  11.125   1.600   7.057  1.0342  1.6668  1.3975
  117MOL0     H15762  11.132   1.649   7.217  0.1542 -1.0130 -0.2874
  117MOL0     H15763  11.217   1.456   7.319  0.5661 -2.7958  0.4365
  117MOL0     H15764  11.191   1.366   7.171 -2.5053  0.5024  1.7446
  117MOL0     H15765  11.382   1.590   7.210  0.6442 -0.0417  1.0089
  117MOL0     H15766  11.334   1.534   7.048 -1.5972 -1.4130 -0.3145
  117MOL0     H15767  11.437   1.318   7.091 -0.7769  0.9308 -0.1820
  117MOL0     H15768  11.424   1.339   7.266  0.8246  0.8804  0.9461
  117MOL0     H15769  11.606   1.481   7.067  0.5517 -1.6990 -0.7024
  117MOL0     H15770  11.589   1.530   7.243 -1.9108 -0.3079 -0.1294
  117MOL0     H15771  11.670   1.250   7.141  2.5665  0.4754 -1.9468
  117MOL0     H15772  11.674   1.312   7.304 -2.8251 -0.2004 -0.2791
  117MOL0     H15773  11.898   1.338   7.224 -2.2738 -2.2878 -0.2200
  117MOL0     H15774  11.838   1.380   7.064  0.8301 -0.8133  0.1274
  117MOL0     H15775  10.673   1.607   6.999 -2.1269  0.3670 -0.4182
  117MOL0     H15776  10.469   1.542   7.034 -1.1410 -0.8661  0.0244
  117MOL0     H15777  10.047   1.389   6.990  2.1846  1.2121  1.7482
  117MOL0     H15778   9.817   1.306   7.102  0.1227  1.2251  0.5707
  117MOL0     H15779  10.586   0.662   8.138 -1.4475  1.2744  0.5051
  117MOL0     H15780  10.813   0.600   8.141 -5.5426 -0.8094 -1.2753
  117MOL0     H15781  11.253   0.826   8.239  1.2765  1.8814 -1.2979
  117MOL0     H15782  11.486   0.829   8.154  1.7043  0.1656 -4.3871
  117MOL0     H15783  11.646   0.533   7.856 -1.1086 -1.6027  0.4948
  117MOL0     H15784  11.656   0.447   7.996 -0.9809  0.4106  1.1795
  117MOL0     H15785  11.873   0.594   8.056  0.2397  1.1227 -0.7170
  117MOL0     H15786  11.829   0.692   7.924  3.5334 -0.5003 -2.5715
  117MOL0     H15787  12.006   0.539   7.867  0.2120 -0.7463  2.4170
  117MOL0     H15788  11.870   0.493   7.757  1.8960 -1.6309 -1.4674
  117MOL0     H15789  12.000   0.313   7.886  1.5977  1.8906  2.5633
  117MOL0     H15790  11.904   0.350   8.019 -3.6163 -5.1577  0.4661
  117MOL0     H15791  11.598   0.160   7.796  0.7102 -0.6168  1.3131
  117MOL0     H15792  11.444   0.433   7.989 -1.7610 -1.2856  0.8418
  117MOL0     H15793  11.087   0.430   8.034  1.6767  3.5725  1.5391
  117MOL0     H15794  11.206   0.369   7.927 -5.0911  1.9287 -1.8879
  117MOL0     H15795  11.210   0.313   8.102  1.0957  0.6710  0.8903
  118MOL0     O15796   3.928   2.833   0.593  0.1927 -0.4067  0.5434
  118MOL0     C15797   3.909   2.775   0.491  0.2136 -0.5649 -1.1506
  118MOL0     O15798   4.008   2.710   0.428  0.2217  0.0086  0.3823
  118MOL0     C15799   4.122   2.685   0.498 -1.1520 -0.0694  0.1162
  118MOL0     C15800   4.121   2.572   0.577  0.4998  1.0642 -0.7097
  118MOL0     C15801   4.237   2.521   0.645  0.8990 -1.2523  0.9127
  118MOL0     C15802   4.347   2.595   0.642 -0.2822 -0.1204  0.4354
  118MOL0     O15803   4.444   2.538   0.716  1.3461  0.1523 -0.5036
  118MOL0     C15804   4.522   2.628   0.798  0.2621 -0.6862  0.3551
  118MOL0     C15805   4.656   2.678   0.736  0.0685  0.5603  0.6690
  118MOL0     C15806   4.738   2.753   0.842  0.5334 -0.2785 -0.8869
  118MOL0     C15807   4.865   2.812   0.778 -0.1036 -0.5091 -0.4608
  118MOL0     C15808   4.981   2.719   0.759  0.4117 -0.1380 -0.0461
  118MOL0     C15809   5.122   2.791   0.740 -0.2857  0.5709  0.9476
  118MOL0     C15810   5.238   2.682   0.749  0.0029 -0.1462  0.5236
  118MOL0     C15811   5.388   2.739   0.717  1.1716 -0.4360  0.6324
  118MOL0     N15812   5.487   2.636   0.702  0.0710 -0.4980  0.3437
  118MOL0     C15813   5.593   2.635   0.605  0.3342  0.1751  1.2335
  118MOL0     C15814   5.652   2.514   0.634 -0.5195 -0.2935  0.5369
  118MOL0     C15815   5.759   2.468   0.539  0.4374 -0.3119 -0.5525
  118MOL0     C15816   5.901   2.480   0.597  1.2540  0.4098  0.5302
  118MOL0     C15817   6.000   2.435   0.489  1.1833 -0.4639 -0.4582
  118MOL0     C15818   6.139   2.442   0.540 -0.1245 -0.1197 -0.5433
  118MOL0     O15819   6.195   2.573   0.548  0.5337  0.1393 -0.4668
  118MOL0     C15820   6.335   2.593   0.544 -0.6314  0.0289 -0.1516
  118MOL0     C15821   6.424   2.521   0.631 -0.4684  0.2799  0.3184
  118MOL0     C15822   6.555   2.548   0.626 -0.6640  0.2295 -0.0089
  118MOL0     C15823   6.611   2.648   0.546  0.2309  0.5858 -0.0595
  118MOL0     C15824   6.757   2.667   0.555  0.1877  0.0847 -0.6255
  118MOL0     O15825   6.803   2.778   0.490 -0.4121 -0.3241  0.4092
  118MOL0     C15826   6.937   2.798   0.460  0.1596 -0.5754  0.3750
  118MOL0     C15827   6.973   2.936   0.470  0.0837 -0.0276  0.0557
  118MOL0     C15828   7.111   2.977   0.469 -0.5467 -0.1781  0.5470
  118MOL0     C15829   7.205   2.886   0.426 -0.5083  0.0166  0.1133
  118MOL0     O15830   7.333   2.946   0.393 -0.1979 -0.2376  0.1786
  118MOL0     C15831   7.431   2.845   0.336  0.6073 -0.5640 -0.4724
  118MOL0     C15832   7.554   2.933   0.303 -0.2569  0.7059 -0.1908
  118MOL0     C15833   7.526   3.076   0.240  0.0379  1.7655  0.3140
  118MOL0     C15834   7.657   3.118   0.173 -0.5511  0.7164  1.0869
  118MOL0     C15835   7.663   3.255   0.099 -0.9452  0.0521  0.6532
  118MOL0     C15836   7.559   3.268  -0.012 -0.4829  0.4170  0.6822
  118MOL0     C15837   7.617   3.237  -0.154 -0.4082  0.1210  0.7917
  118MOL0     C15838   7.692   3.096  -0.157  0.3040 -0.1010  0.6372
  118MOL0    Cl15839   7.753   3.054  -0.323 -0.0916  0.1374  0.6935
  118MOL0     C15840   7.168   2.748   0.421 -0.0374 -0.9795  0.1473
  118MOL0     C15841   7.030   2.708   0.437  0.0017 -0.2503  0.7534
  118MOL0     O15842   6.825   2.572   0.604 -0.1959 -0.0604 -0.1982
  118MOL0     C15843   6.524   2.716   0.453  0.1802  0.0451 -0.4085
  118MOL0     C15844   6.390   2.683   0.455  0.3283  0.1298 -0.9455
  118MOL0     N15845   5.604   2.448   0.741  0.6947  0.1364  0.1202
  118MOL0     N15846   5.505   2.525   0.780 -0.5650  0.1434  0.0260
  118MOL0     C15847   4.362   2.706   0.562 -0.0027  0.0654 -0.0692
  118MOL0     C15848   4.248   2.755   0.486 -0.9406 -0.9140 -0.2913
  118MOL0     C15849   3.767   2.757   0.447  0.5544 -0.3668 -0.6241
  118MOL0     C15850   3.670   2.843   0.498  0.9562  0.3501  0.3787
  118MOL0     C15851   3.532   2.833   0.474  0.1680  0.1959  0.4078
  118MOL0     C15852   3.486   2.729   0.390  1.0956 -0.0715  1.0574
  118MOL0     O15853   3.354   2.715   0.374 -0.4303  0.6566  0.6496
  118MOL0     C15854   3.290   2.605   0.313  0.5048 -0.7403 -0.0294
  118MOL0     C15855   3.138   2.618   0.330 -0.3151 -0.8233  0.1048
  118MOL0     C15856   3.083   2.753   0.276 -0.2207  0.3266  0.5457
  118MOL0     C15857   2.949   2.794   0.329 -0.0156  0.0288 -0.1494
  118MOL0     C15858   2.950   2.940   0.312  0.7099  1.0936  0.1776
  118MOL0     C15859   2.950   3.058   0.290  0.0241  1.0747 -0.1586
  118MOL0     C15860   3.579   2.648   0.327  0.2465 -0.1113  0.2955
  118MOL0     C15861   3.721   2.667   0.350  0.4647 -0.1995 -0.6603
  118MOL0     C15862   3.812   2.571   0.269  1.0186  0.2993 -0.3128
  118MOL0     H15863   4.028   2.517   0.577 -0.2253  2.2448 -0.9396
  118MOL0     H15864   4.226   2.424   0.693  1.7840 -0.7437  2.1740
  118MOL0     H15865   4.461   2.710   0.838 -0.2132  1.0831 -3.5824
  118MOL0     H15866   4.549   2.566   0.884 -0.5246  0.3456  1.3815
  118MOL0     H15867   4.636   2.744   0.651  0.9499  0.8351  0.6708
  118MOL0     H15868   4.717   2.595   0.699  1.1984  0.9791  1.5483
  118MOL0     H15869   4.750   2.689   0.930 -0.1442  0.6311 -0.1056
  118MOL0     H15870   4.694   2.845   0.882  1.2806  0.3748 -1.5437
  118MOL0     H15871   4.843   2.841   0.675  3.6960 -2.4237 -2.0067
  118MOL0     H15872   4.902   2.901   0.830 -0.6320  1.1909 -2.8516
  118MOL0     H15873   4.979   2.662   0.852  0.0018  0.6114  0.4109
  118MOL0     H15874   4.973   2.651   0.673 -0.4803 -0.5847  0.3799
  118MOL0     H15875   5.113   2.839   0.642 -2.9040 -0.5746  0.5509
  118MOL0     H15876   5.145   2.867   0.815  3.7114 -2.0860  2.7549
  118MOL0     H15877   5.214   2.604   0.676 -0.3945  2.8497 -2.8400
  118MOL0     H15878   5.221   2.647   0.851 -1.7554  0.7902  0.5899
  118MOL0     H15879   5.369   2.774   0.615 -1.1581  0.7982  1.4056
  118MOL0     H15880   5.425   2.824   0.776  0.4585 -0.3253  0.9320
  118MOL0     H15881   5.625   2.716   0.541 -0.0405  0.7033  1.6999
  118MOL0     H15882   5.744   2.364   0.508 -0.5883 -0.0379 -1.0207
  118MOL0     H15883   5.756   2.536   0.453 -1.4506  1.4536  0.8171
  118MOL0     H15884   5.913   2.585   0.626 -1.7657  0.6233  1.3184
  118MOL0     H15885   5.906   2.423   0.690 -1.4061  0.7767  0.9866
  118MOL0     H15886   5.999   2.499   0.400 -1.4145 -0.4143 -0.4797
  118MOL0     H15887   5.967   2.335   0.458 -2.0282  0.5807 -0.7902
  118MOL0     H15888   6.196   2.383   0.468 -0.9985  1.2705 -2.4385
  118MOL0     H15889   6.147   2.386   0.634 -1.6046 -0.4508 -0.5964
  118MOL0     H15890   6.378   2.442   0.689 -0.4668 -2.2848 -2.9502
  118MOL0     H15891   6.609   2.486   0.696  0.7098 -1.2104 -2.2363
  118MOL0     H15892   6.906   3.014   0.505  1.5238  0.0951  2.7806
  118MOL0     H15893   7.155   3.071   0.498  2.6873 -2.1335  2.5801
  118MOL0     H15894   7.465   2.781   0.418 -0.1648 -0.6500 -0.2102
  118MOL0     H15895   7.397   2.792   0.247  0.9216 -0.9397 -0.3700
  118MOL0     H15896   7.610   2.936   0.397 -0.9858 -2.5913  0.4685
  118MOL0     H15897   7.611   2.880   0.227 -1.2682 -0.2787 -0.2776
  118MOL0     H15898   7.434   3.068   0.182  0.6813  2.1369 -0.7895
  118MOL0     H15899   7.502   3.152   0.316  1.4048  2.8641 -0.2917
  118MOL0     H15900   7.674   3.043   0.095  0.3215  2.7614 -0.7959
  118MOL0     H15901   7.728   3.118   0.256  0.2652  0.3339  0.4022
  118MOL0     H15902   7.764   3.270   0.061 -1.2547 -0.0691 -0.2293
  118MOL0     H15903   7.645   3.327   0.180  0.5334 -3.1687  4.1584
  118MOL0     H15904   7.477   3.198   0.009  0.4440 -1.4668 -1.5852
  118MOL0     H15905   7.528   3.373  -0.016 -2.5109 -0.0815  1.7657
  118MOL0     H15906   7.680   3.320  -0.186  0.9009 -2.0875 -2.9830
  118MOL0     H15907   7.534   3.235  -0.224 -0.2752 -0.6893  0.6453
  118MOL0     H15908   7.781   3.097  -0.094  1.0795 -6.1891  0.1832
  118MOL0     H15909   7.627   3.013  -0.129  0.0103  0.0077  0.2989
  118MOL0     H15910   7.238   2.670   0.394 -0.1224 -0.9750 -0.0888
  118MOL0     H15911   6.997   2.605   0.424  0.9619 -0.2252 -2.8352
  118MOL0     H15912   6.558   2.792   0.383  0.4891 -1.0839 -1.5198
  118MOL0     H15913   6.313   2.730   0.395 -0.0541 -0.3753 -0.8573
  118MOL0     H15914   4.458   2.757   0.564 -0.2334  0.5768  2.9610
  118MOL0     H15915   4.257   2.844   0.425 -1.2316  0.4158  1.5219
  118MOL0     H15916   3.709   2.906   0.577 -1.3718 -1.0668  2.8442
  118MOL0     H15917   3.448   2.896   0.502 -2.2657 -1.4371 -2.7152
  118MOL0     H15918   3.335   2.510   0.343 -0.9820 -0.9389  1.7445
  118MOL0     H15919   3.310   2.605   0.205  1.7181 -0.1542  0.1739
  118MOL0     H15920   3.099   2.622   0.432 -0.0106  1.9663  0.1722
  118MOL0     H15921   3.088   2.537   0.275 -0.1433 -1.5749  1.0220
  118MOL0     H15922   3.063   2.747   0.169  1.7109 -1.9330  0.2122
  118MOL0     H15923   3.161   2.828   0.295  1.5696 -1.5705  1.1513
  118MOL0     H15924   2.873   2.730   0.284  0.0877 -0.4043  0.2802
  118MOL0     H15925   2.946   2.772   0.436  1.0696 -0.5531 -0.2275
  118MOL0     H15926   2.936   3.159   0.257  1.7198  0.7607 -2.0224
  118MOL0     H15927   3.548   2.573   0.255 -0.7484  2.4294 -2.0959
  118MOL0     H15928   3.839   2.479   0.322  0.6117 -0.1337 -0.8520
  118MOL0     H15929   3.762   2.544   0.176  0.2559 -0.2742  0.2519
  118MOL0     H15930   3.896   2.627   0.226  0.2667  1.1468 -0.6935
  119MOL0     O15931   8.529   1.897   4.513  0.8076  0.2034  0.5152
  119MOL0     C15932   8.536   1.785   4.566  0.4999 -0.2559  0.1958
  119MOL0     O15933   8.644   1.719   4.591  0.4318  0.0976 -0.1568
  119MOL0     C15934   8.762   1.782   4.563  0.0632 -0.6285 -0.5989
  119MOL0     C15935   8.834   1.783   4.441  0.6069 -0.3970  0.2897
  119MOL0     C15936   8.954   1.850   4.431  0.9618  0.3353  0.2483
  119MOL0     C15937   9.021   1.910   4.534  1.1137  0.1621  0.0563
  119MOL0     O15938   9.150   1.945   4.521  0.3095 -0.0899 -0.4751
  119MOL0     C15939   9.240   1.947   4.634 -0.5600 -0.0020 -0.8928
  119MOL0     C15940   9.354   2.048   4.613  0.3870  0.1294  0.0529
  119MOL0     C15941   9.454   1.999   4.509 -0.1297 -0.1108  0.2436
  119MOL0     C15942   9.582   2.082   4.489 -0.1589  1.3645 -0.0243
  119MOL0     C15943   9.634   2.053   4.354  0.0594 -0.2153 -0.6084
  119MOL0     C15944   9.782   2.117   4.359 -1.2437 -0.3620 -0.1312
  119MOL0     C15945   9.862   2.078   4.239 -0.0728 -0.3102  0.2325
  119MOL0     C15946   9.799   2.143   4.111  0.2845  0.2425  0.2807
  119MOL0     N15947   9.904   2.118   4.013  0.1345 -0.4840 -0.0346
  119MOL0     C15948   9.953   1.993   3.983  0.4046 -0.5157 -0.1838
  119MOL0     C15949  10.019   2.018   3.868  0.5991 -0.2441  0.1093
  119MOL0     C15950  10.073   1.908   3.784 -0.3404  0.2372 -0.4248
  119MOL0     C15951  10.221   1.910   3.757 -0.2926 -0.3957  0.4909
  119MOL0     C15952  10.300   1.874   3.886 -0.4774 -0.6690 -0.3841
  119MOL0     C15953  10.453   1.894   3.863 -0.4860 -0.6084  0.4195
  119MOL0     O15954  10.475   2.026   3.844  0.2071  0.4808 -0.1286
  119MOL0     C15955  10.600   2.079   3.845  0.1278  0.4355  0.0327
  119MOL0     C15956  10.713   2.003   3.875  0.0545 -0.3687 -0.6676
  119MOL0     C15957  10.840   2.060   3.871  0.6090  0.6914  0.4488
  119MOL0     C15958  10.856   2.196   3.840  1.1796 -0.8840 -0.5858
  119MOL0     C15959  10.992   2.242   3.815 -1.0379 -0.5161  0.4904
  119MOL0     O15960  11.093   2.149   3.829  0.1689  0.1500  0.5557
  119MOL0     C15961  11.222   2.172   3.808 -0.2215 -0.3217  0.2492
  119MOL0     C15962  11.300   2.086   3.878 -0.3973  0.2705 -0.0157
  119MOL0     C15963  11.442   2.094   3.872 -0.7352 -0.2754  1.0675
  119MOL0     C15964  11.511   2.186   3.788 -0.1522  0.0116 -1.3269
  119MOL0     O15965  11.653   2.188   3.786  0.0379 -0.3364 -0.2971
  119MOL0     C15966  11.718   2.204   3.654  0.6545  1.1795 -0.1367
  119MOL0     C15967  11.870   2.210   3.656  1.0570  1.9495 -0.7191
  119MOL0     C15968  11.935   2.086   3.725  0.6989 -1.2456  0.2568
  119MOL0     C15969  11.880   1.952   3.683 -0.6669  0.2495  0.3213
  119MOL0     C15970  11.984   1.834   3.712 -0.1463  0.3690 -1.0743
  119MOL0     C15971  12.016   1.806   3.862 -0.6115 -0.2348  0.9384
  119MOL0     C15972  11.892   1.779   3.939  0.1553  0.4429  0.2224
  119MOL0     C15973  11.926   1.743   4.086 -0.0291  0.6118 -0.1449
  119MOL0    Cl15974  12.016   1.589   4.098 -0.1131  0.4512  0.2295
  119MOL0     C15975  11.430   2.261   3.703  0.6962 -0.1709  0.1567
  119MOL0     C15976  11.288   2.261   3.719  0.2703 -0.2850  0.2330
  119MOL0     O15977  11.006   2.360   3.784 -0.8203 -0.0782 -0.7426
  119MOL0     C15978  10.743   2.263   3.808  0.0554 -0.4825 -0.4813
  119MOL0     C15979  10.615   2.208   3.802  0.5307  0.0835 -0.5812
  119MOL0     N15980  10.021   2.158   3.836  0.3984  0.2596  0.6105
  119MOL0     N15981   9.948   2.213   3.925 -0.7700 -1.1561 -0.6879
  119MOL0     C15982   8.946   1.916   4.650 -0.3310 -0.2189 -0.3218
  119MOL0     C15983   8.816   1.859   4.661  0.2975 -0.3116  0.7287
  119MOL0     C15984   8.405   1.724   4.609 -0.4186 -0.9654  0.4133
  119MOL0     C15985   8.288   1.802   4.583 -0.1626  0.6168 -0.0659
  119MOL0     C15986   8.163   1.741   4.607 -0.3264 -0.4169  0.7404
  119MOL0     C15987   8.151   1.614   4.662 -0.0380 -0.5979  0.4687
  119MOL0     O15988   8.030   1.553   4.667  0.9070 -0.2824 -0.1716
  119MOL0     C15989   7.974   1.522   4.536  1.3583  0.4809 -0.3212
  119MOL0     C15990   7.835   1.451   4.554  0.2862  0.8403  0.0217
  119MOL0     C15991   7.722   1.543   4.610 -0.1690  0.2007 -0.4536
  119MOL0     C15992   7.584   1.538   4.551  0.4104  0.7937  0.1134
  119MOL0     C15993   7.519   1.411   4.539  0.0946  1.3113 -0.5487
  119MOL0     C15994   7.470   1.299   4.553 -0.7552  0.5694 -0.6950
  119MOL0     C15995   8.263   1.548   4.705 -0.9035 -0.6792 -0.2484
  119MOL0     C15996   8.389   1.603   4.672  0.0758  0.1898  0.5456
  119MOL0     C15997   8.501   1.514   4.719 -0.1181 -0.4361  0.0344
  119MOL0     H15998   8.783   1.732   4.360  0.8893 -2.4846  1.3383
  119MOL0     H15999   9.003   1.848   4.335 -0.9309  0.7641 -0.7713
  119MOL0     H16000   9.192   1.986   4.725  4.6025  0.9103  1.8443
  119MOL0     H16001   9.283   1.852   4.668 -0.8108  0.1815 -0.0188
  119MOL0     H16002   9.401   2.082   4.706 -2.5535 -1.3738  2.2278
  119MOL0     H16003   9.309   2.133   4.560 -1.4778 -0.6397  0.3312
  119MOL0     H16004   9.410   1.992   4.409  0.9895 -2.8989 -0.1573
  119MOL0     H16005   9.484   1.896   4.531  1.9014 -0.2103 -2.4369
  119MOL0     H16006   9.554   2.187   4.504 -2.6936  0.7452  0.0463
  119MOL0     H16007   9.656   2.049   4.562 -0.6513  0.9353  0.2821
  119MOL0     H16008   9.646   1.946   4.333 -1.0643 -0.5462  0.3335
  119MOL0     H16009   9.565   2.100   4.284 -0.7582 -3.5883 -2.2978
  119MOL0     H16010   9.782   2.226   4.359  4.5458  0.0315 -2.3536
  119MOL0     H16011   9.835   2.088   4.450 -1.6697 -2.8925 -0.6212
  119MOL0     H16012   9.859   1.969   4.230 -0.4565 -0.4295  1.5910
  119MOL0     H16013   9.970   2.094   4.249  0.0892 -1.2570  0.1519
  119MOL0     H16014   9.706   2.097   4.078 -0.1383  1.6973 -0.6649
  119MOL0     H16015   9.791   2.251   4.125 -0.6876  0.0380  1.4392
  119MOL0     H16016   9.925   1.898   4.028  0.5477 -0.1570  0.6706
  119MOL0     H16017  10.049   1.814   3.835  1.6827 -0.0679  0.0454
  119MOL0     H16018  10.027   1.909   3.684  1.7865  0.5995 -1.4648
  119MOL0     H16019  10.249   1.840   3.678 -2.7587 -0.3747 -0.4748
  119MOL0     H16020  10.250   2.011   3.724 -0.5678  0.2718  2.2126
  119MOL0     H16021  10.296   1.765   3.901 -0.9422 -0.6331 -0.2370
  119MOL0     H16022  10.261   1.924   3.975  1.0553  0.0197 -0.0678
  119MOL0     H16023  10.487   1.839   3.774 -0.9276  0.5234 -0.4836
  119MOL0     H16024  10.515   1.860   3.946  0.3510 -0.4625 -0.1359
  119MOL0     H16025  10.701   1.905   3.920  2.8901 -0.7791 -0.6354
  119MOL0     H16026  10.923   1.991   3.872  0.3935  0.4338  0.4610
  119MOL0     H16027  11.252   2.018   3.947  2.1221 -1.7384 -0.1025
  119MOL0     H16028  11.501   2.029   3.936 -0.1458 -0.8016  0.0221
  119MOL0     H16029  11.681   2.128   3.585 -3.4882  0.3954  2.5806
  119MOL0     H16030  11.673   2.295   3.612 -0.6898  0.1800 -0.9109
  119MOL0     H16031  11.901   2.207   3.551  1.1618 -1.2786 -0.6944
  119MOL0     H16032  11.904   2.300   3.707  1.7299  2.8094 -2.5740
  119MOL0     H16033  12.043   2.086   3.709  0.3770 -1.1898 -2.3628
  119MOL0     H16034  11.924   2.085   3.834  0.0732 -2.5509  0.2097
  119MOL0     H16035  11.873   1.959   3.574 -0.2675  1.1380  0.3429
  119MOL0     H16036  11.784   1.938   3.732 -1.2373 -0.6646 -0.9943
  119MOL0     H16037  12.080   1.862   3.667  0.0820  3.4943  1.0111
  119MOL0     H16038  11.936   1.747   3.667 -1.7239  1.2733 -1.2033
  119MOL0     H16039  12.093   1.729   3.872 -0.6072 -0.3975 -0.1656
  119MOL0     H16040  12.065   1.898   3.896 -0.7564  0.3214 -0.2898
  119MOL0     H16041  11.830   1.707   3.885  0.4614 -0.8902  1.5593
  119MOL0     H16042  11.833   1.871   3.942  0.8176  0.8622  1.4364
  119MOL0     H16043  11.999   1.816   4.122  0.7080  2.6928 -5.0337
  119MOL0     H16044  11.832   1.729   4.140  0.8718 -1.1537  1.0302
  119MOL0     H16045  11.473   2.313   3.618 -0.6368  0.4436 -0.1624
  119MOL0     H16046  11.227   2.329   3.662 -2.5883 -3.3106 -0.6555
  119MOL0     H16047  10.746   2.367   3.775  1.3637  0.2719  1.8463
  119MOL0     H16048  10.522   2.256   3.777 -0.4697 -2.5092 -2.2644
  119MOL0     H16049   8.985   1.980   4.728 -1.9527  0.1152  0.2416
  119MOL0     H16050   8.757   1.882   4.750 -2.1821  0.8773 -1.0920
  119MOL0     H16051   8.283   1.901   4.540 -2.4928  0.4797 -0.2810
  119MOL0     H16052   8.078   1.788   4.557  0.0923  0.6217  0.9741
  119MOL0     H16053   8.050   1.460   4.487  0.4964  0.1219 -1.2299
  119MOL0     H16054   7.963   1.608   4.469  1.6904  0.4799 -0.3801
  119MOL0     H16055   7.861   1.362   4.613 -0.8153  1.0512  0.8622
  119MOL0     H16056   7.796   1.416   4.458  1.0105  2.1910 -0.7801
  119MOL0     H16057   7.755   1.647   4.609 -1.1522  0.6941  3.1534
  119MOL0     H16058   7.713   1.526   4.718  0.9214  0.5784 -0.2946
  119MOL0     H16059   7.530   1.614   4.608  2.5399  2.2502  0.2927
  119MOL0     H16060   7.594   1.583   4.452 -0.6581  1.1954  0.1656
  119MOL0     H16061   7.415   1.207   4.555 -0.5364  0.4381 -0.7074
  119MOL0     H16062   8.256   1.450   4.751 -2.4752 -0.4721  0.0134
  119MOL0     H16063   8.570   1.571   4.781 -2.0239 -0.9296  2.8234
  119MOL0     H16064   8.467   1.430   4.780 -1.0248  0.5613  0.9393
  119MOL0     H16065   8.545   1.473   4.627  2.0704  0.9117  0.4161
  120MOL0     O16066   0.233   2.301   9.470 -0.0698  0.0213  0.2114
  120MOL0     C16067   0.227   2.372   9.371 -0.1107 -0.0912  0.8386
  120MOL0     O16068   0.341   2.414   9.299  0.0581 -0.5563  0.2845
  120MOL0     C16069   0.472   2.417   9.349  0.2855  0.7983  0.0516
  120MOL0     C16070   0.552   2.498   9.271 -0.4897  0.9328 -0.3046
  120MOL0     C16071   0.686   2.518   9.307 -0.3385 -0.4433  0.9052
  120MOL0     C16072   0.740   2.477   9.437  0.6610  0.4691 -0.8989
  120MOL0     O16073   0.864   2.502   9.488 -0.0042  0.3180 -0.3309
  120MOL0     C16074   0.967   2.457   9.406 -0.0518  0.7855  0.1034
  120MOL0     C16075   1.031   2.332   9.462 -0.5676  0.2753 -0.1966
  120MOL0     C16076   1.090   2.353   9.606 -0.1544  0.3758  0.6925
  120MOL0     C16077   1.169   2.488   9.621 -0.6791  0.8054 -0.8706
  120MOL0     C16078   1.236   2.493   9.762 -0.0764  0.8223  0.0154
  120MOL0     C16079   1.330   2.612   9.750  0.1121 -0.4716 -0.4896
  120MOL0     C16080   1.375   2.652   9.884 -0.1621 -0.2980 -0.1463
  120MOL0     C16081   1.488   2.550   9.931  0.3127  0.2226 -0.1855
  120MOL0     N16082   1.611   2.542   9.851  0.7354  0.3318  0.6935
  120MOL0     C16083   1.653   2.425   9.797 -0.6345  0.3030  0.6098
  120MOL0     C16084   1.786   2.441   9.785 -0.3135 -0.1365  0.3163
  120MOL0     C16085   1.892   2.334   9.741  0.1824  0.3882 -0.6057
  120MOL0     C16086   1.991   2.310   9.850  0.1265  0.2352  0.2118
  120MOL0     C16087   2.125   2.384   9.838 -1.1752  0.6017 -0.0545
  120MOL0     C16088   2.225   2.333   9.941 -0.3541 -0.3675  0.0118
  120MOL0     O16089   2.347   2.413   9.933 -0.1200 -0.1816  0.2343
  120MOL0     C16090   2.454   2.381  10.010 -0.0601 -0.3250 -0.3632
  120MOL0     C16091   2.466   2.266  10.083  1.1145 -0.8304  0.0322
  120MOL0     C16092   2.590   2.225  10.136 -0.0003  0.3229  0.0388
  120MOL0     C16093   2.703   2.304  10.129  0.2294 -0.4838 -0.7355
  120MOL0     C16094   2.832   2.264  10.190  0.0684 -0.2423 -0.0939
  120MOL0     O16095   2.924   2.358  10.178 -0.3783 -0.2161  0.2895
  120MOL0     C16096   3.047   2.348  10.227  0.2472 -0.1332 -0.1727
  120MOL0     C16097   3.162   2.319  10.153 -0.9481  0.4127 -0.4941
  120MOL0     C16098   3.288   2.305  10.224 -0.2513  0.1911  0.7070
  120MOL0     C16099   3.299   2.331  10.364  0.4075  1.2159 -0.2678
  120MOL0     O16100   3.419   2.307  10.425 -0.6483 -0.0802 -0.1396
  120MOL0     C16101   3.395   2.254  10.560 -0.2836 -0.8308  0.3846
  120MOL0     C16102   3.538   2.214  10.593 -0.2218  0.2213  0.7877
  120MOL0     C16103   3.565   2.156  10.731 -0.4878  0.6072  0.5307
  120MOL0     C16104   3.653   2.248  10.815 -0.6256 -0.0411 -0.3566
  120MOL0     C16105   3.719   2.173  10.927 -0.7193  0.5905  0.1541
  120MOL0     C16106   3.788   2.261  11.030  0.1851 -0.5246  0.2776
  120MOL0     C16107   3.697   2.315  11.145  0.1145 -0.1827  0.4492
  120MOL0     C16108   3.763   2.381  11.267 -0.3345 -0.2774 -0.2060
  120MOL0    Cl16109   3.865   2.252  11.337 -0.0538 -0.2314 -0.4360
  120MOL0     C16110   3.181   2.374  10.428  0.4187 -0.3620 -0.5626
  120MOL0     C16111   3.066   2.379  10.358  0.5104 -0.3042 -0.0734
  120MOL0     O16112   2.841   2.155  10.254  0.0504  0.1959  0.3251
  120MOL0     C16113   2.694   2.425  10.061 -0.5215 -0.4222  0.1432
  120MOL0     C16114   2.568   2.461  10.005  0.4150  0.1859 -0.1931
  120MOL0     N16115   1.822   2.570   9.816  0.1852  0.0826 -0.2051
  120MOL0     N16116   1.710   2.624   9.855  0.2545 -0.9952 -0.1033
  120MOL0     C16117   0.659   2.383   9.499 -0.4569 -0.2549 -0.5709
  120MOL0     C16118   0.525   2.359   9.460 -0.1697  0.4598 -0.1291
  120MOL0     C16119   0.100   2.399   9.298 -0.2194 -0.0633 -0.1292
  120MOL0     C16120   0.116   2.470   9.175 -0.4395 -0.5641 -0.0872
  120MOL0     C16121   0.011   2.493   9.095 -0.8709 -0.6098 -0.2494
  120MOL0     C16122  -0.121   2.447   9.126  0.2861 -0.2202  0.2332
  120MOL0     O16123  -0.246   2.482   9.072 -0.1611  0.3056  0.3011
  120MOL0     C16124  -0.238   2.550   8.949  0.2877 -0.0049 -0.2041
  120MOL0     C16125  -0.377   2.566   8.886  1.0068 -0.4905  0.5878
  120MOL0     C16126  -0.437   2.439   8.831 -0.6582 -0.0241  0.1474
  120MOL0     C16127  -0.374   2.417   8.695  0.0080 -0.8277  0.8099
  120MOL0     C16128  -0.429   2.306   8.613  0.1233 -0.3122 -0.5487
  120MOL0     C16129  -0.480   2.216   8.544 -0.0347 -1.2169  0.5811
  120MOL0     C16130  -0.135   2.376   9.241 -0.3599  0.3901  0.0815
  120MOL0     C16131  -0.029   2.349   9.328  0.6694  0.5128 -0.7058
  120MOL0     C16132  -0.059   2.268   9.457 -0.2638  0.0375 -0.8168
  120MOL0     H16133   0.514   2.531   9.175  2.3355  3.1301 -0.8017
  120MOL0     H16134   0.744   2.582   9.242  3.4614 -2.7668  1.7190
  120MOL0     H16135   0.921   2.418   9.314  3.7531 -0.7713 -1.3787
  120MOL0     H16136   1.033   2.538   9.374  1.8294 -1.0878 -1.0450
  120MOL0     H16137   1.105   2.301   9.387 -1.7670 -0.6242 -1.0548
  120MOL0     H16138   0.966   2.244   9.463  3.4540 -3.0262 -0.4984
  120MOL0     H16139   1.154   2.269   9.631  2.5548  2.2282  0.3821
  120MOL0     H16140   1.002   2.345   9.671 -2.3801  4.0708 -1.5305
  120MOL0     H16141   1.246   2.479   9.544 -0.6326 -1.4258 -0.6273
  120MOL0     H16142   1.105   2.576   9.612 -1.3060  0.3873 -0.5906
  120MOL0     H16143   1.168   2.504   9.847 -1.0945  1.4608 -0.8581
  120MOL0     H16144   1.296   2.404   9.780 -1.8757 -0.0956  1.8829
  120MOL0     H16145   1.412   2.593   9.680 -0.4099 -1.1798 -0.9344
  120MOL0     H16146   1.275   2.700   9.718  0.1379  0.4433  1.8393
  120MOL0     H16147   1.296   2.675   9.957 -0.7456 -4.1766  0.6392
  120MOL0     H16148   1.428   2.746   9.863  3.1455 -1.7249  1.1614
  120MOL0     H16149   1.526   2.585  10.027 -0.1116  2.5100 -0.7765
  120MOL0     H16150   1.446   2.452   9.957  0.9129  1.2299  5.9409
  120MOL0     H16151   1.599   2.331   9.787 -2.1268  0.9848  1.7189
  120MOL0     H16152   1.838   2.242   9.721  1.5991 -0.8311  0.8709
  120MOL0     H16153   1.943   2.366   9.650  0.7783  0.1436 -0.3605
  120MOL0     H16154   1.947   2.329   9.949  2.3168 -1.1089  1.5272
  120MOL0     H16155   2.023   2.207   9.831 -1.7648 -1.4767  4.8169
  120MOL0     H16156   2.120   2.493   9.844  0.5146  0.9790 -3.3693
  120MOL0     H16157   2.165   2.365   9.738 -0.5849  1.9396 -0.0911
  120MOL0     H16158   2.261   2.237   9.902  0.1439  0.2083 -0.9819
  120MOL0     H16159   2.188   2.326  10.044  0.2229 -1.5429  0.1635
  120MOL0     H16160   2.382   2.197  10.090  3.4520 -4.2514 -2.4386
  120MOL0     H16161   2.603   2.134  10.194  0.3490  2.3642  3.3853
  120MOL0     H16162   3.164   2.303  10.046  0.2164 -1.2776 -0.2647
  120MOL0     H16163   3.367   2.259  10.164 -0.6892  1.8449 -1.2311
  120MOL0     H16164   3.348   2.324  10.629  1.0079  0.0249  0.4416
  120MOL0     H16165   3.325   2.171  10.555 -1.0209 -0.1735 -0.5880
  120MOL0     H16166   3.584   2.149  10.517 -0.2867  0.6797  0.3450
  120MOL0     H16167   3.601   2.304  10.586 -0.3817  0.3136  0.4722
  120MOL0     H16168   3.465   2.134  10.771 -2.0643 -0.6725 -3.6330
  120MOL0     H16169   3.621   2.062  10.724  0.8915  1.4002  0.6480
  120MOL0     H16170   3.585   2.321  10.859 -0.4254 -0.0341 -0.0532
  120MOL0     H16171   3.726   2.298  10.750 -1.0794 -0.3155 -1.0839
  120MOL0     H16172   3.787   2.099  10.884 -1.5496  0.9709 -1.9157
  120MOL0     H16173   3.642   2.112  10.976 -2.1996 -0.5182 -3.2496
  120MOL0     H16174   3.858   2.198  11.086  1.9375  1.0008 -0.0935
  120MOL0     H16175   3.848   2.344  10.990 -0.2476  0.2922  1.2876
  120MOL0     H16176   3.651   2.228  11.191 -1.0152 -1.3903 -2.7095
  120MOL0     H16177   3.629   2.387  11.098  0.4242  2.0030  3.0763
  120MOL0     H16178   3.817   2.472  11.240 -0.0005 -0.9712 -2.0192
  120MOL0     H16179   3.683   2.403  11.339  0.7236 -0.1345  0.9420
  120MOL0     H16180   3.180   2.398  10.534 -1.0373 -1.2129 -0.3689
  120MOL0     H16181   2.972   2.411  10.402  2.4650  3.1473  2.1238
  120MOL0     H16182   2.771   2.501  10.052 -0.9421 -0.1157 -1.0942
  120MOL0     H16183   2.556   2.558   9.959 -1.0310  0.0352 -0.2070
  120MOL0     H16184   0.690   2.341   9.594  0.2937  0.9223 -0.2817
  120MOL0     H16185   0.463   2.289   9.515 -3.7865 -0.5987 -4.8479
  120MOL0     H16186   0.205   2.521   9.140 -0.2709 -0.5767  0.3192
  120MOL0     H16187   0.026   2.555   9.007  3.2909  1.7175  1.8233
  120MOL0     H16188  -0.167   2.503   8.881  2.0330  0.9893  0.8559
  120MOL0     H16189  -0.201   2.653   8.955  0.7313 -0.0372 -1.8832
  120MOL0     H16190  -0.370   2.642   8.808  2.0517  0.3874  1.5062
  120MOL0     H16191  -0.430   2.600   8.976 -0.3432 -0.6964 -0.1028
  120MOL0     H16192  -0.543   2.463   8.821 -0.7100  0.1781  1.0606
  120MOL0     H16193  -0.420   2.355   8.900 -1.9489 -0.5084 -0.0854
  120MOL0     H16194  -0.403   2.502   8.632 -1.6061 -1.6217  0.4385
  120MOL0     H16195  -0.265   2.422   8.708  0.0609 -0.7581  0.3706
  120MOL0     H16196  -0.532   2.161   8.469  0.8632  2.7187 -3.3463
  120MOL0     H16197  -0.239   2.353   9.258 -0.0471 -0.1355  1.3617
  120MOL0     H16198  -0.006   2.310   9.543 -2.1641 -0.0405  0.4427
  120MOL0     H16199  -0.168   2.260   9.461 -0.5132 -1.1887 -4.9008
  120MOL0     H16200  -0.012   2.172   9.435  0.2478  0.5755 -2.2474
  121MOL0     O16201   6.961   3.514   2.434  0.0478 -0.4456 -0.1077
  121MOL0     C16202   6.924   3.554   2.327 -0.1740  0.0677  0.4166
  121MOL0     O16203   6.978   3.651   2.246  0.1014 -0.1612 -1.0870
  121MOL0     C16204   7.104   3.685   2.277 -0.2402  0.0357  0.2523
  121MOL0     C16205   7.208   3.678   2.188 -0.2218  0.0535 -0.4422
  121MOL0     C16206   7.339   3.716   2.221 -0.6273  0.1530  0.1031
  121MOL0     C16207   7.364   3.768   2.342  0.1863  0.0980  0.9762
  121MOL0     O16208   7.489   3.825   2.368  0.0935  0.5068  0.1498
  121MOL0     C16209   7.552   3.715   2.440  0.0197  0.2103 -0.0915
  121MOL0     C16210   7.689   3.754   2.478 -0.2106 -0.4085 -0.4364
  121MOL0     C16211   7.786   3.741   2.358  0.7703  0.0633 -0.1060
  121MOL0     C16212   7.928   3.720   2.403 -0.6671 -0.1897 -0.6179
  121MOL0     C16213   7.997   3.840   2.473 -0.3103  0.0952  1.1770
  121MOL0     C16214   8.149   3.838   2.474 -0.7612  0.1329 -0.0906
  121MOL0     C16215   8.231   3.930   2.376 -0.0111  0.3714 -0.5172
  121MOL0     C16216   8.379   3.897   2.352  0.3479  0.2659  0.1678
  121MOL0     N16217   8.454   3.926   2.478  0.3111  0.2162  0.7157
  121MOL0     C16218   8.499   4.046   2.515 -0.5308  0.0260 -0.0066
  121MOL0     C16219   8.556   4.032   2.631  0.1718 -0.1380  0.1054
  121MOL0     C16220   8.630   4.130   2.701 -0.4607 -0.3183  0.3697
  121MOL0     C16221   8.733   4.196   2.600  0.6822  0.1806  0.4284
  121MOL0     C16222   8.821   4.083   2.552 -0.1271  0.1285  0.5128
  121MOL0     C16223   8.967   4.137   2.521  0.4980  0.8033  0.3851
  121MOL0     O16224   9.058   4.088   2.627 -0.4012  0.2920  0.0243
  121MOL0     C16225   9.186   4.120   2.635 -0.0575 -1.0216 -0.2161
  121MOL0     C16226   9.251   4.194   2.541 -0.3878 -0.4113 -0.4497
  121MOL0     C16227   9.384   4.213   2.547 -0.7016  0.0432 -0.5035
  121MOL0     C16228   9.466   4.163   2.653  0.2984 -0.9672  0.5602
  121MOL0     C16229   9.604   4.191   2.658  0.2955  0.5458  0.4823
  121MOL0     O16230   9.660   4.260   2.545 -0.2035 -0.5407 -0.8519
  121MOL0     C16231   9.774   4.336   2.550  0.5289  1.1283  0.2511
  121MOL0     C16232   9.834   4.358   2.425  0.4601  0.6009  0.4286
  121MOL0     C16233   9.957   4.427   2.411  0.0383  0.6375  0.3336
  121MOL0     C16234  10.025   4.475   2.523 -0.1541  0.1630  0.3573
  121MOL0     O16235  10.147   4.532   2.521  0.1997  0.2565  0.5002
  121MOL0     C16236  10.223   4.514   2.407 -0.4088  0.5299  0.3025
  121MOL0     C16237  10.369   4.571   2.422  0.2042 -0.7777 -0.4115
  121MOL0     C16238  10.463   4.561   2.302 -0.1956 -0.5333  0.4148
  121MOL0     C16239  10.604   4.591   2.331 -0.2708 -0.5468 -0.9562
  121MOL0     C16240  10.687   4.611   2.208 -0.1697 -0.2471 -0.3284
  121MOL0     C16241  10.837   4.609   2.235 -0.6937  0.2236 -1.0463
  121MOL0     C16242  10.910   4.619   2.107 -0.3629 -0.0281  0.2053
  121MOL0     C16243  11.056   4.663   2.123 -1.2154  0.8364 -1.0737
  121MOL0    Cl16244  11.135   4.633   1.967  0.2566  0.0120  0.4874
  121MOL0     C16245   9.968   4.455   2.642  0.2459 -0.6501 -0.0334
  121MOL0     C16246   9.849   4.381   2.664 -0.1597  0.6958 -0.1179
  121MOL0     O16247   9.672   4.138   2.744 -0.0145 -0.3033 -0.7402
  121MOL0     C16248   9.395   4.090   2.747  0.8530 -0.5242 -0.1454
  121MOL0     C16249   9.256   4.076   2.742 -0.0759 -0.0274 -0.0732
  121MOL0     N16250   8.541   3.898   2.668  1.2859  0.7027  0.2746
  121MOL0     N16251   8.474   3.840   2.573 -0.3932  0.2082 -0.6770
  121MOL0     C16252   7.263   3.795   2.433 -0.1885 -0.7483  0.6691
  121MOL0     C16253   7.134   3.750   2.396  0.2400  0.2728 -0.3848
  121MOL0     C16254   6.790   3.505   2.279 -0.0326 -0.7010 -0.5928
  121MOL0     C16255   6.779   3.381   2.218 -0.4589  0.5260 -0.4693
  121MOL0     C16256   6.652   3.323   2.194  0.1967  1.3830 -0.0618
  121MOL0     C16257   6.535   3.379   2.233  0.2733 -0.0327  0.3170
  121MOL0     O16258   6.411   3.323   2.224  0.1854  0.0088  0.6132
  121MOL0     C16259   6.394   3.193   2.164 -1.1665  0.2628  0.1000
  121MOL0     C16260   6.438   3.073   2.256 -0.0146  0.2033  0.1905
  121MOL0     C16261   6.321   3.026   2.342  0.0597 -0.6179  0.1683
  121MOL0     C16262   6.262   3.141   2.428 -0.0551  0.8623 -0.1627
  121MOL0     C16263   6.207   3.096   2.553 -0.9619 -0.0692 -0.7824
  121MOL0     C16264   6.172   3.072   2.666  0.3379  0.4611 -0.0978
  121MOL0     C16265   6.547   3.501   2.293 -0.5933 -0.6772 -0.3220
  121MOL0     C16266   6.673   3.567   2.320 -0.2028  0.7776 -0.1935
  121MOL0     C16267   6.668   3.696   2.400  1.2754  0.0150 -0.0956
  121MOL0     H16268   7.182   3.633   2.093 -3.5703 -1.8580  1.1941
  121MOL0     H16269   7.429   3.700   2.163  0.1326  2.5247  0.5474
  121MOL0     H16270   7.497   3.702   2.533  2.0887 -4.4766  0.7620
  121MOL0     H16271   7.553   3.620   2.385  1.7890 -0.7539  1.5074
  121MOL0     H16272   7.710   3.690   2.564 -1.9117  0.0933  0.4082
  121MOL0     H16273   7.686   3.859   2.510 -0.0751 -0.2615 -0.9034
  121MOL0     H16274   7.775   3.828   2.292  0.9413 -0.0196 -0.2433
  121MOL0     H16275   7.766   3.646   2.308 -0.4050 -1.4990  3.0501
  121MOL0     H16276   7.925   3.635   2.472 -1.0382 -2.1989 -2.9755
  121MOL0     H16277   7.990   3.691   2.317 -0.3352 -2.3763  0.2781
  121MOL0     H16278   7.966   3.933   2.425 -0.4758 -0.5382  0.0296
  121MOL0     H16279   7.965   3.839   2.578 -0.5157  0.4452  1.1203
  121MOL0     H16280   8.170   3.865   2.577 -3.7395 -4.7231  2.1451
  121MOL0     H16281   8.191   3.736   2.471 -0.5130  0.1096  2.4095
  121MOL0     H16282   8.227   4.029   2.423  1.2380  0.9497 -1.5456
  121MOL0     H16283   8.176   3.946   2.283  0.1318  3.8402 -0.1583
  121MOL0     H16284   8.378   3.792   2.321 -4.1725  0.4994 -1.1811
  121MOL0     H16285   8.413   3.958   2.268 -0.5825 -1.0525 -1.2311
  121MOL0     H16286   8.499   4.139   2.459 -0.4291 -0.8066 -1.4307
  121MOL0     H16287   8.555   4.205   2.728  0.4001  1.3042 -1.4489
  121MOL0     H16288   8.676   4.093   2.793 -1.8766  0.9424  1.6186
  121MOL0     H16289   8.686   4.241   2.513 -1.6966 -3.4792 -0.4224
  121MOL0     H16290   8.789   4.268   2.660  2.4547 -1.6679  1.1370
  121MOL0     H16291   8.784   4.046   2.456  0.2093  1.6291 -0.2363
  121MOL0     H16292   8.826   3.996   2.618 -0.6979 -0.9693 -0.8459
  121MOL0     H16293   8.963   4.246   2.509  3.3311  0.7741 -1.9693
  121MOL0     H16294   8.997   4.085   2.430 -1.0790 -2.1474  1.4182
  121MOL0     H16295   9.204   4.237   2.452 -0.4453 -0.1641 -0.2991
  121MOL0     H16296   9.415   4.276   2.465  1.1970  1.4747  1.2034
  121MOL0     H16297   9.777   4.345   2.333  3.6832  0.2939 -1.6918
  121MOL0     H16298   9.997   4.438   2.311  3.2115 -3.3290  0.8879
  121MOL0     H16299  10.234   4.407   2.389  0.5161  0.6189  0.3154
  121MOL0     H16300  10.163   4.565   2.331 -2.6314  3.4968  3.7206
  121MOL0     H16301  10.360   4.668   2.471  0.4481 -1.2717  0.6655
  121MOL0     H16302  10.416   4.498   2.489  0.3925  2.0782  2.8846
  121MOL0     H16303  10.450   4.468   2.247 -1.6649  0.8254 -1.6664
  121MOL0     H16304  10.437   4.640   2.231  3.3684  0.9217  0.4912
  121MOL0     H16305  10.656   4.507   2.378 -0.7006 -0.7156 -0.7870
  121MOL0     H16306  10.610   4.685   2.386 -1.8787 -0.1430 -1.4157
  121MOL0     H16307  10.654   4.709   2.169 -1.1584 -0.2371  0.4950
  121MOL0     H16308  10.666   4.533   2.135  1.9255 -0.9079 -0.2869
  121MOL0     H16309  10.860   4.701   2.289 -2.1602  0.5632 -0.9404
  121MOL0     H16310  10.872   4.527   2.299 -0.5819 -1.6021 -3.3276
  121MOL0     H16311  10.851   4.678   2.036 -1.0475 -1.0857 -0.1114
  121MOL0     H16312  10.923   4.521   2.061  1.8082  0.4983 -0.4410
  121MOL0     H16313  11.061   4.769   2.152 -1.9559  0.8378 -0.9454
  121MOL0     H16314  11.112   4.606   2.197 -0.4796 -0.8971 -2.8762
  121MOL0     H16315  10.017   4.497   2.729 -2.6409 -0.1145  1.4710
  121MOL0     H16316   9.815   4.372   2.767  0.6017  1.3358  0.1990
  121MOL0     H16317   9.456   4.061   2.832 -0.0467  2.1195  1.5496
  121MOL0     H16318   9.197   4.022   2.816  0.6257 -1.2000 -0.3373
  121MOL0     H16319   7.277   3.843   2.529  0.1043 -2.2157  1.3889
  121MOL0     H16320   7.052   3.779   2.461  0.3298 -2.3844  1.0982
  121MOL0     H16321   6.864   3.321   2.187 -0.5438  0.9240 -1.5094
  121MOL0     H16322   6.658   3.222   2.156 -1.8865  1.2685 -0.2048
  121MOL0     H16323   6.455   3.201   2.074  0.6617  1.5138  1.3736
  121MOL0     H16324   6.295   3.166   2.125 -2.2804  1.4931  1.9135
  121MOL0     H16325   6.521   3.113   2.317  1.0519 -1.8141  0.1586
  121MOL0     H16326   6.482   2.989   2.202  0.6866 -0.3587  1.5750
  121MOL0     H16327   6.363   2.944   2.402  1.0047 -0.4289 -0.2018
  121MOL0     H16328   6.250   2.975   2.276 -0.1886  0.2755 -0.2656
  121MOL0     H16329   6.345   3.210   2.446  1.2709 -0.0344 -2.3878
  121MOL0     H16330   6.192   3.195   2.364  1.3317 -1.6567 -4.2323
  121MOL0     H16331   6.133   3.066   2.766  0.9930  4.3262  0.5472
  121MOL0     H16332   6.452   3.534   2.332 -1.0248  1.5757 -2.9472
  121MOL0     H16333   6.769   3.731   2.425  1.2185 -0.2885  0.5771
  121MOL0     H16334   6.609   3.767   2.342 -0.4681 -1.0857  0.2767
  121MOL0     H16335   6.612   3.682   2.493  0.0427  0.2966 -0.7785
  122MOL0     O16336   7.605   1.721   9.437  0.7138  0.6561  0.2088
  122MOL0     C16337   7.627   1.612   9.488 -0.0400  0.0539 -0.8096
  122MOL0     O16338   7.728   1.533   9.466 -0.3797 -0.0801 -0.2619
  122MOL0     C16339   7.860   1.575   9.459  0.6993  0.6662  0.0854
  122MOL0     C16340   7.911   1.673   9.543 -0.2038  1.1096 -0.0532
  122MOL0     C16341   8.047   1.712   9.521 -0.7241  0.3834 -0.0682
  122MOL0     C16342   8.134   1.638   9.433 -0.1310 -0.7774 -0.0325
  122MOL0     O16343   8.269   1.686   9.431  0.1818  0.1030 -0.0250
  122MOL0     C16344   8.370   1.611   9.360  1.5167 -0.0526 -0.1664
  122MOL0     C16345   8.502   1.679   9.368  0.1177 -0.4890  0.0411
  122MOL0     C16346   8.548   1.700   9.510 -0.0395  0.4997  0.3335
  122MOL0     C16347   8.696   1.733   9.513 -0.3301  0.4865  0.3620
  122MOL0     C16348   8.745   1.750   9.652  0.9121  0.7500 -0.4742
  122MOL0     C16349   8.893   1.739   9.671  0.0249 -0.1867  0.0406
  122MOL0     C16350   8.931   1.754   9.818  0.1948  1.0325 -0.3638
  122MOL0     C16351   9.081   1.764   9.829  1.0925  0.9532 -0.6107
  122MOL0     N16352   9.126   1.909   9.837  0.6060 -0.0951  0.0048
  122MOL0     C16353   9.212   1.954   9.938  0.8116 -0.3034  1.2407
  122MOL0     C16354   9.225   2.088   9.910  0.8277 -0.1419  0.6490
  122MOL0     C16355   9.291   2.190  10.000  0.2246  0.2608 -0.4224
  122MOL0     C16356   9.444   2.177   9.984 -0.4568 -0.2440 -0.2843
  122MOL0     C16357   9.521   2.278  10.073 -0.4250 -0.0249 -0.2246
  122MOL0     C16358   9.674   2.258  10.078 -0.0719  0.9915  0.5562
  122MOL0     O16359   9.711   2.122  10.115 -0.1507  0.4415  0.6664
  122MOL0     C16360   9.841   2.102  10.145  0.5366  0.1309 -0.5236
  122MOL0     C16361   9.957   2.165  10.089 -0.0091 -0.6365  0.8143
  122MOL0     C16362  10.080   2.154  10.149  0.0159 -0.9379 -0.5805
  122MOL0     C16363  10.091   2.072  10.260 -0.5137  0.1600 -0.4187
  122MOL0     C16364  10.227   2.042  10.301  0.2126  0.0616 -0.0366
  122MOL0     O16365  10.333   2.095  10.242  0.0824  0.5305  0.1379
  122MOL0     C16366  10.455   2.052  10.269 -0.1170 -0.9358 -0.4840
  122MOL0     C16367  10.512   2.040  10.393  0.0693  0.0725 -0.2030
  122MOL0     C16368  10.644   2.027  10.412 -0.4079  0.1311 -0.8911
  122MOL0     C16369  10.730   2.018  10.310  0.4859  0.3844  1.0120
  122MOL0     O16370  10.861   2.005  10.340  0.2806 -0.6134 -0.3889
  122MOL0     C16371  10.957   2.037  10.238 -0.3292  0.9158 -0.2123
  122MOL0     C16372  11.090   2.064  10.316  0.4308 -0.1619 -0.5981
  122MOL0     C16373  11.084   2.194  10.393  0.3140 -0.3835  0.3762
  122MOL0     C16374  11.220   2.228  10.457 -1.2861  0.8724  0.1891
  122MOL0     C16375  11.210   2.373  10.511  0.0202  0.0174 -0.2085
  122MOL0     C16376  11.271   2.403  10.651  0.0495 -0.7743 -0.3709
  122MOL0     C16377  11.422   2.418  10.639  0.2153  1.0201 -0.3677
  122MOL0     C16378  11.494   2.441  10.777  0.3110  0.4407  0.9149
  122MOL0    Cl16379  11.445   2.578  10.875  0.4098 -0.2220  0.1208
  122MOL0     C16380  10.680   2.013  10.176 -0.0884  0.2246  0.8110
  122MOL0     C16381  10.542   2.034  10.162  0.5661 -0.1190  1.1840
  122MOL0     O16382  10.232   1.965  10.398 -1.2142  0.3643  0.3976
  122MOL0     C16383   9.976   2.012  10.326 -0.3512 -0.6819  0.0518
  122MOL0     C16384   9.847   2.022  10.258  1.1524  0.1495 -0.6103
  122MOL0     N16385   9.144   2.125   9.795 -0.3733 -0.3835  0.0774
  122MOL0     N16386   9.089   2.014   9.757  0.6304 -0.0233 -0.2892
  122MOL0     C16387   8.082   1.535   9.357 -0.1368 -0.2843  0.5469
  122MOL0     C16388   7.945   1.507   9.373 -0.0071 -0.1431 -0.1020
  122MOL0     C16389   7.508   1.549   9.559 -0.5182  0.8717 -0.6000
  122MOL0     C16390   7.379   1.570   9.510 -0.5772 -0.2636  0.4100
  122MOL0     C16391   7.272   1.506   9.574 -0.1183  0.1077  0.4551
  122MOL0     C16392   7.282   1.445   9.699  0.3950 -0.3398 -0.6851
  122MOL0     O16393   7.178   1.389   9.774  0.1782  0.0821 -0.0819
  122MOL0     C16394   7.044   1.372   9.710 -1.2620  0.1603  0.7433
  122MOL0     C16395   6.959   1.280   9.787 -0.1507 -0.6438  0.0603
  122MOL0     C16396   6.827   1.262   9.725 -0.2823  0.0987  0.3411
  122MOL0     C16397   6.717   1.228   9.833 -0.3138 -1.0262  0.2501
  122MOL0     C16398   6.703   1.328   9.940  0.0926  0.6923 -0.1766
  122MOL0     C16399   6.708   1.401  10.037  0.3768  0.6660  0.4523
  122MOL0     C16400   7.411   1.429   9.757  0.8713 -0.0320 -0.3721
  122MOL0     C16401   7.523   1.469   9.684  0.3069  0.7921 -0.3821
  122MOL0     C16402   7.645   1.435   9.754  0.4838  0.3483  0.3676
  122MOL0     H16403   7.848   1.731   9.611  0.4278  2.0076 -0.2088
  122MOL0     H16404   8.084   1.796   9.578  2.3534 -0.7021 -0.2382
  122MOL0     H16405   8.368   1.517   9.416  0.0249  1.1115  1.8843
  122MOL0     H16406   8.344   1.595   9.255 -1.5249  1.0273  0.3358
  122MOL0     H16407   8.490   1.773   9.312  0.1171 -1.0472 -0.9254
  122MOL0     H16408   8.572   1.615   9.314 -1.4710 -1.8587 -0.4614
  122MOL0     H16409   8.536   1.606   9.566 -2.4143 -1.6122 -3.2633
  122MOL0     H16410   8.490   1.777   9.561  0.3333 -0.0226  1.5823
  122MOL0     H16411   8.751   1.647   9.473 -0.5869 -0.2527  1.5546
  122MOL0     H16412   8.716   1.824   9.456  2.2498  1.5697  2.7462
  122MOL0     H16413   8.714   1.850   9.683 -1.8574 -0.5992  1.4843
  122MOL0     H16414   8.692   1.679   9.717 -1.5149 -0.6249 -3.6502
  122MOL0     H16415   8.927   1.636   9.652 -0.5893 -1.0278  2.9574
  122MOL0     H16416   8.942   1.813   9.607  1.1236 -0.6377  0.3218
  122MOL0     H16417   8.911   1.657   9.864 -4.0083  2.0693  0.3897
  122MOL0     H16418   8.871   1.829   9.869 -0.0744  0.0031  0.8928
  122MOL0     H16419   9.110   1.710   9.920  1.1588 -1.2683 -1.8718
  122MOL0     H16420   9.128   1.709   9.747  0.6724 -0.6166  0.1626
  122MOL0     H16421   9.275   1.908  10.013  3.3245  1.2822  0.2742
  122MOL0     H16422   9.251   2.291   9.991  0.6998  0.3288 -2.2055
  122MOL0     H16423   9.267   2.163  10.103 -0.2257  0.5894 -0.4376
  122MOL0     H16424   9.482   2.077  10.004 -0.3595 -0.2794 -0.6513
  122MOL0     H16425   9.476   2.197   9.882 -3.6378 -0.8537 -1.5296
  122MOL0     H16426   9.486   2.278  10.177  1.2224  0.4684  0.3695
  122MOL0     H16427   9.495   2.381  10.046 -2.5201  0.1859  2.1626
  122MOL0     H16428   9.713   2.331  10.150 -0.0087 -0.2727  1.8486
  122MOL0     H16429   9.711   2.281   9.977 -1.2852  0.0526 -0.1268
  122MOL0     H16430   9.943   2.218   9.996  3.2680  1.6161  1.4569
  122MOL0     H16431  10.172   2.196  10.108  0.3775  0.6231  1.6583
  122MOL0     H16432  10.450   2.053  10.481  3.7570  0.2148  2.6450
  122MOL0     H16433  10.673   2.031  10.517 -0.5793 -0.8787 -0.7965
  122MOL0     H16434  10.969   1.952  10.170 -0.5744 -1.2949  2.3341
  122MOL0     H16435  10.929   2.131  10.189  1.8970  0.0788 -3.4592
  122MOL0     H16436  11.110   1.989  10.393  1.1178  2.4110  1.8830
  122MOL0     H16437  11.170   2.073  10.242 -0.1490 -0.8503 -1.3293
  122MOL0     H16438  11.060   2.266  10.315  3.7606  1.9236  1.1760
  122MOL0     H16439  10.996   2.210  10.455  1.1146  0.5217  1.3439
  122MOL0     H16440  11.297   2.210  10.381 -0.9180 -0.3256  0.8320
  122MOL0     H16441  11.238   2.154  10.535 -0.5540  0.5038 -0.3231
  122MOL0     H16442  11.105   2.387  10.539  0.2179 -0.1340  0.6196
  122MOL0     H16443  11.234   2.454  10.441  1.0209 -0.4556 -0.4162
  122MOL0     H16444  11.225   2.486  10.704  1.3566 -0.2992  0.0705
  122MOL0     H16445  11.253   2.314  10.712 -0.2149 -0.4065  0.0943
  122MOL0     H16446  11.451   2.500  10.573 -0.1210  0.8870 -0.6883
  122MOL0     H16447  11.468   2.328  10.595  0.4456  0.1580  1.5396
  122MOL0     H16448  11.465   2.364  10.848 -1.0399 -1.3260 -1.4075
  122MOL0     H16449  11.601   2.421  10.761 -0.4889 -2.3686 -2.0066
  122MOL0     H16450  10.750   1.991  10.096 -2.2057 -1.6031 -0.6653
  122MOL0     H16451  10.504   2.022  10.061  2.1381  0.7356  0.4617
  122MOL0     H16452   9.995   1.946  10.410 -1.3420 -2.4139 -1.0115
  122MOL0     H16453   9.763   1.963  10.293  1.8100 -1.7273 -2.0453
  122MOL0     H16454   8.141   1.480   9.285  1.3840 -0.9628  2.2330
  122MOL0     H16455   7.909   1.426   9.311  0.9311 -1.7076  1.2953
  122MOL0     H16456   7.358   1.619   9.416  0.2099 -1.1422 -0.2456
  122MOL0     H16457   7.171   1.512   9.534 -0.7271  2.6181  2.1194
  122MOL0     H16458   7.067   1.321   9.615  1.0795  2.3686 -0.0050
  122MOL0     H16459   6.998   1.469   9.687  0.9214  1.1125  0.0923
  122MOL0     H16460   6.945   1.323   9.886 -1.1262 -0.2608 -0.2255
  122MOL0     H16461   6.996   1.178   9.800 -1.2364 -0.8477  1.8941
  122MOL0     H16462   6.826   1.181   9.651  0.4921 -0.9098  1.4150
  122MOL0     H16463   6.792   1.354   9.676  2.4181 -0.0574 -2.1485
  122MOL0     H16464   6.621   1.201   9.789 -0.2793 -1.8074  0.6511
  122MOL0     H16465   6.761   1.136   9.874  0.0204 -1.4235 -0.9624
  122MOL0     H16466   6.720   1.465  10.122 -0.3057 -0.4918  1.4554
  122MOL0     H16467   7.400   1.381   9.853 -4.4045  0.1703 -0.6066
  122MOL0     H16468   7.728   1.490   9.710  0.9374  0.5422  1.4213
  122MOL0     H16469   7.633   1.462   9.860 -0.0420  2.0224 -0.1054
  122MOL0     H16470   7.668   1.328   9.747 -1.5186 -0.3863  3.0970
  123MOL0     O16471   1.056   8.826   9.963 -0.1779  0.9490 -0.1179
  123MOL0     C16472   0.988   8.876   9.869 -0.5824 -0.1399 -0.6369
  123MOL0     O16473   1.014   9.002   9.811 -0.4042 -0.6052  0.0873
  123MOL0     C16474   1.111   9.074   9.879 -0.2014  0.4779  0.5297
  123MOL0     C16475   1.242   9.043   9.867 -0.7479  0.0126 -0.1906
  123MOL0     C16476   1.345   9.118   9.934 -0.1914  0.2017 -0.3192
  123MOL0     C16477   1.311   9.223  10.019  0.0259 -0.5987 -1.1779
  123MOL0     O16478   1.391   9.298  10.103  0.5832 -0.4429 -0.1751
  123MOL0     C16479   1.526   9.252  10.130  0.2479  0.9643 -0.0789
  123MOL0     C16480   1.616   9.346  10.213 -0.6258  0.1855  0.3584
  123MOL0     C16481   1.753   9.280  10.241 -0.7094  0.2193 -0.3344
  123MOL0     C16482   1.837   9.386  10.305  0.3340  0.3378  0.6826
  123MOL0     C16483   1.959   9.327  10.372 -0.0816 -1.0560  0.2474
  123MOL0     C16484   2.012   9.435  10.466  0.8436  0.0417 -0.7816
  123MOL0     C16485   2.149   9.404  10.535  0.2547  0.9462  0.0170
  123MOL0     C16486   2.200   9.532  10.606 -0.8630  0.9073  0.0047
  123MOL0     N16487   2.337   9.514  10.664  0.7950  0.0774  0.1551
  123MOL0     C16488   2.401   9.620  10.725 -1.1235 -0.0318  0.0088
  123MOL0     C16489   2.529   9.581  10.738  0.8001  0.3884  0.3966
  123MOL0     C16490   2.638   9.663  10.793  1.1227  1.1195 -0.9669
  123MOL0     C16491   2.708   9.743  10.684  0.0557 -1.0509  0.0114
  123MOL0     C16492   2.819   9.845  10.730  0.1068 -0.0396 -0.2679
  123MOL0     C16493   2.936   9.783  10.808 -0.0151 -0.6260  0.7507
  123MOL0     O16494   3.018   9.898  10.841 -0.6544  0.5356  0.2976
  123MOL0     C16495   3.135   9.871  10.900  0.6375  0.0565  0.1552
  123MOL0     C16496   3.225   9.985  10.900  0.2444  0.3112  0.4984
  123MOL0     C16497   3.341   9.980  10.972 -0.5192  0.1282 -0.5517
  123MOL0     C16498   3.370   9.870  11.050  0.2104  0.0039 -0.1584
  123MOL0     C16499   3.498   9.870  11.128  0.3615 -0.4476  0.1726
  123MOL0     O16500   3.588   9.981  11.122 -0.1164 -0.0951  0.4536
  123MOL0     C16501   3.708   9.956  11.184  0.4612 -1.3414 -0.2088
  123MOL0     C16502   3.719   9.966  11.327 -0.0253 -0.0975 -0.4396
  123MOL0     C16503   3.852   9.937  11.390  0.7299  0.1697  0.0466
  123MOL0     C16504   3.966   9.884  11.316  0.6465 -0.0602  0.0235
  123MOL0     O16505   4.087   9.856  11.368 -0.3630 -0.3003 -0.2190
  123MOL0     C16506   4.099   9.846  11.511  0.1033  1.1524  0.2140
  123MOL0     C16507   4.134   9.988  11.566 -0.6929  0.6991  0.7023
  123MOL0     C16508   4.254  10.043  11.499 -0.5718  0.1083 -0.0675
  123MOL0     C16509   4.285  10.189  11.558 -0.1810  0.7807 -0.9352
  123MOL0     C16510   4.411  10.235  11.503  0.5135  0.6366 -0.6306
  123MOL0     C16511   4.455  10.372  11.548  0.9887  0.4660 -0.2727
  123MOL0     C16512   4.590  10.393  11.488  0.2110 -0.4703 -0.0046
  123MOL0     C16513   4.664  10.511  11.535  0.8852  0.3517  0.7537
  123MOL0    Cl16514   4.558  10.668  11.525  0.2775  0.2355  0.3486
  123MOL0     C16515   3.940   9.872  11.180 -0.2094  0.8484 -0.2451
  123MOL0     C16516   3.818   9.911  11.117 -1.3865  0.5326  0.5944
  123MOL0     O16517   3.524   9.764  11.182 -0.5864 -0.0877 -0.6064
  123MOL0     C16518   3.279   9.759  11.048 -0.0945 -0.6698  0.0330
  123MOL0     C16519   3.157   9.760  10.981  0.7993 -0.3084  0.4475
  123MOL0     N16520   2.548   9.464  10.673 -0.5311  0.1736  0.2311
  123MOL0     N16521   2.436   9.427  10.622 -0.2094 -0.2306  0.3080
  123MOL0     C16522   1.176   9.263  10.026  0.1810  0.7224 -0.2712
  123MOL0     C16523   1.078   9.192   9.952  0.0695  0.0648  0.7652
  123MOL0     C16524   0.863   8.806   9.813  0.3785  1.0085 -0.3197
  123MOL0     C16525   0.829   8.823   9.678 -0.4441  0.0018 -0.4640
  123MOL0     C16526   0.704   8.779   9.626 -0.6306  0.5030 -1.0736
  123MOL0     C16527   0.612   8.717   9.705 -0.2516 -0.0628 -0.3573
  123MOL0     O16528   0.502   8.666   9.645 -0.1694  0.4388 -0.3733
  123MOL0     C16529   0.402   8.606   9.724 -0.1963 -0.3722 -0.2431
  123MOL0     C16530   0.292   8.579   9.619  0.2388  0.3738 -0.8426
  123MOL0     C16531   0.161   8.579   9.699  0.3210 -0.4409 -0.0566
  123MOL0     C16532   0.138   8.450   9.789 -0.9217 -0.2060 -0.3309
  123MOL0     C16533   0.226   8.460   9.911 -0.3523 -0.7244 -0.1365
  123MOL0     C16534   0.299   8.481  10.009  0.5816  1.2009  1.1663
  123MOL0     C16535   0.646   8.696   9.838  0.0907 -0.4798 -0.3635
  123MOL0     C16536   0.770   8.728   9.890  0.2591  0.7039 -0.0927
  123MOL0     C16537   0.785   8.694  10.037  0.3190 -0.7487  0.7881
  123MOL0     H16538   1.276   8.958   9.811  2.1921  1.3100 -0.5480
  123MOL0     H16539   1.447   9.083   9.918 -0.0425  0.1089  0.7862
  123MOL0     H16540   1.535   9.149  10.167  1.3577  0.5480 -1.4462
  123MOL0     H16541   1.574   9.249  10.032  0.0677  0.8511 -0.1641
  123MOL0     H16542   1.557   9.381  10.298 -1.0946  4.7562 -1.5999
  123MOL0     H16543   1.633   9.428  10.143 -1.0244 -0.9442 -1.1115
  123MOL0     H16544   1.786   9.240  10.145 -2.8959 -3.5380  0.2574
  123MOL0     H16545   1.739   9.192  10.305 -1.2343  2.2420  2.4994
  123MOL0     H16546   1.862   9.459  10.228 -1.3248  0.5118  0.2649
  123MOL0     H16547   1.788   9.435  10.391 -0.8854  0.0659  0.1723
  123MOL0     H16548   1.936   9.233  10.423 -2.1006 -0.1214  1.1505
  123MOL0     H16549   2.027   9.306  10.289  0.8485  0.3358  0.6205
  123MOL0     H16550   2.015   9.528  10.409  0.7112  1.9616  2.1589
  123MOL0     H16551   1.937   9.445  10.545 -0.8631 -0.5546 -2.2535
  123MOL0     H16552   2.215   9.371  10.454 -0.6815 -1.0077  0.0001
  123MOL0     H16553   2.152   9.314  10.597 -0.0248  1.8600  1.4087
  123MOL0     H16554   2.215   9.614  10.535  0.7781  0.5639 -0.0858
  123MOL0     H16555   2.124   9.555  10.681 -3.3487  0.2238 -2.1525
  123MOL0     H16556   2.371   9.717  10.762 -0.1457 -0.3243  1.6765
  123MOL0     H16557   2.603   9.728  10.874  0.7151  0.1145 -0.3135
  123MOL0     H16558   2.709   9.596  10.843 -0.3135  0.8287  0.7676
  123MOL0     H16559   2.750   9.670  10.615  0.6831  0.1213 -0.9019
  123MOL0     H16560   2.631   9.795  10.627  2.5225  1.3203 -1.4316
  123MOL0     H16561   2.769   9.920  10.791  0.3226  0.3674 -0.5862
  123MOL0     H16562   2.856   9.905  10.646  0.5649  0.0800  0.0180
  123MOL0     H16563   2.986   9.709  10.744 -0.6479 -0.4603  0.0468
  123MOL0     H16564   2.907   9.733  10.901  0.9825 -0.3182  1.2451
  123MOL0     H16565   3.187  10.072  10.848 -1.3605  0.2225  1.4482
  123MOL0     H16566   3.418  10.054  10.951 -0.6536 -0.3429 -3.1058
  123MOL0     H16567   3.641   9.990  11.398  0.3090 -1.9590  0.6227
  123MOL0     H16568   3.855   9.948  11.498  5.1811 -0.0421  0.1161
  123MOL0     H16569   4.011   9.803  11.559  0.7272 -0.1500  0.2393
  123MOL0     H16570   4.181   9.775  11.523  0.2653  1.0362 -1.4130
  123MOL0     H16571   4.049  10.057  11.564 -0.9427  0.5019  2.5931
  123MOL0     H16572   4.161   9.973  11.671  1.6357  0.6131  0.1430
  123MOL0     H16573   4.340   9.976  11.512 -3.3243 -3.9314 -1.0002
  123MOL0     H16574   4.231  10.055  11.393  0.4639  1.4523 -0.1778
  123MOL0     H16575   4.287  10.189  11.667 -2.4743 -1.7018 -0.7828
  123MOL0     H16576   4.208  10.260  11.525 -0.0701  1.7372  0.7520
  123MOL0     H16577   4.419  10.223  11.395  0.3979 -0.9969 -0.4793
  123MOL0     H16578   4.487  10.165  11.538 -1.3649 -0.5183  1.4187
  123MOL0     H16579   4.397  10.459  11.516  0.9364  0.7666  0.6092
  123MOL0     H16580   4.454  10.360  11.657  2.2480 -2.5007 -0.4999
  123MOL0     H16581   4.574  10.394  11.379  0.6405  0.3163 -0.0632
  123MOL0     H16582   4.658  10.308  11.492  0.6238 -0.2852 -1.9403
  123MOL0     H16583   4.701  10.500  11.637  2.5167  1.4703  0.3254
  123MOL0     H16584   4.747  10.533  11.466  1.0207  1.4752  1.2430
  123MOL0     H16585   4.018   9.837  11.113 -0.0310  1.9736 -0.6426
  123MOL0     H16586   3.811   9.891  11.010  2.8655 -0.8954  0.3858
  123MOL0     H16587   3.324   9.669  11.090  2.1711  0.4199  0.0904
  123MOL0     H16588   3.110   9.663  10.978  1.3259 -0.5744 -2.5688
  123MOL0     H16589   1.152   9.344  10.093 -0.8097 -0.3347  0.6953
  123MOL0     H16590   0.976   9.230   9.953  0.3500  0.8429  1.3374
  123MOL0     H16591   0.897   8.876   9.612  1.1159  0.2159  1.2222
  123MOL0     H16592   0.677   8.801   9.523 -2.4284  1.3185 -0.4653
  123MOL0     H16593   0.371   8.676   9.803  0.4614  0.6862 -0.8969
  123MOL0     H16594   0.440   8.509   9.758  0.3278 -0.0591  0.0829
  123MOL0     H16595   0.305   8.486   9.564  0.0020  0.5522 -1.2109
  123MOL0     H16596   0.270   8.665   9.555 -0.3020 -0.0060 -1.1705
  123MOL0     H16597   0.084   8.580   9.622  0.1801 -1.6752  0.0500
  123MOL0     H16598   0.163   8.671   9.759  3.0844 -0.2753 -0.2766
  123MOL0     H16599   0.031   8.449   9.814 -0.7558 -0.3073  0.3945
  123MOL0     H16600   0.162   8.361   9.729 -1.6114 -1.1447  0.7420
  123MOL0     H16601   0.367   8.492  10.090  1.6918 -0.9428  0.5847
  123MOL0     H16602   0.578   8.646   9.907  2.9891 -2.7806  1.0564
  123MOL0     H16603   0.857   8.616  10.062 -1.5225 -1.8928  2.8096
  123MOL0     H16604   0.818   8.782  10.092 -1.0222 -1.7093  3.2900
  123MOL0     H16605   0.688   8.671  10.082 -0.4197 -1.9933 -1.3188
  124MOL0     O16606   8.699  10.609   6.023  0.0435 -0.6255  0.1377
  124MOL0     C16607   8.716  10.490   5.998 -0.3465 -0.3188 -0.2789
  124MOL0     O16608   8.821  10.435   5.922  0.5586 -0.9881 -0.6459
  124MOL0     C16609   8.918  10.522   5.888 -0.2874 -0.9387  0.1084
  124MOL0     C16610   9.052  10.494   5.926 -0.1410 -0.2242  0.6881
  124MOL0     C16611   9.156  10.580   5.894 -0.2054  1.0711  0.4485
  124MOL0     C16612   9.140  10.690   5.807  0.4441  0.0909 -0.5660
  124MOL0     O16613   9.240  10.771   5.765 -0.5087  0.5468 -0.2024
  124MOL0     C16614   9.236  10.829   5.633  0.0980  0.6438  0.2721
  124MOL0     C16615   9.376  10.895   5.606 -0.4150  1.1732 -0.2934
  124MOL0     C16616   9.399  11.005   5.703  0.4780  0.7343 -0.2553
  124MOL0     C16617   9.526  11.090   5.664 -0.3955 -0.2012 -0.4804
  124MOL0     C16618   9.538  11.218   5.741  0.9758 -0.3482  0.6481
  124MOL0     C16619   9.662  11.289   5.696 -0.0935  0.4591 -1.0538
  124MOL0     C16620   9.663  11.420   5.772 -0.2062  0.3220  0.2508
  124MOL0     C16621   9.756  11.524   5.699 -0.9731 -0.1800  0.0892
  124MOL0     N16622   9.891  11.471   5.660  0.0408 -0.1872  0.4046
  124MOL0     C16623   9.996  11.539   5.721  0.3934  0.2658 -0.6180
  124MOL0     C16624  10.098  11.528   5.633  0.7826  0.2480  0.5230
  124MOL0     C16625  10.242  11.566   5.657 -0.8035 -0.1548 -0.2054
  124MOL0     C16626  10.280  11.530   5.799  0.1056  0.5155  0.5214
  124MOL0     C16627  10.278  11.373   5.822 -0.2555 -0.3353 -0.7237
  124MOL0     C16628  10.311  11.364   5.975  0.0125 -0.2260  0.3195
  124MOL0     O16629  10.210  11.426   6.062  0.8668  0.2357  0.2273
  124MOL0     C16630  10.082  11.376   6.074  0.2177  0.5472 -0.4353
  124MOL0     C16631  10.027  11.254   6.017 -0.4116  0.1039 -0.8384
  124MOL0     C16632   9.889  11.221   6.030 -0.2550  0.1094 -0.5076
  124MOL0     C16633   9.813  11.304   6.117 -0.4546 -0.2773  0.8072
  124MOL0     C16634   9.674  11.290   6.128 -0.4625  0.6310  0.2596
  124MOL0     O16635   9.621  11.170   6.098  0.0471 -0.3715  0.0099
  124MOL0     C16636   9.491  11.131   6.140  0.4372 -0.0514 -0.2477
  124MOL0     C16637   9.460  10.998   6.101  0.9716  0.2147  0.4998
  124MOL0     C16638   9.328  10.940   6.138 -0.4085 -0.0739  0.1887
  124MOL0     C16639   9.248  11.009   6.227  0.2927  0.0896 -0.4747
  124MOL0     O16640   9.121  10.960   6.267  1.2316 -0.0960  0.1918
  124MOL0     C16641   9.042  10.915   6.156 -0.0333  0.4306 -0.6282
  124MOL0     C16642   8.889  10.927   6.184  0.6962  0.7153  0.8971
  124MOL0     C16643   8.831  11.073   6.183 -0.2788  0.5375  0.3062
  124MOL0     C16644   8.686  11.082   6.240 -0.3343  1.0141  0.6911
  124MOL0     C16645   8.633  11.224   6.231  0.0191  1.1734  0.9141
  124MOL0     C16646   8.495  11.229   6.307 -1.5346  0.6386  0.7502
  124MOL0     C16647   8.384  11.136   6.250  0.3433 -0.3634  0.3190
  124MOL0     C16648   8.248  11.203   6.279  0.8447 -1.4962  0.4454
  124MOL0    Cl16649   8.221  11.216   6.464  0.2384  0.0235  0.0619
  124MOL0     C16650   9.283  11.131   6.280  0.5020  0.1679  0.5945
  124MOL0     C16651   9.394  11.199   6.229 -0.4614  0.4454  0.7687
  124MOL0     O16652   9.603  11.380   6.166 -0.2574  0.1965 -0.1773
  124MOL0     C16653   9.860  11.422   6.167 -0.4921  0.4892 -0.3707
  124MOL0     C16654   9.992  11.460   6.144  0.0766  0.5977  0.6901
  124MOL0     N16655  10.053  11.453   5.525  0.1474 -0.6611 -0.4376
  124MOL0     N16656   9.932  11.427   5.539  0.0008  0.0463 -0.0731
  124MOL0     C16657   9.008  10.715   5.765  0.3951  0.1707  0.1313
  124MOL0     C16658   8.902  10.637   5.816  1.0308 -0.2214 -0.7741
  124MOL0     C16659   8.626  10.399   6.076 -0.8062 -0.2004  0.1996
  124MOL0     C16660   8.505  10.448   6.111 -0.3063  0.2576 -0.4376
  124MOL0     C16661   8.410  10.365   6.152  0.1950  0.3306  0.1802
  124MOL0     C16662   8.426  10.235   6.195 -0.1757  0.4059 -0.1112
  124MOL0     O16663   8.325  10.172   6.264  0.0978  0.1258 -0.4554
  124MOL0     C16664   8.367  10.089   6.363 -0.0840 -0.4662 -0.5577
  124MOL0     C16665   8.250  10.067   6.462 -0.1409 -0.3107  0.6230
  124MOL0     C16666   8.280   9.970   6.587 -0.1384  0.0611  1.0624
  124MOL0     C16667   8.320  10.052   6.712  0.2755  0.6094  0.5412
  124MOL0     C16668   8.399   9.971   6.797  0.0419  0.1300 -0.7038
  124MOL0     C16669   8.471   9.899   6.859 -0.6546 -0.3608  0.5876
  124MOL0     C16670   8.554  10.183   6.178 -0.4453 -0.2144 -0.2029
  124MOL0     C16671   8.657  10.259   6.106  0.5539  0.2035  0.5034
  124MOL0     C16672   8.790  10.199   6.091  0.3333  0.3800 -0.0839
  124MOL0     H16673   9.056  10.411   5.995 -0.5561  0.1406  1.1663
  124MOL0     H16674   9.250  10.555   5.943 -0.4582 -0.3019  0.2795
  124MOL0     H16675   9.223  10.752   5.556  1.2905 -0.4462  1.1216
  124MOL0     H16676   9.153  10.900   5.630 -0.7862 -0.3385  0.8949
  124MOL0     H16677   9.372  10.926   5.501 -2.3690  0.6304 -0.4295
  124MOL0     H16678   9.453  10.818   5.614 -1.6188  0.1212  4.5973
  124MOL0     H16679   9.423  10.975   5.806  2.5757 -2.3121 -1.4965
  124MOL0     H16680   9.319  11.079   5.708 -0.8064 -0.6501  0.7008
  124MOL0     H16681   9.612  11.026   5.686 -1.9193 -2.5062 -0.8794
  124MOL0     H16682   9.543  11.107   5.557  2.3969  0.3750 -0.0118
  124MOL0     H16683   9.451  11.285   5.735 -0.3054 -2.0522 -0.8031
  124MOL0     H16684   9.548  11.196   5.848 -1.5738  2.5039  1.6457
  124MOL0     H16685   9.759  11.242   5.709  0.6444  2.5625  2.7558
  124MOL0     H16686   9.650  11.300   5.588  0.1433 -1.0750 -1.2569
  124MOL0     H16687   9.698  11.412   5.875  2.8731 -1.5245 -0.7853
  124MOL0     H16688   9.561  11.459   5.769 -0.6363 -0.7777 -1.0074
  124MOL0     H16689   9.710  11.570   5.611  0.8468  1.4063 -0.0854
  124MOL0     H16690   9.777  11.608   5.765  3.0037 -1.5135  0.7865
  124MOL0     H16691  10.002  11.591   5.816  2.7839 -0.0433 -0.5519
  124MOL0     H16692  10.303  11.503   5.591 -0.1984 -2.1601  2.1105
  124MOL0     H16693  10.264  11.671   5.634  1.2111 -0.2158  1.1587
  124MOL0     H16694  10.371  11.587   5.820  1.4634 -0.7960 -1.4842
  124MOL0     H16695  10.200  11.567   5.865  0.2507 -0.0958  1.0411
  124MOL0     H16696  10.360  11.319   5.773 -0.0721 -0.1888 -0.5791
  124MOL0     H16697  10.179  11.331   5.802 -0.9813  0.4929  0.9743
  124MOL0     H16698  10.413  11.398   5.995  1.1220 -2.3157 -1.3137
  124MOL0     H16699  10.307  11.259   6.006  0.1223 -0.7655 -1.3545
  124MOL0     H16700  10.087  11.189   5.954  0.3805  1.4702 -1.5419
  124MOL0     H16701   9.843  11.136   5.980 -2.1990  0.4635  0.5826
  124MOL0     H16702   9.537  10.950   6.040 -1.2424  0.2500 -2.5746
  124MOL0     H16703   9.298  10.848   6.089  2.2089 -0.0842 -1.6131
  124MOL0     H16704   9.061  10.962   6.059 -0.1306  0.7884 -0.4763
  124MOL0     H16705   9.075  10.811   6.146  2.6023  1.1113  0.2099
  124MOL0     H16706   8.837  10.879   6.100  1.2387 -1.7865  1.8987
  124MOL0     H16707   8.853  10.874   6.273 -2.0309  0.0878 -0.4547
  124MOL0     H16708   8.900  11.120   6.254  0.0883  0.7446 -0.1799
  124MOL0     H16709   8.844  11.125   6.087  0.6492 -1.5810 -0.7849
  124MOL0     H16710   8.689  11.051   6.345 -1.4690  1.4417  0.8664
  124MOL0     H16711   8.616  11.015   6.189  2.5798 -1.4169 -0.4321
  124MOL0     H16712   8.622  11.253   6.126 -0.7397  1.0075  0.9380
  124MOL0     H16713   8.705  11.292   6.278 -0.1120  1.8942  0.0864
  124MOL0     H16714   8.518  11.200   6.411  1.4546  1.2493  0.3329
  124MOL0     H16715   8.472  11.336   6.305  0.5895  1.1255 -1.1116
  124MOL0     H16716   8.379  11.037   6.297 -1.5816 -1.4726 -2.0544
  124MOL0     H16717   8.401  11.142   6.142  3.3324  1.2762  0.7564
  124MOL0     H16718   8.243  11.304   6.239 -1.9855 -1.2694  1.1384
  124MOL0     H16719   8.168  11.157   6.220  0.2061  0.6044 -0.4013
  124MOL0     H16720   9.211  11.173   6.349 -0.9366  0.7502 -1.1856
  124MOL0     H16721   9.417  11.289   6.285  0.1393 -0.0168  1.2799
  124MOL0     H16722   9.803  11.481   6.238 -2.1870  0.8215 -1.9292
  124MOL0     H16723  10.034  11.547   6.193 -1.7130  0.6583  2.2587
  124MOL0     H16724   8.983  10.797   5.699 -0.1298  1.1383  1.4815
  124MOL0     H16725   8.802  10.659   5.781  0.4293 -0.6497  0.6322
  124MOL0     H16726   8.469  10.549   6.098  0.2546  0.4286 -0.7196
  124MOL0     H16727   8.304  10.390   6.150 -0.0894 -0.5457 -3.2146
  124MOL0     H16728   8.448  10.134   6.421 -3.1562  3.6437  1.0539
  124MOL0     H16729   8.397   9.998   6.312 -3.0692 -1.2830 -1.0366
  124MOL0     H16730   8.179  10.020   6.394  0.4182  0.9640 -0.9141
  124MOL0     H16731   8.225  10.164   6.505 -0.1191  0.3713 -0.8752
  124MOL0     H16732   8.350   9.887   6.575 -0.6761 -0.2649  0.0255
  124MOL0     H16733   8.185   9.919   6.605  0.6603 -2.4580 -1.2081
  124MOL0     H16734   8.379  10.140   6.682 -0.1907 -0.2049 -3.2696
  124MOL0     H16735   8.232  10.084   6.767 -1.5925 -0.2759 -1.7532
  124MOL0     H16736   8.544   9.837   6.908 -1.7767 -0.4447  2.2161
  124MOL0     H16737   8.573  10.079   6.204 -1.3646 -0.5684 -0.8692
  124MOL0     H16738   8.865  10.250   6.152 -0.7282 -0.1016  1.7143
  124MOL0     H16739   8.783  10.094   6.122 -1.2483  0.6861  0.6930
  124MOL0     H16740   8.822  10.204   5.987  0.4130  2.2841 -0.0079
  125MOL0     O16741  11.040   3.817   2.851  0.6877  0.0341  1.1173
  125MOL0     C16742  10.961   3.912   2.853  0.9752 -0.6280 -1.1196
  125MOL0     O16743  10.998   4.041   2.849  0.3801 -0.5266  0.0523
  125MOL0     C16744  11.122   4.094   2.895 -0.1337  0.3499 -0.5683
  125MOL0     C16745  11.208   4.020   2.990  0.3488 -0.0253  0.0855
  125MOL0     C16746  11.328   4.082   3.038  0.2990 -0.7316 -0.2121
  125MOL0     C16747  11.361   4.220   2.998 -0.4642  0.4769  0.7124
  125MOL0     O16748  11.469   4.268   3.063 -0.0806  0.1898  0.2325
  125MOL0     C16749  11.502   4.413   3.055  0.4847 -0.2146  0.2161
  125MOL0     C16750  11.580   4.468   3.175  0.6324 -0.3092 -0.1742
  125MOL0     C16751  11.726   4.428   3.196 -0.0998  0.6698 -0.0491
  125MOL0     C16752  11.731   4.280   3.230 -0.4698 -0.8422  0.1680
  125MOL0     C16753  11.878   4.242   3.282  0.0551  0.2590  0.1923
  125MOL0     C16754  11.998   4.305   3.198  0.3367  0.6864  0.4034
  125MOL0     C16755  12.123   4.250   3.250  0.1815  0.7043  0.1481
  125MOL0     C16756  12.155   4.280   3.393 -0.6524 -0.7027 -1.0588
  125MOL0     N16757  12.289   4.239   3.411 -0.6287 -0.6341  1.0370
  125MOL0     C16758  12.404   4.312   3.371  0.1358  0.4489 -1.3288
  125MOL0     C16759  12.503   4.224   3.401 -0.0853 -1.0942  1.0078
  125MOL0     C16760  12.649   4.249   3.361 -0.8583 -0.3521  0.0698
  125MOL0     C16761  12.693   4.161   3.238 -0.3796 -0.0414 -0.3499
  125MOL0     C16762  12.716   4.013   3.253  0.6540 -0.1518  0.7432
  125MOL0     C16763  12.865   3.983   3.290  1.3315  1.0902  0.1956
  125MOL0     O16764  12.917   4.040   3.414 -0.9106  0.1894  0.1691
  125MOL0     C16765  13.050   4.046   3.422  0.5634  0.2489 -0.0991
  125MOL0     C16766  13.096   4.108   3.539  0.6236 -0.0770  0.1700
  125MOL0     C16767  13.232   4.127   3.564 -0.3080  0.1472 -0.0206
  125MOL0     C16768  13.322   4.063   3.474 -0.1940  0.1574 -0.2404
  125MOL0     C16769  13.471   4.074   3.490 -0.0174 -0.1956 -0.2153
  125MOL0     O16770  13.513   4.101   3.617 -0.2076  0.0068 -0.2516
  125MOL0     C16771  13.649   4.092   3.651 -0.6678  0.3727 -0.6855
  125MOL0     C16772  13.747   4.009   3.584  0.1043 -0.0767 -1.0770
  125MOL0     C16773  13.882   4.004   3.612  0.3340 -0.1496 -0.3871
  125MOL0     C16774  13.925   4.081   3.717 -1.1881 -0.0262 -0.0809
  125MOL0     O16775  14.056   4.069   3.748  0.3919 -0.2730  0.0609
  125MOL0     C16776  14.116   4.192   3.743 -0.3619  0.0428  0.6240
  125MOL0     C16777  14.267   4.170   3.713 -0.4821  0.2074  0.1177
  125MOL0     C16778  14.302   4.190   3.556  0.0668  0.8030 -0.5204
  125MOL0     C16779  14.414   4.081   3.516 -0.2800  0.0938 -0.2454
  125MOL0     C16780  14.371   3.938   3.497 -0.5434  0.0077 -0.1732
  125MOL0     C16781  14.253   3.918   3.399 -0.2164 -0.1401  0.5252
  125MOL0     C16782  14.223   3.780   3.350 -1.0501  0.4447 -1.0577
  125MOL0     C16783  14.125   3.779   3.237  0.2638  0.1598  0.9088
  125MOL0    Cl16784  14.208   3.833   3.089 -0.5911 -0.0894 -0.2126
  125MOL0     C16785  13.835   4.150   3.797 -0.4412  0.2659 -0.3339
  125MOL0     C16786  13.693   4.160   3.764  0.5216  0.1928 -0.1994
  125MOL0     O16787  13.541   4.037   3.389  0.6877  0.5866 -0.2689
  125MOL0     C16788  13.274   3.989   3.368 -0.7493  0.2496  0.0303
  125MOL0     C16789  13.136   3.977   3.345  0.3490  0.0939 -0.0913
  125MOL0     N16790  12.452   4.113   3.469  0.2107  0.0135 -0.2285
  125MOL0     N16791  12.321   4.129   3.483  0.5495 -0.0839  0.7922
  125MOL0     C16792  11.281   4.285   2.904 -0.1031  0.5885  0.9814
  125MOL0     C16793  11.168   4.222   2.854  0.0505 -0.2845  0.1001
  125MOL0     C16794  10.810   3.890   2.843 -0.4136 -0.6224  0.3706
  125MOL0     C16795  10.729   4.005   2.823 -0.3348 -0.8072  1.1099
  125MOL0     C16796  10.599   3.993   2.788  0.1836 -0.8343  0.7758
  125MOL0     C16797  10.533   3.872   2.800 -0.3701  0.6985  0.6086
  125MOL0     O16798  10.404   3.843   2.768  0.1224 -0.1551 -0.7304
  125MOL0     C16799  10.313   3.942   2.735 -0.1545 -0.3419 -0.4601
  125MOL0     C16800  10.252   4.009   2.860 -0.7853  0.3773 -0.4757
  125MOL0     C16801  10.185   3.925   2.974  0.3977 -0.8040 -0.0723
  125MOL0     C16802  10.045   3.888   2.926 -0.4494 -0.7239 -0.2632
  125MOL0     C16803   9.983   3.802   3.028  0.0511 -0.1515  0.4931
  125MOL0     C16804   9.915   3.737   3.108 -0.3561 -0.2703  0.2833
  125MOL0     C16805  10.607   3.757   2.836  0.5348 -0.2132 -0.0466
  125MOL0     C16806  10.745   3.761   2.850  0.7290  0.2215  0.2595
  125MOL0     C16807  10.819   3.635   2.884 -0.3653 -0.3117 -1.4618
  125MOL0     H16808  11.178   3.927   3.036  1.0147  0.2318  1.0703
  125MOL0     H16809  11.393   4.038   3.113  2.4160 -0.6171 -1.8648
  125MOL0     H16810  11.552   4.428   2.959 -1.3212 -0.6040 -0.8349
  125MOL0     H16811  11.405   4.462   3.045 -0.9253 -2.5096  1.6514
  125MOL0     H16812  11.531   4.441   3.269  0.3398 -0.9489 -0.5071
  125MOL0     H16813  11.578   4.577   3.169  1.0408 -0.2166  0.9885
  125MOL0     H16814  11.773   4.490   3.273  2.7336 -0.0923 -1.0095
  125MOL0     H16815  11.789   4.450   3.109  0.5783  0.4575  0.3777
  125MOL0     H16816  11.658   4.255   3.307 -1.3364  0.4115 -0.2142
  125MOL0     H16817  11.705   4.215   3.146 -1.7254  0.1811 -0.2884
  125MOL0     H16818  11.883   4.274   3.387  1.3729  0.0248  0.2227
  125MOL0     H16819  11.891   4.134   3.287 -0.2794 -0.0731 -3.5597
  125MOL0     H16820  11.980   4.271   3.095 -2.6626  1.2876  0.6282
  125MOL0     H16821  11.993   4.414   3.198 -0.3682  0.6645 -0.1072
  125MOL0     H16822  12.203   4.281   3.182  0.5762  1.3144  0.8786
  125MOL0     H16823  12.117   4.141   3.248  1.3593  0.6261 -0.0485
  125MOL0     H16824  12.129   4.383   3.418 -1.1972 -0.8775 -0.8856
  125MOL0     H16825  12.083   4.234   3.462 -3.1718  2.9076 -1.0331
  125MOL0     H16826  12.415   4.405   3.316  0.5360  1.4007  0.2775
  125MOL0     H16827  12.660   4.351   3.324  1.4526 -0.0403  1.4482
  125MOL0     H16828  12.718   4.237   3.445 -0.8089 -0.8273 -0.0357
  125MOL0     H16829  12.610   4.167   3.167  1.6955  0.0621 -2.9025
  125MOL0     H16830  12.783   4.209   3.201 -1.3488  2.3729  0.1994
  125MOL0     H16831  12.698   3.954   3.162  1.5080  0.7057  0.0020
  125MOL0     H16832  12.642   3.990   3.330 -3.2462  1.8178 -2.0655
  125MOL0     H16833  12.924   3.997   3.198 -1.4828 -3.0490 -2.6147
  125MOL0     H16834  12.866   3.873   3.288 -0.7505  1.0066  1.1823
  125MOL0     H16835  13.013   4.153   3.593  1.3405  0.7588  0.5997
  125MOL0     H16836  13.272   4.193   3.641 -0.3942  0.2380 -0.0537
  125MOL0     H16837  13.714   3.942   3.505  0.2291  1.6628 -2.6829
  125MOL0     H16838  13.949   3.939   3.556 -0.2267 -0.2890 -0.8942
  125MOL0     H16839  14.076   4.253   3.661 -0.0825 -2.6820 -1.7144
  125MOL0     H16840  14.098   4.249   3.834 -2.2620 -0.7568  0.7977
  125MOL0     H16841  14.315   4.250   3.770 -0.9525 -1.5462  3.2126
  125MOL0     H16842  14.306   4.070   3.736 -3.4414 -0.8805  0.9620
  125MOL0     H16843  14.205   4.187   3.505 -0.5449 -0.3910  0.6552
  125MOL0     H16844  14.333   4.295   3.555 -2.0455  1.4811 -0.9855
  125MOL0     H16845  14.484   4.078   3.600 -2.7507  1.1020  2.0078
  125MOL0     H16846  14.455   4.124   3.424  2.2676  0.2078  0.8698
  125MOL0     H16847  14.356   3.896   3.597  2.7003  1.3158  0.9823
  125MOL0     H16848  14.456   3.889   3.448  1.8571  2.2354  1.4896
  125MOL0     H16849  14.169   3.970   3.448 -1.9471 -2.2370 -0.0533
  125MOL0     H16850  14.279   3.977   3.311  1.5357  0.8332  1.6466
  125MOL0     H16851  14.177   3.719   3.428 -1.0058  1.8711  0.1221
  125MOL0     H16852  14.311   3.725   3.315 -1.3256 -0.6396 -0.1169
  125MOL0     H16853  14.088   3.677   3.223  2.0477 -0.3203 -0.7741
  125MOL0     H16854  14.035   3.839   3.251 -0.6034 -0.4461 -1.6374
  125MOL0     H16855  13.871   4.202   3.886  2.9594  0.3577 -1.6036
  125MOL0     H16856  13.623   4.223   3.819 -0.1476  0.1130 -0.9397
  125MOL0     H16857  13.344   3.946   3.297  0.0761  0.3440  0.7686
  125MOL0     H16858  13.102   3.936   3.250 -1.4558  1.2401  0.0139
  125MOL0     H16859  11.300   4.379   2.853 -1.4373  1.1695  1.4997
  125MOL0     H16860  11.110   4.275   2.779  1.3352  1.6037  0.3783
  125MOL0     H16861  10.781   4.099   2.833  0.2694 -1.0183  0.1272
  125MOL0     H16862  10.547   4.083   2.757  0.7347 -1.4265 -2.1744
  125MOL0     H16863  10.224   3.901   2.686 -1.5199  0.9619  0.8144
  125MOL0     H16864  10.363   4.019   2.677  0.0636  0.3399  0.6054
  125MOL0     H16865  10.186   4.090   2.830 -2.2732  0.2648  2.1631
  125MOL0     H16866  10.340   4.051   2.910 -1.5471  0.9965  0.3800
  125MOL0     H16867  10.172   3.981   3.067 -2.8141 -1.5177  0.0278
  125MOL0     H16868  10.252   3.841   2.996  0.6316  0.0479  2.8302
  125MOL0     H16869   9.983   3.971   2.893  2.9857  1.8581 -0.7109
  125MOL0     H16870  10.054   3.817   2.843 -2.6107 -1.2988 -0.0524
  125MOL0     H16871   9.848   3.695   3.181 -1.6879 -1.4566 -1.5246
  125MOL0     H16872  10.557   3.660   2.837 -2.9444  1.3772 -1.3105
  125MOL0     H16873  10.883   3.593   2.806 -2.2103 -1.7940 -2.2528
  125MOL0     H16874  10.886   3.666   2.965 -1.2353  0.6838 -1.1065
  125MOL0     H16875  10.754   3.554   2.920  2.5035 -3.0408 -1.9272
  126MOL0     O16876   4.652   4.891   3.961  0.0037  0.9407 -0.3783
  126MOL0     C16877   4.666   5.007   3.924 -0.6084 -0.5186 -0.1972
  126MOL0     O16878   4.629   5.117   3.998  0.6323  0.1442 -0.4146
  126MOL0     C16879   4.597   5.083   4.127  0.5883  0.0929  0.2151
  126MOL0     C16880   4.467   5.048   4.162 -0.1450  0.1799 -0.5968
  126MOL0     C16881   4.439   5.022   4.299  0.1956 -0.3645 -0.2431
  126MOL0     C16882   4.537   5.018   4.404 -0.5063 -0.2260 -0.0001
  126MOL0     O16883   4.514   4.965   4.529  0.1637 -0.5117 -1.0509
  126MOL0     C16884   4.383   4.920   4.582 -0.1053  0.1926  0.1740
  126MOL0     C16885   4.412   4.808   4.691  0.6162 -0.6932  1.0116
  126MOL0     C16886   4.288   4.714   4.702 -0.7016 -0.4683  0.4892
  126MOL0     C16887   4.311   4.611   4.809  0.1770  1.0603 -0.0744
  126MOL0     C16888   4.189   4.511   4.813 -0.1962 -0.3348  0.6621
  126MOL0     C16889   4.190   4.402   4.707  0.5836 -0.5408 -0.2197
  126MOL0     C16890   4.068   4.311   4.736  0.3699  0.1425  0.5168
  126MOL0     C16891   3.961   4.359   4.636  0.3102  0.8471  0.6159
  126MOL0     N16892   3.828   4.299   4.664 -0.1928  0.5577 -0.1822
  126MOL0     C16893   3.805   4.173   4.718 -0.3195  1.0254 -0.9450
  126MOL0     C16894   3.676   4.171   4.752 -0.3831 -0.1425 -0.3767
  126MOL0     C16895   3.596   4.052   4.819 -0.7798  0.1698  1.2460
  126MOL0     C16896   3.482   4.109   4.906  0.7480 -0.2595  0.3993
  126MOL0     C16897   3.413   3.994   4.986 -0.9808  0.1875  0.4671
  126MOL0     C16898   3.492   3.916   5.099  0.5705 -0.2229 -0.6272
  126MOL0     O16899   3.539   4.016   5.191  0.5006 -0.2467  0.1828
  126MOL0     C16900   3.671   4.064   5.179 -0.5825 -0.1572  0.1569
  126MOL0     C16901   3.704   4.192   5.156  0.3980 -0.4240 -0.7506
  126MOL0     C16902   3.837   4.237   5.127  0.4109  0.1578 -0.5666
  126MOL0     C16903   3.933   4.138   5.115  0.0063  0.3215 -1.1707
  126MOL0     C16904   4.069   4.165   5.069 -0.0778  0.0422  0.5273
  126MOL0     O16905   4.143   4.052   5.024 -0.6237  0.3886 -0.1667
  126MOL0     C16906   4.287   4.051   5.029 -0.4611  0.3316  0.9224
  126MOL0     C16907   4.344   3.977   5.135  0.0856  0.1398 -1.0695
  126MOL0     C16908   4.480   3.944   5.130 -0.2369  0.5739  0.6492
  126MOL0     C16909   4.563   4.012   5.032 -0.0435 -0.0233 -0.3482
  126MOL0     O16910   4.700   4.015   5.033  0.0105  0.5049  0.7758
  126MOL0     C16911   4.754   3.896   4.981 -0.9493 -0.9130  0.1251
  126MOL0     C16912   4.865   3.846   5.068 -0.1770  0.1708 -0.5650
  126MOL0     C16913   5.003   3.915   5.066 -0.1052 -0.0951  0.0933
  126MOL0     C16914   5.119   3.825   5.111 -0.5189 -0.1489 -0.1737
  126MOL0     C16915   5.243   3.911   5.143 -0.1059  0.1094 -0.2229
  126MOL0     C16916   5.361   3.819   5.197 -1.0378  0.0387  0.4780
  126MOL0     C16917   5.494   3.907   5.236  0.1401  0.7292  0.9472
  126MOL0     C16918   5.561   3.956   5.110  0.1244 -0.0706 -0.3783
  126MOL0    Cl16919   5.714   4.027   5.153 -0.5184  0.3746 -0.0839
  126MOL0     C16920   4.507   4.093   4.936  0.0100 -0.3933  0.1581
  126MOL0     C16921   4.372   4.099   4.927  1.7715  0.0854 -0.8267
  126MOL0     O16922   4.113   4.278   5.069  0.2112 -0.4613 -0.3755
  126MOL0     C16923   3.896   4.003   5.136  0.1338  1.1122 -0.0295
  126MOL0     C16924   3.772   3.964   5.171 -0.3528 -0.1854  0.3648
  126MOL0     N16925   3.619   4.286   4.715  0.3905  0.0991  0.2079
  126MOL0     N16926   3.714   4.366   4.668  0.7830 -0.8167  0.2263
  126MOL0     C16927   4.669   5.044   4.360  0.4300  0.6676 -0.1450
  126MOL0     C16928   4.695   5.074   4.224 -0.2528  0.8260 -0.1016
  126MOL0     C16929   4.726   5.034   3.793  0.2830  0.2265 -0.0407
  126MOL0     C16930   4.728   5.176   3.753  0.3959  0.2473  0.0335
  126MOL0     C16931   4.739   5.205   3.616 -0.0965 -0.0963  0.0230
  126MOL0     C16932   4.751   5.107   3.513 -0.0908  1.2675 -1.1229
  126MOL0     O16933   4.771   5.123   3.381  0.4157  0.2492 -0.1455
  126MOL0     C16934   4.743   5.255   3.326  0.6888  0.9363 -0.0234
  126MOL0     C16935   4.788   5.260   3.181  0.0305  0.2900  0.1948
  126MOL0     C16936   4.937   5.252   3.165 -0.4340  0.1586 -0.2343
  126MOL0     C16937   5.002   5.114   3.167 -0.3476 -0.1171  0.7783
  126MOL0     C16938   5.137   5.116   3.111 -0.0538  0.4748  0.0554
  126MOL0     C16939   5.242   5.117   3.054 -0.6942  0.0243  0.0768
  126MOL0     C16940   4.760   4.975   3.561  0.4682  0.0745  0.7017
  126MOL0     C16941   4.752   4.930   3.695  0.2840  0.3569  0.0534
  126MOL0     C16942   4.775   4.783   3.721  0.2000  0.0986  0.4956
  126MOL0     H16943   4.383   5.040   4.093 -3.2996  1.2657  2.8002
  126MOL0     H16944   4.338   4.985   4.318  1.2382 -3.0151  0.6835
  126MOL0     H16945   4.323   5.005   4.612  0.1803  0.8574 -1.0642
  126MOL0     H16946   4.327   4.866   4.504 -2.6994  0.1924  1.9247
  126MOL0     H16947   4.437   4.860   4.784 -0.4700  1.1684  0.3330
  126MOL0     H16948   4.492   4.740   4.661  0.5739 -0.9456  1.4585
  126MOL0     H16949   4.267   4.675   4.602  1.4997  1.9253 -1.0280
  126MOL0     H16950   4.199   4.772   4.725 -1.2741 -1.1298 -0.0193
  126MOL0     H16951   4.399   4.552   4.785  0.0607  1.3802 -1.3618
  126MOL0     H16952   4.327   4.660   4.906 -1.3373  2.6194 -0.5456
  126MOL0     H16953   4.194   4.475   4.916 -1.5318  0.8558  1.1792
  126MOL0     H16954   4.092   4.561   4.802 -0.6947 -1.2284  0.9428
  126MOL0     H16955   4.191   4.428   4.601 -1.0486  0.1261 -0.1008
  126MOL0     H16956   4.278   4.340   4.724  1.7053  1.0594 -0.0029
  126MOL0     H16957   4.030   4.329   4.837  3.2360  1.4121  1.4646
  126MOL0     H16958   4.091   4.207   4.710  0.7000  1.2671 -5.0760
  126MOL0     H16959   3.948   4.466   4.651 -1.4175  1.0938 -1.9940
  126MOL0     H16960   3.990   4.334   4.533 -0.0755 -1.6580  1.0505
  126MOL0     H16961   3.876   4.092   4.728  0.4804  1.5392 -2.2541
  126MOL0     H16962   3.551   3.989   4.742  1.5517 -0.1431  0.0371
  126MOL0     H16963   3.672   3.998   4.876  2.3131  1.4885 -1.3431
  126MOL0     H16964   3.519   4.191   4.968  2.0224  0.1040 -0.8031
  126MOL0     H16965   3.407   4.151   4.838  2.1581 -2.2056 -2.5341
  126MOL0     H16966   3.389   3.917   4.912  0.6657 -1.2210  1.3151
  126MOL0     H16967   3.324   4.047   5.024  0.0091  3.5567 -1.5421
  126MOL0     H16968   3.573   3.859   5.054  0.2348  1.1069 -3.0704
  126MOL0     H16969   3.431   3.834   5.139 -2.6829  1.0938 -2.5101
  126MOL0     H16970   3.622   4.262   5.157  0.2795 -0.5583  0.4309
  126MOL0     H16971   3.867   4.340   5.107  0.8470  0.3686  1.0834
  126MOL0     H16972   4.282   3.931   5.211  0.4379 -1.4065 -1.6732
  126MOL0     H16973   4.516   3.877   5.207 -0.5619  3.1611  3.2137
  126MOL0     H16974   4.678   3.820   4.963  1.9023 -4.0441  0.3617
  126MOL0     H16975   4.803   3.921   4.887 -5.2160  2.1337 -1.6114
  126MOL0     H16976   4.829   3.858   5.170 -1.3468  0.4958 -0.9989
  126MOL0     H16977   4.879   3.741   5.042  1.8265  0.7177 -1.9370
  126MOL0     H16978   5.022   3.954   4.966 -0.5785  0.2898  0.1455
  126MOL0     H16979   5.015   4.003   5.130 -1.0364 -0.3109  0.5866
  126MOL0     H16980   5.129   3.754   5.028  1.2481  0.3560 -0.4231
  126MOL0     H16981   5.091   3.776   5.205 -0.3909  1.1384  0.5541
  126MOL0     H16982   5.214   3.993   5.208  0.4223  0.3806 -0.3267
  126MOL0     H16983   5.283   3.955   5.051  2.3736 -0.1299  0.6540
  126MOL0     H16984   5.344   3.759   5.286  2.2066 -1.8073  0.0179
  126MOL0     H16985   5.376   3.754   5.111 -1.0546  1.7405 -0.8845
  126MOL0     H16986   5.571   3.849   5.288 -0.6535 -0.6925  0.5829
  126MOL0     H16987   5.471   3.988   5.306  0.7968 -0.2785  2.4006
  126MOL0     H16988   5.571   3.875   5.038 -0.9155  0.7799 -1.5351
  126MOL0     H16989   5.508   4.043   5.069 -1.0603  0.0606  1.3348
  126MOL0     H16990   4.572   4.136   4.861 -0.0052 -0.3608  0.1636
  126MOL0     H16991   4.330   4.143   4.837 -1.2429 -2.8172 -1.0334
  126MOL0     H16992   3.973   3.927   5.136 -0.3359  0.5478 -2.4197
  126MOL0     H16993   3.749   3.861   5.193  4.1921 -1.8267 -1.3169
  126MOL0     H16994   4.750   5.045   4.432  3.3138 -0.6686 -3.0644
  126MOL0     H16995   4.796   5.083   4.185 -0.0866 -0.6757 -0.0590
  126MOL0     H16996   4.729   5.258   3.824 -0.0676  0.7006 -0.4683
  126MOL0     H16997   4.743   5.309   3.583  0.1021  0.2640  1.1557
  126MOL0     H16998   4.789   5.337   3.382 -0.5146  1.1561  0.6904
  126MOL0     H16999   4.633   5.260   3.328  0.4685  0.4278 -3.6726
  126MOL0     H17000   4.749   5.341   3.119  0.6657  2.5388  2.5926
  126MOL0     H17001   4.740   5.174   3.132 -3.1919  1.3347  1.2445
  126MOL0     H17002   4.986   5.303   3.247 -0.8293  0.9961 -0.5043
  126MOL0     H17003   4.973   5.301   3.074 -0.0204 -0.3574 -0.3557
  126MOL0     H17004   5.008   5.063   3.263 -0.8205  0.9458  1.3791
  126MOL0     H17005   4.951   5.052   3.092 -0.2957  0.4246  0.2863
  126MOL0     H17006   5.338   5.113   3.007 -1.0701  0.6945 -0.7804
  126MOL0     H17007   4.785   4.903   3.484  2.3402  0.8936  0.4957
  126MOL0     H17008   4.802   4.725   3.631  1.2872 -0.9478  1.4615
  126MOL0     H17009   4.859   4.768   3.789  2.1777  0.6983 -1.6759
  126MOL0     H17010   4.680   4.748   3.763 -0.0348  2.0814  1.7237
  127MOL0     O17011   6.134   4.565   1.881  0.1379  0.0900  0.2426
  127MOL0     C17012   6.140   4.519   1.986 -0.5606  0.4398 -0.8024
  127MOL0     O17013   6.248   4.526   2.071  0.1002 -0.4424 -0.0052
  127MOL0     C17014   6.365   4.580   2.017  0.0335  0.6824  0.5723
  127MOL0     C17015   6.371   4.714   1.974  0.6253  0.0587  0.2436
  127MOL0     C17016   6.495   4.762   1.915  0.2143  0.4445  0.5686
  127MOL0     C17017   6.594   4.674   1.880 -0.1529 -0.1007  0.5355
  127MOL0     O17018   6.702   4.727   1.832 -0.2434  0.8729 -0.5329
  127MOL0     C17019   6.826   4.709   1.913 -0.5658 -0.0477 -0.2088
  127MOL0     C17020   6.902   4.839   1.946 -1.0221 -0.4944 -0.1868
  127MOL0     C17021   6.972   4.873   1.814  0.3420  0.3621 -0.0770
  127MOL0     C17022   7.023   5.015   1.821 -0.3723  0.1943  0.0076
  127MOL0     C17023   7.085   5.054   1.690 -0.8994 -0.1765 -0.3601
  127MOL0     C17024   7.223   4.985   1.660  0.4103 -0.5425  0.5245
  127MOL0     C17025   7.325   5.070   1.583  0.0080  0.0476  0.7301
  127MOL0     C17026   7.267   5.113   1.452 -0.3232  0.5759 -1.0166
  127MOL0     N17027   7.368   5.167   1.354 -0.2554 -0.3086  0.1202
  127MOL0     C17028   7.496   5.205   1.364  0.4947  0.2455 -0.2773
  127MOL0     C17029   7.529   5.240   1.239  0.2666 -0.3539  0.4582
  127MOL0     C17030   7.658   5.283   1.185 -0.4994  0.9089  0.1009
  127MOL0     C17031   7.657   5.430   1.138  0.2275  0.8871  0.1351
  127MOL0     C17032   7.793   5.504   1.168 -0.5686  0.6044 -0.0729
  127MOL0     C17033   7.864   5.568   1.049  1.3166 -0.1327 -0.3919
  127MOL0     O17034   7.927   5.692   1.092 -0.0611  0.0028 -0.2246
  127MOL0     C17035   8.053   5.678   1.146 -0.8013 -0.6747  0.5040
  127MOL0     C17036   8.130   5.798   1.144  0.1964 -0.3023  0.1017
  127MOL0     C17037   8.268   5.802   1.188  0.3308  0.2079 -0.5371
  127MOL0     C17038   8.326   5.691   1.245 -0.2068  0.3744  0.5300
  127MOL0     C17039   8.465   5.697   1.293 -0.1615  0.4654  0.0908
  127MOL0     O17040   8.504   5.810   1.365  0.1101 -0.4383 -0.2287
  127MOL0     C17041   8.621   5.820   1.447  0.4752 -0.5158  0.6432
  127MOL0     C17042   8.706   5.717   1.489 -0.7558 -0.6229  0.3489
  127MOL0     C17043   8.825   5.751   1.556  0.1887  0.0557 -0.0760
  127MOL0     C17044   8.866   5.882   1.574  0.4112 -0.2359  0.4058
  127MOL0     O17045   8.976   5.914   1.647 -0.3591 -0.3485 -0.1376
  127MOL0     C17046   9.079   5.809   1.669 -0.0853  0.4052  0.2555
  127MOL0     C17047   9.170   5.859   1.780 -0.0781 -0.3201 -0.2352
  127MOL0     C17048   9.240   5.744   1.849 -0.0496  0.0080  0.3446
  127MOL0     C17049   9.342   5.664   1.761 -0.4751 -0.3622 -1.2575
  127MOL0     C17050   9.392   5.554   1.849 -0.0485 -0.6104  0.6097
  127MOL0     C17051   9.513   5.490   1.779  0.2670  0.5304  0.1356
  127MOL0     C17052   9.472   5.410   1.648  0.1465 -0.3883  0.1350
  127MOL0     C17053   9.597   5.370   1.561  0.1231 -0.0152  0.0996
  127MOL0    Cl17054   9.529   5.323   1.405  0.8541  0.0973  0.0759
  127MOL0     C17055   8.787   5.987   1.522  1.0488  0.8660  0.5384
  127MOL0     C17056   8.663   5.957   1.466 -0.6018  0.0974  0.2083
  127MOL0     O17057   8.526   5.588   1.292  0.9673  0.1486 -0.4473
  127MOL0     C17058   8.250   5.567   1.246  0.1145  0.1836 -0.1107
  127MOL0     C17059   8.114   5.566   1.201 -0.3123  1.0112 -0.6320
  127MOL0     N17060   7.423   5.236   1.151  0.1819  0.1685  0.4127
  127MOL0     N17061   7.328   5.193   1.223 -0.0702 -0.9954  1.3186
  127MOL0     C17062   6.585   4.536   1.921  0.1150  0.2495 -0.2893
  127MOL0     C17063   6.470   4.493   1.988  0.3122 -0.0579  0.2152
  127MOL0     C17064   6.017   4.447   2.030  0.5815 -0.3217  0.6402
  127MOL0     C17065   5.990   4.440   2.166  0.5558 -0.7772  0.4651
  127MOL0     C17066   5.890   4.361   2.225 -0.4617 -0.3780 -1.4805
  127MOL0     C17067   5.807   4.283   2.148 -0.6874 -0.0699  0.9605
  127MOL0     O17068   5.729   4.183   2.202 -0.0562  0.7883  0.1583
  127MOL0     C17069   5.716   4.178   2.347  0.3562 -0.1810 -0.8255
  127MOL0     C17070   5.647   4.042   2.380  0.0635 -0.4050 -0.4652
  127MOL0     C17071   5.490   4.065   2.384  0.4386  0.2148 -0.1650
  127MOL0     C17072   5.401   3.928   2.412 -0.8331 -0.7517 -0.6509
  127MOL0     C17073   5.259   3.940   2.373 -0.4473 -0.2549  0.1764
  127MOL0     C17074   5.142   3.947   2.344  0.4404  0.1407 -0.9714
  127MOL0     C17075   5.830   4.287   2.013  0.3056 -0.5406 -0.0943
  127MOL0     C17076   5.931   4.371   1.945 -0.1260  1.0466 -0.2380
  127MOL0     C17077   5.961   4.340   1.801 -0.1951 -1.5638  0.4694
  127MOL0     H17078   6.295   4.791   1.988  1.4360  1.0772 -0.7176
  127MOL0     H17079   6.496   4.867   1.884  1.2434  0.2960  0.0559
  127MOL0     H17080   6.808   4.662   2.010  1.5376 -1.5125 -0.4706
  127MOL0     H17081   6.891   4.640   1.860 -1.1584 -0.7289 -0.0756
  127MOL0     H17082   6.971   4.830   2.030 -1.3795 -0.7257  0.0896
  127MOL0     H17083   6.826   4.914   1.972 -0.5598 -0.3891  0.9161
  127MOL0     H17084   6.897   4.878   1.734 -0.2703  0.3054  0.4801
  127MOL0     H17085   7.061   4.813   1.791  1.3334  1.4232  0.9122
  127MOL0     H17086   6.941   5.081   1.847 -0.7374 -0.4337  0.4675
  127MOL0     H17087   7.102   5.011   1.897  1.2920  0.7580 -1.5997
  127MOL0     H17088   7.017   5.042   1.605  1.8879  0.9317 -2.9408
  127MOL0     H17089   7.110   5.159   1.710  0.3533 -0.8212  1.7501
  127MOL0     H17090   7.266   4.976   1.761 -1.1925 -1.5613  1.1453
  127MOL0     H17091   7.214   4.883   1.621  2.0248 -1.3084  1.9889
  127MOL0     H17092   7.410   5.005   1.561 -0.2110 -0.1917  0.5826
  127MOL0     H17093   7.358   5.158   1.638  0.9100  1.6736 -2.2290
  127MOL0     H17094   7.221   5.026   1.404  0.0179 -0.7466  0.9358
  127MOL0     H17095   7.195   5.196   1.455  0.3228  1.1157 -0.1754
  127MOL0     H17096   7.561   5.206   1.451 -0.2843 -1.0670  0.3494
  127MOL0     H17097   7.734   5.267   1.262  0.3478  3.3783 -0.1221
  127MOL0     H17098   7.670   5.211   1.103  1.5432 -0.0087  1.1399
  127MOL0     H17099   7.642   5.434   1.030 -2.1445 -0.1598  0.3590
  127MOL0     H17100   7.576   5.492   1.180 -0.9559 -0.7802  0.3948
  127MOL0     H17101   7.865   5.431   1.208  1.8402  1.5377 -2.4081
  127MOL0     H17102   7.773   5.578   1.246 -0.7853 -0.9266  1.3930
  127MOL0     H17103   7.795   5.585   0.966  0.2906 -2.1086 -0.0100
  127MOL0     H17104   7.934   5.495   1.009  2.4808 -0.7891  2.5791
  127MOL0     H17105   8.082   5.893   1.124  1.6725  0.7503  1.2952
  127MOL0     H17106   8.324   5.895   1.191 -0.3828  0.6281  0.8850
  127MOL0     H17107   8.681   5.618   1.455 -1.3102 -0.0611 -0.9451
  127MOL0     H17108   8.890   5.670   1.586  0.3446  1.4308  3.9498
  127MOL0     H17109   9.034   5.717   1.709 -1.0115 -0.0124 -1.6366
  127MOL0     H17110   9.133   5.789   1.576 -0.7177 -0.9931  0.1519
  127MOL0     H17111   9.243   5.931   1.741  1.6714 -2.1750 -0.5460
  127MOL0     H17112   9.110   5.917   1.851  1.0002  0.9927 -0.3499
  127MOL0     H17113   9.283   5.765   1.948  0.0361 -4.7279  1.5593
  127MOL0     H17114   9.159   5.674   1.875 -1.1769 -0.0781 -2.9840
  127MOL0     H17115   9.411   5.745   1.737 -0.7298  0.0698 -0.5880
  127MOL0     H17116   9.295   5.624   1.671  1.1816 -0.4271 -2.1193
  127MOL0     H17117   9.328   5.473   1.883  0.2170 -1.1479 -0.1480
  127MOL0     H17118   9.423   5.606   1.940 -1.2226 -0.8497  1.1687
  127MOL0     H17119   9.583   5.572   1.758  0.4558  0.7757  1.6325
  127MOL0     H17120   9.547   5.419   1.854 -1.4453 -1.0491 -0.4838
  127MOL0     H17121   9.403   5.472   1.590 -1.2301 -0.5978  1.4823
  127MOL0     H17122   9.412   5.324   1.679  0.2466 -0.5551 -0.1332
  127MOL0     H17123   9.665   5.453   1.541  1.7694 -0.5881  2.8141
  127MOL0     H17124   9.647   5.291   1.619 -0.6988 -2.1684 -1.9421
  127MOL0     H17125   8.791   6.095   1.534 -1.2203  1.2060 -1.1618
  127MOL0     H17126   8.603   6.043   1.437 -0.5120  0.7209  1.7515
  127MOL0     H17127   8.288   5.470   1.276 -0.8783  0.1488  1.0965
  127MOL0     H17128   8.054   5.476   1.211  0.4493  0.3800 -1.5791
  127MOL0     H17129   6.672   4.471   1.928  0.6506  1.0684  4.5791
  127MOL0     H17130   6.473   4.392   2.027  1.3999 -0.6764 -1.3642
  127MOL0     H17131   6.041   4.505   2.237  2.4482  1.4574 -2.7161
  127MOL0     H17132   5.885   4.369   2.333  1.0598 -0.1098 -1.4120
  127MOL0     H17133   5.649   4.257   2.382 -0.4880 -0.2956 -2.1301
  127MOL0     H17134   5.817   4.188   2.389  0.0008  1.8947 -0.3331
  127MOL0     H17135   5.678   3.991   2.472 -0.4809  0.3175  0.1290
  127MOL0     H17136   5.673   3.978   2.295 -1.5098  1.6872 -2.6702
  127MOL0     H17137   5.465   4.101   2.285 -1.6770 -0.1402  0.2046
  127MOL0     H17138   5.457   4.140   2.456 -1.7512 -0.2409 -0.6359
  127MOL0     H17139   5.434   3.844   2.351 -1.2391 -2.0030  0.8141
  127MOL0     H17140   5.402   3.915   2.521 -0.8826 -0.7012 -0.6444
  127MOL0     H17141   5.035   3.959   2.338  0.3134  3.4101  3.0763
  127MOL0     H17142   5.777   4.212   1.954 -0.0886 -1.1366  0.9850
  127MOL0     H17143   5.911   4.250   1.765  0.0999 -1.7032  0.4058
  127MOL0     H17144   5.929   4.420   1.733  0.6347 -0.8032  0.9376
  127MOL0     H17145   6.070   4.329   1.789 -0.2221 -0.6815 -0.6910
  128MOL0     O17146   9.034   0.684   2.322  0.2120 -0.4796  0.2663
  128MOL0     C17147   8.938   0.763   2.329 -0.6255  0.2611  0.2123
  128MOL0     O17148   8.942   0.890   2.387  0.0707 -0.2584 -0.3490
  128MOL0     C17149   9.046   0.948   2.453  0.1762  0.0780 -0.3206
  128MOL0     C17150   9.143   0.886   2.535  0.3503 -0.0608  0.6197
  128MOL0     C17151   9.254   0.958   2.591  0.9346  0.2210  0.1375
  128MOL0     C17152   9.243   1.099   2.582 -0.0145  0.5638  1.0973
  128MOL0     O17153   9.345   1.175   2.638 -0.0251 -0.1470 -0.2016
  128MOL0     C17154   9.360   1.315   2.613  0.9258  0.1232  0.4286
  128MOL0     C17155   9.489   1.368   2.663  0.3852  0.3671  0.5627
  128MOL0     C17156   9.609   1.310   2.575  0.4263  0.2295 -1.0035
  128MOL0     C17157   9.750   1.382   2.602  0.1075  0.4313 -0.2734
  128MOL0     C17158   9.864   1.323   2.524 -1.6286 -0.4424  1.0214
  128MOL0     C17159   9.859   1.371   2.381  0.4661 -0.2126 -0.5577
  128MOL0     C17160   9.972   1.301   2.312  0.2230  0.2053  0.4870
  128MOL0     C17161   9.969   1.324   2.163 -0.9455  0.6830 -0.4468
  128MOL0     N17162  10.044   1.225   2.087 -0.2705  0.3008 -0.2148
  128MOL0     C17163  10.023   1.083   2.063  0.6284 -0.1100 -0.7394
  128MOL0     C17164  10.097   1.060   1.951  0.0772 -0.2149  0.5305
  128MOL0     C17165  10.133   0.934   1.888  0.0994  0.1068  1.0459
  128MOL0     C17166  10.237   0.864   1.967 -0.5669  0.1441 -0.1749
  128MOL0     C17167  10.303   0.761   1.879  0.1163 -0.0300  0.3146
  128MOL0     C17168  10.422   0.813   1.811 -0.8534  0.3589  0.1831
  128MOL0     O17169  10.528   0.861   1.904  0.0541  0.0454 -0.7284
  128MOL0     C17170  10.596   0.973   1.865  0.2614 -0.3390  0.5121
  128MOL0     C17171  10.541   1.098   1.861  0.4997  0.1673 -0.0649
  128MOL0     C17172  10.614   1.209   1.811  0.1696 -0.3386  0.0041
  128MOL0     C17173  10.749   1.200   1.772  0.0813  0.4649 -0.1811
  128MOL0     C17174  10.831   1.313   1.732  0.0037 -0.0354  0.0672
  128MOL0     O17175  10.755   1.431   1.736 -0.2339  0.4305 -0.0342
  128MOL0     C17176  10.804   1.543   1.670  0.0493  0.1006  0.8282
  128MOL0     C17177  10.709   1.631   1.623  0.0373 -0.3907  0.6850
  128MOL0     C17178  10.745   1.756   1.572  0.2694  0.0683 -1.2583
  128MOL0     C17179  10.880   1.789   1.555  0.4211 -0.0776 -0.3194
  128MOL0     O17180  10.921   1.912   1.511  0.2308  0.3471  0.4814
  128MOL0     C17181  10.849   2.030   1.563  0.1157 -0.4469  0.3193
  128MOL0     C17182  10.929   2.158   1.550 -0.3055 -0.1087  0.1400
  128MOL0     C17183  10.928   2.188   1.407 -0.8415 -0.1697 -0.1423
  128MOL0     C17184  11.003   2.318   1.377  0.1495  0.1068 -0.2775
  128MOL0     C17185  10.985   2.359   1.233 -0.7586 -0.3659  0.2740
  128MOL0     C17186  11.091   2.461   1.180  0.3779  0.1298 -0.2903
  128MOL0     C17187  11.056   2.511   1.039 -0.3862 -0.1718  0.2454
  128MOL0     C17188  11.131   2.636   1.016 -0.3209 -1.2360 -0.6257
  128MOL0    Cl17189  11.061   2.729   0.884 -0.2766 -0.4177  0.4764
  128MOL0     C17190  10.981   1.695   1.583 -0.2879  0.5374  0.1339
  128MOL0     C17191  10.935   1.578   1.643 -0.0401 -0.1959 -0.4409
  128MOL0     O17192  10.943   1.297   1.683  0.2145  0.2861  0.5689
  128MOL0     C17193  10.808   1.073   1.783 -0.1872 -0.4042 -0.0139
  128MOL0     C17194  10.730   0.964   1.831  0.6291 -0.3961 -0.0251
  128MOL0     N17195  10.131   1.182   1.895 -0.6643  0.0121 -0.2195
  128MOL0     N17196  10.113   1.270   1.978  0.5652 -0.7376 -0.1675
  128MOL0     C17197   9.136   1.162   2.518  1.4466  0.5595 -0.2617
  128MOL0     C17198   9.036   1.088   2.451 -0.6880 -0.6950 -0.2299
  128MOL0     C17199   8.827   0.722   2.254  0.1046  0.0200  0.7721
  128MOL0     C17200   8.755   0.827   2.188 -0.2440  0.0974 -0.1588
  128MOL0     C17201   8.641   0.801   2.112 -0.4035  0.2467  0.4754
  128MOL0     C17202   8.602   0.675   2.089  0.0425 -0.3329  0.3350
  128MOL0     O17203   8.490   0.647   2.011 -0.7057 -0.0908  0.8591
  128MOL0     C17204   8.482   0.717   1.881 -0.1822  0.6261 -0.8835
  128MOL0     C17205   8.373   0.662   1.790  0.6406 -0.1253  0.2959
  128MOL0     C17206   8.420   0.532   1.734 -0.1073 -0.1359 -0.7152
  128MOL0     C17207   8.323   0.483   1.622 -0.3730  0.1750 -0.2071
  128MOL0     C17208   8.180   0.468   1.673  0.2052 -0.9797  0.5239
  128MOL0     C17209   8.075   0.463   1.728 -0.1235 -0.3004  0.0893
  128MOL0     C17210   8.665   0.572   2.152 -1.1310 -0.1080 -1.0672
  128MOL0     C17211   8.779   0.588   2.235  0.0581 -0.2831  0.2513
  128MOL0     C17212   8.838   0.464   2.303  0.0664 -0.7415  0.0558
  128MOL0     H17213   9.152   0.779   2.523 -0.3924 -0.0259 -0.4803
  128MOL0     H17214   9.337   0.922   2.652  0.8537 -1.4953 -0.7002
  128MOL0     H17215   9.356   1.328   2.505 -1.3566 -0.5753  0.3886
  128MOL0     H17216   9.280   1.373   2.660  1.5693 -0.4123  2.2601
  128MOL0     H17217   9.494   1.358   2.771  3.4893 -1.9975  0.3234
  128MOL0     H17218   9.480   1.474   2.638 -0.9364  0.5121  1.5342
  128MOL0     H17219   9.580   1.295   2.470 -0.5520  1.6970 -0.9773
  128MOL0     H17220   9.627   1.206   2.601 -2.3062  0.1401  0.9077
  128MOL0     H17221   9.745   1.488   2.576 -1.2085  0.6099  0.6219
  128MOL0     H17222   9.777   1.374   2.708  1.6348  0.3703 -0.6420
  128MOL0     H17223   9.961   1.346   2.569 -0.9413 -2.1628  0.4824
  128MOL0     H17224   9.855   1.214   2.522  4.6955 -1.3072  1.1498
  128MOL0     H17225   9.764   1.336   2.339  0.8395  1.9457 -3.5277
  128MOL0     H17226   9.867   1.480   2.371 -0.6133  0.1422  1.8024
  128MOL0     H17227   9.968   1.194   2.332 -2.5386  0.3104  0.8616
  128MOL0     H17228  10.065   1.336   2.359  0.8684  1.0994 -1.3611
  128MOL0     H17229   9.869   1.331   2.120 -0.9667  3.0933 -0.1432
  128MOL0     H17230  10.016   1.420   2.141  1.8053  0.4598  3.3159
  128MOL0     H17231   9.961   1.016   2.122 -0.9040  1.6308 -0.2727
  128MOL0     H17232  10.043   0.873   1.884  1.2471 -1.6144 -2.6450
  128MOL0     H17233  10.161   0.950   1.784  0.5452  4.6233  1.6318
  128MOL0     H17234  10.312   0.940   1.993 -0.7633  1.0936 -2.1573
  128MOL0     H17235  10.195   0.818   2.057 -0.8517  2.7193  1.1128
  128MOL0     H17236  10.231   0.718   1.809 -2.6590  0.8630  2.4192
  128MOL0     H17237  10.340   0.683   1.947  1.4209 -1.0913 -1.5211
  128MOL0     H17238  10.400   0.901   1.749  0.4525  0.1203 -0.6699
  128MOL0     H17239  10.465   0.748   1.734  0.9116  0.1063  1.3326
  128MOL0     H17240  10.436   1.108   1.886 -1.1163  1.1202 -5.8093
  128MOL0     H17241  10.566   1.305   1.797  1.9237  0.5936 -0.0069
  128MOL0     H17242  10.605   1.598   1.631 -0.4895 -0.7293 -4.1851
  128MOL0     H17243  10.670   1.830   1.548  0.3649  1.4637  2.2153
  128MOL0     H17244  10.753   2.040   1.513  1.7492  0.1587 -2.9399
  128MOL0     H17245  10.820   2.009   1.667 -0.7858  1.1028  0.4046
  128MOL0     H17246  10.889   2.241   1.608 -0.5536 -0.1840  0.0801
  128MOL0     H17247  11.031   2.123   1.571 -1.0489 -2.7892 -0.2715
  128MOL0     H17248  10.980   2.110   1.351  0.9900  0.0255  1.2205
  128MOL0     H17249  10.828   2.214   1.368 -2.1702 -1.4797  2.1789
  128MOL0     H17250  11.108   2.305   1.405  0.6334  2.8467 -0.5509
  128MOL0     H17251  10.962   2.398   1.439  1.5650  1.2904 -0.8173
  128MOL0     H17252  10.896   2.421   1.230  1.7732  3.6579  0.7787
  128MOL0     H17253  10.990   2.276   1.162  0.2438 -1.5878  1.7117
  128MOL0     H17254  11.091   2.537   1.258 -2.2109  0.7922 -0.8507
  128MOL0     H17255  11.191   2.416   1.189  1.4622  2.8204  2.9478
  128MOL0     H17256  10.953   2.539   1.019 -0.1930  0.1051 -0.3701
  128MOL0     H17257  11.091   2.439   0.964  1.9604  2.0826 -0.9947
  128MOL0     H17258  11.137   2.693   1.109  3.7435 -0.1406 -1.3458
  128MOL0     H17259  11.235   2.607   0.998  0.3081  0.2831  0.3847
  128MOL0     H17260  11.087   1.700   1.563 -0.8723  1.4160 -3.2860
  128MOL0     H17261  11.008   1.509   1.683  2.5193  2.4443 -0.2233
  128MOL0     H17262  10.915   1.055   1.778 -0.0318  0.2511  0.8204
  128MOL0     H17263  10.787   0.874   1.851  0.6885  0.0648  2.0430
  128MOL0     H17264   9.139   1.270   2.521 -0.6346  0.6365  2.4852
  128MOL0     H17265   8.949   1.126   2.400  0.2582  0.7385 -0.8358
  128MOL0     H17266   8.795   0.927   2.203  0.4406 -0.4680  2.2578
  128MOL0     H17267   8.585   0.883   2.068 -0.9061  0.0423  0.7319
  128MOL0     H17268   8.577   0.716   1.827  1.8451 -0.4815  2.4099
  128MOL0     H17269   8.452   0.821   1.895 -0.7666  0.5429 -1.5003
  128MOL0     H17270   8.359   0.738   1.713  0.8972 -0.7761 -0.4122
  128MOL0     H17271   8.284   0.662   1.853 -0.8317  0.4315 -1.7048
  128MOL0     H17272   8.435   0.448   1.802  3.2308 -0.4989 -1.7285
  128MOL0     H17273   8.518   0.553   1.690  0.4968  2.8662  1.6809
  128MOL0     H17274   8.331   0.566   1.551  2.4033  0.4066  0.2383
  128MOL0     H17275   8.365   0.393   1.575 -0.2131  0.6434 -0.9684
  128MOL0     H17276   7.972   0.445   1.752  0.0891 -0.9729  0.4984
  128MOL0     H17277   8.629   0.470   2.141 -0.3164 -0.1870 -3.5390
  128MOL0     H17278   8.757   0.392   2.318 -0.0589 -1.5377 -3.5423
  128MOL0     H17279   8.925   0.430   2.248 -0.3291 -1.0452 -0.3881
  128MOL0     H17280   8.881   0.484   2.401  4.4061 -0.5878 -1.6798
  129MOL0     O17281   8.220  11.172   8.077  0.3957 -0.0821 -0.5161
  129MOL0     C17282   8.236  11.262   7.994  1.8749 -0.1002  0.9843
  129MOL0     O17283   8.325  11.258   7.884  0.0451  0.1989 -0.4061
  129MOL0     C17284   8.405  11.149   7.847 -0.0491 -0.3808  0.3779
  129MOL0     C17285   8.427  11.033   7.921  0.3004  0.8114  0.1048
  129MOL0     C17286   8.500  10.926   7.870 -0.1405 -0.2064  0.1510
  129MOL0     C17287   8.553  10.931   7.737  0.1459  0.4221  0.8111
  129MOL0     O17288   8.613  10.818   7.683 -0.3762  0.2499  0.4220
  129MOL0     C17289   8.734  10.778   7.735 -0.9237 -0.3800  0.6239
  129MOL0     C17290   8.743  10.680   7.852 -0.2252  0.3562 -0.2259
  129MOL0     C17291   8.714  10.539   7.817 -0.2955  0.1759 -0.5010
  129MOL0     C17292   8.703  10.445   7.943  0.3238  0.4366  0.1537
  129MOL0     C17293   8.558  10.388   7.963 -1.0465 -0.0448  0.2006
  129MOL0     C17294   8.449  10.497   8.023 -0.4561 -0.4505  0.3165
  129MOL0     C17295   8.325  10.445   8.076  1.1376 -0.3944  0.8489
  129MOL0     C17296   8.228  10.383   7.971 -0.1507  0.2802 -0.0136
  129MOL0     N17297   8.133  10.293   8.013 -0.5567 -0.4466  0.4147
  129MOL0     C17298   8.012  10.328   8.065  0.2276 -0.7760 -1.0123
  129MOL0     C17299   7.944  10.216   8.100 -0.1491 -0.4332  0.3226
  129MOL0     C17300   7.816  10.218   8.169 -0.1355  0.5419 -0.5319
  129MOL0     C17301   7.690  10.246   8.088 -0.2421  0.2405  0.0404
  129MOL0     C17302   7.576  10.243   8.187  0.0002 -0.2711 -0.4009
  129MOL0     C17303   7.436  10.218   8.128  0.0447 -0.3598  1.2991
  129MOL0     O17304   7.378  10.341   8.074  0.1708 -0.5325 -0.1292
  129MOL0     C17305   7.253  10.348   8.030 -0.0506 -0.3915  0.4042
  129MOL0     C17306   7.150  10.253   8.057 -0.8038 -0.3519  0.2429
  129MOL0     C17307   7.024  10.271   8.019  1.0094 -0.2024 -0.0560
  129MOL0     C17308   6.978  10.379   7.950 -0.6922 -0.2044  0.4141
  129MOL0     C17309   6.835  10.393   7.919 -0.7326  0.2780  0.4326
  129MOL0     O17310   6.802  10.503   7.848 -1.4002  0.0971 -0.6009
  129MOL0     C17311   6.670  10.532   7.832 -0.4067 -0.4369  0.3571
  129MOL0     C17312   6.604  10.614   7.930 -0.5349  0.5960  0.2007
  129MOL0     C17313   6.465  10.640   7.913 -0.1103  0.1968  0.0016
  129MOL0     C17314   6.394  10.579   7.803 -1.0155  0.3214 -1.4242
  129MOL0     O17315   6.260  10.583   7.793 -0.2018 -0.3945 -0.1552
  129MOL0     C17316   6.186  10.566   7.907  0.9676 -0.0076 -0.0382
  129MOL0     C17317   6.054  10.504   7.859 -0.7120 -0.2808 -0.8691
  129MOL0     C17318   5.950  10.609   7.813  0.2966  0.5633 -0.3473
  129MOL0     C17319   5.824  10.539   7.762 -0.1566 -0.4110  0.0857
  129MOL0     C17320   5.728  10.649   7.708  0.0265  1.2783  0.7821
  129MOL0     C17321   5.613  10.583   7.636  0.5322 -0.7492 -0.5660
  129MOL0     C17322   5.495  10.684   7.612 -0.2582  0.0049  0.4711
  129MOL0     C17323   5.391  10.637   7.513 -0.8314  0.3497  0.0530
  129MOL0    Cl17324   5.252  10.742   7.529 -0.2004  0.3587 -0.1983
  129MOL0     C17325   6.469  10.500   7.712  0.6748 -0.6135 -0.6928
  129MOL0     C17326   6.606  10.489   7.721 -0.2986  0.7562 -0.1311
  129MOL0     O17327   6.756  10.305   7.949 -0.2412  0.4189  0.1674
  129MOL0     C17328   7.079  10.474   7.905 -0.0136  0.3715  0.9492
  129MOL0     C17329   7.210  10.456   7.943 -0.4225 -0.2559 -0.9097
  129MOL0     N17330   8.030  10.116   8.061  0.2015  0.4306 -0.3068
  129MOL0     N17331   8.140  10.162   8.021 -0.1211  0.4090 -0.3032
  129MOL0     C17332   8.545  11.050   7.669  0.2193 -0.0004  0.0537
  129MOL0     C17333   8.471  11.162   7.719 -0.3470  0.2795  0.3452
  129MOL0     C17334   8.134  11.373   7.991  0.5045  0.6029 -0.6486
  129MOL0     C17335   8.098  11.426   7.865 -0.5803  0.2823  0.3828
  129MOL0     C17336   8.004  11.522   7.842 -0.0005 -0.6330  0.3402
  129MOL0     C17337   7.931  11.565   7.959 -0.3820  0.1968  0.3161
  129MOL0     O17338   7.850  11.669   7.942 -0.1463 -0.4862 -0.2861
  129MOL0     C17339   7.705  11.653   7.964 -0.0863  0.5221 -0.5635
  129MOL0     C17340   7.632  11.737   7.870  0.5504  0.3997 -0.4949
  129MOL0     C17341   7.480  11.741   7.887 -0.0168  0.5388  0.0579
  129MOL0     C17342   7.423  11.807   7.759 -0.1452  0.0803  0.0672
  129MOL0     C17343   7.304  11.883   7.789 -0.1188 -0.3026  0.1496
  129MOL0     C17344   7.197  11.919   7.822  0.3452 -0.0852 -0.8821
  129MOL0     C17345   7.971  11.519   8.078 -0.1146 -0.9078 -0.8654
  129MOL0     C17346   8.072  11.430   8.100 -0.2066 -1.0777 -0.3636
  129MOL0     C17347   8.101  11.401   8.247 -0.4457 -0.2768 -0.4321
  129MOL0     H17348   8.388  11.014   8.020 -1.1449 -1.5693 -0.8349
  129MOL0     H17349   8.514  10.833   7.923  1.9702  1.8997  3.6774
  129MOL0     H17350   8.801  10.745   7.656  1.3921 -0.9317  2.6861
  129MOL0     H17351   8.775  10.869   7.780  1.1493 -0.2840 -1.2956
  129MOL0     H17352   8.675  10.709   7.933  0.1435 -0.5717  0.4282
  129MOL0     H17353   8.846  10.686   7.888  0.4428  0.7560 -2.1018
  129MOL0     H17354   8.792  10.502   7.750  0.2040  0.7289 -0.2300
  129MOL0     H17355   8.616  10.540   7.767 -0.0564  1.5643 -0.9784
  129MOL0     H17356   8.779  10.370   7.921  0.6938  1.0925 -0.8730
  129MOL0     H17357   8.728  10.510   8.028 -2.0015  2.9333 -0.9387
  129MOL0     H17358   8.521  10.342   7.871  3.8268 -0.2116 -1.9915
  129MOL0     H17359   8.562  10.309   8.038  1.2269 -0.5277 -0.3355
  129MOL0     H17360   8.500  10.540   8.109 -2.8643  3.0438  0.1745
  129MOL0     H17361   8.427  10.580   7.954 -2.1996 -0.2874  1.0299
  129MOL0     H17362   8.282  10.531   8.128  3.0234 -0.1454  2.1296
  129MOL0     H17363   8.363  10.369   8.145  3.3811  0.5816  0.7835
  129MOL0     H17364   8.166  10.459   7.923 -1.8076 -1.1895 -0.3029
  129MOL0     H17365   8.287  10.330   7.896  0.0011 -0.0086  0.3066
  129MOL0     H17366   7.980  10.430   8.085  2.1592 -0.3041 -0.0117
  129MOL0     H17367   7.800  10.112   8.191  0.4120  0.7478  0.9503
  129MOL0     H17368   7.819  10.279   8.260  1.2583  2.4352 -1.7607
  129MOL0     H17369   7.692  10.337   8.028 -1.9959 -1.4975 -2.9111
  129MOL0     H17370   7.684  10.173   8.007  3.3756  3.7012 -3.7765
  129MOL0     H17371   7.575  10.341   8.236  0.6790  0.4866 -1.8499
  129MOL0     H17372   7.592  10.162   8.258 -0.1409 -2.6439 -2.9438
  129MOL0     H17373   7.381  10.174   8.211 -1.4467 -2.4238 -0.6625
  129MOL0     H17374   7.444  10.145   8.047  1.0111  1.3381 -0.2359
  129MOL0     H17375   7.178  10.163   8.111  3.0809 -1.1614 -2.6756
  129MOL0     H17376   6.951  10.198   8.056 -0.2999  2.5185  3.2651
  129MOL0     H17377   6.659  10.667   8.007 -1.2794  1.2054  0.3274
  129MOL0     H17378   6.415  10.692   7.994 -2.4234 -4.7199  2.2210
  129MOL0     H17379   6.227  10.501   7.985 -1.4486 -0.6392  0.7971
  129MOL0     H17380   6.145  10.655   7.955 -2.4124 -1.7909  0.7569
  129MOL0     H17381   6.079  10.438   7.776  0.2166  0.0183 -0.8371
  129MOL0     H17382   5.999  10.447   7.935  0.2422 -0.0973 -0.0086
  129MOL0     H17383   5.927  10.661   7.907  1.9488 -1.7702  1.4463
  129MOL0     H17384   5.991  10.678   7.739 -1.7418  3.0197  0.6479
  129MOL0     H17385   5.778  10.480   7.842 -1.4943  1.6867  0.9819
  129MOL0     H17386   5.840  10.470   7.679 -1.3648  0.2324 -0.7147
  129MOL0     H17387   5.770  10.719   7.635  1.1360  0.0645  0.2218
  129MOL0     H17388   5.688  10.701   7.795  0.5030 -2.6434  3.6098
  129MOL0     H17389   5.660  10.537   7.548  1.6552  0.9492 -0.8984
  129MOL0     H17390   5.581  10.502   7.702 -0.5126 -1.1274 -1.4941
  129MOL0     H17391   5.551  10.769   7.571  0.8735 -0.4190  1.0756
  129MOL0     H17392   5.449  10.720   7.704  0.1912  1.6388  0.0811
  129MOL0     H17393   5.447  10.642   7.419  0.1387  0.6752  0.6242
  129MOL0     H17394   5.356  10.538   7.542 -1.3266  0.4936 -0.0575
  129MOL0     H17395   6.412  10.453   7.632  1.6189 -1.3222 -0.9644
  129MOL0     H17396   6.664  10.423   7.657  3.4247 -1.9859  5.2864
  129MOL0     H17397   7.042  10.564   7.855  0.6030  0.0543 -0.1049
  129MOL0     H17398   7.294  10.523   7.923 -0.0027  0.0592  1.5105
  129MOL0     H17399   8.618  11.060   7.590  2.2209 -1.4162  1.6047
  129MOL0     H17400   8.484  11.253   7.661 -1.7143  0.6416  0.5812
  129MOL0     H17401   8.153  11.395   7.776 -0.6631  4.4479 -1.3479
  129MOL0     H17402   7.975  11.566   7.748 -2.1311  1.7701  1.9757
  129MOL0     H17403   7.690  11.689   8.067  1.1560  2.5445 -1.0444
  129MOL0     H17404   7.677  11.548   7.947 -0.2638  0.5283 -0.3263
  129MOL0     H17405   7.644  11.709   7.765 -1.9444  2.1509 -1.3398
  129MOL0     H17406   7.674  11.837   7.885  2.2580 -0.0198 -2.0746
  129MOL0     H17407   7.461  11.798   7.979 -0.3322 -1.0420  1.0129
  129MOL0     H17408   7.447  11.638   7.898  0.3862  0.3809 -0.1974
  129MOL0     H17409   7.501  11.872   7.721  1.6444 -0.2687  2.8615
  129MOL0     H17410   7.415  11.732   7.680  0.8211  0.5121 -0.4504
  129MOL0     H17411   7.099  11.957   7.842  0.7671  1.2372 -1.2273
  129MOL0     H17412   7.925  11.579   8.155 -1.1669 -0.1157 -2.0608
  129MOL0     H17413   8.197  11.443   8.275 -0.3187 -0.2649 -0.8796
  129MOL0     H17414   8.035  11.453   8.317  1.8355  3.8882 -1.1038
  129MOL0     H17415   8.099  11.294   8.270 -1.0301 -0.0991  0.3976
  130MOL0     O17416   8.346  10.776   7.165  0.3055  0.7335  0.5171
  130MOL0     C17417   8.329  10.893   7.207 -0.3296  0.8347  0.2984
  130MOL0     O17418   8.431  10.974   7.244 -0.0177 -0.4232 -0.3035
  130MOL0     C17419   8.559  10.927   7.227 -0.2544  0.2162 -0.7919
  130MOL0     C17420   8.644  10.907   7.336  1.3528  0.3284 -0.2861
  130MOL0     C17421   8.782  10.864   7.319  0.6839  0.7000  0.3693
  130MOL0     C17422   8.841  10.848   7.186  0.5956 -0.9694 -0.3300
  130MOL0     O17423   8.979  10.823   7.182 -0.5155 -0.1464 -0.6181
  130MOL0     C17424   9.036  10.778   7.059  0.3840  0.5874  0.2016
  130MOL0     C17425   9.179  10.738   7.073  1.0342 -0.5146 -1.0979
  130MOL0     C17426   9.245  10.695   6.942 -0.1182 -0.5107  0.5753
  130MOL0     C17427   9.387  10.652   6.967  0.2829  0.2219 -0.3852
  130MOL0     C17428   9.471  10.663   6.838 -0.1471  0.0537 -0.1382
  130MOL0     C17429   9.597  10.572   6.840 -0.2452  0.4805  0.3754
  130MOL0     C17430   9.641  10.555   6.696  0.1040 -1.3188 -0.6032
  130MOL0     C17431   9.737  10.441   6.679  0.3406 -0.3928  0.2066
  130MOL0     N17432   9.763  10.419   6.537  0.2970  0.0565  0.8326
  130MOL0     C17433   9.885  10.428   6.475 -0.4046 -0.4716  0.1319
  130MOL0     C17434   9.875  10.394   6.349 -0.7101  0.6659  0.3327
  130MOL0     C17435   9.985  10.369   6.253 -0.3941 -0.1897 -0.2564
  130MOL0     C17436  10.019  10.493   6.167  0.5377 -0.0226 -0.4588
  130MOL0     C17437  10.167  10.489   6.129 -0.1141  0.3908 -0.1196
  130MOL0     C17438  10.209  10.624   6.069  0.2987  0.2958  1.4758
  130MOL0     O17439  10.342  10.607   6.020  0.4848 -0.1978  0.7772
  130MOL0     C17440  10.415  10.728   5.995 -0.1257  0.2686  0.0428
  130MOL0     C17441  10.552  10.696   5.956  0.2873  0.2628  0.4053
  130MOL0     C17442  10.638  10.796   5.922  0.6926 -1.0456 -0.4192
  130MOL0     C17443  10.585  10.928   5.908  0.5205 -0.0117 -0.5462
  130MOL0     C17444  10.665  11.032   5.848 -0.1952 -0.3444 -0.8383
  130MOL0     O17445  10.798  11.019   5.837  0.2295 -0.4207  0.6099
  130MOL0     C17446  10.869  11.113   5.772  0.2267  0.6022 -0.0697
  130MOL0     C17447  10.893  11.227   5.843 -0.4391  0.0873 -0.2684
  130MOL0     C17448  10.988  11.317   5.802 -0.2799  0.0173 -0.0957
  130MOL0     C17449  11.070  11.292   5.691  0.7741  0.2176  0.1558
  130MOL0     O17450  11.167  11.381   5.653  0.5883  0.6535  0.5521
  130MOL0     C17451  11.149  11.431   5.525 -0.4177 -0.2368  0.6414
  130MOL0     C17452  11.199  11.573   5.524 -0.3882 -0.1614 -0.5580
  130MOL0     C17453  11.099  11.677   5.586 -0.5392  0.6290 -0.4174
  130MOL0     C17454  11.170  11.810   5.621 -0.8855  0.5719  0.7855
  130MOL0     C17455  11.068  11.931   5.661  0.5326  0.0532 -0.4903
  130MOL0     C17456  11.138  12.055   5.738 -0.0073  0.6145  0.0847
  130MOL0     C17457  11.026  12.156   5.758 -0.7892 -1.1555  0.1891
  130MOL0     C17458  10.946  12.198   5.645  0.6527 -0.3755  0.1646
  130MOL0    Cl17459  11.036  12.216   5.491  0.0332  0.7019  0.2841
  130MOL0     C17460  11.049  11.170   5.617 -0.2077  0.4266  0.4449
  130MOL0     C17461  10.940  11.081   5.655 -0.3353  0.0206 -0.8704
  130MOL0     O17462  10.601  11.137   5.814  0.4271 -0.0430  0.1496
  130MOL0     C17463  10.459  10.961   5.954  1.3070 -0.0749  0.4720
  130MOL0     C17464  10.372  10.861   6.000 -0.1532 -0.1937 -0.3378
  130MOL0     N17465   9.743  10.360   6.326  0.4794  0.4383  1.1238
  130MOL0     N17466   9.679  10.364   6.437 -0.4345 -0.5587 -0.4312
  130MOL0     C17467   8.753  10.884   7.078  0.8841  0.2993  0.3694
  130MOL0     C17468   8.617  10.926   7.100  0.4015  0.3992 -0.5098
  130MOL0     C17469   8.198  10.942   7.223  0.6240  0.3632 -0.7926
  130MOL0     C17470   8.091  10.877   7.159 -0.1319 -0.1318  0.4176
  130MOL0     C17471   7.963  10.922   7.182 -0.3142  0.0049  0.2855
  130MOL0     C17472   7.936  11.042   7.250  0.4234  0.3197 -0.2665
  130MOL0     O17473   7.810  11.103   7.262 -0.0593  0.5023 -0.3195
  130MOL0     C17474   7.720  11.103   7.147 -0.3461 -1.1900 -0.2102
  130MOL0     C17475   7.618  10.996   7.174 -0.6858 -0.3611  0.3279
  130MOL0     C17476   7.555  10.997   7.314 -0.3145  0.9989 -0.0670
  130MOL0     C17477   7.469  10.873   7.329 -0.2123  0.4438  0.2488
  130MOL0     C17478   7.546  10.751   7.355  0.2485 -0.3923  0.1206
  130MOL0     C17479   7.607  10.647   7.381 -0.0273  0.3909  0.1339
  130MOL0     C17480   8.037  11.099   7.321  0.5376  0.2110 -0.0277
  130MOL0     C17481   8.165  11.047   7.311  0.1625 -0.8224 -0.2830
  130MOL0     C17482   8.265  11.129   7.396  0.4682  0.4243 -0.3817
  130MOL0     H17483   8.587  10.913   7.428 -0.4747  1.7202 -1.4331
  130MOL0     H17484   8.853  10.858   7.400  0.9735  0.4671  0.1055
  130MOL0     H17485   8.992  10.692   7.008 -0.3189  1.6405 -1.0344
  130MOL0     H17486   9.024  10.857   6.984 -2.8426 -0.0186 -0.0935
  130MOL0     H17487   9.189  10.660   7.149 -3.5269 -0.7656 -0.4390
  130MOL0     H17488   9.232  10.830   7.100 -1.1451  0.4710  0.0711
  130MOL0     H17489   9.239  10.765   6.858 -1.2818 -0.6048  0.5641
  130MOL0     H17490   9.197  10.602   6.910  0.2889 -0.6166  0.2541
  130MOL0     H17491   9.437  10.716   7.041  1.1047  0.5832 -1.2417
  130MOL0     H17492   9.396  10.550   7.004 -1.5361  0.3624  0.5659
  130MOL0     H17493   9.409  10.626   6.756  1.2444  2.5691 -2.5022
  130MOL0     H17494   9.498  10.766   6.811 -0.3591 -0.3821 -2.1497
  130MOL0     H17495   9.679  10.620   6.894 -0.4709 -0.3672  1.5193
  130MOL0     H17496   9.578  10.474   6.885  1.4830  0.2256  0.5884
  130MOL0     H17497   9.695  10.648   6.673  0.5932 -1.9040 -1.9457
  130MOL0     H17498   9.564  10.547   6.618  2.1343 -1.6901 -2.6847
  130MOL0     H17499   9.833  10.455   6.728  0.2949 -0.5267  0.3339
  130MOL0     H17500   9.684  10.355   6.720  1.1160  0.2352  2.7144
  130MOL0     H17501   9.978  10.434   6.530 -1.5722 -1.0825  2.2617
  130MOL0     H17502  10.075  10.335   6.306  0.3914 -0.0676 -1.4815
  130MOL0     H17503   9.959  10.289   6.183  1.4529  0.6277 -1.9682
  130MOL0     H17504   9.954  10.503   6.080 -0.7802  1.2524  0.6301
  130MOL0     H17505  10.007  10.577   6.237  0.6843 -1.9939  2.0766
  130MOL0     H17506  10.181  10.408   6.057 -0.6981 -0.4625  0.7006
  130MOL0     H17507  10.239  10.471   6.209 -2.4171 -1.4551  1.7191
  130MOL0     H17508  10.198  10.681   6.161 -1.8233 -1.5840  2.5036
  130MOL0     H17509  10.140  10.648   5.987  2.1107  0.1646 -0.1643
  130MOL0     H17510  10.595  10.597   5.961 -1.1554 -0.4356 -0.1847
  130MOL0     H17511  10.744  10.780   5.909  0.8881 -1.3382  1.3225
  130MOL0     H17512  10.853  11.240   5.943  0.2809  1.5380 -0.1418
  130MOL0     H17513  11.017  11.394   5.872 -0.6516  0.1834 -0.1236
  130MOL0     H17514  11.215  11.377   5.457  1.2436  1.6563  0.6535
  130MOL0     H17515  11.048  11.437   5.483  0.9230  1.1106 -2.7876
  130MOL0     H17516  11.294  11.590   5.576 -0.4786  4.3493 -1.4691
  130MOL0     H17517  11.205  11.593   5.417 -0.5559 -2.7873 -1.1296
  130MOL0     H17518  11.013  11.687   5.518 -2.3060 -0.2723  1.5713
  130MOL0     H17519  11.066  11.633   5.680 -0.0583 -0.2594 -0.6632
  130MOL0     H17520  11.234  11.836   5.536 -1.5087 -0.0665  0.1005
  130MOL0     H17521  11.238  11.796   5.706 -2.0119 -1.3163  1.4365
  130MOL0     H17522  10.993  11.887   5.727 -0.7248  3.2141  0.3569
  130MOL0     H17523  11.016  11.970   5.574 -1.7537 -2.3332 -0.3314
  130MOL0     H17524  11.166  12.034   5.842 -0.5727 -1.4524 -0.1380
  130MOL0     H17525  11.223  12.098   5.684 -0.2184  2.8653  1.4505
  130MOL0     H17526  11.083  12.245   5.787 -0.5060 -0.0409 -3.3394
  130MOL0     H17527  10.964  12.123   5.842  1.2860 -0.0367  2.2798
  130MOL0     H17528  10.873  12.117   5.630  0.4423 -0.2668  0.5871
  130MOL0     H17529  10.894  12.294   5.647  1.9686  0.3678 -0.6733
  130MOL0     H17530  11.105  11.168   5.524  2.1710  1.3336  1.7813
  130MOL0     H17531  10.910  10.995   5.595 -0.4810 -0.8920  0.4652
  130MOL0     H17532  10.422  11.062   5.943 -0.1702 -0.5248  0.9387
  130MOL0     H17533  10.278  10.898   6.037  0.9245  1.8914  0.5067
  130MOL0     H17534   8.777  10.863   6.974 -2.0291 -1.9097  0.0052
  130MOL0     H17535   8.555  10.954   7.015 -3.5157 -0.4125  1.8186
  130MOL0     H17536   8.118  10.790   7.100  1.9905 -0.2755  1.4902
  130MOL0     H17537   7.885  10.868   7.129 -0.5941 -0.2533  0.9490
  130MOL0     H17538   7.780  11.077   7.059 -1.4980 -0.4036 -1.2586
  130MOL0     H17539   7.665  11.197   7.144 -1.9161 -2.0719 -0.0206
  130MOL0     H17540   7.668  10.899   7.168  0.5153  0.2376  0.4046
  130MOL0     H17541   7.544  11.013   7.095 -0.1185  1.9471  0.2036
  130MOL0     H17542   7.504  11.093   7.315  3.2306  3.0779  0.2160
  130MOL0     H17543   7.621  10.992   7.402  0.7563 -0.6320 -0.8929
  130MOL0     H17544   7.401  10.884   7.414 -1.4526  0.5903 -0.7333
  130MOL0     H17545   7.400  10.864   7.245  0.8910  1.2448 -0.7738
  130MOL0     H17546   7.661  10.554   7.389 -0.9494 -0.3590 -1.7426
  130MOL0     H17547   8.023  11.195   7.369 -0.6205  0.5286 -0.9432
  130MOL0     H17548   8.337  11.059   7.438  2.0935  1.4872 -1.2758
  130MOL0     H17549   8.317  11.192   7.323  0.3560  1.2011  0.1950
  130MOL0     H17550   8.227  11.198   7.472  0.9512  0.5329 -0.2378
  131MOL0     O17551   0.595   3.582  10.453 -0.4516  0.0054  0.1197
  131MOL0     C17552   0.681   3.674  10.459 -0.1962  0.0679 -0.0197
  131MOL0     O17553   0.688   3.779  10.374 -0.2851 -0.3627 -0.3381
  131MOL0     C17554   0.594   3.793  10.276 -0.2006  0.3773 -0.2544
  131MOL0     C17555   0.459   3.781  10.304 -0.1906 -0.1096 -1.1366
  131MOL0     C17556   0.362   3.803  10.210  0.4120  0.1221 -0.3386
  131MOL0     C17557   0.394   3.843  10.080 -0.2691  1.3298  0.0941
  131MOL0     O17558   0.306   3.841   9.979  1.2665  0.1925 -0.1503
  131MOL0     C17559   0.184   3.771   9.993 -1.1063 -0.8806  0.0031
  131MOL0     C17560   0.107   3.778   9.860  0.8481 -0.3621 -0.5904
  131MOL0     C17561   0.065   3.919   9.813  0.3507  0.8628  0.9077
  131MOL0     C17562  -0.052   3.934   9.724 -0.3467  0.7113 -0.4778
  131MOL0     C17563  -0.064   4.088   9.687  0.6371  0.8116 -0.2434
  131MOL0     C17564  -0.152   4.122   9.570  0.1370  0.7097  0.8520
  131MOL0     C17565  -0.134   4.048   9.437  0.2897 -0.2866  0.4837
  131MOL0     C17566  -0.181   4.128   9.313  0.1185  0.2607 -0.5553
  131MOL0     N17567  -0.098   4.244   9.277  1.3594 -0.7073 -0.6344
  131MOL0     C17568  -0.107   4.304   9.150  0.9267 -0.0179  0.3818
  131MOL0     C17569  -0.034   4.413   9.162 -0.4403 -0.5854  0.0285
  131MOL0     C17570  -0.014   4.512   9.051 -0.4379  0.4016 -0.1634
  131MOL0     C17571   0.078   4.455   8.936  0.2016 -0.4984 -0.2269
  131MOL0     C17572   0.208   4.404   8.987 -0.2859  0.7779 -0.3023
  131MOL0     C17573   0.296   4.493   9.077 -0.2919  0.0529 -0.0668
  131MOL0     O17574   0.332   4.618   9.019 -0.0680  0.9293 -0.7798
  131MOL0     C17575   0.456   4.626   8.970 -0.2138 -0.5773 -0.3843
  131MOL0     C17576   0.494   4.595   8.840 -0.5962 -0.1149 -0.0002
  131MOL0     C17577   0.626   4.612   8.789  0.4729 -0.4919 -0.0524
  131MOL0     C17578   0.715   4.673   8.876  0.9167  0.2132  0.3738
  131MOL0     C17579   0.855   4.713   8.837 -1.0209  0.2219  0.1105
  131MOL0     O17580   0.891   4.672   8.710  0.1240  0.0489  0.0797
  131MOL0     C17581   1.003   4.715   8.647 -0.1137 -0.7389  0.2213
  131MOL0     C17582   0.996   4.837   8.584  0.2055  0.6506  0.3873
  131MOL0     C17583   1.111   4.888   8.531  0.6559  0.2338 -0.4401
  131MOL0     C17584   1.235   4.834   8.539  0.2478  0.2682 -0.7708
  131MOL0     O17585   1.332   4.890   8.458 -0.1370 -0.6344 -0.7116
  131MOL0     C17586   1.467   4.827   8.442  0.3115 -0.7420  0.0297
  131MOL0     C17587   1.528   4.892   8.335  0.2534 -0.3277 -0.1443
  131MOL0     C17588   1.671   4.823   8.323  0.8497  0.1542 -0.4225
  131MOL0     C17589   1.771   4.887   8.223 -0.0084 -0.1499  0.6965
  131MOL0     C17590   1.806   5.034   8.255  0.1925  0.0878  0.0708
  131MOL0     C17591   1.915   5.109   8.168 -0.1980 -0.6133  0.4830
  131MOL0     C17592   2.061   5.077   8.209  1.8374 -0.0268  0.2230
  131MOL0     C17593   2.087   5.107   8.356  0.0378  0.5638 -0.0875
  131MOL0    Cl17594   2.018   5.269   8.414 -0.1194  0.3666  0.8511
  131MOL0     C17595   1.246   4.712   8.618 -0.2626 -0.5587  0.2783
  131MOL0     C17596   1.124   4.648   8.658 -0.7418 -0.6145 -0.6945
  131MOL0     O17597   0.928   4.765   8.920  0.3472  0.6101  0.3632
  131MOL0     C17598   0.678   4.710   9.007  1.2032  0.0767 -0.0688
  131MOL0     C17599   0.542   4.679   9.059  0.1709 -0.1359 -0.1299
  131MOL0     N17600   0.018   4.419   9.290 -0.9201  0.2380  0.7298
  131MOL0     N17601  -0.032   4.330   9.361 -0.6804  0.6905  0.4866
  131MOL0     C17602   0.526   3.858  10.050 -0.1770 -0.1523  0.4313
  131MOL0     C17603   0.629   3.841  10.146  0.3898  0.1278 -1.1051
  131MOL0     C17604   0.782   3.689  10.577  0.5228  0.4429  0.2482
  131MOL0     C17605   0.897   3.769  10.555  0.0975 -0.1481 -0.4512
  131MOL0     C17606   0.993   3.792  10.652 -0.3198 -0.2370  0.4643
  131MOL0     C17607   0.971   3.749  10.785 -0.9135  0.3428  1.1051
  131MOL0     O17608   1.081   3.773  10.873 -0.0046  0.6966  0.0975
  131MOL0     C17609   1.051   3.791  11.008  0.4171 -0.2110 -0.0058
  131MOL0     C17610   1.136   3.698  11.097  0.4090  0.7435 -0.1344
  131MOL0     C17611   1.284   3.746  11.089  0.0471  0.1048  0.1275
  131MOL0     C17612   1.317   3.851  11.196 -0.7216  0.4293 -0.1505
  131MOL0     C17613   1.463   3.869  11.196  0.4309 -0.5455 -0.1782
  131MOL0     C17614   1.579   3.898  11.182 -0.4736  0.1353  0.7812
  131MOL0     C17615   0.860   3.664  10.807 -0.0109 -0.4431  0.6137
  131MOL0     C17616   0.764   3.637  10.707  0.1121  0.1165  0.0350
  131MOL0     C17617   0.640   3.552  10.741 -0.0976  0.5354 -0.0166
  131MOL0     H17618   0.428   3.750  10.403  1.0379  2.7641  0.2558
  131MOL0     H17619   0.264   3.790  10.256  1.7221 -1.2929  2.2880
  131MOL0     H17620   0.207   3.666  10.012  0.3700 -0.9846 -2.0079
  131MOL0     H17621   0.129   3.831  10.065  2.5033  3.8262 -0.6090
  131MOL0     H17622   0.020   3.712   9.863  0.0732  0.6750  0.8425
  131MOL0     H17623   0.171   3.742   9.779 -0.1623  1.5453 -2.3415
  131MOL0     H17624   0.159   3.957   9.771 -1.7360  2.6431 -2.5923
  131MOL0     H17625   0.046   3.979   9.903 -0.8233  1.7062  0.1178
  131MOL0     H17626  -0.030   3.882   9.630 -3.0189 -1.3867 -0.0784
  131MOL0     H17627  -0.142   3.892   9.771  0.0097  2.6574  2.1444
  131MOL0     H17628  -0.115   4.139   9.769 -0.9724 -0.3463 -0.4687
  131MOL0     H17629   0.038   4.115   9.659  0.8350 -0.1581 -0.4904
  131MOL0     H17630  -0.255   4.102   9.601  0.1824  1.0880  1.2549
  131MOL0     H17631  -0.135   4.229   9.553 -0.0092  0.6153  0.0502
  131MOL0     H17632  -0.190   3.954   9.429  1.0706 -0.6157 -1.3757
  131MOL0     H17633  -0.029   4.018   9.436  0.0569 -1.2001  1.3287
  131MOL0     H17634  -0.198   4.062   9.227 -0.1532 -1.7354  0.9773
  131MOL0     H17635  -0.286   4.148   9.337 -0.2915 -2.4902  0.3016
  131MOL0     H17636  -0.153   4.260   9.062  0.1469 -1.3050  1.3983
  131MOL0     H17637  -0.112   4.546   9.015  0.2123 -0.6668 -3.2840
  131MOL0     H17638   0.027   4.601   9.101 -3.0636  0.8740  1.3043
  131MOL0     H17639   0.028   4.369   8.890  3.0988 -2.8903  0.7268
  131MOL0     H17640   0.098   4.535   8.863  0.9096 -0.5798 -0.1337
  131MOL0     H17641   0.264   4.367   8.901  1.7059 -1.8597  1.9256
  131MOL0     H17642   0.179   4.317   9.047  0.6144  0.7616  0.1240
  131MOL0     H17643   0.381   4.434   9.113 -0.7882 -0.6962 -0.0894
  131MOL0     H17644   0.247   4.517   9.171  0.7449  4.8639 -0.4790
  131MOL0     H17645   0.418   4.554   8.774 -0.5842  0.6391 -0.5057
  131MOL0     H17646   0.674   4.593   8.694  2.0397  2.6804 -0.0158
  131MOL0     H17647   0.900   4.887   8.576 -2.1381 -3.3484  0.6898
  131MOL0     H17648   1.099   4.978   8.472 -2.0899  1.4744  1.7833
  131MOL0     H17649   1.529   4.849   8.530 -0.8573  1.8196  0.3104
  131MOL0     H17650   1.447   4.727   8.402 -0.9919 -0.0687 -1.0544
  131MOL0     H17651   1.468   4.870   8.246  0.4285  0.3913 -0.4460
  131MOL0     H17652   1.528   5.000   8.347 -0.9185 -0.2595 -0.6230
  131MOL0     H17653   1.712   4.823   8.424 -0.5777 -2.9347  0.2555
  131MOL0     H17654   1.656   4.719   8.292 -0.9467 -0.2386  1.5033
  131MOL0     H17655   1.737   4.872   8.120  1.2147 -3.2912  0.6531
  131MOL0     H17656   1.858   4.823   8.237 -0.6659 -0.9650  1.2352
  131MOL0     H17657   1.840   5.037   8.359  1.4633  0.1591 -0.3273
  131MOL0     H17658   1.713   5.089   8.240  0.4018  0.3018 -0.4996
  131MOL0     H17659   1.904   5.086   8.062  0.0960 -0.4958  0.4250
  131MOL0     H17660   1.904   5.216   8.186 -1.2969 -0.5082 -0.6819
  131MOL0     H17661   2.120   5.141   8.142  0.1091  0.2396 -1.1368
  131MOL0     H17662   2.087   4.972   8.192  0.0883 -0.7669  1.7809
  131MOL0     H17663   2.040   5.033   8.420 -0.6004  0.3937 -0.7448
  131MOL0     H17664   2.191   5.102   8.390 -0.4847  0.3386  1.5445
  131MOL0     H17665   1.345   4.666   8.619  0.0175  0.0448  0.8600
  131MOL0     H17666   1.117   4.554   8.713  1.5003 -2.3393 -3.1490
  131MOL0     H17667   0.740   4.759   9.081  1.0662  1.1232 -0.6249
  131MOL0     H17668   0.520   4.698   9.163 -0.5904 -0.4614 -0.2212
  131MOL0     H17669   0.547   3.877   9.945  1.1958 -1.6268  0.4016
  131MOL0     H17670   0.731   3.869  10.123 -0.4490  1.4762 -3.4851
  131MOL0     H17671   0.917   3.823  10.463  1.1285 -1.1479 -0.8442
  131MOL0     H17672   1.075   3.862  10.638 -1.4678  0.9511 -0.6033
  131MOL0     H17673   0.946   3.788  11.037  0.7857  0.2042  1.4855
  131MOL0     H17674   1.082   3.892  11.036 -0.9095  0.4103 -0.7343
  131MOL0     H17675   1.131   3.592  11.072  2.5272 -0.1280  2.6394
  131MOL0     H17676   1.100   3.700  11.200 -5.4608 -0.9445 -1.7127
  131MOL0     H17677   1.307   3.789  10.991  0.1807  0.8032  0.4602
  131MOL0     H17678   1.356   3.665  11.104  1.9074  1.9955  2.0656
  131MOL0     H17679   1.266   3.945  11.173 -3.4099 -1.5225 -2.8837
  131MOL0     H17680   1.279   3.819  11.293 -2.9260  1.8590 -0.4756
  131MOL0     H17681   1.684   3.914  11.177 -0.2062 -0.3928  3.3540
  131MOL0     H17682   0.851   3.608  10.899  1.4684 -1.2896  0.2760
  131MOL0     H17683   0.549   3.575  10.684  0.9037  2.7634 -0.8114
  131MOL0     H17684   0.676   3.449  10.737 -0.3308  0.4579 -0.1418
  131MOL0     H17685   0.606   3.562  10.844  0.5440  1.3392  0.1277
  132MOL0     O17686   5.735   3.332   8.598 -0.2422  0.2113 -0.9640
  132MOL0     C17687   5.650   3.394   8.539  0.3773  0.7710 -1.1715
  132MOL0     O17688   5.521   3.361   8.544 -0.2208  0.0437 -0.1805
  132MOL0     C17689   5.483   3.239   8.593  0.0687 -0.0694  0.1588
  132MOL0     C17690   5.462   3.135   8.495 -0.0898  0.2574 -0.8239
  132MOL0     C17691   5.400   3.017   8.541  0.3079  0.8243 -0.6214
  132MOL0     C17692   5.374   2.991   8.676  0.7909  0.5093  0.1466
  132MOL0     O17693   5.326   2.868   8.706  0.2401  0.3843  0.0315
  132MOL0     C17694   5.244   2.858   8.822  0.5021 -0.1189  0.6343
  132MOL0     C17695   5.198   2.713   8.840  0.4820  0.0940  0.2232
  132MOL0     C17696   5.082   2.677   8.754 -0.2914  0.0023  0.4405
  132MOL0     C17697   5.010   2.543   8.785 -0.3458  0.0238  0.0043
  132MOL0     C17698   4.913   2.498   8.677  0.3792 -0.3546  0.2065
  132MOL0     C17699   4.828   2.376   8.710  0.7728 -0.3078  0.1517
  132MOL0     C17700   4.708   2.411   8.804 -0.5718 -0.0725  0.2748
  132MOL0     C17701   4.632   2.280   8.834  0.0480  0.0906 -0.4776
  132MOL0     N17702   4.716   2.187   8.906 -0.1667 -0.5051 -0.4466
  132MOL0     C17703   4.790   2.094   8.843 -0.5156  0.0844 -0.2730
  132MOL0     C17704   4.836   2.008   8.944 -0.6243  0.1370 -0.0443
  132MOL0     C17705   4.926   1.885   8.924  0.5175 -0.3180 -0.4481
  132MOL0     C17706   5.075   1.918   8.895  0.1155 -0.0008 -0.6546
  132MOL0     C17707   5.159   1.803   8.858 -0.7839 -0.2159  0.6249
  132MOL0     C17708   5.298   1.847   8.806 -0.1088  0.2426  0.5351
  132MOL0     O17709   5.373   1.737   8.757  0.2845  0.3088  0.1585
  132MOL0     C17710   5.493   1.766   8.708 -0.1995  0.6611 -1.3365
  132MOL0     C17711   5.548   1.894   8.684  0.0041  0.5680  0.0759
  132MOL0     C17712   5.675   1.907   8.629 -0.1503 -0.3836  0.1634
  132MOL0     C17713   5.759   1.791   8.628 -0.7146  0.2763  0.4549
  132MOL0     C17714   5.898   1.803   8.595 -0.6057 -0.5601 -0.3847
  132MOL0     O17715   5.991   1.714   8.645 -0.3827 -0.1904 -0.0466
  132MOL0     C17716   6.112   1.698   8.581 -0.9418  0.3324  1.0871
  132MOL0     C17717   6.227   1.652   8.654 -0.1426 -0.3080 -0.1683
  132MOL0     C17718   6.356   1.631   8.600 -0.4534  0.3036  1.6151
  132MOL0     C17719   6.373   1.650   8.461  0.1927 -0.7092  0.9172
  132MOL0     O17720   6.507   1.642   8.412  0.4812  0.1590  0.0491
  132MOL0     C17721   6.560   1.753   8.339 -0.1650 -0.3537 -0.0399
  132MOL0     C17722   6.705   1.726   8.333 -0.4329 -0.3806 -0.0171
  132MOL0     C17723   6.778   1.852   8.284 -0.2133  0.2738 -0.8029
  132MOL0     C17724   6.931   1.870   8.316 -0.4066  0.7716  0.6555
  132MOL0     C17725   7.008   1.986   8.240 -0.1254 -1.0354  0.1441
  132MOL0     C17726   7.161   1.992   8.277 -0.5651  0.5273 -0.2390
  132MOL0     C17727   7.237   2.107   8.198  0.4599  0.2761 -1.1292
  132MOL0     C17728   7.204   2.096   8.050 -0.3383 -0.5703  0.1297
  132MOL0    Cl17729   7.323   2.189   7.993 -0.1470 -0.6737 -0.1157
  132MOL0     C17730   6.265   1.684   8.387  0.4710  0.0432  0.7677
  132MOL0     C17731   6.140   1.715   8.440  0.8952  0.5859 -1.3773
  132MOL0     O17732   5.925   1.898   8.521  0.5502 -0.0108  0.0206
  132MOL0     C17733   5.710   1.663   8.659 -0.3119 -0.2323 -0.5675
  132MOL0     C17734   5.577   1.655   8.708 -0.4179 -0.0191  0.4232
  132MOL0     N17735   4.770   2.047   9.062 -0.0899 -0.3186 -0.2264
  132MOL0     N17736   4.707   2.159   9.039  0.1080  0.9297 -0.3002
  132MOL0     C17737   5.401   3.095   8.770 -0.4559 -0.7848  0.0275
  132MOL0     C17738   5.444   3.222   8.724 -0.4043 -0.4487  0.1876
  132MOL0     C17739   5.699   3.514   8.451  0.9108  0.9051 -0.1326
  132MOL0     C17740   5.830   3.567   8.464  0.6420 -0.3538 -0.7108
  132MOL0     C17741   5.883   3.663   8.383 -0.7712 -0.3514  0.0031
  132MOL0     C17742   5.807   3.707   8.279  0.2976  0.3725  0.4520
  132MOL0     O17743   5.855   3.802   8.192 -0.9976 -0.3423  0.0184
  132MOL0     C17744   5.981   3.867   8.216  0.5350 -0.1661  0.6328
  132MOL0     C17745   6.020   3.963   8.098  0.0463  0.2272  0.2917
  132MOL0     C17746   5.900   4.053   8.055 -0.4895  0.2852 -0.1947
  132MOL0     C17747   5.930   4.156   7.942 -0.0517  0.3429  0.2528
  132MOL0     C17748   6.034   4.256   7.980  0.2687  0.5261 -0.0625
  132MOL0     C17749   6.108   4.348   8.011 -0.1776 -0.3797 -0.1343
  132MOL0     C17750   5.674   3.673   8.264  0.4074  0.0311  0.0049
  132MOL0     C17751   5.618   3.580   8.351 -0.5067  0.0350 -0.4665
  132MOL0     C17752   5.467   3.552   8.323 -0.0478 -0.3934  0.4913
  132MOL0     H17753   5.506   3.133   8.396  1.5200 -2.8039 -0.2027
  132MOL0     H17754   5.367   2.938   8.474  2.2316  1.2598 -2.1778
  132MOL0     H17755   5.301   2.889   8.910  0.7177  0.3846  0.3173
  132MOL0     H17756   5.152   2.916   8.812 -2.0188 -3.7053  0.9708
  132MOL0     H17757   5.164   2.700   8.943  0.9157 -1.6537  0.1771
  132MOL0     H17758   5.279   2.641   8.826  0.0578 -0.9016  2.4676
  132MOL0     H17759   5.115   2.669   8.651 -2.2171 -0.9031 -0.1518
  132MOL0     H17760   5.009   2.759   8.750 -0.7867 -0.4891 -2.8279
  132MOL0     H17761   5.082   2.463   8.804 -1.4077 -0.7972  0.7554
  132MOL0     H17762   4.956   2.551   8.880 -0.0934  0.7840  0.0908
  132MOL0     H17763   4.853   2.581   8.639 -0.9652 -0.6543  1.5740
  132MOL0     H17764   4.963   2.444   8.596  0.9108 -1.2544  1.1052
  132MOL0     H17765   4.783   2.332   8.620 -0.4585  1.6281 -0.2599
  132MOL0     H17766   4.901   2.309   8.755  0.0284 -1.9453 -1.0004
  132MOL0     H17767   4.648   2.489   8.756 -0.0312  1.4162  1.9247
  132MOL0     H17768   4.746   2.445   8.901  0.1893 -2.1710  0.7752
  132MOL0     H17769   4.544   2.300   8.896  1.3727 -2.5930  2.5517
  132MOL0     H17770   4.604   2.240   8.736 -2.6239  2.0502 -0.6206
  132MOL0     H17771   4.825   2.102   8.740  2.1656 -0.6315  0.5297
  132MOL0     H17772   4.923   1.835   9.021  0.9372 -1.4294 -0.9902
  132MOL0     H17773   4.895   1.822   8.840 -1.6169 -0.0894  0.1183
  132MOL0     H17774   5.074   2.003   8.826  0.9957  0.8056  0.2850
  132MOL0     H17775   5.129   1.965   8.978  1.6703 -3.5507  0.5484
  132MOL0     H17776   5.117   1.748   8.774 -0.3984  2.5316 -1.5210
  132MOL0     H17777   5.186   1.737   8.941  2.9096  1.2726  0.8327
  132MOL0     H17778   5.351   1.921   8.867  0.4377  1.0216 -0.8332
  132MOL0     H17779   5.273   1.897   8.712 -0.2183  0.1538  0.5174
  132MOL0     H17780   5.487   1.985   8.687 -0.3369  0.4653 -1.8903
  132MOL0     H17781   5.705   2.008   8.604  3.0093 -0.8862  1.3625
  132MOL0     H17782   6.226   1.640   8.762 -1.2364  2.2988  0.1859
  132MOL0     H17783   6.451   1.610   8.647  1.0053  1.9467 -0.4070
  132MOL0     H17784   6.520   1.772   8.239  1.9901  2.4875 -0.4829
  132MOL0     H17785   6.537   1.834   8.409 -1.5258 -1.7517  1.2218
  132MOL0     H17786   6.732   1.689   8.432 -0.2414 -1.6755 -0.5278
  132MOL0     H17787   6.725   1.643   8.264  2.3171  0.5854 -0.5404
  132MOL0     H17788   6.758   1.849   8.177  0.2232 -2.1328 -0.8715
  132MOL0     H17789   6.724   1.937   8.326  1.7706  1.1100  0.1887
  132MOL0     H17790   6.981   1.774   8.300  1.7080  1.2527  3.6460
  132MOL0     H17791   6.941   1.871   8.425  1.0914  2.4808  0.5385
  132MOL0     H17792   6.972   2.088   8.258 -0.7375 -1.0799 -0.7586
  132MOL0     H17793   6.988   1.984   8.133  0.0329 -0.8133  0.1091
  132MOL0     H17794   7.169   2.013   8.384  1.0194  2.8045 -0.7266
  132MOL0     H17795   7.198   1.892   8.258  2.0563  1.5397 -0.8763
  132MOL0     H17796   7.341   2.090   8.228 -0.7764 -3.3746  1.8976
  132MOL0     H17797   7.198   2.199   8.243 -2.1037 -2.4782  3.0515
  132MOL0     H17798   7.214   1.991   8.020 -0.6331 -0.3392 -0.7844
  132MOL0     H17799   7.109   2.135   8.014  0.6432  1.6351 -0.2233
  132MOL0     H17800   6.287   1.687   8.281  0.1552 -0.7792  0.6743
  132MOL0     H17801   6.063   1.747   8.371 -1.2338  0.6972  0.9213
  132MOL0     H17802   5.775   1.576   8.651 -0.6810 -0.5547 -0.1339
  132MOL0     H17803   5.543   1.559   8.747  1.7566 -0.3285  1.7029
  132MOL0     H17804   5.369   3.094   8.873  1.5153 -0.4225  0.6888
  132MOL0     H17805   5.450   3.307   8.791 -0.0123  1.4956 -2.1919
  132MOL0     H17806   5.899   3.532   8.541  1.1720 -0.5582 -1.2634
  132MOL0     H17807   5.987   3.693   8.396 -1.2627  0.6712  1.8143
  132MOL0     H17808   6.068   3.800   8.221  1.8227  1.2614 -1.0991
  132MOL0     H17809   5.963   3.923   8.309 -1.0708  1.5647 -0.6387
  132MOL0     H17810   6.056   3.901   8.015 -1.2599  2.2319 -1.9139
  132MOL0     H17811   6.100   4.025   8.138  0.1006  0.8815 -0.7884
  132MOL0     H17812   5.879   4.102   8.150 -0.3679  2.4589 -1.2127
  132MOL0     H17813   5.820   3.983   8.026 -1.2298  0.2058  1.9116
  132MOL0     H17814   5.952   4.112   7.844 -1.5734  0.1568 -0.0316
  132MOL0     H17815   5.836   4.209   7.922  0.1233  0.4229 -0.3990
  132MOL0     H17816   6.182   4.425   8.024 -2.4612  1.6899  1.3645
  132MOL0     H17817   5.615   3.723   8.187 -0.6165 -0.8559  0.1861
  132MOL0     H17818   5.455   3.477   8.244 -0.7371 -0.3463  0.5401
  132MOL0     H17819   5.416   3.513   8.411  1.6682 -1.6075  0.9820
  132MOL0     H17820   5.409   3.640   8.292  0.3201 -1.3814 -3.6020
  133MOL0     O17821   0.020   1.980   6.711 -0.1582 -0.4771  0.6885
  133MOL0     C17822  -0.038   2.091   6.706 -1.0146  0.7168  0.0283
  133MOL0     O17823   0.029   2.210   6.688  0.1417  0.1806  0.3622
  133MOL0     C17824   0.162   2.213   6.675 -0.5148  0.1819  0.4188
  133MOL0     C17825   0.214   2.228   6.546 -0.7303  0.5660 -0.4903
  133MOL0     C17826   0.351   2.237   6.541  0.1357  0.6299 -0.4258
  133MOL0     C17827   0.433   2.217   6.653 -1.0106 -0.0019  0.5684
  133MOL0     O17828   0.558   2.214   6.628 -0.9512  0.5172  0.3579
  133MOL0     C17829   0.668   2.212   6.725  0.1133  0.5014  0.5510
  133MOL0     C17830   0.783   2.284   6.674 -0.3037 -0.1464 -0.5518
  133MOL0     C17831   0.893   2.284   6.781  0.7049  0.2674  0.4145
  133MOL0     C17832   0.997   2.399   6.775  0.0374  0.8671 -0.7464
  133MOL0     C17833   1.100   2.367   6.882  0.1677  0.2408  0.7728
  133MOL0     C17834   1.187   2.488   6.910 -0.3408 -0.4353  0.0435
  133MOL0     C17835   1.263   2.473   7.039 -0.2529 -1.2791 -0.0938
  133MOL0     C17836   1.329   2.599   7.090  0.1304  0.6296  0.3546
  133MOL0     N17837   1.431   2.658   7.012 -0.8823  0.3297 -0.5399
  133MOL0     C17838   1.406   2.727   6.901  0.7122  0.1525 -0.7102
  133MOL0     C17839   1.535   2.747   6.852  0.2537 -0.1616 -0.0909
  133MOL0     C17840   1.585   2.841   6.746  0.2165  1.0570  0.4139
  133MOL0     C17841   1.596   2.979   6.814  0.6886 -0.9951 -0.2655
  133MOL0     C17842   1.718   2.994   6.899  0.4679 -0.8296 -0.6460
  133MOL0     C17843   1.743   3.147   6.917  0.3172 -0.2221  0.2709
  133MOL0     O17844   1.787   3.203   6.792 -0.3384 -0.0631  0.7099
  133MOL0     C17845   1.912   3.208   6.741  0.2951  0.7719 -0.5789
  133MOL0     C17846   2.022   3.158   6.809  0.8403 -0.2098  0.1551
  133MOL0     C17847   2.155   3.149   6.748 -0.2392  0.1018 -0.2203
  133MOL0     C17848   2.174   3.182   6.617 -0.9102 -0.3399 -0.4933
  133MOL0     C17849   2.312   3.164   6.561 -0.8899 -0.5977 -0.1589
  133MOL0     O17850   2.400   3.090   6.631  0.4272  0.6605  0.1036
  133MOL0     C17851   2.505   3.027   6.574 -0.1611  0.6483 -0.1488
  133MOL0     C17852   2.618   3.105   6.555  0.7606  0.9630  0.1157
  133MOL0     C17853   2.731   3.056   6.487 -0.2972 -0.4133  0.2591
  133MOL0     C17854   2.735   2.928   6.439 -0.3394  0.0329 -0.1566
  133MOL0     O17855   2.854   2.887   6.396  0.4041  0.0404  0.0149
  133MOL0     C17856   2.892   2.750   6.366 -0.2047 -0.4585  0.1493
  133MOL0     C17857   2.967   2.689   6.485  0.0548  0.5465  0.2429
  133MOL0     C17858   3.035   2.567   6.425  0.7857 -0.7055  0.4648
  133MOL0     C17859   3.100   2.498   6.540  1.3208  0.0374  0.4852
  133MOL0     C17860   3.224   2.413   6.502  0.6315 -0.2800  0.1887
  133MOL0     C17861   3.269   2.323   6.616 -0.0302 -0.4919 -0.2561
  133MOL0     C17862   3.381   2.237   6.577  0.3072 -0.0831  1.0226
  133MOL0     C17863   3.473   2.175   6.688  0.3253  0.7254  1.2408
  133MOL0    Cl17864   3.605   2.090   6.612  0.4740 -0.0182 -0.1777
  133MOL0     C17865   2.628   2.847   6.467  0.4535 -0.1393 -0.2240
  133MOL0     C17866   2.510   2.893   6.534  0.6788  0.4811  0.2405
  133MOL0     O17867   2.330   3.206   6.448 -0.3216 -0.0720 -0.6815
  133MOL0     C17868   2.067   3.244   6.552 -0.2579 -0.4010  0.3196
  133MOL0     C17869   1.935   3.252   6.608 -0.4753 -0.1831  1.0936
  133MOL0     N17870   1.622   2.692   6.933  0.1300  0.3868 -0.6960
  133MOL0     N17871   1.560   2.625   7.028  0.0241 -0.0888  0.1383
  133MOL0     C17872   0.378   2.191   6.778  0.5897  0.0985 -0.5556
  133MOL0     C17873   0.240   2.180   6.789  0.4187 -0.2144  0.3867
  133MOL0     C17874  -0.182   2.084   6.722  0.0689  0.0747 -0.4077
  133MOL0     C17875  -0.244   1.981   6.645 -0.9399  0.2003 -0.1480
  133MOL0     C17876  -0.377   1.972   6.638  0.2133 -0.9051 -0.5300
  133MOL0     C17877  -0.456   2.055   6.722 -0.3013  0.2230  0.4392
  133MOL0     O17878  -0.590   2.052   6.726 -0.1643  0.6427  0.0125
  133MOL0     C17879  -0.661   1.979   6.625 -0.4066  0.4978  0.4614
  133MOL0     C17880  -0.806   2.021   6.634 -0.4772  0.0150  0.3893
  133MOL0     C17881  -0.840   2.169   6.602  0.2028 -0.5853  0.5452
  133MOL0     C17882  -0.796   2.205   6.468 -0.5776  0.1101  0.9279
  133MOL0     C17883  -0.884   2.143   6.372 -0.4481 -0.2334 -0.7122
  133MOL0     C17884  -0.969   2.083   6.305 -0.1322  0.4167  1.2106
  133MOL0     C17885  -0.398   2.155   6.802 -0.4769 -0.0244  0.3113
  133MOL0     C17886  -0.261   2.177   6.802 -1.0610 -0.1450 -0.2323
  133MOL0     C17887  -0.197   2.294   6.878  0.9103  1.0871  0.4517
  133MOL0     H17888   0.151   2.260   6.463 -0.7303  0.7983 -0.4024
  133MOL0     H17889   0.402   2.243   6.445 -1.1627  2.6802 -1.0432
  133MOL0     H17890   0.625   2.266   6.810  0.6070  2.1236 -0.1888
  133MOL0     H17891   0.690   2.111   6.759 -2.8549 -0.3632  0.2132
  133MOL0     H17892   0.764   2.389   6.648  0.1363  0.7887  2.5437
  133MOL0     H17893   0.824   2.232   6.588 -0.3490 -3.1351  1.1101
  133MOL0     H17894   0.950   2.193   6.762 -0.1172  0.2027 -2.1962
  133MOL0     H17895   0.855   2.284   6.884 -0.5057 -1.5440  0.0134
  133MOL0     H17896   1.056   2.402   6.683  1.2498  0.8137  0.0032
  133MOL0     H17897   0.951   2.497   6.791 -2.9511 -0.6058  0.2389
  133MOL0     H17898   1.054   2.340   6.977 -0.4462  0.1481  0.4584
  133MOL0     H17899   1.162   2.281   6.857 -0.9741 -0.5729  0.6522
  133MOL0     H17900   1.261   2.512   6.833 -0.7002  1.6088  0.2696
  133MOL0     H17901   1.113   2.566   6.932  1.0016  0.5605  1.2785
  133MOL0     H17902   1.349   2.406   7.034  1.4280  0.7951 -0.5338
  133MOL0     H17903   1.183   2.440   7.106 -1.5438 -1.2841 -1.5826
  133MOL0     H17904   1.250   2.675   7.088  0.2581  0.7534 -0.7246
  133MOL0     H17905   1.355   2.594   7.196 -0.1131 -0.1709  0.3805
  133MOL0     H17906   1.311   2.754   6.856  1.3402 -2.3286 -3.9063
  133MOL0     H17907   1.680   2.812   6.700  1.1104  0.2766  2.6330
  133MOL0     H17908   1.513   2.849   6.663 -2.2266 -0.5687  2.2259
  133MOL0     H17909   1.586   3.052   6.734 -5.1123 -0.1852  0.7952
  133MOL0     H17910   1.511   2.988   6.882 -0.9960 -0.5976 -2.3449
  133MOL0     H17911   1.807   2.944   6.860  2.1141 -1.0951  3.0836
  133MOL0     H17912   1.692   2.953   6.997  0.1467  1.4609  0.2904
  133MOL0     H17913   1.802   3.165   7.007 -0.0350 -0.9179  0.6507
  133MOL0     H17914   1.646   3.196   6.929 -0.2205 -0.8644 -1.1563
  133MOL0     H17915   2.009   3.126   6.912 -0.4242  1.0447  0.4223
  133MOL0     H17916   2.238   3.108   6.806 -1.3606 -1.5788  0.2801
  133MOL0     H17917   2.602   3.205   6.595  2.6499  0.9831  0.8893
  133MOL0     H17918   2.820   3.118   6.482  0.3676 -1.4289 -1.5846
  133MOL0     H17919   2.813   2.682   6.333  0.1489 -0.4373 -0.7653
  133MOL0     H17920   2.957   2.756   6.279 -2.0252  0.2080 -1.2433
  133MOL0     H17921   3.039   2.757   6.532  3.0417 -2.1434 -0.1656
  133MOL0     H17922   2.900   2.660   6.567 -0.6883  0.1816 -0.4711
  133MOL0     H17923   2.968   2.494   6.377  0.7788  0.6841 -1.8109
  133MOL0     H17924   3.118   2.598   6.360 -1.2155  1.3456 -1.3300
  133MOL0     H17925   3.024   2.428   6.576  1.4965 -0.4852 -0.1379
  133MOL0     H17926   3.128   2.576   6.611  0.6191 -0.8838  1.8288
  133MOL0     H17927   3.304   2.484   6.478  0.6224  0.0361  1.0463
  133MOL0     H17928   3.196   2.346   6.421  1.9170 -1.3086  0.5588
  133MOL0     H17929   3.301   2.388   6.698 -0.2919 -1.9746  1.0649
  133MOL0     H17930   3.182   2.265   6.648 -0.3797 -1.6461 -3.0552
  133MOL0     H17931   3.450   2.302   6.522  1.1988  0.0441  2.2642
  133MOL0     H17932   3.339   2.158   6.514 -3.5106  1.2721  1.6088
  133MOL0     H17933   3.511   2.251   6.758 -0.0351  0.1667  2.0535
  133MOL0     H17934   3.415   2.097   6.738 -1.4277  0.2944 -1.3206
  133MOL0     H17935   2.619   2.747   6.426  0.3803 -0.4104  0.4445
  133MOL0     H17936   2.424   2.826   6.541  0.5119  0.8495  2.1067
  133MOL0     H17937   2.081   3.273   6.448  1.3643  2.3628  1.2211
  133MOL0     H17938   1.863   3.280   6.532  1.4418 -0.1982 -0.8003
  133MOL0     H17939   0.432   2.171   6.870  1.8692 -1.9301 -1.6777
  133MOL0     H17940   0.198   2.175   6.889  0.1219 -1.1573  0.2298
  133MOL0     H17941  -0.186   1.917   6.579 -0.9474 -0.2695  0.2944
  133MOL0     H17942  -0.418   1.902   6.566  1.7414 -1.8044 -0.5643
  133MOL0     H17943  -0.656   1.875   6.656  3.4526  1.4275  3.8392
  133MOL0     H17944  -0.618   1.992   6.525  2.4145  1.1433  1.6646
  133MOL0     H17945  -0.839   2.009   6.738 -1.0898  0.8015  0.2901
  133MOL0     H17946  -0.862   1.954   6.568  1.6209 -3.3610  1.7418
  133MOL0     H17947  -0.791   2.234   6.674 -0.0205 -1.0163  1.0933
  133MOL0     H17948  -0.947   2.186   6.620  1.0509  3.0595  3.0682
  133MOL0     H17949  -0.792   2.313   6.452  1.1921 -0.3023 -2.3597
  133MOL0     H17950  -0.693   2.175   6.448 -1.7539 -2.6466 -1.9632
  133MOL0     H17951  -1.037   2.046   6.231 -1.3439  3.4039  0.6578
  133MOL0     H17952  -0.465   2.221   6.857  0.3208 -0.4795  1.9193
  133MOL0     H17953  -0.286   2.348   6.913 -0.3733 -1.9565  2.2793
  133MOL0     H17954  -0.154   2.252   6.970  4.5208  2.8391 -0.2291
  133MOL0     H17955  -0.124   2.349   6.817  0.3447 -1.3922 -2.6557
  134MOL0     O17956   6.657   8.665   7.452  0.5309  0.2851 -0.5447
  134MOL0     C17957   6.698   8.745   7.373 -0.5949 -0.2997  0.0831
  134MOL0     O17958   6.625   8.825   7.277 -0.1333  0.7393  0.7233
  134MOL0     C17959   6.488   8.860   7.292  0.0532  0.4058  0.0820
  134MOL0     C17960   6.412   8.871   7.414 -0.2234 -0.8304 -0.1504
  134MOL0     C17961   6.284   8.934   7.417 -0.0853 -0.3390 -0.3303
  134MOL0     C17962   6.225   8.984   7.298  0.1397  0.3338 -1.3508
  134MOL0     O17963   6.106   9.044   7.285  0.0587 -0.0645  0.1320
  134MOL0     C17964   6.021   9.026   7.402 -0.3584 -0.6290  0.4114
  134MOL0     C17965   5.877   9.075   7.370 -0.2336 -0.2743  0.0398
  134MOL0     C17966   5.849   9.220   7.368 -0.0827  0.2534  0.2506
  134MOL0     C17967   5.702   9.248   7.335 -0.3389 -0.2664 -0.4892
  134MOL0     C17968   5.679   9.395   7.342  0.5623 -0.3251  0.5202
  134MOL0     C17969   5.660   9.445   7.487  1.0067  0.4930  0.4348
  134MOL0     C17970   5.643   9.596   7.489 -0.1722  0.6762 -0.8292
  134MOL0     C17971   5.630   9.665   7.626 -0.2220 -0.1598  0.0113
  134MOL0     N17972   5.689   9.802   7.617  0.0909  0.2748 -0.6405
  134MOL0     C17973   5.616   9.917   7.603  0.1205  1.1287  0.1727
  134MOL0     C17974   5.709  10.016   7.629  0.8713  0.6435 -0.0873
  134MOL0     C17975   5.667  10.154   7.612  0.1896  0.0330 -0.2135
  134MOL0     C17976   5.694  10.203   7.472 -0.4470 -0.1763 -0.4653
  134MOL0     C17977   5.566  10.239   7.395 -0.5691  0.0657  0.2268
  134MOL0     C17978   5.588  10.289   7.254 -0.4511 -0.8836 -0.7419
  134MOL0     O17979   5.635  10.426   7.262 -0.0665 -0.2092 -0.6639
  134MOL0     C17980   5.770  10.441   7.245 -1.1477  0.0379  0.7144
  134MOL0     C17981   5.840  10.386   7.139  0.7365  0.8176  0.1332
  134MOL0     C17982   5.976  10.399   7.131  0.7523 -0.7874  0.2082
  134MOL0     C17983   6.056  10.475   7.217 -0.0521  0.2363  0.2616
  134MOL0     C17984   6.204  10.487   7.216 -0.2282  0.3336 -0.7499
  134MOL0     O17985   6.267  10.564   7.314 -1.2197  0.3500  0.3412
  134MOL0     C17986   6.399  10.537   7.333  0.0541 -0.1644  0.0462
  134MOL0     C17987   6.476  10.643   7.379  0.2503  0.1676 -0.0871
  134MOL0     C17988   6.610  10.642   7.411 -0.0252 -0.3698 -0.8283
  134MOL0     C17989   6.677  10.523   7.390  0.3071 -0.4055 -0.5945
  134MOL0     O17990   6.811  10.515   7.389 -0.4300  0.4041 -1.0368
  134MOL0     C17991   6.878  10.494   7.260  0.2610  0.2606  0.5600
  134MOL0     C17992   7.026  10.522   7.273  0.4760 -0.0962 -0.2936
  134MOL0     C17993   7.101  10.420   7.356  0.6659  0.2653  0.1420
  134MOL0     C17994   7.249  10.459   7.368 -0.0386  0.0996 -0.0656
  134MOL0     C17995   7.330  10.353   7.445  0.5422 -0.2952 -0.0117
  134MOL0     C17996   7.312  10.350   7.594  0.9221 -0.2795  0.3224
  134MOL0     C17997   7.399  10.233   7.659 -0.0586  0.2454  0.1938
  134MOL0     C17998   7.542  10.265   7.692 -0.3032  0.0414  0.4752
  134MOL0    Cl17999   7.620  10.128   7.767 -0.5675  0.1123 -0.7439
  134MOL0     C18000   6.603  10.404   7.362 -0.8253 -0.2324  1.0753
  134MOL0     C18001   6.462  10.416   7.344 -0.5927  0.6276  0.3909
  134MOL0     O18002   6.251  10.411   7.133 -0.0898 -0.4048  0.6189
  134MOL0     C18003   5.988  10.537   7.319 -0.3063 -0.2397  0.2614
  134MOL0     C18004   5.852  10.520   7.332 -0.1085  0.4998 -0.4810
  134MOL0     N18005   5.835   9.963   7.648 -0.4179  0.5387 -0.0754
  134MOL0     N18006   5.824   9.834   7.632 -0.2419 -0.5383 -0.3170
  134MOL0     C18007   6.308   8.975   7.182  0.3928 -0.5980  0.4039
  134MOL0     C18008   6.433   8.920   7.190 -0.1902  0.0245 -0.0642
  134MOL0     C18009   6.848   8.756   7.352  0.3553  1.8574  0.5867
  134MOL0     C18010   6.937   8.760   7.459 -0.1332  0.2065  0.1655
  134MOL0     C18011   7.077   8.764   7.432  0.1646 -0.5319  0.0461
  134MOL0     C18012   7.128   8.763   7.302 -0.2974  0.6680  0.5972
  134MOL0     O18013   7.258   8.793   7.286 -0.6377 -0.1594  0.6785
  134MOL0     C18014   7.293   8.844   7.161 -0.2946 -0.2669 -0.2068
  134MOL0     C18015   7.438   8.903   7.172 -0.7227  0.2411 -0.7835
  134MOL0     C18016   7.478   8.961   7.038  0.4977  0.7919  1.0618
  134MOL0     C18017   7.622   9.007   7.038  0.6913  0.1650  0.0116
  134MOL0     C18018   7.670   9.034   6.906 -0.8010  0.8755  0.6730
  134MOL0     C18019   7.705   9.050   6.794  0.1390 -0.0664  0.9697
  134MOL0     C18020   7.029   8.749   7.190  0.1548  0.1725  0.7423
  134MOL0     C18021   6.897   8.745   7.219 -0.3254  0.0313  0.2861
  134MOL0     C18022   6.804   8.710   7.103 -0.1025 -0.1912 -0.3291
  134MOL0     H18023   6.448   8.840   7.512  2.3739 -0.5827 -0.9499
  134MOL0     H18024   6.236   8.945   7.514 -1.4384 -2.2830 -0.7034
  134MOL0     H18025   6.017   8.926   7.448 -0.4033 -0.5897  0.4954
  134MOL0     H18026   6.079   9.082   7.475  0.5173  0.7407 -1.2744
  134MOL0     H18027   5.806   9.026   7.437 -0.5996 -0.8949 -0.7822
  134MOL0     H18028   5.847   9.036   7.272 -0.8429  0.5140 -0.0976
  134MOL0     H18029   5.920   9.281   7.311  0.9151  1.4962  2.6295
  134MOL0     H18030   5.866   9.253   7.472  0.9617 -0.4200  0.3054
  134MOL0     H18031   5.678   9.227   7.231 -0.4059 -0.4370 -0.4384
  134MOL0     H18032   5.626   9.194   7.392 -0.4983  1.2370  0.7924
  134MOL0     H18033   5.767   9.438   7.293 -0.7070  3.1024  0.9899
  134MOL0     H18034   5.589   9.432   7.291  0.2964  1.1028  1.9375
  134MOL0     H18035   5.573   9.396   7.530  0.8771 -0.5662 -0.9757
  134MOL0     H18036   5.746   9.415   7.549  0.2117 -0.3379  1.1531
  134MOL0     H18037   5.557   9.625   7.427 -0.7791 -1.4279 -1.0306
  134MOL0     H18038   5.736   9.623   7.437  0.0047 -0.1476 -0.9513
  134MOL0     H18039   5.527   9.675   7.663 -0.5652  3.0636 -1.4572
  134MOL0     H18040   5.694   9.614   7.698  0.9769  0.1912 -0.7878
  134MOL0     H18041   5.509   9.920   7.585  0.1767 -1.5328 -1.0365
  134MOL0     H18042   5.561  10.143   7.635 -0.2203  0.1122 -1.9287
  134MOL0     H18043   5.710  10.221   7.687  2.5406 -2.2108  0.5784
  134MOL0     H18044   5.757  10.289   7.498 -0.0539 -0.3417 -0.8598
  134MOL0     H18045   5.753  10.137   7.408  1.5105 -0.4801  1.5473
  134MOL0     H18046   5.521  10.315   7.459  1.8585  2.0415 -0.2837
  134MOL0     H18047   5.495  10.156   7.381 -1.5770  1.2331 -2.3773
  134MOL0     H18048   5.490  10.286   7.206 -1.0370  0.9979  0.2233
  134MOL0     H18049   5.663  10.225   7.207  1.2870 -0.0073  0.6903
  134MOL0     H18050   5.787  10.326   7.065 -0.1907 -1.5855  2.5852
  134MOL0     H18051   6.025  10.343   7.053 -1.4126 -1.6048 -0.6614
  134MOL0     H18052   6.414  10.732   7.388 -2.1263 -0.8459 -3.7090
  134MOL0     H18053   6.659  10.733   7.446  0.0080 -1.7019  3.1000
  134MOL0     H18054   6.858  10.396   7.216  1.4033  0.1152  0.3404
  134MOL0     H18055   6.840  10.571   7.193  0.1599 -0.6682 -0.4841
  134MOL0     H18056   7.063  10.515   7.170  1.1545  0.2902 -0.0824
  134MOL0     H18057   7.035  10.624   7.311 -1.5972 -0.0970  0.2991
  134MOL0     H18058   7.060  10.419   7.457  0.1246  2.4719 -0.0148
  134MOL0     H18059   7.093  10.318   7.318 -0.0018  1.5032 -3.4835
  134MOL0     H18060   7.267  10.552   7.421  1.3599  0.9203 -1.8631
  134MOL0     H18061   7.305  10.450   7.274  3.5776 -1.8694  2.0356
  134MOL0     H18062   7.434  10.381   7.425  0.1359  0.6946 -0.8447
  134MOL0     H18063   7.304  10.255   7.404 -0.5773 -0.8468  1.9075
  134MOL0     H18064   7.341  10.447   7.633  0.6816 -0.2429  0.4107
  134MOL0     H18065   7.203  10.337   7.605  0.6972 -0.3007 -1.5158
  134MOL0     H18066   7.397  10.147   7.592  2.3888  2.2777 -2.7984
  134MOL0     H18067   7.357  10.210   7.757 -0.1245  2.3205  0.7011
  134MOL0     H18068   7.601  10.282   7.601  0.3868 -0.9630  0.7147
  134MOL0     H18069   7.552  10.358   7.749  0.4350  1.3057 -1.5853
  134MOL0     H18070   6.649  10.306   7.358  2.1974  1.0932  0.0782
  134MOL0     H18071   6.410  10.326   7.314  0.6910 -0.1438  0.3850
  134MOL0     H18072   6.040  10.595   7.393 -2.4960 -0.2027  1.8623
  134MOL0     H18073   5.806  10.553   7.424 -2.5454 -1.1330 -1.0041
  134MOL0     H18074   6.267   9.032   7.099 -2.8501  1.3986  3.1028
  134MOL0     H18075   6.470   8.925   7.088 -1.3405  0.9198 -0.4641
  134MOL0     H18076   6.893   8.739   7.556  0.0432 -3.7218 -0.4501
  134MOL0     H18077   7.150   8.771   7.512  0.4286  0.0808 -0.2422
  134MOL0     H18078   7.222   8.923   7.137 -0.5260 -0.9584 -1.8880
  134MOL0     H18079   7.283   8.761   7.090 -0.3412  0.4741 -1.0772
  134MOL0     H18080   7.515   8.831   7.201  0.0096  1.5251  0.5933
  134MOL0     H18081   7.438   8.980   7.249  0.7795  1.4910 -1.9775
  134MOL0     H18082   7.420   9.047   7.003  0.5207  0.1537 -0.6670
  134MOL0     H18083   7.473   8.877   6.968  1.8436 -0.8598  2.8336
  134MOL0     H18084   7.641   9.095   7.101  1.0499 -1.1627  1.8463
  134MOL0     H18085   7.685   8.927   7.079 -2.6833 -2.9439 -0.3687
  134MOL0     H18086   7.737   9.087   6.699 -2.0223  0.5898  0.4431
  134MOL0     H18087   7.068   8.734   7.090  0.2184 -4.3634  1.2428
  134MOL0     H18088   6.784   8.791   7.033  2.6337 -1.7782 -3.2069
  134MOL0     H18089   6.861   8.646   7.035  3.0716  2.8824 -0.8647
  134MOL0     H18090   6.712   8.653   7.120 -0.4162  0.5915  0.6784
  135MOL0     O18091   0.552  11.100   6.356  0.5113 -0.2426 -0.1780
  135MOL0     C18092   0.564  11.023   6.259  0.3586  0.1189 -0.0399
  135MOL0     O18093   0.673  10.948   6.226  0.1215  0.5122  0.1204
  135MOL0     C18094   0.794  10.954   6.302  0.3828  0.1965  0.0520
  135MOL0     C18095   0.799  10.948   6.446 -0.5197 -0.5138 -0.1572
  135MOL0     C18096   0.922  10.966   6.510  0.0110  2.0163  0.4832
  135MOL0     C18097   1.041  10.980   6.431  0.2897  0.6331 -1.0426
  135MOL0     O18098   1.168  10.985   6.477  0.4918 -1.3997  0.4530
  135MOL0     C18099   1.192  10.930   6.605  0.0501  0.8707 -0.1567
  135MOL0     C18100   1.340  10.874   6.600  0.5071 -0.2988  0.1563
  135MOL0     C18101   1.455  10.976   6.566 -0.4676  0.8703  0.4716
  135MOL0     C18102   1.585  10.908   6.529 -0.3055 -0.0465 -0.6705
  135MOL0     C18103   1.706  11.012   6.518  0.7633 -0.6981  1.3656
  135MOL0     C18104   1.813  10.964   6.419 -0.0451  0.1225  0.3036
  135MOL0     C18105   1.775  10.961   6.275 -0.5487  0.4915  0.0748
  135MOL0     C18106   1.879  10.900   6.176  0.1173 -0.2628 -0.1276
  135MOL0     N18107   2.010  10.973   6.194  0.2552 -0.1896 -0.1475
  135MOL0     C18108   2.117  10.929   6.269  0.1860 -0.8365 -0.0376
  135MOL0     C18109   2.212  11.022   6.241 -0.2888  0.5720 -0.8781
  135MOL0     C18110   2.339  11.042   6.329 -0.2499 -0.2353  0.9808
  135MOL0     C18111   2.297  11.051   6.474 -0.2625 -0.3736  0.1141
  135MOL0     C18112   2.409  11.079   6.573  0.7955 -0.3289 -0.3033
  135MOL0     C18113   2.514  10.967   6.587  1.1498 -0.0640  0.0698
  135MOL0     O18114   2.602  10.968   6.473 -0.0506  0.7239 -0.6229
  135MOL0     C18115   2.726  11.008   6.504  0.6577 -0.0947  0.5324
  135MOL0     C18116   2.825  10.918   6.522  0.0666 -0.5641  0.0037
  135MOL0     C18117   2.954  10.955   6.553 -0.4392 -0.2200  0.2547
  135MOL0     C18118   2.988  11.092   6.568 -0.2581 -0.0671 -0.1401
  135MOL0     C18119   3.122  11.142   6.616  0.0747 -0.1742  1.0645
  135MOL0     O18120   3.217  11.044   6.635 -0.2694  0.1908 -0.4955
  135MOL0     C18121   3.347  11.073   6.666 -0.1483  0.2227  0.8306
  135MOL0     C18122   3.412  10.993   6.765  0.2164  1.4361 -0.8623
  135MOL0     C18123   3.544  11.013   6.791  0.6146  0.3609 -0.7177
  135MOL0     C18124   3.615  11.125   6.738 -0.7031  0.1068  0.1635
  135MOL0     O18125   3.733  11.174   6.790  0.1339  1.0948  1.0214
  135MOL0     C18126   3.790  11.102   6.905  0.4063  0.0297  0.0297
  135MOL0     C18127   3.898  11.195   6.952  0.0688  0.1882 -0.3839
  135MOL0     C18128   4.005  11.104   7.014 -0.5328 -0.1092 -0.8120
  135MOL0     C18129   4.133  11.177   7.024 -0.4462  0.3736 -0.5182
  135MOL0     C18130   4.249  11.103   7.095 -0.2987 -0.2446  0.9175
  135MOL0     C18131   4.359  11.197   7.127 -0.0985  0.8636 -0.3132
  135MOL0     C18132   4.487  11.131   7.188  1.2541 -0.0588  0.1027
  135MOL0     C18133   4.526  11.202   7.313  0.0467  0.8730 -0.8899
  135MOL0    Cl18134   4.659  11.095   7.377 -0.3112 -0.5717  0.4320
  135MOL0     C18135   3.551  11.209   6.646 -0.0853  0.5544 -0.7559
  135MOL0     C18136   3.420  11.186   6.606 -0.0260  0.4241 -0.3186
  135MOL0     O18137   3.146  11.267   6.627 -0.2501  0.6424 -0.0878
  135MOL0     C18138   2.892  11.185   6.528  0.7445  0.3326  0.0135
  135MOL0     C18139   2.754  11.148   6.495  0.6092  0.3896  0.7531
  135MOL0     N18140   2.160  11.112   6.152  0.5574 -0.2711 -0.1211
  135MOL0     N18141   2.037  11.082   6.129 -0.0922 -0.4418 -0.1199
  135MOL0     C18142   1.033  10.982   6.296 -0.3225  0.1406  0.3401
  135MOL0     C18143   0.911  10.974   6.231  0.1360  0.1658  0.5666
  135MOL0     C18144   0.447  11.000   6.178  0.4241  0.4250  0.0963
  135MOL0     C18145   0.399  11.105   6.099 -0.6138  0.7726 -0.8815
  135MOL0     C18146   0.283  11.087   6.031  0.9042  0.0125 -0.5302
  135MOL0     C18147   0.218  10.962   6.037  0.6104  0.3772  0.9515
  135MOL0     O18148   0.107  10.923   5.959  0.0616  0.4555  0.2910
  135MOL0     C18149   0.036  11.038   5.908  0.6474 -0.0508 -0.2320
  135MOL0     C18150  -0.112  10.998   5.876 -0.2357 -0.4414 -0.3447
  135MOL0     C18151  -0.176  10.914   5.992 -0.9081  0.3481 -0.1274
  135MOL0     C18152  -0.329  10.876   5.982 -0.7956  0.3408  0.2274
  135MOL0     C18153  -0.360  10.793   5.866 -0.0784  0.8640  1.0886
  135MOL0     C18154  -0.390  10.719   5.772  0.6645 -0.3432 -0.1604
  135MOL0     C18155   0.274  10.858   6.111 -0.3538  0.5669  0.4140
  135MOL0     C18156   0.382  10.875   6.185 -0.0784 -0.2535 -0.3914
  135MOL0     C18157   0.448  10.757   6.266  0.0586 -0.7812 -0.3399
  135MOL0     H18158   0.707  10.924   6.498  1.3211 -2.9996  2.2688
  135MOL0     H18159   0.929  10.955   6.618 -2.9069 -0.7681  0.5426
  135MOL0     H18160   1.178  11.005   6.683  2.1783  1.6939 -0.4906
  135MOL0     H18161   1.136  10.842   6.637 -0.1235  1.5793  1.5940
  135MOL0     H18162   1.351  10.787   6.535 -0.5359 -1.7418  1.8223
  135MOL0     H18163   1.356  10.840   6.702 -0.0558  1.6682  0.9518
  135MOL0     H18164   1.473  11.045   6.649 -3.3458  1.8359  0.3862
  135MOL0     H18165   1.421  11.043   6.487 -0.0343  0.8761  0.2860
  135MOL0     H18166   1.615  10.833   6.603 -2.2393 -1.1991 -0.9805
  135MOL0     H18167   1.574  10.841   6.443 -2.2687 -0.6290 -0.0324
  135MOL0     H18168   1.675  11.114   6.495  0.9704 -0.9431 -0.0901
  135MOL0     H18169   1.740  11.007   6.622  0.7540  1.4627  1.5010
  135MOL0     H18170   1.907  11.021   6.422 -0.7305  1.3229 -0.5130
  135MOL0     H18171   1.841  10.868   6.463  0.5465 -0.8376 -2.0200
  135MOL0     H18172   1.763  11.068   6.256 -0.9612  1.1547  3.3980
  135MOL0     H18173   1.684  10.902   6.265 -0.8322  0.7474  1.0508
  135MOL0     H18174   1.892  10.796   6.205  1.2765  0.2849  1.4549
  135MOL0     H18175   1.842  10.921   6.075  0.9413 -1.8467 -0.7934
  135MOL0     H18176   2.113  10.843   6.336 -2.0613 -1.6378 -1.0894
  135MOL0     H18177   2.406  10.961   6.298 -2.9488 -1.9259 -0.7756
  135MOL0     H18178   2.394  11.133   6.302 -3.2528  2.5272  3.4375
  135MOL0     H18179   2.230  11.136   6.487 -3.9878 -2.8801 -1.2191
  135MOL0     H18180   2.252  10.955   6.501  3.1689 -2.0144  0.5494
  135MOL0     H18181   2.351  11.083   6.666  1.0094 -0.1691 -0.1749
  135MOL0     H18182   2.453  11.176   6.549 -0.3524  0.4933  0.7607
  135MOL0     H18183   2.476  10.865   6.601  0.8567  0.2251  1.5482
  135MOL0     H18184   2.554  10.987   6.687  0.6831  2.4371 -0.1941
  135MOL0     H18185   2.805  10.812   6.505 -0.6289 -0.1894 -1.7155
  135MOL0     H18186   3.034  10.882   6.554  1.9196  2.0851 -2.6168
  135MOL0     H18187   3.367  10.911   6.818 -0.1462  1.5007 -1.0670
  135MOL0     H18188   3.587  10.952   6.870  1.6280  0.8562 -0.8712
  135MOL0     H18189   3.722  11.076   6.987  0.3993  0.2896  0.1097
  135MOL0     H18190   3.824  11.007   6.863  3.6702  1.5777 -1.1656
  135MOL0     H18191   3.933  11.259   6.871 -0.9391 -0.4688 -1.3639
  135MOL0     H18192   3.853  11.262   7.026 -2.0119 -2.8878  1.3914
  135MOL0     H18193   3.959  11.077   7.109 -0.9767  1.2534 -0.6183
  135MOL0     H18194   4.018  11.016   6.951 -0.8732 -0.2709 -0.6599
  135MOL0     H18195   4.108  11.269   7.077 -2.8754 -0.0876 -0.7600
  135MOL0     H18196   4.171  11.202   6.925 -0.0079 -3.1281 -1.3704
  135MOL0     H18197   4.295  11.033   7.025 -0.2124  0.2430  0.4788
  135MOL0     H18198   4.214  11.045   7.181 -1.7282 -0.6793  0.0681
  135MOL0     H18199   4.383  11.251   7.035 -1.6270 -2.6514 -2.9662
  135MOL0     H18200   4.308  11.269   7.192 -2.1806  0.4728 -1.4434
  135MOL0     H18201   4.572  11.131   7.118  0.1441 -0.1897 -1.2927
  135MOL0     H18202   4.472  11.024   7.204 -2.0408 -0.4036 -3.7213
  135MOL0     H18203   4.558  11.306   7.305  2.7402  0.1033 -1.1723
  135MOL0     H18204   4.444  11.195   7.385  1.7322 -0.4678  1.0508
  135MOL0     H18205   3.602  11.295   6.602 -3.7671  2.3939 -1.8138
  135MOL0     H18206   3.371  11.252   6.535 -2.0246 -2.4629 -1.7772
  135MOL0     H18207   2.917  11.289   6.510  1.0480  0.2721  0.0802
  135MOL0     H18208   2.679  11.225   6.481 -1.1141 -1.1607  1.0280
  135MOL0     H18209   1.119  10.995   6.232 -1.2242  0.1054 -0.9357
  135MOL0     H18210   0.904  10.971   6.122 -0.4925  1.6131  0.5409
  135MOL0     H18211   0.456  11.197   6.095  1.2576 -0.3489 -1.1890
  135MOL0     H18212   0.257  11.158   5.952  1.0042  0.8581  0.1836
  135MOL0     H18213   0.091  11.088   5.828  3.5556 -2.6916 -0.0398
  135MOL0     H18214   0.024  11.107   5.992 -1.2930 -1.9573  1.1997
  135MOL0     H18215  -0.122  10.936   5.787 -1.7680 -0.9208  0.1345
  135MOL0     H18216  -0.175  11.085   5.855  1.0232  0.5971  0.0719
  135MOL0     H18217  -0.179  10.967   6.087 -1.4708 -1.9551  1.2081
  135MOL0     H18218  -0.120  10.823   6.016 -0.3051  1.2047  1.9232
  135MOL0     H18219  -0.339  10.818   6.074  1.4774  2.4803  1.9565
  135MOL0     H18220  -0.380  10.972   5.975 -2.7416 -0.7620 -1.8144
  135MOL0     H18221  -0.423  10.676   5.680  1.2368  1.8415 -1.4789
  135MOL0     H18222   0.222  10.764   6.098 -3.4207  2.4763 -3.0742
  135MOL0     H18223   0.512  10.712   6.190 -2.8200 -3.9638 -1.1356
  135MOL0     H18224   0.513  10.791   6.346  0.4080 -1.6781 -0.2262
  135MOL0     H18225   0.381  10.684   6.312  0.4998 -1.2003 -0.3519
  136MOL0     O18226   3.822   0.958   6.665  0.3018  0.6427  0.7124
  136MOL0     C18227   3.781   1.076   6.669  0.3333 -0.1604 -0.5323
  136MOL0     O18228   3.852   1.183   6.677 -0.2961  0.1204 -0.3999
  136MOL0     C18229   3.991   1.171   6.673 -0.7202 -0.5792  0.1698
  136MOL0     C18230   4.059   1.134   6.554  0.6614 -0.4246  1.1683
  136MOL0     C18231   4.195   1.143   6.549 -1.0308  0.1869 -0.1608
  136MOL0     C18232   4.273   1.172   6.665  0.9215 -0.0977  0.2909
  136MOL0     O18233   4.412   1.171   6.652  0.5205  0.9009 -1.1613
  136MOL0     C18234   4.482   1.057   6.591  1.1485 -0.4567 -0.2487
  136MOL0     C18235   4.626   1.102   6.584  1.0430  0.3130  0.1491
  136MOL0     C18236   4.720   0.986   6.540 -0.9778 -0.7279  0.5894
  136MOL0     C18237   4.796   0.908   6.645  0.0560  0.0414 -0.1194
  136MOL0     C18238   4.910   0.835   6.573 -0.3873  0.8737  0.5290
  136MOL0     C18239   4.987   0.747   6.675  0.5760 -0.2526 -0.8021
  136MOL0     C18240   5.117   0.670   6.629  0.0373 -0.5576  0.0480
  136MOL0     C18241   5.096   0.595   6.490  0.2073 -0.0999  0.6763
  136MOL0     N18242   5.216   0.508   6.477  0.5506 -0.2850 -0.9663
  136MOL0     C18243   5.211   0.373   6.429 -0.0300 -0.4636  0.0531
  136MOL0     C18244   5.340   0.332   6.430  0.3592  0.6688 -0.3492
  136MOL0     C18245   5.385   0.191   6.423  0.0945  0.8228  0.1233
  136MOL0     C18246   5.367   0.134   6.278 -0.6619  0.0228 -0.4084
  136MOL0     C18247   5.393  -0.027   6.278 -0.4061  0.3829 -0.1122
  136MOL0     C18248   5.533  -0.083   6.277 -0.3554  0.3004 -0.2991
  136MOL0     O18249   5.599  -0.026   6.163 -0.0767 -0.8954 -0.2801
  136MOL0     C18250   5.736  -0.037   6.159  0.2155 -0.1447 -0.4172
  136MOL0     C18251   5.801   0.059   6.079 -0.3233  0.7876  0.7593
  136MOL0     C18252   5.939   0.067   6.067 -0.1464 -0.0160 -0.6643
  136MOL0     C18253   6.021  -0.030   6.122  1.0067  0.0821  0.3383
  136MOL0     C18254   6.170  -0.029   6.114  1.4380  0.4145  0.1651
  136MOL0     O18255   6.235  -0.122   6.190 -0.0072  0.1291 -0.2591
  136MOL0     C18256   6.371  -0.124   6.190  0.2277 -0.5991 -0.3047
  136MOL0     C18257   6.429  -0.063   6.302 -0.5943  0.5868  0.2130
  136MOL0     C18258   6.569  -0.072   6.314 -1.1468 -0.0030  1.0428
  136MOL0     C18259   6.647  -0.143   6.219  0.3555  0.6401 -0.6679
  136MOL0     O18260   6.774  -0.171   6.236 -0.1602 -0.4305 -0.1721
  136MOL0     C18261   6.863  -0.060   6.216 -0.3971 -0.4303 -1.0786
  136MOL0     C18262   6.923  -0.041   6.079  0.8997 -0.2806  0.0538
  136MOL0     C18263   7.024  -0.158   6.056  0.2751 -0.5220 -0.5046
  136MOL0     C18264   7.082  -0.140   5.918 -0.4783 -0.1861 -1.1029
  136MOL0     C18265   7.219  -0.211   5.912  0.2494 -0.4578  0.0507
  136MOL0     C18266   7.259  -0.205   5.769  0.6273 -0.5901  0.6692
  136MOL0     C18267   7.397  -0.261   5.737  0.7299 -0.2009 -0.2002
  136MOL0     C18268   7.422  -0.396   5.809  0.3342  0.7706  0.9185
  136MOL0    Cl18269   7.295  -0.506   5.750  0.4499 -0.0452  0.3492
  136MOL0     C18270   6.582  -0.209   6.111  0.1660 -0.6838  0.1493
  136MOL0     C18271   6.446  -0.195   6.091  0.3316 -0.3485 -0.3389
  136MOL0     O18272   6.223   0.061   6.046 -0.8814 -0.3710  0.7912
  136MOL0     C18273   5.958  -0.125   6.200 -0.4552  0.5241 -1.3524
  136MOL0     C18274   5.814  -0.135   6.217 -0.2599 -1.2376 -0.7161
  136MOL0     N18275   5.414   0.444   6.451 -0.5316 -0.3637 -0.4779
  136MOL0     N18276   5.341   0.550   6.467  0.5887 -0.4931 -0.2318
  136MOL0     C18277   4.207   1.210   6.779 -0.7765  0.8355 -0.4589
  136MOL0     C18278   4.063   1.209   6.788  0.0234 -0.2248 -0.6226
  136MOL0     C18279   3.628   1.092   6.658  0.2839  0.6072  1.1165
  136MOL0     C18280   3.580   1.208   6.596  0.1266 -0.1066  0.4930
  136MOL0     C18281   3.443   1.225   6.569  0.2802 -0.3371  0.4716
  136MOL0     C18282   3.348   1.132   6.614 -0.4047  0.0727  0.0376
  136MOL0     O18283   3.215   1.124   6.597  0.0051 -0.2886 -0.9261
  136MOL0     C18284   3.156   1.248   6.561 -0.1289  0.0681 -1.0651
  136MOL0     C18285   3.001   1.234   6.546  0.1418 -0.3882  1.1268
  136MOL0     C18286   2.968   1.166   6.407  0.7650 -0.2954 -0.0994
  136MOL0     C18287   2.821   1.130   6.379  0.0415  0.2212 -0.6450
  136MOL0     C18288   2.762   1.045   6.489 -0.8202 -0.1167  0.6806
  136MOL0     C18289   2.711   0.984   6.575  0.0232 -0.0615  0.0177
  136MOL0     C18290   3.397   1.031   6.689  0.1104  0.6930  0.4465
  136MOL0     C18291   3.531   1.004   6.711  0.3931  0.2398 -0.4256
  136MOL0     C18292   3.581   0.880   6.786 -0.3463 -0.0495 -0.0297
  136MOL0     H18293   4.019   1.121   6.454 -0.3486 -1.6755  1.6957
  136MOL0     H18294   4.259   1.153   6.462  0.4114  2.7656  1.0447
  136MOL0     H18295   4.469   0.973   6.660  0.7651 -0.0871  0.1364
  136MOL0     H18296   4.442   1.042   6.491 -2.1424  1.1219  0.6747
  136MOL0     H18297   4.670   1.139   6.676  1.5586 -0.9898  0.4527
  136MOL0     H18298   4.631   1.173   6.501  0.9792  0.5293  0.3287
  136MOL0     H18299   4.797   1.038   6.482 -2.6212  2.9114  1.4134
  136MOL0     H18300   4.663   0.916   6.478  1.5912 -4.1118  1.7721
  136MOL0     H18301   4.828   0.981   6.720 -2.1255  1.4517 -0.4635
  136MOL0     H18302   4.724   0.836   6.684  1.2211 -0.6427  0.8456
  136MOL0     H18303   4.874   0.759   6.504  0.1048  1.1025  0.0126
  136MOL0     H18304   4.972   0.911   6.523 -3.2230  3.2760  0.3521
  136MOL0     H18305   5.022   0.803   6.763 -1.5335 -0.3896  0.1941
  136MOL0     H18306   4.915   0.676   6.716 -0.4081  0.9364 -0.4041
  136MOL0     H18307   5.174   0.608   6.699  2.4630 -0.9827 -2.1537
  136MOL0     H18308   5.191   0.748   6.610 -0.8954  0.5380  0.7699
  136MOL0     H18309   5.009   0.529   6.491  0.0257  0.0595 -1.1545
  136MOL0     H18310   5.094   0.675   6.415  3.4285  0.3000  0.8467
  136MOL0     H18311   5.134   0.296   6.420 -0.8794  0.4948 -1.2663
  136MOL0     H18312   5.490   0.187   6.455 -0.5959 -0.7638  2.4382
  136MOL0     H18313   5.334   0.128   6.496  1.0161  0.8838  0.8395
  136MOL0     H18314   5.265   0.147   6.240 -0.7173 -1.9273 -1.0225
  136MOL0     H18315   5.432   0.180   6.203 -1.2166  1.8847  0.1846
  136MOL0     H18316   5.335  -0.064   6.193  2.2332 -0.2963 -1.7293
  136MOL0     H18317   5.350  -0.073   6.367  0.9540  1.1483  0.9983
  136MOL0     H18318   5.532  -0.193   6.272 -0.8653  0.2511  0.6751
  136MOL0     H18319   5.587  -0.049   6.366  0.5853  0.8818 -1.0697
  136MOL0     H18320   5.737   0.127   6.025 -1.1289  2.1654  3.3026
  136MOL0     H18321   5.989   0.139   6.002  0.0864  0.8564  0.4437
  136MOL0     H18322   6.367  -0.011   6.375  0.3348  1.4359  0.4233
  136MOL0     H18323   6.631  -0.025   6.390  0.0887 -2.0825  1.3892
  136MOL0     H18324   6.817   0.036   6.241 -0.8793 -0.5087 -1.6349
  136MOL0     H18325   6.945  -0.075   6.287 -0.1996  0.0007 -1.2070
  136MOL0     H18326   6.843  -0.039   6.004  1.3149 -3.9523 -0.7096
  136MOL0     H18327   6.990   0.045   6.077  1.3062 -0.4358  3.0478
  136MOL0     H18328   7.098  -0.142   6.134 -1.6971 -2.1564  1.8629
  136MOL0     H18329   7.006  -0.266   6.052  0.7387 -0.5962 -0.5876
  136MOL0     H18330   7.092  -0.033   5.895  0.4035  0.0438  0.2274
  136MOL0     H18331   7.009  -0.177   5.846 -0.3531 -0.7709 -0.9320
  136MOL0     H18332   7.208  -0.311   5.956  0.4646  0.0781  1.3703
  136MOL0     H18333   7.293  -0.152   5.965 -0.3220  0.1555  0.1768
  136MOL0     H18334   7.188  -0.259   5.706 -0.1419 -0.8847  1.7764
  136MOL0     H18335   7.265  -0.104   5.728 -0.1043 -1.3314 -1.3879
  136MOL0     H18336   7.480  -0.192   5.753 -0.4979  1.0857  1.0104
  136MOL0     H18337   7.391  -0.287   5.631  1.0472  1.2394 -0.5794
  136MOL0     H18338   7.522  -0.437   5.794  0.8207  2.7393 -2.1336
  136MOL0     H18339   7.410  -0.381   5.917  0.0647  2.9232  0.6313
  136MOL0     H18340   6.647  -0.255   6.038 -0.4076 -0.0686 -0.7760
  136MOL0     H18341   6.396  -0.243   6.007 -1.1149  0.0131  0.2744
  136MOL0     H18342   6.016  -0.198   6.256 -1.6514  1.5897  1.4424
  136MOL0     H18343   5.776  -0.215   6.279 -0.3674  0.3470  1.3614
  136MOL0     H18344   4.275   1.249   6.854  0.9290 -0.6751 -1.1407
  136MOL0     H18345   4.022   1.227   6.887  1.3661 -3.3895  0.6235
  136MOL0     H18346   3.644   1.279   6.544 -0.1750  0.7090  1.2170
  136MOL0     H18347   3.413   1.313   6.511  1.6085  0.7285  1.3349
  136MOL0     H18348   3.201   1.280   6.466  0.7372 -2.2522 -1.5023
  136MOL0     H18349   3.182   1.321   6.638 -0.1014 -0.2878 -0.7395
  136MOL0     H18350   2.956   1.333   6.547  4.3957  1.8046  1.0727
  136MOL0     H18351   2.964   1.173   6.629 -0.9013  1.7469  2.2921
  136MOL0     H18352   3.028   1.075   6.402  0.1677 -0.7625  0.9160
  136MOL0     H18353   2.991   1.234   6.324 -1.8783  0.6162 -0.1755
  136MOL0     H18354   2.754   1.216   6.381 -0.8704 -0.4819  1.3366
  136MOL0     H18355   2.804   1.075   6.286  0.3535  1.5266 -1.5118
  136MOL0     H18356   2.676   0.939   6.666  2.6544 -0.8696  0.7177
  136MOL0     H18357   3.331   0.955   6.730  0.6908 -2.3383 -3.5564
  136MOL0     H18358   3.632   0.812   6.717  0.5940 -0.6508  1.2289
  136MOL0     H18359   3.656   0.914   6.857 -0.9847 -0.0804  0.6674
  136MOL0     H18360   3.512   0.815   6.840 -0.0505 -1.1609 -0.9498
  137MOL0     O18361   4.324   3.238  10.488 -0.0379 -0.0083 -0.3337
  137MOL0     C18362   4.212   3.275  10.465 -0.6520 -0.2807 -0.0333
  137MOL0     O18363   4.177   3.379  10.380 -0.0712  0.0343  0.3746
  137MOL0     C18364   4.266   3.460  10.314  0.6731  0.3579 -0.7242
  137MOL0     C18365   4.391   3.430  10.279 -0.0483 -0.8781  0.6768
  137MOL0     C18366   4.474   3.526  10.214  0.1664 -0.1677 -0.1008
  137MOL0     C18367   4.439   3.657  10.186  0.5633 -0.5689  0.1237
  137MOL0     O18368   4.524   3.731  10.107 -0.4252  0.3824  0.3162
  137MOL0     C18369   4.512   3.872  10.099 -0.1470  0.1807 -0.7313
  137MOL0     C18370   4.646   3.937  10.081  0.9076  0.4106 -0.6984
  137MOL0     C18371   4.733   3.915  10.209 -0.0491 -0.4075  0.6604
  137MOL0     C18372   4.882   3.953  10.198  0.2989  0.5787  0.0483
  137MOL0     C18373   4.904   4.102  10.212  0.0139 -0.1320 -0.2894
  137MOL0     C18374   4.867   4.170  10.345 -0.2541 -0.1398  0.5618
  137MOL0     C18375   4.843   4.325  10.333  0.4719 -0.7519  0.2049
  137MOL0     C18376   4.958   4.405  10.274 -0.6966  0.0161  0.5399
  137MOL0     N18377   5.064   4.442  10.369 -0.6113 -0.0802 -0.0139
  137MOL0     C18378   5.180   4.499  10.338 -0.1278  0.0394  0.4253
  137MOL0     C18379   5.262   4.486  10.448  0.5027  0.8341  0.8911
  137MOL0     C18380   5.402   4.552  10.463 -0.7872 -0.6936  0.2348
  137MOL0     C18381   5.516   4.440  10.450 -0.0398  0.5485  0.6066
  137MOL0     C18382   5.516   4.357  10.581  0.3974  0.3980  0.0097
  137MOL0     C18383   5.603   4.230  10.578 -0.2546  0.1714 -0.0726
  137MOL0     O18384   5.736   4.278  10.554 -0.4222 -0.3540 -1.0481
  137MOL0     C18385   5.824   4.285  10.656 -0.1602  0.4553  0.7121
  137MOL0     C18386   5.955   4.313  10.619 -0.3051  0.3544  0.5124
  137MOL0     C18387   6.059   4.313  10.716 -0.0475 -0.3730  0.6747
  137MOL0     C18388   6.030   4.282  10.856  0.1598 -0.6898 -0.2065
  137MOL0     C18389   6.138   4.290  10.946 -0.0513 -0.2302  0.5836
  137MOL0     O18390   6.156   4.182  11.027 -0.1377  0.1418  0.1502
  137MOL0     C18391   6.248   4.203  11.124 -0.8929 -0.0042  0.5191
  137MOL0     C18392   6.377   4.151  11.095 -0.1726  0.2942  0.0740
  137MOL0     C18393   6.473   4.161  11.202 -0.2737 -0.2510  0.8754
  137MOL0     C18394   6.443   4.214  11.328 -0.2246  0.4366  0.3079
  137MOL0     O18395   6.545   4.216  11.421 -0.4169 -1.5978 -0.0777
  137MOL0     C18396   6.540   4.306  11.528 -0.0426 -0.3780  0.0097
  137MOL0     C18397   6.669   4.307  11.603 -0.5831  0.4116 -0.2048
  137MOL0     C18398   6.783   4.353  11.520 -0.5180  0.3404 -0.1555
  137MOL0     C18399   6.773   4.507  11.496 -0.0750  0.8004 -0.0734
  137MOL0     C18400   6.906   4.566  11.458 -0.2205  0.1797 -0.2253
  137MOL0     C18401   6.907   4.721  11.452 -0.2614 -0.1849 -0.7154
  137MOL0     C18402   6.880   4.789  11.585 -1.1074  0.1989 -0.2003
  137MOL0     C18403   7.008   4.862  11.622  0.6574  0.2198  0.4841
  137MOL0    Cl18404   7.151   4.751  11.648 -0.4619  0.0680  0.2210
  137MOL0     C18405   6.314   4.269  11.348  0.3509 -0.6065 -0.0373
  137MOL0     C18406   6.218   4.261  11.248 -0.4393  0.1275 -0.0161
  137MOL0     O18407   6.210   4.384  10.937 -0.8578 -0.2014 -0.2390
  137MOL0     C18408   5.896   4.269  10.886  0.6061  0.4697 -1.1136
  137MOL0     C18409   5.792   4.269  10.793 -0.7509 -0.5165 -0.2051
  137MOL0     N18410   5.188   4.416  10.544  0.5357 -0.3974  0.0652
  137MOL0     N18411   5.069   4.393  10.492 -0.4101  0.6307  0.5673
  137MOL0     C18412   4.307   3.677  10.211  0.3768  0.6991  0.4722
  137MOL0     C18413   4.219   3.586  10.273  0.6015  0.2212 -0.3886
  137MOL0     C18414   4.105   3.207  10.545 -0.0723  0.6316  0.5411
  137MOL0     C18415   3.976   3.268  10.554  0.5774 -0.5122 -0.3536
  137MOL0     C18416   3.861   3.205  10.595  0.1197 -1.0791  0.2571
  137MOL0     C18417   3.888   3.075  10.647  0.6439 -0.6426  0.4294
  137MOL0     O18418   3.787   2.994  10.700 -0.3034 -0.0681  0.0115
  137MOL0     C18419   3.655   3.012  10.659  0.6082 -0.3164  0.7013
  137MOL0     C18420   3.586   2.901  10.736  0.8652 -1.0031 -0.1342
  137MOL0     C18421   3.627   2.750  10.714 -0.3021 -0.0070  0.6678
  137MOL0     C18422   3.581   2.691  10.584 -0.2028 -0.1740 -0.8985
  137MOL0     C18423   3.433   2.673  10.605 -0.9010 -0.0279  0.2871
  137MOL0     C18424   3.317   2.630  10.603 -0.2908  0.7827  0.4951
  137MOL0     C18425   4.022   3.019  10.658  0.8298  0.4119 -1.3914
  137MOL0     C18426   4.132   3.077  10.605  0.3607 -0.4693 -0.8185
  137MOL0     C18427   4.258   3.001  10.620 -0.2095  0.2751 -0.3168
  137MOL0     H18428   4.434   3.332  10.298 -1.4557 -1.2351  2.2011
  137MOL0     H18429   4.575   3.497  10.187  0.2208  0.4198 -0.5734
  137MOL0     H18430   4.439   3.895  10.020  2.7972  0.4339 -3.6091
  137MOL0     H18431   4.494   3.919  10.196  1.7878  0.1236 -0.3130
  137MOL0     H18432   4.632   4.043  10.057  0.5980  0.4411 -0.3846
  137MOL0     H18433   4.699   3.890   9.997  2.0084  1.5053 -0.6451
  137MOL0     H18434   4.743   3.807  10.224  0.9951 -0.2949  0.8805
  137MOL0     H18435   4.678   3.958  10.294 -1.4773  0.7007 -0.7626
  137MOL0     H18436   4.928   3.904  10.285 -1.3451 -4.0217 -1.3659
  137MOL0     H18437   4.932   3.910  10.110 -1.0964 -0.1843 -0.3966
  137MOL0     H18438   5.010   4.122  10.190 -0.2028 -0.6618 -1.9537
  137MOL0     H18439   4.852   4.151  10.129 -1.0931 -3.0442 -1.4540
  137MOL0     H18440   4.776   4.137  10.398 -0.7677  0.1088 -0.1482
  137MOL0     H18441   4.942   4.155  10.423  1.0434 -0.1568 -0.6601
  137MOL0     H18442   4.809   4.355  10.433 -2.6977  0.8190 -1.2204
  137MOL0     H18443   4.756   4.354  10.273  1.7200  2.9302 -0.1328
  137MOL0     H18444   5.008   4.359  10.188 -0.3550  0.3143  0.5752
  137MOL0     H18445   4.906   4.495  10.240  0.3629  0.2738 -0.4675
  137MOL0     H18446   5.205   4.536  10.239  0.1024 -0.4513  0.2967
  137MOL0     H18447   5.412   4.639  10.398 -1.2456 -1.3825 -0.7880
  137MOL0     H18448   5.401   4.595  10.564  0.5995  0.2176 -0.1096
  137MOL0     H18449   5.509   4.384  10.357 -2.2089  0.1062  0.9758
  137MOL0     H18450   5.608   4.496  10.435 -1.2117  2.1975 -0.9161
  137MOL0     H18451   5.414   4.332  10.611  0.3638  2.3084  1.7098
  137MOL0     H18452   5.546   4.424  10.662 -1.2433  0.4109  0.6343
  137MOL0     H18453   5.577   4.177  10.487 -1.1673  0.9748 -0.2918
  137MOL0     H18454   5.587   4.172  10.669 -2.1857  1.4058  0.4443
  137MOL0     H18455   5.970   4.331  10.513 -5.2430  0.0278 -0.4588
  137MOL0     H18456   6.164   4.328  10.692  0.1398  0.3294  1.8875
  137MOL0     H18457   6.395   4.107  10.997 -0.9519  1.5309 -0.6488
  137MOL0     H18458   6.566   4.109  11.184 -0.8075 -1.3094  1.1403
  137MOL0     H18459   6.518   4.410  11.505 -0.3113 -0.2095  0.9899
  137MOL0     H18460   6.461   4.280  11.599  1.0373  1.4540  1.9932
  137MOL0     H18461   6.664   4.379  11.686  1.0264  3.3910 -2.4710
  137MOL0     H18462   6.681   4.203  11.634  1.8615  0.7036  0.0080
  137MOL0     H18463   6.877   4.351  11.575 -0.1423  0.9663 -0.7588
  137MOL0     H18464   6.805   4.297  11.428 -1.3704 -0.3988  0.0771
  137MOL0     H18465   6.735   4.559  11.584 -1.2636  0.1288 -0.1600
  137MOL0     H18466   6.707   4.509  11.409 -0.5621 -0.8138  0.2212
  137MOL0     H18467   6.933   4.518  11.363 -1.3900  1.0448 -1.0153
  137MOL0     H18468   6.984   4.531  11.527  0.2758  2.5490  0.5091
  137MOL0     H18469   7.003   4.757  11.413  0.4180 -1.9964 -0.8094
  137MOL0     H18470   6.829   4.757  11.384  0.0859 -2.0841 -2.2043
  137MOL0     H18471   6.844   4.732  11.671  3.1564  1.1775  2.5436
  137MOL0     H18472   6.813   4.873  11.568  0.5221  1.8092  1.0227
  137MOL0     H18473   7.033   4.933  11.543  1.1658 -0.8511 -0.3454
  137MOL0     H18474   6.984   4.913  11.716 -1.2248  2.8392 -1.2993
  137MOL0     H18475   6.279   4.327  11.433  0.4861  0.5492 -0.7507
  137MOL0     H18476   6.116   4.297  11.262 -0.3793  0.5284 -0.5622
  137MOL0     H18477   5.861   4.253  10.987  1.0094 -1.0543 -1.1891
  137MOL0     H18478   5.691   4.254  10.829  0.0300 -2.2275  1.4432
  137MOL0     H18479   4.270   3.770  10.168 -0.7370 -0.3197 -0.8514
  137MOL0     H18480   4.113   3.606  10.283  0.5277  0.2030 -1.0749
  137MOL0     H18481   3.967   3.371  10.521  0.5801 -0.8369 -1.4077
  137MOL0     H18482   3.772   3.266  10.585  3.9634  5.1294 -1.9581
  137MOL0     H18483   3.634   3.002  10.552 -0.7618  1.6181  0.7345
  137MOL0     H18484   3.611   3.111  10.677 -0.2443 -0.4909 -0.2890
  137MOL0     H18485   3.480   2.916  10.716  1.1790  0.2750 -0.8900
  137MOL0     H18486   3.595   2.916  10.844  1.1142 -2.3566  0.0557
  137MOL0     H18487   3.601   2.688  10.800 -2.0034  0.0746  0.2482
  137MOL0     H18488   3.736   2.753  10.710 -0.2494 -0.7048  1.3442
  137MOL0     H18489   3.593   2.761  10.500 -0.7151  2.8626  1.3767
  137MOL0     H18490   3.632   2.597  10.562 -1.9243 -1.3034 -0.3292
  137MOL0     H18491   3.212   2.612  10.595 -0.6027  1.6307  2.2052
  137MOL0     H18492   4.029   2.920  10.702  1.9271  1.8768  2.1135
  137MOL0     H18493   4.246   2.911  10.681  1.8031 -0.4135 -0.8599
  137MOL0     H18494   4.279   2.958  10.521 -2.4782 -3.9170  0.7809
  137MOL0     H18495   4.345   3.054  10.658  0.9015 -2.2216  0.8552
  138MOL0     O18496   9.357   0.142   6.521 -0.1255  1.1012  0.0367
  138MOL0     C18497   9.349   0.103   6.637  0.2910 -0.4572 -0.1949
  138MOL0     O18498   9.463   0.056   6.712  0.3231 -0.8714 -0.0463
  138MOL0     C18499   9.579   0.030   6.640  0.4948 -0.1454 -0.0546
  138MOL0     C18500   9.589  -0.053   6.539 -0.8746  0.4497  0.1075
  138MOL0     C18501   9.719  -0.066   6.477  0.5925 -0.6609 -0.0634
  138MOL0     C18502   9.831   0.008   6.519 -0.9445  0.2933  0.2641
  138MOL0     O18503   9.954  -0.024   6.457 -0.2349  0.1181  0.8654
  138MOL0     C18504  10.069   0.050   6.484 -0.0666  0.0813  0.3010
  138MOL0     C18505  10.192  -0.005   6.414  0.1612  0.4193 -0.6811
  138MOL0     C18506  10.295   0.113   6.420  0.8227  0.2483  1.0669
  138MOL0     C18507  10.442   0.063   6.425  0.2906  1.4377  0.6383
  138MOL0     C18508  10.472  -0.041   6.315 -0.3997  0.3173 -0.0170
  138MOL0     C18509  10.618  -0.092   6.323  0.1990 -0.2688  0.3511
  138MOL0     C18510  10.638  -0.185   6.195  0.2680  1.0765  0.6207
  138MOL0     C18511  10.752  -0.281   6.207 -0.8846  0.3796 -1.0255
  138MOL0     N18512  10.888  -0.217   6.225 -0.9157  0.5824 -0.5701
  138MOL0     C18513  10.934  -0.092   6.169  0.0413 -0.1945  0.6149
  138MOL0     C18514  11.065  -0.085   6.205 -0.4974 -0.5659  0.2863
  138MOL0     C18515  11.154   0.040   6.178 -1.2064  0.0867 -0.2665
  138MOL0     C18516  11.210   0.100   6.312  0.1669  0.1130  0.5926
  138MOL0     C18517  11.105   0.185   6.386 -0.0219 -0.7435  0.6782
  138MOL0     C18518  11.149   0.213   6.529  0.5775  0.2219  0.9715
  138MOL0     O18519  11.093   0.330   6.589  0.7866 -1.5370 -0.2756
  138MOL0     C18520  10.957   0.342   6.627 -0.4942 -0.8019  0.2445
  138MOL0     C18521  10.907   0.458   6.693 -0.7984  0.5879  0.0298
  138MOL0     C18522  10.771   0.452   6.738  0.6015  0.4153  0.2837
  138MOL0     C18523  10.684   0.347   6.707  0.4084  0.4750  0.2309
  138MOL0     C18524  10.544   0.349   6.759  1.0582 -0.6485 -0.1885
  138MOL0     O18525  10.480   0.471   6.765 -0.5548  0.3429 -0.8178
  138MOL0     C18526  10.342   0.461   6.788 -0.4099 -1.1405  0.6167
  138MOL0     C18527  10.253   0.407   6.694 -0.4590  0.3280  0.3768
  138MOL0     C18528  10.116   0.380   6.717  0.0631 -0.2959  0.4629
  138MOL0     C18529  10.065   0.417   6.844  0.3173 -0.4682  0.2536
  138MOL0     O18530   9.928   0.391   6.849  0.6850 -0.3101 -0.5031
  138MOL0     C18531   9.836   0.489   6.914 -0.9384  0.3715  0.8061
  138MOL0     C18532   9.698   0.461   6.869 -0.3606  0.3865  0.5532
  138MOL0     C18533   9.703   0.469   6.710 -0.2010  0.0799 -0.2548
  138MOL0     C18534   9.570   0.461   6.639  0.1577 -0.4943 -0.5218
  138MOL0     C18535   9.570   0.500   6.489 -0.9136  0.1020 -0.5071
  138MOL0     C18536   9.661   0.416   6.399 -0.1896 -0.2149  0.2571
  138MOL0     C18537   9.678   0.487   6.261  0.0785 -0.1235 -0.0337
  138MOL0     C18538   9.755   0.409   6.161 -0.0463  0.8716 -0.5131
  138MOL0    Cl18539   9.934   0.409   6.196 -0.2494  0.0115  0.2072
  138MOL0     C18540  10.146   0.485   6.935  0.0041  0.3163  0.2799
  138MOL0     C18541  10.282   0.503   6.907 -0.8308  0.1990 -0.0123
  138MOL0     O18542  10.495   0.242   6.795  0.2511 -1.0203 -0.6695
  138MOL0     C18543  10.744   0.233   6.657 -0.4389 -0.3567  0.8663
  138MOL0     C18544  10.873   0.236   6.613  0.2706 -0.5775 -0.0919
  138MOL0     N18545  11.103  -0.203   6.269 -0.2143  0.4189 -0.3858
  138MOL0     N18546  11.000  -0.283   6.275  0.5093  0.0881 -0.1707
  138MOL0     C18547   9.811   0.097   6.625 -0.0785 -0.2765  0.5788
  138MOL0     C18548   9.684   0.121   6.679  0.8427  0.7034 -0.3357
  138MOL0     C18549   9.219   0.127   6.715  0.3025  0.1389  0.0366
  138MOL0     C18550   9.239   0.159   6.855  0.0822 -0.6781  0.1029
  138MOL0     C18551   9.135   0.191   6.929  0.1499  0.2536 -0.3280
  138MOL0     C18552   9.005   0.190   6.869 -0.0730  0.5299 -0.7543
  138MOL0     O18553   8.893   0.222   6.939 -0.3480 -0.4151  0.0989
  138MOL0     C18554   8.886   0.340   7.019  0.1394  0.2911  0.2990
  138MOL0     C18555   8.737   0.379   7.028  1.1640 -0.4393  0.2899
  138MOL0     C18556   8.668   0.401   6.880 -0.3545  0.5924 -0.5202
  138MOL0     C18557   8.523   0.472   6.882  0.5849  0.0730  0.5300
  138MOL0     C18558   8.406   0.399   6.944  0.7250  1.1051  0.1936
  138MOL0     C18559   8.307   0.332   6.984  1.0014  0.4648 -0.7803
  138MOL0     C18560   8.986   0.154   6.738 -0.1695 -0.4423  0.5761
  138MOL0     C18561   9.096   0.118   6.653  0.5291  0.0739  0.1286
  138MOL0     C18562   9.062   0.065   6.514  0.6177 -0.3092  0.0831
  138MOL0     H18563   9.502  -0.106   6.502  0.5720 -1.0406 -1.3230
  138MOL0     H18564   9.721  -0.122   6.384  1.5952  0.6102 -0.8323
  138MOL0     H18565  10.055   0.151   6.443  1.0851  0.4666  0.8010
  138MOL0     H18566  10.079   0.055   6.593  0.8439 -1.1326  0.2998
  138MOL0     H18567  10.173  -0.043   6.313  3.5064 -1.3861 -0.7575
  138MOL0     H18568  10.226  -0.087   6.477  0.2053  2.0268  1.4841
  138MOL0     H18569  10.280   0.179   6.507 -2.2925 -0.9777  1.6030
  138MOL0     H18570  10.277   0.173   6.331  0.4183 -1.4342 -0.0237
  138MOL0     H18571  10.515   0.144   6.417  1.5540  0.3395  0.5749
  138MOL0     H18572  10.461   0.008   6.517  0.8741 -1.9811 -1.3334
  138MOL0     H18573  10.415  -0.130   6.341 -1.3745  0.8337 -0.3190
  138MOL0     H18574  10.451  -0.014   6.211  0.8998 -1.2725 -0.7393
  138MOL0     H18575  10.694  -0.014   6.316  0.4685 -0.5303  0.3497
  138MOL0     H18576  10.644  -0.148   6.414  0.4177  2.4265  2.0459
  138MOL0     H18577  10.645  -0.124   6.105 -1.2395 -0.6454 -0.7222
  138MOL0     H18578  10.544  -0.238   6.181 -1.9892  3.8866  3.6095
  138MOL0     H18579  10.748  -0.353   6.289 -1.0665 -0.4520 -1.7459
  138MOL0     H18580  10.760  -0.343   6.116  0.2702 -0.2818 -0.5006
  138MOL0     H18581  10.876  -0.015   6.120  0.3128 -1.7621 -2.4425
  138MOL0     H18582  11.236   0.011   6.112 -0.3461  0.2386  0.7144
  138MOL0     H18583  11.105   0.123   6.126  2.2396  0.4002 -3.4698
  138MOL0     H18584  11.255   0.030   6.382  2.1710 -0.0045 -0.7215
  138MOL0     H18585  11.295   0.166   6.290 -0.6624  3.1329  5.0831
  138MOL0     H18586  11.005   0.142   6.376 -0.7356  0.9310  0.3000
  138MOL0     H18587  11.099   0.281   6.333 -0.3504 -0.4494  1.2243
  138MOL0     H18588  11.258   0.214   6.530  0.7133 -0.5891 -1.9150
  138MOL0     H18589  11.115   0.130   6.592  0.4077 -0.7594 -0.3681
  138MOL0     H18590  10.978   0.539   6.703  0.0102  0.0795 -1.2831
  138MOL0     H18591  10.731   0.538   6.791  1.0471 -0.8600  2.8414
  138MOL0     H18592  10.282   0.373   6.595 -1.4270 -0.2162  0.2668
  138MOL0     H18593  10.056   0.337   6.638  2.0384  0.0654 -1.3289
  138MOL0     H18594   9.843   0.478   7.022  0.5431 -4.0968  0.4712
  138MOL0     H18595   9.875   0.585   6.879 -0.3535  0.2111  1.0081
  138MOL0     H18596   9.661   0.362   6.897  0.9883 -0.9082 -1.9694
  138MOL0     H18597   9.633   0.540   6.910  0.4751  0.9108  0.8868
  138MOL0     H18598   9.755   0.560   6.680  1.1671  0.6519  3.3604
  138MOL0     H18599   9.755   0.384   6.665  1.1700  0.3357  0.7844
  138MOL0     H18600   9.496   0.529   6.683  0.1325 -2.3643  2.5929
  138MOL0     H18601   9.527   0.361   6.650 -0.7687 -0.0201  0.3970
  138MOL0     H18602   9.612   0.600   6.479  0.3014 -0.5012 -1.8195
  138MOL0     H18603   9.471   0.499   6.441 -1.6164 -0.3639  0.9106
  138MOL0     H18604   9.748   0.393   6.462 -1.8157 -0.0190  2.6949
  138MOL0     H18605   9.616   0.318   6.380  0.7800 -0.4558 -0.9382
  138MOL0     H18606   9.738   0.577   6.274 -0.9866  0.4502  1.0902
  138MOL0     H18607   9.575   0.506   6.231  0.9044 -0.1472 -3.2180
  138MOL0     H18608   9.713   0.309   6.149 -0.0210  1.1637 -3.9304
  138MOL0     H18609   9.755   0.463   6.066  1.6641  2.5871  0.3833
  138MOL0     H18610  10.098   0.516   7.027 -1.4192  1.1314 -0.6968
  138MOL0     H18611  10.344   0.546   6.985  3.7957 -3.2412 -1.3679
  138MOL0     H18612  10.691   0.142   6.631  0.3520 -0.8362  0.9162
  138MOL0     H18613  10.902   0.143   6.565 -0.5285 -0.3318 -1.0769
  138MOL0     H18614   9.893   0.149   6.673  0.3953  0.4092 -0.8973
  138MOL0     H18615   9.668   0.186   6.764 -2.8103 -0.6495  0.2253
  138MOL0     H18616   9.341   0.175   6.891  0.9333 -2.1829 -1.5054
  138MOL0     H18617   9.151   0.207   7.035 -0.1096 -0.3822 -0.1864
  138MOL0     H18618   8.935   0.420   6.962 -1.6050  1.1344 -0.0749
  138MOL0     H18619   8.934   0.307   7.112  1.9411 -1.0948 -1.0443
  138MOL0     H18620   8.723   0.459   7.101  0.5650 -1.5328  1.4349
  138MOL0     H18621   8.680   0.296   7.072  1.0168 -2.0907 -2.7494
  138MOL0     H18622   8.649   0.302   6.836 -1.0905  0.2513  0.5257
  138MOL0     H18623   8.742   0.463   6.829  0.3862 -1.5054 -2.1225
  138MOL0     H18624   8.527   0.569   6.933  1.6449 -1.0613  2.7325
  138MOL0     H18625   8.502   0.487   6.776  0.7343 -1.5941  0.2358
  138MOL0     H18626   8.229   0.271   7.026  0.9829 -0.0196 -1.5046
  138MOL0     H18627   8.886   0.165   6.698  0.3402  0.4652 -0.5130
  138MOL0     H18628   9.103  -0.033   6.485 -0.2487 -0.0489 -2.2427
  138MOL0     H18629   8.953   0.058   6.500  0.7930  0.5493 -2.1061
  138MOL0     H18630   9.106   0.149   6.459 -2.6195  2.0833  0.8596
  139MOL0     O18631  11.011   8.125   8.410  0.0418  0.0395  0.0408
  139MOL0     C18632  10.986   8.242   8.440 -1.1292 -0.3787  0.2763
  139MOL0     O18633  11.086   8.335   8.465 -0.1739  0.7853  0.7361
  139MOL0     C18634  11.216   8.289   8.476 -0.1124 -0.0221  0.1456
  139MOL0     C18635  11.280   8.193   8.405 -0.8724 -0.7502  0.8300
  139MOL0     C18636  11.415   8.152   8.424  0.5781 -0.3580 -0.6035
  139MOL0     C18637  11.500   8.234   8.497  0.4770  0.0799 -0.2591
  139MOL0     O18638  11.627   8.203   8.488 -0.3272  0.8014  0.1771
  139MOL0     C18639  11.718   8.308   8.518 -0.3515 -0.8814 -1.0902
  139MOL0     C18640  11.864   8.281   8.491 -0.4184  0.9495  0.3158
  139MOL0     C18641  11.910   8.149   8.547 -0.0437  0.6136  0.4535
  139MOL0     C18642  12.052   8.119   8.499 -0.5186  1.4050  0.0214
  139MOL0     C18643  12.166   8.205   8.576  0.0039  0.5610  0.0269
  139MOL0     C18644  12.290   8.164   8.497 -0.7170 -0.3388 -0.1553
  139MOL0     C18645  12.419   8.224   8.547  1.2473 -0.3141  0.7002
  139MOL0     C18646  12.443   8.367   8.494 -0.2809 -0.2356 -1.0706
  139MOL0     N18647  12.561   8.425   8.563 -0.1689 -0.1790  0.3265
  139MOL0     C18648  12.541   8.505   8.679 -0.4130 -0.1379 -0.3407
  139MOL0     C18649  12.666   8.554   8.702  0.1948 -0.0358  0.8194
  139MOL0     C18650  12.691   8.605   8.841 -0.4457  0.0233 -0.1760
  139MOL0     C18651  12.835   8.654   8.862 -0.7587  0.7657 -0.4408
  139MOL0     C18652  12.874   8.637   9.010  0.1408  0.2616  1.0764
  139MOL0     C18653  13.020   8.682   9.037  0.0436  0.0724 -0.4893
  139MOL0     O18654  13.102   8.583   8.970  0.0758  0.0207 -0.4139
  139MOL0     C18655  13.239   8.577   8.995  0.0618 -0.3929 -0.8601
  139MOL0     C18656  13.308   8.656   9.082 -0.8457  0.7858  0.7814
  139MOL0     C18657  13.450   8.641   9.087  0.4842  0.0736 -0.0480
  139MOL0     C18658  13.520   8.559   9.006  0.8625 -0.0605 -0.5811
  139MOL0     C18659  13.676   8.552   9.012  0.1548 -0.0222  0.6341
  139MOL0     O18660  13.731   8.665   9.082  0.0397  0.0056 -0.5968
  139MOL0     C18661  13.861   8.688   9.074 -0.6282  1.1648 -0.2341
  139MOL0     C18662  13.935   8.675   8.956 -0.3901  0.4393  0.3296
  139MOL0     C18663  14.064   8.722   8.955 -0.5987 -0.5263 -0.7866
  139MOL0     C18664  14.116   8.785   9.068 -0.2274  0.0309 -0.5806
  139MOL0     O18665  14.236   8.842   9.040 -0.1718  0.4693  0.6310
  139MOL0     C18666  14.330   8.837   9.154 -0.2418  0.7721 -0.0316
  139MOL0     C18667  14.471   8.825   9.091 -1.1424  0.7924 -0.2890
  139MOL0     C18668  14.586   8.885   9.162  0.0185 -0.4840 -0.8052
  139MOL0     C18669  14.712   8.887   9.078 -1.2256 -0.2540  0.6507
  139MOL0     C18670  14.841   8.931   9.163  0.1395 -0.4678  0.3469
  139MOL0     C18671  14.970   8.870   9.096 -0.4634  0.3548 -0.0993
  139MOL0     C18672  15.009   8.926   8.961 -0.7698  0.7860  0.1265
  139MOL0     C18673  15.088   9.060   8.972 -0.7999  1.0176  0.9286
  139MOL0    Cl18674  15.231   9.070   9.087 -0.5156  0.7893 -0.0964
  139MOL0     C18675  14.043   8.793   9.186 -0.5256  0.5326  0.4375
  139MOL0     C18676  13.918   8.741   9.191  0.9150  0.5116 -0.5471
  139MOL0     O18677  13.736   8.461   8.953  0.4849  0.3648 -0.2088
  139MOL0     C18678  13.446   8.467   8.936  0.3007  0.4794  0.0920
  139MOL0     C18679  13.309   8.475   8.933  0.7742 -0.3024  0.5476
  139MOL0     N18680  12.736   8.543   8.590  0.3850 -0.2757  0.2742
  139MOL0     N18681  12.674   8.470   8.496  0.1536 -0.6017  0.1765
  139MOL0     C18682  11.437   8.338   8.570 -0.5986 -0.3423 -0.2140
  139MOL0     C18683  11.298   8.358   8.556  0.5102 -0.5856 -0.1815
  139MOL0     C18684  10.844   8.271   8.468 -0.6281  0.3550  0.2602
  139MOL0     C18685  10.751   8.163   8.483 -0.9772 -1.2105  0.5036
  139MOL0     C18686  10.617   8.193   8.505  0.0725 -0.5082 -0.3097
  139MOL0     C18687  10.578   8.328   8.511 -0.4010 -0.4777  0.2098
  139MOL0     O18688  10.446   8.366   8.520  0.4912 -0.3934 -0.5773
  139MOL0     C18689  10.357   8.297   8.606 -0.3544  0.7218  0.1618
  139MOL0     C18690  10.253   8.217   8.522  0.7498 -0.2423  0.3159
  139MOL0     C18691  10.129   8.199   8.616  0.0497  0.2336 -0.6227
  139MOL0     C18692  10.162   8.111   8.738  0.7487 -0.2555 -0.0507
  139MOL0     C18693  10.039   8.076   8.807 -0.1917  0.6376 -0.4093
  139MOL0     C18694   9.938   8.038   8.863 -0.1052  0.2605  0.7399
  139MOL0     C18695  10.670   8.435   8.513  1.0850  0.4973  0.1434
  139MOL0     C18696  10.799   8.410   8.489  0.2801  0.5157  0.1549
  139MOL0     C18697  10.894   8.530   8.511  0.4923  0.5457  0.6972
  139MOL0     H18698  11.223   8.144   8.327 -1.3319  1.6672 -0.4369
  139MOL0     H18699  11.460   8.070   8.369 -0.9674 -1.1306 -0.7756
  139MOL0     H18700  11.698   8.399   8.460  0.8163  0.4813  0.5297
  139MOL0     H18701  11.711   8.340   8.622  0.3797  0.4623 -1.4208
  139MOL0     H18702  11.928   8.350   8.547 -0.1287 -1.9030  3.8491
  139MOL0     H18703  11.885   8.281   8.384  2.9678 -0.3483  0.8657
  139MOL0     H18704  11.851   8.074   8.494 -0.4113  1.0230  0.2658
  139MOL0     H18705  11.890   8.136   8.654 -1.2756  3.6326  0.7170
  139MOL0     H18706  12.074   8.014   8.520  1.0639  1.6481 -0.2905
  139MOL0     H18707  12.067   8.133   8.392  1.1701 -0.3412 -0.0440
  139MOL0     H18708  12.152   8.312   8.555 -1.5936  0.0683 -1.6278
  139MOL0     H18709  12.171   8.186   8.684  0.2626  1.2293  0.1405
  139MOL0     H18710  12.300   8.055   8.492 -0.0079 -0.2672 -0.4554
  139MOL0     H18711  12.284   8.190   8.391  1.5586  0.5018 -0.1294
  139MOL0     H18712  12.493   8.156   8.504 -0.4053 -1.0512 -1.0797
  139MOL0     H18713  12.428   8.227   8.656 -1.3700 -0.6471  0.9953
  139MOL0     H18714  12.469   8.349   8.389 -0.0316 -0.7365 -0.9251
  139MOL0     H18715  12.359   8.433   8.515  0.1946  0.2977 -0.8066
  139MOL0     H18716  12.456   8.504   8.747  1.3472 -0.3706  1.9942
  139MOL0     H18717  12.622   8.683   8.872  0.4035  0.1039  1.6497
  139MOL0     H18718  12.678   8.522   8.911 -0.6386  1.2973  1.3645
  139MOL0     H18719  12.899   8.601   8.791 -1.0671 -0.1546 -0.0514
  139MOL0     H18720  12.847   8.759   8.833 -0.0078  0.6566 -0.5552
  139MOL0     H18721  12.863   8.534   9.044  0.2461  0.5761  2.0739
  139MOL0     H18722  12.810   8.701   9.070 -0.8602  2.3595 -1.9535
  139MOL0     H18723  13.044   8.681   9.143 -1.2790 -1.5426 -0.1731
  139MOL0     H18724  13.047   8.780   8.995  0.0396  0.1447 -0.3229
  139MOL0     H18725  13.259   8.737   9.134  0.9494  1.1098  2.0637
  139MOL0     H18726  13.505   8.710   9.150  2.2379 -1.4385  0.1554
  139MOL0     H18727  13.894   8.632   8.865  0.5416  0.2938 -0.0404
  139MOL0     H18728  14.127   8.724   8.867  0.5853 -0.0200  0.0307
  139MOL0     H18729  14.316   8.924   9.220 -2.7214 -0.1949  0.8484
  139MOL0     H18730  14.302   8.750   9.215 -2.2637  1.0028 -0.5382
  139MOL0     H18731  14.493   8.718   9.083  1.8702  0.9021  3.6442
  139MOL0     H18732  14.478   8.884   8.999  0.1918  2.1260  0.6317
  139MOL0     H18733  14.557   8.985   9.197  1.6483 -0.1648 -0.2469
  139MOL0     H18734  14.608   8.830   9.254 -1.5804  0.1116 -0.0217
  139MOL0     H18735  14.703   8.953   8.991 -1.4235  0.6010  1.3108
  139MOL0     H18736  14.735   8.790   9.032 -0.0043  0.1752  0.3006
  139MOL0     H18737  14.833   8.888   9.263  2.9196  0.0901  0.8769
  139MOL0     H18738  14.851   9.039   9.175  1.3018 -0.3881 -1.0472
  139MOL0     H18739  15.059   8.863   9.160  1.6494  1.1889 -2.7844
  139MOL0     H18740  14.947   8.765   9.078  0.7748  0.1963 -0.8757
  139MOL0     H18741  14.921   8.953   8.902  0.1843 -0.2581 -1.8392
  139MOL0     H18742  15.059   8.847   8.904 -2.4669  0.0267 -0.3693
  139MOL0     H18743  15.121   9.074   8.869 -0.1169 -1.6718  0.6935
  139MOL0     H18744  15.021   9.140   9.005 -0.1997  1.3963  1.2315
  139MOL0     H18745  14.088   8.837   9.275 -0.0204  1.0545 -0.0686
  139MOL0     H18746  13.846   8.748   9.272  0.3052  0.3191 -1.0663
  139MOL0     H18747  13.495   8.396   8.870  0.9093  0.4375  0.5735
  139MOL0     H18748  13.252   8.423   8.857 -0.8823  1.5566  0.4090
  139MOL0     H18749  11.481   8.413   8.634 -0.4091  1.0962 -1.9426
  139MOL0     H18750  11.262   8.445   8.609  1.3308 -0.5778  0.3781
  139MOL0     H18751  10.792   8.063   8.482  4.0764  0.4862 -2.9913
  139MOL0     H18752  10.546   8.111   8.502 -2.6615  1.7348 -1.7842
  139MOL0     H18753  10.310   8.356   8.685 -0.2296 -0.1413  0.9003
  139MOL0     H18754  10.411   8.224   8.668  1.0285  2.1544  0.7048
  139MOL0     H18755  10.284   8.127   8.469 -0.4670 -0.6022  0.1884
  139MOL0     H18756  10.210   8.278   8.442  0.1707  0.0525  0.8395
  139MOL0     H18757  10.054   8.147   8.555 -3.1543  0.6607  2.6345
  139MOL0     H18758  10.088   8.292   8.654  0.2067 -0.6333  1.8506
  139MOL0     H18759  10.227   8.029   8.707 -0.1231 -1.7504  1.9009
  139MOL0     H18760  10.223   8.170   8.806  1.7021 -0.8933 -0.3428
  139MOL0     H18761   9.856   8.003   8.922  0.4482 -0.2746  1.2101
  139MOL0     H18762  10.633   8.534   8.536  0.6408  0.4069 -0.1674
  139MOL0     H18763  10.929   8.584   8.423 -1.1749  0.7277  0.1000
  139MOL0     H18764  10.838   8.608   8.562  0.0048 -2.0005  4.4978
  139MOL0     H18765  10.965   8.496   8.587 -0.6653 -0.9485  1.1668
  140MOL0     O18766   3.201   7.048   1.670  0.2714 -0.7964  0.1562
  140MOL0     C18767   3.086   7.067   1.638  0.3699  0.1420 -0.1700
  140MOL0     O18768   3.053   7.164   1.546 -0.4424 -0.1608 -0.0424
  140MOL0     C18769   3.148   7.221   1.472 -0.4266 -0.9004  0.6924
  140MOL0     C18770   3.233   7.146   1.393 -0.0392 -0.3756 -0.7293
  140MOL0     C18771   3.307   7.194   1.291 -1.3718  1.0301  0.5569
  140MOL0     C18772   3.309   7.333   1.271 -0.0141 -0.2149 -0.2288
  140MOL0     O18773   3.397   7.396   1.185 -0.5321  0.8455 -0.2205
  140MOL0     C18774   3.420   7.325   1.064  0.4223 -0.1237  1.5758
  140MOL0     C18775   3.564   7.290   1.036  0.1695  0.4532  0.1103
  140MOL0     C18776   3.628   7.188   1.109 -0.6581  0.1546 -0.2639
  140MOL0     C18777   3.757   7.147   1.022 -0.3118 -0.4761  0.2634
  140MOL0     C18778   3.823   7.017   1.069 -0.1811 -0.4087 -0.1404
  140MOL0     C18779   3.741   6.891   1.020 -0.8442  0.1527 -0.1855
  140MOL0     C18780   3.802   6.750   0.997 -0.4384  0.2739 -0.4959
  140MOL0     C18781   3.721   6.660   0.910  0.3588  0.2948  0.7616
  140MOL0     N18782   3.583   6.680   0.931  0.2874 -0.3666  0.7381
  140MOL0     C18783   3.509   6.680   1.046  0.4336 -0.5699 -0.1667
  140MOL0     C18784   3.385   6.726   1.002 -0.3070  0.2609  0.9604
  140MOL0     C18785   3.274   6.723   1.089  0.0744 -0.1068 -0.9733
  140MOL0     C18786   3.153   6.660   1.013  0.0467 -0.6128  0.5295
  140MOL0     C18787   3.025   6.678   1.096  1.1987 -1.1377  0.3259
  140MOL0     C18788   2.898   6.667   1.015  0.6874 -0.7292 -0.8793
  140MOL0     O18789   2.781   6.705   1.086 -0.2064 -0.0975 -0.1322
  140MOL0     C18790   2.742   6.616   1.180 -0.4718 -0.7683  0.2917
  140MOL0     C18791   2.689   6.492   1.135  0.2055  0.7304  0.1823
  140MOL0     C18792   2.665   6.388   1.225 -0.0653 -0.1630 -0.2758
  140MOL0     C18793   2.666   6.414   1.363 -0.3975 -0.2923 -0.4807
  140MOL0     C18794   2.599   6.326   1.459  0.2820 -0.0587  0.1901
  140MOL0     O18795   2.520   6.234   1.399 -0.6878  0.3010  0.1912
  140MOL0     C18796   2.451   6.146   1.471  0.0569 -0.1830  0.3652
  140MOL0     C18797   2.318   6.173   1.516 -0.4296  0.3244 -0.4475
  140MOL0     C18798   2.252   6.080   1.602 -0.0284 -0.1581 -0.0572
  140MOL0     C18799   2.315   5.955   1.632 -0.8086  0.2513 -0.4422
  140MOL0     O18800   2.272   5.853   1.704  0.5629  0.4985  0.0035
  140MOL0     C18801   2.184   5.878   1.807  0.7227  0.2221 -0.4461
  140MOL0     C18802   2.224   5.787   1.919 -0.2105 -0.0542 -0.7906
  140MOL0     C18803   2.369   5.797   1.974  0.1640  0.4606 -0.6617
  140MOL0     C18804   2.398   5.682   2.074 -0.1758  0.1505 -0.4553
  140MOL0     C18805   2.550   5.662   2.099  0.4072  0.4887  0.4454
  140MOL0     C18806   2.615   5.777   2.172  0.1746 -0.7460 -0.7737
  140MOL0     C18807   2.554   5.805   2.311  0.5621  0.7297  0.5282
  140MOL0     C18808   2.565   5.697   2.418  0.0345  0.1817 -0.4541
  140MOL0    Cl18809   2.730   5.623   2.418 -0.0237 -0.3311 -0.1902
  140MOL0     C18810   2.440   5.923   1.568 -0.4626  0.1829  0.4544
  140MOL0     C18811   2.510   6.022   1.501 -0.3521 -0.4058  0.1450
  140MOL0     O18812   2.603   6.347   1.579 -0.0101 -0.2836  0.3910
  140MOL0     C18813   2.716   6.535   1.406 -0.1143 -0.3885  0.2806
  140MOL0     C18814   2.741   6.641   1.320  0.4460  0.3438 -0.8233
  140MOL0     N18815   3.390   6.773   0.876 -0.0394 -0.0082 -0.7161
  140MOL0     N18816   3.509   6.745   0.831 -0.5346  0.5447 -0.0993
  140MOL0     C18817   3.231   7.412   1.356  0.1164  0.1589  0.0699
  140MOL0     C18818   3.141   7.362   1.454  0.1954  0.9046  0.5057
  140MOL0     C18819   2.976   6.974   1.679  0.2553  0.8119  1.2117
  140MOL0     C18820   2.852   6.979   1.605 -0.1825 -1.6697  0.0901
  140MOL0     C18821   2.747   6.893   1.616  0.1462  0.5900  0.4060
  140MOL0     C18822   2.757   6.790   1.704  0.3453  0.7584 -0.1137
  140MOL0     O18823   2.663   6.700   1.743  0.1207  0.1329 -0.0925
  140MOL0     C18824   2.527   6.735   1.709 -0.3290 -0.8756 -0.0463
  140MOL0     C18825   2.442   6.619   1.750 -0.4396  0.3713 -0.1930
  140MOL0     C18826   2.298   6.660   1.723 -0.1568 -0.4744 -0.4291
  140MOL0     C18827   2.200   6.544   1.698 -0.3813 -0.0996 -0.0416
  140MOL0     C18828   2.063   6.588   1.693  0.1392  1.0554 -0.4873
  140MOL0     C18829   1.945   6.629   1.699 -0.7492  0.3244  0.7740
  140MOL0     C18830   2.862   6.788   1.799 -0.4338 -0.2840  0.3365
  140MOL0     C18831   2.976   6.871   1.778  0.0138 -0.8431 -0.6964
  140MOL0     C18832   3.086   6.843   1.883 -0.0846  0.0306  0.7159
  140MOL0     H18833   3.238   7.039   1.408  0.8533 -0.4830 -1.6703
  140MOL0     H18834   3.375   7.124   1.245 -1.8128 -0.8206  2.5430
  140MOL0     H18835   3.377   7.225   1.055  1.9080 -0.7526  1.1355
  140MOL0     H18836   3.382   7.376   0.976 -2.9630 -3.1954  1.0168
  140MOL0     H18837   3.619   7.384   1.047 -2.7289  2.8939 -3.6054
  140MOL0     H18838   3.564   7.269   0.929  0.8237  0.3795  0.1188
  140MOL0     H18839   3.566   7.100   1.128  0.8199 -0.9029 -0.1965
  140MOL0     H18840   3.655   7.220   1.210  0.6284 -1.7305  0.0283
  140MOL0     H18841   3.739   7.139   0.915 -0.7885 -1.0193  0.3743
  140MOL0     H18842   3.833   7.225   1.029  0.2944 -1.0993  0.7645
  140MOL0     H18843   3.917   7.027   1.015  0.4710 -0.4141  0.9763
  140MOL0     H18844   3.838   7.035   1.176 -2.8079 -0.6833  0.3502
  140MOL0     H18845   3.655   6.882   1.087 -0.9442 -0.4078 -0.3828
  140MOL0     H18846   3.708   6.921   0.920  0.9807  0.3966 -0.7625
  140MOL0     H18847   3.815   6.700   1.094 -0.0293 -1.7393 -1.5413
  140MOL0     H18848   3.907   6.755   0.965 -0.8585  0.5621 -1.8943
  140MOL0     H18849   3.751   6.676   0.806  1.3543 -0.1432  0.9635
  140MOL0     H18850   3.744   6.558   0.943  4.0164  0.8331  0.3028
  140MOL0     H18851   3.538   6.638   1.142  2.5848 -1.3342 -1.1037
  140MOL0     H18852   3.293   6.660   1.176  0.6588  0.8918 -0.3568
  140MOL0     H18853   3.256   6.823   1.130 -1.2772 -1.2420  1.3885
  140MOL0     H18854   3.138   6.709   0.917  1.0715  0.7246  1.0188
  140MOL0     H18855   3.174   6.556   0.986  1.0764 -0.8479  2.0835
  140MOL0     H18856   3.022   6.782   1.131 -0.8089  0.5020 -3.9820
  140MOL0     H18857   3.030   6.603   1.176  0.0441 -1.4433  0.1134
  140MOL0     H18858   2.899   6.563   0.980  1.1217 -1.0189 -0.0371
  140MOL0     H18859   2.901   6.728   0.924 -2.1907  0.5988 -0.1948
  140MOL0     H18860   2.689   6.478   1.028 -0.1225 -1.3992  0.4255
  140MOL0     H18861   2.607   6.302   1.194 -1.2074  0.3774  0.3399
  140MOL0     H18862   2.280   6.269   1.485  0.2632  1.0114  0.7775
  140MOL0     H18863   2.148   6.093   1.631 -0.0831 -3.5425  1.7302
  140MOL0     H18864   2.192   5.980   1.847  1.9999 -0.5818  1.4827
  140MOL0     H18865   2.081   5.853   1.781  0.7747 -3.4027  2.0955
  140MOL0     H18866   2.166   5.810   2.009  2.0344  0.3122  0.6398
  140MOL0     H18867   2.199   5.683   1.895 -1.2478 -0.4612  1.7276
  140MOL0     H18868   2.449   5.798   1.899  2.1961 -4.7925  0.9887
  140MOL0     H18869   2.380   5.892   2.026  0.8158  0.4520 -0.7771
  140MOL0     H18870   2.358   5.592   2.028 -0.1361  0.5040 -1.1943
  140MOL0     H18871   2.345   5.708   2.167  1.3628 -0.3478  0.5946
  140MOL0     H18872   2.595   5.643   2.002  1.5793 -1.2207  1.2700
  140MOL0     H18873   2.563   5.566   2.151 -1.2166 -1.4854 -2.5376
  140MOL0     H18874   2.722   5.755   2.181  0.9669  2.9969  1.5624
  140MOL0     H18875   2.600   5.873   2.121 -0.4349  0.8885  2.2876
  140MOL0     H18876   2.452   5.844   2.308  0.5483  0.6752  0.1062
  140MOL0     H18877   2.606   5.886   2.363  2.3300 -1.1247  1.8246
  140MOL0     H18878   2.551   5.745   2.516  1.7152  1.0737 -0.6091
  140MOL0     H18879   2.497   5.612   2.411  0.4444 -0.1584 -0.3496
  140MOL0     H18880   2.485   5.825   1.576 -2.2565 -0.7328 -0.1447
  140MOL0     H18881   2.611   6.009   1.464 -0.1406  2.1172 -0.3483
  140MOL0     H18882   2.728   6.559   1.512  2.7556  1.1984 -0.3157
  140MOL0     H18883   2.779   6.739   1.345  0.8712 -0.4532  1.9190
  140MOL0     H18884   3.248   7.516   1.333  1.3137 -0.9400 -5.3190
  140MOL0     H18885   3.080   7.422   1.521 -0.5437  0.8853 -0.1319
  140MOL0     H18886   2.824   7.057   1.536 -1.5707 -4.0879 -2.2958
  140MOL0     H18887   2.650   6.911   1.570 -1.0359 -2.5589  1.3908
  140MOL0     H18888   2.515   6.749   1.601 -0.3895 -0.0072  0.0678
  140MOL0     H18889   2.504   6.831   1.756  2.4734  0.4165 -1.0794
  140MOL0     H18890   2.459   6.590   1.854  0.6661 -0.8381 -0.6914
  140MOL0     H18891   2.470   6.531   1.692  1.0780 -0.5461  1.7870
  140MOL0     H18892   2.290   6.724   1.635 -3.8612 -0.1030  0.0219
  140MOL0     H18893   2.265   6.721   1.808  1.5813  2.2896 -1.6142
  140MOL0     H18894   2.224   6.492   1.605 -3.4518 -1.9653  0.0773
  140MOL0     H18895   2.203   6.469   1.778  2.3077  0.1779  0.2227
  140MOL0     H18896   1.852   6.677   1.721 -0.0138  1.6573  1.0583
  140MOL0     H18897   2.865   6.716   1.880 -1.3871  0.5530  1.1435
  140MOL0     H18898   3.105   6.739   1.853  1.1440  1.0408 -2.3719
  140MOL0     H18899   3.182   6.892   1.865 -0.6060  0.5759 -0.6068
  140MOL0     H18900   3.048   6.845   1.986 -2.6660  1.5028 -0.1839
  141MOL0     O18901   9.194   9.632   4.534 -0.5917 -0.4741  0.1618
  141MOL0     C18902   9.148   9.667   4.421 -0.0705 -0.1379 -0.2467
  141MOL0     O18903   9.212   9.767   4.339 -0.6635 -0.4613  0.1220
  141MOL0     C18904   9.325   9.827   4.379  0.0753  0.0299 -0.5184
  141MOL0     C18905   9.327   9.928   4.477 -0.1550 -0.0532 -0.2891
  141MOL0     C18906   9.447   9.998   4.497  0.4281 -0.4057  1.0457
  141MOL0     C18907   9.558   9.972   4.421 -0.4048  0.0286  0.6001
  141MOL0     O18908   9.673  10.048   4.441 -0.1480 -0.3659 -0.5477
  141MOL0     C18909   9.734  10.093   4.319  0.3448  0.0453 -0.1967
  141MOL0     C18910   9.826  10.205   4.341  0.6819 -0.6893  0.2676
  141MOL0     C18911   9.773  10.307   4.439  0.1819 -1.4243 -1.0352
  141MOL0     C18912   9.653  10.399   4.394 -0.3253  1.0672  0.0689
  141MOL0     C18913   9.611  10.515   4.491 -0.2055  0.6550  0.9337
  141MOL0     C18914   9.595  10.645   4.411  0.7833 -0.1546  0.0995
  141MOL0     C18915   9.468  10.641   4.319 -0.4079 -0.6773 -0.1506
  141MOL0     C18916   9.337  10.638   4.397 -0.0636  0.5795 -0.3279
  141MOL0     N18917   9.301  10.766   4.445  0.8907 -0.3884 -0.0217
  141MOL0     C18918   9.265  10.873   4.366 -0.1145 -0.2739 -0.1989
  141MOL0     C18919   9.274  10.969   4.465 -0.2940  0.8156  0.1046
  141MOL0     C18920   9.249  11.113   4.433  0.3293  0.1503 -0.4129
  141MOL0     C18921   9.108  11.167   4.487 -0.6912 -0.0796  0.3740
  141MOL0     C18922   9.111  11.323   4.501  0.1753  0.2661 -0.3661
  141MOL0     C18923   8.964  11.364   4.516 -0.1593 -0.2430  0.1305
  141MOL0     O18924   8.960  11.508   4.496  0.2978 -0.1249  0.1094
  141MOL0     C18925   8.829  11.563   4.504 -0.3828 -0.4831 -0.3729
  141MOL0     C18926   8.703  11.488   4.529  0.4506 -1.0219  0.7469
  141MOL0     C18927   8.590  11.564   4.550  1.0000 -0.5806 -0.1837
  141MOL0     C18928   8.581  11.700   4.539 -0.3214 -0.3408  1.1953
  141MOL0     C18929   8.461  11.774   4.559  0.1470 -0.3611  0.1736
  141MOL0     O18930   8.460  11.907   4.535  0.2911  0.5990  0.9033
  141MOL0     C18931   8.328  11.956   4.532  0.1850  0.1812  0.5995
  141MOL0     C18932   8.294  12.063   4.610  0.6347  0.3614 -0.7396
  141MOL0     C18933   8.174  12.126   4.596 -0.3970 -0.1349  0.0043
  141MOL0     C18934   8.087  12.080   4.491 -0.2198 -0.3751 -0.2536
  141MOL0     O18935   7.971  12.146   4.461 -0.0418  0.7612 -0.0304
  141MOL0     C18936   7.916  12.239   4.546 -1.1449 -0.5581  0.1239
  141MOL0     C18937   7.770  12.266   4.505 -0.4198  0.0268 -1.5621
  141MOL0     C18938   7.765  12.347   4.372 -0.3500  0.3616  0.1319
  141MOL0     C18939   7.646  12.312   4.281  0.4508  0.0811  0.2990
  141MOL0     C18940   7.519  12.375   4.343  1.0774  0.3796  0.6491
  141MOL0     C18941   7.402  12.358   4.250 -1.0386  0.3347  0.1135
  141MOL0     C18942   7.272  12.390   4.321 -0.2048  0.7745 -0.8123
  141MOL0     C18943   7.158  12.402   4.228 -0.1930 -0.3848  0.2974
  141MOL0    Cl18944   7.133  12.260   4.142  0.1112 -0.2033 -0.6146
  141MOL0     C18945   8.122  11.971   4.409  0.1471 -0.5214  0.6017
  141MOL0     C18946   8.242  11.906   4.432 -0.2906 -0.3925 -0.2536
  141MOL0     O18947   8.369  11.708   4.602  0.5458  0.1140  0.1500
  141MOL0     C18948   8.699  11.771   4.515 -0.1339 -0.7007 -0.8772
  141MOL0     C18949   8.821  11.706   4.497  0.3089 -1.2923  0.5502
  141MOL0     N18950   9.286  10.928   4.592  1.0728  0.3027  0.3631
  141MOL0     N18951   9.296  10.796   4.581 -0.2024  0.1368  0.5234
  141MOL0     C18952   9.552   9.880   4.312  0.9720 -0.2115 -0.3667
  141MOL0     C18953   9.434   9.814   4.291  0.9838  0.5147 -0.1829
  141MOL0     C18954   9.020   9.614   4.373 -0.1407  0.4008 -0.7745
  141MOL0     C18955   8.975   9.639   4.242  0.2409 -0.0452 -0.8938
  141MOL0     C18956   8.856   9.593   4.184 -1.2901 -0.2083 -0.1544
  141MOL0     C18957   8.774   9.523   4.267  0.1902  0.1982  0.3239
  141MOL0     O18958   8.653   9.496   4.204 -1.2858  0.0653  0.1295
  141MOL0     C18959   8.545   9.494   4.295 -0.3141  0.3071  0.3499
  141MOL0     C18960   8.408   9.514   4.224 -0.0532  0.1810  0.1174
  141MOL0     C18961   8.382   9.383   4.148  0.8702  0.4465  0.4174
  141MOL0     C18962   8.244   9.388   4.074  0.2022 -0.8407  1.0207
  141MOL0     C18963   8.124   9.400   4.165  0.2802 -0.2955 -0.1952
  141MOL0     C18964   8.038   9.427   4.245  0.7449 -0.2048  0.0627
  141MOL0     C18965   8.816   9.485   4.394  0.9367  0.0731  0.5834
  141MOL0     C18966   8.933   9.532   4.450  0.9650  0.2876 -0.5936
  141MOL0     C18967   8.961   9.477   4.594 -0.4543 -0.1538  0.4369
  141MOL0     H18968   9.235   9.953   4.528 -1.0157  1.9261 -2.6155
  141MOL0     H18969   9.453  10.063   4.584 -0.5411 -0.9177  1.5089
  141MOL0     H18970   9.786  10.018   4.258 -3.0844 -1.4716 -1.5001
  141MOL0     H18971   9.649  10.123   4.257  1.4856  0.3597 -1.6711
  141MOL0     H18972   9.862  10.246   4.246  1.5289 -1.8424  0.0585
  141MOL0     H18973   9.922  10.169   4.379  1.1838 -1.8175 -1.9221
  141MOL0     H18974   9.856  10.377   4.454  1.9074 -3.7179  0.9654
  141MOL0     H18975   9.755  10.267   4.539 -0.9125 -1.6752 -1.3194
  141MOL0     H18976   9.665  10.435   4.291  1.9504 -1.1120 -0.5219
  141MOL0     H18977   9.572  10.326   4.385 -2.2143  2.9197  1.0520
  141MOL0     H18978   9.522  10.492   4.550 -1.5464 -0.4970 -1.3963
  141MOL0     H18979   9.700  10.523   4.554  1.9350 -0.5016 -1.7411
  141MOL0     H18980   9.567  10.725   4.480 -2.4802  1.5651 -2.8418
  141MOL0     H18981   9.679  10.678   4.348  0.1128  0.8928 -0.2799
  141MOL0     H18982   9.460  10.553   4.254 -1.1665 -1.2644  0.7132
  141MOL0     H18983   9.471  10.731   4.256  0.6379  0.1252  0.9998
  141MOL0     H18984   9.258  10.598   4.332 -2.0320  3.4652  0.1233
  141MOL0     H18985   9.340  10.571   4.484 -4.0919 -0.9407 -1.1509
  141MOL0     H18986   9.264  10.883   4.258  0.9116 -0.2287 -0.2089
  141MOL0     H18987   9.321  11.188   4.467 -2.8646  2.6300  1.4093
  141MOL0     H18988   9.251  11.121   4.324  0.7979 -2.3565 -0.6425
  141MOL0     H18989   9.027  11.125   4.426  1.1915  0.6463 -2.8181
  141MOL0     H18990   9.097  11.142   4.593  1.4526  1.0969  0.9258
  141MOL0     H18991   9.144  11.366   4.406 -0.4525  0.1214 -0.6566
  141MOL0     H18992   9.176  11.350   4.585 -1.8149  1.2062  0.9683
  141MOL0     H18993   8.926  11.328   4.612  1.9667  0.1411  1.1628
  141MOL0     H18994   8.900  11.318   4.440  0.5294 -0.6667 -0.1962
  141MOL0     H18995   8.699  11.382   4.552 -3.2285 -0.8773  1.2647
  141MOL0     H18996   8.501  11.506   4.573 -0.5747  0.3415 -3.4030
  141MOL0     H18997   8.364  12.088   4.689  3.0022 -1.7971 -2.0273
  141MOL0     H18998   8.151  12.208   4.663 -1.8390 -0.0519 -0.5604
  141MOL0     H18999   7.918  12.193   4.645  2.4943 -0.3501  0.2736
  141MOL0     H19000   7.986  12.323   4.547  0.1589 -1.4984 -2.3890
  141MOL0     H19001   7.710  12.174   4.506  1.4931 -1.2834 -0.8239
  141MOL0     H19002   7.728  12.330   4.583  0.9507 -2.1880  1.1516
  141MOL0     H19003   7.766  12.449   4.412  1.3011  0.9515 -1.3074
  141MOL0     H19004   7.859  12.330   4.318 -0.4995  1.2908 -0.4259
  141MOL0     H19005   7.621  12.206   4.272  1.0894 -0.1798  1.4007
  141MOL0     H19006   7.659  12.340   4.176  0.8792 -0.4886  0.1951
  141MOL0     H19007   7.539  12.477   4.375  1.5091  1.1351 -1.7922
  141MOL0     H19008   7.483  12.314   4.426 -1.1871 -1.4611 -1.5021
  141MOL0     H19009   7.410  12.430   4.168 -1.5020  3.7298  2.8094
  141MOL0     H19010   7.401  12.257   4.209  3.1456  1.3765 -3.2838
  141MOL0     H19011   7.277  12.481   4.382  0.5137 -0.5113  1.1526
  141MOL0     H19012   7.239  12.307   4.385 -0.7124 -1.4616 -3.7551
  141MOL0     H19013   7.070  12.409   4.292  0.7632  0.8895  1.5498
  141MOL0     H19014   7.172  12.485   4.158  0.8517 -0.6750  0.1364
  141MOL0     H19015   8.043  11.931   4.346 -1.2235 -1.2292  2.6580
  141MOL0     H19016   8.254  11.818   4.370  1.3971  0.6614 -1.5050
  141MOL0     H19017   8.698  11.880   4.508  0.1576 -0.5794  0.6426
  141MOL0     H19018   8.907  11.772   4.491  0.5172 -1.6824 -1.1900
  141MOL0     H19019   9.642   9.865   4.253  0.9348  0.3396 -0.5719
  141MOL0     H19020   9.430   9.751   4.203  0.4799 -0.6354  0.6371
  141MOL0     H19021   9.038   9.699   4.176  1.9591 -1.9592 -1.0980
  141MOL0     H19022   8.833   9.635   4.086 -1.1814  1.6815  0.5873
  141MOL0     H19023   8.547   9.574   4.370 -0.0659 -0.4390  1.1476
  141MOL0     H19024   8.555   9.403   4.355 -1.3387  2.6111  4.4418
  141MOL0     H19025   8.403   9.603   4.160  1.9762 -0.3467 -0.8808
  141MOL0     H19026   8.325   9.528   4.293 -0.0820  0.0279  0.1130
  141MOL0     H19027   8.388   9.298   4.216 -0.0597  0.8631  1.0375
  141MOL0     H19028   8.456   9.384   4.068 -0.1196  1.3440 -0.5154
  141MOL0     H19029   8.241   9.468   3.999 -0.4678 -2.8172 -1.1773
  141MOL0     H19030   8.240   9.294   4.019  1.7180  0.2226 -1.0528
  141MOL0     H19031   7.954   9.462   4.301  0.5304  1.7454 -1.3835
  141MOL0     H19032   8.750   9.426   4.457 -1.4758  3.7302  1.7587
  141MOL0     H19033   9.067   9.452   4.598 -0.3432  0.0100 -0.9827
  141MOL0     H19034   8.922   9.546   4.669  0.4124 -2.4316  3.1242
  141MOL0     H19035   8.911   9.381   4.611  1.4526 -0.6967  3.6863
  142MOL0     O19036   2.933   7.514   9.649 -0.0276  0.1490 -0.1287
  142MOL0     C19037   2.914   7.629   9.682 -0.6489 -0.2855 -0.1704
  142MOL0     O19038   3.008   7.725   9.685 -1.1088 -0.6395  1.0208
  142MOL0     C19039   3.143   7.716   9.649 -0.2558  0.1424  0.6636
  142MOL0     C19040   3.211   7.608   9.587 -0.7751  0.8520 -0.2254
  142MOL0     C19041   3.351   7.622   9.567  0.1773  0.1346  0.6418
  142MOL0     C19042   3.420   7.742   9.588  0.8433 -0.1150  0.7910
  142MOL0     O19043   3.547   7.756   9.550  0.5555  0.1253  0.8148
  142MOL0     C19044   3.637   7.846   9.622 -0.2120  0.0173  1.0043
  142MOL0     C19045   3.759   7.856   9.520  0.6433 -0.6730 -0.2799
  142MOL0     C19046   3.861   7.952   9.583  0.0517  0.1646  0.4450
  142MOL0     C19047   3.998   7.933   9.526 -0.6394 -0.6011  0.2471
  142MOL0     C19048   4.090   8.046   9.595 -0.2235 -0.8371  0.2913
  142MOL0     C19049   4.235   8.027   9.573 -0.8029  0.7030  0.4556
  142MOL0     C19050   4.295   7.906   9.642  0.0879  0.1510  0.2387
  142MOL0     C19051   4.426   7.929   9.715  0.1333 -0.4216  0.4040
  142MOL0     N19052   4.540   7.956   9.627  0.0945 -0.3737  0.3066
  142MOL0     C19053   4.628   8.058   9.664  0.3537 -0.4413  0.1046
  142MOL0     C19054   4.734   8.040   9.582  0.9291  0.2883  0.5152
  142MOL0     C19055   4.848   8.139   9.558  0.3310 -0.6435 -0.2796
  142MOL0     C19056   4.803   8.248   9.452  0.7318 -0.4609  0.2171
  142MOL0     C19057   4.806   8.203   9.308 -0.1665  0.4476  0.7845
  142MOL0     C19058   4.728   8.305   9.217 -0.0787  0.0861  1.2982
  142MOL0     O19059   4.701   8.245   9.089  0.0364 -0.0288  0.1004
  142MOL0     C19060   4.811   8.233   9.009 -0.1531  0.2471  0.1771
  142MOL0     C19061   4.856   8.346   8.940  0.1117 -0.5537 -0.1088
  142MOL0     C19062   4.978   8.336   8.870  0.2103  0.4353 -0.5055
  142MOL0     C19063   5.056   8.216   8.872  0.7220  0.6737  0.0720
  142MOL0     C19064   5.190   8.212   8.812  0.1567 -0.2378 -0.0967
  142MOL0     O19065   5.247   8.091   8.776 -0.0912  0.2293  0.2902
  142MOL0     C19066   5.367   8.094   8.722 -0.1867  0.2090 -0.3072
  142MOL0     C19067   5.405   8.017   8.608  0.3030  0.3937 -0.2166
  142MOL0     C19068   5.540   7.997   8.573  0.2136 -0.0355 -0.0967
  142MOL0     C19069   5.644   8.047   8.645  1.9320  0.0741  0.6216
  142MOL0     O19070   5.769   8.019   8.612  0.4747  0.2387 -0.0532
  142MOL0     C19071   5.878   8.011   8.710  0.0306  0.4917  0.5084
  142MOL0     C19072   6.012   7.988   8.627 -0.6935  0.0418 -0.0612
  142MOL0     C19073   6.138   7.982   8.716  1.3740  0.4372 -0.1014
  142MOL0     C19074   6.187   7.840   8.769  1.3791 -0.5015  0.1259
  142MOL0     C19075   6.282   7.863   8.889  0.3436  0.1599  0.6451
  142MOL0     C19076   6.408   7.951   8.869  0.3390  0.2268 -0.4046
  142MOL0     C19077   6.516   7.941   8.986 -0.0265 -0.1081  1.1075
  142MOL0     C19078   6.556   7.795   9.022 -0.7077 -0.0881  0.6703
  142MOL0    Cl19079   6.661   7.724   8.888  0.0444 -1.0534 -0.0103
  142MOL0     C19080   5.608   8.127   8.751 -0.2434 -0.0517  0.6705
  142MOL0     C19081   5.471   8.139   8.797 -0.1307  0.9612  0.1147
  142MOL0     O19082   5.243   8.323   8.799  0.0535 -0.5817 -0.8009
  142MOL0     C19083   5.001   8.110   8.939  0.0210  0.1383 -0.4214
  142MOL0     C19084   4.883   8.114   9.008  0.5370  0.3570 -1.3501
  142MOL0     N19085   4.703   7.937   9.484  0.9022  0.2106 -0.1071
  142MOL0     N19086   4.589   7.882   9.520 -0.0740 -0.2301 -0.6038
  142MOL0     C19087   3.348   7.851   9.639 -0.3412  0.9205 -0.5497
  142MOL0     C19088   3.208   7.839   9.661  0.4613 -0.1000 -0.7964
  142MOL0     C19089   2.779   7.666   9.731 -0.1761 -0.3981 -0.5828
  142MOL0     C19090   2.667   7.610   9.674  0.3265  0.1809 -0.3210
  142MOL0     C19091   2.539   7.650   9.721 -0.2150  0.3664  0.0408
  142MOL0     C19092   2.529   7.724   9.830 -0.3691 -0.2241  0.2553
  142MOL0     O19093   2.413   7.782   9.875  0.1464 -0.3549 -0.9490
  142MOL0     C19094   2.359   7.713   9.984  0.0871  0.6772 -0.5665
  142MOL0     C19095   2.207   7.706   9.963 -0.3154  0.7688  0.0888
  142MOL0     C19096   2.137   7.835   9.910  0.1590  0.1796 -1.1359
  142MOL0     C19097   1.991   7.817   9.876  0.4054 -0.8606 -0.6403
  142MOL0     C19098   1.910   7.803  10.007  0.6990  0.2646  0.5572
  142MOL0     C19099   1.834   7.810  10.099  0.1025 -0.8339 -0.2756
  142MOL0     C19100   2.637   7.770   9.895 -0.1627 -0.2707  0.1293
  142MOL0     C19101   2.767   7.751   9.844  0.1941 -0.5825  0.5479
  142MOL0     C19102   2.874   7.820   9.913  0.5260  0.8489 -0.4518
  142MOL0     H19103   3.162   7.513   9.568  0.3094  0.2806 -0.2569
  142MOL0     H19104   3.411   7.539   9.531  0.1289  0.5885 -0.5067
  142MOL0     H19105   3.602   7.945   9.653  0.6381  1.0021 -1.0257
  142MOL0     H19106   3.673   7.796   9.713  0.0110 -2.4936 -0.3942
  142MOL0     H19107   3.724   7.879   9.419  1.1022 -0.7759 -0.4621
  142MOL0     H19108   3.799   7.754   9.522 -0.5734 -1.1769 -0.3232
  142MOL0     H19109   3.870   7.942   9.692  0.4844  1.3035  0.5306
  142MOL0     H19110   3.818   8.052   9.569 -1.4399 -0.6078 -0.7966
  142MOL0     H19111   4.034   7.833   9.551  0.6955 -0.5843 -1.4097
  142MOL0     H19112   3.993   7.951   9.418 -1.0660  1.2102  0.5270
  142MOL0     H19113   4.054   8.138   9.549  0.5417 -1.2575 -1.2260
  142MOL0     H19114   4.075   8.067   9.701  0.6565  0.6826  0.1400
  142MOL0     H19115   4.261   8.032   9.467  1.5931 -4.3611  0.5308
  142MOL0     H19116   4.285   8.112   9.620  1.0143 -0.1190  0.0962
  142MOL0     H19117   4.311   7.833   9.562  0.2097 -0.1517  0.5373
  142MOL0     H19118   4.221   7.853   9.702  0.6596  0.3956  1.1944
  142MOL0     H19119   4.406   8.018   9.777 -1.2315 -1.7913  2.0614
  142MOL0     H19120   4.452   7.838   9.770  1.1141 -0.5279 -0.2158
  142MOL0     H19121   4.605   8.140   9.731 -2.4001  0.1554 -1.3882
  142MOL0     H19122   4.883   8.181   9.653 -0.3306 -1.6164  0.4106
  142MOL0     H19123   4.925   8.077   9.510  0.1808  0.5199 -2.1504
  142MOL0     H19124   4.699   8.278   9.469  0.1845 -2.5376  0.8689
  142MOL0     H19125   4.870   8.331   9.476 -0.2344 -0.1991  2.2647
  142MOL0     H19126   4.759   8.104   9.299 -0.5426  0.4516  2.4489
  142MOL0     H19127   4.908   8.195   9.270 -1.2537 -1.5523 -2.0487
  142MOL0     H19128   4.787   8.395   9.198  0.5573 -0.7434 -1.0128
  142MOL0     H19129   4.635   8.337   9.263 -0.3373  3.3473 -1.1677
  142MOL0     H19130   4.803   8.440   8.948  3.4806  1.5984 -0.7279
  142MOL0     H19131   5.025   8.426   8.830 -1.9105  2.0355  0.4133
  142MOL0     H19132   5.323   7.970   8.554 -1.3434  0.2688  2.2584
  142MOL0     H19133   5.554   7.945   8.479 -1.5305 -0.5605 -0.1030
  142MOL0     H19134   5.889   8.100   8.772  0.2729  1.7470 -1.2655
  142MOL0     H19135   5.866   7.932   8.785 -2.8350 -1.9755 -2.2696
  142MOL0     H19136   6.010   7.893   8.573  2.6931 -0.4166  0.3774
  142MOL0     H19137   6.026   8.065   8.551 -0.5462  1.9475  1.8038
  142MOL0     H19138   6.220   8.018   8.652 -0.5295  3.1873 -1.1963
  142MOL0     H19139   6.120   8.047   8.802 -0.7337 -2.2366  1.6422
  142MOL0     H19140   6.228   7.784   8.684 -1.9744 -2.1750 -0.5615
  142MOL0     H19141   6.096   7.787   8.799 -1.8552  3.9238 -0.8188
  142MOL0     H19142   6.292   7.763   8.933 -1.3889 -1.6681 -2.7473
  142MOL0     H19143   6.215   7.906   8.965 -2.1881 -1.6857 -0.4075
  142MOL0     H19144   6.449   7.910   8.777 -2.0309 -3.3429 -0.1209
  142MOL0     H19145   6.373   8.054   8.862 -1.3485 -0.2876 -0.0497
  142MOL0     H19146   6.464   7.983   9.073  0.4985  1.1535  0.8294
  142MOL0     H19147   6.608   7.993   8.956 -1.2565  0.1683 -2.7216
  142MOL0     H19148   6.617   7.798   9.112  0.7619  0.8667 -0.3065
  142MOL0     H19149   6.476   7.722   9.039 -1.2523  0.0544 -0.9932
  142MOL0     H19150   5.677   8.171   8.822 -1.9506  3.3214  0.4683
  142MOL0     H19151   5.451   8.180   8.895 -1.5617 -0.3342  0.3899
  142MOL0     H19152   5.055   8.016   8.939  1.3756  0.8726  0.9998
  142MOL0     H19153   4.851   8.025   9.062  1.4773  0.7195 -0.1692
  142MOL0     H19154   3.378   7.955   9.645 -3.5689  1.9107  1.6855
  142MOL0     H19155   3.151   7.918   9.708  1.6404  0.7792 -0.8071
  142MOL0     H19156   2.682   7.537   9.595  0.3468 -1.8365  1.4694
  142MOL0     H19157   2.448   7.624   9.668  1.4836  0.5507 -3.2600
  142MOL0     H19158   2.387   7.766  10.075  0.1149  0.4405 -0.4351
  142MOL0     H19159   2.404   7.615  10.003 -0.6134 -0.0256 -2.3462
  142MOL0     H19160   2.170   7.681  10.063 -1.1186  2.0614  0.1339
  142MOL0     H19161   2.168   7.622   9.904 -3.6900  0.9643  1.7698
  142MOL0     H19162   2.191   7.871   9.821 -0.9481  3.4193 -0.6173
  142MOL0     H19163   2.146   7.908   9.990 -0.9969 -1.9843  1.1243
  142MOL0     H19164   1.962   7.898   9.809  1.8530  0.2364  0.0082
  142MOL0     H19165   1.962   7.730   9.817  0.1979 -0.8757 -0.5146
  142MOL0     H19166   1.763   7.828  10.178 -1.9549 -0.7264 -2.0364
  142MOL0     H19167   2.620   7.840   9.975  0.8651  2.3098 -1.7652
  142MOL0     H19168   2.939   7.745   9.958 -2.1652  0.9590  4.3114
  142MOL0     H19169   2.928   7.891   9.850  2.1689  0.8057  0.8230
  142MOL0     H19170   2.831   7.881   9.994 -2.1404 -2.1979  0.6311
  143MOL0     O19171   9.111   7.065   2.110 -1.1822  0.3396 -0.6838
  143MOL0     C19172   9.078   7.032   1.998  0.4040  0.7665 -0.4622
  143MOL0     O19173   8.948   7.032   1.949 -0.5504  0.2958  0.2474
  143MOL0     C19174   8.847   7.077   2.028  0.1166  0.2348  0.3326
  143MOL0     C19175   8.801   7.206   2.013  0.4355  0.0237 -0.5013
  143MOL0     C19176   8.705   7.264   2.095  0.9990  0.2116 -0.2086
  143MOL0     C19177   8.648   7.192   2.200 -0.4619 -0.5763  0.1182
  143MOL0     O19178   8.561   7.265   2.279  0.0260 -0.1958  0.2276
  143MOL0     C19179   8.568   7.234   2.422 -0.5986  0.3876  0.5142
  143MOL0     C19180   8.459   7.320   2.492 -0.6725 -0.9933 -0.0575
  143MOL0     C19181   8.325   7.267   2.473  0.5456 -0.2095 -0.0709
  143MOL0     C19182   8.227   7.378   2.427 -0.4520 -0.4569 -0.2003
  143MOL0     C19183   8.090   7.316   2.409 -0.1113 -0.8019 -0.7596
  143MOL0     C19184   8.000   7.421   2.349 -0.3781  0.6855 -0.8336
  143MOL0     C19185   7.849   7.386   2.348 -0.1961 -0.2094 -0.5145
  143MOL0     C19186   7.775   7.462   2.237  0.3402 -0.2688  0.2815
  143MOL0     N19187   7.783   7.604   2.257 -0.0151 -0.4212 -0.7595
  143MOL0     C19188   7.905   7.672   2.239 -0.1985  0.1428  0.1453
  143MOL0     C19189   7.888   7.793   2.302  0.0627 -0.3618 -0.2184
  143MOL0     C19190   7.995   7.893   2.325  0.1421 -0.6507 -0.9596
  143MOL0     C19191   8.092   7.860   2.436  0.5662  0.1751 -0.7366
  143MOL0     C19192   8.214   7.781   2.385 -0.8965 -0.5616 -0.2670
  143MOL0     C19193   8.313   7.789   2.497 -0.0722 -0.3529  0.3195
  143MOL0     O19194   8.424   7.718   2.444 -0.5167 -0.0607  0.0423
  143MOL0     C19195   8.544   7.727   2.519 -0.3169 -0.1856 -0.4922
  143MOL0     C19196   8.660   7.681   2.455  0.0506 -0.0295  0.4093
  143MOL0     C19197   8.783   7.679   2.522 -0.0142 -0.9547  0.9538
  143MOL0     C19198   8.799   7.704   2.654  0.4354 -0.7270 -0.4462
  143MOL0     C19199   8.925   7.684   2.726 -0.7393  0.8664 -0.0430
  143MOL0     O19200   9.035   7.645   2.661 -0.2040  0.1521  0.2492
  143MOL0     C19201   9.139   7.642   2.745 -0.8826 -0.1371  0.2152
  143MOL0     C19202   9.217   7.753   2.771 -0.6343 -0.2218  0.1217
  143MOL0     C19203   9.345   7.743   2.832  0.4427 -0.1573 -0.6596
  143MOL0     C19204   9.398   7.619   2.868 -0.3646  0.0281 -0.0517
  143MOL0     O19205   9.509   7.627   2.944 -0.1059  0.0707  0.2566
  143MOL0     C19206   9.620   7.540   2.918  0.1686  1.5535  0.4061
  143MOL0     C19207   9.638   7.457   3.048  0.0386 -0.1895  0.2221
  143MOL0     C19208   9.532   7.349   3.067 -0.3156  0.4716  0.1337
  143MOL0     C19209   9.539   7.304   3.218  0.6034  0.0202  0.0683
  143MOL0     C19210   9.672   7.235   3.250 -0.4921  0.8361  0.9654
  143MOL0     C19211   9.694   7.204   3.400  0.6042 -0.6224 -0.1670
  143MOL0     C19212   9.837   7.169   3.430 -0.8861 -0.4620 -0.0006
  143MOL0     C19213   9.863   7.157   3.580 -0.3754  0.6793  0.6636
  143MOL0    Cl19214   9.808   6.991   3.633 -0.0219  0.0252 -0.4105
  143MOL0     C19215   9.330   7.507   2.820 -0.2146  0.4035  0.3733
  143MOL0     C19216   9.207   7.521   2.754 -0.2845 -0.5749  0.4238
  143MOL0     O19217   8.919   7.736   2.840 -0.0166  0.1859  0.6506
  143MOL0     C19218   8.683   7.752   2.716  0.1755 -0.2772  0.6097
  143MOL0     C19219   8.553   7.770   2.648 -0.5524 -0.0110  0.1063
  143MOL0     N19220   7.758   7.791   2.360  0.4481  0.0587 -0.2034
  143MOL0     N19221   7.700   7.678   2.331  0.3810 -0.1081  0.1016
  143MOL0     C19222   8.700   7.063   2.222  0.5387  0.4344  0.8542
  143MOL0     C19223   8.787   7.000   2.131  1.0185 -0.2356 -0.9727
  143MOL0     C19224   9.194   6.991   1.903  0.1702  0.1421 -0.0778
  143MOL0     C19225   9.161   6.915   1.794 -0.6594 -0.0450 -0.7053
  143MOL0     C19226   9.264   6.887   1.710  0.5313  0.7181  0.3947
  143MOL0     C19227   9.402   6.916   1.730 -0.2093  0.8983 -1.0233
  143MOL0     O19228   9.510   6.885   1.652  0.7265  0.1693 -0.1510
  143MOL0     C19229   9.539   6.987   1.560 -0.0421  0.0858 -0.0227
  143MOL0     C19230   9.670   7.050   1.612  0.4514 -0.1560  0.0737
  143MOL0     C19231   9.765   7.103   1.499  0.1969  0.8440 -0.8902
  143MOL0     C19232   9.896   7.141   1.547 -0.5450 -0.4626  0.4911
  143MOL0     C19233  10.001   7.167   1.442 -0.5786  0.4896 -0.0797
  143MOL0     C19234  10.095   7.191   1.367  0.3071 -0.9581  0.4382
  143MOL0     C19235   9.432   6.983   1.848  0.0127 -0.4252 -0.0960
  143MOL0     C19236   9.329   7.020   1.932  0.0498 -0.1465  0.3347
  143MOL0     C19237   9.375   7.097   2.057  0.4101  0.6266  0.0201
  143MOL0     H19238   8.850   7.265   1.936  1.6175 -0.3013 -0.0310
  143MOL0     H19239   8.673   7.367   2.096 -2.0851 -0.6594 -0.5307
  143MOL0     H19240   8.547   7.128   2.434 -4.1616  1.1246  1.9849
  143MOL0     H19241   8.664   7.256   2.470 -2.1177  2.6150  2.7962
  143MOL0     H19242   8.464   7.422   2.453 -2.4670 -0.8786 -0.0616
  143MOL0     H19243   8.474   7.331   2.599 -1.4366  0.8585 -0.1145
  143MOL0     H19244   8.289   7.207   2.557  1.0719 -0.1921  0.1712
  143MOL0     H19245   8.329   7.190   2.396  0.7298 -0.0769 -0.1948
  143MOL0     H19246   8.209   7.452   2.506 -1.2876  0.0460 -0.8433
  143MOL0     H19247   8.265   7.425   2.337 -0.5053 -0.2493 -0.1155
  143MOL0     H19248   8.078   7.228   2.346 -2.3558 -0.1947 -1.2701
  143MOL0     H19249   8.052   7.295   2.509  0.0472  3.2758  0.3564
  143MOL0     H19250   8.005   7.507   2.416 -0.5314 -0.7062  1.0650
  143MOL0     H19251   8.023   7.438   2.244  0.6232 -0.2234 -0.7765
  143MOL0     H19252   7.802   7.413   2.443  0.0210  3.6148 -1.3366
  143MOL0     H19253   7.834   7.279   2.330 -2.2410 -0.3643  1.6873
  143MOL0     H19254   7.812   7.445   2.136 -1.4156 -2.1644 -0.1156
  143MOL0     H19255   7.670   7.430   2.241  0.4647 -0.6520  3.4781
  143MOL0     H19256   7.996   7.634   2.193 -0.3504 -2.3460  1.7004
  143MOL0     H19257   8.044   7.907   2.228  0.0377  1.1101 -0.7917
  143MOL0     H19258   7.956   7.994   2.338  2.3329  0.8039 -4.3138
  143MOL0     H19259   8.124   7.954   2.481  0.9645  1.1111 -2.8557
  143MOL0     H19260   8.047   7.791   2.508  1.6694 -0.5454 -0.7037
  143MOL0     H19261   8.251   7.836   2.298 -0.3400  1.7572  1.3370
  143MOL0     H19262   8.188   7.677   2.364 -0.9242 -0.6813  0.3611
  143MOL0     H19263   8.268   7.737   2.582  2.2078  1.7522  2.9785
  143MOL0     H19264   8.342   7.892   2.520  2.0536 -0.8889  0.2824
  143MOL0     H19265   8.651   7.634   2.358  0.1240 -0.2233  0.4956
  143MOL0     H19266   8.872   7.653   2.465  0.6213 -2.2515  2.4861
  143MOL0     H19267   9.170   7.846   2.741  2.4062  1.0046 -1.2047
  143MOL0     H19268   9.392   7.838   2.858 -1.5300 -0.1449  3.5808
  143MOL0     H19269   9.596   7.464   2.843  0.3282  0.5980  1.3001
  143MOL0     H19270   9.712   7.597   2.898  0.4539  1.5728  1.7139
  143MOL0     H19271   9.737   7.414   3.031  0.5282  1.6117 -2.0382
  143MOL0     H19272   9.643   7.518   3.139  0.4865 -1.3120  0.9757
  143MOL0     H19273   9.433   7.391   3.045  0.2038  0.6932 -1.9228
  143MOL0     H19274   9.548   7.268   2.996  0.8011  0.9784 -0.2106
  143MOL0     H19275   9.467   7.221   3.220  0.1026  0.1880 -3.7972
  143MOL0     H19276   9.514   7.379   3.293 -0.5933 -1.6847  1.4707
  143MOL0     H19277   9.758   7.296   3.220 -1.7236  1.1715 -2.3134
  143MOL0     H19278   9.686   7.145   3.189  0.4769  2.1137 -0.8067
  143MOL0     H19279   9.666   7.293   3.457  0.4456  0.5533 -1.9974
  143MOL0     H19280   9.628   7.123   3.433 -0.3657  0.1172 -0.2110
  143MOL0     H19281   9.909   7.237   3.383  0.6643 -0.4866  2.2273
  143MOL0     H19282   9.847   7.067   3.393 -0.2184  0.5363 -2.8531
  143MOL0     H19283   9.970   7.162   3.601  0.0919 -0.4533 -1.1388
  143MOL0     H19284   9.808   7.233   3.636 -4.3474 -0.6603 -1.0543
  143MOL0     H19285   9.376   7.409   2.816 -2.6694 -0.8665  1.0344
  143MOL0     H19286   9.164   7.429   2.715  0.6329 -0.1292 -1.7948
  143MOL0     H19287   8.701   7.774   2.821 -3.0522  0.0675  1.1959
  143MOL0     H19288   8.472   7.818   2.703 -0.5903 -0.7521  0.7092
  143MOL0     H19289   8.673   6.996   2.304  1.6637  0.3601  1.1742
  143MOL0     H19290   8.816   6.897   2.142 -3.4466 -1.7857 -1.5286
  143MOL0     H19291   9.063   6.871   1.776 -1.3940  0.4014  1.7937
  143MOL0     H19292   9.237   6.826   1.624 -1.1829  1.4494  0.3819
  143MOL0     H19293   9.465   7.064   1.537  1.6220  0.7759 -3.9359
  143MOL0     H19294   9.561   6.938   1.465 -1.1684 -0.0685 -0.2204
  143MOL0     H19295   9.723   6.976   1.674  0.5969  0.0896  0.2422
  143MOL0     H19296   9.648   7.134   1.678 -0.2901 -0.0615 -0.2894
  143MOL0     H19297   9.720   7.183   1.439  0.7631 -0.2847 -2.8918
  143MOL0     H19298   9.774   7.011   1.441  1.9997 -0.3470  1.1399
  143MOL0     H19299   9.896   7.230   1.610  2.1544  0.6164 -0.8403
  143MOL0     H19300   9.925   7.061   1.615 -2.0713 -1.7455 -0.3013
  143MOL0     H19301  10.180   7.214   1.307  1.6146 -0.7393  2.2706
  143MOL0     H19302   9.535   7.012   1.867  0.6195 -1.2410 -1.9740
  143MOL0     H19303   9.345   7.058   2.154  0.6392 -1.4853 -0.6913
  143MOL0     H19304   9.485   7.100   2.051  0.5307 -0.7622  1.1073
  143MOL0     H19305   9.350   7.202   2.043  1.3805  0.6669 -1.9013
  144MOL0     O19306   7.972   2.681   3.379 -0.4764 -0.0626 -0.5548
  144MOL0     C19307   7.895   2.705   3.290  0.5418  0.2516 -0.0895
  144MOL0     O19308   7.920   2.795   3.188  0.8050  0.2005 -0.0893
  144MOL0     C19309   8.035   2.861   3.193  0.5323 -0.1795  0.1696
  144MOL0     C19310   8.056   2.970   3.292  0.2613  1.0781 -0.1269
  144MOL0     C19311   8.182   3.024   3.297 -0.5133  1.0792  0.7162
  144MOL0     C19312   8.279   2.995   3.195 -0.0728 -1.0556  0.8367
  144MOL0     O19313   8.398   3.065   3.182  0.0852 -0.2003  0.7023
  144MOL0     C19314   8.383   3.206   3.162 -0.1594  0.3959  0.3752
  144MOL0     C19315   8.527   3.255   3.148  0.2216  0.0229 -0.2606
  144MOL0     C19316   8.526   3.390   3.086  0.2367  0.1456  0.7079
  144MOL0     C19317   8.540   3.381   2.933  0.3255 -0.5688 -0.0811
  144MOL0     C19318   8.526   3.519   2.875  0.3929 -0.2462  0.3155
  144MOL0     C19319   8.640   3.609   2.911  0.0702 -0.0927 -0.0676
  144MOL0     C19320   8.771   3.558   2.848 -0.0703 -0.8531 -0.1766
  144MOL0     C19321   8.892   3.649   2.887 -0.0932 -0.3598 -0.5291
  144MOL0     N19322   9.017   3.637   2.808 -0.6016  0.1073 -0.0802
  144MOL0     C19323   9.048   3.709   2.699  0.2253 -0.7091  0.7651
  144MOL0     C19324   9.177   3.689   2.664  0.3370  0.2765 -1.1347
  144MOL0     C19325   9.252   3.746   2.553 -0.0242 -0.3405  0.8588
  144MOL0     C19326   9.221   3.668   2.427  0.8357 -0.5975 -0.5960
  144MOL0     C19327   9.264   3.746   2.302  0.7166  1.2550 -0.3264
  144MOL0     C19328   9.410   3.753   2.271 -0.7798  0.1597 -0.0780
  144MOL0     O19329   9.427   3.897   2.300  0.5997  0.0205  0.1444
  144MOL0     C19330   9.537   3.959   2.242 -1.2575 -0.6379 -0.0524
  144MOL0     C19331   9.655   3.899   2.207 -0.1319  0.1560 -0.0294
  144MOL0     C19332   9.765   3.975   2.158 -0.1077 -0.4505 -0.2883
  144MOL0     C19333   9.757   4.114   2.131  0.2916 -0.3111  1.0680
  144MOL0     C19334   9.866   4.184   2.075  0.0568 -1.0523  0.4115
  144MOL0     O19335   9.980   4.119   2.045  0.0538  0.4254 -0.5975
  144MOL0     C19336  10.094   4.195   2.019  0.0724 -0.3704 -0.5661
  144MOL0     C19337  10.119   4.258   1.896  0.2471 -0.6454  0.8745
  144MOL0     C19338  10.248   4.312   1.867  0.4114  0.0556  0.1995
  144MOL0     C19339  10.342   4.318   1.971 -1.0597 -0.7042 -0.2436
  144MOL0     O19340  10.465   4.375   1.938 -0.2744  0.6444 -0.3465
  144MOL0     C19341  10.549   4.298   1.853  1.0022 -0.8844 -0.5649
  144MOL0     C19342  10.666   4.380   1.817 -1.0656 -0.3023  0.7901
  144MOL0     C19343  10.747   4.300   1.703  0.5990  0.1251 -0.6456
  144MOL0     C19344  10.874   4.361   1.655  0.0569 -0.3083 -0.7095
  144MOL0     C19345  10.959   4.273   1.557  1.0847  0.2212  0.7248
  144MOL0     C19346  11.089   4.341   1.520 -0.6041 -0.0408 -0.2600
  144MOL0     C19347  11.067   4.445   1.394  0.1935 -0.4298 -0.1506
  144MOL0     C19348  11.196   4.503   1.335 -0.0330 -0.3439  0.3568
  144MOL0    Cl19349  11.313   4.561   1.454 -0.0240  0.1239  0.0351
  144MOL0     C19350  10.319   4.257   2.094  0.7052  0.3298  0.4184
  144MOL0     C19351  10.193   4.189   2.109 -0.0303 -0.5501 -0.3612
  144MOL0     O19352   9.853   4.303   2.076  0.1655 -0.4100  0.1085
  144MOL0     C19353   9.632   4.171   2.171 -0.9176 -0.2652  0.4324
  144MOL0     C19354   9.529   4.099   2.214 -0.0862  0.2883  0.7303
  144MOL0     N19355   9.224   3.610   2.769  0.6528  0.6074  0.3324
  144MOL0     N19356   9.125   3.572   2.848  0.4345 -0.0091 -0.2180
  144MOL0     C19357   8.259   2.897   3.100  0.0572  0.6107 -0.6347
  144MOL0     C19358   8.136   2.826   3.101  0.0799  0.0531  0.3333
  144MOL0     C19359   7.753   2.658   3.288  0.3816 -0.7348  0.7458
  144MOL0     C19360   7.656   2.688   3.187  0.2434  0.0698  0.6831
  144MOL0     C19361   7.527   2.638   3.187  0.2132  0.0429  0.1794
  144MOL0     C19362   7.485   2.547   3.272  0.0351 -0.0207  0.3778
  144MOL0     O19363   7.365   2.483   3.275 -0.1075 -0.3141 -0.0675
  144MOL0     C19364   7.301   2.477   3.145  0.2097 -1.1383 -0.2287
  144MOL0     C19365   7.169   2.401   3.175  0.0930  0.1975  0.2858
  144MOL0     C19366   7.202   2.256   3.207  0.1247  0.1660 -0.5304
  144MOL0     C19367   7.080   2.177   3.238  0.1698  0.3480  0.0915
  144MOL0     C19368   7.115   2.036   3.287  0.1780  0.8666  0.5361
  144MOL0     C19369   7.148   1.928   3.341  0.0748  0.0776  0.5348
  144MOL0     C19370   7.570   2.507   3.376 -1.2217 -1.6288 -0.8145
  144MOL0     C19371   7.703   2.572   3.392 -0.0300 -0.7220 -0.4870
  144MOL0     C19372   7.784   2.523   3.508  0.2716 -0.3141 -0.1633
  144MOL0     H19373   7.983   3.013   3.359 -0.2243 -1.7282  1.2807
  144MOL0     H19374   8.192   3.102   3.372 -1.8203  1.9097  0.0647
  144MOL0     H19375   8.324   3.222   3.071  1.4891 -2.1623 -1.2898
  144MOL0     H19376   8.334   3.245   3.252  3.8504  1.8077  2.1778
  144MOL0     H19377   8.593   3.187   3.093  1.2002  0.1505  0.7318
  144MOL0     H19378   8.568   3.263   3.249 -2.7309 -0.9332  1.1387
  144MOL0     H19379   8.604   3.449   3.134  0.5058  0.2318  0.1706
  144MOL0     H19380   8.433   3.444   3.108  0.6708  2.0171 -1.7193
  144MOL0     H19381   8.628   3.321   2.907  1.3194  0.4094  0.9210
  144MOL0     H19382   8.456   3.330   2.885  0.2905  1.0074 -1.8057
  144MOL0     H19383   8.511   3.511   2.766  0.9450 -1.1403  0.2932
  144MOL0     H19384   8.435   3.561   2.918  0.3468  0.5077 -0.4805
  144MOL0     H19385   8.624   3.714   2.882  0.7278  0.3807  1.2330
  144MOL0     H19386   8.648   3.621   3.019 -1.5962  3.7611 -0.2073
  144MOL0     H19387   8.755   3.566   2.740 -0.4945  0.1765 -0.0502
  144MOL0     H19388   8.802   3.458   2.880  4.9930  1.3429  3.0439
  144MOL0     H19389   8.857   3.752   2.876  1.4096  0.3327  0.7605
  144MOL0     H19390   8.920   3.619   2.988 -0.0041 -2.0073 -1.0161
  144MOL0     H19391   8.983   3.773   2.641  1.6973  0.4068  0.2956
  144MOL0     H19392   9.214   3.848   2.541 -0.2877 -0.7026 -2.0812
  144MOL0     H19393   9.359   3.741   2.572  0.8150  1.2298 -2.7054
  144MOL0     H19394   9.276   3.574   2.439  0.3017 -0.9037 -0.5527
  144MOL0     H19395   9.114   3.648   2.418  0.6637  0.5139 -1.3309
  144MOL0     H19396   9.227   3.848   2.311 -1.6403  0.4208  0.0598
  144MOL0     H19397   9.213   3.691   2.222  2.2609 -1.5786  0.4796
  144MOL0     H19398   9.429   3.731   2.165 -0.1362 -1.9095  0.4172
  144MOL0     H19399   9.467   3.687   2.337 -0.4246  1.1319  0.6086
  144MOL0     H19400   9.674   3.794   2.227 -0.5104  0.2583  0.9353
  144MOL0     H19401   9.859   3.920   2.150 -0.6563 -1.6245  0.9005
  144MOL0     H19402  10.044   4.258   1.818 -1.8294 -0.2674  2.7763
  144MOL0     H19403  10.265   4.335   1.762  1.1968 -1.3069 -0.0058
  144MOL0     H19404  10.579   4.201   1.894  0.5590 -1.2225 -1.0293
  144MOL0     H19405  10.494   4.269   1.763  2.0366 -2.6511 -0.6693
  144MOL0     H19406  10.648   4.482   1.781  2.2830 -0.0560 -0.5633
  144MOL0     H19407  10.741   4.388   1.896 -1.0781  2.2311  0.6197
  144MOL0     H19408  10.770   4.200   1.743 -1.4252  0.8213  2.6384
  144MOL0     H19409  10.689   4.292   1.610  0.3239  5.0801 -1.1534
  144MOL0     H19410  10.938   4.401   1.735  0.3676  3.7303 -2.7300
  144MOL0     H19411  10.846   4.445   1.591 -1.2177 -0.9210 -0.9843
  144MOL0     H19412  10.903   4.255   1.465  1.9408  3.2490 -0.5273
  144MOL0     H19413  10.974   4.177   1.607 -0.2210  0.6089  1.9234
  144MOL0     H19414  11.124   4.391   1.611 -2.3753  0.5168  0.1674
  144MOL0     H19415  11.158   4.265   1.482 -2.3575 -3.6658  3.1214
  144MOL0     H19416  11.009   4.531   1.430  0.3392 -0.9790  1.4752
  144MOL0     H19417  11.005   4.392   1.321 -1.5094  0.4052  0.6325
  144MOL0     H19418  11.238   4.418   1.282 -1.9426 -1.7586  0.9897
  144MOL0     H19419  11.168   4.587   1.271  1.2845 -0.8571 -0.9335
  144MOL0     H19420  10.394   4.266   2.171 -0.3573  3.3090  1.2037
  144MOL0     H19421  10.188   4.140   2.205  1.0082  3.2998  1.8678
  144MOL0     H19422   9.599   4.275   2.168 -1.0583 -0.3065  0.5301
  144MOL0     H19423   9.435   4.150   2.233 -0.5518  0.3005 -1.3073
  144MOL0     H19424   8.346   2.870   3.041 -0.8312  2.1651 -2.7742
  144MOL0     H19425   8.131   2.735   3.042  1.2002  1.4168 -2.0049
  144MOL0     H19426   7.680   2.769   3.119  2.0619 -2.3815 -1.8278
  144MOL0     H19427   7.456   2.678   3.116 -0.3096  1.3737  1.4021
  144MOL0     H19428   7.364   2.431   3.069 -0.7689 -3.5437  0.3276
  144MOL0     H19429   7.273   2.577   3.111 -1.5387 -0.9285  1.6301
  144MOL0     H19430   7.103   2.401   3.088 -0.9472 -1.3888  1.0331
  144MOL0     H19431   7.109   2.445   3.256 -1.6962 -1.1863 -0.2184
  144MOL0     H19432   7.262   2.258   3.299  0.4553  2.4045 -0.7370
  144MOL0     H19433   7.257   2.217   3.121 -1.0315 -1.6645 -0.4961
  144MOL0     H19434   7.037   2.221   3.328  4.5202  0.2905  2.4941
  144MOL0     H19435   7.004   2.183   3.160  1.7684  0.8255 -1.5128
  144MOL0     H19436   7.172   1.832   3.381  0.8483 -0.1417 -0.4205
  144MOL0     H19437   7.523   2.444   3.450 -0.9564 -0.1531  0.6826
  144MOL0     H19438   7.826   2.608   3.561  2.5009 -1.0923 -0.5621
  144MOL0     H19439   7.724   2.459   3.574  1.0919 -0.2535  0.6657
  144MOL0     H19440   7.871   2.471   3.466 -0.8649 -3.4376  1.0740
  145MOL0     O19441   3.337   0.245   8.352  0.0036 -0.4827  0.4408
  145MOL0     C19442   3.234   0.207   8.414  0.1892  0.2529  0.4722
  145MOL0     O19443   3.232   0.192   8.552  0.5548 -0.0154 -0.2825
  145MOL0     C19444   3.347   0.199   8.617  0.3641  0.3869 -0.2882
  145MOL0     C19445   3.347   0.300   8.712 -0.6209  0.4925  0.6386
  145MOL0     C19446   3.459   0.313   8.798 -0.0884 -0.1966 -0.3572
  145MOL0     C19447   3.560   0.219   8.795 -0.2727  0.6412  0.6208
  145MOL0     O19448   3.649   0.228   8.891  0.8362  0.4184 -0.0036
  145MOL0     C19449   3.705   0.100   8.944 -0.0272  0.0968  0.0267
  145MOL0     C19450   3.836   0.134   9.021 -0.7140  1.1499 -0.0060
  145MOL0     C19451   3.911   0.001   9.047  0.4984  0.1822 -0.4496
  145MOL0     C19452   4.037  -0.007   9.140  0.0359  0.5069 -0.0559
  145MOL0     C19453   3.978  -0.007   9.284 -0.0468 -0.4116 -0.5771
  145MOL0     C19454   4.081   0.028   9.391 -0.3504  0.0987  0.7137
  145MOL0     C19455   4.226  -0.028   9.380  0.5675 -0.2066  0.5605
  145MOL0     C19456   4.226  -0.181   9.369  0.9177  0.4011  0.3949
  145MOL0     N19457   4.358  -0.244   9.368  0.3579 -0.8357  0.2968
  145MOL0     C19458   4.447  -0.233   9.259 -0.0456  2.0247  0.2564
  145MOL0     C19459   4.559  -0.269   9.326 -0.3080 -0.3611  1.0533
  145MOL0     C19460   4.694  -0.273   9.258 -0.6951  0.7009  0.3751
  145MOL0     C19461   4.785  -0.390   9.307  0.5495 -1.0380 -0.0309
  145MOL0     C19462   4.914  -0.383   9.238 -0.1299  0.3983 -0.6331
  145MOL0     C19463   5.033  -0.455   9.302  0.9208  0.1772 -0.1446
  145MOL0     O19464   5.147  -0.467   9.219  0.4184  0.8456 -0.0811
  145MOL0     C19465   5.263  -0.493   9.282  0.3130 -0.8828 -0.2517
  145MOL0     C19466   5.265  -0.545   9.412  0.6713  0.5787  0.3234
  145MOL0     C19467   5.386  -0.585   9.476 -0.4952  0.1038  0.3882
  145MOL0     C19468   5.507  -0.584   9.404  0.2834 -0.7251  1.2898
  145MOL0     C19469   5.629  -0.615   9.467 -0.0195  0.1546 -0.1222
  145MOL0     O19470   5.626  -0.726   9.549  0.5163 -0.6943  1.4132
  145MOL0     C19471   5.743  -0.781   9.578 -0.1526  0.9252 -0.2043
  145MOL0     C19472   5.807  -0.870   9.483  0.0822 -0.8641 -1.0466
  145MOL0     C19473   5.944  -0.901   9.493  0.3456 -0.4218  0.7021
  145MOL0     C19474   6.027  -0.850   9.595 -0.0330 -0.7547 -0.7356
  145MOL0     O19475   6.162  -0.865   9.607  0.1071 -0.4817  0.2549
  145MOL0     C19476   6.236  -0.981   9.559  0.2314 -0.8887 -0.8521
  145MOL0     C19477   6.326  -0.947   9.444  0.9042  1.4533  0.5709
  145MOL0     C19478   6.438  -0.847   9.473  0.4120 -0.6720 -1.0545
  145MOL0     C19479   6.541  -0.895   9.579  0.3649  0.2071 -0.0558
  145MOL0     C19480   6.646  -0.799   9.611 -1.0103  0.2201 -0.0463
  145MOL0     C19481   6.583  -0.675   9.670  0.1439 -0.8001  0.0547
  145MOL0     C19482   6.688  -0.568   9.711 -0.6825 -0.4523  0.0262
  145MOL0     C19483   6.629  -0.434   9.747 -0.9184  0.4051  0.5139
  145MOL0    Cl19484   6.773  -0.354   9.823  0.2122 -0.4047  0.4509
  145MOL0     C19485   5.962  -0.758   9.683 -0.9331  1.1144  0.3838
  145MOL0     C19486   5.824  -0.724   9.680  0.5739 -0.2565 -0.1252
  145MOL0     O19487   5.730  -0.554   9.425  0.1343  0.5064 -0.1347
  145MOL0     C19488   5.503  -0.538   9.264  1.0571  0.4531 -0.0145
  145MOL0     C19489   5.379  -0.495   9.209 -0.0731 -0.6051  0.4021
  145MOL0     N19490   4.534  -0.305   9.455 -0.0881  0.6847 -0.5865
  145MOL0     N19491   4.408  -0.302   9.481  1.0670  0.6211  0.4943
  145MOL0     C19492   3.568   0.131   8.685  0.7073 -0.2314  0.5728
  145MOL0     C19493   3.460   0.116   8.600  0.2097 -0.0843 -0.7679
  145MOL0     C19494   3.105   0.184   8.337 -0.1303 -0.2278 -0.0753
  145MOL0     C19495   3.007   0.091   8.375  0.4885  0.4750 -0.0420
  145MOL0     C19496   2.884   0.073   8.306 -0.4329 -0.0055  0.5047
  145MOL0     C19497   2.849   0.153   8.195 -0.2605  0.7398 -0.4102
  145MOL0     O19498   2.730   0.124   8.129 -0.1166 -0.0487  0.3511
  145MOL0     C19499   2.725   0.130   7.986 -0.3405  0.3925  0.0402
  145MOL0     C19500   2.653   0.248   7.926 -0.0815 -0.0180 -0.4284
  145MOL0     C19501   2.507   0.228   7.958  0.1588 -0.2785 -0.0066
  145MOL0     C19502   2.428   0.349   7.900 -0.3224 -0.1483 -0.1790
  145MOL0     C19503   2.291   0.326   7.879  0.6694 -0.2016 -0.7414
  145MOL0     C19504   2.180   0.307   7.854  0.6769  0.0433  0.8645
  145MOL0     C19505   2.948   0.243   8.157  0.4734 -0.3911  0.8745
  145MOL0     C19506   3.068   0.273   8.227  0.0469  0.3968 -0.5080
  145MOL0     C19507   3.149   0.400   8.191 -0.3259  0.9136  0.1108
  145MOL0     H19508   3.260   0.365   8.710 -0.4276  0.7938 -1.9927
  145MOL0     H19509   3.456   0.385   8.879  2.9276 -0.0423 -0.2657
  145MOL0     H19510   3.629   0.052   9.007  1.9862 -1.6193  1.2932
  145MOL0     H19511   3.727   0.028   8.865  1.2804 -3.1391  3.0324
  145MOL0     H19512   3.809   0.187   9.113  2.6221  0.7326  1.3493
  145MOL0     H19513   3.887   0.212   8.965 -1.8976  3.2427  1.6665
  145MOL0     H19514   3.951  -0.019   8.948  2.8573  3.9801 -0.4629
  145MOL0     H19515   3.834  -0.076   9.064 -0.3784  0.7740 -1.6089
  145MOL0     H19516   4.082  -0.105   9.123  0.4588  0.2538  2.1558
  145MOL0     H19517   4.093   0.083   9.113 -0.4413 -0.0303 -3.1980
  145MOL0     H19518   3.884   0.047   9.296  0.7189  0.7188  0.6436
  145MOL0     H19519   3.949  -0.110   9.303 -0.2515 -0.3772 -0.7026
  145MOL0     H19520   4.095   0.134   9.368 -3.1904  0.4603  0.3453
  145MOL0     H19521   4.050   0.011   9.495  0.7340 -1.5869  0.8046
  145MOL0     H19522   4.281   0.002   9.469 -0.6509  0.7670  1.0179
  145MOL0     H19523   4.262   0.020   9.288 -2.8363  1.4028 -0.0956
  145MOL0     H19524   4.173  -0.223   9.455 -1.0609  1.1850 -0.3984
  145MOL0     H19525   4.170  -0.219   9.283 -0.1040  0.7196  0.8994
  145MOL0     H19526   4.437  -0.195   9.158  1.7562  1.3461 -0.2087
  145MOL0     H19527   4.682  -0.278   9.149  1.2298  1.1669  0.1058
  145MOL0     H19528   4.751  -0.180   9.269  1.7053 -0.9237  3.0162
  145MOL0     H19529   4.781  -0.381   9.416 -2.2308  1.0979 -0.1669
  145MOL0     H19530   4.739  -0.485   9.279  0.7127 -0.6806 -1.5927
  145MOL0     H19531   4.949  -0.280   9.225 -0.5168  0.3031 -2.6776
  145MOL0     H19532   4.893  -0.437   9.146  2.9348  1.4322 -2.0717
  145MOL0     H19533   4.999  -0.554   9.333 -1.2481  0.6192 -0.9109
  145MOL0     H19534   5.062  -0.401   9.393  1.5747  0.1410 -0.3242
  145MOL0     H19535   5.179  -0.551   9.477  0.5135 -1.1631  0.0013
  145MOL0     H19536   5.384  -0.616   9.580 -2.0078  0.1649  0.3975
  145MOL0     H19537   5.738  -0.901   9.405 -0.4149 -2.0330 -0.1726
  145MOL0     H19538   6.001  -0.959   9.420  0.0441  1.6122 -1.2518
  145MOL0     H19539   6.295  -1.022   9.642 -2.1895 -1.7954  0.5010
  145MOL0     H19540   6.160  -1.056   9.538 -0.9739 -0.1355  0.5891
  145MOL0     H19541   6.372  -1.040   9.408  0.7316  3.0051 -4.1967
  145MOL0     H19542   6.270  -0.908   9.359 -1.5745 -0.4945  1.1633
  145MOL0     H19543   6.495  -0.823   9.383 -0.0366 -0.8199 -1.3815
  145MOL0     H19544   6.383  -0.757   9.501 -1.3306 -1.8565 -0.4998
  145MOL0     H19545   6.574  -0.987   9.529 -0.4676  0.0040 -0.2494
  145MOL0     H19546   6.496  -0.919   9.676 -1.5280  0.8388 -0.7361
  145MOL0     H19547   6.715  -0.777   9.529  0.7404  1.3250  1.6304
  145MOL0     H19548   6.705  -0.841   9.693 -1.8077 -0.2279  0.3113
  145MOL0     H19549   6.530  -0.637   9.582  1.9180  0.5352 -0.5110
  145MOL0     H19550   6.507  -0.692   9.747 -1.3856  3.0106 -0.3536
  145MOL0     H19551   6.754  -0.541   9.629 -0.4341 -2.8293 -0.6053
  145MOL0     H19552   6.751  -0.606   9.792  0.0201 -0.2695 -0.4254
  145MOL0     H19553   6.577  -0.390   9.661 -0.2924 -0.1317 -0.1458
  145MOL0     H19554   6.572  -0.449   9.839  0.8681  1.2553  1.8326
  145MOL0     H19555   6.036  -0.712   9.748  0.9205 -1.6222  0.3813
  145MOL0     H19556   5.777  -0.657   9.751  2.2510 -0.8325  1.6140
  145MOL0     H19557   5.593  -0.546   9.204  0.0059 -0.5393 -1.5100
  145MOL0     H19558   5.373  -0.455   9.109 -2.5198  0.4580  0.9078
  145MOL0     H19559   3.647   0.056   8.676  0.2760 -0.5817 -0.4575
  145MOL0     H19560   3.467   0.033   8.531  1.0436  1.2318 -2.3315
  145MOL0     H19561   3.025   0.038   8.468  0.5184  0.2195 -0.1942
  145MOL0     H19562   2.817  -0.011   8.326  0.6585 -1.4664 -1.5701
  145MOL0     H19563   2.661   0.048   7.951 -0.5816  0.2908  0.6954
  145MOL0     H19564   2.827   0.122   7.947 -1.0913  1.3073 -2.3023
  145MOL0     H19565   2.674   0.244   7.819  0.4235 -0.6463 -0.3099
  145MOL0     H19566   2.690   0.347   7.956  0.8217 -0.5551  0.2931
  145MOL0     H19567   2.489   0.213   8.065 -0.1629 -0.3414 -0.0676
  145MOL0     H19568   2.466   0.141   7.906  0.0116 -1.3224  1.7793
  145MOL0     H19569   2.445   0.435   7.966 -1.7280 -1.5885  2.2079
  145MOL0     H19570   2.465   0.400   7.810 -0.5593  2.2405  0.9924
  145MOL0     H19571   2.076   0.291   7.834  0.4679  1.6237  0.5335
  145MOL0     H19572   2.919   0.306   8.074  0.7406 -1.7399 -0.2909
  145MOL0     H19573   3.251   0.369   8.165 -0.2107  1.3947 -0.0130
  145MOL0     H19574   3.111   0.479   8.127 -1.2187 -0.4511 -1.1015
  145MOL0     H19575   3.161   0.457   8.284 -0.1291  0.0625  0.6189
  146MOL0     O19576   0.465   9.721   4.736  0.0418  0.2365  0.0167
  146MOL0     C19577   0.436   9.804   4.642  0.0087  0.2203 -0.6762
  146MOL0     O19578   0.520   9.848   4.546 -0.0057 -0.5411 -0.4724
  146MOL0     C19579   0.618   9.763   4.517 -0.4006 -0.6052 -0.2448
  146MOL0     C19580   0.744   9.818   4.526  0.2407  0.3427 -0.5665
  146MOL0     C19581   0.852   9.748   4.474 -0.3304 -0.6121 -0.7067
  146MOL0     C19582   0.839   9.620   4.423 -0.1321  0.2115  0.5869
  146MOL0     O19583   0.938   9.533   4.384  0.1345  0.0739 -0.1217
  146MOL0     C19584   1.064   9.583   4.361  0.1036 -0.7463  0.8664
  146MOL0     C19585   1.159   9.495   4.274  0.3432 -0.2048  0.1740
  146MOL0     C19586   1.185   9.352   4.322  0.9005  1.5575 -0.2953
  146MOL0     C19587   1.264   9.341   4.458 -0.4011  0.0343 -0.4513
  146MOL0     C19588   1.302   9.201   4.514  0.3890  0.3708 -0.5099
  146MOL0     C19589   1.349   9.206   4.668  0.2363  0.1442  0.4473
  146MOL0     C19590   1.410   9.071   4.706  0.3801  0.2625  0.2481
  146MOL0     C19591   1.536   9.033   4.614  0.2276  0.6148  0.0857
  146MOL0     N19592   1.617   8.928   4.669 -0.1857  0.3517 -0.1057
  146MOL0     C19593   1.584   8.796   4.674  0.3929  0.4635 -0.8443
  146MOL0     C19594   1.705   8.738   4.710 -0.4903  0.5570 -0.8745
  146MOL0     C19595   1.723   8.591   4.741  0.0002  0.6273  0.5545
  146MOL0     C19596   1.701   8.505   4.610 -0.5429 -0.5609  1.0556
  146MOL0     C19597   1.732   8.362   4.632  0.1889 -0.3623  0.2869
  146MOL0     C19598   1.727   8.267   4.505 -0.3292  0.1870 -0.9940
  146MOL0     O19599   1.847   8.295   4.438 -0.0499  0.6271  0.3205
  146MOL0     C19600   1.921   8.190   4.392  0.4884  0.6386  0.0688
  146MOL0     C19601   2.037   8.225   4.330 -0.4200 -0.5165 -0.9872
  146MOL0     C19602   2.124   8.131   4.282 -0.2850  0.2897 -0.9016
  146MOL0     C19603   2.110   7.993   4.301  0.5588  0.2833 -0.7853
  146MOL0     C19604   2.207   7.904   4.235  0.0800 -0.6453 -0.3291
  146MOL0     O19605   2.280   7.949   4.128  0.6440  0.3465 -0.2161
  146MOL0     C19606   2.400   7.884   4.100 -0.1920  0.8266  0.0027
  146MOL0     C19607   2.489   7.828   4.199 -0.2130 -0.9035 -0.4127
  146MOL0     C19608   2.609   7.777   4.161 -1.3676 -0.0332  0.5414
  146MOL0     C19609   2.646   7.765   4.025  0.7064  0.7248  0.4573
  146MOL0     O19610   2.757   7.694   3.983 -0.2671  0.2730 -0.4766
  146MOL0     C19611   2.885   7.685   4.053  0.2712  0.1605 -0.0551
  146MOL0     C19612   2.993   7.687   3.953 -0.1379  0.2932  0.2064
  146MOL0     C19613   3.039   7.828   3.910  0.5275 -0.1246 -0.3032
  146MOL0     C19614   2.935   7.917   3.841  0.4033  0.2650  0.1784
  146MOL0     C19615   2.925   7.886   3.689 -0.7885 -0.1880  0.2246
  146MOL0     C19616   2.850   7.993   3.604  0.5484  0.8760 -0.5031
  146MOL0     C19617   2.844   7.950   3.459  0.6035  0.5607 -0.8867
  146MOL0     C19618   2.962   7.987   3.383  0.6073  0.1223 -0.4090
  146MOL0    Cl19619   2.961   7.927   3.207  0.2892 -0.1130  0.8932
  146MOL0     C19620   2.555   7.812   3.930 -0.2617  1.2947  0.2370
  146MOL0     C19621   2.433   7.878   3.966 -0.4574 -0.7068  0.5567
  146MOL0     O19622   2.208   7.798   4.289  0.0113 -0.5740 -0.2443
  146MOL0     C19623   2.001   7.959   4.378  0.0991 -0.1403 -0.9525
  146MOL0     C19624   1.907   8.051   4.420 -0.2156  0.2606 -0.4819
  146MOL0     N19625   1.808   8.831   4.721  0.0874 -0.0049  0.2715
  146MOL0     N19626   1.749   8.945   4.697 -0.2188  0.6128 -0.2641
  146MOL0     C19627   0.704   9.563   4.416  0.0663 -0.2375  0.1557
  146MOL0     C19628   0.602   9.642   4.462  1.0765  0.1925 -0.5375
  146MOL0     C19629   0.303   9.861   4.642 -0.4353 -0.7658 -0.5034
  146MOL0     C19630   0.278  10.003   4.623  0.7120  0.0306 -0.3112
  146MOL0     C19631   0.154  10.064   4.629 -0.6688  0.5809 -0.3059
  146MOL0     C19632   0.045   9.983   4.652  0.1486 -0.7729  0.2260
  146MOL0     O19633  -0.090  10.024   4.660  0.2956  0.9093  0.5567
  146MOL0     C19634  -0.118  10.164   4.647 -0.4558  0.2263  0.2443
  146MOL0     C19635  -0.090  10.237   4.775  0.6534 -0.0170  0.0549
  146MOL0     C19636  -0.133  10.393   4.776  0.3560 -0.4078  0.4637
  146MOL0     C19637  -0.063  10.474   4.663  0.0454  0.5392 -0.1814
  146MOL0     C19638   0.088  10.468   4.666  0.5451  0.3461  0.4566
  146MOL0     C19639   0.205  10.482   4.665  0.3402  0.5793  0.4396
  146MOL0     C19640   0.061   9.847   4.660  0.3895  0.5377  0.7305
  146MOL0     C19641   0.189   9.787   4.662 -0.1998  0.3917 -0.4933
  146MOL0     C19642   0.199   9.640   4.670 -0.7157 -0.1677  0.2638
  146MOL0     H19643   0.753   9.918   4.568 -0.7939 -0.7043  2.3700
  146MOL0     H19644   0.943   9.808   4.475 -1.3695  1.0922  1.7859
  146MOL0     H19645   1.059   9.680   4.309 -0.9786  0.2486  2.7031
  146MOL0     H19646   1.108   9.613   4.457 -1.7924  1.3798  1.1580
  146MOL0     H19647   1.260   9.535   4.258  0.4846 -0.5857  0.0963
  146MOL0     H19648   1.122   9.506   4.172 -2.2506  1.0251  1.1770
  146MOL0     H19649   1.233   9.289   4.246 -0.1523 -0.8932  0.9735
  146MOL0     H19650   1.090   9.300   4.334  1.3742  0.7755  0.0929
  146MOL0     H19651   1.355   9.400   4.466  0.0307 -0.7739  1.0715
  146MOL0     H19652   1.196   9.376   4.536 -0.0234 -0.3569  0.0622
  146MOL0     H19653   1.212   9.138   4.513  1.2874 -0.9522 -0.8955
  146MOL0     H19654   1.381   9.152   4.456 -2.2676 -0.5736 -3.6574
  146MOL0     H19655   1.421   9.286   4.687 -1.4884  1.4514  1.8022
  146MOL0     H19656   1.259   9.229   4.726  0.5093  0.8307  0.6118
  146MOL0     H19657   1.329   8.998   4.708 -1.3091  2.0507 -0.0374
  146MOL0     H19658   1.444   9.082   4.809 -0.3453 -2.6021  0.8740
  146MOL0     H19659   1.503   8.989   4.519  1.9634 -3.1021  1.0153
  146MOL0     H19660   1.602   9.120   4.606 -0.8328  1.4836  0.5729
  146MOL0     H19661   1.484   8.756   4.659  0.5385  1.0723 -4.0284
  146MOL0     H19662   1.823   8.585   4.785  0.7534  0.7629 -1.0690
  146MOL0     H19663   1.643   8.556   4.808 -1.2080  2.4111  0.1168
  146MOL0     H19664   1.595   8.499   4.586 -0.0293 -0.7295 -1.4244
  146MOL0     H19665   1.767   8.538   4.528  0.8591 -1.4343  1.7882
  146MOL0     H19666   1.651   8.334   4.699 -1.4615  2.7456 -0.2070
  146MOL0     H19667   1.828   8.339   4.680  0.5066  0.5148  0.1068
  146MOL0     H19668   1.633   8.286   4.453 -0.2432  1.7819 -0.6112
  146MOL0     H19669   1.715   8.166   4.547  0.2116  0.2289 -0.7316
  146MOL0     H19670   2.054   8.325   4.292  3.4363 -0.3329  0.7040
  146MOL0     H19671   2.207   8.170   4.224 -0.3620  3.3822  0.8331
  146MOL0     H19672   2.471   7.835   4.306 -1.5121  1.4916 -0.7166
  146MOL0     H19673   2.674   7.755   4.245  1.2161 -1.9242 -1.7721
  146MOL0     H19674   2.906   7.765   4.125 -0.8107 -0.2661  0.7719
  146MOL0     H19675   2.893   7.596   4.115  1.0179 -0.5585 -1.1517
  146MOL0     H19676   3.069   7.616   3.988 -2.8428 -1.1080  3.8332
  146MOL0     H19677   2.956   7.639   3.862  1.0032 -2.1327  0.9426
  146MOL0     H19678   3.069   7.881   4.000 -4.0726  0.4397  1.1645
  146MOL0     H19679   3.133   7.827   3.854  2.2291  1.5472  2.3051
  146MOL0     H19680   2.961   8.022   3.851  3.2714  0.3145 -4.5163
  146MOL0     H19681   2.835   7.900   3.882  0.2179  0.9614  0.0247
  146MOL0     H19682   2.876   7.789   3.679  0.6565 -0.8058 -1.2319
  146MOL0     H19683   3.030   7.889   3.661 -0.5598  2.2851  1.0646
  146MOL0     H19684   2.752   7.998   3.651  0.8115 -2.9221  0.8121
  146MOL0     H19685   2.896   8.090   3.622  1.8815  0.2339 -0.2913
  146MOL0     H19686   2.764   7.993   3.398 -0.8790 -2.8491 -1.5775
  146MOL0     H19687   2.828   7.842   3.447 -0.4663  0.7212 -1.0085
  146MOL0     H19688   2.974   8.096   3.380 -3.2109  0.6943  0.1698
  146MOL0     H19689   3.052   7.957   3.438 -0.1647 -0.5458  0.5061
  146MOL0     H19690   2.571   7.796   3.824 -3.5695  0.0258 -0.1934
  146MOL0     H19691   2.358   7.925   3.903  1.8048  1.9682 -0.3531
  146MOL0     H19692   1.980   7.854   4.394 -0.5044 -0.0847 -1.3382
  146MOL0     H19693   1.826   8.015   4.483 -2.8004  3.2551 -1.7920
  146MOL0     H19694   0.686   9.461   4.384 -3.0190 -0.6206  2.5788
  146MOL0     H19695   0.499   9.609   4.453  0.4303  2.5737 -4.3135
  146MOL0     H19696   0.357  10.062   4.577 -1.8398  1.5440 -3.1622
  146MOL0     H19697   0.148  10.172   4.617 -3.3399  0.5797  0.2565
  146MOL0     H19698  -0.223  10.174   4.616 -0.4130 -1.4752 -0.5449
  146MOL0     H19699  -0.055  10.198   4.565  0.2345  0.7264  0.9671
  146MOL0     H19700   0.017  10.224   4.797  0.6742  0.0109 -0.0310
  146MOL0     H19701  -0.151  10.195   4.855  0.0226  2.6618  1.0660
  146MOL0     H19702  -0.101  10.427   4.875 -1.7124 -1.0166  1.3742
  146MOL0     H19703  -0.242  10.401   4.776  0.2760 -0.3580  3.4623
  146MOL0     H19704  -0.099  10.429   4.570 -0.2613 -3.0392  1.4904
  146MOL0     H19705  -0.106  10.574   4.660 -1.9553 -0.2896 -1.4645
  146MOL0     H19706   0.311  10.492   4.656  1.1381 -4.6614  1.0081
  146MOL0     H19707  -0.020   9.774   4.665  2.7775 -2.3374  0.6720
  146MOL0     H19708   0.256   9.595   4.588  0.0989  1.3428 -0.0315
  146MOL0     H19709   0.250   9.609   4.762 -1.6319 -1.3790  0.3917
  146MOL0     H19710   0.097   9.599   4.666 -0.5135 -0.6829 -3.3471
  147MOL0     O19711   3.369   0.339   9.419 -0.0129 -0.3586 -0.4139
  147MOL0     C19712   3.290   0.421   9.461 -0.8045  0.4042 -0.8865
  147MOL0     O19713   3.251   0.426   9.598  0.4664 -0.5354  0.1083
  147MOL0     C19714   3.293   0.332   9.691 -0.1348 -0.0287 -0.0774
  147MOL0     C19715   3.308   0.194   9.660  0.4971  0.3624  0.0958
  147MOL0     C19716   3.347   0.108   9.765  0.1067 -0.9066 -0.4337
  147MOL0     C19717   3.356   0.156   9.890  1.6796 -0.1051 -0.1115
  147MOL0     O19718   3.399   0.069   9.987  0.3793  0.9039  0.1867
  147MOL0     C19719   3.400   0.100  10.130  0.5066  0.8074  0.2329
  147MOL0     C19720   3.262   0.095  10.187  0.5343  0.2350  0.4788
  147MOL0     C19721   3.271   0.032  10.331 -0.1667 -0.7365  1.1966
  147MOL0     C19722   3.132   0.038  10.398 -0.1306  0.0478 -0.3281
  147MOL0     C19723   3.144   0.021  10.548  0.7915  1.4415 -0.6274
  147MOL0     C19724   3.012   0.024  10.623  0.1784 -0.0933  0.0227
  147MOL0     C19725   3.032  -0.017  10.767 -0.4915 -0.1871 -0.7830
  147MOL0     C19726   2.913  -0.009  10.855 -0.2619 -0.4292 -0.0093
  147MOL0     N19727   2.855   0.128  10.885 -0.3435 -0.5148  0.2272
  147MOL0     C19728   2.762   0.184  10.795 -0.2296 -0.2115  1.3226
  147MOL0     C19729   2.739   0.305  10.859 -0.5395 -0.6017  0.2545
  147MOL0     C19730   2.657   0.420  10.795  0.1607 -0.4362 -0.8227
  147MOL0     C19731   2.726   0.480  10.670  1.0415 -0.3084 -1.1755
  147MOL0     C19732   2.614   0.557  10.594  0.4030 -0.0770  0.4597
  147MOL0     C19733   2.524   0.466  10.511  0.6468  1.2608 -0.3287
  147MOL0     O19734   2.425   0.527  10.429 -0.8919 -0.3589 -0.1574
  147MOL0     C19735   2.469   0.590  10.313  0.0401  0.2841 -0.5672
  147MOL0     C19736   2.369   0.658  10.241  0.7649 -0.0118 -0.6911
  147MOL0     C19737   2.400   0.735  10.123 -0.1963  0.2449 -0.5807
  147MOL0     C19738   2.532   0.751  10.083  0.0979  0.0107  0.2288
  147MOL0     C19739   2.568   0.846   9.974  1.4371  0.4448 -0.1782
  147MOL0     O19740   2.495   0.964   9.967  0.2672  0.5515 -0.5666
  147MOL0     C19741   2.533   1.066   9.888  0.2169  0.2224  0.4255
  147MOL0     C19742   2.643   1.137   9.935 -0.0446 -0.0504  0.0712
  147MOL0     C19743   2.689   1.245   9.856  0.2318  0.2620 -0.0054
  147MOL0     C19744   2.634   1.276   9.732  0.3164 -1.1234  1.2375
  147MOL0     O19745   2.674   1.398   9.666  0.6245 -0.1107  0.1012
  147MOL0     C19746   2.632   1.427   9.530  0.0203 -0.5129 -0.5693
  147MOL0     C19747   2.686   1.573   9.506 -0.1350 -0.1906 -0.6342
  147MOL0     C19748   2.670   1.608   9.361 -0.9181 -0.5506  0.4125
  147MOL0     C19749   2.519   1.638   9.319  0.7903  0.9138 -0.1566
  147MOL0     C19750   2.519   1.647   9.166 -0.1595  0.4261 -0.1109
  147MOL0     C19751   2.377   1.662   9.113  0.1392  0.1858 -0.5635
  147MOL0     C19752   2.310   1.800   9.131 -0.3108 -0.5891 -0.4363
  147MOL0     C19753   2.193   1.833   9.045  0.2837 -0.3328 -0.5534
  147MOL0    Cl19754   2.059   1.725   9.086  0.4479  0.3711 -0.4447
  147MOL0     C19755   2.514   1.201   9.688 -0.9635 -0.2403  0.0366
  147MOL0     C19756   2.463   1.093   9.766 -0.3673  0.1279 -0.2690
  147MOL0     O19757   2.655   0.807   9.894  0.5781  0.3701  0.3198
  147MOL0     C19758   2.627   0.668  10.145  0.4747  0.6817  0.0925
  147MOL0     C19759   2.603   0.590  10.259  0.3862 -0.5411 -0.3769
  147MOL0     N19760   2.803   0.312  10.991  1.0824 -0.1478  0.5486
  147MOL0     N19761   2.880   0.209  10.996 -0.6759 -0.1925  0.5383
  147MOL0     C19762   3.339   0.295   9.921 -0.2732  0.4194 -0.3493
  147MOL0     C19763   3.310   0.376   9.816 -0.5661 -0.5461 -1.1135
  147MOL0     C19764   3.235   0.527   9.367 -1.6635  0.1869  0.0032
  147MOL0     C19765   3.224   0.488   9.238 -0.7955  0.5188  0.4354
  147MOL0     C19766   3.166   0.573   9.145  0.4875 -0.0633 -0.4185
  147MOL0     C19767   3.115   0.695   9.180  0.7600 -0.5516 -0.3863
  147MOL0     O19768   3.078   0.773   9.072 -0.2082  0.1139 -0.0428
  147MOL0     C19769   3.033   0.904   9.102  0.0837  1.3374  0.1190
  147MOL0     C19770   2.956   0.976   8.990 -0.5974 -0.8721 -0.4477
  147MOL0     C19771   2.824   0.894   8.970  0.3351 -0.1334  0.7208
  147MOL0     C19772   2.736   0.952   8.862 -0.4046  0.2441 -0.3360
  147MOL0     C19773   2.803   0.983   8.738 -0.2522 -0.7530 -0.4056
  147MOL0     C19774   2.833   1.008   8.622 -0.9747 -0.2449 -0.5471
  147MOL0     C19775   3.108   0.732   9.321  0.2421 -0.4620  0.3944
  147MOL0     C19776   3.176   0.653   9.412  0.9018 -0.2366  0.2811
  147MOL0     C19777   3.181   0.709   9.549 -0.6864  0.6398 -1.0846
  147MOL0     H19778   3.292   0.167   9.556  1.5701  3.6084 -1.0304
  147MOL0     H19779   3.359   0.002   9.747  0.3020 -0.6322 -2.0900
  147MOL0     H19780   3.448   0.012  10.174 -0.2952  0.4011  0.3260
  147MOL0     H19781   3.445   0.193  10.165 -0.4145  1.4277 -0.1837
  147MOL0     H19782   3.209   0.031  10.116  1.8727  0.9581 -1.2601
  147MOL0     H19783   3.224   0.198  10.194 -1.8257 -0.6442  1.9654
  147MOL0     H19784   3.335   0.101  10.388 -1.6763  0.3978  1.5922
  147MOL0     H19785   3.301  -0.072  10.320 -0.5747 -0.6336 -1.3281
  147MOL0     H19786   3.084   0.134  10.377 -1.9850 -0.9812 -0.9877
  147MOL0     H19787   3.072  -0.039  10.349 -0.5723  0.8281 -1.0360
  147MOL0     H19788   3.185  -0.079  10.566 -0.8176  1.0019  0.8806
  147MOL0     H19789   3.204   0.106  10.581  1.4583  0.2822  1.3856
  147MOL0     H19790   2.965   0.122  10.617 -0.4863 -0.3883  0.3266
  147MOL0     H19791   2.941  -0.045  10.575 -0.0358 -1.1496  1.7559
  147MOL0     H19792   3.114   0.043  10.807 -0.5526  0.8591 -2.1556
  147MOL0     H19793   3.073  -0.118  10.769 -2.5514 -1.0831  0.9172
  147MOL0     H19794   2.834  -0.073  10.816 -1.2110  2.3148 -2.9861
  147MOL0     H19795   2.947  -0.054  10.949  2.9571  2.4157  0.4174
  147MOL0     H19796   2.758   0.152  10.691  0.8505 -0.1416  1.2408
  147MOL0     H19797   2.557   0.382  10.774  0.9727 -5.0448  2.1494
  147MOL0     H19798   2.632   0.494  10.872  0.9687 -0.3026 -0.6814
  147MOL0     H19799   2.803   0.549  10.706 -0.9001  0.5158  1.7049
  147MOL0     H19800   2.779   0.399  10.618  0.0467 -0.9632 -1.1826
  147MOL0     H19801   2.658   0.633  10.528  0.4828 -1.1758 -0.7775
  147MOL0     H19802   2.550   0.607  10.667  1.6773 -1.5083  2.6610
  147MOL0     H19803   2.465   0.402  10.577 -1.9709  1.5423 -2.2196
  147MOL0     H19804   2.588   0.396  10.457 -0.3119  1.9452 -2.4646
  147MOL0     H19805   2.270   0.652  10.285  1.5328  1.5462  1.4291
  147MOL0     H19806   2.313   0.772  10.068 -1.6471 -2.5788 -0.3723
  147MOL0     H19807   2.689   1.112  10.030  2.8948 -2.5920 -1.8230
  147MOL0     H19808   2.762   1.304   9.910  1.0308 -0.8567  0.1792
  147MOL0     H19809   2.677   1.359   9.456  0.1008 -3.7098  2.1482
  147MOL0     H19810   2.525   1.414   9.517 -0.5479  2.3684  0.5323
  147MOL0     H19811   2.641   1.646   9.574  4.1905  0.5958  1.7754
  147MOL0     H19812   2.793   1.585   9.526 -0.5036 -0.5316  1.8436
  147MOL0     H19813   2.735   1.694   9.346 -0.5199 -1.1912 -1.8924
  147MOL0     H19814   2.727   1.535   9.302  2.0782  0.9037  1.2850
  147MOL0     H19815   2.481   1.724   9.375 -1.2693  0.5832 -0.9762
  147MOL0     H19816   2.457   1.555   9.355  2.6006  0.4254  2.0648
  147MOL0     H19817   2.563   1.558   9.119  0.4442  0.9436 -0.5362
  147MOL0     H19818   2.583   1.730   9.135 -0.6434 -0.3641 -3.6667
  147MOL0     H19819   2.383   1.618   9.014  2.5695 -0.0386 -0.3732
  147MOL0     H19820   2.320   1.587   9.169 -1.0399 -1.2545 -3.5238
  147MOL0     H19821   2.381   1.883   9.132 -0.6727 -0.2883  0.4598
  147MOL0     H19822   2.263   1.789   9.229 -0.9988 -1.3125 -0.8335
  147MOL0     H19823   2.162   1.934   9.074  0.6941  0.0074 -1.2809
  147MOL0     H19824   2.224   1.845   8.941  0.3316 -0.5115 -0.5613
  147MOL0     H19825   2.448   1.222   9.604 -3.0074 -3.3016  0.7095
  147MOL0     H19826   2.371   1.042   9.742  1.5926 -2.5457 -2.8839
  147MOL0     H19827   2.728   0.675  10.107  0.3528  0.6444 -0.2436
  147MOL0     H19828   2.671   0.540  10.327 -1.5392 -1.7986  0.7350
  147MOL0     H19829   3.347   0.341  10.019  0.4206  2.3190 -1.2652
  147MOL0     H19830   3.313   0.485   9.823 -0.1733 -0.4343 -2.7360
  147MOL0     H19831   3.274   0.397   9.208 -1.4665 -0.4920  2.1981
  147MOL0     H19832   3.174   0.544   9.040  1.9145 -1.4059  0.0096
  147MOL0     H19833   3.113   0.974   9.128 -1.0645  2.7942 -0.0836
  147MOL0     H19834   2.962   0.896   9.185  0.5105  2.7085  0.6422
  147MOL0     H19835   3.016   0.996   8.901 -1.3983  3.1481 -0.3164
  147MOL0     H19836   2.933   1.078   9.025  2.6451  0.7867 -2.6112
  147MOL0     H19837   2.768   0.884   9.063 -0.9316 -3.0814 -0.2216
  147MOL0     H19838   2.854   0.792   8.942  1.2668  0.6841 -1.4824
  147MOL0     H19839   2.668   0.870   8.838 -0.0582  0.0040 -0.5016
  147MOL0     H19840   2.685   1.041   8.902  0.2644  1.2193 -1.5679
  147MOL0     H19841   2.859   1.012   8.518  2.1739 -0.1318  0.1706
  147MOL0     H19842   3.069   0.828   9.352 -2.6763  0.2395 -4.3889
  147MOL0     H19843   3.269   0.673   9.603 -0.8934  1.9383  0.1827
  147MOL0     H19844   3.184   0.817   9.532  0.4356  1.1834  2.0487
  147MOL0     H19845   3.092   0.670   9.599  1.0630 -4.2097 -1.2596
  148MOL0     O19846   0.642   4.704   8.437  0.1978 -0.0376  0.7011
  148MOL0     C19847   0.597   4.731   8.326  0.4687 -0.8048 -0.0383
  148MOL0     O19848   0.600   4.858   8.269  0.4398  0.7880 -0.6498
  148MOL0     C19849   0.680   4.958   8.322  0.5779 -0.2625  0.7484
  148MOL0     C19850   0.786   5.006   8.244  0.6983  0.1754 -0.5040
  148MOL0     C19851   0.870   5.106   8.300  0.5142  0.8279  0.5625
  148MOL0     C19852   0.832   5.170   8.415 -0.4295 -0.5206 -0.1660
  148MOL0     O19853   0.912   5.254   8.490  0.3282  0.1795  0.8431
  148MOL0     C19854   1.021   5.313   8.426 -0.2010 -0.4369  0.0439
  148MOL0     C19855   1.066   5.420   8.524  0.5858  0.0286  0.3193
  148MOL0     C19856   1.211   5.463   8.489 -0.1405 -0.6101  0.4215
  148MOL0     C19857   1.275   5.558   8.589  0.1050 -0.4246 -0.8339
  148MOL0     C19858   1.417   5.588   8.549  0.2439 -0.4053 -0.2163
  148MOL0     C19859   1.487   5.696   8.630 -0.6102  0.8256 -0.5366
  148MOL0     C19860   1.638   5.711   8.610 -0.8320  0.0920  0.6137
  148MOL0     C19861   1.717   5.735   8.740  0.4843  0.0015 -0.8479
  148MOL0     N19862   1.865   5.759   8.718  0.8324 -0.1729 -0.1724
  148MOL0     C19863   1.969   5.668   8.741  0.0623 -0.7999  0.2215
  148MOL0     C19864   2.087   5.731   8.739  0.2226  0.1453  0.5497
  148MOL0     C19865   2.227   5.663   8.761 -0.3085  0.5789 -0.1118
  148MOL0     C19866   2.344   5.728   8.702  1.3443 -0.6388  0.4814
  148MOL0     C19867   2.459   5.625   8.660  0.1623  0.0099 -0.1767
  148MOL0     C19868   2.538   5.581   8.784  0.8172  0.2824 -0.7280
  148MOL0     O19869   2.588   5.449   8.774  0.1693  0.7595  0.3224
  148MOL0     C19870   2.720   5.420   8.797 -0.5751 -0.0574  0.1318
  148MOL0     C19871   2.782   5.324   8.708  0.4247  0.4270 -0.7393
  148MOL0     C19872   2.915   5.293   8.713  0.2819  0.1879  0.4066
  148MOL0     C19873   3.000   5.377   8.791 -0.3410 -0.8617  0.0142
  148MOL0     C19874   3.152   5.379   8.776  0.4424 -0.8863 -0.9334
  148MOL0     O19875   3.222   5.473   8.846  0.5748 -0.7125  0.0292
  148MOL0     C19876   3.352   5.458   8.861  0.2247  0.0034  0.9225
  148MOL0     C19877   3.431   5.563   8.826  0.2302 -0.3667  0.3525
  148MOL0     C19878   3.570   5.557   8.866 -0.3026 -0.3899 -0.6462
  148MOL0     C19879   3.625   5.444   8.933 -0.3662  0.7536 -0.2145
  148MOL0     O19880   3.759   5.422   8.950  0.1463 -0.6890  0.7243
  148MOL0     C19881   3.848   5.498   8.861 -0.1082  0.1727  0.0332
  148MOL0     C19882   3.994   5.473   8.894  0.1179  0.4480  0.0771
  148MOL0     C19883   4.082   5.581   8.807 -0.4707 -0.2823 -0.5935
  148MOL0     C19884   4.225   5.573   8.846  0.3494 -0.4558 -0.4901
  148MOL0     C19885   4.286   5.440   8.814  0.2969 -0.6259  0.4021
  148MOL0     C19886   4.430   5.415   8.862 -0.4442 -0.1688  0.2929
  148MOL0     C19887   4.456   5.412   9.008  0.4346 -0.7970  0.0065
  148MOL0     C19888   4.606   5.365   9.042  0.1034  0.1938 -0.2097
  148MOL0    Cl19889   4.729   5.470   8.963 -0.2446  0.2613 -0.1132
  148MOL0     C19890   3.535   5.340   8.957 -0.3282 -0.4276  0.0022
  148MOL0     C19891   3.401   5.348   8.923  0.2863 -0.8159 -0.2918
  148MOL0     O19892   3.199   5.288   8.712  0.2451 -0.5510 -0.2546
  148MOL0     C19893   2.937   5.468   8.880 -0.4851  0.1268 -0.0160
  148MOL0     C19894   2.802   5.486   8.886  0.0907 -0.2933  0.4078
  148MOL0     N19895   2.050   5.864   8.742  0.0530 -1.0732  0.6916
  148MOL0     N19896   1.923   5.878   8.728 -0.3084 -0.4597  0.1138
  148MOL0     C19897   0.719   5.125   8.492 -0.2008 -0.2945  0.9654
  148MOL0     C19898   0.640   5.022   8.440 -0.1702 -0.0696  0.5292
  148MOL0     C19899   0.528   4.626   8.250 -0.2669  0.5340  0.1105
  148MOL0     C19900   0.506   4.503   8.321  0.1274  0.0973 -0.4174
  148MOL0     C19901   0.418   4.407   8.270 -0.6287  0.3080 -0.5286
  148MOL0     C19902   0.368   4.429   8.142  0.6991  0.3201 -0.4575
  148MOL0     O19903   0.287   4.335   8.091  0.6771  0.5884  0.0446
  148MOL0     C19904   0.160   4.318   8.143  1.1960 -0.6110  0.1300
  148MOL0     C19905   0.075   4.200   8.088  0.0587  0.6458  0.2848
  148MOL0     C19906   0.011   4.245   7.950  0.1617  0.0705 -0.1891
  148MOL0     C19907  -0.106   4.153   7.908  0.2940  0.1312  0.3179
  148MOL0     C19908  -0.058   4.014   7.913  0.6070  0.2027  0.7727
  148MOL0     C19909  -0.012   3.907   7.943  0.3294  0.7109  0.2367
  148MOL0     C19910   0.408   4.533   8.065  0.4993 -0.6387  0.5371
  148MOL0     C19911   0.476   4.642   8.117 -0.3787  0.1155 -0.4445
  148MOL0     C19912   0.484   4.765   8.020 -0.4530  0.1946 -0.6721
  148MOL0     H19913   0.817   4.966   8.147 -2.3972  2.5725 -2.6698
  148MOL0     H19914   0.958   5.140   8.247  1.3733 -0.9652  0.7466
  148MOL0     H19915   1.093   5.234   8.400 -0.5192  0.4155 -4.1936
  148MOL0     H19916   0.999   5.366   8.333  0.0717  3.5314  2.0241
  148MOL0     H19917   1.066   5.378   8.625 -0.2121 -1.6554 -0.3593
  148MOL0     H19918   1.000   5.507   8.522 -2.5002 -2.1199  1.4432
  148MOL0     H19919   1.230   5.503   8.389 -0.7782 -0.1078  0.4915
  148MOL0     H19920   1.270   5.372   8.501 -0.3398 -0.8897 -0.6604
  148MOL0     H19921   1.215   5.649   8.600 -0.0543 -0.7523  1.4282
  148MOL0     H19922   1.283   5.511   8.687 -0.6948  3.5508  1.3195
  148MOL0     H19923   1.471   5.493   8.551 -1.2092 -1.5065 -3.8215
  148MOL0     H19924   1.412   5.612   8.442  0.1576 -0.7001 -0.2812
  148MOL0     H19925   1.436   5.793   8.625  2.1646  2.5650  1.6789
  148MOL0     H19926   1.479   5.666   8.735 -3.2993 -2.7282 -1.5580
  148MOL0     H19927   1.642   5.801   8.549 -4.7717 -1.3395 -2.1797
  148MOL0     H19928   1.678   5.630   8.549 -0.6336  0.9809 -0.4546
  148MOL0     H19929   1.681   5.823   8.795 -0.7788 -0.0012 -1.6286
  148MOL0     H19930   1.696   5.645   8.798 -0.2064 -0.3871 -1.6900
  148MOL0     H19931   1.959   5.562   8.760 -0.8753 -0.4159  2.1203
  148MOL0     H19932   2.237   5.662   8.870  0.6019 -0.6704 -0.1790
  148MOL0     H19933   2.219   5.558   8.731 -0.2626  0.3035  0.7853
  148MOL0     H19934   2.324   5.776   8.605  4.5886  1.1074  0.5285
  148MOL0     H19935   2.385   5.807   8.765  0.6990 -1.2611  1.7150
  148MOL0     H19936   2.514   5.683   8.586  2.8935 -0.7930  1.1002
  148MOL0     H19937   2.422   5.543   8.599  1.9705 -0.2526 -0.9624
  148MOL0     H19938   2.474   5.586   8.872 -0.8191  1.0094 -1.9055
  148MOL0     H19939   2.611   5.659   8.805  0.0407  0.1699  3.0038
  148MOL0     H19940   2.720   5.262   8.644  1.4930 -1.8115  0.2831
  148MOL0     H19941   2.957   5.221   8.642  1.4179  0.7025  0.5265
  148MOL0     H19942   3.384   5.649   8.780  1.3294  0.1434  0.1610
  148MOL0     H19943   3.614   5.648   8.826 -0.3577 -0.2275 -0.3392
  148MOL0     H19944   3.839   5.464   8.757  0.8295  0.2107 -0.0767
  148MOL0     H19945   3.817   5.603   8.864 -0.7239  0.0474 -1.1984
  148MOL0     H19946   4.016   5.483   9.001  0.4002 -3.5562  0.5119
  148MOL0     H19947   4.022   5.373   8.861  1.3882  0.2799  1.5599
  148MOL0     H19948   4.064   5.572   8.700  3.3917  0.8941 -1.4895
  148MOL0     H19949   4.051   5.682   8.832  0.7795 -0.1986  0.7989
  148MOL0     H19950   4.235   5.592   8.953 -1.0158 -0.7874 -0.2918
  148MOL0     H19951   4.287   5.647   8.795  0.0607 -0.7879 -1.3432
  148MOL0     H19952   4.281   5.445   8.705  1.8346  4.9650  0.2742
  148MOL0     H19953   4.227   5.359   8.858 -2.0110  0.4089 -0.5893
  148MOL0     H19954   4.464   5.317   8.826  0.1122  0.4641 -0.9690
  148MOL0     H19955   4.496   5.492   8.823 -1.1381  1.8831  2.9005
  148MOL0     H19956   4.383   5.354   9.066  1.4647 -0.5130  1.6708
  148MOL0     H19957   4.448   5.516   9.041  0.8302  0.1855 -2.7978
  148MOL0     H19958   4.610   5.374   9.151 -2.1196  2.8773 -0.2418
  148MOL0     H19959   4.611   5.265   8.997 -1.0010  1.5954 -3.7449
  148MOL0     H19960   3.573   5.241   8.982  1.3259 -0.0092 -0.7272
  148MOL0     H19961   3.327   5.273   8.951 -0.2023  0.1609  1.1044
  148MOL0     H19962   2.987   5.527   8.957 -0.3347 -1.3793  1.0791
  148MOL0     H19963   2.756   5.547   8.963  1.1194  0.5330  0.3933
  148MOL0     H19964   0.688   5.194   8.569 -1.0290 -0.5016  0.8303
  148MOL0     H19965   0.545   4.998   8.487  0.0474 -0.1433  0.9368
  148MOL0     H19966   0.551   4.498   8.420  1.2592  0.6810 -0.8859
  148MOL0     H19967   0.383   4.328   8.335 -3.4942  1.2659 -0.7999
  148MOL0     H19968   0.104   4.410   8.128  1.2334 -0.8417 -1.6097
  148MOL0     H19969   0.171   4.310   8.252  0.0477  1.1031  0.4041
  148MOL0     H19970  -0.003   4.176   8.160 -3.2445 -0.0388 -3.1698
  148MOL0     H19971   0.138   4.115   8.061 -1.7789 -1.3106  1.8305
  148MOL0     H19972   0.084   4.250   7.868  1.2946 -0.5754  0.7373
  148MOL0     H19973  -0.029   4.346   7.960  2.1921  0.8002  1.4066
  148MOL0     H19974  -0.176   4.163   7.991  1.1296  1.3351  0.9157
  148MOL0     H19975  -0.145   4.173   7.808 -0.0794  1.6334  0.7412
  148MOL0     H19976   0.033   3.812   7.968 -1.5201 -0.3720 -0.3356
  148MOL0     H19977   0.389   4.534   7.959  1.0995  0.2742  0.4259
  148MOL0     H19978   0.436   4.845   8.077 -1.6253 -1.8445  1.3486
  148MOL0     H19979   0.583   4.787   7.978 -1.1099  1.3818 -1.6491
  148MOL0     H19980   0.419   4.747   7.934 -1.7787  1.0883  0.1154
  149MOL0     O19981   6.890   6.448  10.136 -0.1074  0.3934 -0.6086
  149MOL0     C19982   6.777   6.409  10.165  0.1108  0.8112  0.4642
  149MOL0     O19983   6.750   6.295  10.234 -0.3900  0.0967 -0.0735
  149MOL0     C19984   6.856   6.223  10.265 -1.0109  0.6221 -1.4644
  149MOL0     C19985   6.914   6.147  10.163  0.4726 -0.7879  0.3804
  149MOL0     C19986   7.023   6.062  10.175 -0.2751  0.5433 -0.0989
  149MOL0     C19987   7.076   6.035  10.306 -0.0611 -0.5131  1.3849
  149MOL0     O19988   7.183   5.955  10.336  0.4560 -0.5815 -0.9757
  149MOL0     C19989   7.273   5.933  10.231 -0.4717  0.8141 -0.0770
  149MOL0     C19990   7.410   5.902  10.292  1.2128 -0.6057  0.5990
  149MOL0     C19991   7.475   5.803  10.190 -0.2054 -0.5072 -0.3048
  149MOL0     C19992   7.606   5.753  10.247 -0.8141 -0.2303  0.4138
  149MOL0     C19993   7.717   5.848  10.266 -0.0690  0.0115 -0.0562
  149MOL0     C19994   7.823   5.802  10.367 -0.3494 -0.1006 -0.5449
  149MOL0     C19995   7.927   5.908  10.389  0.2924 -0.9566 -0.1402
  149MOL0     C19996   7.975   5.909  10.543  0.4520 -0.2962 -0.6218
  149MOL0     N19997   8.105   5.973  10.572 -0.3655 -0.2228  0.4755
  149MOL0     C19998   8.127   6.107  10.594 -0.6892 -0.1395 -0.3244
  149MOL0     C19999   8.258   6.112  10.644  0.0868 -0.4466 -0.5297
  149MOL0     C20000   8.306   6.238  10.698  0.3313  0.6371  0.0322
  149MOL0     C20001   8.458   6.260  10.693  0.8106  0.4401 -0.7279
  149MOL0     C20002   8.510   6.287  10.549  0.9251 -0.1103  0.7277
  149MOL0     C20003   8.650   6.343  10.532 -0.2531 -0.1782  0.2151
  149MOL0     O20004   8.733   6.282  10.630 -0.0290 -0.5267 -0.4841
  149MOL0     C20005   8.858   6.335  10.655 -0.2569 -0.4982  0.1679
  149MOL0     C20006   8.924   6.426  10.574  0.1866 -1.3170 -0.2090
  149MOL0     C20007   9.047   6.484  10.611  0.1724  0.3424  0.4567
  149MOL0     C20008   9.114   6.442  10.728 -0.8189 -0.1508  0.1439
  149MOL0     C20009   9.240   6.502  10.776  0.0371 -0.2211  0.3860
  149MOL0     O20010   9.270   6.496  10.909 -0.2503 -1.1302 -0.0708
  149MOL0     C20011   9.393   6.545  10.953 -0.1166  0.1295  0.9085
  149MOL0     C20012   9.501   6.459  10.943  0.3841  0.9177 -0.1442
  149MOL0     C20013   9.617   6.497  11.004 -1.0658  0.6303 -0.0207
  149MOL0     C20014   9.633   6.618  11.067 -0.7874 -0.6532 -0.2121
  149MOL0     O20015   9.757   6.638  11.114  0.6847 -0.8468 -0.2333
  149MOL0     C20016   9.772   6.711  11.243 -0.7596 -0.5393  0.2927
  149MOL0     C20017   9.914   6.765  11.247  0.8572 -0.1586 -0.5181
  149MOL0     C20018   9.955   6.837  11.384 -0.5398  0.4914 -0.1617
  149MOL0     C20019  10.102   6.889  11.372  0.4752  0.0249 -0.4032
  149MOL0     C20020  10.210   6.802  11.412 -0.0681  0.6554  0.3917
  149MOL0     C20021  10.332   6.874  11.458 -1.0605  0.0553 -0.0264
  149MOL0     C20022  10.454   6.786  11.462  0.5665 -1.1136  0.4577
  149MOL0     C20023  10.582   6.873  11.492 -1.0465  0.6434  0.0594
  149MOL0    Cl20024  10.713   6.770  11.560  0.3349  0.2143 -0.0826
  149MOL0     C20025   9.533   6.708  11.070 -0.3249 -0.5125  0.0766
  149MOL0     C20026   9.413   6.669  11.014 -0.3257  0.2029  0.5822
  149MOL0     O20027   9.316   6.552  10.688  0.5885 -0.7159  0.1426
  149MOL0     C20028   9.047   6.350  10.806 -0.2459 -0.2446  0.4004
  149MOL0     C20029   8.928   6.296  10.769  0.4314 -0.5571 -0.4794
  149MOL0     N20030   8.312   5.984  10.637 -0.5350  0.4617  0.6192
  149MOL0     N20031   8.223   5.903  10.587  0.3052 -0.5400  0.9096
  149MOL0     C20032   7.008   6.088  10.413 -0.4066 -0.2096 -0.0325
  149MOL0     C20033   6.903   6.183  10.397  0.9201  0.5608 -0.0715
  149MOL0     C20034   6.649   6.485  10.111 -0.1105 -0.5938 -1.0119
  149MOL0     C20035   6.525   6.431  10.163 -0.3565 -0.5278  0.2561
  149MOL0     C20036   6.404   6.502  10.134 -1.2164  1.2583  0.1069
  149MOL0     C20037   6.397   6.623  10.080 -0.8907  0.3347  0.9362
  149MOL0     O20038   6.279   6.685  10.063 -0.0190 -0.0068 -0.4171
  149MOL0     C20039   6.279   6.805   9.990 -0.9133 -0.7878  0.5497
  149MOL0     C20040   6.159   6.880  10.044  0.9070 -0.3142 -0.2781
  149MOL0     C20041   6.027   6.812  10.008 -0.4027 -0.6372  0.4171
  149MOL0     C20042   5.905   6.870  10.075  0.5750  0.2697 -0.3286
  149MOL0     C20043   5.878   7.003  10.026  0.1255 -0.6280 -0.4452
  149MOL0     C20044   5.841   7.116   9.994  0.6948 -0.4832  0.5751
  149MOL0     C20045   6.526   6.671  10.025  0.0958  0.4989 -0.7865
  149MOL0     C20046   6.648   6.597  10.031 -0.5289 -1.1969  0.5708
  149MOL0     C20047   6.769   6.650   9.963 -0.5454 -0.2747 -0.4361
  149MOL0     H20048   6.870   6.172  10.067 -0.5336  4.4753  1.8890
  149MOL0     H20049   7.065   6.015  10.086 -2.9158 -1.3696 -0.4701
  149MOL0     H20050   7.232   5.849  10.174  0.7651  0.0870  0.0623
  149MOL0     H20051   7.284   6.027  10.177 -0.7376  2.5911  2.7391
  149MOL0     H20052   7.394   5.856  10.390 -1.9426  1.1386  1.0514
  149MOL0     H20053   7.474   5.989  10.312  1.0357 -0.9310  2.8834
  149MOL0     H20054   7.495   5.849  10.093 -1.5731 -3.5069 -2.1699
  149MOL0     H20055   7.422   5.712  10.158 -0.7134  0.2476 -1.7069
  149MOL0     H20056   7.598   5.714  10.349  1.4687 -2.1538 -0.0313
  149MOL0     H20057   7.648   5.676  10.181  1.7195  0.0124  1.6029
  149MOL0     H20058   7.770   5.861  10.171  0.0691  1.5149  0.2011
  149MOL0     H20059   7.671   5.944  10.292  1.7129  0.3700  2.0371
  149MOL0     H20060   7.775   5.765  10.458 -2.7054 -0.4140 -1.8391
  149MOL0     H20061   7.874   5.715  10.323 -0.7540  0.3929 -2.0703
  149MOL0     H20062   7.889   6.003  10.351  0.4410 -1.3476 -1.2986
  149MOL0     H20063   8.015   5.887  10.327  0.9352  0.7200  0.1455
  149MOL0     H20064   7.899   5.963  10.600 -1.4615 -3.2113 -0.2223
  149MOL0     H20065   7.961   5.805  10.574 -3.3873  0.8260  2.0624
  149MOL0     H20066   8.056   6.189  10.594  0.1366  0.6003 -1.0651
  149MOL0     H20067   8.256   6.322  10.649  0.2119  0.4123 -0.2361
  149MOL0     H20068   8.283   6.244  10.805  4.0850 -1.0115  1.0889
  149MOL0     H20069   8.493   6.339  10.759  0.8347  1.6503 -2.1463
  149MOL0     H20070   8.503   6.165  10.726 -2.2685 -0.4046  1.4891
  149MOL0     H20071   8.445   6.359  10.499  1.3354 -0.1655  0.1039
  149MOL0     H20072   8.497   6.201  10.481 -0.9246  0.7129 -0.0223
  149MOL0     H20073   8.635   6.448  10.560  1.1575 -0.7350  3.5514
  149MOL0     H20074   8.688   6.335  10.430 -0.3989  0.2311  0.1254
  149MOL0     H20075   8.885   6.451  10.476  3.5904  0.9074 -1.1370
  149MOL0     H20076   9.094   6.563  10.553 -0.9640  1.2938  0.7982
  149MOL0     H20077   9.485   6.366  10.891 -0.6513  1.8829 -1.6550
  149MOL0     H20078   9.690   6.418  10.994  1.1182  2.4046  1.0158
  149MOL0     H20079   9.708   6.799  11.261 -0.7429 -0.4744  0.0386
  149MOL0     H20080   9.749   6.635  11.317 -5.6328  0.2988 -0.0141
  149MOL0     H20081   9.981   6.679  11.242  1.1524  0.0869 -0.8326
  149MOL0     H20082   9.938   6.834  11.165 -1.2666  3.4224  1.6220
  149MOL0     H20083   9.878   6.911  11.408 -0.3641  0.8603 -0.7507
  149MOL0     H20084   9.956   6.765  11.467 -1.7545  0.5780 -0.0521
  149MOL0     H20085  10.101   6.979  11.434  0.3246 -1.0775  1.2274
  149MOL0     H20086  10.115   6.931  11.271 -0.1882 -0.7305 -0.8067
  149MOL0     H20087  10.231   6.737  11.326  0.2031  1.1894  0.0528
  149MOL0     H20088  10.176   6.740  11.495 -0.3544  2.1771  1.4481
  149MOL0     H20089  10.352   6.957  11.389 -0.6267 -0.4572 -0.5347
  149MOL0     H20090  10.315   6.919  11.556 -1.5160  2.0742 -0.9584
  149MOL0     H20091  10.448   6.733  11.367 -0.8781  1.3184 -0.9157
  149MOL0     H20092  10.445   6.711  11.541  2.1595 -2.4270 -0.5459
  149MOL0     H20093  10.624   6.925  11.405  4.2568  0.9560  2.3764
  149MOL0     H20094  10.561   6.938  11.577 -2.2267  0.0892  0.2020
  149MOL0     H20095   9.563   6.809  11.097  0.3362 -0.3575 -1.1900
  149MOL0     H20096   9.332   6.741  11.010 -2.5903 -2.2254 -0.3290
  149MOL0     H20097   9.099   6.307  10.891 -0.0719  0.2116  0.5283
  149MOL0     H20098   8.890   6.204  10.812 -1.8427  0.3043 -0.4789
  149MOL0     H20099   7.034   6.057  10.514  1.6599  1.2912 -0.0530
  149MOL0     H20100   6.849   6.218  10.484 -0.5752  1.6307 -1.3867
  149MOL0     H20101   6.521   6.337  10.218 -1.9699 -1.5892 -1.5438
  149MOL0     H20102   6.304   6.463  10.153  0.2321 -2.7615  0.4791
  149MOL0     H20103   6.260   6.790   9.883  0.3379 -1.5726  0.4238
  149MOL0     H20104   6.370   6.864  10.002 -0.1813 -2.0050  1.2299
  149MOL0     H20105   6.165   6.980   9.999 -1.3793  0.0490  0.1074
  149MOL0     H20106   6.161   6.888  10.153 -0.0236 -1.1831 -0.1829
  149MOL0     H20107   6.027   6.705  10.033 -0.0082 -1.0417 -1.1802
  149MOL0     H20108   6.012   6.808   9.900 -2.7773 -0.9186  0.6971
  149MOL0     H20109   5.816   6.809  10.059 -1.8815  2.4138  3.4355
  149MOL0     H20110   5.923   6.876  10.183  2.0767  0.5996 -0.5703
  149MOL0     H20111   5.813   7.216   9.968 -2.8526 -1.2966  0.8032
  149MOL0     H20112   6.557   6.767   9.985  2.4283  0.7453  1.3768
  149MOL0     H20113   6.734   6.699   9.872  0.7076 -0.1692 -0.8737
  149MOL0     H20114   6.811   6.724  10.031  3.3476 -1.5062 -1.2640
  149MOL0     H20115   6.838   6.570   9.933  0.7475  0.6212  0.0578
  150MOL0     O20116  10.365   2.463   7.336 -0.2704  0.1464  0.6847
  150MOL0     C20117  10.280   2.458   7.243 -0.2184 -0.1216  0.6088
  150MOL0     O20118  10.256   2.353   7.165 -0.2442  0.1450  0.8311
  150MOL0     C20119  10.327   2.236   7.172  0.2050 -0.4719  0.2582
  150MOL0     C20120  10.372   2.164   7.062  0.0626  0.3358 -0.4761
  150MOL0     C20121  10.433   2.042   7.072  0.2068  0.8744  0.3510
  150MOL0     C20122  10.464   1.986   7.196  1.0453  0.0385  0.2075
  150MOL0     O20123  10.527   1.867   7.209  0.0059  0.4138 -0.5075
  150MOL0     C20124  10.668   1.867   7.160  0.6880  0.2732 -0.4670
  150MOL0     C20125  10.760   1.973   7.222  1.0968 -0.2537 -0.6084
  150MOL0     C20126  10.903   1.964   7.173  0.4214 -0.1478  0.6800
  150MOL0     C20127  11.002   2.053   7.244 -0.1981 -0.2300  0.1465
  150MOL0     C20128  11.136   1.985   7.257  0.1792  0.6674  0.6727
  150MOL0     C20129  11.192   1.960   7.114 -0.5946 -0.3300  0.2870
  150MOL0     C20130  11.335   1.923   7.123 -0.8541 -0.4617 -0.6408
  150MOL0     C20131  11.434   2.044   7.141 -0.2554 -0.5710 -0.7246
  150MOL0     N20132  11.577   2.012   7.148  0.1436 -0.6401 -0.7584
  150MOL0     C20133  11.648   1.916   7.076 -0.5248  0.4768  1.0904
  150MOL0     C20134  11.778   1.945   7.110 -0.0380 -0.2569 -0.1759
  150MOL0     C20135  11.896   1.892   7.036 -0.3106  0.1677  0.1243
  150MOL0     C20136  12.033   1.909   7.117  0.0337 -0.4735  0.6631
  150MOL0     C20137  12.104   2.036   7.063 -0.6288  0.1670 -0.2710
  150MOL0     C20138  12.213   2.085   7.150  0.3555  0.1320 -0.5266
  150MOL0     O20139  12.309   1.982   7.189 -0.5169  0.3470 -0.0101
  150MOL0     C20140  12.444   2.014   7.202 -0.3067  0.4762 -1.0518
  150MOL0     C20141  12.501   2.138   7.221  0.3000 -0.6415  0.5478
  150MOL0     C20142  12.635   2.164   7.232 -0.1831  0.7961 -0.0630
  150MOL0     C20143  12.721   2.054   7.210  0.3098 -0.6672  0.3083
  150MOL0     C20144  12.857   2.083   7.210 -0.4349  0.4086 -0.8917
  150MOL0     O20145  12.904   2.209   7.174 -0.0321 -0.1098 -0.6116
  150MOL0     C20146  13.027   2.263   7.201 -0.8470 -1.0809  0.1961
  150MOL0     C20147  13.088   2.234   7.318 -0.7788 -0.5384 -0.3142
  150MOL0     C20148  13.213   2.296   7.337  0.3425 -0.1846 -0.8055
  150MOL0     C20149  13.282   2.373   7.250  0.3974 -0.8472  0.3518
  150MOL0     O20150  13.401   2.443   7.284 -0.4683 -0.1496  0.7602
  150MOL0     C20151  13.446   2.466   7.417 -0.1556  0.3208  0.2085
  150MOL0     C20152  13.563   2.368   7.456 -0.2529 -0.0844  0.7942
  150MOL0     C20153  13.696   2.449   7.431 -0.4261  0.8613  0.5100
  150MOL0     C20154  13.811   2.397   7.519 -0.3484  0.0103  0.3585
  150MOL0     C20155  13.941   2.463   7.482 -0.6884 -0.8249  0.4465
  150MOL0     C20156  14.063   2.379   7.544 -0.7184  0.2275 -0.8022
  150MOL0     C20157  14.203   2.423   7.497 -0.4505  0.4981  0.1932
  150MOL0     C20158  14.318   2.348   7.571  0.0678  1.0471 -0.0227
  150MOL0    Cl20159  14.474   2.399   7.498  0.4380 -0.1155  0.0106
  150MOL0     C20160  13.223   2.395   7.125 -0.3504 -0.7689  0.2387
  150MOL0     C20161  13.097   2.333   7.103 -0.0876  0.0973 -0.7506
  150MOL0     O20162  12.920   1.988   7.260  0.3975 -0.0188 -0.2904
  150MOL0     C20163  12.674   1.923   7.190 -0.0967  0.1971 -0.6608
  150MOL0     C20164  12.538   1.907   7.191  1.1852  0.2975 -0.1997
  150MOL0     N20165  11.782   2.054   7.184  0.3027 -0.3007 -0.6132
  150MOL0     N20166  11.662   2.091   7.219 -0.8754 -0.9186  0.6402
  150MOL0     C20167  10.413   2.047   7.310 -0.3606 -1.0052  0.7882
  150MOL0     C20168  10.351   2.178   7.302 -0.3791  0.8770  0.0091
  150MOL0     C20169  10.182   2.573   7.232 -0.7762  0.0106 -0.5441
  150MOL0     C20170  10.078   2.569   7.142 -0.4630  0.0501  0.8097
  150MOL0     C20171   9.985   2.675   7.126  0.5722  0.0971  1.2723
  150MOL0     C20172   9.993   2.785   7.205  0.6006  1.2219  0.0517
  150MOL0     O20173   9.899   2.878   7.176  0.7383 -0.7769  0.1577
  150MOL0     C20174   9.891   3.010   7.244  0.6180  1.1016 -0.5285
  150MOL0     C20175   9.759   3.073   7.203 -0.2615  0.0736  0.8788
  150MOL0     C20176   9.759   3.224   7.211  0.4265 -0.0685  0.3447
  150MOL0     C20177   9.763   3.283   7.352 -0.1690  0.9077 -0.0775
  150MOL0     C20178   9.657   3.226   7.436  0.3377 -0.8910 -0.0669
  150MOL0     C20179   9.557   3.162   7.482 -0.4751 -0.2333  0.2134
  150MOL0     C20180  10.092   2.794   7.300  0.3886 -0.4533  0.3305
  150MOL0     C20181  10.197   2.693   7.304  1.8303 -0.2624  0.4055
  150MOL0     C20182  10.291   2.716   7.415  0.3053  0.0487  0.2628
  150MOL0     H20183  10.361   2.206   6.962  1.1804  0.9402 -0.3562
  150MOL0     H20184  10.459   1.983   6.985  1.9463 -0.7505  1.8954
  150MOL0     H20185  10.709   1.765   7.166 -0.5288 -0.1495  3.1128
  150MOL0     H20186  10.670   1.889   7.053 -2.3625  1.1608 -0.4191
  150MOL0     H20187  10.761   1.945   7.328 -1.2226 -0.3054 -0.5550
  150MOL0     H20188  10.711   2.070   7.209 -2.7105 -2.0059 -0.5103
  150MOL0     H20189  10.899   1.999   7.070  3.4635 -2.3894 -0.3649
  150MOL0     H20190  10.938   1.860   7.162 -0.5913 -0.2829 -1.8068
  150MOL0     H20191  11.015   2.149   7.195  1.4741 -1.0269 -1.0558
  150MOL0     H20192  10.960   2.078   7.342 -1.0074  2.4081 -0.7833
  150MOL0     H20193  11.199   2.050   7.319  1.2487  1.3646 -1.0528
  150MOL0     H20194  11.116   1.888   7.303 -2.5967 -0.6265 -2.7820
  150MOL0     H20195  11.150   1.870   7.068 -0.4318  0.4894 -1.5074
  150MOL0     H20196  11.184   2.039   7.039  2.1185 -2.4170 -2.4440
  150MOL0     H20197  11.365   1.861   7.038  2.0614  0.9094 -0.7433
  150MOL0     H20198  11.351   1.867   7.216 -1.5038  2.5623  1.4254
  150MOL0     H20199  11.417   2.098   7.047  0.1612  3.2671  1.2115
  150MOL0     H20200  11.403   2.116   7.218  0.3588 -1.3670  0.2915
  150MOL0     H20201  11.608   1.854   6.997 -3.2300 -0.4276  3.0135
  150MOL0     H20202  11.875   1.785   7.024  2.4136 -0.1398 -3.4026
  150MOL0     H20203  11.908   1.930   6.934  2.8549  1.4484  0.8309
  150MOL0     H20204  12.008   1.905   7.224  0.7821 -4.4189  0.8479
  150MOL0     H20205  12.094   1.827   7.078 -1.8290 -1.1037 -1.0697
  150MOL0     H20206  12.029   2.116   7.052  0.4616  1.0208 -1.7816
  150MOL0     H20207  12.151   2.021   6.966 -3.2429 -1.0338 -1.4303
  150MOL0     H20208  12.185   2.128   7.247  0.4040  1.4518 -1.0817
  150MOL0     H20209  12.249   2.173   7.098  1.6707 -1.4158 -2.3787
  150MOL0     H20210  12.430   2.218   7.242 -0.5887 -1.4166  0.5756
  150MOL0     H20211  12.665   2.266   7.251  1.6762  0.4315 -0.7770
  150MOL0     H20212  13.061   2.166   7.397  0.5296  0.6090  1.1856
  150MOL0     H20213  13.256   2.263   7.431 -0.9220 -2.6071 -1.0121
  150MOL0     H20214  13.475   2.571   7.424  1.5707  0.5326 -5.3036
  150MOL0     H20215  13.365   2.431   7.481 -0.6336 -0.0859 -0.6026
  150MOL0     H20216  13.552   2.349   7.564  1.1173 -0.2675  0.9159
  150MOL0     H20217  13.555   2.266   7.419 -1.0330 -1.6438  4.7259
  150MOL0     H20218  13.706   2.445   7.322 -0.3432  0.4178  0.5343
  150MOL0     H20219  13.672   2.552   7.459 -2.2925  0.2620  1.3172
  150MOL0     H20220  13.815   2.289   7.528  1.2592 -0.0792 -0.8515
  150MOL0     H20221  13.802   2.439   7.619  2.1169 -0.2717  0.7548
  150MOL0     H20222  13.955   2.570   7.501  1.7356 -1.0954  0.5783
  150MOL0     H20223  13.959   2.454   7.374  2.1940  1.4008  0.6110
  150MOL0     H20224  14.065   2.382   7.653  1.0212 -0.2118 -0.7983
  150MOL0     H20225  14.046   2.275   7.515  2.2807 -1.3668  2.4756
  150MOL0     H20226  14.210   2.531   7.514 -1.9699  0.7398 -0.5385
  150MOL0     H20227  14.210   2.397   7.391 -0.0844 -1.5174  0.6711
  150MOL0     H20228  14.308   2.379   7.675 -4.0397 -1.3052  0.4996
  150MOL0     H20229  14.309   2.239   7.565  0.3288  1.0835 -1.4354
  150MOL0     H20230  13.278   2.456   7.054 -0.1071  1.9168  2.5104
  150MOL0     H20231  13.041   2.344   7.010  0.2245 -0.8295 -1.0589
  150MOL0     H20232  12.738   1.837   7.175 -1.0502 -0.7698  0.5260
  150MOL0     H20233  12.506   1.803   7.183  0.6445  0.2638  1.9630
  150MOL0     H20234  10.438   2.004   7.407 -1.1849  0.9994  1.9649
  150MOL0     H20235  10.314   2.229   7.391 -1.8819 -1.3708  0.7614
  150MOL0     H20236  10.064   2.476   7.088 -0.9610  1.1944 -1.1626
  150MOL0     H20237   9.895   2.668   7.066  1.1283 -0.9715  0.5237
  150MOL0     H20238   9.978   3.064   7.206 -0.2762  3.6928  0.8600
  150MOL0     H20239   9.893   2.987   7.351 -1.4684  2.1410 -0.1929
  150MOL0     H20240   9.681   3.024   7.262 -0.0704 -1.0042  0.2645
  150MOL0     H20241   9.748   3.033   7.102 -3.0872  0.0209  1.1253
  150MOL0     H20242   9.667   3.254   7.160  0.1123 -2.1696 -0.4071
  150MOL0     H20243   9.834   3.270   7.147 -0.1898 -0.9893 -1.1061
  150MOL0     H20244   9.864   3.251   7.379  1.0059  0.3024 -4.4769
  150MOL0     H20245   9.761   3.393   7.349 -0.6859  0.8868 -0.5465
  150MOL0     H20246   9.480   3.096   7.517  1.2810 -2.8664 -0.5812
  150MOL0     H20247  10.093   2.889   7.353 -0.9555  0.6197 -1.4102
  150MOL0     H20248  10.301   2.823   7.433 -1.1582  0.2840 -0.2220
  150MOL0     H20249  10.246   2.667   7.502  0.7009 -0.6799  0.0657
  150MOL0     H20250  10.387   2.676   7.383 -0.2393  0.2392 -1.7064
  151MOL0     O20251   3.367  10.951   4.039 -0.1477  0.3429  0.6812
  151MOL0     C20252   3.429  10.975   4.145  0.0995  0.3198  0.3627
  151MOL0     O20253   3.376  10.967   4.274 -0.6336  0.1580 -0.6429
  151MOL0     C20254   3.241  10.945   4.281 -0.3560  0.1956 -0.5261
  151MOL0     C20255   3.149  11.048   4.262  0.3356  0.3365 -0.5656
  151MOL0     C20256   3.016  11.024   4.279  0.6639  0.2207  0.6831
  151MOL0     C20257   2.963  10.895   4.302  0.3405 -0.0706  0.9166
  151MOL0     O20258   2.824  10.878   4.321 -0.4699 -0.4051 -0.3615
  151MOL0     C20259   2.755  10.863   4.196 -0.3329 -0.2820  0.5985
  151MOL0     C20260   2.601  10.884   4.200  0.0901 -0.6254 -0.6734
  151MOL0     C20261   2.533  10.842   4.065 -0.3593 -0.0792 -0.4683
  151MOL0     C20262   2.387  10.788   4.091 -0.5022 -0.8029  0.5925
  151MOL0     C20263   2.334  10.703   3.973  0.4793 -0.9300  0.0786
  151MOL0     C20264   2.199  10.667   4.021  0.3114  0.1578 -0.1474
  151MOL0     C20265   2.112  10.616   3.907 -0.2405  0.5859  0.1652
  151MOL0     C20266   2.075  10.707   3.802 -0.4340 -0.4059 -0.6384
  151MOL0     N20267   1.959  10.658   3.729 -0.0141 -0.7331 -0.2720
  151MOL0     C20268   1.962  10.588   3.612  0.0961 -0.4534 -0.4303
  151MOL0     C20269   1.829  10.553   3.587 -0.3748 -0.4701 -0.0966
  151MOL0     C20270   1.788  10.511   3.449  0.1380 -0.1523 -1.3457
  151MOL0     C20271   1.775  10.365   3.451  0.1457  1.3081  0.5634
  151MOL0     C20272   1.817  10.297   3.324 -0.4502  0.4643  0.5473
  151MOL0     C20273   1.966  10.283   3.310  0.2517 -0.9906 -0.1892
  151MOL0     O20274   2.007  10.193   3.203  0.7644  0.4391 -0.3859
  151MOL0     C20275   2.113  10.225   3.124  0.9253 -0.2964  0.1193
  151MOL0     C20276   2.140  10.145   3.009  0.7577  0.5700 -0.3481
  151MOL0     C20277   2.250  10.158   2.925  0.5800  0.4517 -0.5375
  151MOL0     C20278   2.345  10.248   2.961  0.5601  0.3547 -0.4395
  151MOL0     C20279   2.466  10.266   2.877 -0.9039  0.2511 -0.1542
  151MOL0     O20280   2.551  10.356   2.930  0.0727 -0.3277 -0.0361
  151MOL0     C20281   2.686  10.345   2.906  0.2775 -1.6430  0.2381
  151MOL0     C20282   2.746  10.466   2.879  0.1678  0.1626 -0.2346
  151MOL0     C20283   2.884  10.482   2.834 -0.0602  0.5848 -0.0102
  151MOL0     C20284   2.965  10.375   2.827  0.2224 -0.5583  0.4750
  151MOL0     O20285   3.093  10.404   2.804  0.1569  0.2974  0.5256
  151MOL0     C20286   3.173  10.305   2.736 -0.0054 -1.0793  0.4028
  151MOL0     C20287   3.242  10.372   2.618 -0.6262 -0.5150  0.1109
  151MOL0     C20288   3.352  10.475   2.656  0.2626  0.0076  0.8138
  151MOL0     C20289   3.413  10.528   2.525  1.3563  0.4203 -0.2953
  151MOL0     C20290   3.494  10.659   2.542  0.5670  0.9378 -0.4157
  151MOL0     C20291   3.577  10.694   2.415 -0.1099  0.6838 -0.5441
  151MOL0     C20292   3.676  10.807   2.408  0.0615 -0.2459 -0.1866
  151MOL0     C20293   3.705  10.858   2.265  0.4322  1.3896 -0.9479
  151MOL0    Cl20294   3.812  10.989   2.262 -0.0780 -0.1054 -0.8749
  151MOL0     C20295   2.904  10.244   2.855  0.1195  0.4395  0.7155
  151MOL0     C20296   2.771  10.228   2.892 -0.1837  0.5929 -0.2750
  151MOL0     O20297   2.480  10.213   2.764  0.4085 -0.0392 -0.6885
  151MOL0     C20298   2.327  10.326   3.076 -1.4753  0.1526 -0.9707
  151MOL0     C20299   2.213  10.319   3.160 -0.1250 -0.3153 -0.0496
  151MOL0     N20300   1.757  10.606   3.694 -0.2128 -0.6964 -0.1910
  151MOL0     N20301   1.833  10.662   3.776 -0.6853 -0.4523 -0.4868
  151MOL0     C20302   3.051  10.790   4.322 -0.3478 -0.5472  0.8290
  151MOL0     C20303   3.187  10.813   4.308 -0.8641 -0.3148 -0.1912
  151MOL0     C20304   3.576  11.012   4.136  0.6154  0.3547 -0.8327
  151MOL0     C20305   3.660  10.965   4.241  0.2496 -0.0254  0.5022
  151MOL0     C20306   3.792  11.001   4.240  0.1883 -0.7570  0.9796
  151MOL0     C20307   3.851  11.080   4.140  0.4622 -0.9642 -1.1276
  151MOL0     O20308   3.984  11.115   4.153 -0.1677 -0.8142 -0.1031
  151MOL0     C20309   4.034  11.252   4.143  0.4497  0.0410  0.0293
  151MOL0     C20310   3.969  11.358   4.231 -0.3364 -0.1592 -0.2332
  151MOL0     C20311   3.966  11.330   4.384  0.6444  0.3650 -0.0297
  151MOL0     C20312   4.102  11.288   4.440 -0.1799 -0.4331 -0.6158
  151MOL0     C20313   4.083  11.269   4.586  0.4597 -0.8789  0.1630
  151MOL0     C20314   4.050  11.277   4.699  0.0458 -0.0364 -0.5215
  151MOL0     C20315   3.774  11.141   4.043 -0.6927  0.4888 -0.9979
  151MOL0     C20316   3.634  11.111   4.041  0.3496 -0.0067  0.1977
  151MOL0     C20317   3.545  11.192   3.948 -0.7172 -0.1413  0.3920
  151MOL0     H20318   3.200  11.144   4.253  1.4594 -0.4388 -4.0125
  151MOL0     H20319   2.945  11.102   4.253  3.3445  2.4507 -0.4122
  151MOL0     H20320   2.798  10.931   4.122 -0.3319 -1.4886 -0.5443
  151MOL0     H20321   2.770  10.759   4.164  3.2607  0.0426  0.7881
  151MOL0     H20322   2.578  10.989   4.221  1.9996 -0.4448  0.8365
  151MOL0     H20323   2.560  10.822   4.281 -0.8765 -1.0619 -1.4671
  151MOL0     H20324   2.586  10.764   4.010  0.5317 -0.9499  1.5569
  151MOL0     H20325   2.522  10.930   4.000 -0.6056  0.7524  0.6791
  151MOL0     H20326   2.400  10.734   4.185  4.5057 -2.1046 -0.5469
  151MOL0     H20327   2.321  10.872   4.115  0.3704  0.7102 -1.8866
  151MOL0     H20328   2.334  10.772   3.888 -0.1921 -1.7563 -0.6034
  151MOL0     H20329   2.392  10.615   3.944 -2.4786 -2.9422 -0.1804
  151MOL0     H20330   2.200  10.584   4.092  1.7935  0.1717 -0.1137
  151MOL0     H20331   2.140  10.753   4.054 -2.4685  0.2587 -4.4597
  151MOL0     H20332   2.021  10.578   3.955 -1.5549  1.4026 -1.6000
  151MOL0     H20333   2.158  10.527   3.863  0.3775  0.6907  0.5744
  151MOL0     H20334   2.049  10.800   3.854  3.1816  0.9227 -0.9496
  151MOL0     H20335   2.163  10.726   3.741  1.8366  0.6625  2.7269
  151MOL0     H20336   2.034  10.591   3.531  1.2290 -1.0934  0.5402
  151MOL0     H20337   1.693  10.557   3.422 -0.3444  0.3839  1.0293
  151MOL0     H20338   1.863  10.537   3.373  2.5610 -1.9567  0.2564
  151MOL0     H20339   1.816  10.313   3.539 -0.5968  0.2681  0.3179
  151MOL0     H20340   1.667  10.352   3.452  0.3040 -0.5432 -0.9064
  151MOL0     H20341   1.782  10.351   3.235  0.6940 -0.9804 -0.8548
  151MOL0     H20342   1.777  10.196   3.330 -1.4385  0.7579 -0.5538
  151MOL0     H20343   2.009  10.251   3.405  3.2960 -0.4299 -1.2514
  151MOL0     H20344   2.002  10.382   3.279  0.7742 -1.9996 -3.1227
  151MOL0     H20345   2.067  10.067   2.989  0.3068  0.7735  0.4706
  151MOL0     H20346   2.259  10.095   2.837  1.3621 -0.1745 -0.0128
  151MOL0     H20347   2.689  10.558   2.892  1.1720  0.6660  0.7410
  151MOL0     H20348   2.935  10.577   2.819  2.2114 -0.7132 -0.9526
  151MOL0     H20349   3.255  10.278   2.804  0.1965  0.7304  0.9552
  151MOL0     H20350   3.113  10.222   2.700 -3.5099  1.4051  0.0241
  151MOL0     H20351   3.296  10.296   2.560  0.8448  1.0591 -0.6487
  151MOL0     H20352   3.173  10.420   2.549  0.4257 -1.5179 -1.7049
  151MOL0     H20353   3.287  10.551   2.701 -3.1255  0.2046 -3.7291
  151MOL0     H20354   3.425  10.425   2.720 -0.3392 -1.5816  0.3246
  151MOL0     H20355   3.337  10.540   2.447 -0.1946 -1.3601  0.8523
  151MOL0     H20356   3.479  10.450   2.488 -0.3352  0.0147 -2.6735
  151MOL0     H20357   3.566  10.653   2.625  0.2176 -0.8669 -0.2140
  151MOL0     H20358   3.418  10.733   2.567 -1.2184 -0.7325 -0.7129
  151MOL0     H20359   3.633  10.601   2.398 -1.6185 -0.4182  0.2891
  151MOL0     H20360   3.505  10.703   2.333 -0.8908 -0.7054 -0.0385
  151MOL0     H20361   3.767  10.777   2.460  0.1698 -1.1592 -0.8776
  151MOL0     H20362   3.624  10.885   2.464 -0.3341 -0.4100 -0.3236
  151MOL0     H20363   3.761  10.778   2.214  2.4833  2.1957 -0.0757
  151MOL0     H20364   3.617  10.888   2.208 -0.2393 -1.1718 -1.3884
  151MOL0     H20365   2.956  10.150   2.844 -1.2305 -0.5821  2.5212
  151MOL0     H20366   2.726  10.133   2.917 -2.6256  2.3003  2.5564
  151MOL0     H20367   2.406  10.396   3.103  1.3966 -2.5305 -1.9007
  151MOL0     H20368   2.209  10.376   3.252 -1.7703 -0.8167  0.2088
  151MOL0     H20369   3.016  10.691   4.350 -0.2671 -1.3757 -1.6787
  151MOL0     H20370   3.247  10.723   4.311 -0.7660 -0.2900 -1.1665
  151MOL0     H20371   3.635  10.890   4.316  2.4305 -0.2540  1.0848
  151MOL0     H20372   3.863  10.981   4.320  1.6752  1.0321  0.1687
  151MOL0     H20373   4.028  11.284   4.039  1.6959  0.2455  0.0065
  151MOL0     H20374   4.142  11.246   4.163  0.9451  0.2469 -2.3303
  151MOL0     H20375   3.866  11.385   4.203 -1.4383 -3.1555  0.4952
  151MOL0     H20376   4.029  11.448   4.222  0.3310 -0.5329  0.3631
  151MOL0     H20377   3.899  11.246   4.404 -0.4895  1.5688  1.4732
  151MOL0     H20378   3.924  11.420   4.430 -1.5919 -0.1807 -0.8588
  151MOL0     H20379   4.129  11.189   4.401  1.3484 -0.1820 -0.2600
  151MOL0     H20380   4.184  11.358   4.422  0.5376 -1.1238 -0.1019
  151MOL0     H20381   4.002  11.291   4.793  3.6215  3.2798  1.1049
  151MOL0     H20382   3.810  11.223   3.983  0.6090  0.0501 -0.8363
  151MOL0     H20383   3.474  11.251   4.005 -3.6273 -1.2827 -1.8012
  151MOL0     H20384   3.586  11.253   3.867 -0.9916 -0.7158 -0.1875
  151MOL0     H20385   3.496  11.112   3.892  0.5144 -1.0975  0.6138
  152MOL0     O20386  10.444  10.872   3.666 -0.4529 -0.0857  0.1103
  152MOL0     C20387  10.427  10.755   3.678 -0.4258  0.8420  0.6781
  152MOL0     O20388  10.522  10.660   3.698  0.1002 -0.7475  1.0546
  152MOL0     C20389  10.654  10.702   3.701  0.7596 -0.1819 -0.5427
  152MOL0     C20390  10.752  10.608   3.672 -0.3966  0.4730 -0.4644
  152MOL0     C20391  10.890  10.634   3.684  0.0483 -0.0438  0.4738
  152MOL0     C20392  10.931  10.750   3.750  0.6476 -1.0174  0.4629
  152MOL0     O20393  11.063  10.774   3.779  0.5367 -0.3467 -0.1262
  152MOL0     C20394  11.161  10.677   3.781 -0.1994  0.2085  0.3274
  152MOL0     C20395  11.307  10.730   3.780  0.2489  0.7519  0.3401
  152MOL0     C20396  11.322  10.810   3.647 -0.8359  0.0839  0.4675
  152MOL0     C20397  11.440  10.906   3.660  0.3775 -0.7954 -0.5468
  152MOL0     C20398  11.463  10.983   3.525 -0.1208 -0.6062 -0.1675
  152MOL0     C20399  11.573  11.084   3.550  0.0959  0.0808 -0.5893
  152MOL0     C20400  11.512  11.229   3.567  0.3301  0.9460  0.0689
  152MOL0     C20401  11.458  11.288   3.438  0.1125  0.7732 -0.2506
  152MOL0     N20402  11.424  11.430   3.469  0.2696  0.1817  0.8488
  152MOL0     C20403  11.491  11.538   3.418 -0.0179  0.4672  0.3038
  152MOL0     C20404  11.430  11.650   3.461  0.7514  0.9727 -0.3706
  152MOL0     C20405  11.467  11.788   3.439 -0.4605 -0.4113  0.3010
  152MOL0     C20406  11.367  11.891   3.370  0.9303 -0.1112  0.2213
  152MOL0     C20407  11.439  12.022   3.355 -0.3722 -0.7611  1.7088
  152MOL0     C20408  11.551  12.020   3.252 -0.8238 -0.0789  0.6793
  152MOL0     O20409  11.572  12.157   3.205 -0.6104 -0.3768  0.2855
  152MOL0     C20410  11.664  12.172   3.102 -0.1215  0.1900  0.3411
  152MOL0     C20411  11.678  12.304   3.057 -0.2528 -1.4210  0.1778
  152MOL0     C20412  11.780  12.346   2.976  1.1207 -0.1015 -0.9309
  152MOL0     C20413  11.864  12.250   2.917 -0.6024  0.2793  0.4858
  152MOL0     C20414  11.985  12.295   2.844  0.8778  0.6146 -0.4030
  152MOL0     O20415  11.974  12.409   2.774  0.5765 -0.2987 -0.0516
  152MOL0     C20416  12.090  12.457   2.722  0.3368  0.6174 -0.3333
  152MOL0     C20417  12.196  12.489   2.803 -0.9513 -0.1072  0.0234
  152MOL0     C20418  12.316  12.539   2.754 -0.6996  0.2512  0.2492
  152MOL0     C20419  12.327  12.554   2.616  0.4412 -0.3477 -0.0121
  152MOL0     O20420  12.443  12.617   2.574 -0.0092 -0.6685  0.5379
  152MOL0     C20421  12.480  12.638   2.444  0.1821 -0.4057  0.2483
  152MOL0     C20422  12.626  12.689   2.461  0.4255 -0.1417 -0.0411
  152MOL0     C20423  12.680  12.727   2.325 -0.5677  0.0638  0.8125
  152MOL0     C20424  12.787  12.837   2.344  0.1981  0.2057 -0.4886
  152MOL0     C20425  12.854  12.869   2.210  0.2399  0.3125 -0.2232
  152MOL0     C20426  12.988  12.801   2.169  0.2472 -0.3381 -0.3533
  152MOL0     C20427  13.027  12.852   2.037 -1.4261 -0.2553  0.2804
  152MOL0     C20428  13.168  12.815   2.007  0.4733  0.3359 -0.7192
  152MOL0    Cl20429  13.298  12.875   2.115 -0.4571 -0.3554 -0.1481
  152MOL0     C20430  12.223  12.510   2.526  0.5686 -0.6924 -0.1634
  152MOL0     C20431  12.108  12.457   2.589  1.0950  0.1139  0.0078
  152MOL0     O20432  12.078  12.220   2.846  0.2730 -0.1900 -0.0238
  152MOL0     C20433  11.853  12.112   2.964 -0.0063 -1.0948 -0.3724
  152MOL0     C20434  11.755  12.077   3.057 -0.5877 -0.5929  0.3404
  152MOL0     N20435  11.319  11.606   3.529  0.2216  0.2980 -0.2481
  152MOL0     N20436  11.311  11.480   3.521 -0.1769  0.0651 -0.2283
  152MOL0     C20437  10.832  10.838   3.792 -0.5034 -0.1744 -0.4675
  152MOL0     C20438  10.697  10.824   3.766 -0.6615  0.7306  0.3557
  152MOL0     C20439  10.283  10.709   3.658 -0.4038  0.1969  0.3775
  152MOL0     C20440  10.258  10.568   3.689  0.4068  0.0564 -0.1274
  152MOL0     C20441  10.136  10.506   3.658 -0.3050  0.9564 -0.2624
  152MOL0     C20442  10.030  10.575   3.602  0.4203  0.1598 -0.7273
  152MOL0     O20443   9.908  10.518   3.559 -1.4859 -0.4625  0.0860
  152MOL0     C20444   9.900  10.376   3.571  0.1529 -0.5168 -0.8184
  152MOL0     C20445   9.748  10.329   3.547 -0.5351 -0.0831 -0.1823
  152MOL0     C20446   9.641  10.429   3.572  0.5710 -0.0425 -0.1407
  152MOL0     C20447   9.494  10.393   3.535 -0.5604  0.8405  0.3307
  152MOL0     C20448   9.471  10.367   3.390  0.5741 -0.1513  1.1538
  152MOL0     C20449   9.447  10.354   3.269 -0.1582 -0.6494  1.0448
  152MOL0     C20450  10.056  10.707   3.574  0.2015 -0.8586  0.0577
  152MOL0     C20451  10.177  10.778   3.594  0.0413  0.7258 -0.8917
  152MOL0     C20452  10.193  10.919   3.536  0.7492 -0.4367  0.4160
  152MOL0     H20453  10.732  10.506   3.642 -0.5292  0.5733 -0.7206
  152MOL0     H20454  10.969  10.564   3.660 -0.6346 -1.3047  1.7719
  152MOL0     H20455  11.145  10.607   3.864 -2.9534  1.5230  1.0204
  152MOL0     H20456  11.151  10.616   3.691  1.1387  1.1467 -0.4978
  152MOL0     H20457  11.376  10.647   3.796  2.0144  2.2960  1.0213
  152MOL0     H20458  11.320  10.785   3.873 -2.1339  2.1532 -0.0608
  152MOL0     H20459  11.225  10.862   3.642 -0.9044  0.2993  2.8414
  152MOL0     H20460  11.326  10.746   3.559 -0.4518  2.0655 -1.0253
  152MOL0     H20461  11.417  10.977   3.740 -1.4226 -1.0299 -0.8044
  152MOL0     H20462  11.520  10.839   3.692 -0.3519 -2.2074 -1.5318
  152MOL0     H20463  11.496  10.920   3.442  0.7588 -1.0635  0.5143
  152MOL0     H20464  11.368  11.029   3.497 -0.5625 -0.9849  0.6632
  152MOL0     H20465  11.640  11.055   3.631 -1.6805  0.0449  0.9266
  152MOL0     H20466  11.636  11.087   3.460 -0.1996  0.1255 -0.7978
  152MOL0     H20467  11.597  11.289   3.601  1.7304 -0.3129 -1.0748
  152MOL0     H20468  11.435  11.235   3.644 -0.1923  2.2262 -0.5184
  152MOL0     H20469  11.514  11.270   3.346  0.0634  4.8019 -1.2903
  152MOL0     H20470  11.359  11.246   3.415 -0.8535  2.0428  1.3491
  152MOL0     H20471  11.583  11.540   3.361 -1.1489 -1.6139 -1.7181
  152MOL0     H20472  11.504  11.831   3.532  0.9624 -2.1322  0.5687
  152MOL0     H20473  11.543  11.781   3.361 -0.1992  1.1562  0.3820
  152MOL0     H20474  11.325  11.861   3.273  0.5744 -0.1913  0.3990
  152MOL0     H20475  11.281  11.909   3.436  1.0338  0.9545  0.0719
  152MOL0     H20476  11.488  12.050   3.449 -0.1598 -0.7257  1.5881
  152MOL0     H20477  11.372  12.104   3.327  0.0770 -1.4004 -1.6145
  152MOL0     H20478  11.517  11.961   3.166 -0.8223  2.3849 -1.1305
  152MOL0     H20479  11.646  11.974   3.280  1.1784  1.0644 -3.3894
  152MOL0     H20480  11.599  12.375   3.083  2.1510  2.4961 -2.0813
  152MOL0     H20481  11.796  12.453   2.968  3.2508  0.1003  3.3997
  152MOL0     H20482  12.189  12.487   2.911  3.1018  1.8006  0.4872
  152MOL0     H20483  12.390  12.584   2.819 -0.9781  0.8220  0.1810
  152MOL0     H20484  12.471  12.557   2.371 -1.9891  0.6861 -0.7961
  152MOL0     H20485  12.430  12.728   2.406  2.2028  0.8383  0.3793
  152MOL0     H20486  12.618  12.768   2.536 -1.1271  0.8842 -1.2044
  152MOL0     H20487  12.688  12.610   2.504  0.8479 -0.2003 -0.7494
  152MOL0     H20488  12.716  12.637   2.275  0.7484 -0.4474  2.5854
  152MOL0     H20489  12.599  12.762   2.260 -2.3948 -1.1860  2.3032
  152MOL0     H20490  12.857  12.793   2.415 -0.5913 -1.2433 -0.5713
  152MOL0     H20491  12.725  12.922   2.377 -0.4614 -0.1821 -0.7120
  152MOL0     H20492  12.846  12.977   2.198 -0.3080  0.6955  2.7688
  152MOL0     H20493  12.781  12.834   2.137 -0.6111  2.2949 -0.3900
  152MOL0     H20494  13.066  12.812   2.245  1.1995 -0.7681 -1.2360
  152MOL0     H20495  12.966  12.694   2.164  2.3826 -0.8122 -0.6271
  152MOL0     H20496  13.011  12.960   2.035 -2.8977 -0.4021  1.8284
  152MOL0     H20497  12.977  12.801   1.954  1.1677  1.2217 -2.3863
  152MOL0     H20498  13.171  12.706   1.999 -2.7902  0.2092 -1.6158
  152MOL0     H20499  13.198  12.846   1.906  6.3662  0.0290  0.5780
  152MOL0     H20500  12.234  12.519   2.418  3.5959  0.8903  0.1703
  152MOL0     H20501  12.025  12.428   2.525  1.8971 -0.0230 -0.9837
  152MOL0     H20502  11.939  12.054   2.934  1.0296 -0.3493  0.9925
  152MOL0     H20503  11.755  11.975   3.094  2.3878  0.1130  2.6665
  152MOL0     H20504  10.859  10.926   3.850 -4.3233  0.9776 -0.2150
  152MOL0     H20505  10.639  10.909   3.798 -0.4871  0.4393  1.4748
  152MOL0     H20506  10.333  10.494   3.712  0.9490  0.7635  0.4363
  152MOL0     H20507  10.125  10.399   3.672 -1.5001  1.2385  1.1459
  152MOL0     H20508   9.924  10.338   3.671  1.0114  0.3927 -0.6726
  152MOL0     H20509   9.965  10.320   3.503 -0.2725 -0.0522 -1.6274
  152MOL0     H20510   9.726  10.246   3.615  0.6091  0.6848  1.1664
  152MOL0     H20511   9.743  10.288   3.445 -0.9969  1.1399 -0.6774
  152MOL0     H20512   9.668  10.527   3.531 -2.4197  1.9613  2.2174
  152MOL0     H20513   9.638  10.454   3.678  0.4495 -0.8946  0.0642
  152MOL0     H20514   9.465  10.296   3.578  0.6728  0.6144  0.6990
  152MOL0     H20515   9.425  10.469   3.571  1.2030  1.9954  1.3641
  152MOL0     H20516   9.441  10.349   3.162  1.2251  0.1184  0.9108
  152MOL0     H20517   9.973  10.761   3.529 -0.9442 -3.4121 -1.1379
  152MOL0     H20518  10.181  11.002   3.607  0.5570  0.0345 -0.1567
  152MOL0     H20519  10.289  10.924   3.485  0.8448  0.2486  0.6565
  152MOL0     H20520  10.120  10.953   3.462 -2.3159  0.2898  3.5002
  153MOL0     O20521   5.063   0.946   0.815  0.4434 -0.4200  0.4143
  153MOL0     C20522   5.016   1.031   0.736  0.1533 -0.6690  0.4781
  153MOL0     O20523   5.048   1.041   0.606  0.1000 -0.4017  0.6418
  153MOL0     C20524   5.128   0.943   0.551 -0.8205 -0.6885  0.2923
  153MOL0     C20525   5.249   0.981   0.481  0.6678 -0.3581 -0.3281
  153MOL0     C20526   5.330   0.885   0.432 -0.0990 -0.1891  0.2868
  153MOL0     C20527   5.296   0.746   0.433  0.5837  0.0123 -0.4020
  153MOL0     O20528   5.390   0.666   0.389 -0.0660  0.5135  0.0992
  153MOL0     C20529   5.389   0.523   0.412 -0.1612 -0.7008 -0.2861
  153MOL0     C20530   5.532   0.455   0.392  0.6853 -0.0484 -0.2734
  153MOL0     C20531   5.521   0.306   0.395 -0.1190 -0.3896  0.0973
  153MOL0     C20532   5.451   0.246   0.518 -0.4030  0.6944  0.1071
  153MOL0     C20533   5.484   0.090   0.541 -0.8956 -0.3939 -1.0732
  153MOL0     C20534   5.470   0.004   0.406  0.2441  0.6169  0.5464
  153MOL0     C20535   5.524  -0.132   0.427  0.3921  0.1270  0.2412
  153MOL0     C20536   5.497  -0.219   0.300 -0.1969  0.0326 -0.5075
  153MOL0     N20537   5.608  -0.227   0.208 -0.3764 -0.4370 -0.1238
  153MOL0     C20538   5.639  -0.129   0.117 -0.6509 -0.9248  0.7240
  153MOL0     C20539   5.771  -0.156   0.082  0.4846  0.7922  0.4724
  153MOL0     C20540   5.847  -0.088  -0.026  0.9316  0.1449 -0.1074
  153MOL0     C20541   5.799   0.053  -0.059 -0.4915  0.7030  0.8819
  153MOL0     C20542   5.851   0.090  -0.199 -0.0651  0.0848  0.1112
  153MOL0     C20543   6.006   0.104  -0.198 -0.0840  1.1690 -0.4087
  153MOL0     O20544   6.037   0.214  -0.283 -0.3185 -0.0094 -0.7092
  153MOL0     C20545   6.171   0.250  -0.290 -0.0198  0.5694  1.0893
  153MOL0     C20546   6.197   0.375  -0.340 -0.1188  0.2102  0.1409
  153MOL0     C20547   6.322   0.432  -0.352 -0.2852  0.2381  0.1880
  153MOL0     C20548   6.432   0.350  -0.315 -0.4142 -0.8670 -0.7457
  153MOL0     C20549   6.574   0.386  -0.330 -0.4185  0.1539 -0.3758
  153MOL0     O20550   6.603   0.523  -0.356  0.4605 -0.2924  0.0456
  153MOL0     C20551   6.730   0.555  -0.380 -0.0515  0.2233 -0.5582
  153MOL0     C20552   6.819   0.576  -0.274 -0.6409 -0.0760  0.6015
  153MOL0     C20553   6.955   0.598  -0.298 -0.2427  0.0739  0.1737
  153MOL0     C20554   7.004   0.622  -0.422 -0.2547 -0.0091  0.4198
  153MOL0     O20555   7.137   0.650  -0.430  0.3709 -0.1029  0.5282
  153MOL0     C20556   7.173   0.731  -0.543 -0.8772 -0.2515 -0.0659
  153MOL0     C20557   7.280   0.673  -0.621 -0.6679  1.2092  0.2894
  153MOL0     C20558   7.406   0.670  -0.544 -1.0083  0.5966  0.6090
  153MOL0     C20559   7.517   0.591  -0.615 -1.5534  1.0732  0.0845
  153MOL0     C20560   7.663   0.594  -0.557  0.4194  0.0911 -0.4323
  153MOL0     C20561   7.712   0.741  -0.532  0.2426 -0.0727  0.8772
  153MOL0     C20562   7.864   0.758  -0.511  0.3759 -0.3625  0.1447
  153MOL0     C20563   7.921   0.893  -0.507  0.1090 -0.6347 -1.1037
  153MOL0    Cl20564   7.889   0.988  -0.366  0.2277  0.0127  0.4218
  153MOL0     C20565   6.911   0.605  -0.532 -0.7038  0.1038  2.0256
  153MOL0     C20566   6.782   0.563  -0.511  0.1202  0.0599  0.0706
  153MOL0     O20567   6.658   0.295  -0.332 -0.1109 -0.6337 -0.4451
  153MOL0     C20568   6.406   0.217  -0.265  0.1737  0.1142 -0.3336
  153MOL0     C20569   6.277   0.164  -0.257  0.2343 -0.1110  0.0247
  153MOL0     N20570   5.817  -0.267   0.156  0.1155 -0.8340 -0.6156
  153MOL0     N20571   5.716  -0.315   0.222  0.1648 -0.3114  0.2057
  153MOL0     C20572   5.163   0.719   0.481  0.0040  0.1591  0.2276
  153MOL0     C20573   5.083   0.811   0.549 -0.3942  0.3115 -0.3967
  153MOL0     C20574   4.949   1.147   0.805 -0.1233  0.0378 -0.1151
  153MOL0     C20575   4.943   1.273   0.738 -0.5544  0.0798  1.0382
  153MOL0     C20576   4.898   1.383   0.799 -1.6302 -0.7865 -0.0187
  153MOL0     C20577   4.839   1.375   0.932  0.3294 -0.3577  0.4377
  153MOL0     O20578   4.806   1.495   0.988  0.3236 -0.1800 -0.1024
  153MOL0     C20579   4.764   1.504   1.129  0.5172 -0.7792 -0.1301
  153MOL0     C20580   4.674   1.626   1.166  0.3483  0.7501  0.1543
  153MOL0     C20581   4.742   1.760   1.140  0.1699 -0.4738  0.8942
  153MOL0     C20582   4.682   1.878   1.211  0.4258  0.6553 -0.9913
  153MOL0     C20583   4.744   1.916   1.343  0.1021 -0.1587  0.5875
  153MOL0     C20584   4.791   1.949   1.447 -0.5978  0.3891 -0.1275
  153MOL0     C20585   4.827   1.253   0.996  0.5125  0.1789 -0.4158
  153MOL0     C20586   4.879   1.134   0.939 -0.4788 -0.7931 -1.1695
  153MOL0     C20587   4.856   0.996   1.012  0.8599 -0.6406  0.6471
  153MOL0     H20588   5.273   1.087   0.479  0.0627 -0.0480  3.1298
  153MOL0     H20589   5.429   0.905   0.392 -0.1262 -0.9913 -0.2110
  153MOL0     H20590   5.353   0.505   0.514 -3.0431  2.5923 -0.5445
  153MOL0     H20591   5.323   0.476   0.339  0.6602 -0.3649 -1.2613
  153MOL0     H20592   5.601   0.495   0.467 -0.5600  0.2917  0.7225
  153MOL0     H20593   5.567   0.486   0.293 -0.7845 -2.3052 -1.6045
  153MOL0     H20594   5.625   0.271   0.397 -0.1065 -0.4539 -1.1465
  153MOL0     H20595   5.474   0.277   0.301  2.4295  1.3788 -1.8742
  153MOL0     H20596   5.475   0.301   0.610  0.2851  2.1251 -0.8898
  153MOL0     H20597   5.342   0.257   0.510 -0.6218  0.0098  1.7337
  153MOL0     H20598   5.592   0.094   0.559 -0.8028 -0.4911 -1.5900
  153MOL0     H20599   5.421   0.050   0.620 -2.0940  0.5876 -1.5134
  153MOL0     H20600   5.362  -0.000   0.389 -0.0477  1.0353  2.1238
  153MOL0     H20601   5.517   0.053   0.319  0.9089  0.2514  0.6907
  153MOL0     H20602   5.481  -0.167   0.521 -1.5095 -0.2694 -0.7252
  153MOL0     H20603   5.632  -0.117   0.437  0.6357  0.5557 -2.2914
  153MOL0     H20604   5.487  -0.320   0.341 -1.6660  0.5371  0.4628
  153MOL0     H20605   5.412  -0.197   0.235 -0.4895 -0.9131 -0.4516
  153MOL0     H20606   5.582  -0.042   0.083  0.1081 -0.4529  0.6354
  153MOL0     H20607   5.949  -0.076   0.012  2.2251 -2.8842 -2.2380
  153MOL0     H20608   5.861  -0.153  -0.113 -1.3892  0.9587 -1.1676
  153MOL0     H20609   5.690   0.061  -0.065 -0.6455 -1.6101 -0.1473
  153MOL0     H20610   5.847   0.117   0.016  4.2582 -1.3104 -0.1154
  153MOL0     H20611   5.805   0.181  -0.238  0.6285  0.3072 -0.2029
  153MOL0     H20612   5.835   0.003  -0.262  0.3973 -0.9365  1.3627
  153MOL0     H20613   6.039   0.007  -0.235 -3.8873 -0.4221 -0.1175
  153MOL0     H20614   6.058   0.105  -0.102  1.0957  0.1084 -1.0156
  153MOL0     H20615   6.105   0.424  -0.368 -1.2638  0.3278  3.5637
  153MOL0     H20616   6.338   0.532  -0.390 -1.7490 -0.1059 -1.5045
  153MOL0     H20617   6.792   0.564  -0.170 -0.3167  0.3193  0.7319
  153MOL0     H20618   7.022   0.604  -0.212  0.8789 -2.3792 -0.4517
  153MOL0     H20619   7.088   0.746  -0.610 -1.8877 -2.1757  0.7099
  153MOL0     H20620   7.214   0.827  -0.510  1.1428 -1.1286  0.0978
  153MOL0     H20621   7.247   0.576  -0.660 -1.2816  0.5544  2.2875
  153MOL0     H20622   7.290   0.753  -0.694  0.9694 -2.4129 -3.9131
  153MOL0     H20623   7.441   0.771  -0.526  1.6435 -0.4732  1.9672
  153MOL0     H20624   7.395   0.615  -0.450  1.3738 -1.0397  0.0277
  153MOL0     H20625   7.527   0.628  -0.717 -2.7549  1.8864  0.2449
  153MOL0     H20626   7.477   0.489  -0.623  0.0137  0.3973  0.5184
  153MOL0     H20627   7.734   0.543  -0.623  1.6829 -0.0391  0.9853
  153MOL0     H20628   7.663   0.541  -0.461 -0.0097  3.5516  1.6435
  153MOL0     H20629   7.675   0.804  -0.614  1.5535 -0.2670  0.1119
  153MOL0     H20630   7.662   0.777  -0.442 -0.3126  0.9382  0.1863
  153MOL0     H20631   7.913   0.703  -0.591  0.8019 -0.1400  0.2493
  153MOL0     H20632   7.892   0.712  -0.416 -0.6270  3.5003  2.5489
  153MOL0     H20633   8.030   0.901  -0.517  0.1502  1.2300  0.1841
  153MOL0     H20634   7.877   0.949  -0.590 -1.9326  0.5843  0.6953
  153MOL0     H20635   6.950   0.617  -0.633  1.2541  2.1380  2.9388
  153MOL0     H20636   6.702   0.529  -0.576 -1.6787 -1.8070  3.0206
  153MOL0     H20637   6.480   0.145  -0.231  1.6798  0.6716 -2.2723
  153MOL0     H20638   6.264   0.065  -0.215  0.5763  0.2906  1.1307
  153MOL0     H20639   5.134   0.615   0.468  1.1322 -0.1778  0.2876
  153MOL0     H20640   4.992   0.789   0.604 -0.1105 -0.8111 -0.3593
  153MOL0     H20641   4.990   1.285   0.640 -0.5986  2.7532  1.2886
  153MOL0     H20642   4.912   1.483   0.758 -1.5747 -1.0934 -0.7676
  153MOL0     H20643   4.854   1.513   1.190 -1.7105 -1.0049  3.4331
  153MOL0     H20644   4.709   1.419   1.170 -0.0943 -0.0151  0.6769
  153MOL0     H20645   4.656   1.615   1.274 -0.1374 -2.1499 -0.1490
  153MOL0     H20646   4.574   1.623   1.122  0.1605 -0.0956  0.6232
  153MOL0     H20647   4.744   1.780   1.033 -1.5483 -0.4247  0.8470
  153MOL0     H20648   4.845   1.745   1.175  0.1656 -2.0090  0.3272
  153MOL0     H20649   4.695   1.969   1.152  3.4261  0.7022 -0.3986
  153MOL0     H20650   4.575   1.860   1.226  0.5328 -1.4351 -2.3944
  153MOL0     H20651   4.813   1.984   1.546 -2.3408  1.5632 -0.1146
  153MOL0     H20652   4.763   1.245   1.083  1.4501 -2.1753  0.1413
  153MOL0     H20653   4.955   0.953   1.031  1.8895  0.5404 -1.5393
  153MOL0     H20654   4.804   1.016   1.106 -1.7887  1.8494 -1.1650
  153MOL0     H20655   4.784   0.940   0.953 -0.3659  0.2381  1.2680
  154MOL0     O20656   8.302   4.551   5.099  0.2245 -0.3217  0.3440
  154MOL0     C20657   8.239   4.645   5.140 -0.5567 -0.2588 -0.0183
  154MOL0     O20658   8.288   4.742   5.225 -0.8799 -0.0651  0.1407
  154MOL0     C20659   8.423   4.752   5.231 -0.0272 -0.5381  0.5569
  154MOL0     C20660   8.512   4.746   5.122  1.3363  0.2913 -0.8956
  154MOL0     C20661   8.649   4.768   5.142  0.0785 -0.3659  0.4437
  154MOL0     C20662   8.694   4.804   5.268 -0.1233 -0.3638  0.4560
  154MOL0     O20663   8.829   4.815   5.295  0.0916 -0.4465  0.7306
  154MOL0     C20664   8.908   4.888   5.200  0.0012 -0.0577 -0.0501
  154MOL0     C20665   9.041   4.825   5.159  0.5478  0.4594  0.4322
  154MOL0     C20666   9.106   4.907   5.049  0.1256 -0.1930 -0.5610
  154MOL0     C20667   9.224   4.833   4.982  0.0886  0.1748  0.7072
  154MOL0     C20668   9.298   4.952   4.904 -0.3142  0.0338 -0.2395
  154MOL0     C20669   9.414   4.897   4.812  0.0925  0.4442 -1.0267
  154MOL0     C20670   9.514   4.805   4.882  0.1137 -0.2572 -0.2740
  154MOL0     C20671   9.611   4.899   4.963  0.3203 -0.5173 -0.1671
  154MOL0     N20672   9.708   4.815   5.025  0.9699  0.1788 -0.7720
  154MOL0     C20673   9.822   4.752   4.976  0.5828  0.3612 -0.6053
  154MOL0     C20674   9.878   4.682   5.077  0.3672  0.6425 -0.9565
  154MOL0     C20675   9.996   4.578   5.078  0.4626 -0.9212  0.3358
  154MOL0     C20676   9.952   4.443   5.046  0.4834  0.0391 -0.0545
  154MOL0     C20677   9.929   4.420   4.895  0.0099 -0.5671 -0.0468
  154MOL0     C20678  10.064   4.460   4.823 -0.1955  0.1874 -0.1786
  154MOL0     O20679  10.075   4.593   4.775  0.2703 -0.3478 -0.3341
  154MOL0     C20680  10.183   4.626   4.705 -0.6788  0.7376  0.5975
  154MOL0     C20681  10.164   4.728   4.612 -0.2833  0.1127  0.0023
  154MOL0     C20682  10.263   4.769   4.527 -0.1236 -0.4320 -0.3715
  154MOL0     C20683  10.390   4.695   4.537  0.7680  0.3073 -1.3807
  154MOL0     C20684  10.496   4.727   4.448  0.0007 -0.0710 -0.1698
  154MOL0     O20685  10.610   4.695   4.499  0.5139  0.0053  0.9131
  154MOL0     C20686  10.734   4.723   4.441  0.1458  0.2933  1.3460
  154MOL0     C20687  10.766   4.752   4.306 -1.2592  0.3704  0.8172
  154MOL0     C20688  10.900   4.792   4.267 -0.8800 -0.0566 -0.0564
  154MOL0     C20689  11.002   4.782   4.361 -0.5900 -0.5482 -0.8904
  154MOL0     O20690  11.130   4.815   4.323 -0.7467 -0.3868 -0.5779
  154MOL0     C20691  11.243   4.763   4.394 -1.2696  0.0171  0.6890
  154MOL0     C20692  11.384   4.776   4.318  0.7507 -0.7110  0.5663
  154MOL0     C20693  11.378   4.713   4.174 -0.0538  0.1395 -0.9883
  154MOL0     C20694  11.509   4.745   4.097  0.0333 -0.3491 -0.0929
  154MOL0     C20695  11.627   4.667   4.146 -0.2866  0.0199 -0.5347
  154MOL0     C20696  11.748   4.664   4.067  0.0738  0.3681 -0.6951
  154MOL0     C20697  11.809   4.799   4.024 -0.4962  0.1987 -0.1462
  154MOL0     C20698  11.922   4.769   3.917 -0.2202  0.4309 -0.7969
  154MOL0    Cl20699  12.081   4.734   4.000 -0.0787  0.3837  0.3584
  154MOL0     C20700  10.967   4.770   4.495 -0.8607  0.1286  0.4039
  154MOL0     C20701  10.836   4.745   4.534  0.2753  0.4791 -0.3589
  154MOL0     O20702  10.476   4.782   4.341 -0.5874 -0.3324  0.0148
  154MOL0     C20703  10.405   4.594   4.634 -0.2525  0.6727  0.0658
  154MOL0     C20704  10.299   4.548   4.714 -0.3278  0.6326  0.2161
  154MOL0     N20705   9.801   4.714   5.187 -0.2858  0.0822  0.1112
  154MOL0     N20706   9.707   4.796   5.154  0.4662  0.3472 -0.0188
  154MOL0     C20707   8.609   4.822   5.375 -0.3135  0.0528  0.4342
  154MOL0     C20708   8.475   4.787   5.355  0.1577 -0.7153  0.5713
  154MOL0     C20709   8.098   4.646   5.124 -0.3962  0.0407  0.3038
  154MOL0     C20710   8.045   4.657   4.995 -0.7005  0.6371 -0.3746
  154MOL0     C20711   7.909   4.627   4.975  0.0347 -1.0403  0.4018
  154MOL0     C20712   7.826   4.605   5.083  0.0617  0.8930 -0.3751
  154MOL0     O20713   7.692   4.595   5.059  0.7904 -1.0088 -0.5070
  154MOL0     C20714   7.649   4.457   5.045 -0.1344  1.2425  0.7167
  154MOL0     C20715   7.524   4.477   4.958  1.4214  0.5605 -0.7224
  154MOL0     C20716   7.557   4.533   4.819  0.1369  0.2376  0.1501
  154MOL0     C20717   7.453   4.505   4.713  0.2537 -0.1900 -0.0816
  154MOL0     C20718   7.306   4.526   4.751 -0.2687  0.2108 -0.1273
  154MOL0     C20719   7.184   4.537   4.774  1.2228  0.5915 -0.5282
  154MOL0     C20720   7.868   4.609   5.208 -0.7420 -0.1711 -1.0182
  154MOL0     C20721   8.003   4.637   5.234  0.0271 -0.5414  0.3064
  154MOL0     C20722   8.041   4.666   5.374  0.3775  0.2719 -0.7152
  154MOL0     H20723   8.473   4.721   5.024  1.0974  0.9682 -0.9814
  154MOL0     H20724   8.714   4.747   5.058 -0.0696 -3.3138  0.9589
  154MOL0     H20725   8.850   4.897   5.108  1.2171  2.1939 -0.6496
  154MOL0     H20726   8.932   4.985   5.243  1.5330  0.5376 -2.0943
  154MOL0     H20727   9.026   4.727   5.114  1.4273  0.8702 -0.8117
  154MOL0     H20728   9.107   4.809   5.245 -0.2400  2.4754  1.4851
  154MOL0     H20729   9.139   5.006   5.081  0.5457  0.3890 -2.6035
  154MOL0     H20730   9.039   4.922   4.964 -0.2558 -2.5801 -0.7582
  154MOL0     H20731   9.285   4.793   5.064 -2.1374 -3.1999  0.9272
  154MOL0     H20732   9.188   4.751   4.920 -2.2867  0.6876  1.3024
  154MOL0     H20733   9.230   5.016   4.846 -0.8594  0.5098  0.8981
  154MOL0     H20734   9.338   5.012   4.986  5.6010 -1.9380 -1.2259
  154MOL0     H20735   9.372   4.826   4.740 -1.0543  0.2329 -0.1823
  154MOL0     H20736   9.460   4.977   4.754  2.3884  0.4318  0.6504
  154MOL0     H20737   9.579   4.751   4.813 -0.0502 -0.2682 -0.4208
  154MOL0     H20738   9.469   4.728   4.946 -1.2433 -1.1378 -2.2105
  154MOL0     H20739   9.669   4.952   4.887  1.0351 -1.9548 -0.6526
  154MOL0     H20740   9.558   4.966   5.032 -2.3291 -0.9724 -1.6323
  154MOL0     H20741   9.858   4.734   4.875 -0.4891 -2.2556 -0.6173
  154MOL0     H20742  10.080   4.618   5.020  1.7821 -3.2110  0.5523
  154MOL0     H20743  10.036   4.590   5.179 -0.9504 -1.7057  1.0095
  154MOL0     H20744  10.026   4.371   5.081 -1.3732 -0.6000  2.8945
  154MOL0     H20745   9.859   4.427   5.101 -0.2139 -4.0549 -2.0474
  154MOL0     H20746   9.843   4.476   4.859 -0.1100 -0.2828  0.6753
  154MOL0     H20747   9.905   4.314   4.881  1.3775 -0.8451 -0.5060
  154MOL0     H20748  10.076   4.390   4.740  1.2870  1.7407 -1.3352
  154MOL0     H20749  10.145   4.446   4.896 -0.4805  3.8556  1.0307
  154MOL0     H20750  10.065   4.773   4.615  0.9367  3.0492  0.3248
  154MOL0     H20751  10.245   4.850   4.457  1.5764  2.6591  2.4490
  154MOL0     H20752  10.688   4.750   4.230  0.3361 -0.3807 -0.8738
  154MOL0     H20753  10.935   4.816   4.167  0.8178 -0.6536  0.3667
  154MOL0     H20754  11.266   4.822   4.483 -0.4073 -0.0969  0.5515
  154MOL0     H20755  11.225   4.658   4.415 -2.4786 -0.1128 -0.8095
  154MOL0     H20756  11.398   4.884   4.312 -0.3981 -0.5606  0.3217
  154MOL0     H20757  11.460   4.738   4.387  1.0014  4.0566  3.2809
  154MOL0     H20758  11.364   4.605   4.182 -0.5669  0.1744 -1.4616
  154MOL0     H20759  11.291   4.748   4.120 -2.1114  0.3502  2.1941
  154MOL0     H20760  11.525   4.853   4.092 -3.0849  0.3758  2.1989
  154MOL0     H20761  11.491   4.704   3.997 -3.4127  0.0683  0.2393
  154MOL0     H20762  11.591   4.565   4.161 -1.5772  0.6957  1.3338
  154MOL0     H20763  11.654   4.716   4.240  2.4838 -1.7501 -0.2844
  154MOL0     H20764  11.817   4.596   4.117  0.2203  2.3346  1.9899
  154MOL0     H20765  11.728   4.609   3.974 -2.6625  1.4941 -0.8628
  154MOL0     H20766  11.848   4.854   4.110 -2.9031  1.1432  0.4367
  154MOL0     H20767  11.736   4.860   3.971  0.6229  0.5791 -1.2977
  154MOL0     H20768  11.889   4.693   3.845  1.2836 -0.2511 -0.8063
  154MOL0     H20769  11.929   4.867   3.869 -4.0170  1.4051  0.3021
  154MOL0     H20770  11.032   4.787   4.580  0.5551  3.0347 -1.1088
  154MOL0     H20771  10.812   4.722   4.637  1.3152 -1.9787 -0.6067
  154MOL0     H20772  10.494   4.532   4.642 -1.6474 -1.1845  1.9137
  154MOL0     H20773  10.326   4.476   4.791 -2.1407 -1.7590 -1.2293
  154MOL0     H20774   8.641   4.852   5.474 -2.6440  0.1610  1.2153
  154MOL0     H20775   8.415   4.804   5.445  1.9162  1.5874  1.4110
  154MOL0     H20776   8.124   4.673   4.922  0.2073 -0.6734  0.2753
  154MOL0     H20777   7.874   4.619   4.873  0.6865 -2.8036  0.2810
  154MOL0     H20778   7.616   4.412   5.140  1.8729 -1.5719  0.1886
  154MOL0     H20779   7.733   4.398   5.008  0.7309  2.3726  0.8118
  154MOL0     H20780   7.448   4.540   5.005  0.8953 -0.6383  0.0853
  154MOL0     H20781   7.473   4.381   4.949  1.4809  0.6806 -2.8914
  154MOL0     H20782   7.638   4.473   4.775 -0.5070 -0.0399 -0.6779
  154MOL0     H20783   7.585   4.638   4.831  2.9138  0.0513 -2.9490
  154MOL0     H20784   7.458   4.580   4.634 -1.5277 -1.3672 -1.3739
  154MOL0     H20785   7.462   4.402   4.678  0.4942 -0.0906 -0.3214
  154MOL0     H20786   7.080   4.551   4.795  0.1858 -2.1670 -3.1699
  154MOL0     H20787   7.798   4.602   5.291 -1.3530  1.9172 -1.2983
  154MOL0     H20788   8.085   4.573   5.411  1.0244  0.4809 -0.9482
  154MOL0     H20789   8.113   4.745   5.396 -0.0185  0.3356  0.4546
  154MOL0     H20790   7.952   4.683   5.436  0.0938  0.3915 -1.1543
  155MOL0     O20791   9.599   4.455   4.220  0.5705  0.5576 -0.2532
  155MOL0     C20792   9.490   4.442   4.286 -0.3855 -0.1317 -0.5917
  155MOL0     O20793   9.465   4.496   4.411  0.1210 -0.0802  0.7249
  155MOL0     C20794   9.546   4.587   4.463 -0.8294 -0.7334 -0.2960
  155MOL0     C20795   9.666   4.549   4.514 -0.1108 -0.5042 -0.4144
  155MOL0     C20796   9.764   4.639   4.558  0.2529 -0.7511  0.2322
  155MOL0     C20797   9.735   4.773   4.563 -0.1646 -0.1560  1.9818
  155MOL0     O20798   9.830   4.854   4.624 -0.1980  0.6129  0.0535
  155MOL0     C20799   9.844   4.991   4.595  0.1457  0.2023 -0.4044
  155MOL0     C20800   9.930   5.014   4.465 -0.2081  0.8523 -0.1415
  155MOL0     C20801  10.006   5.145   4.459 -0.0721  0.3803 -0.7332
  155MOL0     C20802  10.138   5.147   4.384 -0.2884  0.6111 -0.1681
  155MOL0     C20803  10.214   5.288   4.380 -0.3506  0.0768  0.5853
  155MOL0     C20804  10.365   5.269   4.379  0.2530 -0.2568 -0.3545
  155MOL0     C20805  10.425   5.415   4.388  1.2097  0.8864  0.6862
  155MOL0     C20806  10.570   5.401   4.414  0.3720  0.0447  0.5698
  155MOL0     N20807  10.622   5.534   4.453 -0.2250  0.8583  0.0636
  155MOL0     C20808  10.669   5.619   4.356  0.0439 -0.7586 -1.5127
  155MOL0     C20809  10.746   5.701   4.431  0.4413 -0.6329 -0.2415
  155MOL0     C20810  10.849   5.801   4.375  0.1528  0.6140 -0.2451
  155MOL0     C20811  10.994   5.770   4.438 -1.0419  0.1145  0.2918
  155MOL0     C20812  11.097   5.841   4.344  0.3016  0.4325  0.4673
  155MOL0     C20813  11.244   5.800   4.380  0.5419  0.4547 -0.0606
  155MOL0     O20814  11.322   5.866   4.281  0.3981  0.2089 -0.3755
  155MOL0     C20815  11.450   5.898   4.314 -0.0916  0.6323 -0.1216
  155MOL0     C20816  11.525   5.827   4.416 -0.4494 -0.2749 -1.0387
  155MOL0     C20817  11.657   5.855   4.436  0.2291  0.6233  0.3465
  155MOL0     C20818  11.727   5.950   4.356 -0.1762 -0.0044  0.4064
  155MOL0     C20819  11.872   5.981   4.371  0.7152 -0.1613 -0.5716
  155MOL0     O20820  11.943   5.887   4.441 -0.2117  0.0374  0.4781
  155MOL0     C20821  12.079   5.905   4.455 -0.2040  0.3363  0.2205
  155MOL0     C20822  12.135   5.912   4.583 -1.2228  0.3239  0.0424
  155MOL0     C20823  12.276   5.921   4.595  0.8610 -0.0111 -0.3498
  155MOL0     C20824  12.365   5.938   4.491  0.6539 -0.6367 -0.0233
  155MOL0     O20825  12.492   5.957   4.502 -0.3452  0.0931 -0.7457
  155MOL0     C20826  12.580   5.895   4.596 -0.6609  1.1014  0.6608
  155MOL0     C20827  12.683   5.825   4.510 -0.1177  0.4542 -0.5432
  155MOL0     C20828  12.630   5.716   4.433  0.3025 -0.4095 -0.0071
  155MOL0     C20829  12.733   5.637   4.358 -0.3972 -0.1193  0.0852
  155MOL0     C20830  12.689   5.517   4.271  0.9648 -0.3908  0.3120
  155MOL0     C20831  12.565   5.548   4.173 -0.8870  0.0520  0.2966
  155MOL0     C20832  12.586   5.654   4.058  0.0951 -0.0636  0.5113
  155MOL0     C20833  12.454   5.670   3.982  0.2579 -0.3974  0.8194
  155MOL0    Cl20834  12.312   5.717   4.090  0.6647  0.1773  0.1826
  155MOL0     C20835  12.306   5.938   4.367  0.6780 -0.5429 -0.6491
  155MOL0     C20836  12.162   5.929   4.346  0.2042  0.6228  0.3439
  155MOL0     O20837  11.915   6.074   4.306 -0.5945 -0.3679 -0.0108
  155MOL0     C20838  11.654   6.001   4.251  0.8983  0.4102 -0.8189
  155MOL0     C20839  11.522   5.978   4.226 -0.5337 -0.1573  0.4518
  155MOL0     N20840  10.730   5.685   4.563  0.0613  0.2316  0.6698
  155MOL0     N20841  10.652   5.582   4.577 -0.1414 -0.1521 -1.1110
  155MOL0     C20842   9.604   4.815   4.499 -0.4451 -1.0264 -0.4942
  155MOL0     C20843   9.516   4.723   4.459 -0.4054  0.6228 -0.0859
  155MOL0     C20844   9.365   4.382   4.212 -0.3002 -0.1913 -1.0910
  155MOL0     C20845   9.235   4.442   4.243  0.4067  0.9816  0.6416
  155MOL0     C20846   9.121   4.398   4.182  0.3064 -0.8239  0.7103
  155MOL0     C20847   9.128   4.301   4.079 -0.2301  1.1507  0.0023
  155MOL0     O20848   9.013   4.240   4.033 -0.2718  0.0740 -0.5395
  155MOL0     C20849   9.018   4.148   3.916 -0.2600  0.1622  0.5957
  155MOL0     C20850   8.884   4.111   3.860 -0.2705 -0.8183 -0.2211
  155MOL0     C20851   8.828   3.988   3.929  0.3965 -0.1378 -0.1511
  155MOL0     C20852   8.679   3.975   3.945 -0.1330 -0.2103  0.0830
  155MOL0     C20853   8.627   3.920   3.823 -0.0131 -1.0535  0.1591
  155MOL0     C20854   8.580   3.878   3.718 -0.6031  0.3972 -0.2750
  155MOL0     C20855   9.256   4.255   4.043 -0.4578  0.4346 -0.5340
  155MOL0     C20856   9.373   4.289   4.113 -0.3238 -1.7785 -0.1530
  155MOL0     C20857   9.512   4.226   4.084  0.8644 -0.2668 -0.1107
  155MOL0     H20858   9.694   4.444   4.516  0.8460 -0.3299 -2.3906
  155MOL0     H20859   9.867   4.608   4.571  1.2146  1.1402 -1.9923
  155MOL0     H20860   9.743   5.034   4.593 -0.1596 -0.4709  0.1015
  155MOL0     H20861   9.893   5.037   4.682 -2.9647  0.1751  1.5506
  155MOL0     H20862   9.868   5.006   4.375 -0.1865 -2.6585  0.0200
  155MOL0     H20863  10.010   4.939   4.457  0.9969  1.6871  2.8403
  155MOL0     H20864  10.023   5.181   4.561 -0.0264  1.1828 -1.0142
  155MOL0     H20865   9.943   5.221   4.412 -0.4183  2.4432  2.7403
  155MOL0     H20866  10.200   5.072   4.432  2.3562  0.9098 -2.8489
  155MOL0     H20867  10.113   5.129   4.279 -2.7547 -0.5774  0.5235
  155MOL0     H20868  10.186   5.337   4.286  0.3305 -1.1905 -0.3254
  155MOL0     H20869  10.179   5.349   4.463 -1.5340 -3.3826  2.8564
  155MOL0     H20870  10.384   5.212   4.470 -2.2294 -0.1134  0.3331
  155MOL0     H20871  10.386   5.223   4.283  1.3345  0.3215 -0.4123
  155MOL0     H20872  10.380   5.466   4.474 -0.8084 -1.3449  1.0478
  155MOL0     H20873  10.409   5.465   4.293  1.3070  1.0060  0.7319
  155MOL0     H20874  10.591   5.320   4.485  1.3060 -2.5122 -2.3908
  155MOL0     H20875  10.619   5.369   4.322  2.4822  1.2973  1.1781
  155MOL0     H20876  10.664   5.607   4.249  0.0603  1.2201 -1.7578
  155MOL0     H20877  10.857   5.798   4.266  1.0894  2.7529 -0.2778
  155MOL0     H20878  10.821   5.899   4.414  1.3295  1.6792 -1.9659
  155MOL0     H20879  11.002   5.815   4.537  0.7810  0.4619  0.0159
  155MOL0     H20880  11.015   5.663   4.439  1.0912  0.4128 -1.8322
  155MOL0     H20881  11.087   5.948   4.358  1.0249  0.2593  2.7288
  155MOL0     H20882  11.089   5.813   4.238  0.8315 -2.6136  1.1100
  155MOL0     H20883  11.262   5.692   4.385  1.8923  0.7139  1.1147
  155MOL0     H20884  11.274   5.823   4.482 -1.3616 -1.0562  0.9020
  155MOL0     H20885  11.475   5.755   4.480 -4.5665  0.8294 -2.7221
  155MOL0     H20886  11.713   5.789   4.502 -1.0922 -2.6508 -1.5412
  155MOL0     H20887  12.080   5.890   4.674 -0.2390 -0.0194  0.5721
  155MOL0     H20888  12.330   5.912   4.689 -1.5506  2.3861  1.4247
  155MOL0     H20889  12.637   5.971   4.650 -0.3540 -1.0583  3.6086
  155MOL0     H20890  12.537   5.822   4.665 -0.3997  0.9925  0.7059
  155MOL0     H20891  12.726   5.900   4.443  1.8230 -0.1389 -0.0415
  155MOL0     H20892  12.767   5.791   4.572 -0.4677  2.8818  1.3869
  155MOL0     H20893  12.577   5.648   4.501  0.0144 -1.8136 -1.5698
  155MOL0     H20894  12.554   5.760   4.367  0.0679  1.8523  1.6647
  155MOL0     H20895  12.807   5.607   4.434 -1.0708  0.0789  0.8334
  155MOL0     H20896  12.783   5.709   4.293  1.9391  0.0635  1.9183
  155MOL0     H20897  12.658   5.437   4.340 -1.0437 -0.8460 -1.0370
  155MOL0     H20898  12.770   5.481   4.207 -1.6482 -1.2511 -2.7463
  155MOL0     H20899  12.543   5.457   4.116 -1.0601  1.7022 -2.4889
  155MOL0     H20900  12.480   5.569   4.239 -2.4291 -0.3862 -1.4637
  155MOL0     H20901  12.662   5.602   3.998  1.1794 -1.5824  3.0541
  155MOL0     H20902  12.625   5.748   4.096  0.4645  1.3003 -2.8343
  155MOL0     H20903  12.462   5.755   3.913 -1.2826 -1.8348 -1.2535
  155MOL0     H20904  12.437   5.577   3.928 -0.6235  0.0652  0.2689
  155MOL0     H20905  12.359   5.952   4.274  1.1778  2.2008 -0.0101
  155MOL0     H20906  12.137   5.938   4.240 -0.9202  2.0344  0.7050
  155MOL0     H20907  11.713   6.068   4.189  1.3006 -0.3067 -1.2292
  155MOL0     H20908  11.480   6.033   4.142  1.6358 -1.0854 -1.3368
  155MOL0     H20909   9.580   4.921   4.498 -0.8190 -1.1151 -1.5473
  155MOL0     H20910   9.416   4.759   4.439 -0.4501  1.2379  1.1818
  155MOL0     H20911   9.215   4.513   4.322 -2.3447  1.5175 -0.4216
  155MOL0     H20912   9.023   4.427   4.217 -0.4411  0.1828 -2.0114
  155MOL0     H20913   9.072   4.058   3.945  3.2805  2.0736  0.5629
  155MOL0     H20914   9.073   4.204   3.839 -0.3855 -1.3443 -0.6321
  155MOL0     H20915   8.898   4.082   3.756  3.3156 -3.1588  0.7535
  155MOL0     H20916   8.818   4.198   3.865 -0.2760 -0.8586  4.0823
  155MOL0     H20917   8.871   3.988   4.030  2.0209 -0.2645 -0.8154
  155MOL0     H20918   8.867   3.893   3.892  0.7692  0.4573 -1.3366
  155MOL0     H20919   8.667   3.915   4.035 -2.3069 -1.4123 -0.9119
  155MOL0     H20920   8.631   4.072   3.964  0.0303 -0.2841  0.9084
  155MOL0     H20921   8.546   3.852   3.620  1.0418  1.0275 -1.0424
  155MOL0     H20922   9.279   4.182   3.966  0.0294  1.0092 -0.9440
  155MOL0     H20923   9.496   4.129   4.037  0.4849 -0.0950 -0.3406
  155MOL0     H20924   9.572   4.290   4.018  0.2553  0.7499  0.2928
  155MOL0     H20925   9.571   4.207   4.173  1.6846 -2.4034 -1.0397
  156MOL0     O20926   6.451   4.532  10.460 -0.1276  0.3844 -0.7629
  156MOL0     C20927   6.543   4.573  10.534  0.0218 -0.1485 -0.5897
  156MOL0     O20928   6.552   4.702  10.581 -1.0743 -0.7864  0.4063
  156MOL0     C20929   6.440   4.782  10.580 -1.4200  0.8598 -0.4095
  156MOL0     C20930   6.406   4.841  10.463 -0.5685  0.7422 -0.0739
  156MOL0     C20931   6.290   4.923  10.452  1.1618 -0.2894  0.1343
  156MOL0     C20932   6.206   4.935  10.564  0.4542  0.3642 -0.2516
  156MOL0     O20933   6.077   4.988  10.535  0.1189 -0.1026  0.3134
  156MOL0     C20934   6.048   5.105  10.611 -0.4967 -0.1890  1.1075
  156MOL0     C20935   5.932   5.183  10.539  0.0132  0.2843 -0.5434
  156MOL0     C20936   5.852   5.263  10.637 -0.0599  0.3088  0.1548
  156MOL0     C20937   5.777   5.178  10.743 -0.1085  0.0791  0.3330
  156MOL0     C20938   5.662   5.257  10.813  0.6825 -0.3929 -0.2299
  156MOL0     C20939   5.724   5.375  10.885 -0.1320 -0.1789 -0.8750
  156MOL0     C20940   5.629   5.460  10.972  0.1437 -0.1365  0.6413
  156MOL0     C20941   5.564   5.380  11.078  0.1853 -1.0288  0.0584
  156MOL0     N20942   5.487   5.450  11.185 -0.5806  0.6532  0.5728
  156MOL0     C20943   5.537   5.477  11.312  0.5485  0.8193  0.2053
  156MOL0     C20944   5.443   5.547  11.373  1.1421  0.4836 -0.1373
  156MOL0     C20945   5.442   5.589  11.513 -0.0562 -0.8194 -0.4869
  156MOL0     C20946   5.359   5.486  11.601  0.6692  0.4158 -0.3189
  156MOL0     C20947   5.320   5.565  11.733  0.2148 -0.3114  0.5530
  156MOL0     C20948   5.228   5.478  11.824  0.1273 -0.0751 -0.1912
  156MOL0     O20949   5.297   5.359  11.868  0.5405  0.1172 -0.7237
  156MOL0     C20950   5.227   5.246  11.903  0.2214 -0.5731 -1.1611
  156MOL0     C20951   5.300   5.135  11.942  0.4997  0.5792  0.7633
  156MOL0     C20952   5.252   5.019  11.996  0.4155 -0.0362  0.2118
  156MOL0     C20953   5.110   5.017  12.017  0.3613  0.4815 -0.1108
  156MOL0     C20954   5.049   4.894  12.062 -0.6488  0.4247  0.5753
  156MOL0     O20955   4.917   4.893  12.072  0.4243  0.9900 -0.2599
  156MOL0     C20956   4.842   4.773  12.077  0.4395  0.6856 -0.5627
  156MOL0     C20957   4.739   4.773  12.170  0.9137  0.1504  0.8253
  156MOL0     C20958   4.661   4.661  12.191  0.4809 -0.8007 -0.9602
  156MOL0     C20959   4.688   4.539  12.134  0.3234  0.3531 -0.0049
  156MOL0     O20960   4.587   4.447  12.151 -0.1738 -0.2425  0.3798
  156MOL0     C20961   4.622   4.313  12.115  0.1574  0.3820 -0.1669
  156MOL0     C20962   4.523   4.201  12.155  0.6964 -0.5524  0.1302
  156MOL0     C20963   4.462   4.222  12.290 -0.9384  0.1866  0.1903
  156MOL0     C20964   4.358   4.111  12.301  0.1131  0.2313  0.1054
  156MOL0     C20965   4.246   4.134  12.399 -0.8763 -0.3118 -0.5620
  156MOL0     C20966   4.124   4.031  12.375 -0.5157 -1.2741  1.1846
  156MOL0     C20967   4.009   4.080  12.457 -0.2134 -0.6312  0.2692
  156MOL0     C20968   3.877   4.006  12.444  0.8309 -0.6409  0.8428
  156MOL0    Cl20969   3.775   4.079  12.567 -0.4780 -0.4299  0.9332
  156MOL0     C20970   4.795   4.533  12.031 -0.4889 -0.2164 -0.7865
  156MOL0     C20971   4.868   4.654  12.003  0.3377  0.0946 -0.8930
  156MOL0     O20972   5.129   4.805  12.086  0.3372  0.1936  0.7488
  156MOL0     C20973   5.029   5.125  11.980  0.4478  0.3764  0.4832
  156MOL0     C20974   5.085   5.245  11.934  0.1446  0.1871  0.1038
  156MOL0     N20975   5.349   5.580  11.277  0.6039  0.0795 -0.6102
  156MOL0     N20976   5.391   5.534  11.162 -0.0306 -1.1859 -0.4476
  156MOL0     C20977   6.244   4.879  10.684  1.0797 -0.2296  0.5560
  156MOL0     C20978   6.367   4.805  10.692 -0.8888 -0.4250 -1.0869
  156MOL0     C20979   6.664   4.490  10.560  0.7152 -0.7350 -1.0438
  156MOL0     C20980   6.789   4.552  10.585 -0.3708 -0.6313  0.0279
  156MOL0     C20981   6.894   4.470  10.616 -0.3916  0.2287  0.4900
  156MOL0     C20982   6.884   4.324  10.619 -0.3194 -1.0349 -0.9441
  156MOL0     O20983   6.987   4.244  10.642  0.1752  0.2365  0.6113
  156MOL0     C20984   6.987   4.177  10.764  0.4425  0.7166  0.6129
  156MOL0     C20985   7.118   4.135  10.821  0.0999  0.0761 -0.7505
  156MOL0     C20986   7.219   4.259  10.823 -0.5775  0.5987 -0.4539
  156MOL0     C20987   7.166   4.393  10.885  0.2239  1.0168  0.2558
  156MOL0     C20988   7.133   4.386  11.031 -1.1045 -0.3294 -1.1338
  156MOL0     C20989   7.083   4.376  11.139  0.2809 -0.2097  0.2253
  156MOL0     C20990   6.763   4.271  10.599 -0.4198  0.1013  0.8468
  156MOL0     C20991   6.654   4.350  10.562 -0.5205  1.0588 -0.1966
  156MOL0     C20992   6.521   4.272  10.539  0.4443 -0.1604 -0.4032
  156MOL0     H20993   6.460   4.830  10.370 -2.7164 -2.2422 -1.1179
  156MOL0     H20994   6.266   4.963  10.355 -0.8646 -1.7691 -0.0442
  156MOL0     H20995   6.024   5.081  10.715  2.7912  2.1702  2.6025
  156MOL0     H20996   6.137   5.170  10.609  0.3041 -1.2434  1.7450
  156MOL0     H20997   5.865   5.111  10.491  0.6751 -2.5047  2.4102
  156MOL0     H20998   5.973   5.247  10.460  3.2360  0.9535  1.5041
  156MOL0     H20999   5.769   5.311  10.583  1.5338  0.1367 -2.5979
  156MOL0     H21000   5.919   5.330  10.692 -0.1171 -1.1544  2.1189
  156MOL0     H21001   5.720   5.096  10.698 -2.2555 -0.1675  3.2487
  156MOL0     H21002   5.851   5.137  10.812  2.2915 -0.0769 -2.1665
  156MOL0     H21003   5.583   5.280  10.742  1.1263 -1.5707 -1.1449
  156MOL0     H21004   5.610   5.185  10.876 -1.7047  0.9737 -0.5486
  156MOL0     H21005   5.790   5.340  10.965 -0.1759  1.0850 -0.2577
  156MOL0     H21006   5.764   5.449  10.816 -0.9986  0.7625 -0.3958
  156MOL0     H21007   5.550   5.505  10.912  1.4705 -0.0862 -1.1582
  156MOL0     H21008   5.688   5.543  11.011  1.8376 -1.4495  0.9973
  156MOL0     H21009   5.504   5.307  11.023  0.2835  1.8610 -4.3734
  156MOL0     H21010   5.646   5.330  11.130  0.8533  2.0405  2.2212
  156MOL0     H21011   5.634   5.440  11.342 -1.0210 -2.0960  2.0916
  156MOL0     H21012   5.548   5.590  11.538  0.0120 -0.0466 -0.7962
  156MOL0     H21013   5.407   5.692  11.526  1.2393 -0.3507 -0.6013
  156MOL0     H21014   5.265   5.453  11.555 -0.6053 -1.9207  3.5107
  156MOL0     H21015   5.407   5.389  11.610 -1.5995 -0.9143 -1.5608
  156MOL0     H21016   5.268   5.658  11.705 -0.3081 -1.5875 -3.3414
  156MOL0     H21017   5.410   5.598  11.786 -2.1876  0.9848  4.2401
  156MOL0     H21018   5.141   5.452  11.763  0.5601  0.1086 -0.9111
  156MOL0     H21019   5.195   5.533  11.912  2.3352 -1.3429  1.5489
  156MOL0     H21020   5.405   5.147  11.919  0.7396 -3.4776 -1.3387
  156MOL0     H21021   5.327   4.941  11.997 -0.5221 -1.0550 -1.8865
  156MOL0     H21022   4.719   4.868  12.217 -0.1196 -0.3022  1.3349
  156MOL0     H21023   4.574   4.656  12.256  2.2366 -0.1487  1.5745
  156MOL0     H21024   4.649   4.306  12.009 -2.1094 -2.0570 -0.6711
  156MOL0     H21025   4.714   4.296  12.173  1.2737  3.8729 -0.7074
  156MOL0     H21026   4.438   4.199  12.086 -0.2217 -0.5673  1.2381
  156MOL0     H21027   4.560   4.100  12.168 -1.5731 -1.2429  2.0977
  156MOL0     H21028   4.539   4.209  12.367 -0.4505 -1.6133 -0.5525
  156MOL0     H21029   4.427   4.326  12.292  1.1394  1.1733 -3.8051
  156MOL0     H21030   4.413   4.020  12.325  0.2069  0.1485 -0.4155
  156MOL0     H21031   4.305   4.107  12.205 -2.2106  0.9379  1.2769
  156MOL0     H21032   4.205   4.236  12.405  0.7540  0.2778  2.2994
  156MOL0     H21033   4.296   4.118  12.495  1.5042 -1.1303 -1.8524
  156MOL0     H21034   4.079   4.041  12.276 -0.5864 -1.0674  1.2369
  156MOL0     H21035   4.150   3.928  12.403 -1.6287 -1.5282  1.3344
  156MOL0     H21036   3.977   4.178  12.421  0.6191 -0.7044 -0.7035
  156MOL0     H21037   4.034   4.083  12.564 -0.0160 -0.4963  0.2193
  156MOL0     H21038   3.825   4.012  12.348 -2.2514 -0.5016  2.4019
  156MOL0     H21039   3.883   3.899  12.467 -1.9248 -0.9962  0.2454
  156MOL0     H21040   4.805   4.444  11.970 -0.9214 -2.1108  1.7272
  156MOL0     H21041   4.942   4.639  11.924 -1.2316 -0.4337 -2.3151
  156MOL0     H21042   4.925   5.133  12.010 -0.6433 -1.6492 -2.3467
  156MOL0     H21043   5.014   5.326  11.925 -0.7956 -0.2924  2.3772
  156MOL0     H21044   6.178   4.886  10.770 -2.9071 -0.2911 -2.1995
  156MOL0     H21045   6.388   4.779  10.795 -1.2675  0.7113 -0.6991
  156MOL0     H21046   6.789   4.660  10.580 -2.7717 -0.5752 -0.1858
  156MOL0     H21047   6.990   4.518  10.629 -1.9911  3.6024  1.1045
  156MOL0     H21048   6.930   4.086  10.745  1.6083  0.3159 -1.2392
  156MOL0     H21049   6.924   4.238  10.829  0.4281  3.0661 -1.4391
  156MOL0     H21050   7.162   4.057  10.758 -0.3282  0.8183 -2.0162
  156MOL0     H21051   7.106   4.110  10.927 -1.4544  4.4982  0.3570
  156MOL0     H21052   7.261   4.260  10.722  0.1179  0.3220 -0.1741
  156MOL0     H21053   7.304   4.235  10.888  1.2422  0.0186 -2.8540
  156MOL0     H21054   7.250   4.463  10.873  0.9875 -0.0974 -1.2951
  156MOL0     H21055   7.084   4.439  10.829 -0.1007  0.5082  0.3124
  156MOL0     H21056   7.044   4.372  11.239  2.2076 -2.4847  0.9998
  156MOL0     H21057   6.742   4.165  10.601 -0.5162  0.1115  0.4195
  156MOL0     H21058   6.479   4.279  10.438  0.4659 -1.0813 -0.4834
  156MOL0     H21059   6.523   4.165  10.559  0.2876 -0.2262 -0.7361
  156MOL0     H21060   6.453   4.316  10.614 -1.5546  5.2431 -4.7088
  157MOL0     O21061   7.706   6.683   9.177  0.5486  0.0230 -1.1479
  157MOL0     C21062   7.596   6.737   9.175 -0.4698 -0.5515  0.0060
  157MOL0     O21063   7.579   6.866   9.148 -0.2155 -0.2139  0.2873
  157MOL0     C21064   7.679   6.940   9.083 -0.2331  0.6004 -1.1680
  157MOL0     C21065   7.808   6.945   9.137  0.0670  0.3042 -0.1402
  157MOL0     C21066   7.901   7.022   9.070  0.0705  0.1032 -0.0044
  157MOL0     C21067   7.874   7.096   8.952 -0.2011 -0.6031  0.5940
  157MOL0     O21068   7.980   7.157   8.889  0.3377  0.2326 -0.1202
  157MOL0     C21069   7.955   7.278   8.823  0.9292 -0.3091  0.1504
  157MOL0     C21070   8.082   7.335   8.761 -0.5299 -0.0620 -0.6866
  157MOL0     C21071   8.200   7.347   8.868  0.2939  0.1104 -0.4819
  157MOL0     C21072   8.323   7.412   8.805 -0.8119 -1.2377 -0.8213
  157MOL0     C21073   8.439   7.408   8.903 -0.2252 -0.3410  0.6093
  157MOL0     C21074   8.547   7.509   8.853 -0.1355  0.6498 -0.0166
  157MOL0     C21075   8.670   7.516   8.944 -0.8170 -0.3893  0.3059
  157MOL0     C21076   8.761   7.632   8.905 -0.1291 -0.2305  0.8459
  157MOL0     N21077   8.868   7.645   9.011  0.3067 -0.3584 -0.1153
  157MOL0     C21078   8.855   7.685   9.138  0.2261  0.0528 -0.7548
  157MOL0     C21079   8.979   7.663   9.201  0.9504  0.0866  0.3354
  157MOL0     C21080   9.024   7.715   9.333 -0.2908  0.1323  0.1627
  157MOL0     C21081   9.025   7.867   9.323 -0.4359 -0.3273 -0.3520
  157MOL0     C21082   9.087   7.911   9.450 -0.3830 -0.3794  0.2093
  157MOL0     C21083   9.078   8.062   9.454 -0.6471 -0.6069 -0.1840
  157MOL0     O21084   9.146   8.129   9.347  0.0892 -0.3462  0.0527
  157MOL0     C21085   9.280   8.133   9.329  0.7368  0.1103 -0.1738
  157MOL0     C21086   9.379   8.100   9.422  0.7328 -1.2793  0.3638
  157MOL0     C21087   9.513   8.116   9.385 -0.3813  0.1150 -0.4673
  157MOL0     C21088   9.546   8.145   9.256 -1.0830  0.4866  0.0772
  157MOL0     C21089   9.684   8.152   9.200 -0.1699  0.4289 -0.4758
  157MOL0     O21090   9.776   8.094   9.282  0.5146 -0.1444 -0.1166
  157MOL0     C21091   9.904   8.102   9.255 -0.6047 -0.2925 -0.4688
  157MOL0     C21092   9.975   7.991   9.213 -0.1574  0.9419  0.2985
  157MOL0     C21093  10.108   8.005   9.188  0.7421  1.1911  0.5669
  157MOL0     C21094  10.173   8.125   9.197  0.5312  0.7207  0.8006
  157MOL0     O21095  10.304   8.146   9.172 -0.4379  1.1491 -0.7502
  157MOL0     C21096  10.389   8.046   9.122  0.0083  0.2845  0.1075
  157MOL0     C21097  10.525   8.103   9.083 -1.0646 -0.1791 -0.6481
  157MOL0     C21098  10.609   8.154   9.213  0.3544  0.0431  0.1107
  157MOL0     C21099  10.732   8.217   9.169 -0.3224  0.5944  0.5314
  157MOL0     C21100  10.809   8.260   9.293 -0.2182 -0.9125 -0.5546
  157MOL0     C21101  10.935   8.327   9.259 -0.3859 -0.2607 -0.2466
  157MOL0     C21102  11.013   8.390   9.372  0.0180 -0.3137 -0.3451
  157MOL0     C21103  11.143   8.448   9.324  0.3737  0.7934 -0.6970
  157MOL0    Cl21104  11.207   8.520   9.481 -0.0393 -0.1440  0.2187
  157MOL0     C21105  10.097   8.233   9.228  0.1762 -0.1153 -0.1839
  157MOL0     C21106   9.957   8.231   9.259  0.0750  0.2663 -0.0431
  157MOL0     O21107   9.706   8.187   9.085  0.3416  0.3645 -0.6172
  157MOL0     C21108   9.445   8.176   9.171 -1.0731  0.7742  0.1455
  157MOL0     C21109   9.315   8.166   9.203 -0.3316  0.1447  0.5886
  157MOL0     N21110   9.067   7.620   9.104 -0.0453  0.7635  0.6588
  157MOL0     N21111   8.999   7.604   8.998 -0.8214  0.3030  0.3151
  157MOL0     C21112   7.738   7.102   8.905 -0.4489  0.3694 -0.2539
  157MOL0     C21113   7.644   7.021   8.974  0.1858  0.5188 -0.0248
  157MOL0     C21114   7.470   6.664   9.214 -0.6286  0.1762  0.3825
  157MOL0     C21115   7.358   6.735   9.273 -0.4716 -0.1082  0.2744
  157MOL0     C21116   7.245   6.678   9.316 -0.7972 -0.1549  0.0596
  157MOL0     C21117   7.227   6.543   9.312 -0.6166 -0.2458 -0.1619
  157MOL0     O21118   7.118   6.483   9.371 -0.4281  0.2005  0.2569
  157MOL0     C21119   7.071   6.359   9.318  0.6543 -0.6351  0.4864
  157MOL0     C21120   6.935   6.330   9.374 -0.0312 -0.6924 -0.3478
  157MOL0     C21121   6.875   6.188   9.351  0.0198 -0.3418 -0.2652
  157MOL0     C21122   6.798   6.149   9.228 -1.4368  0.4681  0.9791
  157MOL0     C21123   6.852   6.177   9.090 -0.2937 -0.1501 -0.2986
  157MOL0     C21124   6.902   6.175   8.975 -0.3654  0.5005 -0.9797
  157MOL0     C21125   7.339   6.463   9.269  1.1455  0.5657  0.9015
  157MOL0     C21126   7.452   6.525   9.214  0.3380 -0.2217  0.1462
  157MOL0     C21127   7.558   6.439   9.158 -0.6604  0.2774 -0.0066
  157MOL0     H21128   7.835   6.875   9.215  1.6661 -0.3955 -1.2614
  157MOL0     H21129   8.007   7.013   9.090 -0.4398 -1.5085  2.3832
  157MOL0     H21130   7.892   7.273   8.733  2.6976  5.5417 -1.8983
  157MOL0     H21131   7.917   7.346   8.899  0.2973 -0.4211 -0.0622
  157MOL0     H21132   8.078   7.429   8.706  1.7946 -0.9356 -2.5740
  157MOL0     H21133   8.098   7.253   8.689 -2.2644 -1.5744  0.5702
  157MOL0     H21134   8.223   7.243   8.893 -0.9184 -0.6564 -2.2650
  157MOL0     H21135   8.153   7.413   8.941 -1.1743 -0.7780 -0.5794
  157MOL0     H21136   8.362   7.367   8.713 -1.7673 -2.1598 -0.8018
  157MOL0     H21137   8.307   7.519   8.790 -1.6807 -1.2531 -0.1572
  157MOL0     H21138   8.391   7.437   8.997 -1.6443  0.6920 -0.3686
  157MOL0     H21139   8.499   7.318   8.911 -0.0881 -0.2340  0.7976
  157MOL0     H21140   8.576   7.469   8.755 -1.9673 -2.5020  0.5743
  157MOL0     H21141   8.509   7.611   8.842  2.4082  1.9869  2.3747
  157MOL0     H21142   8.737   7.431   8.926  2.9304  2.7383 -2.4070
  157MOL0     H21143   8.634   7.533   9.045 -0.1278  0.3002  0.4409
  157MOL0     H21144   8.804   7.608   8.807 -0.7844  0.8237  0.2827
  157MOL0     H21145   8.703   7.724   8.893 -0.2165 -0.0117  2.6839
  157MOL0     H21146   8.771   7.712   9.200  0.4193 -0.4012 -0.2882
  157MOL0     H21147   8.958   7.675   9.411  1.8142 -1.8918  1.0426
  157MOL0     H21148   9.124   7.672   9.347  1.0007  1.3496 -3.9945
  157MOL0     H21149   9.081   7.911   9.241 -0.5890 -0.0239 -0.2931
  157MOL0     H21150   8.919   7.890   9.308 -0.9924 -2.6728 -0.5299
  157MOL0     H21151   9.190   7.879   9.465 -1.2222 -1.8690  3.7534
  157MOL0     H21152   9.034   7.858   9.530 -0.9102 -5.1778 -2.8907
  157MOL0     H21153   9.123   8.093   9.549  0.2221 -1.6923 -0.2172
  157MOL0     H21154   8.977   8.103   9.458 -0.4881 -0.3088  2.4209
  157MOL0     H21155   9.354   8.073   9.524 -0.9635  1.9395  0.9309
  157MOL0     H21156   9.584   8.093   9.464 -0.4804 -3.7744 -1.3115
  157MOL0     H21157   9.931   7.894   9.188 -0.8152  1.0915  0.8365
  157MOL0     H21158  10.171   7.931   9.140 -0.1508  1.1714 -0.6475
  157MOL0     H21159  10.404   7.965   9.194 -2.8205  1.5034  2.2814
  157MOL0     H21160  10.341   8.008   9.032 -3.2921  0.7347  1.4909
  157MOL0     H21161  10.583   8.024   9.034  1.0503  2.1723 -2.1943
  157MOL0     H21162  10.511   8.189   9.017 -0.1439 -1.6750 -2.9227
  157MOL0     H21163  10.542   8.224   9.263  0.3806  1.4402 -1.7094
  157MOL0     H21164  10.624   8.062   9.270 -1.9277  0.4537  1.4970
  157MOL0     H21165  10.716   8.312   9.116  0.4454  2.0079  2.6820
  157MOL0     H21166  10.789   8.134   9.125 -1.1234 -0.2759  1.1147
  157MOL0     H21167  10.827   8.174   9.359  1.4068  0.8045  1.3710
  157MOL0     H21168  10.740   8.329   9.343 -0.0650 -0.1514 -1.3879
  157MOL0     H21169  10.998   8.254   9.208 -0.9764 -0.4440 -0.7314
  157MOL0     H21170  10.914   8.413   9.194 -0.4335 -1.8421 -2.4620
  157MOL0     H21171  11.022   8.304   9.439 -3.6570 -0.4400  0.2181
  157MOL0     H21172  10.948   8.468   9.412  0.2582  1.9454 -3.9448
  157MOL0     H21173  11.199   8.366   9.278 -0.5626 -0.6128  0.5715
  157MOL0     H21174  11.122   8.528   9.253  1.7159  0.2669 -1.7256
  157MOL0     H21175  10.152   8.327   9.228  2.6332 -1.4515 -1.1569
  157MOL0     H21176   9.904   8.321   9.289 -0.1890  0.8925 -2.2101
  157MOL0     H21177   9.462   8.205   9.068 -2.1307  1.7018  0.2111
  157MOL0     H21178   9.234   8.171   9.130 -2.0125 -0.0337  2.3630
  157MOL0     H21179   7.706   7.154   8.815 -0.1177 -1.0790 -1.2247
  157MOL0     H21180   7.544   7.010   8.932 -0.6543 -2.8992  2.4667
  157MOL0     H21181   7.372   6.842   9.285 -0.5087 -0.0914  0.1640
  157MOL0     H21182   7.171   6.750   9.351 -1.7146 -1.6343  1.2654
  157MOL0     H21183   7.145   6.281   9.335  1.6556 -0.1446 -1.3888
  157MOL0     H21184   7.063   6.366   9.209  1.4059 -0.9478  0.4048
  157MOL0     H21185   6.864   6.410   9.351  2.7972  2.2810  0.5849
  157MOL0     H21186   6.946   6.326   9.482  0.0762 -0.3963 -0.3491
  157MOL0     H21187   6.798   6.172   9.427  1.2766 -1.5198  0.7986
  157MOL0     H21188   6.957   6.117   9.364  2.0789  2.1093  1.1897
  157MOL0     H21189   6.793   6.040   9.234  3.6319 -0.1013 -0.3522
  157MOL0     H21190   6.700   6.196   9.238 -1.0077  2.2418 -1.9925
  157MOL0     H21191   6.940   6.186   8.875  0.3012  1.3409 -0.6507
  157MOL0     H21192   7.346   6.357   9.287 -0.0145  0.5385  1.2676
  157MOL0     H21193   7.511   6.342   9.141 -2.6240  1.5809 -2.7848
  157MOL0     H21194   7.605   6.469   9.064 -1.1285  2.0871  0.2794
  157MOL0     H21195   7.646   6.434   9.222 -0.5721  1.3633 -0.0089
  158MOL0     O21196   6.956   9.501   6.124 -1.0952  0.2807  0.2219
  158MOL0     C21197   6.892   9.598   6.076  0.9316  1.0935 -0.0303
  158MOL0     O21198   6.939   9.709   6.028 -0.2593 -0.5857 -0.2514
  158MOL0     C21199   7.076   9.742   6.008 -0.8645  0.3496  0.3993
  158MOL0     C21200   7.168   9.643   5.966 -0.7882 -0.2412  0.5621
  158MOL0     C21201   7.305   9.674   5.955 -0.2643 -0.7059  1.0690
  158MOL0     C21202   7.344   9.805   5.984  0.1814 -0.3098 -0.1192
  158MOL0     O21203   7.470   9.851   5.972 -0.4639 -1.0191 -0.7477
  158MOL0     C21204   7.562   9.788   5.880 -0.2232 -0.2393 -0.9624
  158MOL0     C21205   7.682   9.882   5.900 -0.1841  0.1008  0.3066
  158MOL0     C21206   7.801   9.848   5.800 -0.1815 -0.4004 -0.2826
  158MOL0     C21207   7.900   9.969   5.825  0.4714 -0.2531 -0.4717
  158MOL0     C21208   7.945  10.003   5.969 -0.5171  1.0802 -0.1674
  158MOL0     C21209   8.044  10.109   5.955 -0.7485 -0.4945  0.1765
  158MOL0     C21210   8.046  10.198   6.084 -0.0558  0.0272 -0.4327
  158MOL0     C21211   7.916  10.257   6.144  0.9598  0.3597 -0.3411
  158MOL0     N21212   7.839  10.331   6.046  0.5324  0.2590 -0.0515
  158MOL0     C21213   7.757  10.270   5.950 -0.2736 -0.8539  0.6112
  158MOL0     C21214   7.691  10.373   5.899 -0.3270  0.2384 -0.4096
  158MOL0     C21215   7.604  10.367   5.788  0.4771  0.2864  0.0869
  158MOL0     C21216   7.480  10.287   5.811  0.3885 -0.1352  0.6317
  158MOL0     C21217   7.392  10.374   5.895 -0.0800  1.1503 -0.4319
  158MOL0     C21218   7.256  10.330   5.941  0.4417 -0.3832  0.0727
  158MOL0     O21219   7.183  10.281   5.819  0.3352 -0.4339  0.2329
  158MOL0     C21220   7.045  10.243   5.823 -0.1570  0.1007  0.5565
  158MOL0     C21221   6.954  10.258   5.928  0.6452  0.8188  0.9281
  158MOL0     C21222   6.820  10.226   5.911 -0.8343 -0.7368 -0.6489
  158MOL0     C21223   6.777  10.168   5.792 -0.7374 -0.1708 -0.8833
  158MOL0     C21224   6.629  10.133   5.774 -0.2845 -0.5098 -0.1986
  158MOL0     O21225   6.562  10.096   5.891 -0.0229  0.0789  0.0115
  158MOL0     C21226   6.428  10.055   5.889 -0.0876 -1.4164 -0.2738
  158MOL0     C21227   6.365   9.992   5.782  0.0638 -1.1133  0.9821
  158MOL0     C21228   6.233   9.963   5.786  0.4953  0.2097 -0.0067
  158MOL0     C21229   6.152   9.996   5.901  0.2296  0.3830  0.3507
  158MOL0     O21230   6.019   9.978   5.885 -1.2865  0.5059  0.3678
  158MOL0     C21231   5.936   9.956   6.000  0.4597  0.5812  0.1026
  158MOL0     C21232   5.800   9.907   5.965  0.8744 -0.4422  1.2650
  158MOL0     C21233   5.724   9.910   6.093  0.1970 -0.7359  1.1473
  158MOL0     C21234   5.571   9.871   6.082 -0.6455 -0.8909  0.4434
  158MOL0     C21235   5.493   9.854   6.211  0.2726  0.4475 -0.4479
  158MOL0     C21236   5.499   9.975   6.305 -0.0874 -0.7831  0.1218
  158MOL0     C21237   5.455   9.954   6.457  0.4574  0.3183  0.0044
  158MOL0     C21238   5.312   9.926   6.461 -0.9062  1.0704 -0.2303
  158MOL0    Cl21239   5.250   9.882   6.621  0.0419 -0.1250 -0.2747
  158MOL0     C21240   6.217  10.048   6.014 -0.8872  0.4693  0.9620
  158MOL0     C21241   6.355  10.075   6.010 -0.5010 -0.0374  1.4712
  158MOL0     O21242   6.583  10.149   5.658  0.6298 -0.0714 -0.0374
  158MOL0     C21243   6.868  10.142   5.685 -0.9410  0.5461  0.7986
  158MOL0     C21244   6.997  10.186   5.701 -0.4731 -0.4353 -0.3479
  158MOL0     N21245   7.719  10.493   5.966  0.3756  0.1299 -0.3611
  158MOL0     N21246   7.813  10.466   6.059 -0.2674  0.7607  0.2956
  158MOL0     C21247   7.260   9.905   6.018 -0.6291 -0.1478 -0.3840
  158MOL0     C21248   7.124   9.871   6.041 -0.6813 -0.8933  0.1433
  158MOL0     C21249   6.741   9.589   6.096  0.1086  0.2754 -0.3537
  158MOL0     C21250   6.688   9.492   6.180  0.2803  0.1918 -0.2158
  158MOL0     C21251   6.551   9.485   6.206  0.9135  0.2992 -0.3285
  158MOL0     C21252   6.458   9.576   6.150 -1.3020 -0.2655 -0.1478
  158MOL0     O21253   6.329   9.564   6.194  0.5260  0.1902 -0.4156
  158MOL0     C21254   6.222   9.654   6.153 -1.1357  0.4569 -1.0561
  158MOL0     C21255   6.094   9.576   6.161 -0.3541  0.2472  0.0559
  158MOL0     C21256   6.047   9.543   6.298 -0.3160 -0.2470 -0.8062
  158MOL0     C21257   5.944   9.654   6.340  0.1831  0.1541 -0.6954
  158MOL0     C21258   5.901   9.635   6.489 -0.6812 -0.8320  0.2772
  158MOL0     C21259   5.882   9.622   6.608 -0.3332 -0.1461 -0.6308
  158MOL0     C21260   6.514   9.671   6.064  0.1363  0.5865 -0.2386
  158MOL0     C21261   6.649   9.676   6.031 -0.1376  0.0548 -0.7245
  158MOL0     C21262   6.696   9.768   5.922 -0.5793  0.7942  0.0555
  158MOL0     H21263   7.138   9.540   5.950 -1.0850 -0.1319  0.4280
  158MOL0     H21264   7.356   9.593   5.905  0.5136  0.4821 -0.1610
  158MOL0     H21265   7.589   9.684   5.900  1.6399  0.0958 -1.5392
  158MOL0     H21266   7.513   9.793   5.782 -0.5201 -0.0800 -0.8071
  158MOL0     H21267   7.706   9.879   6.007 -3.5566  1.1941  1.2058
  158MOL0     H21268   7.653   9.985   5.877  1.7068  0.5344 -0.2609
  158MOL0     H21269   7.776   9.842   5.694  1.4391 -1.7216 -0.6278
  158MOL0     H21270   7.851   9.762   5.845  0.4856  1.0114  1.7968
  158MOL0     H21271   7.989   9.947   5.766  0.8612 -0.7662  0.2861
  158MOL0     H21272   7.865  10.061   5.777  3.4207  1.0046 -0.4296
  158MOL0     H21273   7.854  10.038   6.019 -1.5852 -1.3696 -0.1955
  158MOL0     H21274   7.993   9.923   6.027 -2.0253 -1.2731 -1.9698
  158MOL0     H21275   8.141  10.065   5.934  0.0637 -0.7436  3.8360
  158MOL0     H21276   8.025  10.178   5.872 -1.4325 -0.7200  0.1358
  158MOL0     H21277   8.108  10.287   6.068  1.2564 -1.0208 -1.3383
  158MOL0     H21278   8.099  10.142   6.161 -0.7500 -0.2279 -0.1310
  158MOL0     H21279   7.859  10.168   6.174  1.9906 -0.8778 -1.8327
  158MOL0     H21280   7.942  10.317   6.231  0.6245  0.0005  0.0115
  158MOL0     H21281   7.753  10.171   5.906  0.7884 -0.0986 -1.2662
  158MOL0     H21282   7.574  10.471   5.774  0.6130  0.8030  2.9264
  158MOL0     H21283   7.662  10.330   5.702 -1.0105 -1.5094 -0.2107
  158MOL0     H21284   7.436  10.270   5.713  1.3468  1.5159 -0.1143
  158MOL0     H21285   7.513  10.192   5.855 -0.6537 -1.2992 -0.9981
  158MOL0     H21286   7.376  10.467   5.838 -1.4321  0.6588 -0.8860
  158MOL0     H21287   7.448  10.385   5.988 -0.2070 -3.1311  0.3247
  158MOL0     H21288   7.195  10.401   5.998  0.5321  0.3682 -0.7478
  158MOL0     H21289   7.283  10.251   6.012  1.9881  0.0336 -0.0072
  158MOL0     H21290   6.999  10.302   6.017  4.1576 -0.4004 -0.1039
  158MOL0     H21291   6.749  10.254   5.988 -0.3188 -0.0404 -0.4139
  158MOL0     H21292   6.420   9.985   5.689 -1.5126  2.0184 -0.3465
  158MOL0     H21293   6.193   9.909   5.701  1.2952 -1.8848  0.8778
  158MOL0     H21294   5.984   9.880   6.062 -1.9168 -1.0237  0.1215
  158MOL0     H21295   5.927  10.054   6.048 -1.6198  0.0316  0.9279
  158MOL0     H21296   5.763   9.969   5.883  1.5876 -0.7146  0.7343
  158MOL0     H21297   5.808   9.807   5.922  0.0103  0.3681 -0.9266
  158MOL0     H21298   5.775   9.840   6.160  1.0206  0.6207  1.9931
  158MOL0     H21299   5.727  10.011   6.135 -2.0698 -0.9369  1.9503
  158MOL0     H21300   5.568   9.785   6.014  1.6861  0.1291 -1.0825
  158MOL0     H21301   5.524   9.955   6.032 -0.9100 -0.0582  2.0100
  158MOL0     H21302   5.536   9.768   6.264 -1.0387 -0.1438 -0.3217
  158MOL0     H21303   5.388   9.841   6.186  0.3133 -0.5882 -0.1352
  158MOL0     H21304   5.606   9.995   6.312 -0.6536  2.2760  1.6085
  158MOL0     H21305   5.463  10.060   6.246  2.8007 -0.8964 -2.0252
  158MOL0     H21306   5.489  10.039   6.517 -0.1917  2.8320 -2.9986
  158MOL0     H21307   5.503   9.869   6.507 -0.3918 -0.0169  0.2701
  158MOL0     H21308   5.249  10.011   6.435 -0.5115  1.6898  0.7697
  158MOL0     H21309   5.292   9.842   6.394  0.0424 -0.5293  1.4058
  158MOL0     H21310   6.155  10.070   6.101 -2.3622 -3.6487  1.1304
  158MOL0     H21311   6.411  10.122   6.091 -0.3466  0.1660  1.2491
  158MOL0     H21312   6.836  10.088   5.597  0.7134 -0.4245  0.7502
  158MOL0     H21313   7.068  10.184   5.619  1.1975 -1.9699  1.0708
  158MOL0     H21314   7.295  10.005   6.043 -1.2084  0.4669 -1.9254
  158MOL0     H21315   7.054   9.948   6.071 -0.7785 -1.9019  2.8752
  158MOL0     H21316   6.752   9.421   6.232  0.9549  1.0844  0.2044
  158MOL0     H21317   6.516   9.407   6.274  1.0537  1.1170  0.7134
  158MOL0     H21318   6.244   9.691   6.052  4.2617 -0.1676 -0.3855
  158MOL0     H21319   6.221   9.743   6.216 -1.5928  1.2809 -2.1833
  158MOL0     H21320   6.111   9.488   6.098 -1.7908 -0.0855  0.1147
  158MOL0     H21321   6.033   9.649   6.106  0.2456  1.7335  1.2938
  158MOL0     H21322   6.136   9.536   6.362  1.4832  0.5485 -3.0998
  158MOL0     H21323   5.996   9.447   6.307  2.9279 -2.2040 -1.5964
  158MOL0     H21324   5.981   9.757   6.335 -1.1298  0.7253  0.4789
  158MOL0     H21325   5.858   9.648   6.272 -0.0869 -1.3508 -0.2712
  158MOL0     H21326   5.876   9.609   6.714  0.2690 -1.2258 -0.7075
  158MOL0     H21327   6.456   9.758   6.033 -2.3667 -0.7718  0.3447
  158MOL0     H21328   6.788   9.730   5.877  0.2849 -2.5177  4.0211
  158MOL0     H21329   6.612   9.785   5.854 -1.1143 -0.7628  0.2783
  158MOL0     H21330   6.719   9.868   5.961 -1.3954  1.3616 -0.8663
  159MOL0     O21331   6.906   8.934   3.690 -0.0785 -0.4877 -0.3824
  159MOL0     C21332   6.893   8.969   3.807  0.5575 -0.3008 -0.1623
  159MOL0     O21333   6.978   9.051   3.875  0.7392  0.4328 -0.5071
  159MOL0     C21334   7.109   9.069   3.839 -0.0040  0.2421  0.1482
  159MOL0     C21335   7.144   9.196   3.784 -0.1239  0.1947 -0.3975
  159MOL0     C21336   7.273   9.231   3.744 -0.5070  1.0213 -0.0690
  159MOL0     C21337   7.378   9.140   3.761 -0.6161  0.3172 -0.3316
  159MOL0     O21338   7.508   9.185   3.745  0.1182  0.4368  0.2560
  159MOL0     C21339   7.611   9.117   3.824  1.2186  0.1136  1.0772
  159MOL0     C21340   7.754   9.183   3.821 -0.2458  0.4427 -0.7177
  159MOL0     C21341   7.802   9.208   3.677  0.0166  0.1506 -0.3055
  159MOL0     C21342   7.886   9.331   3.679 -0.3221  1.0984 -0.5308
  159MOL0     C21343   7.803   9.457   3.679  0.1501  0.3689  0.2747
  159MOL0     C21344   7.871   9.587   3.631  0.4237 -0.2950  0.0232
  159MOL0     C21345   8.007   9.617   3.707  0.3646  0.7409 -0.4501
  159MOL0     C21346   8.051   9.766   3.707  0.4456  0.2398  0.4063
  159MOL0     N21347   8.147   9.796   3.802 -0.0421  0.0543 -0.4185
  159MOL0     C21348   8.269   9.743   3.799  0.1288 -0.4280 -0.1916
  159MOL0     C21349   8.334   9.822   3.881  0.4199 -0.0265 -0.7566
  159MOL0     C21350   8.486   9.815   3.893  0.5697  0.4330  0.3796
  159MOL0     C21351   8.529   9.874   4.025  0.2369  0.3852 -0.1606
  159MOL0     C21352   8.671   9.904   4.027 -0.2290 -0.0620  0.8086
  159MOL0     C21353   8.747   9.920   4.158  0.6348 -0.0155 -0.9888
  159MOL0     O21354   8.884   9.942   4.142  0.2293  0.7085 -0.0467
  159MOL0     C21355   8.941  10.018   4.239 -0.6095 -0.3246 -0.2341
  159MOL0     C21356   9.054  10.093   4.198 -0.6524 -0.5727 -0.1727
  159MOL0     C21357   9.128  10.179   4.275 -0.4453 -0.6330 -0.5291
  159MOL0     C21358   9.101  10.186   4.413  0.0448  0.0397  0.1628
  159MOL0     C21359   9.182  10.284   4.497  0.6127  0.0576  0.4471
  159MOL0     O21360   9.158  10.303   4.631  0.1453  0.2582 -0.2728
  159MOL0     C21361   9.229  10.394   4.697  0.1503 -0.1251  1.0757
  159MOL0     C21362   9.356  10.380   4.732  0.3864  0.1161  0.3904
  159MOL0     C21363   9.422  10.466   4.824 -0.0126  0.2020 -0.6451
  159MOL0     C21364   9.350  10.579   4.871 -0.5809  0.2985 -0.5477
  159MOL0     O21365   9.418  10.651   4.966  0.5045 -0.1067 -0.0276
  159MOL0     C21366   9.347  10.748   5.047 -0.8246 -1.2525 -0.4079
  159MOL0     C21367   9.418  10.787   5.173  0.1341 -0.3398 -0.2841
  159MOL0     C21368   9.537  10.888   5.146 -0.1876  0.4506  0.7197
  159MOL0     C21369   9.611  10.909   5.271 -0.0218 -0.6818  0.1776
  159MOL0     C21370   9.745  10.984   5.254 -0.5271 -0.9837  0.0727
  159MOL0     C21371   9.722  11.118   5.180 -0.6904  0.0402  0.6655
  159MOL0     C21372   9.838  11.220   5.166 -0.3413  0.1355 -0.7343
  159MOL0     C21373   9.832  11.316   5.050 -0.6100 -0.3583  0.0084
  159MOL0    Cl21374   9.986  11.412   5.034  0.7628 -0.0959 -0.2257
  159MOL0     C21375   9.225  10.605   4.820  0.5439  0.4989 -0.7022
  159MOL0     C21376   9.163  10.507   4.742  0.6125 -0.3133  0.9373
  159MOL0     O21377   9.260  10.350   4.426 -0.1558 -0.0222  0.4023
  159MOL0     C21378   8.991  10.112   4.463  0.6107 -0.0072  0.5672
  159MOL0     C21379   8.916  10.025   4.377 -0.7833 -0.1191 -0.1815
  159MOL0     N21380   8.250   9.911   3.946  0.2235 -0.3258  0.7215
  159MOL0     N21381   8.133   9.894   3.889  0.0149 -0.0972  0.2033
  159MOL0     C21382   7.344   9.012   3.818 -0.2093  0.1797 -0.6628
  159MOL0     C21383   7.212   8.979   3.864  0.2761  0.6656  0.1866
  159MOL0     C21384   6.766   8.942   3.875  0.3235 -0.4896 -0.8696
  159MOL0     C21385   6.741   8.990   4.007 -0.6477 -0.2699  0.1637
  159MOL0     C21386   6.619   8.963   4.078 -0.2997 -0.0228  0.7743
  159MOL0     C21387   6.517   8.881   4.023 -1.3212 -0.2788 -0.2762
  159MOL0     O21388   6.403   8.847   4.082 -0.0777 -0.4955  0.3013
  159MOL0     C21389   6.413   8.843   4.225  0.1514  0.5533  0.4367
  159MOL0     C21390   6.291   8.785   4.292  0.7181 -0.0340  0.5076
  159MOL0     C21391   6.166   8.858   4.258  0.3912  0.4445 -0.2566
  159MOL0     C21392   6.072   8.790   4.159  0.6151  0.3439 -0.0744
  159MOL0     C21393   5.937   8.840   4.167 -0.3267 -0.0142  0.5804
  159MOL0     C21394   5.832   8.894   4.158 -0.4097 -0.7929  0.1208
  159MOL0     C21395   6.546   8.829   3.906  0.5976 -0.1874  0.0976
  159MOL0     C21396   6.663   8.856   3.828 -0.2707  0.3461 -0.4303
  159MOL0     C21397   6.673   8.761   3.713  0.0409 -0.3855 -0.5875
  159MOL0     H21398   7.072   9.274   3.759  0.2134  0.4798 -0.4788
  159MOL0     H21399   7.285   9.332   3.705  3.3441  0.6364 -0.3100
  159MOL0     H21400   7.565   9.112   3.923 -1.3216 -0.2637 -0.0502
  159MOL0     H21401   7.618   9.010   3.800 -2.0991  0.1459 -0.6471
  159MOL0     H21402   7.826   9.121   3.877  0.7566  0.4609 -1.9514
  159MOL0     H21403   7.752   9.276   3.879 -0.6117 -0.4057  0.6745
  159MOL0     H21404   7.715   9.220   3.612 -0.7290  0.3683  0.7128
  159MOL0     H21405   7.851   9.119   3.636 -2.1802 -0.3119 -2.1366
  159MOL0     H21406   7.953   9.335   3.765  1.6021 -0.9439 -1.8125
  159MOL0     H21407   7.948   9.329   3.589 -1.6837  0.4431 -1.4923
  159MOL0     H21408   7.712   9.438   3.621  1.1249  1.0842 -1.5911
  159MOL0     H21409   7.772   9.468   3.783 -1.5695  0.0178 -0.1683
  159MOL0     H21410   7.894   9.576   3.525  1.3924 -0.4900  0.2436
  159MOL0     H21411   7.795   9.666   3.625  1.5492  0.7191 -1.5510
  159MOL0     H21412   8.093   9.565   3.665  2.6531  2.5389  1.7215
  159MOL0     H21413   7.987   9.592   3.812  1.3748  1.4992 -0.0599
  159MOL0     H21414   8.093   9.794   3.610  1.6979 -0.1949  0.8018
  159MOL0     H21415   7.958   9.821   3.719 -2.0079 -3.5490  0.3273
  159MOL0     H21416   8.293   9.664   3.728 -2.8718  0.3829 -2.2980
  159MOL0     H21417   8.523   9.712   3.890  1.7936  0.4045  5.6549
  159MOL0     H21418   8.529   9.872   3.811  0.2838 -0.9819 -0.7836
  159MOL0     H21419   8.472   9.961   4.057 -0.0905 -0.7013  2.4065
  159MOL0     H21420   8.508   9.796   4.098 -5.1050  1.3549 -0.2146
  159MOL0     H21421   8.688   9.989   3.962  1.9272 -2.1190 -1.5566
  159MOL0     H21422   8.736   9.831   3.978  0.9347  1.0568  0.6262
  159MOL0     H21423   8.741   9.833   4.223 -1.6908  1.9696  1.6800
  159MOL0     H21424   8.697  10.005   4.205 -0.1114 -1.4457  0.9080
  159MOL0     H21425   9.107  10.070   4.106 -2.5755  1.3184 -1.8428
  159MOL0     H21426   9.220  10.225   4.239  0.4009  1.0350  3.2747
  159MOL0     H21427   9.412  10.291   4.705 -2.4983 -1.7349  0.0275
  159MOL0     H21428   9.522  10.445   4.862 -0.0348  0.9641 -0.1391
  159MOL0     H21429   9.334  10.835   4.981  1.1905 -0.1745  0.5160
  159MOL0     H21430   9.243  10.722   5.072 -0.7815 -0.2282  1.0057
  159MOL0     H21431   9.362  10.842   5.251  3.8264  3.0473  0.3130
  159MOL0     H21432   9.448  10.694   5.223 -1.1369 -0.8627 -0.4439
  159MOL0     H21433   9.597  10.842   5.067 -0.3541  1.2061  0.1448
  159MOL0     H21434   9.497  10.985   5.115 -0.1825  0.3173  0.2854
  159MOL0     H21435   9.617  10.809   5.316 -1.3977  0.9437  4.4486
  159MOL0     H21436   9.553  10.970   5.340  1.3140 -1.2971  1.9332
  159MOL0     H21437   9.819  10.921   5.203 -1.0798 -1.7931  0.2313
  159MOL0     H21438   9.785  10.995   5.355  1.7898 -1.4251 -0.7435
  159MOL0     H21439   9.688  11.103   5.076 -0.2314  1.9788  0.1994
  159MOL0     H21440   9.644  11.172   5.233  0.0470  0.6698  1.1273
  159MOL0     H21441   9.930  11.162   5.153 -1.7551 -2.4847  0.1363
  159MOL0     H21442   9.848  11.279   5.257 -1.1461 -0.0203 -0.5306
  159MOL0     H21443   9.816  11.263   4.956  3.8406 -1.0740 -0.5554
  159MOL0     H21444   9.752  11.390   5.061 -0.8433 -0.6900  0.5539
  159MOL0     H21445   9.167  10.686   4.862 -2.4100 -1.9444  0.3756
  159MOL0     H21446   9.066  10.535   4.702  0.6014 -0.9313  0.5245
  159MOL0     H21447   8.974  10.113   4.570  0.1023  0.4822  0.4807
  159MOL0     H21448   8.843   9.966   4.432 -0.2513 -1.6277 -1.0385
  159MOL0     H21449   7.414   8.932   3.841 -1.8405 -0.8177  1.0551
  159MOL0     H21450   7.187   8.883   3.909  0.6345  1.1927  1.5839
  159MOL0     H21451   6.820   9.048   4.054 -2.0179  0.6731  1.3678
  159MOL0     H21452   6.602   9.011   4.174 -0.8422 -0.1337  0.7388
  159MOL0     H21453   6.411   8.942   4.272  0.4487  0.8008 -0.0673
  159MOL0     H21454   6.512   8.806   4.252  0.7759  2.9255  1.7070
  159MOL0     H21455   6.309   8.792   4.399  1.3402  1.7245  0.3133
  159MOL0     H21456   6.277   8.679   4.266 -0.5329 -0.0343  1.0862
  159MOL0     H21457   6.201   8.957   4.229  0.1732  1.4486  2.5656
  159MOL0     H21458   6.115   8.882   4.353 -0.4304  0.3793 -0.6689
  159MOL0     H21459   6.114   8.799   4.059 -3.3243 -2.1116 -2.2204
  159MOL0     H21460   6.072   8.683   4.184  3.2912  0.0564 -0.9724
  159MOL0     H21461   5.734   8.936   4.153  0.6343  1.7353 -1.3654
  159MOL0     H21462   6.482   8.745   3.878 -1.0521  1.9336 -3.1146
  159MOL0     H21463   6.609   8.673   3.728  0.9151 -1.3159 -1.9702
  159MOL0     H21464   6.627   8.804   3.623 -1.2247  0.5373  0.4675
  159MOL0     H21465   6.777   8.740   3.686  0.6225  1.9284 -0.2836
  160MOL0     O21466   1.237   4.253   0.104  0.1166  0.7692 -0.4501
  160MOL0     C21467   1.183   4.143   0.102 -0.0085 -0.1308  0.0089
  160MOL0     O21468   1.223   4.040   0.178  0.1853  0.1069 -0.6206
  160MOL0     C21469   1.342   4.059   0.255  0.0585 -0.2303 -1.1725
  160MOL0     C21470   1.345   4.067   0.402  0.0981  0.4622  1.4656
  160MOL0     C21471   1.464   4.070   0.470  0.6409  0.0835  0.5127
  160MOL0     C21472   1.578   4.059   0.406 -0.3195 -0.6503  0.4051
  160MOL0     O21473   1.695   4.058   0.473 -0.6247 -0.3261 -0.2489
  160MOL0     C21474   1.801   3.971   0.442 -0.1709 -0.0939 -1.2752
  160MOL0     C21475   1.906   3.982   0.556  0.3234 -0.0500  0.0299
  160MOL0     C21476   2.019   4.081   0.515 -0.1043  0.8450 -0.0373
  160MOL0     C21477   2.082   4.140   0.640 -0.6363  0.7489  0.1387
  160MOL0     C21478   2.222   4.186   0.607 -0.7861  0.4622 -1.2665
  160MOL0     C21479   2.331   4.076   0.606 -0.5108 -0.1725  0.4414
  160MOL0     C21480   2.475   4.148   0.629  0.4685 -0.4219  0.2762
  160MOL0     C21481   2.591   4.049   0.609  0.8460  0.2116 -0.8412
  160MOL0     N21482   2.710   4.119   0.643 -0.6801  0.4650 -0.9003
  160MOL0     C21483   2.755   4.128   0.769 -0.0214 -0.3518 -0.8526
  160MOL0     C21484   2.876   4.187   0.763 -0.7214 -1.1056 -0.1947
  160MOL0     C21485   2.972   4.196   0.881 -0.2300 -0.7122 -0.1898
  160MOL0     C21486   3.118   4.149   0.840 -0.7038 -1.0484 -0.1339
  160MOL0     C21487   3.216   4.113   0.955 -0.4360  0.0444 -0.8236
  160MOL0     C21488   3.246   4.229   1.046  1.1225  0.3526 -0.5026
  160MOL0     O21489   3.274   4.351   0.980 -0.2158  0.5194 -0.3288
  160MOL0     C21490   3.401   4.387   0.943  0.3326  0.8940  0.1957
  160MOL0     C21491   3.519   4.310   0.979  0.4728  0.0478  0.2092
  160MOL0     C21492   3.648   4.364   0.957  0.2644 -0.0407 -0.3348
  160MOL0     C21493   3.661   4.481   0.878 -1.2919  0.4135 -1.0028
  160MOL0     C21494   3.803   4.534   0.851  0.2831 -1.1580  0.1325
  160MOL0     O21495   3.813   4.635   0.766  0.2102 -0.5055  0.0435
  160MOL0     C21496   3.919   4.718   0.726  1.1701  0.4617 -0.2470
  160MOL0     C21497   3.885   4.815   0.635  0.1354  0.0841 -0.6635
  160MOL0     C21498   3.976   4.909   0.583  0.1787 -0.1703  0.0320
  160MOL0     C21499   4.109   4.903   0.623 -0.6152 -0.8360  0.4164
  160MOL0     O21500   4.195   4.979   0.545  0.0537 -0.8874 -1.6480
  160MOL0     C21501   4.302   5.041   0.629 -0.6142  0.0984  0.2205
  160MOL0     C21502   4.356   5.162   0.548 -0.0507 -0.4664  0.4209
  160MOL0     C21503   4.507   5.162   0.513  0.2063  0.1737  0.1599
  160MOL0     C21504   4.601   5.166   0.640  0.2104  0.5098  0.0616
  160MOL0     C21505   4.661   5.299   0.667 -0.1066  0.2663 -0.3777
  160MOL0     C21506   4.714   5.299   0.813  0.2465 -0.4495  0.5614
  160MOL0     C21507   4.823   5.406   0.826  0.2925  0.3790 -0.2142
  160MOL0     C21508   4.778   5.540   0.769 -0.1083 -0.8523  0.1553
  160MOL0    Cl21509   4.921   5.648   0.760 -0.3189 -0.0983 -0.1629
  160MOL0     C21510   4.153   4.804   0.714 -0.1081 -0.7625 -0.6958
  160MOL0     C21511   4.055   4.715   0.764 -0.0358 -0.5677  0.8276
  160MOL0     O21512   3.899   4.485   0.909 -0.6155 -0.4194 -0.8480
  160MOL0     C21513   3.546   4.545   0.840  1.0983  0.0770 -0.7577
  160MOL0     C21514   3.416   4.507   0.881  0.0566 -1.0567 -0.1898
  160MOL0     N21515   2.895   4.223   0.633  0.6988  0.8744  0.0422
  160MOL0     N21516   2.804   4.170   0.562  0.5033 -0.2530  0.8021
  160MOL0     C21517   1.582   4.043   0.267 -0.2324  0.9235  0.4951
  160MOL0     C21518   1.468   4.051   0.191  0.8121  0.2659  0.3651
  160MOL0     C21519   1.066   4.119   0.014  0.1723 -0.3851 -0.1552
  160MOL0     C21520   1.058   4.194  -0.104 -0.1223 -0.8127 -0.0470
  160MOL0     C21521   0.961   4.165  -0.197  0.2422  0.1517  1.0041
  160MOL0     C21522   0.848   4.088  -0.170  0.5772 -0.1960 -0.2061
  160MOL0     O21523   0.759   4.083  -0.281  0.5360 -0.7117  0.1127
  160MOL0     C21524   0.646   4.000  -0.258 -0.1321  0.2030 -0.2790
  160MOL0     C21525   0.587   3.988  -0.394 -0.2203  0.4731  0.6608
  160MOL0     C21526   0.432   3.968  -0.388 -0.8217  0.2514 -0.3192
  160MOL0     C21527   0.367   3.953  -0.530  0.5938  0.0844 -0.4005
  160MOL0     C21528   0.238   3.892  -0.516  0.6532 -0.3172  0.2767
  160MOL0     C21529   0.137   3.831  -0.503 -0.6358 -0.0020  0.0656
  160MOL0     C21530   0.849   4.019  -0.048  0.7573 -0.1893  0.1044
  160MOL0     C21531   0.958   4.030   0.047  0.1193  0.2409  0.6465
  160MOL0     C21532   0.936   3.953   0.171  0.6071 -0.6397 -0.5393
  160MOL0     H21533   1.248   4.055   0.450 -0.1220 -0.0265  0.9050
  160MOL0     H21534   1.469   4.083   0.577  0.0417  2.4039  0.3009
  160MOL0     H21535   1.765   3.867   0.443  1.2072 -0.5962  0.6407
  160MOL0     H21536   1.853   3.994   0.349  2.8572  0.1002  0.3561
  160MOL0     H21537   1.946   3.883   0.580 -4.1990 -1.8366  1.4278
  160MOL0     H21538   1.847   4.019   0.641 -0.7419  1.3170 -1.2506
  160MOL0     H21539   1.976   4.161   0.454 -1.1397  0.6742  0.4346
  160MOL0     H21540   2.085   4.021   0.452  0.1978  0.8409  0.2794
  160MOL0     H21541   2.013   4.215   0.679 -1.7165  0.0858 -0.4379
  160MOL0     H21542   2.087   4.070   0.724 -1.5835 -0.1046 -0.4944
  160MOL0     H21543   2.233   4.243   0.515 -0.5184 -2.2611 -3.0611
  160MOL0     H21544   2.245   4.250   0.692 -0.0836 -2.8243  1.2604
  160MOL0     H21545   2.315   4.002   0.684  2.7724  0.7665  2.1965
  160MOL0     H21546   2.341   4.014   0.517  2.0011 -0.0014  0.5259
  160MOL0     H21547   2.467   4.190   0.730 -2.3905 -1.3564  0.5245
  160MOL0     H21548   2.490   4.235   0.564  0.3799 -1.2377 -0.8552
  160MOL0     H21549   2.576   3.953   0.660  1.2389 -0.8917 -2.7283
  160MOL0     H21550   2.598   4.032   0.501  1.8519 -1.9890 -0.4673
  160MOL0     H21551   2.709   4.086   0.857  1.5906  1.4477  0.9607
  160MOL0     H21552   2.972   4.296   0.927  2.2892 -0.8908  0.3225
  160MOL0     H21553   2.932   4.124   0.952 -1.4143 -0.2199 -0.3341
  160MOL0     H21554   3.109   4.058   0.780 -2.5028 -0.5259 -0.7018
  160MOL0     H21555   3.160   4.222   0.770 -5.9578  0.6098 -2.0104
  160MOL0     H21556   3.309   4.081   0.907 -0.4286 -0.2095 -0.6412
  160MOL0     H21557   3.174   4.027   1.008 -0.5600 -0.5261 -1.8262
  160MOL0     H21558   3.331   4.217   1.114  1.6137  1.6151 -0.8650
  160MOL0     H21559   3.158   4.234   1.111  0.9689  2.6239 -0.7909
  160MOL0     H21560   3.498   4.214   1.024 -3.2330 -0.0862 -1.4102
  160MOL0     H21561   3.735   4.317   1.002  0.1700 -0.0901 -0.2026
  160MOL0     H21562   3.780   4.818   0.607  0.2443 -0.3009 -1.1329
  160MOL0     H21563   3.936   4.975   0.507  0.9269  0.4743  0.1832
  160MOL0     H21564   4.267   5.078   0.726  0.6626 -0.4353  0.9063
  160MOL0     H21565   4.384   4.969   0.639 -2.0384 -1.9097 -1.6627
  160MOL0     H21566   4.294   5.182   0.460  1.7902 -2.4418 -1.4137
  160MOL0     H21567   4.344   5.248   0.615  2.0519  0.4015 -0.2411
  160MOL0     H21568   4.512   5.061   0.471 -0.6878  0.1724  0.0324
  160MOL0     H21569   4.533   5.236   0.438 -0.5050  0.1562 -0.1071
  160MOL0     H21570   4.683   5.094   0.629 -0.5777 -1.2566  3.9673
  160MOL0     H21571   4.548   5.130   0.729  1.7464 -3.2670 -0.3554
  160MOL0     H21572   4.582   5.374   0.654  0.1866  0.3050 -2.1957
  160MOL0     H21573   4.739   5.320   0.593 -0.9629  0.0789 -1.3733
  160MOL0     H21574   4.634   5.327   0.882  0.2508  0.6415  0.1478
  160MOL0     H21575   4.762   5.206   0.845  0.6601 -1.3518 -2.3633
  160MOL0     H21576   4.906   5.367   0.765 -0.5810 -1.8409 -0.0616
  160MOL0     H21577   4.867   5.421   0.925 -0.7057  2.7066 -0.0544
  160MOL0     H21578   4.743   5.531   0.666  1.0002 -2.3429 -0.1277
  160MOL0     H21579   4.690   5.583   0.817 -1.7276  0.9368 -3.9514
  160MOL0     H21580   4.254   4.796   0.751 -0.6777 -2.0065  0.7030
  160MOL0     H21581   4.080   4.644   0.842 -0.4149 -1.5723  0.0641
  160MOL0     H21582   3.555   4.634   0.778  1.9068 -0.4925 -1.4847
  160MOL0     H21583   3.336   4.579   0.866 -0.0918 -1.2173 -0.1775
  160MOL0     H21584   1.668   4.045   0.201 -0.4328  0.5211  0.2167
  160MOL0     H21585   1.474   4.041   0.084 -0.3106 -0.2739  0.3433
  160MOL0     H21586   1.125   4.278  -0.117 -2.8997  1.9790  2.1518
  160MOL0     H21587   0.962   4.206  -0.297  4.1778 -3.5751 -0.7658
  160MOL0     H21588   0.571   4.048  -0.196 -1.4921 -1.5575 -0.4751
  160MOL0     H21589   0.684   3.901  -0.230 -2.1758 -1.0852 -1.8163
  160MOL0     H21590   0.629   3.910  -0.459  3.5754  2.2861  0.7102
  160MOL0     H21591   0.594   4.079  -0.455 -0.1739 -1.6058 -2.7527
  160MOL0     H21592   0.379   4.037  -0.322 -2.6216 -4.6471  4.0067
  160MOL0     H21593   0.413   3.878  -0.330 -2.5557  0.9476  0.2420
  160MOL0     H21594   0.345   4.051  -0.573 -0.6721 -0.5301 -1.2447
  160MOL0     H21595   0.431   3.907  -0.606 -1.7531  0.2712 -2.6584
  160MOL0     H21596   0.045   3.777  -0.498  0.0078 -1.1078  0.2099
  160MOL0     H21597   0.765   3.952  -0.031  0.2973  0.7874  1.9054
  160MOL0     H21598   1.017   3.946   0.244  1.5527 -1.9866 -1.6513
  160MOL0     H21599   0.853   3.992   0.230  2.5518 -0.7834  2.5328
  160MOL0     H21600   0.914   3.850   0.141 -1.1906 -0.4608  0.0699
  161MOL0     O21601   5.558   0.456   4.563  0.4004  0.0606  0.3866
  161MOL0     C21602   5.488   0.440   4.466 -0.0618  0.6101 -0.0154
  161MOL0     O21603   5.520   0.460   4.336  0.4864  0.0014 -0.1841
  161MOL0     C21604   5.650   0.484   4.296 -0.7785 -0.1973  0.1140
  161MOL0     C21605   5.708   0.612   4.276 -0.2687  0.2758 -0.1891
  161MOL0     C21606   5.828   0.627   4.211 -0.4956  0.2323 -0.3692
  161MOL0     C21607   5.910   0.518   4.190 -0.1109 -0.6976  0.0539
  161MOL0     O21608   6.027   0.546   4.125 -0.1241 -0.5019 -0.4205
  161MOL0     C21609   6.143   0.483   4.184 -0.2821  0.1779  0.4331
  161MOL0     C21610   6.234   0.599   4.212 -0.2867 -0.8225 -1.2311
  161MOL0     C21611   6.378   0.564   4.255  0.8886  0.0605  0.4117
  161MOL0     C21612   6.456   0.503   4.141  0.1813  0.7927 -0.7169
  161MOL0     C21613   6.603   0.489   4.176 -0.2053  0.3875 -0.4721
  161MOL0     C21614   6.674   0.446   4.046 -0.1019 -0.7037 -0.4615
  161MOL0     C21615   6.821   0.414   4.056  0.7555 -0.8614  0.1791
  161MOL0     C21616   6.899   0.523   4.128  0.1284  0.2538 -0.0077
  161MOL0     N21617   7.024   0.478   4.188  1.1950  0.1828  0.1372
  161MOL0     C21618   7.139   0.540   4.163  0.2485 -0.0066  0.5552
  161MOL0     C21619   7.235   0.488   4.249 -0.7484 -0.4871  0.5614
  161MOL0     C21620   7.367   0.544   4.281  1.0300  0.5839  0.6601
  161MOL0     C21621   7.474   0.440   4.330 -0.2960  1.1306 -0.1601
  161MOL0     C21622   7.594   0.512   4.383  0.1143  0.1348 -0.0172
  161MOL0     C21623   7.724   0.429   4.399  0.0243  0.6143  0.0546
  161MOL0     O21624   7.787   0.398   4.270  0.9869 -0.2604  0.0225
  161MOL0     C21625   7.885   0.305   4.281 -0.4627  0.3735 -1.0150
  161MOL0     C21626   7.938   0.256   4.404 -1.0699  0.3094 -1.2840
  161MOL0     C21627   8.056   0.172   4.402  0.4791 -0.2772  0.1096
  161MOL0     C21628   8.113   0.139   4.279  0.4057  1.2499 -0.2838
  161MOL0     C21629   8.239   0.072   4.275  0.4858  0.2077 -0.5482
  161MOL0     O21630   8.340   0.128   4.192 -0.8938  0.2081 -0.2508
  161MOL0     C21631   8.446   0.050   4.169 -0.6051 -0.0610  0.0421
  161MOL0     C21632   8.578   0.086   4.220  0.0576 -0.1811  0.4471
  161MOL0     C21633   8.696   0.014   4.195  0.3908 -0.0036 -0.0467
  161MOL0     C21634   8.686  -0.090   4.098 -0.7972 -0.3746 -0.5107
  161MOL0     O21635   8.789  -0.178   4.083 -0.2369 -0.0759  0.1283
  161MOL0     C21636   8.923  -0.137   4.114 -0.2506 -1.0589 -0.1662
  161MOL0     C21637   8.973  -0.019   4.036 -0.3503  0.0547  0.2778
  161MOL0     C21638   9.087   0.058   4.103  0.0338 -0.4147 -0.4881
  161MOL0     C21639   9.132   0.163   4.004 -0.0049  0.0307 -0.9453
  161MOL0     C21640   9.245   0.255   4.060  0.6239  0.4389  0.4215
  161MOL0     C21641   9.258   0.392   4.002 -0.3029 -0.5970  0.0518
  161MOL0     C21642   9.160   0.488   4.077  0.6429 -0.2844 -0.4377
  161MOL0     C21643   9.154   0.638   4.036 -0.1139 -0.2759 -1.3044
  161MOL0    Cl21644   9.092   0.647   3.872  0.0046 -0.5238  0.1550
  161MOL0     C21645   8.564  -0.119   4.034  0.4903  0.2870 -0.4772
  161MOL0     C21646   8.440  -0.054   4.073 -0.1150 -0.2791 -0.8882
  161MOL0     O21647   8.257  -0.025   4.348 -0.7424 -0.2933  0.3094
  161MOL0     C21648   8.053   0.187   4.160 -0.3521  0.6287  0.4040
  161MOL0     C21649   7.937   0.269   4.166  0.9314  0.4686  1.3375
  161MOL0     N21650   7.173   0.400   4.327 -0.0631 -0.1509 -0.0233
  161MOL0     N21651   7.043   0.395   4.300  0.1420  0.1871 -0.2623
  161MOL0     C21652   5.853   0.389   4.201 -0.0676 -0.1687 -0.3941
  161MOL0     C21653   5.725   0.375   4.261  1.0246  0.0534  0.0521
  161MOL0     C21654   5.345   0.405   4.496  0.1451  0.3171  0.2706
  161MOL0     C21655   5.316   0.300   4.586 -0.2211 -0.2033  0.7086
  161MOL0     C21656   5.184   0.277   4.625 -0.5234 -0.7642 -0.1793
  161MOL0     C21657   5.079   0.347   4.575 -0.0377 -0.0605 -1.0465
  161MOL0     O21658   4.945   0.325   4.602  0.0113  0.5377 -0.9347
  161MOL0     C21659   4.902   0.256   4.724 -0.4056  0.1019 -0.2583
  161MOL0     C21660   4.753   0.269   4.736  0.3391  0.0333 -1.2817
  161MOL0     C21661   4.698   0.178   4.845  0.4637  0.1721 -0.2273
  161MOL0     C21662   4.552   0.177   4.859 -0.6948  0.2352 -0.2307
  161MOL0     C21663   4.479   0.126   4.743 -0.5414 -0.2410  0.1762
  161MOL0     C21664   4.427   0.095   4.636 -0.1780  0.4046  0.2934
  161MOL0     C21665   5.098   0.436   4.473 -0.0793 -1.0460  0.4123
  161MOL0     C21666   5.232   0.476   4.442 -0.4551 -0.2580  0.5388
  161MOL0     C21667   5.244   0.583   4.346 -0.2416 -0.0889  0.0096
  161MOL0     H21668   5.640   0.694   4.293  0.7678  1.8327 -2.9446
  161MOL0     H21669   5.858   0.729   4.190 -1.4029  0.7464  0.7159
  161MOL0     H21670   6.127   0.433   4.280 -0.3413  1.4097  1.0782
  161MOL0     H21671   6.194   0.411   4.119 -0.2346  0.7745 -0.1983
  161MOL0     H21672   6.189   0.656   4.294 -0.1734  1.0453 -2.4237
  161MOL0     H21673   6.246   0.661   4.123 -0.2022  0.9465 -0.0428
  161MOL0     H21674   6.374   0.494   4.339  1.9435 -3.1198 -1.9663
  161MOL0     H21675   6.437   0.649   4.290  2.0286 -0.3696 -0.3943
  161MOL0     H21676   6.414   0.403   4.124  0.2616  0.0379  2.7534
  161MOL0     H21677   6.436   0.557   4.048 -3.5266 -0.5217 -0.8634
  161MOL0     H21678   6.646   0.584   4.210 -1.6115  1.6888 -2.1059
  161MOL0     H21679   6.621   0.420   4.258 -1.9043  0.0760 -0.3402
  161MOL0     H21680   6.631   0.361   3.992  1.6742 -1.3189 -1.0085
  161MOL0     H21681   6.652   0.533   3.984  1.6454 -0.4863 -0.8283
  161MOL0     H21682   6.859   0.406   3.954  0.8034  2.0769 -0.1078
  161MOL0     H21683   6.830   0.312   4.095  1.3039 -0.3850  1.3528
  161MOL0     H21684   6.935   0.597   4.057  0.4436 -1.2570 -1.4895
  161MOL0     H21685   6.848   0.575   4.210  1.6615 -1.7254  2.3368
  161MOL0     H21686   7.156   0.624   4.096  0.4977 -0.6556 -0.2074
  161MOL0     H21687   7.410   0.603   4.200  2.4713 -1.9183 -0.5488
  161MOL0     H21688   7.351   0.609   4.368 -2.7275 -1.3170  1.6193
  161MOL0     H21689   7.435   0.364   4.398  1.0090  0.8195  0.2486
  161MOL0     H21690   7.504   0.388   4.238 -1.5591 -2.3658  1.2188
  161MOL0     H21691   7.578   0.556   4.482  1.5051  0.1263  0.2264
  161MOL0     H21692   7.612   0.589   4.308  2.7497  3.2467  3.4297
  161MOL0     H21693   7.701   0.345   4.465  1.3857  1.6762  2.0013
  161MOL0     H21694   7.792   0.494   4.455 -1.6068  3.3316 -0.9466
  161MOL0     H21695   7.904   0.291   4.501 -0.7935 -1.6960 -0.4044
  161MOL0     H21696   8.096   0.145   4.499 -1.1059 -1.3260  0.4985
  161MOL0     H21697   8.582   0.178   4.279 -1.3805 -0.2732  0.7441
  161MOL0     H21698   8.782   0.039   4.256 -1.1622 -0.8479  2.6338
  161MOL0     H21699   8.940  -0.134   4.222  0.1788 -1.6695 -0.2101
  161MOL0     H21700   8.986  -0.223   4.090 -1.4245 -1.1896 -3.0944
  161MOL0     H21701   8.999  -0.036   3.931 -2.4915  0.9525 -0.4507
  161MOL0     H21702   8.888   0.050   4.029 -1.4575 -1.3577 -0.9165
  161MOL0     H21703   9.053   0.106   4.195 -0.1093  0.0304 -0.7701
  161MOL0     H21704   9.163  -0.015   4.133 -0.5564  0.2085  2.9395
  161MOL0     H21705   9.049   0.227   3.972 -0.9006 -1.2358 -1.2354
  161MOL0     H21706   9.174   0.113   3.916  0.1720  1.6705 -1.8311
  161MOL0     H21707   9.340   0.203   4.040 -1.0649 -2.9819  0.5342
  161MOL0     H21708   9.230   0.259   4.168  0.1212 -0.8382  0.4186
  161MOL0     H21709   9.362   0.422   4.015 -0.9865  2.1003 -0.2002
  161MOL0     H21710   9.240   0.399   3.894  2.1343  1.9167 -0.2973
  161MOL0     H21711   9.170   0.486   4.185  1.3245  2.6226 -0.3524
  161MOL0     H21712   9.056   0.456   4.061  0.9352 -2.5205  1.6392
  161MOL0     H21713   9.080   0.692   4.096  0.7768 -1.1725  0.6779
  161MOL0     H21714   9.252   0.685   4.044  0.3626 -0.9913 -2.6174
  161MOL0     H21715   8.566  -0.199   3.961  0.4688  1.3308 -1.6527
  161MOL0     H21716   8.346  -0.083   4.029  0.3379 -0.7413 -1.5729
  161MOL0     H21717   8.084   0.146   4.065  0.3762 -0.1705  0.9724
  161MOL0     H21718   7.889   0.299   4.073  4.3101  2.2091 -0.0325
  161MOL0     H21719   5.916   0.303   4.181 -2.1836 -2.0160  0.4765
  161MOL0     H21720   5.684   0.276   4.279  1.4124  0.1905  1.8787
  161MOL0     H21721   5.395   0.233   4.615 -0.1728 -0.8176 -0.7354
  161MOL0     H21722   5.164   0.199   4.698 -0.4484 -0.6666 -0.0553
  161MOL0     H21723   4.943   0.304   4.813  0.8707 -0.3703 -0.5731
  161MOL0     H21724   4.932   0.151   4.730 -0.5843 -0.0004 -0.9995
  161MOL0     H21725   4.695   0.254   4.645 -1.3822 -1.4694 -0.0227
  161MOL0     H21726   4.737   0.373   4.766 -1.2789 -0.7821  0.9509
  161MOL0     H21727   4.744   0.194   4.944  0.4545 -0.7996 -0.0615
  161MOL0     H21728   4.734   0.083   4.807  0.1035 -0.1437  0.2098
  161MOL0     H21729   4.524   0.112   4.943 -0.6907 -0.0630 -0.4596
  161MOL0     H21730   4.513   0.278   4.874 -1.3266  0.4459 -2.8606
  161MOL0     H21731   4.389   0.062   4.542  2.1846 -1.7859  0.0013
  161MOL0     H21732   5.014   0.469   4.412  0.5176 -0.6998 -0.2396
  161MOL0     H21733   5.320   0.655   4.377  0.2898 -1.3381  1.7791
  161MOL0     H21734   5.254   0.557   4.240  1.3525  0.2495  0.0411
  161MOL0     H21735   5.156   0.647   4.348  0.2202  0.5526 -0.0196
  162MOL0     O21736   0.357   6.876   6.673  1.2603 -0.3353  0.5158
  162MOL0     C21737   0.330   6.757   6.645  0.1737  0.0614 -0.0257
  162MOL0     O21738   0.222   6.713   6.576 -0.0654 -0.5043 -0.7286
  162MOL0     C21739   0.111   6.800   6.548 -0.7778  0.2439 -1.9593
  162MOL0     C21740   0.135   6.919   6.477 -0.4317 -0.1508  0.1104
  162MOL0     C21741   0.026   7.015   6.470 -0.5670 -0.0316  0.8004
  162MOL0     C21742  -0.096   6.985   6.528 -0.2696  0.1698  0.1110
  162MOL0     O21743  -0.186   7.087   6.513  0.1135  0.0379  0.4258
  162MOL0     C21744  -0.308   7.078   6.591 -0.6301  0.7690  0.0853
  162MOL0     C21745  -0.416   7.009   6.509 -0.0430  0.9435  0.4165
  162MOL0     C21746  -0.540   6.993   6.593  0.3719 -0.0231  0.5561
  162MOL0     C21747  -0.660   6.945   6.512  0.0444 -0.1844 -0.1355
  162MOL0     C21748  -0.778   6.930   6.607 -0.0590 -0.5610  0.4752
  162MOL0     C21749  -0.898   6.889   6.525  0.0787 -0.3877 -0.3751
  162MOL0     C21750  -1.011   6.833   6.606  0.4671  0.6802  0.3392
  162MOL0     C21751  -1.107   6.757   6.517  0.5349  0.4682 -0.0640
  162MOL0     N21752  -1.191   6.844   6.438 -0.1650  0.1580 -0.0369
  162MOL0     C21753  -1.279   6.936   6.493 -0.6201 -0.5188  0.9916
  162MOL0     C21754  -1.366   6.964   6.391 -0.3937  0.0556 -0.1069
  162MOL0     C21755  -1.491   7.055   6.382 -0.1356  0.8894 -0.0787
  162MOL0     C21756  -1.463   7.181   6.467  0.8925 -0.1569 -0.4639
  162MOL0     C21757  -1.566   7.296   6.463  1.2177  0.2197  0.5446
  162MOL0     C21758  -1.555   7.382   6.582 -0.2101 -0.7239 -0.5526
  162MOL0     O21759  -1.480   7.495   6.536 -0.5737  0.5333  0.5577
  162MOL0     C21760  -1.394   7.551   6.630  0.4905 -0.0461  0.7749
  162MOL0     C21761  -1.339   7.672   6.582 -0.6296 -0.1364 -0.1649
  162MOL0     C21762  -1.240   7.737   6.651 -0.7634  0.2635 -0.5904
  162MOL0     C21763  -1.204   7.694   6.786 -0.2371  0.2282 -0.1796
  162MOL0     C21764  -1.093   7.761   6.859  0.2918 -0.3273  1.0574
  162MOL0     O21765  -1.053   7.690   6.966  0.0066 -0.3484  0.8813
  162MOL0     C21766  -0.920   7.712   7.011  0.8856 -0.1828  0.0166
  162MOL0     C21767  -0.814   7.620   6.989  0.3469 -0.2706  0.9711
  162MOL0     C21768  -0.686   7.660   7.026  0.0336 -0.1783 -0.6213
  162MOL0     C21769  -0.667   7.775   7.094 -0.1934  0.4036 -1.0935
  162MOL0     O21770  -0.544   7.830   7.131  0.0145  0.0710 -0.0976
  162MOL0     C21771  -0.422   7.739   7.123 -0.1354 -0.9981 -0.1796
  162MOL0     C21772  -0.293   7.817   7.172 -0.9547 -0.0547 -0.3182
  162MOL0     C21773  -0.288   7.971   7.182  0.0058 -0.3566  0.1797
  162MOL0     C21774  -0.151   8.025   7.205 -0.0511 -0.3568 -0.0653
  162MOL0     C21775  -0.135   8.167   7.150  0.1076 -0.4626 -0.9596
  162MOL0     C21776  -0.213   8.276   7.229 -0.8572 -0.2007  0.4406
  162MOL0     C21777  -0.129   8.359   7.319  0.1384 -0.5873  0.6461
  162MOL0     C21778  -0.214   8.449   7.411  0.1256 -1.1138 -0.4909
  162MOL0    Cl21779  -0.096   8.520   7.522  0.1658  0.3780 -0.4244
  162MOL0     C21780  -0.769   7.854   7.128  0.0172 -0.3628 -0.2181
  162MOL0     C21781  -0.901   7.823   7.091 -0.2277 -0.9869  0.1862
  162MOL0     O21782  -1.032   7.857   6.808  0.1962 -0.0836  0.3821
  162MOL0     C21783  -1.272   7.580   6.832 -0.3543 -0.0605  0.3457
  162MOL0     C21784  -1.363   7.509   6.761 -0.0416  0.1435  0.8129
  162MOL0     N21785  -1.327   6.894   6.277  0.4074  0.1784  0.2486
  162MOL0     N21786  -1.221   6.822   6.308  0.7004 -0.8340  0.5117
  162MOL0     C21787  -0.118   6.857   6.590  0.7251  0.0382  0.7086
  162MOL0     C21788  -0.016   6.764   6.597 -0.4226 -0.2788 -0.2243
  162MOL0     C21789   0.420   6.651   6.700  0.2085 -0.2824  0.3262
  162MOL0     C21790   0.374   6.519   6.702  1.0080 -0.0448  0.4806
  162MOL0     C21791   0.437   6.410   6.754 -0.5091 -0.4663 -0.0391
  162MOL0     C21792   0.559   6.435   6.817  1.4973 -0.5177 -0.0401
  162MOL0     O21793   0.618   6.335   6.874  0.2828  0.2846 -0.0311
  162MOL0     C21794   0.753   6.340   6.905 -0.1357  0.2436  0.1305
  162MOL0     C21795   0.785   6.225   7.002 -0.4271 -0.3953  0.2765
  162MOL0     C21796   0.741   6.089   6.950  0.9652 -0.3503 -0.1531
  162MOL0     C21797   0.817   6.058   6.820  0.1720  0.4160  0.3592
  162MOL0     C21798   0.961   6.087   6.817  0.3000  0.1035  0.5457
  162MOL0     C21799   1.078   6.113   6.809  1.0620 -0.0493  0.7992
  162MOL0     C21800   0.610   6.567   6.822  0.6197  0.6488 -0.2566
  162MOL0     C21801   0.547   6.677   6.762  0.6356 -0.6708 -0.0926
  162MOL0     C21802   0.622   6.807   6.746  0.1985  0.1374  0.6490
  162MOL0     H21803   0.236   6.937   6.444 -0.5759 -1.3498 -1.0535
  162MOL0     H21804   0.045   7.117   6.439 -2.6439 -0.0692 -0.7654
  162MOL0     H21805  -0.302   7.040   6.694  0.6794  2.5968  0.7175
  162MOL0     H21806  -0.338   7.182   6.603  3.1912  1.9481  0.8154
  162MOL0     H21807  -0.370   6.919   6.468  0.3468  1.0408  0.6392
  162MOL0     H21808  -0.451   7.074   6.428  0.8601 -0.8124 -1.4790
  162MOL0     H21809  -0.561   7.087   6.646  1.1086  0.0248  0.7685
  162MOL0     H21810  -0.511   6.912   6.660 -0.9199 -0.9020  0.0768
  162MOL0     H21811  -0.683   7.024   6.441 -0.4657 -0.8486 -0.7148
  162MOL0     H21812  -0.641   6.850   6.462 -2.8270 -2.1885  2.2357
  162MOL0     H21813  -0.759   6.856   6.684 -0.8111 -0.6707  0.5691
  162MOL0     H21814  -0.795   7.023   6.662  2.7336  1.5448 -1.8730
  162MOL0     H21815  -0.945   6.976   6.479 -1.0394  0.4793  2.2339
  162MOL0     H21816  -0.859   6.812   6.458  2.0941  2.0903 -2.2232
  162MOL0     H21817  -1.068   6.907   6.663  0.7741  1.3487 -0.2032
  162MOL0     H21818  -0.967   6.761   6.676  0.5571  0.0437 -0.3666
  162MOL0     H21819  -1.048   6.699   6.446  2.9502 -2.0883  3.6838
  162MOL0     H21820  -1.170   6.695   6.582 -1.2719  1.8350 -0.4397
  162MOL0     H21821  -1.278   6.980   6.592 -2.9584 -1.7703  1.6461
  162MOL0     H21822  -1.505   7.068   6.275 -5.0040 -0.3689  0.1412
  162MOL0     H21823  -1.570   6.996   6.430  1.1898 -1.7709 -0.9779
  162MOL0     H21824  -1.449   7.141   6.567  1.2113 -1.1704 -0.8992
  162MOL0     H21825  -1.370   7.229   6.435  0.2223  2.7629  1.5575
  162MOL0     H21826  -1.669   7.259   6.470  0.5633  2.2360  3.1702
  162MOL0     H21827  -1.559   7.355   6.371 -0.4098  0.3732  0.4911
  162MOL0     H21828  -1.520   7.327   6.670 -2.2669  0.8358  1.3421
  162MOL0     H21829  -1.654   7.420   6.610 -0.2614 -1.3865  0.2285
  162MOL0     H21830  -1.357   7.701   6.479  3.0044 -1.2380 -1.2548
  162MOL0     H21831  -1.194   7.818   6.595 -2.9127  2.1275  0.1838
  162MOL0     H21832  -0.833   7.522   6.947  0.6925 -0.2990  0.8805
  162MOL0     H21833  -0.616   7.586   6.990 -1.4432 -1.3019 -1.3066
  162MOL0     H21834  -0.442   7.661   7.196  0.5054  0.5908  1.7882
  162MOL0     H21835  -0.404   7.699   7.023  4.6397 -4.4654  1.7056
  162MOL0     H21836  -0.288   7.781   7.275  2.4876 -1.3642 -0.8038
  162MOL0     H21837  -0.213   7.765   7.118 -2.6123 -1.8448 -1.1851
  162MOL0     H21838  -0.324   8.006   7.085  1.2087 -0.7575 -0.4223
  162MOL0     H21839  -0.356   8.003   7.262  1.3798 -0.5302  1.4632
  162MOL0     H21840  -0.076   7.969   7.148  0.7010  1.1980 -0.6553
  162MOL0     H21841  -0.124   8.020   7.311  1.0069  2.7716 -0.1088
  162MOL0     H21842  -0.172   8.172   7.048 -2.5295 -0.7794 -0.0898
  162MOL0     H21843  -0.029   8.195   7.146  0.1307 -0.7218 -3.0398
  162MOL0     H21844  -0.258   8.346   7.157 -0.7859 -0.2046  0.3925
  162MOL0     H21845  -0.297   8.236   7.287 -0.4566 -1.3330  0.2490
  162MOL0     H21846  -0.057   8.413   7.257 -1.7032  0.3066 -0.8288
  162MOL0     H21847  -0.069   8.293   7.382  1.2859  1.4331  1.8108
  162MOL0     H21848  -0.269   8.521   7.350  1.1415 -1.6978 -2.1484
  162MOL0     H21849  -0.288   8.383   7.457 -1.2714 -0.4781 -1.7455
  162MOL0     H21850  -0.756   7.937   7.196 -0.0373 -1.3316  0.9973
  162MOL0     H21851  -0.983   7.887   7.124  1.3035  1.3294 -0.2481
  162MOL0     H21852  -1.248   7.543   6.931 -2.7060 -1.3688  0.4951
  162MOL0     H21853  -1.423   7.429   6.803 -2.1258  0.2123 -1.7608
  162MOL0     H21854  -0.217   6.827   6.622  1.3215  0.0141  2.6401
  162MOL0     H21855  -0.020   6.665   6.640  0.5773 -1.0187 -1.7314
  162MOL0     H21856   0.283   6.495   6.647  0.9974  0.1633  0.4056
  162MOL0     H21857   0.387   6.314   6.748  0.2644 -0.8495 -0.6067
  162MOL0     H21858   0.786   6.424   6.967  1.5969 -0.4622  0.2382
  162MOL0     H21859   0.817   6.321   6.818  0.1505  2.6009 -0.2207
  162MOL0     H21860   0.725   6.246   7.091  1.4365  0.9656  1.2904
  162MOL0     H21861   0.890   6.229   7.033 -0.9363 -0.3345  2.1391
  162MOL0     H21862   0.634   6.083   6.928  0.9208  1.0550 -0.4352
  162MOL0     H21863   0.755   6.014   7.028 -2.7781 -0.5881  0.4939
  162MOL0     H21864   0.798   5.952   6.801 -1.0494  0.8928 -1.3448
  162MOL0     H21865   0.765   6.100   6.733  2.9856 -0.5875 -1.9481
  162MOL0     H21866   1.174   6.154   6.785  0.1966  3.4644  2.6631
  162MOL0     H21867   0.709   6.574   6.865  0.6807 -2.0894  0.2129
  162MOL0     H21868   0.631   6.831   6.639  1.1006 -0.4022  0.5944
  162MOL0     H21869   0.564   6.884   6.797 -1.6058  0.3794 -1.5709
  162MOL0     H21870   0.719   6.817   6.794  0.8949 -2.0393 -0.1637
  163MOL0     O21871   6.116   8.574   5.046  0.5367  0.4071 -0.8122
  163MOL0     C21872   6.060   8.657   5.120  0.3434 -0.4396  0.3666
  163MOL0     O21873   6.088   8.787   5.119 -0.1445  0.1426  0.0846
  163MOL0     C21874   6.170   8.836   5.011 -0.3791  0.1261 -0.4912
  163MOL0     C21875   6.310   8.856   5.037  0.0028  0.4418  0.4730
  163MOL0     C21876   6.400   8.889   4.932  0.4290  0.0836 -0.3990
  163MOL0     C21877   6.350   8.906   4.798 -0.4105 -0.1986 -0.4180
  163MOL0     O21878   6.441   8.918   4.691 -0.1620  0.1382  0.1848
  163MOL0     C21879   6.527   8.811   4.671  0.3324  0.0163  0.5175
  163MOL0     C21880   6.667   8.870   4.694 -0.2145 -0.0256 -0.0150
  163MOL0     C21881   6.771   8.817   4.594 -0.3878 -0.5246  0.6359
  163MOL0     C21882   6.899   8.902   4.591 -0.4603  0.0496  0.0573
  163MOL0     C21883   6.983   8.851   4.478  0.0342  0.1881 -0.0963
  163MOL0     C21884   7.121   8.916   4.486 -0.6508 -0.1803 -0.1140
  163MOL0     C21885   7.188   8.899   4.349 -0.4648  0.7282  0.6633
  163MOL0     C21886   7.323   8.960   4.332 -0.5914  0.0157  0.2977
  163MOL0     N21887   7.409   8.955   4.451  0.1966  0.3164 -0.3714
  163MOL0     C21888   7.434   9.063   4.540 -0.7565 -0.2679 -0.0462
  163MOL0     C21889   7.512   9.006   4.639  0.6236  0.3495  0.4733
  163MOL0     C21890   7.583   9.078   4.745  0.0472  1.0821  0.0193
  163MOL0     C21891   7.714   9.128   4.695 -0.5679  0.3007  0.2158
  163MOL0     C21892   7.803   9.149   4.818 -0.5143  0.0124 -0.1553
  163MOL0     C21893   7.940   9.205   4.789  0.2571  0.5836  0.3502
  163MOL0     O21894   8.016   9.117   4.712 -0.1556 -0.1662  0.2522
  163MOL0     C21895   8.154   9.134   4.704  0.0027  0.5789  0.4154
  163MOL0     C21896   8.230   9.091   4.811 -0.2902 -0.5430 -0.2253
  163MOL0     C21897   8.370   9.110   4.806  0.3923  0.0258  0.0454
  163MOL0     C21898   8.429   9.182   4.701  0.0723 -0.2639  0.3259
  163MOL0     C21899   8.575   9.217   4.708 -0.0861  0.5474 -0.0762
  163MOL0     O21900   8.652   9.159   4.805 -0.1642  0.1240 -0.0732
  163MOL0     C21901   8.784   9.169   4.785 -0.1700 -0.3372 -0.1517
  163MOL0     C21902   8.853   9.258   4.864  0.3553 -0.0639 -0.6854
  163MOL0     C21903   8.992   9.274   4.853 -0.4950  0.5270  0.0757
  163MOL0     C21904   9.064   9.196   4.759  0.3589  0.2719 -0.1732
  163MOL0     O21905   9.196   9.211   4.735  0.3164  0.4677  0.6941
  163MOL0     C21906   9.267   9.321   4.791 -0.1878 -0.4404 -0.1009
  163MOL0     C21907   9.410   9.326   4.736  0.2400 -0.3684 -0.3803
  163MOL0     C21908   9.499   9.421   4.820  0.5558 -0.2661  0.1604
  163MOL0     C21909   9.632   9.445   4.752 -0.0548 -0.0594 -0.0213
  163MOL0     C21910   9.632   9.581   4.670 -0.7426 -0.1302  0.7270
  163MOL0     C21911   9.769   9.584   4.599  0.4680  0.8294  0.1051
  163MOL0     C21912   9.790   9.717   4.526  0.4372  0.5702 -0.1835
  163MOL0     C21913   9.875   9.706   4.407 -0.1990 -0.7524 -0.3665
  163MOL0    Cl21914  10.037   9.676   4.451 -0.2887  0.5272  0.2948
  163MOL0     C21915   8.994   9.107   4.677  0.5200  0.0344  0.0224
  163MOL0     C21916   8.854   9.090   4.692 -0.1363  0.6617  0.3612
  163MOL0     O21917   8.624   9.290   4.615 -0.2634 -0.5065 -0.1554
  163MOL0     C21918   8.347   9.208   4.586 -0.2740  0.6053  0.0769
  163MOL0     C21919   8.209   9.194   4.598  0.7732  0.3546 -0.2672
  163MOL0     N21920   7.529   8.870   4.610  1.0235 -0.5273  0.0048
  163MOL0     N21921   7.464   8.844   4.495  0.5714 -0.2124 -0.4992
  163MOL0     C21922   6.209   8.891   4.782  0.3569 -0.8244  0.9808
  163MOL0     C21923   6.122   8.862   4.885  0.1726  0.2310 -0.0317
  163MOL0     C21924   5.943   8.623   5.215 -0.2338  0.3160 -0.1699
  163MOL0     C21925   5.904   8.708   5.312  0.1431 -0.2092  0.2003
  163MOL0     C21926   5.801   8.672   5.398 -0.1992  0.0664 -0.4795
  163MOL0     C21927   5.746   8.544   5.402  1.1736 -0.0006 -0.7936
  163MOL0     O21928   5.665   8.504   5.498  0.6703 -0.8826  0.1034
  163MOL0     C21929   5.536   8.566   5.495  0.2969 -0.6418 -0.1931
  163MOL0     C21930   5.451   8.507   5.378  0.3398  0.5314 -0.3046
  163MOL0     C21931   5.379   8.365   5.410  0.3627 -0.7197 -0.0950
  163MOL0     C21932   5.476   8.250   5.421 -0.7462 -0.0230 -0.2371
  163MOL0     C21933   5.503   8.210   5.286  0.3974 -0.1579  0.2545
  163MOL0     C21934   5.506   8.169   5.174 -1.0739  0.5654 -0.0412
  163MOL0     C21935   5.788   8.453   5.306 -0.2395 -0.3141  0.6011
  163MOL0     C21936   5.879   8.494   5.210 -0.9457  0.3911 -0.1711
  163MOL0     C21937   5.909   8.384   5.104 -0.0827 -0.0342 -0.1934
  163MOL0     H21938   6.357   8.833   5.132  3.8942 -3.0881 -1.9533
  163MOL0     H21939   6.504   8.918   4.945  0.2915 -0.7427  3.6914
  163MOL0     H21940   6.500   8.726   4.734 -1.1422 -0.8516 -1.1923
  163MOL0     H21941   6.510   8.796   4.564 -2.3212  3.5668  0.2486
  163MOL0     H21942   6.699   8.849   4.796 -2.1407 -0.4694  0.5370
  163MOL0     H21943   6.664   8.978   4.677  0.0717 -0.3013 -2.1688
  163MOL0     H21944   6.735   8.784   4.496  1.6337  0.0984 -0.3752
  163MOL0     H21945   6.806   8.721   4.633 -0.0590 -1.6860 -2.2631
  163MOL0     H21946   6.877   9.009   4.586  0.6185  0.3042  0.5078
  163MOL0     H21947   6.953   8.887   4.685  0.5822 -0.0063 -0.5365
  163MOL0     H21948   7.002   8.744   4.489 -0.3597  0.0880 -0.3642
  163MOL0     H21949   6.928   8.868   4.385  1.1681 -0.1333 -0.8461
  163MOL0     H21950   7.096   9.022   4.502 -3.2349 -0.9490  1.6807
  163MOL0     H21951   7.183   8.870   4.564  1.0017 -0.5523 -1.5879
  163MOL0     H21952   7.130   8.949   4.271  1.6440  3.4657  0.6742
  163MOL0     H21953   7.205   8.794   4.325  1.4065  1.6634 -2.9316
  163MOL0     H21954   7.370   8.920   4.241  0.8138 -3.6785  2.4106
  163MOL0     H21955   7.318   9.067   4.311  2.0941  0.1573  0.0988
  163MOL0     H21956   7.414   9.170   4.543  0.0102 -0.1164 -0.3105
  163MOL0     H21957   7.515   9.160   4.773 -2.9892 -0.8227 -1.2140
  163MOL0     H21958   7.600   9.017   4.834  0.8978  3.1124  1.3222
  163MOL0     H21959   7.764   9.056   4.629 -0.0711  0.0259  0.8770
  163MOL0     H21960   7.692   9.220   4.640  0.5367 -1.1677 -2.9860
  163MOL0     H21961   7.809   9.053   4.871 -0.7277 -0.2950 -0.6775
  163MOL0     H21962   7.758   9.229   4.878  1.7751  1.2407  0.0353
  163MOL0     H21963   7.994   9.234   4.879 -1.4811  1.8067  1.0553
  163MOL0     H21964   7.934   9.293   4.725 -0.6696  0.4459  0.2334
  163MOL0     H21965   8.186   9.030   4.889 -1.6937 -0.8390 -1.2053
  163MOL0     H21966   8.427   9.082   4.893 -0.7108 -2.9298 -0.0693
  163MOL0     H21967   8.804   9.308   4.947  3.4349 -0.4393  1.5360
  163MOL0     H21968   9.034   9.337   4.931  1.0563 -2.9426  2.3198
  163MOL0     H21969   9.209   9.411   4.771 -2.6399 -1.7946  0.4977
  163MOL0     H21970   9.284   9.318   4.899  1.2083  3.8967 -0.0098
  163MOL0     H21971   9.454   9.228   4.758  0.0568 -0.2117  0.7340
  163MOL0     H21972   9.406   9.361   4.633 -3.0737  6.0518  1.3609
  163MOL0     H21973   9.454   9.520   4.827 -0.9292 -0.7085 -1.9903
  163MOL0     H21974   9.512   9.373   4.918 -1.4621  0.9546  1.0917
  163MOL0     H21975   9.651   9.374   4.671  0.8177  1.9270 -1.6661
  163MOL0     H21976   9.707   9.446   4.831  0.8771  0.7252 -0.8807
  163MOL0     H21977   9.632   9.669   4.736  2.2423 -0.0181  0.7362
  163MOL0     H21978   9.559   9.595   4.591 -0.8242  0.3823  0.8887
  163MOL0     H21979   9.838   9.575   4.683 -0.6584 -0.0959  0.9577
  163MOL0     H21980   9.779   9.503   4.527  0.8339  1.0748 -0.1293
  163MOL0     H21981   9.818   9.798   4.595  0.6680 -0.6678  1.2252
  163MOL0     H21982   9.693   9.743   4.484  0.0284  0.1381  0.4711
  163MOL0     H21983   9.842   9.629   4.336 -0.8050 -1.4123  0.6101
  163MOL0     H21984   9.868   9.806   4.362 -0.1867  0.5450  2.3281
  163MOL0     H21985   9.050   9.068   4.593 -0.9757 -1.1001 -0.4921
  163MOL0     H21986   8.797   9.034   4.619 -2.0686  5.0073 -1.8876
  163MOL0     H21987   8.394   9.246   4.496  0.7981 -1.7961 -0.4552
  163MOL0     H21988   8.137   9.206   4.518 -0.3910 -3.1398  0.0696
  163MOL0     H21989   6.163   8.921   4.689 -1.1066 -1.1853  1.5657
  163MOL0     H21990   6.017   8.847   4.862  0.4267 -2.3354  0.1706
  163MOL0     H21991   5.953   8.803   5.333 -3.1037  1.3531  1.2932
  163MOL0     H21992   5.781   8.751   5.469  0.8243 -0.9513  1.0071
  163MOL0     H21993   5.543   8.674   5.484 -0.2474 -0.1558  3.2795
  163MOL0     H21994   5.489   8.549   5.592 -0.8670  1.7007 -0.2831
  163MOL0     H21995   5.502   8.509   5.281  0.4340 -4.1541 -0.5756
  163MOL0     H21996   5.368   8.576   5.366  1.4732  1.6016 -2.6466
  163MOL0     H21997   5.303   8.345   5.334 -1.1419  2.7075  0.3115
  163MOL0     H21998   5.326   8.364   5.506 -1.2252 -0.4217 -0.9319
  163MOL0     H21999   5.566   8.285   5.472 -0.6016  2.5364 -2.0432
  163MOL0     H22000   5.435   8.170   5.484  0.9311 -0.5191  0.2877
  163MOL0     H22001   5.492   8.127   5.077  4.2537 -0.4638 -0.6734
  163MOL0     H22002   5.745   8.353   5.308  0.7437 -0.7425  0.7348
  163MOL0     H22003   5.864   8.288   5.130  0.4918 -0.1070  0.5772
  163MOL0     H22004   5.871   8.426   5.010 -1.3342 -0.8439 -0.0598
  163MOL0     H22005   6.013   8.354   5.089 -1.0913 -5.7365  1.9004
  164MOL0     O22006   1.595   5.189   1.549 -0.7375  0.0411  0.2130
  164MOL0     C22007   1.681   5.117   1.602  0.3833 -0.2522  0.1096
  164MOL0     O22008   1.808   5.138   1.621  0.8028  0.0830 -0.0143
  164MOL0     C22009   1.856   5.257   1.578  0.3581  0.4418  0.5116
  164MOL0     C22010   1.875   5.358   1.667 -0.0176 -0.3173  0.4514
  164MOL0     C22011   1.910   5.484   1.617  0.4485 -0.0698 -0.6879
  164MOL0     C22012   1.942   5.507   1.482 -0.2267  0.3701  0.1643
  164MOL0     O22013   1.992   5.617   1.421 -0.2296  0.5730  0.1054
  164MOL0     C22014   2.019   5.737   1.500 -0.0361 -0.1286  0.3777
  164MOL0     C22015   2.040   5.848   1.403 -0.1297 -0.3882 -0.1176
  164MOL0     C22016   1.938   5.863   1.293  0.0026 -0.4255  0.5503
  164MOL0     C22017   1.941   6.010   1.239  0.0928  0.3578 -0.4990
  164MOL0     C22018   1.823   6.043   1.153  0.2994 -0.2549  1.0695
  164MOL0     C22019   1.676   6.030   1.213 -0.2208  0.2561  0.7266
  164MOL0     C22020   1.660   6.092   1.361 -0.3789  0.0963  0.6102
  164MOL0     C22021   1.545   6.040   1.443 -0.9809  0.3273 -1.2523
  164MOL0     N22022   1.561   5.896   1.481 -0.7580  0.6512  0.5252
  164MOL0     C22023   1.537   5.780   1.414 -0.0195  0.7276 -0.0433
  164MOL0     C22024   1.576   5.679   1.504  1.1383 -0.1481 -0.4204
  164MOL0     C22025   1.575   5.528   1.489  0.9300  0.5248 -0.1555
  164MOL0     C22026   1.447   5.461   1.419  0.4710 -0.7225  0.6646
  164MOL0     C22027   1.316   5.484   1.494 -0.4070 -1.2479 -0.8597
  164MOL0     C22028   1.203   5.388   1.458  0.8983 -0.2672  0.0901
  164MOL0     O22029   1.164   5.398   1.325 -0.2561 -0.2303  0.1467
  164MOL0     C22030   1.042   5.331   1.305  0.0078 -0.0103  0.0642
  164MOL0     C22031   0.926   5.405   1.335 -0.1520 -0.2117 -0.7315
  164MOL0     C22032   0.805   5.336   1.330  0.0796  0.7332  0.7375
  164MOL0     C22033   0.798   5.206   1.290  0.1702 -0.1625  0.6904
  164MOL0     C22034   0.673   5.133   1.251  0.6918 -0.6669 -0.9651
  164MOL0     O22035   0.682   4.998   1.268  0.6375 -0.0733 -0.0484
  164MOL0     C22036   0.579   4.924   1.213  0.0060 -0.4314  0.5157
  164MOL0     C22037   0.529   4.821   1.294  0.4703 -0.7692 -0.2760
  164MOL0     C22038   0.439   4.737   1.235 -0.3752 -0.3945 -0.0606
  164MOL0     C22039   0.386   4.748   1.101 -1.2784 -0.0583  0.0296
  164MOL0     O22040   0.286   4.675   1.052  0.1253  0.3744  0.0483
  164MOL0     C22041   0.327   4.589   0.946 -0.4728 -0.3371 -0.4589
  164MOL0     C22042   0.219   4.568   0.847  0.7740 -0.3292 -0.0054
  164MOL0     C22043   0.086   4.507   0.907 -0.5501 -0.8781  0.0984
  164MOL0     C22044  -0.021   4.516   0.800 -0.3308  0.5467  0.3472
  164MOL0     C22045  -0.164   4.461   0.833  0.2246  0.2364  0.2027
  164MOL0     C22046  -0.254   4.462   0.710  0.2134 -0.4759  0.4127
  164MOL0     C22047  -0.286   4.603   0.651  0.5368 -1.2528 -0.0175
  164MOL0     C22048  -0.359   4.600   0.509  0.5047 -0.2572  0.0893
  164MOL0    Cl22049  -0.266   4.516   0.376 -0.0376  0.0509 -0.5584
  164MOL0     C22050   0.446   4.852   1.029  0.4853  0.7565  0.7740
  164MOL0     C22051   0.530   4.944   1.080 -0.2581  0.2775  0.6303
  164MOL0     O22052   0.571   5.197   1.218 -0.3272  0.1751 -0.0266
  164MOL0     C22053   0.917   5.133   1.274 -0.6972 -0.3938 -0.2621
  164MOL0     C22054   1.037   5.194   1.281 -0.1242 -0.2929 -0.6131
  164MOL0     N22055   1.613   5.743   1.616 -0.2166 -0.0378 -1.3420
  164MOL0     N22056   1.614   5.870   1.600 -0.1232 -0.7078 -0.3620
  164MOL0     C22057   1.944   5.394   1.397 -0.5556 -0.6786 -0.1597
  164MOL0     C22058   1.900   5.277   1.441  0.0770  0.1302  0.4230
  164MOL0     C22059   1.618   4.992   1.662 -0.0092  1.3737 -0.2808
  164MOL0     C22060   1.683   4.901   1.752 -0.7086 -0.6599 -0.1918
  164MOL0     C22061   1.626   4.785   1.806  0.6651  0.2268 -0.7791
  164MOL0     C22062   1.495   4.761   1.769 -0.3728  0.0451  0.1157
  164MOL0     O22063   1.438   4.642   1.815  0.1203 -0.4856  0.0532
  164MOL0     C22064   1.500   4.517   1.787 -0.2372 -0.0508 -0.8911
  164MOL0     C22065   1.525   4.421   1.900  0.3914  1.0983 -0.0958
  164MOL0     C22066   1.582   4.495   2.023  0.0477  0.7415 -0.7760
  164MOL0     C22067   1.572   4.412   2.152  0.3192  0.2278  0.6387
  164MOL0     C22068   1.633   4.276   2.134  0.3958  0.9467  0.1136
  164MOL0     C22069   1.703   4.177   2.126  0.4423  0.3092  0.1825
  164MOL0     C22070   1.431   4.829   1.674 -0.5001  0.2853  0.6114
  164MOL0     C22071   1.484   4.952   1.615 -0.1816  0.4744  0.1459
  164MOL0     C22072   1.394   5.026   1.523 -0.5474  0.5571  0.2970
  164MOL0     H22073   1.868   5.335   1.773 -1.4997  3.2000  1.2439
  164MOL0     H22074   1.925   5.568   1.683 -2.5504  1.8401 -2.2325
  164MOL0     H22075   1.928   5.766   1.553 -0.7784  0.2259 -1.0357
  164MOL0     H22076   2.104   5.721   1.567 -1.5375 -1.6106  2.0248
  164MOL0     H22077   2.141   5.844   1.361 -0.5295  4.9694 -2.5005
  164MOL0     H22078   2.041   5.938   1.466 -0.2085 -0.4537 -0.0236
  164MOL0     H22079   1.836   5.847   1.329 -0.1580 -0.6452  0.0065
  164MOL0     H22080   1.960   5.787   1.217  0.8713  0.2062  0.1506
  164MOL0     H22081   1.948   6.079   1.323 -0.0327 -0.1846 -0.0348
  164MOL0     H22082   2.034   6.026   1.184  2.1590  1.0619  2.8709
  164MOL0     H22083   1.843   6.146   1.121  0.6891 -0.0232  2.0235
  164MOL0     H22084   1.822   5.979   1.064 -4.4447  0.4786  0.3491
  164MOL0     H22085   1.603   6.082   1.150  0.2755  2.0625  1.5813
  164MOL0     H22086   1.660   5.922   1.223  0.9606 -0.4835 -3.4128
  164MOL0     H22087   1.651   6.201   1.360  1.1895  0.2541 -0.0300
  164MOL0     H22088   1.750   6.081   1.423  0.5409 -0.4389 -0.7727
  164MOL0     H22089   1.535   6.100   1.534 -0.4263 -1.0366 -0.2459
  164MOL0     H22090   1.447   6.053   1.397 -1.8083  0.5350  0.4949
  164MOL0     H22091   1.503   5.753   1.314  0.0024 -0.0682  0.1618
  164MOL0     H22092   1.656   5.507   1.418 -2.5994 -3.7623 -3.5205
  164MOL0     H22093   1.576   5.474   1.585  2.1265  0.7810 -0.0052
  164MOL0     H22094   1.441   5.493   1.314 -1.7818 -1.3705  0.5412
  164MOL0     H22095   1.460   5.352   1.422 -2.0065 -1.0897  0.1316
  164MOL0     H22096   1.295   5.585   1.458  1.3773 -0.9176 -1.0447
  164MOL0     H22097   1.328   5.486   1.603  3.9237 -2.4766 -1.1315
  164MOL0     H22098   1.118   5.398   1.526 -0.0317 -0.7083 -0.9889
  164MOL0     H22099   1.247   5.289   1.467  2.7720  0.3956 -1.0995
  164MOL0     H22100   0.930   5.513   1.343 -1.5430 -0.2155  0.4400
  164MOL0     H22101   0.703   5.369   1.348 -0.3085 -1.1796  2.4924
  164MOL0     H22102   0.560   4.825   1.398  0.8522  1.8521 -0.4374
  164MOL0     H22103   0.402   4.658   1.299  0.6725  0.2370  1.3893
  164MOL0     H22104   0.412   4.632   0.891  1.1325  0.8921  2.7196
  164MOL0     H22105   0.353   4.494   0.994  1.4440 -0.0486 -0.8392
  164MOL0     H22106   0.186   4.663   0.805  0.5284 -0.8309 -0.9804
  164MOL0     H22107   0.246   4.502   0.764 -0.0402 -2.0511  1.0380
  164MOL0     H22108   0.102   4.400   0.928 -2.6935 -1.4742 -1.0040
  164MOL0     H22109   0.047   4.557   0.996 -1.0344  0.7829 -1.0108
  164MOL0     H22110   0.009   4.461   0.710 -0.5250 -0.1831  0.7260
  164MOL0     H22111  -0.034   4.623   0.782  1.7308  0.6650 -0.8226
  164MOL0     H22112  -0.207   4.511   0.921 -0.5735 -1.4267  0.8085
  164MOL0     H22113  -0.138   4.358   0.856  0.6808  0.3704  0.2922
  164MOL0     H22114  -0.196   4.418   0.628 -1.0666 -0.2366 -0.6645
  164MOL0     H22115  -0.351   4.412   0.724  0.7719 -1.3460  1.2961
  164MOL0     H22116  -0.197   4.664   0.631 -1.1503  1.1930 -0.5128
  164MOL0     H22117  -0.349   4.657   0.722  2.7926  0.4460  0.7949
  164MOL0     H22118  -0.456   4.551   0.514  0.0113  0.1645 -3.2094
  164MOL0     H22119  -0.370   4.707   0.485  0.5775 -0.4387 -0.8017
  164MOL0     H22120   0.429   4.868   0.922  1.5123  2.1598  0.7911
  164MOL0     H22121   0.573   5.017   1.012 -0.8601 -0.4579 -0.5776
  164MOL0     H22122   0.910   5.033   1.233  0.1487 -0.3455 -0.5413
  164MOL0     H22123   1.133   5.145   1.270 -0.3783 -1.1413  0.7232
  164MOL0     H22124   1.962   5.408   1.291 -0.0817 -0.8260 -0.1018
  164MOL0     H22125   1.884   5.197   1.370  1.1290  1.3990 -1.3129
  164MOL0     H22126   1.781   4.932   1.786 -2.2933  3.5163  1.1470
  164MOL0     H22127   1.669   4.717   1.879 -0.3380 -1.4701 -1.6909
  164MOL0     H22128   1.587   4.534   1.723  0.6553 -2.6710 -0.5152
  164MOL0     H22129   1.433   4.461   1.721  0.7932 -1.6465 -0.6432
  164MOL0     H22130   1.594   4.343   1.867 -1.2388  0.7011 -2.8158
  164MOL0     H22131   1.439   4.361   1.932  1.0621  0.1259 -0.0537
  164MOL0     H22132   1.535   4.587   2.059 -0.2978  0.0978  0.4768
  164MOL0     H22133   1.689   4.509   2.004  0.8863  0.3064  2.8531
  164MOL0     H22134   1.628   4.472   2.225  0.2318  1.8194 -0.5553
  164MOL0     H22135   1.467   4.408   2.182 -0.0047  0.7457 -0.3775
  164MOL0     H22136   1.758   4.089   2.100 -1.2706  0.5530 -5.7909
  164MOL0     H22137   1.331   4.795   1.648 -0.6530  0.5644  0.8310
  164MOL0     H22138   1.319   4.956   1.485  0.1027  0.3480 -0.6436
  164MOL0     H22139   1.340   5.116   1.552 -1.6643 -0.3271  1.0208
  164MOL0     H22140   1.452   5.056   1.435 -2.3884  0.1565 -1.1065
  165MOL0     O22141   0.457   0.418   3.282  0.2963  0.3213 -0.4456
  165MOL0     C22142   0.567   0.381   3.305 -0.1997  0.3920 -0.3156
  165MOL0     O22143   0.681   0.453   3.295 -0.1391  0.0006 -0.0274
  165MOL0     C22144   0.676   0.581   3.264  1.3802 -0.6632 -0.6332
  165MOL0     C22145   0.585   0.672   3.308  1.3251 -0.6948 -1.1042
  165MOL0     C22146   0.600   0.807   3.296  0.0723 -0.2339  0.7851
  165MOL0     C22147   0.713   0.854   3.219 -0.6761 -0.5091  0.0817
  165MOL0     O22148   0.746   0.987   3.189  0.3043 -0.3181 -0.5656
  165MOL0     C22149   0.661   1.094   3.249 -0.4458 -0.4422 -0.2128
  165MOL0     C22150   0.680   1.224   3.174  0.8511  0.1530  0.4434
  165MOL0     C22151   0.822   1.265   3.151 -1.1113 -0.0555 -0.2656
  165MOL0     C22152   0.838   1.402   3.084 -0.2859 -0.5248 -0.1328
  165MOL0     C22153   0.988   1.452   3.097 -0.3853  0.7449 -0.0516
  165MOL0     C22154   1.029   1.566   3.002  0.2769  0.7585  0.7690
  165MOL0     C22155   1.176   1.615   3.005  0.8564 -0.1214  0.1291
  165MOL0     C22156   1.273   1.497   2.955  0.0510  0.4377 -0.0217
  165MOL0     N22157   1.410   1.548   2.909 -0.2484  0.3412 -0.6005
  165MOL0     C22158   1.524   1.464   2.884  1.1532  0.0753 -0.2535
  165MOL0     C22159   1.632   1.549   2.887 -0.7771 -0.6745  0.0385
  165MOL0     C22160   1.783   1.511   2.895 -0.0345  0.6769  0.7127
  165MOL0     C22161   1.871   1.592   2.987  0.5466  0.3681  1.0041
  165MOL0     C22162   1.989   1.630   2.898  0.9133  0.1258  0.6754
  165MOL0     C22163   2.088   1.704   2.982 -0.1641  0.5218  0.2381
  165MOL0     O22164   2.214   1.714   2.903  0.0409 -0.3587 -0.2174
  165MOL0     C22165   2.317   1.770   2.967 -0.2018  1.2213 -0.0496
  165MOL0     C22166   2.321   1.824   3.101 -0.2439  0.1435  0.2195
  165MOL0     C22167   2.441   1.863   3.156 -0.5658 -1.4664  0.7409
  165MOL0     C22168   2.553   1.872   3.068 -0.4145  0.5415  0.3987
  165MOL0     C22169   2.678   1.923   3.121  0.6478 -0.2552 -0.5539
  165MOL0     O22170   2.787   1.899   3.043 -0.3972 -0.2698  0.0046
  165MOL0     C22171   2.906   1.958   3.082 -1.1052  0.4450 -0.8721
  165MOL0     C22172   3.020   1.876   3.102  0.5578 -0.1902 -0.3226
  165MOL0     C22173   3.146   1.935   3.117  0.0344 -0.7961 -0.5721
  165MOL0     C22174   3.159   2.074   3.143 -0.1792  0.3669 -0.6023
  165MOL0     O22175   3.272   2.130   3.195  0.1976  0.1211  0.4496
  165MOL0     C22176   3.350   2.204   3.090 -0.6897 -0.1707 -0.5592
  165MOL0     C22177   3.391   2.344   3.138 -1.0713 -0.4786 -0.1064
  165MOL0     C22178   3.485   2.432   3.049 -0.6060  0.2976  0.4520
  165MOL0     C22179   3.506   2.574   3.103 -0.9050 -0.1101 -0.2369
  165MOL0     C22180   3.661   2.605   3.109  0.6912 -0.3029 -1.4824
  165MOL0     C22181   3.687   2.742   3.157  0.3793  1.3168  0.9256
  165MOL0     C22182   3.838   2.764   3.179 -0.7442 -0.8372  0.6972
  165MOL0     C22183   3.887   2.917   3.206  0.8933  0.1658  0.2562
  165MOL0    Cl22184   4.075   2.919   3.215 -0.3443  0.7644 -0.1739
  165MOL0     C22185   3.050   2.159   3.128 -0.3459 -0.0422  0.3224
  165MOL0     C22186   2.922   2.100   3.090 -0.4059 -0.5874 -0.9578
  165MOL0     O22187   2.675   1.989   3.227 -0.6043 -0.2045  0.5585
  165MOL0     C22188   2.547   1.822   2.932  0.4262  0.3568 -0.4429
  165MOL0     C22189   2.429   1.764   2.882  0.0235 -0.9047 -0.1362
  165MOL0     N22190   1.579   1.679   2.901  0.1678  0.0960  0.0070
  165MOL0     N22191   1.454   1.673   2.911  0.8392 -0.5205  0.0982
  165MOL0     C22192   0.806   0.763   3.174 -0.0082 -0.2183  0.0051
  165MOL0     C22193   0.789   0.628   3.198 -0.4997  0.2058 -0.3447
  165MOL0     C22194   0.568   0.243   3.377  0.2939 -0.5588  0.6473
  165MOL0     C22195   0.636   0.143   3.319  0.1900  0.0874 -0.8236
  165MOL0     C22196   0.656   0.026   3.391 -0.6093  0.2721 -0.4763
  165MOL0     C22197   0.580  -0.017   3.503  0.1286 -0.2460 -0.5383
  165MOL0     O22198   0.588  -0.135   3.568  0.0145  0.0035  0.5499
  165MOL0     C22199   0.705  -0.218   3.554 -0.2465  0.8115 -1.2555
  165MOL0     C22200   0.736  -0.297   3.684 -1.1730 -0.2421  0.5405
  165MOL0     C22201   0.613  -0.371   3.742 -0.1510 -0.2015 -0.7446
  165MOL0     C22202   0.595  -0.498   3.670  0.2494  0.4210  0.1956
  165MOL0     C22203   0.702  -0.592   3.698  0.1046  0.4595  0.1665
  165MOL0     C22204   0.810  -0.653   3.700  0.4094  0.2464 -0.0659
  165MOL0     C22205   0.503   0.086   3.551  0.3666 -1.1334 -0.4066
  165MOL0     C22206   0.500   0.222   3.500  1.2832 -0.3542 -0.1816
  165MOL0     C22207   0.437   0.326   3.584 -0.5775 -0.4401 -0.0530
  165MOL0     H22208   0.489   0.640   3.347  2.1647 -3.8009 -1.3570
  165MOL0     H22209   0.521   0.878   3.319 -1.2242 -0.5818 -2.1923
  165MOL0     H22210   0.557   1.060   3.258 -0.0886 -2.0345 -1.5455
  165MOL0     H22211   0.693   1.113   3.352  0.0084  0.9378 -0.5941
  165MOL0     H22212   0.621   1.308   3.210 -1.4410  0.7103 -3.9487
  165MOL0     H22213   0.634   1.218   3.075 -1.7529 -1.1116  1.6104
  165MOL0     H22214   0.883   1.189   3.101  2.5373 -0.6232  4.3848
  165MOL0     H22215   0.862   1.268   3.253 -2.9179 -2.6666  0.6202
  165MOL0     H22216   0.826   1.386   2.977  1.1201  2.0302 -0.7493
  165MOL0     H22217   0.768   1.475   3.127  0.2689 -0.5724  0.8970
  165MOL0     H22218   1.010   1.482   3.200 -2.3478  0.8645  0.3719
  165MOL0     H22219   1.052   1.365   3.079 -2.0659 -0.9352  1.6825
  165MOL0     H22220   1.004   1.551   2.896  0.9638 -0.3641  0.7398
  165MOL0     H22221   0.968   1.654   3.023 -0.4087  1.8210 -4.2384
  165MOL0     H22222   1.202   1.648   3.106 -1.4153  1.5800  0.2159
  165MOL0     H22223   1.177   1.708   2.948  1.6532 -0.3041 -0.1742
  165MOL0     H22224   1.280   1.423   3.036 -0.3994 -1.4398 -1.6121
  165MOL0     H22225   1.218   1.448   2.874 -1.2854  1.2239  0.3759
  165MOL0     H22226   1.521   1.355   2.880  1.5337  0.0772 -0.6927
  165MOL0     H22227   1.771   1.410   2.935  0.5659  0.9924  1.7410
  165MOL0     H22228   1.818   1.489   2.794 -3.0506 -4.6528  0.4830
  165MOL0     H22229   1.818   1.679   3.029 -0.4164  0.1092  0.3551
  165MOL0     H22230   1.901   1.537   3.076 -2.3477  1.5301  2.8668
  165MOL0     H22231   1.952   1.692   2.816  0.5739  1.6087  1.8862
  165MOL0     H22232   2.046   1.543   2.866  2.5637  0.1803  3.1469
  165MOL0     H22233   2.105   1.642   3.070 -0.9844 -0.6484 -0.4082
  165MOL0     H22234   2.059   1.806   3.011  0.0502  0.7632 -0.3676
  165MOL0     H22235   2.230   1.837   3.158 -1.6788  4.6553 -2.5400
  165MOL0     H22236   2.442   1.910   3.254  0.7111 -0.8189  0.4388
  165MOL0     H22237   3.002   1.773   3.072 -0.8914  0.7932 -3.1370
  165MOL0     H22238   3.234   1.872   3.121 -0.1824 -1.2630 -2.2927
  165MOL0     H22239   3.435   2.142   3.060  2.4661  3.4935  0.0998
  165MOL0     H22240   3.281   2.216   3.006 -2.5625  0.3252  0.9791
  165MOL0     H22241   3.292   2.389   3.154 -0.6878 -0.5993  3.4333
  165MOL0     H22242   3.444   2.338   3.233  0.6007 -2.4661 -1.0780
  165MOL0     H22243   3.581   2.381   3.033 -1.6282 -1.7888  0.6383
  165MOL0     H22244   3.439   2.433   2.949  0.4888 -0.3523 -0.0836
  165MOL0     H22245   3.464   2.588   3.203  1.2143  0.7365  0.5889
  165MOL0     H22246   3.463   2.639   3.027  1.4913  0.8306 -0.8605
  165MOL0     H22247   3.703   2.588   3.009  0.1831 -1.2409 -1.5451
  165MOL0     H22248   3.702   2.538   3.186 -0.0084 -0.2792 -1.0872
  165MOL0     H22249   3.646   2.819   3.091  0.8334  0.9730  0.2268
  165MOL0     H22250   3.626   2.766   3.244  1.0686  3.9828  0.7666
  165MOL0     H22251   3.885   2.728   3.086  0.4286  0.7254  0.6470
  165MOL0     H22252   3.865   2.700   3.263  1.5445  0.8565  1.3391
  165MOL0     H22253   3.841   2.979   3.129 -1.6339 -3.6218 -1.6025
  165MOL0     H22254   3.857   2.943   3.308  2.3317  1.2949  0.4099
  165MOL0     H22255   3.055   2.265   3.148  0.0950  0.2353 -1.1431
  165MOL0     H22256   2.834   2.163   3.080 -0.5643 -0.6440 -0.0440
  165MOL0     H22257   2.632   1.829   2.865  0.2267 -0.2108 -0.7596
  165MOL0     H22258   2.423   1.737   2.777 -0.4644  0.3414 -0.4398
  165MOL0     H22259   0.883   0.797   3.106  1.7115  0.0852  1.9761
  165MOL0     H22260   0.863   0.561   3.154  0.5131  0.9788  0.1455
  165MOL0     H22261   0.682   0.167   3.223 -1.5135  2.6918 -1.0888
  165MOL0     H22262   0.717  -0.048   3.341 -0.1094  0.4841 -0.1837
  165MOL0     H22263   0.785  -0.151   3.520  0.3918 -0.6503 -2.7767
  165MOL0     H22264   0.686  -0.293   3.477  0.9633 -1.0800  0.1900
  165MOL0     H22265   0.766  -0.230   3.766 -1.7374 -2.3141  2.5542
  165MOL0     H22266   0.826  -0.355   3.663 -1.7074 -0.6055 -0.8234
  165MOL0     H22267   0.523  -0.309   3.738 -0.2163 -0.2973 -0.7683
  165MOL0     H22268   0.634  -0.410   3.842 -1.6890 -2.6490 -1.2793
  165MOL0     H22269   0.505  -0.548   3.706 -0.3716  1.3805  0.0022
  165MOL0     H22270   0.572  -0.474   3.566  1.3415  0.8143  0.0369
  165MOL0     H22271   0.904  -0.703   3.684  0.7710  1.0834 -0.5903
  165MOL0     H22272   0.436   0.057   3.630 -2.7197  2.5525 -1.3489
  165MOL0     H22273   0.369   0.286   3.659  1.2443  2.5519  3.5081
  165MOL0     H22274   0.516   0.376   3.641 -1.5434 -0.5226  1.3880
  165MOL0     H22275   0.375   0.402   3.535  0.4075  2.7483  3.1914
  166MOL0     O22276   3.179   5.764   2.943  0.1361 -0.1706  0.0016
  166MOL0     C22277   3.137   5.708   2.841  0.6612 -1.0716 -0.0086
  166MOL0     O22278   3.189   5.714   2.720 -0.2767  0.8472  0.6275
  166MOL0     C22279   3.317   5.767   2.718 -0.2565  0.0168  0.1518
  166MOL0     C22280   3.428   5.681   2.741  1.1742  0.0192 -0.1201
  166MOL0     C22281   3.550   5.738   2.740  0.0159  0.1308  0.1080
  166MOL0     C22282   3.576   5.875   2.731  0.3929  0.6878 -0.9273
  166MOL0     O22283   3.705   5.926   2.744  0.1463 -0.0773  0.6591
  166MOL0     C22284   3.784   5.887   2.627 -0.5503  0.3728 -0.8202
  166MOL0     C22285   3.915   5.802   2.679  1.0017  0.4856  0.7882
  166MOL0     C22286   4.013   5.897   2.750 -0.8852  0.5348 -0.0242
  166MOL0     C22287   4.125   5.812   2.804 -0.2657 -0.3428 -0.7556
  166MOL0     C22288   4.258   5.885   2.824  0.6434 -0.3556 -0.8183
  166MOL0     C22289   4.253   5.975   2.947 -0.2295 -0.3500  0.2743
  166MOL0     C22290   4.380   6.059   2.947  0.0407  0.0794  0.4524
  166MOL0     C22291   4.400   6.165   3.057  0.5625  0.0492  0.5077
  166MOL0     N22292   4.497   6.269   3.027  0.8667  0.3729  0.1584
  166MOL0     C22293   4.620   6.236   2.984 -0.1937 -0.3463 -0.0743
  166MOL0     C22294   4.683   6.357   2.990  0.1353  0.2648 -0.2561
  166MOL0     C22295   4.831   6.358   2.983 -0.1625  0.4325  0.4730
  166MOL0     C22296   4.884   6.500   2.965  0.1972  0.0895 -0.3313
  166MOL0     C22297   5.034   6.498   2.935 -0.5868  0.1257 -0.8655
  166MOL0     C22298   5.078   6.644   2.911  1.3184 -0.4346  0.3098
  166MOL0     O22299   5.200   6.660   2.846 -0.0317 -0.4223 -0.7658
  166MOL0     C22300   5.309   6.664   2.932 -0.6684  0.1878  0.6003
  166MOL0     C22301   5.433   6.704   2.879  0.2709 -0.2301  0.4217
  166MOL0     C22302   5.549   6.701   2.947  0.8153 -0.4209 -0.3637
  166MOL0     C22303   5.559   6.660   3.078  0.0919 -0.0033 -0.7029
  166MOL0     C22304   5.686   6.641   3.153 -0.2989 -0.6383 -0.9957
  166MOL0     O22305   5.802   6.613   3.083  0.5262  0.0261  0.1947
  166MOL0     C22306   5.916   6.598   3.163 -0.9276  0.6035  0.6957
  166MOL0     C22307   6.025   6.679   3.131  0.4886 -0.6153 -0.6083
  166MOL0     C22308   6.149   6.670   3.201  0.1927 -0.7597  0.4099
  166MOL0     C22309   6.173   6.562   3.286  1.2773 -0.7167  0.0733
  166MOL0     O22310   6.304   6.546   3.325 -0.9942  0.1130 -0.5875
  166MOL0     C22311   6.356   6.420   3.305 -0.7571 -0.0337 -1.0653
  166MOL0     C22312   6.504   6.412   3.338 -0.5459  1.5201  0.2242
  166MOL0     C22313   6.581   6.496   3.234  1.2522 -0.3886  0.0116
  166MOL0     C22314   6.734   6.494   3.283  0.2472  0.4291  0.7469
  166MOL0     C22315   6.822   6.588   3.208 -0.7205 -0.1486 -0.8397
  166MOL0     C22316   6.964   6.591   3.272 -0.6050 -0.2782  0.7626
  166MOL0     C22317   7.030   6.452   3.240  0.0657 -0.0485  0.6005
  166MOL0     C22318   7.177   6.459   3.263 -0.0897 -0.6093  0.0070
  166MOL0    Cl22319   7.235   6.295   3.240 -0.1951  0.6137 -0.2213
  166MOL0     C22320   6.063   6.469   3.306  0.6417 -0.5248  0.3851
  166MOL0     C22321   5.937   6.485   3.252 -0.9350 -0.7100 -0.5715
  166MOL0     O22322   5.676   6.640   3.279  0.1535 -0.1609  1.0146
  166MOL0     C22323   5.434   6.616   3.141 -0.9290 -0.2456  1.1674
  166MOL0     C22324   5.313   6.628   3.072  0.8940  0.8556 -0.1175
  166MOL0     N22325   4.585   6.458   3.005  0.2027  0.7612  0.2497
  166MOL0     N22326   4.475   6.402   3.026  1.0552  0.4061 -0.1071
  166MOL0     C22327   3.473   5.960   2.709  0.3320 -0.4066  0.2986
  166MOL0     C22328   3.340   5.903   2.712 -0.8798 -0.0099  0.1456
  166MOL0     C22329   3.004   5.639   2.846 -0.7719 -0.6021 -0.6382
  166MOL0     C22330   2.951   5.587   2.730  0.4299 -0.6750 -1.1314
  166MOL0     C22331   2.820   5.536   2.729  0.7447 -0.8529 -0.3367
  166MOL0     C22332   2.736   5.531   2.844  0.2524 -0.2015 -0.0858
  166MOL0     O22333   2.611   5.486   2.865 -1.1501 -0.4924  0.4148
  166MOL0     C22334   2.544   5.432   2.753 -0.0130  0.5184  0.0509
  166MOL0     C22335   2.420   5.361   2.809 -0.1673  0.3727 -0.4972
  166MOL0     C22336   2.303   5.383   2.717  0.4808  0.3656  0.1925
  166MOL0     C22337   2.164   5.360   2.777 -1.7454  0.5937 -0.4585
  166MOL0     C22338   2.060   5.392   2.686 -0.4441 -0.0499  0.8726
  166MOL0     C22339   1.984   5.414   2.590 -0.3434 -0.2353  0.5561
  166MOL0     C22340   2.794   5.583   2.961  0.5861  0.2809 -0.2777
  166MOL0     C22341   2.928   5.628   2.965  0.2520 -0.7780  0.1834
  166MOL0     C22342   2.979   5.656   3.104  0.9099 -0.7135  0.1280
  166MOL0     H22343   3.417   5.577   2.768  2.3869 -0.0756  0.0512
  166MOL0     H22344   3.639   5.678   2.757 -0.1464 -0.0061  0.4818
  166MOL0     H22345   3.727   5.826   2.556 -1.8187 -1.5485  1.6624
  166MOL0     H22346   3.810   5.986   2.588  1.4555  0.2068 -0.0418
  166MOL0     H22347   3.958   5.750   2.593  0.2157  3.4708 -1.5794
  166MOL0     H22348   3.884   5.731   2.756  0.8165  2.0035  2.1553
  166MOL0     H22349   3.967   5.957   2.828 -1.3287 -2.2241  1.9626
  166MOL0     H22350   4.048   5.959   2.666 -1.4641  0.9652  0.0463
  166MOL0     H22351   4.086   5.758   2.891  2.2209 -1.8940 -0.5124
  166MOL0     H22352   4.158   5.734   2.736  2.9745  0.8583 -0.7327
  166MOL0     H22353   4.345   5.820   2.833  2.4796  2.2129  3.8585
  166MOL0     H22354   4.273   5.953   2.739  1.3860  0.0798 -0.3456
  166MOL0     H22355   4.166   6.041   2.941  0.2180  0.2896  0.6375
  166MOL0     H22356   4.254   5.908   3.034 -0.8978  1.0572  1.4085
  166MOL0     H22357   4.382   6.111   2.850 -0.8946  0.2657  0.5309
  166MOL0     H22358   4.462   5.988   2.953  0.1598  0.2924  1.4589
  166MOL0     H22359   4.309   6.226   3.048  1.5602  1.4569 -0.6690
  166MOL0     H22360   4.423   6.112   3.149 -0.4181 -0.0732  0.6974
  166MOL0     H22361   4.651   6.132   2.975 -3.1987 -1.2393 -1.1064
  166MOL0     H22362   4.870   6.314   3.076 -0.7723 -0.4918  0.3028
  166MOL0     H22363   4.870   6.293   2.904 -2.8974  0.5092 -1.0400
  166MOL0     H22364   4.822   6.556   2.893 -0.9621 -1.8082 -0.8901
  166MOL0     H22365   4.869   6.545   3.064  4.6250 -0.4016  0.7283
  166MOL0     H22366   5.056   6.452   2.838 -1.1001 -1.4282 -0.2702
  166MOL0     H22367   5.096   6.448   3.010  0.3138 -0.2972 -1.8532
  166MOL0     H22368   5.062   6.699   3.005  0.3636  2.3414 -1.3557
  166MOL0     H22369   5.006   6.674   2.834 -0.8522  0.3183  2.4820
  166MOL0     H22370   5.448   6.744   2.779 -1.4708 -1.3930 -0.3300
  166MOL0     H22371   5.646   6.736   2.911  2.0259  0.1660  3.0548
  166MOL0     H22372   6.004   6.754   3.055 -0.0736  0.2098  0.3378
  166MOL0     H22373   6.227   6.745   3.186 -0.4189 -0.0347  0.7742
  166MOL0     H22374   6.298   6.354   3.369 -0.1140  0.4772  0.0648
  166MOL0     H22375   6.338   6.409   3.197  2.1725  1.2616 -1.7961
  166MOL0     H22376   6.525   6.470   3.428  5.4732  1.6362 -0.8052
  166MOL0     H22377   6.548   6.312   3.340 -1.4006  0.9312 -3.3646
  166MOL0     H22378   6.560   6.462   3.133  2.4288  0.2346 -0.4573
  166MOL0     H22379   6.543   6.599   3.236  0.0102 -0.8194  1.6508
  166MOL0     H22380   6.773   6.394   3.267  0.4973  0.7574 -0.8729
  166MOL0     H22381   6.746   6.522   3.388  1.7938 -4.5248  2.1175
  166MOL0     H22382   6.781   6.689   3.204 -2.1362 -0.5867  1.2993
  166MOL0     H22383   6.824   6.552   3.104  0.4216 -1.3331 -0.4392
  166MOL0     H22384   7.033   6.660   3.223  1.5695 -3.1242 -0.4922
  166MOL0     H22385   6.967   6.621   3.378  1.2424 -0.3102  0.7421
  166MOL0     H22386   7.013   6.417   3.138 -2.2657  1.9317  0.2233
  166MOL0     H22387   6.979   6.384   3.308 -1.6697 -1.2310 -1.7460
  166MOL0     H22388   7.223   6.534   3.199 -0.7063 -0.5519 -0.3796
  166MOL0     H22389   7.190   6.492   3.367 -0.6431 -0.7418  0.1252
  166MOL0     H22390   6.080   6.384   3.371 -2.1632 -1.8486 -0.4340
  166MOL0     H22391   5.855   6.417   3.273 -0.4852 -0.3204  2.9843
  166MOL0     H22392   5.438   6.583   3.244  1.5100 -0.3846  1.1006
  166MOL0     H22393   5.225   6.587   3.122  0.3872 -2.1544 -3.1323
  166MOL0     H22394   3.481   6.068   2.698  2.2518 -0.7323 -2.5135
  166MOL0     H22395   3.261   5.973   2.687 -0.7372 -0.3796 -1.4330
  166MOL0     H22396   3.006   5.586   2.637  3.5396 -0.2609  0.5416
  166MOL0     H22397   2.793   5.492   2.633 -0.9343 -1.5195  0.4026
  166MOL0     H22398   2.606   5.360   2.700  3.4508  1.1785  2.8600
  166MOL0     H22399   2.523   5.514   2.684 -4.2899 -2.7376 -3.0805
  166MOL0     H22400   2.387   5.418   2.896 -0.3983  2.8370 -2.0911
  166MOL0     H22401   2.447   5.262   2.847  0.6946  0.7071 -0.2062
  166MOL0     H22402   2.319   5.324   2.626  1.1155 -2.1560  1.8514
  166MOL0     H22403   2.306   5.487   2.683 -1.7343  0.1219 -0.9194
  166MOL0     H22404   2.157   5.255   2.806  2.0055  0.5286  0.7886
  166MOL0     H22405   2.157   5.422   2.866 -0.7418  0.6831 -0.4286
  166MOL0     H22406   1.919   5.437   2.508 -1.0222 -1.2708  0.7912
  166MOL0     H22407   2.732   5.578   3.050 -1.2219 -2.2351 -1.5520
  166MOL0     H22408   2.900   5.628   3.174  2.4850 -1.1885  1.7791
  166MOL0     H22409   3.072   5.605   3.133  0.3198 -0.4866  2.5797
  166MOL0     H22410   2.999   5.763   3.112 -1.1812 -0.3986  1.8640
  167MOL0     O22411   8.210   3.319   9.960 -0.2288 -0.2890 -0.1086
  167MOL0     C22412   8.141   3.362   9.864 -0.6513  0.3176 -0.1831
  167MOL0     O22413   8.126   3.493   9.837 -0.2631 -0.2269 -0.4044
  167MOL0     C22414   8.053   3.528   9.731  0.3661  0.0629  1.0060
  167MOL0     C22415   8.101   3.555   9.604  0.4638 -0.1439 -0.1003
  167MOL0     C22416   8.011   3.588   9.498 -0.5551  0.4595  0.2489
  167MOL0     C22417   7.873   3.603   9.525 -0.3447 -0.4556  0.0967
  167MOL0     O22418   7.772   3.623   9.440 -0.2084 -0.0593 -0.0896
  167MOL0     C22419   7.803   3.653   9.305  0.6621 -0.0994  0.0473
  167MOL0     C22420   7.680   3.681   9.219 -0.0980  0.1753 -1.0077
  167MOL0     C22421   7.715   3.664   9.070  0.7173 -0.1794 -0.2195
  167MOL0     C22422   7.576   3.675   8.993  0.2759  0.9882 -0.1361
  167MOL0     C22423   7.517   3.530   8.989  0.1552  0.3006 -0.1257
  167MOL0     C22424   7.377   3.512   8.923  0.4033  0.1773 -0.5183
  167MOL0     C22425   7.375   3.512   8.771  0.2482  0.4766 -0.0833
  167MOL0     C22426   7.239   3.437   8.739 -0.6891 -0.3423 -0.2583
  167MOL0     N22427   7.188   3.447   8.605 -0.1235 -0.1364  0.2819
  167MOL0     C22428   7.203   3.559   8.517 -0.6650  0.3416 -0.1074
  167MOL0     C22429   7.122   3.539   8.417  1.1829 -0.0640 -0.1177
  167MOL0     C22430   7.094   3.618   8.293  0.0437 -0.1139  0.1813
  167MOL0     C22431   7.021   3.749   8.314  0.3680 -0.7048  0.6081
  167MOL0     C22432   7.093   3.861   8.403 -0.3866 -0.0492 -0.5969
  167MOL0     C22433   7.209   3.942   8.338 -0.4795  0.3029 -0.1828
  167MOL0     O22434   7.306   3.837   8.322 -0.4543 -0.0987 -0.3493
  167MOL0     C22435   7.430   3.859   8.362 -0.0874  0.2850 -0.1276
  167MOL0     C22436   7.471   3.921   8.481  0.2457 -0.3941 -0.6097
  167MOL0     C22437   7.609   3.927   8.513 -0.1366 -0.0805 -0.5185
  167MOL0     C22438   7.714   3.873   8.428 -0.6220  0.0534 -0.3421
  167MOL0     C22439   7.857   3.865   8.456 -0.5157 -0.0983 -0.2068
  167MOL0     O22440   7.942   3.838   8.356  0.2372 -0.0379  0.9878
  167MOL0     C22441   8.076   3.826   8.386  0.5099  0.6158  0.0858
  167MOL0     C22442   8.141   3.704   8.391  0.3826  0.4789  0.5425
  167MOL0     C22443   8.281   3.693   8.410  0.1493  0.0706  0.0798
  167MOL0     C22444   8.344   3.813   8.440 -0.3150  0.8321 -0.4930
  167MOL0     O22445   8.471   3.817   8.484  0.2978 -0.6280 -0.1345
  167MOL0     C22446   8.555   3.696   8.504  0.7412 -0.0198 -0.1203
  167MOL0     C22447   8.683   3.745   8.559 -0.1753  0.2459 -1.1397
  167MOL0     C22448   8.812   3.684   8.502 -0.1183  0.7576 -0.0561
  167MOL0     C22449   8.829   3.535   8.528 -0.3394 -0.0741  0.6851
  167MOL0     C22450   8.969   3.486   8.487  0.6867  0.7407 -0.9058
  167MOL0     C22451   8.987   3.476   8.335 -0.5400 -0.6282 -0.1303
  167MOL0     C22452   9.140   3.469   8.326  0.0461 -0.5242  0.6403
  167MOL0     C22453   9.177   3.509   8.189 -1.1258 -0.5564 -0.3913
  167MOL0    Cl22454   9.341   3.459   8.147  0.2394  0.2411  0.1365
  167MOL0     C22455   8.281   3.934   8.440  0.2449  0.1891 -1.4691
  167MOL0     C22456   8.152   3.945   8.414  0.4375 -0.3850  0.0761
  167MOL0     O22457   7.895   3.884   8.570 -0.4136 -0.1321 -0.4146
  167MOL0     C22458   7.667   3.822   8.306 -0.2402  0.3185  0.1322
  167MOL0     C22459   7.529   3.808   8.275  0.2036  0.0029 -0.9796
  167MOL0     N22460   7.042   3.429   8.446 -1.3100  0.1429  0.8298
  167MOL0     N22461   7.090   3.373   8.553  0.1248 -0.4432  0.3602
  167MOL0     C22462   7.828   3.588   9.656 -0.6028 -1.0885 -0.3123
  167MOL0     C22463   7.916   3.555   9.765 -0.0596  0.4837  0.0962
  167MOL0     C22464   8.102   3.257   9.762 -0.7148  0.2289 -0.0793
  167MOL0     C22465   8.172   3.224   9.646  0.1072  0.1171 -0.7980
  167MOL0     C22466   8.133   3.134   9.541 -0.2973  0.6527  0.0122
  167MOL0     C22467   8.003   3.066   9.556 -0.4263 -0.0296 -0.1697
  167MOL0     O22468   7.945   2.974   9.462 -1.1860  0.0111  0.1542
  167MOL0     C22469   8.040   2.914   9.379 -0.4162  0.5602  0.4223
  167MOL0     C22470   7.993   2.778   9.339  0.3398 -0.3790 -0.1108
  167MOL0     C22471   7.850   2.776   9.270  0.4455  0.0810 -0.4580
  167MOL0     C22472   7.840   2.882   9.162 -0.8519  0.3219  1.1388
  167MOL0     C22473   7.938   2.855   9.056  0.3149 -0.0048  0.5179
  167MOL0     C22474   8.014   2.815   8.975 -0.7276  0.0181 -1.5005
  167MOL0     C22475   7.933   3.099   9.670  0.4539  0.1571  0.2684
  167MOL0     C22476   7.979   3.185   9.778  0.1850 -1.4076 -0.5348
  167MOL0     C22477   7.878   3.203   9.892 -0.1010 -0.1989  0.2875
  167MOL0     H22478   8.208   3.550   9.585  0.1160  0.1599 -2.4442
  167MOL0     H22479   8.041   3.600   9.394 -0.7074 -1.8829 -0.1375
  167MOL0     H22480   7.861   3.745   9.296 -3.1722  2.5189 -0.1691
  167MOL0     H22481   7.856   3.563   9.273 -1.6855 -2.2061  1.6833
  167MOL0     H22482   7.662   3.784   9.252  2.4657  0.0151  1.3410
  167MOL0     H22483   7.606   3.609   9.254  0.9644 -0.6296 -0.3301
  167MOL0     H22484   7.750   3.561   9.058 -0.5258 -0.8380  1.3475
  167MOL0     H22485   7.787   3.741   9.041 -0.0917  0.2588 -1.1172
  167MOL0     H22486   7.510   3.745   9.046 -0.1705 -1.3802  2.6994
  167MOL0     H22487   7.588   3.699   8.887  1.2161  0.5751 -0.1320
  167MOL0     H22488   7.591   3.477   8.928 -1.5147 -2.2021 -0.1178
  167MOL0     H22489   7.519   3.476   9.084  0.3350 -1.4304 -1.0661
  167MOL0     H22490   7.345   3.418   8.969 -1.1833  2.2562  3.0738
  167MOL0     H22491   7.309   3.586   8.966 -2.2877 -1.4230 -1.7762
  167MOL0     H22492   7.463   3.464   8.728  1.4249  2.1934  0.3259
  167MOL0     H22493   7.371   3.613   8.729 -1.6209  0.2602 -0.5326
  167MOL0     H22494   7.253   3.332   8.765  0.0953 -0.2183 -0.1613
  167MOL0     H22495   7.155   3.461   8.805  0.0844 -0.1806  0.6884
  167MOL0     H22496   7.271   3.640   8.537 -2.8094  2.1187  0.4125
  167MOL0     H22497   7.179   3.646   8.230 -1.3951 -0.3121 -1.9519
  167MOL0     H22498   7.029   3.549   8.239 -0.2005 -0.2607  0.6534
  167MOL0     H22499   7.004   3.804   8.220 -0.3269 -0.1188  1.0670
  167MOL0     H22500   6.921   3.732   8.354  0.9388 -1.0721  1.9319
  167MOL0     H22501   7.121   3.814   8.498 -2.3530 -0.0529  0.0329
  167MOL0     H22502   7.019   3.940   8.423  0.1860  1.0298 -2.5675
  167MOL0     H22503   7.241   4.023   8.404  3.0715 -1.4625  0.4841
  167MOL0     H22504   7.194   3.979   8.236 -0.0945  0.4119 -0.2035
  167MOL0     H22505   7.398   3.948   8.557  0.8900  0.9526 -0.4508
  167MOL0     H22506   7.643   3.969   8.608 -1.1576 -0.1093 -0.1275
  167MOL0     H22507   8.078   3.617   8.382 -1.0103  1.5527 -0.5498
  167MOL0     H22508   8.339   3.600   8.413  1.8178  1.0741  3.0602
  167MOL0     H22509   8.503   3.616   8.557 -2.6882  0.4715 -2.4155
  167MOL0     H22510   8.574   3.658   8.403  2.1725  0.1489  0.0530
  167MOL0     H22511   8.683   3.853   8.541  2.4542  0.4080 -0.6662
  167MOL0     H22512   8.672   3.726   8.666 -1.2358  2.1493 -0.8634
  167MOL0     H22513   8.803   3.692   8.393  2.6049 -0.0870 -0.4148
  167MOL0     H22514   8.907   3.733   8.524  1.2892 -1.8009 -0.0835
  167MOL0     H22515   8.765   3.481   8.457  1.2082  0.5456 -1.3040
  167MOL0     H22516   8.803   3.513   8.632 -1.0517 -0.8402  0.3645
  167MOL0     H22517   8.986   3.383   8.520  2.5225  0.9178 -1.1938
  167MOL0     H22518   9.048   3.543   8.538  1.0425 -0.8978  0.4654
  167MOL0     H22519   8.927   3.392   8.299 -3.6612  1.6253 -0.5916
  167MOL0     H22520   8.947   3.565   8.287 -0.8241 -0.9738 -0.5418
  167MOL0     H22521   9.178   3.368   8.343  1.7057  0.2259  1.6286
  167MOL0     H22522   9.198   3.527   8.398 -0.9771 -1.4400  2.2522
  167MOL0     H22523   9.115   3.448   8.123 -0.2063  1.0896 -2.9271
  167MOL0     H22524   9.168   3.613   8.159  3.2951 -0.2321 -1.1872
  167MOL0     H22525   8.327   4.022   8.484 -1.5554  0.8623 -0.8456
  167MOL0     H22526   8.095   4.036   8.427 -0.6845 -0.9857 -0.5071
  167MOL0     H22527   7.736   3.767   8.243 -1.0375  0.4787 -0.9077
  167MOL0     H22528   7.492   3.747   8.193 -2.4104  0.2627 -0.0927
  167MOL0     H22529   7.726   3.617   9.678  0.2854  0.6751  1.8478
  167MOL0     H22530   7.879   3.547   9.866 -0.6140  1.9652  0.0419
  167MOL0     H22531   8.274   3.260   9.635  0.4404 -0.7255 -0.5432
  167MOL0     H22532   8.200   3.105   9.460  2.6172 -0.5000  2.6307
  167MOL0     H22533   8.131   2.885   9.433  1.0176  1.9141 -1.1439
  167MOL0     H22534   8.068   2.966   9.287 -0.5331 -2.4275 -1.4431
  167MOL0     H22535   7.996   2.698   9.413 -0.7484 -1.4260 -1.1450
  167MOL0     H22536   8.059   2.746   9.258 -0.1140  0.0582 -0.6657
  167MOL0     H22537   7.779   2.796   9.351 -1.7795  2.0036 -2.7287
  167MOL0     H22538   7.832   2.679   9.221 -4.2506  0.2616  0.4120
  167MOL0     H22539   7.744   2.872   9.111  0.9493  3.7181 -3.6798
  167MOL0     H22540   7.840   2.982   9.206 -3.6259  0.3923  1.1443
  167MOL0     H22541   8.086   2.769   8.911 -0.6960  0.4578 -1.7923
  167MOL0     H22542   7.848   3.037   9.696  0.7354 -0.6761 -0.7010
  167MOL0     H22543   7.883   3.118   9.961 -0.6947 -0.2217  0.3021
  167MOL0     H22544   7.897   3.286   9.961 -0.4572  1.3152 -1.3834
  167MOL0     H22545   7.777   3.218   9.854  0.9031 -0.8673 -2.9819
  168MOL0     O22546   0.462   6.646   0.396  0.0744  0.1113 -0.0597
  168MOL0     C22547   0.344   6.662   0.439 -0.1678 -0.1253 -0.6309
  168MOL0     O22548   0.255   6.747   0.374 -0.0677 -0.4380  0.4001
  168MOL0     C22549   0.270   6.805   0.254  0.2807  0.5908  0.1065
  168MOL0     C22550   0.178   6.796   0.152  0.0722 -0.5161 -0.3936
  168MOL0     C22551   0.185   6.864   0.031 -0.7286  0.5087 -0.7556
  168MOL0     C22552   0.307   6.944   0.011 -0.0517 -0.0098 -0.2648
  168MOL0     O22553   0.337   6.989  -0.114  0.8419 -0.3651 -0.5022
  168MOL0     C22554   0.251   7.102  -0.152 -0.3634  0.3957  0.6157
  168MOL0     C22555   0.281   7.138  -0.304  0.4007  0.3532  0.1431
  168MOL0     C22556   0.245   7.019  -0.399 -1.3292 -0.2246  0.4486
  168MOL0     C22557   0.228   7.079  -0.537 -0.4373 -0.7739  0.2816
  168MOL0     C22558   0.180   6.977  -0.634  0.0827 -0.1797  0.5079
  168MOL0     C22559   0.029   6.944  -0.625 -0.0113 -0.0283  0.1656
  168MOL0     C22560  -0.008   6.854  -0.746 -0.2512 -0.1093 -0.2206
  168MOL0     C22561  -0.159   6.827  -0.748 -1.2576 -0.2022 -0.2377
  168MOL0     N22562  -0.231   6.958  -0.766 -0.9842  0.6356  1.3930
  168MOL0     C22563  -0.265   7.007  -0.893  0.6543 -0.4491 -0.2599
  168MOL0     C22564  -0.365   7.093  -0.865  0.3598  0.0533  0.2569
  168MOL0     C22565  -0.455   7.174  -0.971  1.7995  0.1575 -0.0941
  168MOL0     C22566  -0.597   7.119  -0.959 -0.1614  0.1153  0.4425
  168MOL0     C22567  -0.679   7.157  -1.080  0.4136 -0.5023  0.2990
  168MOL0     C22568  -0.808   7.065  -1.104 -0.5034 -0.0288 -0.7453
  168MOL0     O22569  -0.849   7.054  -1.240 -0.3753 -0.1900 -0.5166
  168MOL0     C22570  -0.941   6.948  -1.264  0.0778  0.0925  1.6884
  168MOL0     C22571  -1.061   6.929  -1.201  1.3645  0.8568 -0.4075
  168MOL0     C22572  -1.145   6.821  -1.233  0.1665  0.1555  0.5042
  168MOL0     C22573  -1.118   6.741  -1.351  0.3047 -0.2210 -0.4834
  168MOL0     C22574  -1.209   6.630  -1.384 -0.1373 -0.1760 -0.2936
  168MOL0     O22575  -1.325   6.647  -1.310  0.0575 -0.1710  0.4620
  168MOL0     C22576  -1.424   6.545  -1.312 -0.3148 -0.2067  0.3622
  168MOL0     C22577  -1.555   6.575  -1.312  0.0915  0.0282  0.6688
  168MOL0     C22578  -1.649   6.475  -1.324 -0.1102  0.6954  0.1897
  168MOL0     C22579  -1.611   6.341  -1.322  0.8725  0.5641 -0.4312
  168MOL0     O22580  -1.697   6.235  -1.318  0.3450 -0.4493  0.2465
  168MOL0     C22581  -1.834   6.250  -1.354  0.3010 -0.1440  0.5078
  168MOL0     C22582  -1.877   6.108  -1.408 -0.1104 -0.0796  0.0615
  168MOL0     C22583  -2.019   6.122  -1.459 -0.6304  0.1824  0.4687
  168MOL0     C22584  -2.062   5.982  -1.490 -0.5991  0.5379 -0.4444
  168MOL0     C22585  -2.213   5.962  -1.510  0.2813 -0.0398  0.5704
  168MOL0     C22586  -2.260   6.025  -1.646  0.8087 -0.2149 -0.7472
  168MOL0     C22587  -2.409   5.988  -1.657  0.2942 -0.4791  0.2059
  168MOL0     C22588  -2.479   6.092  -1.757 -1.4738  0.6574 -0.6365
  168MOL0    Cl22589  -2.608   5.996  -1.823  0.0698 -0.2200 -0.4038
  168MOL0     C22590  -1.473   6.304  -1.309 -0.2647 -0.5594 -0.1208
  168MOL0     C22591  -1.385   6.410  -1.315  0.0795 -0.0197  1.0149
  168MOL0     O22592  -1.180   6.549  -1.468  0.1278 -0.3935 -0.1456
  168MOL0     C22593  -1.003   6.766  -1.422  0.2086 -0.5291 -0.1516
  168MOL0     C22594  -0.915   6.868  -1.378  0.0125  0.3422  0.4853
  168MOL0     N22595  -0.393   7.083  -0.728 -0.3290 -0.3574  0.4787
  168MOL0     N22596  -0.313   7.006  -0.669  0.3174 -0.4882  0.4005
  168MOL0     C22597   0.391   6.966   0.117  0.6034 -0.4830 -0.5076
  168MOL0     C22598   0.372   6.888   0.228  0.6338 -1.0133 -0.5409
  168MOL0     C22599   0.303   6.596   0.565  0.0311  0.0862 -0.3168
  168MOL0     C22600   0.173   6.620   0.613 -0.6091  0.0035  0.1785
  168MOL0     C22601   0.114   6.565   0.719 -0.2555  0.5503 -0.2547
  168MOL0     C22602   0.188   6.462   0.785  0.5055  0.0491 -1.1705
  168MOL0     O22603   0.145   6.403   0.899 -0.2420 -0.2889 -0.8959
  168MOL0     C22604   0.010   6.394   0.934 -0.2414  0.6138  0.3651
  168MOL0     C22605  -0.016   6.303   1.050 -0.0715  1.2891  0.0556
  168MOL0     C22606  -0.170   6.313   1.089 -0.0638 -0.9265 -0.6361
  168MOL0     C22607  -0.182   6.427   1.196  0.3354 -0.3241 -0.3443
  168MOL0     C22608  -0.315   6.472   1.201 -0.3848 -0.2056 -0.1361
  168MOL0     C22609  -0.420   6.536   1.209 -0.8822  0.0723  0.8061
  168MOL0     C22610   0.325   6.437   0.752 -0.2834 -1.2728 -0.8482
  168MOL0     C22611   0.382   6.500   0.639 -0.4040  1.0015 -0.8833
  168MOL0     C22612   0.514   6.444   0.596  0.3739  0.6599  0.6554
  168MOL0     H22613   0.091   6.732   0.163  0.2709 -1.2873 -2.6453
  168MOL0     H22614   0.107   6.840  -0.041 -2.6438  0.6574  1.1964
  168MOL0     H22615   0.150   7.058  -0.152  0.5899 -1.9739  1.6014
  168MOL0     H22616   0.268   7.189  -0.089  3.1181  0.5194 -0.2944
  168MOL0     H22617   0.385   7.169  -0.301  1.8028 -3.8484  2.0955
  168MOL0     H22618   0.213   7.217  -0.339  0.7561  0.5338 -0.1454
  168MOL0     H22619   0.154   6.965  -0.373 -1.7586  0.2261 -0.1070
  168MOL0     H22620   0.333   6.954  -0.406 -1.1623  0.1359 -0.9873
  168MOL0     H22621   0.163   7.167  -0.534  2.6098  1.7391 -1.5736
  168MOL0     H22622   0.327   7.117  -0.564 -2.2913  2.1515 -3.4179
  168MOL0     H22623   0.204   7.012  -0.735 -3.7346  0.8209 -0.1923
  168MOL0     H22624   0.229   6.880  -0.624  0.9011  0.2639  0.9698
  168MOL0     H22625   0.012   6.897  -0.528 -1.5879  1.3341  0.5935
  168MOL0     H22626  -0.028   7.037  -0.630  2.0281  1.4869  2.4626
  168MOL0     H22627   0.045   6.758  -0.745  1.6143  0.7959 -2.3286
  168MOL0     H22628   0.040   6.902  -0.831  3.0800  0.8032  1.9840
  168MOL0     H22629  -0.189   6.761  -0.829  0.0985 -2.9354  1.3434
  168MOL0     H22630  -0.191   6.780  -0.654 -0.9300 -0.6340 -0.3399
  168MOL0     H22631  -0.219   6.993  -0.991  2.7689  0.5573  0.5297
  168MOL0     H22632  -0.452   7.282  -0.954  2.3119  0.1704 -0.2552
  168MOL0     H22633  -0.414   7.150  -1.070  3.0414 -1.8914  0.8351
  168MOL0     H22634  -0.591   7.011  -0.942 -0.5603 -0.0947 -0.6424
  168MOL0     H22635  -0.636   7.158  -0.864 -1.5494 -1.1374  0.4340
  168MOL0     H22636  -0.620   7.156  -1.173  0.2077  2.0010  0.0813
  168MOL0     H22637  -0.722   7.258  -1.078 -0.1463 -0.6859 -1.0621
  168MOL0     H22638  -0.889   7.101  -1.040 -1.4282 -1.3214 -1.1405
  168MOL0     H22639  -0.769   6.969  -1.071  1.5265  1.6227  2.0757
  168MOL0     H22640  -1.087   6.989  -1.114 -3.1725 -1.5045  0.1519
  168MOL0     H22641  -1.227   6.796  -1.167  0.5988 -0.5552  0.7873
  168MOL0     H22642  -1.595   6.676  -1.321 -0.0075 -0.1900 -2.2277
  168MOL0     H22643  -1.754   6.501  -1.313 -0.1129  0.6145  0.3559
  168MOL0     H22644  -1.893   6.274  -1.265 -0.3696 -3.3085  1.0411
  168MOL0     H22645  -1.853   6.319  -1.437 -0.0550 -1.3894 -0.4672
  168MOL0     H22646  -1.817   6.087  -1.497 -2.8498  3.1461 -2.8470
  168MOL0     H22647  -1.866   6.029  -1.332 -0.4634  1.4667  1.7785
  168MOL0     H22648  -2.085   6.163  -1.382  1.4468  1.7525  1.4899
  168MOL0     H22649  -2.025   6.177  -1.554 -3.9890 -1.0400 -0.1828
  168MOL0     H22650  -2.040   5.911  -1.409  1.6396  0.2425 -1.2348
  168MOL0     H22651  -2.007   5.947  -1.578  3.7569  2.3480  1.2515
  168MOL0     H22652  -2.261   6.001  -1.420 -0.3548 -0.5183  0.4457
  168MOL0     H22653  -2.228   5.854  -1.518  0.7130 -0.1908  1.6488
  168MOL0     H22654  -2.242   6.133  -1.643  1.7555 -0.3903  0.8844
  168MOL0     H22655  -2.206   5.968  -1.722  0.9462 -3.8114  1.8261
  168MOL0     H22656  -2.448   6.002  -1.556  1.0874  2.2557  0.2214
  168MOL0     H22657  -2.425   5.885  -1.688  1.5722 -0.1776 -1.6020
  168MOL0     H22658  -2.522   6.173  -1.698 -1.5676 -0.9222  1.6050
  168MOL0     H22659  -2.408   6.118  -1.836 -0.0178 -3.3183 -0.8570
  168MOL0     H22660  -1.450   6.198  -1.308 -0.4174 -0.6016 -0.6259
  168MOL0     H22661  -1.278   6.390  -1.321 -0.1194 -0.7485 -1.3899
  168MOL0     H22662  -0.980   6.721  -1.519 -0.7707  0.1948 -0.7383
  168MOL0     H22663  -0.829   6.894  -1.439  0.1348  1.8264  1.2316
  168MOL0     H22664   0.482   7.020   0.092  0.0909  1.2657  1.1430
  168MOL0     H22665   0.448   6.900   0.304  1.3547 -1.6765 -1.1385
  168MOL0     H22666   0.110   6.687   0.556  0.4066 -0.9659 -2.2604
  168MOL0     H22667   0.013   6.588   0.752 -0.3919  0.4128 -0.5758
  168MOL0     H22668  -0.026   6.358   0.837  0.4284 -1.5700  0.8814
  168MOL0     H22669  -0.024   6.496   0.955  0.7007  0.6571  1.8508
  168MOL0     H22670   0.051   6.322   1.134  2.3565  1.2911 -1.7709
  168MOL0     H22671   0.006   6.201   1.016 -0.1766  0.9459  0.9873
  168MOL0     H22672  -0.183   6.212   1.128  0.7771  0.0089  2.3779
  168MOL0     H22673  -0.228   6.341   1.001  3.3608  0.4705 -2.6466
  168MOL0     H22674  -0.139   6.381   1.286  0.5562  0.0566 -0.2503
  168MOL0     H22675  -0.129   6.518   1.167 -3.8211  3.1188  1.6338
  168MOL0     H22676  -0.508   6.596   1.195  0.0673  1.5142  0.8396
  168MOL0     H22677   0.382   6.362   0.807  2.0838  1.4553  0.6792
  168MOL0     H22678   0.596   6.509   0.625  2.9507 -2.6934  1.4803
  168MOL0     H22679   0.526   6.345   0.641 -2.7436 -0.0508  0.2162
  168MOL0     H22680   0.537   6.432   0.490  2.5595 -2.1493  1.3284
  169MOL0     O22681   1.282   2.613   3.854  0.2056  0.1021  0.6909
  169MOL0     C22682   1.293   2.728   3.808  1.1503  0.5185  0.1932
  169MOL0     O22683   1.405   2.803   3.819  0.1411 -0.2516 -0.2552
  169MOL0     C22684   1.488   2.774   3.922  0.0336  0.6292 -0.0559
  169MOL0     C22685   1.596   2.687   3.899  0.3702  0.7982  0.6845
  169MOL0     C22686   1.669   2.651   4.006  0.5663  0.2708 -0.0115
  169MOL0     C22687   1.644   2.702   4.133  0.0311 -0.2057 -0.3226
  169MOL0     O22688   1.741   2.682   4.221 -1.1217 -0.6256 -0.1064
  169MOL0     C22689   1.757   2.768   4.331  0.5464  0.6577  0.2513
  169MOL0     C22690   1.904   2.761   4.382  0.4301  0.4637 -0.7703
  169MOL0     C22691   1.962   2.618   4.411  0.1575  0.3797 -0.5836
  169MOL0     C22692   1.914   2.552   4.535 -0.2581  0.4732  0.7609
  169MOL0     C22693   2.018   2.468   4.605  0.8612  0.4970  0.0232
  169MOL0     C22694   2.063   2.344   4.535 -0.1772  0.5912 -0.2982
  169MOL0     C22695   2.158   2.267   4.630 -0.2152 -0.4469  0.3251
  169MOL0     C22696   2.183   2.120   4.592 -0.2340 -0.1583 -0.4606
  169MOL0     N22697   2.259   2.102   4.462  0.3892  0.2300 -1.3652
  169MOL0     C22698   2.308   2.190   4.369 -0.2138  0.5191 -0.2386
  169MOL0     C22699   2.369   2.103   4.278 -0.5984 -0.2153  0.2545
  169MOL0     C22700   2.458   2.153   4.175 -0.2213 -0.1244  0.1600
  169MOL0     C22701   2.606   2.149   4.213 -0.1381  0.7826 -0.2558
  169MOL0     C22702   2.638   2.267   4.307 -0.2345 -0.8202 -0.7661
  169MOL0     C22703   2.784   2.243   4.346 -1.2655  0.3475 -0.4534
  169MOL0     O22704   2.825   2.356   4.423 -0.7939 -0.0560  0.6685
  169MOL0     C22705   2.955   2.370   4.461 -1.4368  0.3921  0.1662
  169MOL0     C22706   2.979   2.451   4.571  0.5418 -0.6419  0.4080
  169MOL0     C22707   3.106   2.474   4.622 -0.2966 -0.9878 -0.3271
  169MOL0     C22708   3.219   2.417   4.560 -1.4234  0.0172 -0.1543
  169MOL0     C22709   3.359   2.450   4.603 -0.8378 -0.4069  0.3185
  169MOL0     O22710   3.465   2.395   4.539 -0.3929  0.8139 -0.0121
  169MOL0     C22711   3.587   2.441   4.568 -0.6449  0.3890 -0.8659
  169MOL0     C22712   3.656   2.393   4.682 -0.2041  0.7262  0.1694
  169MOL0     C22713   3.789   2.434   4.701 -0.8750  0.2035 -0.3767
  169MOL0     C22714   3.840   2.539   4.621  0.1637  0.5771  0.6362
  169MOL0     O22715   3.976   2.556   4.643 -0.3077  0.3680  0.4053
  169MOL0     C22716   4.019   2.694   4.661 -1.3322 -0.8170 -0.7878
  169MOL0     C22717   4.168   2.701   4.712  0.6218  0.4080  0.4244
  169MOL0     C22718   4.186   2.845   4.778 -0.5462  0.0485  0.1841
  169MOL0     C22719   4.137   2.845   4.925  0.3567 -0.5328 -1.1601
  169MOL0     C22720   4.166   2.973   5.012  0.2533 -1.0977 -0.4606
  169MOL0     C22721   4.305   2.995   5.053 -0.1672  1.0682 -0.1898
  169MOL0     C22722   4.320   3.140   5.104 -0.5130  0.2930 -0.0463
  169MOL0     C22723   4.218   3.184   5.213  0.7909 -0.7985  0.7638
  169MOL0    Cl22724   4.280   3.344   5.273  0.4031  0.1761 -0.3375
  169MOL0     C22725   3.766   2.593   4.524  0.3597  0.2028  0.2999
  169MOL0     C22726   3.636   2.542   4.491 -0.4299 -0.8429 -0.9343
  169MOL0     O22727   3.370   2.525   4.703 -0.7440 -0.7927 -0.3297
  169MOL0     C22728   3.198   2.328   4.453  0.1445  0.6941  0.2367
  169MOL0     C22729   3.069   2.304   4.409  1.0965  0.6562 -0.2291
  169MOL0     N22730   2.342   1.970   4.317  0.1434  0.5694  0.6259
  169MOL0     N22731   2.279   1.970   4.428 -0.1209 -0.3768  0.0502
  169MOL0     C22732   1.533   2.785   4.151  0.2197 -0.1378  0.6617
  169MOL0     C22733   1.456   2.825   4.047  0.4233  0.6866 -0.4140
  169MOL0     C22734   1.185   2.785   3.708 -0.0812 -0.2444  0.2074
  169MOL0     C22735   1.207   2.911   3.641  0.0765 -0.6387 -1.1542
  169MOL0     C22736   1.111   2.963   3.552 -0.8253 -0.4275  0.3890
  169MOL0     C22737   1.001   2.889   3.529  0.2446  0.0939 -0.2007
  169MOL0     O22738   0.916   2.953   3.438  0.2317  1.0979 -0.8328
  169MOL0     C22739   0.831   2.862   3.367  0.0295  0.5147  0.4447
  169MOL0     C22740   0.765   2.922   3.243  0.8863 -0.4781  0.7277
  169MOL0     C22741   0.650   3.028   3.278 -0.6757 -0.0817 -0.2334
  169MOL0     C22742   0.578   3.086   3.154 -0.0133 -0.4391 -0.8498
  169MOL0     C22743   0.547   2.986   3.055  0.2432  0.1141 -0.5634
  169MOL0     C22744   0.532   2.900   2.969  0.8801  1.3871  0.3295
  169MOL0     C22745   0.975   2.767   3.587  0.7728  0.0474 -0.0958
  169MOL0     C22746   1.067   2.712   3.676 -0.9958 -0.0892 -0.6943
  169MOL0     C22747   1.035   2.578   3.738  0.1121 -0.4521  0.2097
  169MOL0     H22748   1.623   2.660   3.798 -2.8647  0.4456 -0.2101
  169MOL0     H22749   1.751   2.579   4.002 -0.8447 -1.5286  1.5165
  169MOL0     H22750   1.755   2.872   4.296  1.6168  0.7476  0.4236
  169MOL0     H22751   1.679   2.768   4.407 -1.9904  1.0068 -2.1983
  169MOL0     H22752   1.910   2.823   4.472  1.7258 -3.1071  1.8435
  169MOL0     H22753   1.968   2.799   4.302 -1.3245  0.9085 -1.9986
  169MOL0     H22754   2.070   2.633   4.421  0.6254 -2.6938 -0.2183
  169MOL0     H22755   1.951   2.549   4.327  0.9098 -0.3351 -0.1084
  169MOL0     H22756   1.871   2.624   4.606  0.4798 -0.0300  1.7560
  169MOL0     H22757   1.832   2.481   4.522 -0.8057  1.1399  0.5172
  169MOL0     H22758   2.090   2.543   4.639 -2.1891  2.0440  3.7710
  169MOL0     H22759   1.978   2.435   4.701  0.7030  0.8020  0.0625
  169MOL0     H22760   1.977   2.280   4.518  1.0675 -1.5223  0.9232
  169MOL0     H22761   2.110   2.369   4.439  0.3703  1.5397  0.1980
  169MOL0     H22762   2.111   2.259   4.729 -0.5810  1.0999  0.3016
  169MOL0     H22763   2.247   2.329   4.635  0.7955 -1.9070  1.1930
  169MOL0     H22764   2.245   2.075   4.670 -1.8952 -1.5555  0.1248
  169MOL0     H22765   2.088   2.065   4.589  0.5743 -1.6817  0.4445
  169MOL0     H22766   2.316   2.298   4.364 -2.2327  0.7079 -0.1075
  169MOL0     H22767   2.445   2.101   4.080 -5.0024 -2.8395  1.9463
  169MOL0     H22768   2.425   2.255   4.152  3.1319  0.6792 -1.8719
  169MOL0     H22769   2.606   2.053   4.265 -0.2446  1.1170  0.3791
  169MOL0     H22770   2.658   2.155   4.117 -0.1459  1.4672 -0.2205
  169MOL0     H22771   2.575   2.249   4.395  0.8652  0.3246  0.2925
  169MOL0     H22772   2.623   2.368   4.267  0.8923  0.1508  1.1300
  169MOL0     H22773   2.853   2.223   4.264  0.9211 -0.9745  1.5749
  169MOL0     H22774   2.793   2.159   4.416 -0.6002 -0.4368 -1.4530
  169MOL0     H22775   2.893   2.499   4.617  1.4962  0.5780  0.9835
  169MOL0     H22776   3.120   2.541   4.706  0.4675 -0.0419 -1.1825
  169MOL0     H22777   3.619   2.317   4.751  1.9016  0.2296  0.8523
  169MOL0     H22778   3.849   2.392   4.781  2.8985  2.4128 -1.7826
  169MOL0     H22779   4.007   2.749   4.567  0.1331  1.5135  0.3014
  169MOL0     H22780   3.955   2.736   4.739  0.0942  2.4422 -1.1886
  169MOL0     H22781   4.207   2.620   4.775 -0.7762 -0.6397 -0.0127
  169MOL0     H22782   4.228   2.695   4.621 -0.9219 -0.1306 -0.5978
  169MOL0     H22783   4.292   2.869   4.765 -0.3844 -0.3743  0.6848
  169MOL0     H22784   4.128   2.918   4.720 -0.2520 -1.7775 -2.5676
  169MOL0     H22785   4.183   2.760   4.976 -2.4603 -0.6683  1.4701
  169MOL0     H22786   4.029   2.824   4.932  0.0587  0.6157 -1.9867
  169MOL0     H22787   4.101   2.975   5.100  0.2208 -1.9199 -0.4597
  169MOL0     H22788   4.137   3.059   4.952 -0.6908 -1.3385 -0.3704
  169MOL0     H22789   4.340   2.922   5.126 -0.7382  0.4393 -0.5286
  169MOL0     H22790   4.380   2.975   4.976 -0.0646  0.7038  0.0045
  169MOL0     H22791   4.315   3.209   5.019  0.1632  1.5018  0.8602
  169MOL0     H22792   4.420   3.150   5.148  0.6108  2.3431 -2.7494
  169MOL0     H22793   4.117   3.193   5.171  0.0159  2.4870  2.9577
  169MOL0     H22794   4.222   3.116   5.298  1.2829  0.9917  2.2476
  169MOL0     H22795   3.797   2.680   4.466 -3.5210  0.6681 -1.4168
  169MOL0     H22796   3.568   2.585   4.417 -1.0712 -0.7006 -0.2759
  169MOL0     H22797   3.275   2.269   4.404 -0.8203 -0.6583  0.2897
  169MOL0     H22798   3.048   2.223   4.339  4.9197 -1.3899  0.6865
  169MOL0     H22799   1.500   2.816   4.249 -1.2619  2.5551 -0.5677
  169MOL0     H22800   1.376   2.897   4.051  0.5427  1.0715 -2.9706
  169MOL0     H22801   1.297   2.965   3.672 -1.1409  1.0804 -0.4689
  169MOL0     H22802   1.133   3.050   3.490 -2.5086 -1.5722 -1.9525
  169MOL0     H22803   0.753   2.825   3.433 -0.3361 -1.0330 -0.8092
  169MOL0     H22804   0.883   2.773   3.331 -1.5300 -0.7136  1.1610
  169MOL0     H22805   0.706   2.841   3.201  0.7567 -1.2660  2.3467
  169MOL0     H22806   0.838   2.959   3.170  0.9330 -0.4209  0.8028
  169MOL0     H22807   0.690   3.120   3.323 -2.5179  1.5054 -1.6599
  169MOL0     H22808   0.583   2.985   3.353  0.7780  0.1937  1.2842
  169MOL0     H22809   0.481   3.127   3.183  1.5479  2.8738  0.0382
  169MOL0     H22810   0.652   3.149   3.105 -0.3974 -2.6001 -4.6246
  169MOL0     H22811   0.518   2.820   2.900 -0.0566  1.4022  0.4769
  169MOL0     H22812   0.879   2.722   3.563  0.5630  1.4861 -2.3364
  169MOL0     H22813   1.105   2.503   3.702 -2.1864 -1.6679 -2.1450
  169MOL0     H22814   1.042   2.579   3.847 -0.2179 -0.5895  0.2358
  169MOL0     H22815   0.931   2.559   3.708 -0.6909  3.2998  0.0507
  170MOL0     O22816   2.279   4.335   7.420 -0.6868 -0.1434 -0.5522
  170MOL0     C22817   2.247   4.332   7.540  0.3344 -0.5479 -0.3077
  170MOL0     O22818   2.205   4.221   7.614 -0.5454  0.0419  1.2262
  170MOL0     C22819   2.163   4.113   7.542 -0.2786  0.2245  0.1197
  170MOL0     C22820   2.243   3.999   7.558  0.2113 -0.7243 -0.0117
  170MOL0     C22821   2.204   3.875   7.489 -0.2604 -0.0642  0.2273
  170MOL0     C22822   2.094   3.883   7.402 -0.2224 -0.4062 -0.7066
  170MOL0     O22823   2.064   3.769   7.341 -0.6866  0.3013  0.6209
  170MOL0     C22824   2.109   3.755   7.209  0.4100  0.2070 -0.4557
  170MOL0     C22825   2.166   3.612   7.166  0.0433  0.3422 -0.3289
  170MOL0     C22826   2.258   3.546   7.279 -0.7341  0.3634  1.0185
  170MOL0     C22827   2.301   3.405   7.238  0.0243  0.3189  0.3230
  170MOL0     C22828   2.412   3.328   7.314 -0.4851 -0.1151  0.4439
  170MOL0     C22829   2.544   3.406   7.326 -0.0868  0.5308 -0.6555
  170MOL0     C22830   2.656   3.327   7.397 -0.4653  0.3084  0.6883
  170MOL0     C22831   2.796   3.398   7.400  0.8280  0.5401 -0.9009
  170MOL0     N22832   2.859   3.400   7.267 -0.2425 -0.0999  0.1006
  170MOL0     C22833   2.894   3.287   7.202 -0.0920  0.1720  0.5778
  170MOL0     C22834   2.974   3.333   7.108 -1.1870  0.2750  0.3895
  170MOL0     C22835   3.065   3.246   7.014 -0.3943 -1.3912 -0.6248
  170MOL0     C22836   3.196   3.223   7.083 -0.7386  0.3363  1.2196
  170MOL0     C22837   3.285   3.132   7.004 -0.3155  0.0031 -0.3170
  170MOL0     C22838   3.414   3.097   7.087 -0.5176  0.2020  0.1790
  170MOL0     O22839   3.497   3.208   7.128 -0.3679 -0.5976  0.1827
  170MOL0     C22840   3.613   3.182   7.190 -0.3864  1.4903  0.2723
  170MOL0     C22841   3.704   3.285   7.220 -0.0122 -0.2061 -0.3842
  170MOL0     C22842   3.824   3.265   7.292  0.2809 -0.1040  0.8993
  170MOL0     C22843   3.854   3.133   7.313  0.0399 -0.3515  0.5680
  170MOL0     C22844   3.986   3.093   7.375  0.4452 -1.1774 -0.5710
  170MOL0     O22845   4.084   3.195   7.381  0.3438  0.9827 -0.4804
  170MOL0     C22846   4.213   3.158   7.428  0.9119  0.5653  0.2071
  170MOL0     C22847   4.311   3.206   7.342  0.5688 -0.2549 -0.8346
  170MOL0     C22848   4.441   3.185   7.376  0.1837 -0.1446  0.3105
  170MOL0     C22849   4.467   3.104   7.482 -0.2070  0.3177 -0.8827
  170MOL0     O22850   4.597   3.053   7.516  0.5733  0.3139  0.2274
  170MOL0     C22851   4.691   3.033   7.412  0.5903  0.5220  0.4411
  170MOL0     C22852   4.782   2.917   7.462 -0.7290 -0.0770 -0.2774
  170MOL0     C22853   4.897   2.899   7.358 -0.3372  0.1302 -0.0736
  170MOL0     C22854   4.980   2.776   7.407 -0.0535 -0.7310  0.3512
  170MOL0     C22855   5.094   2.746   7.315  0.0191 -0.0285  0.8910
  170MOL0     C22856   5.226   2.807   7.369  0.3163 -0.3216 -0.2147
  170MOL0     C22857   5.349   2.738   7.305 -0.0028 -0.7329  0.3904
  170MOL0     C22858   5.490   2.772   7.364  0.4834  0.4410  0.0623
  170MOL0    Cl22859   5.512   2.725   7.537 -0.3899  0.8935 -0.3270
  170MOL0     C22860   4.368   3.069   7.575 -0.0684 -0.0843  0.7777
  170MOL0     C22861   4.230   3.104   7.550 -1.1219  0.3676  0.4339
  170MOL0     O22862   4.007   2.981   7.418  0.4446 -0.0220 -0.3114
  170MOL0     C22863   3.770   3.028   7.287 -0.2345 -0.4155  0.2438
  170MOL0     C22864   3.650   3.051   7.234  0.8299 -0.5136 -0.2665
  170MOL0     N22865   2.959   3.464   7.088  0.2493 -0.1567  0.0970
  170MOL0     N22866   2.889   3.510   7.193  0.0292 -1.5159  0.5752
  170MOL0     C22867   2.014   3.998   7.389 -0.6034 -0.5242 -0.4374
  170MOL0     C22868   2.048   4.112   7.456 -0.2209 -0.7043  0.2242
  170MOL0     C22869   2.241   4.465   7.615  0.0265  0.3266 -0.5775
  170MOL0     C22870   2.142   4.478   7.713  0.0700 -0.5904 -0.6798
  170MOL0     C22871   2.136   4.583   7.798 -0.4187 -0.3718 -0.4963
  170MOL0     C22872   2.230   4.681   7.803 -0.0756  0.2886  0.6420
  170MOL0     O22873   2.217   4.790   7.888 -0.3056 -0.2258  0.3488
  170MOL0     C22874   2.147   4.910   7.832 -0.3519 -0.5718 -0.9158
  170MOL0     C22875   2.019   4.884   7.745 -0.2971  0.6219 -0.2364
  170MOL0     C22876   1.888   4.849   7.828 -0.4896  0.6418 -0.2531
  170MOL0     C22877   1.759   4.877   7.736 -0.9090 -1.1060 -0.1974
  170MOL0     C22878   1.634   4.890   7.808  0.0729  0.1445 -0.3024
  170MOL0     C22879   1.544   4.915   7.873  0.7314  0.1523  0.5899
  170MOL0     C22880   2.322   4.676   7.700 -0.6152 -0.3591  1.2273
  170MOL0     C22881   2.329   4.570   7.603  0.6593  0.2768  0.0432
  170MOL0     C22882   2.431   4.581   7.494  0.4274  0.3279 -0.5576
  170MOL0     H22883   2.333   4.008   7.618  1.1326  0.8718 -1.5345
  170MOL0     H22884   2.263   3.786   7.508  0.8964  1.1103  2.5859
  170MOL0     H22885   2.024   3.777   7.143  0.8116  3.7503  0.0030
  170MOL0     H22886   2.185   3.829   7.182 -1.0050  1.6945 -0.5537
  170MOL0     H22887   2.222   3.625   7.073 -0.9121  1.0675 -0.8278
  170MOL0     H22888   2.079   3.546   7.156 -0.6080  0.9090  1.1350
  170MOL0     H22889   2.202   3.546   7.373 -3.7971 -0.0501 -0.6564
  170MOL0     H22890   2.347   3.610   7.284 -0.8451  0.5191  0.9957
  170MOL0     H22891   2.207   3.349   7.229  0.5179 -0.2800 -1.7873
  170MOL0     H22892   2.350   3.404   7.140 -0.5902 -0.1888  0.0098
  170MOL0     H22893   2.383   3.280   7.407 -2.0207  0.4568  0.2898
  170MOL0     H22894   2.445   3.246   7.250  1.2945  1.1692 -0.3737
  170MOL0     H22895   2.585   3.427   7.226  0.0477  1.1684 -0.4738
  170MOL0     H22896   2.531   3.504   7.374 -1.1735  0.1566 -0.1603
  170MOL0     H22897   2.660   3.226   7.357 -0.1271  0.7206 -0.3743
  170MOL0     H22898   2.620   3.325   7.500 -3.1172  2.5871 -0.0596
  170MOL0     H22899   2.777   3.501   7.432  1.7273  0.4748 -0.1357
  170MOL0     H22900   2.868   3.345   7.462  0.4650  2.0760  0.9135
  170MOL0     H22901   2.893   3.188   7.247  1.4097 -0.5115 -0.7797
  170MOL0     H22902   3.012   3.151   7.000 -0.0198 -1.2563 -3.3737
  170MOL0     H22903   3.080   3.287   6.914  0.6990 -2.7103 -1.0337
  170MOL0     H22904   3.241   3.318   7.112  0.9007 -0.4836  1.4734
  170MOL0     H22905   3.177   3.172   7.178  0.9155 -0.5017  1.1432
  170MOL0     H22906   3.308   3.178   6.908  0.9736  1.8795  0.8243
  170MOL0     H22907   3.233   3.041   6.972  0.5580  0.2303 -2.5911
  170MOL0     H22908   3.474   3.030   7.024 -1.6616 -1.4993  0.8248
  170MOL0     H22909   3.375   3.038   7.170  1.8778 -1.3664  0.2861
  170MOL0     H22910   3.673   3.385   7.190  1.2264  1.2707  2.7799
  170MOL0     H22911   3.888   3.350   7.314  0.4445 -0.6938  2.8914
  170MOL0     H22912   4.286   3.243   7.243  0.0794  2.1347  0.1194
  170MOL0     H22913   4.514   3.226   7.306 -3.8733  2.9306 -2.6080
  170MOL0     H22914   4.643   3.005   7.317 -0.7357  4.2582 -0.1775
  170MOL0     H22915   4.745   3.128   7.403  0.9427  0.2892  0.0571
  170MOL0     H22916   4.820   2.955   7.557 -0.0043  2.6526 -1.5541
  170MOL0     H22917   4.730   2.825   7.488 -1.9381  1.1151  1.8382
  170MOL0     H22918   4.848   2.869   7.265 -1.7984 -1.2118  1.0738
  170MOL0     H22919   4.953   2.993   7.355 -0.3748  0.2960  2.2442
  170MOL0     H22920   4.915   2.688   7.402 -0.6812 -0.2183 -0.7500
  170MOL0     H22921   5.002   2.791   7.513 -1.0178 -2.4171  0.8288
  170MOL0     H22922   5.074   2.777   7.212  1.7554  2.1227  1.1194
  170MOL0     H22923   5.101   2.637   7.320 -3.4433 -0.3164  2.3680
  170MOL0     H22924   5.239   2.912   7.340  2.5290 -0.7865 -1.0897
  170MOL0     H22925   5.242   2.785   7.475  3.5721  0.4966 -0.4261
  170MOL0     H22926   5.365   2.775   7.203 -0.3554  0.1931  0.6616
  170MOL0     H22927   5.321   2.632   7.296  1.0617 -1.0482  0.6709
  170MOL0     H22928   5.578   2.734   7.311  2.3443  0.8248  2.6992
  170MOL0     H22929   5.497   2.880   7.353  1.3820  0.5322  1.3292
  170MOL0     H22930   4.396   3.011   7.662  1.8503 -0.9209 -0.3459
  170MOL0     H22931   4.150   3.063   7.612 -0.2674 -0.3644  1.0794
  170MOL0     H22932   3.797   2.927   7.316  0.1946 -0.0738  1.0597
  170MOL0     H22933   3.591   2.963   7.213  2.3186 -2.0118  1.4469
  170MOL0     H22934   1.930   4.004   7.321 -0.7504  0.8713 -0.1751
  170MOL0     H22935   1.981   4.197   7.450 -0.8563 -1.2699 -1.0017
  170MOL0     H22936   2.067   4.403   7.734  0.1851 -0.2805  0.9273
  170MOL0     H22937   2.049   4.581   7.863 -1.7390  2.1962 -2.0258
  170MOL0     H22938   2.219   4.956   7.764  1.8545 -0.8588  1.0881
  170MOL0     H22939   2.131   4.983   7.911  0.9949 -1.2998  0.0777
  170MOL0     H22940   2.031   4.803   7.672  1.1817  2.7106 -2.5103
  170MOL0     H22941   2.004   4.985   7.706  1.0463  1.9801  2.4812
  170MOL0     H22942   1.891   4.923   7.909 -1.5489  0.1758  0.2323
  170MOL0     H22943   1.891   4.748   7.871 -0.7281  0.6390 -0.2404
  170MOL0     H22944   1.776   4.974   7.687  1.7255 -0.8646  1.0317
  170MOL0     H22945   1.760   4.802   7.656  2.3518 -0.4113 -0.9632
  170MOL0     H22946   1.459   4.943   7.933  0.2744 -0.3478  0.1890
  170MOL0     H22947   2.392   4.758   7.689 -2.4783  1.0813 -0.5191
  170MOL0     H22948   2.469   4.480   7.473  0.3431  0.8471 -3.7502
  170MOL0     H22949   2.379   4.621   7.406 -1.3230 -1.3301 -0.3575
  170MOL0     H22950   2.515   4.648   7.510  0.6714 -0.0541 -0.2107
  171MOL0     O22951   0.857   3.398   9.853  0.4307  0.3120 -0.0739
  171MOL0     C22952   0.757   3.440   9.907 -0.7014 -0.3158  1.4215
  171MOL0     O22953   0.754   3.512  10.015 -0.4929  0.3866  0.7721
  171MOL0     C22954   0.867   3.542  10.090 -0.5929 -0.5017  0.9902
  171MOL0     C22955   0.869   3.507  10.222  0.5346 -0.3570  0.4733
  171MOL0     C22956   0.972   3.553  10.303  0.1520  0.3104  0.3494
  171MOL0     C22957   1.082   3.628  10.256  0.4393 -0.2167 -1.0242
  171MOL0     O22958   1.173   3.685  10.339 -0.7051 -0.1707  0.8359
  171MOL0     C22959   1.226   3.583  10.427  0.0330  0.4057  0.7886
  171MOL0     C22960   1.369   3.610  10.461 -0.1901 -1.1980 -0.1850
  171MOL0     C22961   1.462   3.587  10.339 -0.3140 -0.0788 -0.7521
  171MOL0     C22962   1.610   3.569  10.385  0.0819 -0.2941  0.5087
  171MOL0     C22963   1.712   3.553  10.265 -0.2419  0.3202 -0.0541
  171MOL0     C22964   1.857   3.559  10.304  0.0346  0.2089 -0.5176
  171MOL0     C22965   1.944   3.573  10.183 -0.5708 -0.1470  0.5701
  171MOL0     C22966   2.099   3.573  10.217 -0.8062  0.5748 -0.2488
  171MOL0     N22967   2.178   3.611  10.097 -0.5229 -0.1340 -0.3460
  171MOL0     C22968   2.310   3.569  10.082  0.2043 -0.2278  0.0620
  171MOL0     C22969   2.349   3.612   9.967  0.1013 -0.1347  0.4683
  171MOL0     C22970   2.460   3.566   9.881  0.2752  0.3575  0.0372
  171MOL0     C22971   2.604   3.588   9.950 -0.4700 -0.1315 -0.4902
  171MOL0     C22972   2.712   3.520   9.881  0.7217 -0.1793 -0.2373
  171MOL0     C22973   2.848   3.560   9.928  0.6001 -0.2672 -1.0483
  171MOL0     O22974   2.861   3.569  10.072 -0.2371  0.4937  0.0164
  171MOL0     C22975   2.988   3.587  10.131 -0.5114  1.8865  0.6236
  171MOL0     C22976   3.107   3.613  10.061  0.7436  0.3553  0.8783
  171MOL0     C22977   3.230   3.622  10.130  0.6000 -0.9621  0.3171
  171MOL0     C22978   3.234   3.606  10.270  0.8947 -0.3863 -0.7486
  171MOL0     C22979   3.368   3.604  10.338 -0.2436 -0.4825  0.7651
  171MOL0     O22980   3.367   3.552  10.463 -0.2238 -0.8951 -0.1874
  171MOL0     C22981   3.480   3.566  10.547  0.2315 -0.2782  0.1386
  171MOL0     C22982   3.509   3.461  10.633 -0.5991  0.5233 -0.1783
  171MOL0     C22983   3.617   3.451  10.718  0.2283  1.2205  0.0122
  171MOL0     C22984   3.716   3.559  10.725 -0.3202  0.3654 -0.3863
  171MOL0     O22985   3.829   3.539  10.799  0.2309  0.9537  0.1529
  171MOL0     C22986   3.928   3.642  10.781 -0.2206  0.2880 -0.1322
  171MOL0     C22987   4.047   3.593  10.857 -0.7316  0.0586  0.4084
  171MOL0     C22988   4.184   3.631  10.790  0.0040 -0.3950 -0.1587
  171MOL0     C22989   4.285   3.518  10.804  0.5719  0.7783 -0.3682
  171MOL0     C22990   4.421   3.564  10.753 -0.7378 -0.4926  0.0327
  171MOL0     C22991   4.534   3.448  10.741  0.1090 -0.5979  0.3623
  171MOL0     C22992   4.655   3.515  10.674 -0.9092 -0.4379 -0.9342
  171MOL0     C22993   4.644   3.568  10.536 -0.2297 -0.0604  1.8379
  171MOL0    Cl22994   4.801   3.642  10.487 -0.5323  0.2836  0.2734
  171MOL0     C22995   3.681   3.671  10.647 -0.0244  0.7915 -0.3402
  171MOL0     C22996   3.572   3.673  10.556 -0.2432  0.3563  0.0778
  171MOL0     O22997   3.465   3.655  10.282 -0.0634  0.1201  0.3174
  171MOL0     C22998   3.113   3.587  10.341  0.3222 -0.2085  0.4645
  171MOL0     C22999   3.000   3.580  10.267  0.2698  0.3639  0.0733
  171MOL0     N23000   2.251   3.698   9.916 -0.8265  0.5704  0.6580
  171MOL0     N23001   2.152   3.698   9.996 -0.5117 -0.2114 -0.7013
  171MOL0     C23002   1.076   3.662  10.126 -0.3838 -0.3825 -0.2885
  171MOL0     C23003   0.976   3.623  10.041  0.0244 -0.0528  0.6253
  171MOL0     C23004   0.633   3.386   9.853 -0.1121  0.0652  0.8720
  171MOL0     C23005   0.645   3.296   9.747 -0.2668  0.2301  0.7273
  171MOL0     C23006   0.538   3.234   9.686  0.4820 -0.4131  0.9924
  171MOL0     C23007   0.410   3.251   9.741  0.6777  0.3798 -0.6066
  171MOL0     O23008   0.295   3.185   9.682 -0.9829 -0.8981  0.0783
  171MOL0     C23009   0.193   3.154   9.773 -0.1715 -0.3477  0.1576
  171MOL0     C23010   0.075   3.098   9.693  0.0778 -0.2939 -0.7334
  171MOL0     C23011   0.038   3.151   9.555  0.2876 -0.5862 -0.3665
  171MOL0     C23012  -0.083   3.084   9.490 -0.2042 -0.0972  0.5770
  171MOL0     C23013  -0.207   3.137   9.542  0.6127  0.4729  0.3088
  171MOL0     C23014  -0.314   3.171   9.587  1.2699  0.5695  0.6492
  171MOL0     C23015   0.400   3.339   9.847 -0.4285 -0.3168 -0.2379
  171MOL0     C23016   0.506   3.420   9.896  0.3228  0.4590 -0.2482
  171MOL0     C23017   0.473   3.522  10.002  0.3924  0.1135  0.1250
  171MOL0     H23018   0.782   3.444  10.242  1.1009 -1.5025 -0.5208
  171MOL0     H23019   0.989   3.541  10.409  0.7031  2.6063  0.5846
  171MOL0     H23020   1.167   3.581  10.519 -0.3111  0.3489  0.5658
  171MOL0     H23021   1.221   3.485  10.379 -1.8907  1.6139 -1.7441
  171MOL0     H23022   1.407   3.555  10.548 -0.9371  1.7385  2.1511
  171MOL0     H23023   1.377   3.714  10.492  2.2890 -1.3724  0.0102
  171MOL0     H23024   1.456   3.676  10.275 -0.1274  1.1262  0.8304
  171MOL0     H23025   1.436   3.500  10.279  0.4983 -1.4632  0.8383
  171MOL0     H23026   1.626   3.643  10.464 -1.5796 -1.1620  1.7322
  171MOL0     H23027   1.612   3.473  10.439 -4.7780 -1.0709 -0.2432
  171MOL0     H23028   1.686   3.459  10.214 -1.7424 -0.3677  1.8536
  171MOL0     H23029   1.700   3.623  10.182  3.1052  2.7203  1.2948
  171MOL0     H23030   1.885   3.633  10.380 -0.8061 -1.3378  1.4168
  171MOL0     H23031   1.883   3.463  10.350 -0.8983  1.2403  2.4590
  171MOL0     H23032   1.919   3.669  10.138 -2.4407 -0.3047  1.1946
  171MOL0     H23033   1.916   3.501  10.105  1.2749 -1.3896  0.9855
  171MOL0     H23034   2.125   3.647  10.293 -1.5478  0.2282  0.3551
  171MOL0     H23035   2.132   3.474  10.251  0.0422  1.5566  1.9999
  171MOL0     H23036   2.349   3.488  10.143 -1.8716 -2.3856 -1.2786
  171MOL0     H23037   2.440   3.460   9.861 -1.2863  0.1506  2.2513
  171MOL0     H23038   2.447   3.614   9.784 -0.4780  1.7327  0.7974
  171MOL0     H23039   2.628   3.695   9.955  1.6001 -0.5840  0.3529
  171MOL0     H23040   2.596   3.545  10.050 -3.9503 -2.6739 -1.6775
  171MOL0     H23041   2.698   3.539   9.774 -1.1162 -1.0734 -0.1937
  171MOL0     H23042   2.707   3.412   9.898 -1.8274 -0.1735 -0.5751
  171MOL0     H23043   2.869   3.662   9.893  3.2063  0.5293  2.2916
  171MOL0     H23044   2.918   3.483   9.895  0.5784 -1.7119  1.9737
  171MOL0     H23045   3.117   3.624   9.953 -2.5188  2.5732  0.6738
  171MOL0     H23046   3.313   3.644  10.063  0.0719 -1.0183 -0.3751
  171MOL0     H23047   3.439   3.378  10.635 -0.6183  0.5476  0.5660
  171MOL0     H23048   3.613   3.357  10.773  1.1102  0.9850 -0.2939
  171MOL0     H23049   3.957   3.656  10.677 -1.7566 -0.6172 -0.7040
  171MOL0     H23050   3.898   3.736  10.830 -3.7095  0.7406 -2.7956
  171MOL0     H23051   4.047   3.619  10.963  0.1683 -1.6991  0.8849
  171MOL0     H23052   4.046   3.484  10.846 -0.6821  0.2193 -1.5807
  171MOL0     H23053   4.166   3.642  10.682 -1.7485  0.2829  0.1544
  171MOL0     H23054   4.212   3.733  10.818  3.0310 -0.8130 -1.3114
  171MOL0     H23055   4.264   3.423  10.754  1.6952 -0.4970  1.4438
  171MOL0     H23056   4.305   3.490  10.908 -0.8336  1.4061  0.0981
  171MOL0     H23057   4.453   3.649  10.815 -1.0839 -0.0138 -0.4396
  171MOL0     H23058   4.422   3.619  10.659  1.1480  1.2176  0.9591
  171MOL0     H23059   4.557   3.430  10.847  0.6902  1.5168  0.6471
  171MOL0     H23060   4.505   3.354  10.694 -0.9609 -0.4924  0.7753
  171MOL0     H23061   4.742   3.451  10.690 -2.7016 -3.6054 -2.8434
  171MOL0     H23062   4.678   3.609  10.726 -0.8405 -1.4783  1.0341
  171MOL0     H23063   4.617   3.478  10.481  2.0242 -0.2564  0.9495
  171MOL0     H23064   4.572   3.650  10.527 -1.1751 -0.9109  1.5204
  171MOL0     H23065   3.733   3.765  10.665 -1.5612  1.7879 -0.8708
  171MOL0     H23066   3.562   3.760  10.492  0.2545  0.4929  0.1786
  171MOL0     H23067   3.108   3.578  10.449 -1.7088 -0.9255  0.3388
  171MOL0     H23068   2.913   3.580  10.332 -1.2538 -2.4632 -1.7483
  171MOL0     H23069   1.140   3.739  10.085  0.1524 -0.5555  0.2083
  171MOL0     H23070   0.976   3.660   9.939  4.8681 -2.2456 -0.4180
  171MOL0     H23071   0.742   3.276   9.701 -0.1079  2.9071 -0.2825
  171MOL0     H23072   0.543   3.161   9.606  0.8967  1.1631 -0.4807
  171MOL0     H23073   0.162   3.250   9.813  0.6824  0.1472 -0.3278
  171MOL0     H23074   0.220   3.106   9.868  1.2873  2.5465  1.3179
  171MOL0     H23075  -0.017   3.123   9.749 -0.8259 -1.4234 -1.6611
  171MOL0     H23076   0.070   2.989   9.700 -1.7533 -0.1629  3.6984
  171MOL0     H23077   0.132   3.140   9.500  1.6181  2.3369  1.1144
  171MOL0     H23078   0.024   3.259   9.554  0.1604 -0.5960  0.0120
  171MOL0     H23079  -0.082   3.096   9.381 -0.3323  1.3972  0.7151
  171MOL0     H23080  -0.080   2.976   9.510 -0.0727 -0.6723 -2.1107
  171MOL0     H23081  -0.409   3.201   9.627 -0.1333 -4.7248  2.1636
  171MOL0     H23082   0.301   3.364   9.884 -0.0634 -0.5627  0.9484
  171MOL0     H23083   0.368   3.528  10.029  0.1016 -0.1765 -0.8959
  171MOL0     H23084   0.525   3.505  10.096  1.6885 -0.9479 -0.7304
  171MOL0     H23085   0.498   3.618   9.955 -1.4676 -0.2394 -1.7556
  172MOL0     O23086   1.034  10.246   6.986 -0.5745  0.5231 -0.0621
  172MOL0     C23087   0.918  10.284   6.974 -0.0013  0.5577 -0.4455
  172MOL0     O23088   0.853  10.284   6.862  0.4137  0.4740 -0.1067
  172MOL0     C23089   0.927  10.277   6.745 -0.3630  0.6571 -1.1555
  172MOL0     C23090   1.045  10.360   6.728  0.2358 -1.0165 -0.8212
  172MOL0     C23091   1.134  10.329   6.619  0.2399 -0.4192  0.1785
  172MOL0     C23092   1.116  10.224   6.527 -0.2870  0.2149  0.0188
  172MOL0     O23093   1.207  10.214   6.421 -0.2701  1.3327 -0.5660
  172MOL0     C23094   1.206  10.095   6.334  0.0995  0.1626 -1.1818
  172MOL0     C23095   1.270  10.128   6.197 -0.4037  0.0756 -0.3024
  172MOL0     C23096   1.406  10.197   6.192 -0.3236 -0.9478  0.1716
  172MOL0     C23097   1.507  10.127   6.277 -0.2235 -0.1919  0.5546
  172MOL0     C23098   1.644  10.179   6.229 -0.5779 -0.0341 -0.0224
  172MOL0     C23099   1.753  10.135   6.333 -0.0064  1.1130  0.1436
  172MOL0     C23100   1.894  10.191   6.310  0.7602 -0.3748  0.2880
  172MOL0     C23101   1.962  10.125   6.195 -0.4449 -0.1116 -0.0500
  172MOL0     N23102   2.098  10.188   6.183 -0.1137 -0.5190 -0.0722
  172MOL0     C23103   2.210  10.163   6.260  0.1280 -0.1264  0.1181
  172MOL0     C23104   2.297  10.249   6.214 -0.7681 -0.1856  0.3709
  172MOL0     C23105   2.450  10.248   6.250  1.1708 -0.8464 -0.0231
  172MOL0     C23106   2.525  10.367   6.199 -0.2374  0.3071 -0.0063
  172MOL0     C23107   2.685  10.333   6.204  0.1504 -0.3180 -0.1914
  172MOL0     C23108   2.760  10.454   6.163 -0.2552 -0.5938  0.0766
  172MOL0     O23109   2.772  10.557   6.272  0.1569 -0.9247 -0.0418
  172MOL0     C23110   2.900  10.573   6.318 -0.9689 -0.1882 -0.0225
  172MOL0     C23111   2.993  10.652   6.249  0.0679  1.0768 -0.0234
  172MOL0     C23112   3.123  10.673   6.296  0.1829 -0.0612  0.2051
  172MOL0     C23113   3.169  10.615   6.417 -0.0002  0.8317 -0.4052
  172MOL0     C23114   3.303  10.639   6.469  0.4145  0.0082  0.0126
  172MOL0     O23115   3.383  10.729   6.403 -0.3654  0.2683 -0.1129
  172MOL0     C23116   3.507  10.783   6.444  0.4068 -0.5950  0.1848
  172MOL0     C23117   3.586  10.748   6.562  0.0316  0.0453  0.3777
  172MOL0     C23118   3.726  10.782   6.573 -0.1378  0.9926  0.5850
  172MOL0     C23119   3.783  10.860   6.479  0.1455  0.5028  0.2892
  172MOL0     O23120   3.910  10.886   6.503 -0.3752 -0.1660 -0.0376
  172MOL0     C23121   3.955  11.011   6.453  0.5546 -0.2350  0.6663
  172MOL0     C23122   4.036  11.093   6.558 -0.2187 -0.0481 -0.0303
  172MOL0     C23123   4.134  11.019   6.662  0.0681  0.0185  0.4801
  172MOL0     C23124   4.250  10.955   6.588 -0.1536 -0.1190  0.6416
  172MOL0     C23125   4.353  10.882   6.665 -0.4994  0.4880 -0.1499
  172MOL0     C23126   4.452  10.970   6.742 -0.0669  0.2502 -0.3047
  172MOL0     C23127   4.558  10.894   6.829 -0.3771  0.9635 -0.0151
  172MOL0     C23128   4.682  10.979   6.872  0.0614 -0.3278 -0.2840
  172MOL0    Cl23129   4.775  10.995   6.727  0.1763  0.1639 -0.2514
  172MOL0     C23130   3.705  10.894   6.365 -0.3982 -0.5095  0.3718
  172MOL0     C23131   3.577  10.856   6.345  1.1570 -0.2238 -0.9072
  172MOL0     O23132   3.337  10.566   6.562 -0.2275 -0.0333 -0.1547
  172MOL0     C23133   3.069  10.542   6.495 -0.2071  0.4932  0.5009
  172MOL0     C23134   2.940  10.517   6.439 -0.3765 -0.0527 -0.1300
  172MOL0     N23135   2.240  10.339   6.129  0.7056 -0.0648 -0.2024
  172MOL0     N23136   2.119  10.292   6.102 -0.5209 -0.2796 -0.4867
  172MOL0     C23137   0.999  10.154   6.543  0.2009 -0.3847 -0.0852
  172MOL0     C23138   0.912  10.177   6.651  0.4204  0.5859  0.4702
  172MOL0     C23139   0.840  10.328   7.099 -0.4393  0.3238 -0.3094
  172MOL0     C23140   0.715  10.406   7.086  0.2922 -0.4125  1.0526
  172MOL0     C23141   0.640  10.440   7.202  0.2362 -1.3088  0.1371
  172MOL0     C23142   0.691  10.420   7.330 -0.2485 -0.5104 -0.6981
  172MOL0     O23143   0.630  10.458   7.451 -0.6490 -0.3788 -0.6816
  172MOL0     C23144   0.489  10.435   7.446  0.5257 -0.3661  0.5569
  172MOL0     C23145   0.434  10.467   7.594  0.5629  0.4033  0.3037
  172MOL0     C23146   0.284  10.489   7.616 -0.3729 -0.6558  0.2588
  172MOL0     C23147   0.252  10.642   7.612  0.1674  0.8828  0.1802
  172MOL0     C23148   0.117  10.669   7.647 -0.5069  0.1513  0.3643
  172MOL0     C23149  -0.005  10.685   7.655 -0.6412 -0.5709  0.3969
  172MOL0     C23150   0.818  10.364   7.341  0.2545  0.0244 -0.2644
  172MOL0     C23151   0.891  10.315   7.235 -0.0779  0.0402  0.9838
  172MOL0     C23152   1.015  10.244   7.255 -0.7591 -0.1157 -1.2394
  172MOL0     H23153   1.065  10.431   6.808 -1.6980 -1.0116 -0.2917
  172MOL0     H23154   1.223  10.390   6.627  0.7874 -1.3468  1.6015
  172MOL0     H23155   1.265  10.015   6.380 -1.9982 -0.9754 -0.3276
  172MOL0     H23156   1.104  10.057   6.321 -0.3794  0.5868  0.9779
  172MOL0     H23157   1.202  10.194   6.143  1.6298  0.5432 -2.4914
  172MOL0     H23158   1.280  10.041   6.131 -2.6233 -1.3903  1.2004
  172MOL0     H23159   1.404  10.298   6.232  2.2820 -1.0716  0.8146
  172MOL0     H23160   1.448  10.211   6.092  2.0004  1.3137  1.3466
  172MOL0     H23161   1.491  10.141   6.384  2.7359 -2.2890  1.3781
  172MOL0     H23162   1.497  10.019   6.264  0.8295 -0.1248 -1.0554
  172MOL0     H23163   1.683  10.148   6.132 -1.9030  3.0465 -1.6481
  172MOL0     H23164   1.647  10.288   6.224  0.1736  0.0232  1.2148
  172MOL0     H23165   1.716  10.181   6.425 -0.9201 -0.2071  0.4760
  172MOL0     H23166   1.771  10.029   6.355  1.1243  1.7385  2.5330
  172MOL0     H23167   1.962  10.185   6.395  0.7460  2.0342  0.5384
  172MOL0     H23168   1.880  10.298   6.292 -4.3800 -0.4470  2.1341
  172MOL0     H23169   1.978  10.019   6.216  1.2000 -0.2025 -1.5226
  172MOL0     H23170   1.903  10.128   6.103 -2.1373  2.8716  1.0056
  172MOL0     H23171   2.228  10.086   6.335 -0.1369 -0.1424  0.1663
  172MOL0     H23172   2.471  10.245   6.358  2.2391  3.0330 -0.0037
  172MOL0     H23173   2.500  10.163   6.202  0.0059 -1.1997 -0.6481
  172MOL0     H23174   2.491  10.388   6.098  1.6197  0.3595 -0.6550
  172MOL0     H23175   2.493  10.454   6.258 -5.3332 -0.0289 -1.7642
  172MOL0     H23176   2.710  10.251   6.136  0.9933 -0.1899 -0.0390
  172MOL0     H23177   2.702  10.310   6.309 -3.2896 -1.7812  0.1776
  172MOL0     H23178   2.716  10.505   6.077  0.0760 -1.2283 -0.4725
  172MOL0     H23179   2.859  10.422   6.132 -0.8710 -0.7583 -1.8577
  172MOL0     H23180   2.957  10.692   6.155 -2.8767 -0.1273  0.4979
  172MOL0     H23181   3.190  10.732   6.234 -0.7354  1.2288  0.4042
  172MOL0     H23182   3.538  10.682   6.634 -1.7988  0.3879 -0.4572
  172MOL0     H23183   3.798  10.757   6.650  2.0230  2.1919 -0.9600
  172MOL0     H23184   4.018  10.994   6.365 -0.9029  1.3944 -0.7865
  172MOL0     H23185   3.880  11.080   6.412  1.9843  0.8401 -0.2346
  172MOL0     H23186   4.096  11.162   6.498  0.9128  1.0756  2.2570
  172MOL0     H23187   3.976  11.153   6.628  1.4196  0.9348  0.5923
  172MOL0     H23188   4.181  11.092   6.729  0.7360 -0.8196  0.9513
  172MOL0     H23189   4.076  10.953   6.726  0.8778 -1.6476 -0.4383
  172MOL0     H23190   4.313  11.036   6.549 -1.6073  0.6582 -0.1590
  172MOL0     H23191   4.212  10.891   6.507 -0.4564 -2.6617  2.6345
  172MOL0     H23192   4.412  10.802   6.619  0.0738 -1.3733  3.4667
  172MOL0     H23193   4.302  10.821   6.740 -2.6671  3.1660  0.7203
  172MOL0     H23194   4.516  11.026   6.673  0.8330  0.3238  0.5633
  172MOL0     H23195   4.396  11.043   6.802  1.1006  0.5036  0.5017
  172MOL0     H23196   4.588  10.796   6.793  0.3755  0.5557  1.6287
  172MOL0     H23197   4.500  10.869   6.918 -1.6508  2.8635 -0.2420
  172MOL0     H23198   4.655  11.072   6.923  0.3286  0.7864 -2.0549
  172MOL0     H23199   4.743  10.917   6.938 -0.6260 -1.5067 -0.7328
  172MOL0     H23200   3.756  10.941   6.282  0.5430  0.0383  1.2419
  172MOL0     H23201   3.525  10.885   6.254 -1.0116 -1.1891 -0.0664
  172MOL0     H23202   3.090  10.497   6.592 -0.6332 -0.9619 -0.0640
  172MOL0     H23203   2.870  10.460   6.500  1.4593 -0.6098  1.5371
  172MOL0     H23204   0.987  10.055   6.500 -0.7543  0.1596 -1.1308
  172MOL0     H23205   0.835  10.102   6.664  0.6974 -0.1642 -1.7478
  172MOL0     H23206   0.672  10.428   6.989  0.0623 -2.0778  0.7396
  172MOL0     H23207   0.539  10.479   7.194 -1.0790 -4.2151  1.1015
  172MOL0     H23208   0.474  10.329   7.425  1.0952 -0.1649 -1.0096
  172MOL0     H23209   0.443  10.499   7.369  0.5083 -1.5792 -0.4772
  172MOL0     H23210   0.492  10.539   7.654 -1.0916  2.5008 -0.4878
  172MOL0     H23211   0.462  10.372   7.642  0.2818 -0.5993 -1.4326
  172MOL0     H23212   0.259  10.447   7.714 -0.1365  3.0581  2.0693
  172MOL0     H23213   0.232  10.448   7.529 -0.3572 -0.2303  0.0473
  172MOL0     H23214   0.320  10.705   7.670 -0.1151  0.7840  0.6175
  172MOL0     H23215   0.280  10.670   7.510 -0.4359 -0.7108 -0.4508
  172MOL0     H23216  -0.109  10.710   7.654 -0.2649  1.0992 -1.2705
  172MOL0     H23217   0.852  10.352   7.444 -3.7648  1.1016  1.4135
  172MOL0     H23218   1.006  10.139   7.225  1.6513 -0.4139 -1.1422
  172MOL0     H23219   1.098  10.292   7.201 -1.5526  1.6628 -0.9341
  172MOL0     H23220   1.042  10.253   7.361 -0.6728  2.6290 -1.4372
  173MOL0     O23221   6.545   6.962   9.416 -0.8199 -0.4493 -0.0746
  173MOL0     C23222   6.500   6.922   9.522 -0.2374  0.0030 -1.0042
  173MOL0     O23223   6.571   6.858   9.622 -0.6318  0.1867 -0.0828
  173MOL0     C23224   6.709   6.838   9.614  0.2811  0.4816 -0.5375
  173MOL0     C23225   6.796   6.880   9.715 -0.0424  0.1471  0.6337
  173MOL0     C23226   6.927   6.850   9.707 -1.3777  0.5928  0.4250
  173MOL0     C23227   6.983   6.784   9.600  0.2184  1.0213 -0.0741
  173MOL0     O23228   7.117   6.746   9.598  0.5328  0.2189 -0.2345
  173MOL0     C23229   7.144   6.633   9.688  0.3496  0.3184 -0.0297
  173MOL0     C23230   7.256   6.660   9.788  0.3233  0.1792 -0.5163
  173MOL0     C23231   7.389   6.607   9.743 -0.3405  0.1054 -0.4372
  173MOL0     C23232   7.455   6.704   9.651 -0.2034 -0.1177 -0.1558
  173MOL0     C23233   7.590   6.649   9.598  0.2444 -0.5735  0.1445
  173MOL0     C23234   7.699   6.653   9.700  0.2122 -0.5504  0.0689
  173MOL0     C23235   7.837   6.666   9.639 -0.3126  0.1154  0.0675
  173MOL0     C23236   7.868   6.550   9.547 -0.3248  0.6373  0.2428
  173MOL0     N23237   8.007   6.552   9.499  0.0465  0.5487 -0.1924
  173MOL0     C23238   8.027   6.583   9.366 -1.0714 -0.4958  0.5096
  173MOL0     C23239   8.158   6.615   9.366 -1.0302  0.1820 -0.0124
  173MOL0     C23240   8.228   6.684   9.252 -0.5810  0.3212 -0.5027
  173MOL0     C23241   8.210   6.838   9.275 -0.0857 -0.1765 -0.6285
  173MOL0     C23242   8.246   6.895   9.411  0.4581 -0.0871  0.5401
  173MOL0     C23243   8.394   6.870   9.428 -0.8397  0.5617 -0.0283
  173MOL0     O23244   8.471   6.937   9.329 -0.4458  0.4407 -0.7586
  173MOL0     C23245   8.608   6.938   9.353 -0.5841  0.5879 -0.3633
  173MOL0     C23246   8.669   6.888   9.470 -1.3761  0.1445 -0.1123
  173MOL0     C23247   8.805   6.897   9.491  0.3291 -0.1661  0.3701
  173MOL0     C23248   8.899   6.921   9.380  0.2374 -0.6146  0.7316
  173MOL0     C23249   9.039   6.892   9.392 -0.5447  0.6730 -0.3140
  173MOL0     O23250   9.111   6.872   9.281 -0.0094  0.1086 -0.0260
  173MOL0     C23251   9.247   6.853   9.282  0.2845  0.0972 -0.3874
  173MOL0     C23252   9.288   6.753   9.201 -0.6262 -0.8401  0.7780
  173MOL0     C23253   9.425   6.725   9.192 -0.4244  0.2588 -0.4018
  173MOL0     C23254   9.516   6.773   9.293  0.7550  0.1195 -0.7670
  173MOL0     O23255   9.646   6.726   9.304  0.0072 -0.4792  0.3570
  173MOL0     C23256   9.714   6.686   9.194 -0.3940 -0.3813  0.8494
  173MOL0     C23257   9.865   6.659   9.240  0.3955 -0.4073  0.8340
  173MOL0     C23258   9.949   6.773   9.303  0.6231  0.3542  0.3296
  173MOL0     C23259  10.076   6.717   9.367 -0.1885  0.5768  0.7915
  173MOL0     C23260  10.164   6.645   9.268 -0.3440  0.1788  0.0304
  173MOL0     C23261  10.298   6.598   9.347  0.3831 -0.3066  0.6774
  173MOL0     C23262  10.408   6.552   9.252 -0.8703  0.0696  0.0537
  173MOL0     C23263  10.499   6.462   9.336  0.1042  0.0833  0.2416
  173MOL0    Cl23264  10.670   6.427   9.265 -0.6085 -0.0555 -0.2483
  173MOL0     C23265   9.468   6.868   9.386  0.5023  0.2814  0.3745
  173MOL0     C23266   9.336   6.915   9.375  0.2655  0.0227  0.5165
  173MOL0     O23267   9.082   6.881   9.512 -0.6370  0.1543  0.2969
  173MOL0     C23268   8.841   6.961   9.257 -0.0094  0.0262  0.1159
  173MOL0     C23269   8.698   6.984   9.249  0.3753  0.1420  0.4011
  173MOL0     N23270   8.216   6.579   9.493 -0.1089 -0.1837 -0.2150
  173MOL0     N23271   8.122   6.547   9.567  0.3224 -0.6653 -0.4477
  173MOL0     C23272   6.901   6.759   9.491  0.7850  0.1320 -0.4543
  173MOL0     C23273   6.766   6.781   9.504 -0.1847 -0.4989  0.1639
  173MOL0     C23274   6.359   6.919   9.537  0.6247 -0.5345 -0.0922
  173MOL0     C23275   6.275   6.845   9.448 -0.0616  0.1694 -0.6559
  173MOL0     C23276   6.141   6.827   9.476 -0.3087 -0.4833  0.2612
  173MOL0     C23277   6.081   6.897   9.580 -0.2198  0.0644  0.0791
  173MOL0     O23278   5.948   6.882   9.611  0.0775  0.8016  0.5771
  173MOL0     C23279   5.866   6.794   9.529 -0.5593  0.1082  0.5894
  173MOL0     C23280   5.714   6.800   9.552 -0.1610 -0.3201  0.2748
  173MOL0     C23281   5.666   6.834   9.700  0.1520  0.1624 -0.1104
  173MOL0     C23282   5.529   6.892   9.711  1.2194  0.5235 -0.1840
  173MOL0     C23283   5.444   6.780   9.666 -0.2312  0.0543 -0.4362
  173MOL0     C23284   5.360   6.694   9.644 -0.3540  0.2670 -0.4037
  173MOL0     C23285   6.159   6.975   9.660  0.0376  0.9221 -0.6704
  173MOL0     C23286   6.291   6.993   9.642 -0.6053 -0.4102  0.5841
  173MOL0     C23287   6.379   7.080   9.734  0.4305 -1.0006  0.0889
  173MOL0     H23288   6.757   6.936   9.800 -1.8825  0.9535 -0.6651
  173MOL0     H23289   7.001   6.878   9.781  0.8465 -2.7759 -0.2906
  173MOL0     H23290   7.056   6.586   9.733 -0.8266  0.4218 -2.1245
  173MOL0     H23291   7.180   6.555   9.621  2.3462  2.9059 -2.2013
  173MOL0     H23292   7.234   6.606   9.881  0.9207 -0.4240 -0.7155
  173MOL0     H23293   7.262   6.769   9.798 -0.4095  0.0978  1.1189
  173MOL0     H23294   7.385   6.508   9.695  2.4378 -0.0526 -0.5546
  173MOL0     H23295   7.456   6.604   9.830  1.0219  0.6365 -1.4256
  173MOL0     H23296   7.398   6.722   9.560 -0.5295 -1.3919 -0.2192
  173MOL0     H23297   7.472   6.802   9.696  0.7006  1.7252 -4.0852
  173MOL0     H23298   7.569   6.544   9.575  0.3733 -1.7828  4.7293
  173MOL0     H23299   7.619   6.713   9.514  0.6766  0.7457  1.2623
  173MOL0     H23300   7.684   6.742   9.762  1.1802 -0.3169 -0.0218
  173MOL0     H23301   7.693   6.560   9.758  1.0585 -2.3364 -2.5150
  173MOL0     H23302   7.914   6.672   9.716 -1.1350 -1.6694  1.0793
  173MOL0     H23303   7.840   6.759   9.582  0.7844 -0.8185 -1.4838
  173MOL0     H23304   7.846   6.453   9.591  1.0358  0.1644 -0.0920
  173MOL0     H23305   7.800   6.548   9.461  2.0543 -1.2688 -1.7456
  173MOL0     H23306   7.955   6.588   9.284 -1.2276 -1.4432  0.5731
  173MOL0     H23307   8.335   6.662   9.242 -1.1557 -5.1787  2.0222
  173MOL0     H23308   8.182   6.654   9.157  0.2788  1.5768 -1.3476
  173MOL0     H23309   8.264   6.894   9.198 -1.3723  1.5934 -0.3028
  173MOL0     H23310   8.105   6.866   9.265 -0.3609 -0.7484  0.4615
  173MOL0     H23311   8.191   6.839   9.487 -0.4877 -1.1696 -0.8789
  173MOL0     H23312   8.214   7.000   9.411 -0.1572 -0.2087 -2.1651
  173MOL0     H23313   8.421   6.764   9.426  2.4694  1.2960 -0.4481
  173MOL0     H23314   8.425   6.903   9.527  4.0372 -2.0562 -0.3527
  173MOL0     H23315   8.618   6.835   9.550  0.7778  1.5266  2.3119
  173MOL0     H23316   8.849   6.856   9.581 -0.5958 -2.2783 -0.0956
  173MOL0     H23317   9.213   6.707   9.137  0.4943 -0.6848 -0.7097
  173MOL0     H23318   9.466   6.658   9.117 -0.0455 -2.2871  1.9292
  173MOL0     H23319   9.685   6.587   9.156  0.6626 -0.6608  0.7386
  173MOL0     H23320   9.705   6.758   9.112  2.2156 -3.7505 -2.8330
  173MOL0     H23321   9.855   6.575   9.310 -0.8230  1.7436  3.4117
  173MOL0     H23322   9.916   6.616   9.153 -1.6138  0.5518 -0.9082
  173MOL0     H23323   9.986   6.838   9.223 -1.1910 -0.3328 -1.1420
  173MOL0     H23324   9.889   6.829   9.376  0.2275 -2.3012  2.1935
  173MOL0     H23325  10.050   6.642   9.442  0.6847 -1.3507 -0.7254
  173MOL0     H23326  10.131   6.801   9.410 -0.7226  1.9104 -1.0388
  173MOL0     H23327  10.195   6.723   9.199 -1.6029 -1.0872 -2.0626
  173MOL0     H23328  10.123   6.556   9.221 -2.1451  0.8828  0.1956
  173MOL0     H23329  10.331   6.684   9.406  1.6349 -0.7180  0.5908
  173MOL0     H23330  10.265   6.513   9.409 -1.3784 -1.9570 -2.3057
  173MOL0     H23331  10.459   6.642   9.214  2.7681 -0.8586  2.3117
  173MOL0     H23332  10.377   6.502   9.160  2.5358  1.5267 -2.0872
  173MOL0     H23333  10.513   6.515   9.431 -0.3856  2.6232 -1.0074
  173MOL0     H23334  10.441   6.370   9.349  1.3521 -0.7723 -0.0406
  173MOL0     H23335   9.523   6.916   9.466  0.1629  1.2426  0.0402
  173MOL0     H23336   9.317   6.995   9.446 -0.1025 -0.4116  0.9157
  173MOL0     H23337   8.903   6.983   9.170  0.0983  2.0101  0.6259
  173MOL0     H23338   8.660   7.021   9.154  2.3065 -1.2942 -1.0078
  173MOL0     H23339   6.931   6.721   9.394 -5.2232 -1.0196 -2.2693
  173MOL0     H23340   6.710   6.758   9.414  1.6934  0.6369 -1.3961
  173MOL0     H23341   6.315   6.790   9.363 -2.7494 -4.3364  0.6979
  173MOL0     H23342   6.079   6.754   9.425 -2.8382  2.2629 -0.9205
  173MOL0     H23343   5.893   6.688   9.533 -0.2851  0.1221 -0.5759
  173MOL0     H23344   5.883   6.833   9.429  3.1649 -0.7449  0.7389
  173MOL0     H23345   5.669   6.706   9.518  0.3727  0.0625 -1.6130
  173MOL0     H23346   5.673   6.865   9.474  3.2506  0.6873 -0.8480
  173MOL0     H23347   5.726   6.911   9.748 -1.6136 -0.1126  2.8017
  173MOL0     H23348   5.675   6.746   9.764  1.3680  1.2528  1.2813
  173MOL0     H23349   5.514   6.926   9.814 -1.3880 -3.0977  0.8483
  173MOL0     H23350   5.515   6.977   9.642  3.7399  2.0210  1.0199
  173MOL0     H23351   5.294   6.621   9.602  1.4427 -2.2173  0.8573
  173MOL0     H23352   6.105   7.024   9.740 -1.7730  1.7378 -2.3025
  173MOL0     H23353   6.488   7.069   9.742  0.5249  0.4677  1.2596
  173MOL0     H23354   6.357   7.185   9.713  0.9769 -0.2633  2.7100
  173MOL0     H23355   6.351   7.069   9.839  2.3015  1.2721  0.9277
  174MOL0     O23356   7.617   9.457  10.302  0.1484  0.3113  0.2405
  174MOL0     C23357   7.558   9.538  10.222 -0.6086  0.9337 -0.8102
  174MOL0     O23358   7.623   9.634  10.141  0.2156  0.4235 -0.1261
  174MOL0     C23359   7.750   9.674  10.170  0.0568 -0.9302  0.0427
  174MOL0     C23360   7.787   9.809  10.192 -0.4251 -0.5192 -0.0094
  174MOL0     C23361   7.922   9.831  10.216  0.3875 -0.0771  0.2059
  174MOL0     C23362   8.027   9.740  10.192  0.0897  0.0886 -0.6744
  174MOL0     O23363   8.161   9.778  10.182 -0.2163 -0.4837 -0.0580
  174MOL0     C23364   8.198   9.917  10.212  0.0169 -0.1500 -0.2439
  174MOL0     C23365   8.343   9.941  10.213 -0.3761 -1.1128 -0.0384
  174MOL0     C23366   8.419   9.854  10.320  0.2556 -0.2910  0.0775
  174MOL0     C23367   8.567   9.891  10.338 -0.6109  0.5141  0.9790
  174MOL0     C23368   8.595  10.008  10.441  0.7004  0.2890 -0.1478
  174MOL0     C23369   8.724  10.090  10.400  0.0998  0.1150 -0.2506
  174MOL0     C23370   8.847  10.005  10.369  0.2276  0.4263 -0.4065
  174MOL0     C23371   8.884   9.912  10.476  0.3268  0.4122 -0.2317
  174MOL0     N23372   9.028   9.887  10.451 -0.7018 -0.1306 -0.4060
  174MOL0     C23373   9.115   9.924  10.545 -0.4592  0.4725 -0.1703
  174MOL0     C23374   9.231   9.882  10.490 -0.0854 -0.3208  0.2207
  174MOL0     C23375   9.366   9.912  10.559 -0.5989  1.0481 -0.2649
  174MOL0     C23376   9.473   9.905  10.463  0.4182 -0.3823  0.0653
  174MOL0     C23377   9.616   9.919  10.521  1.4432 -0.1411  0.9819
  174MOL0     C23378   9.729   9.901  10.421  0.0178 -0.7046 -0.7666
  174MOL0     O23379   9.831   9.984  10.454  0.2144  0.0397  0.3106
  174MOL0     C23380   9.958   9.927  10.480  0.4680  0.9014  0.7881
  174MOL0     C23381   9.979   9.806  10.548  0.1253 -0.4581 -0.3018
  174MOL0     C23382  10.104   9.766  10.584 -0.0084 -0.5506 -0.6673
  174MOL0     C23383  10.218   9.842  10.569 -0.0113  0.6728 -0.0556
  174MOL0     C23384  10.353   9.791  10.606 -0.2607 -0.7825 -0.0608
  174MOL0     O23385  10.444   9.898  10.609  0.2089 -0.1185  0.6257
  174MOL0     C23386  10.571   9.889  10.654 -0.6110  1.0298  0.0841
  174MOL0     C23387  10.626   9.797  10.754 -0.4556 -0.1701 -0.0146
  174MOL0     C23388  10.766   9.805  10.782 -0.0154 -0.6042  0.6309
  174MOL0     C23389  10.845   9.918  10.740 -0.5391  0.6689 -0.5931
  174MOL0     O23390  10.959   9.937  10.811 -0.4033  0.8079  0.3823
  174MOL0     C23391  11.077   9.976  10.745 -0.2225 -0.5132  0.3669
  174MOL0     C23392  11.105  10.129  10.768  0.1820  0.1282  0.1139
  174MOL0     C23393  11.263  10.155  10.746 -0.3974  1.4949 -0.7153
  174MOL0     C23394  11.303  10.290  10.814  0.3429  0.1679 -0.4556
  174MOL0     C23395  11.420  10.360  10.741  0.0430 -0.0711 -0.2423
  174MOL0     C23396  11.437  10.504  10.797 -0.3762  0.8716 -0.3952
  174MOL0     C23397  11.500  10.522  10.937 -0.0234  0.0356 -0.7525
  174MOL0     C23398  11.639  10.455  10.966  0.2285 -0.2248 -0.6852
  174MOL0    Cl23399  11.752  10.488  10.825 -0.0626 -0.0692  0.2533
  174MOL0     C23400  10.788  10.015  10.654 -0.4697  0.3175  0.7097
  174MOL0     C23401  10.657   9.997  10.613  0.3864 -0.0676 -0.7049
  174MOL0     O23402  10.389   9.674  10.610 -0.1516 -0.2985  0.6727
  174MOL0     C23403  10.202   9.964  10.497  0.4973 -1.1459 -0.1196
  174MOL0     C23404  10.075  10.005  10.460  0.1203 -0.7948 -1.0644
  174MOL0     N23405   9.215   9.845  10.358 -0.2981 -0.0246 -1.1741
  174MOL0     N23406   9.088   9.856  10.332 -1.0513  0.2759 -0.0106
  174MOL0     C23407   7.986   9.613  10.145 -0.0549  0.2525 -0.5288
  174MOL0     C23408   7.849   9.579  10.132 -0.6122  0.3355 -0.8344
  174MOL0     C23409   7.414   9.522  10.204 -0.6736  0.1424 -0.7564
  174MOL0     C23410   7.361   9.566  10.082 -0.5699 -0.2179  0.9421
  174MOL0     C23411   7.225   9.563  10.064  0.3592  0.1037  0.3216
  174MOL0     C23412   7.141   9.506  10.153 -0.2843 -0.9335  0.2984
  174MOL0     O23413   7.007   9.496  10.145  0.0301 -0.1996  0.1918
  174MOL0     C23414   6.956   9.438  10.029  0.0120  0.2373  0.2157
  174MOL0     C23415   6.845   9.347  10.077 -0.2624 -0.3344 -0.2465
  174MOL0     C23416   6.893   9.239  10.170  0.6949  0.9225 -0.7475
  174MOL0     C23417   6.846   9.096  10.136 -0.0906  0.0505  0.1491
  174MOL0     C23418   6.699   9.070  10.131 -0.0542 -0.7691 -0.0076
  174MOL0     C23419   6.582   9.046  10.130 -0.3122  0.7649  0.2231
  174MOL0     C23420   7.190   9.460  10.272 -0.1506  0.1535 -0.6755
  174MOL0     C23421   7.325   9.472  10.309 -1.3844 -0.0312  0.0527
  174MOL0     C23422   7.373   9.419  10.442  0.3855 -0.5357 -0.0897
  174MOL0     H23423   7.714   9.888  10.208  0.0098 -0.7517  4.5416
  174MOL0     H23424   7.933   9.934  10.248 -2.9605 -0.3109  2.7520
  174MOL0     H23425   8.149   9.983  10.139  0.2869 -0.2570 -0.5285
  174MOL0     H23426   8.154   9.942  10.309  0.3040  3.9214 -0.9710
  174MOL0     H23427   8.378  10.041  10.238  4.0474 -2.0072 -1.5904
  174MOL0     H23428   8.384   9.920  10.113 -3.2850  0.0724 -1.5831
  174MOL0     H23429   8.411   9.748  10.296  1.9502 -0.5008  0.3455
  174MOL0     H23430   8.369   9.871  10.416  0.9265 -0.9057  0.5443
  174MOL0     H23431   8.630   9.805  10.362  0.4717  1.0993  0.3369
  174MOL0     H23432   8.599   9.925  10.239  1.3013 -4.8020 -0.5673
  174MOL0     H23433   8.510  10.077  10.439 -0.0243 -0.5862 -0.7897
  174MOL0     H23434   8.609   9.965  10.540 -0.1144 -1.4056 -0.7217
  174MOL0     H23435   8.700  10.135  10.304  1.1812 -0.1796 -0.6645
  174MOL0     H23436   8.744  10.168  10.474 -1.0334 -1.9093  2.3671
  174MOL0     H23437   8.932  10.074  10.367  0.0265  0.6700 -0.5793
  174MOL0     H23438   8.837   9.960  10.270  1.3211 -0.5001 -0.1104
  174MOL0     H23439   8.871   9.969  10.569 -3.9974 -0.2252 -0.2625
  174MOL0     H23440   8.827   9.818  10.473  3.6696 -1.8618  1.0819
  174MOL0     H23441   9.097   9.976  10.639 -2.1310  0.9269 -0.7091
  174MOL0     H23442   9.372  10.006  10.614 -0.1907 -0.2478  2.0421
  174MOL0     H23443   9.389   9.819  10.613  1.1369  0.0768 -2.5373
  174MOL0     H23444   9.475   9.821  10.394 -4.6559 -0.7607  0.0049
  174MOL0     H23445   9.445   9.997  10.411  0.2465  0.5047  1.6635
  174MOL0     H23446   9.627   9.844  10.600 -0.8562 -0.2561  1.2710
  174MOL0     H23447   9.630  10.016  10.569  1.8476 -0.3137  1.2154
  174MOL0     H23448   9.703   9.927  10.318  1.7798 -2.2085 -1.6406
  174MOL0     H23449   9.754   9.795  10.416 -0.4200 -0.8463 -0.1516
  174MOL0     H23450   9.890   9.747  10.567 -0.7426  0.6999 -0.6148
  174MOL0     H23451  10.124   9.667  10.622  0.1761 -0.5265 -0.7018
  174MOL0     H23452  10.566   9.715  10.793 -3.1314  1.4152 -0.5205
  174MOL0     H23453  10.824   9.742  10.849  2.5944  2.6336  1.7474
  174MOL0     H23454  11.158   9.923  10.796  2.0754  0.6222 -1.8451
  174MOL0     H23455  11.078   9.939  10.643  1.9757 -0.2082  0.2301
  174MOL0     H23456  11.045  10.182  10.694 -1.2842  1.5288  2.2023
  174MOL0     H23457  11.066  10.175  10.859 -0.9648 -1.6655  0.5719
  174MOL0     H23458  11.331  10.074  10.771 -0.2481  1.2662 -1.8240
  174MOL0     H23459  11.253  10.173  10.639 -1.0576 -0.1390 -0.9515
  174MOL0     H23460  11.312  10.260  10.919 -2.2005 -0.8931 -0.4735
  174MOL0     H23461  11.223  10.365  10.814  2.2970  2.3732 -1.3102
  174MOL0     H23462  11.392  10.370  10.636 -1.5870 -1.9364 -0.0474
  174MOL0     H23463  11.513  10.303  10.740 -1.8572 -3.4443 -0.6735
  174MOL0     H23464  11.508  10.549  10.727 -0.4568 -0.3568 -1.3131
  174MOL0     H23465  11.338  10.549  10.808 -0.5807  0.3605 -0.0996
  174MOL0     H23466  11.425  10.500  11.013 -0.3985  1.7242 -0.5866
  174MOL0     H23467  11.528  10.627  10.950 -0.8633  0.4957 -2.2878
  174MOL0     H23468  11.683  10.504  11.054  0.8871 -1.5620 -0.2513
  174MOL0     H23469  11.627  10.349  10.988  3.1195 -0.9597 -2.2358
  174MOL0     H23470  10.826  10.111  10.622  0.5187 -0.3450 -0.1605
  174MOL0     H23471  10.615  10.077  10.553  1.8476 -0.1031 -1.8485
  174MOL0     H23472  10.294  10.019  10.476  0.6680 -1.1240  0.6641
  174MOL0     H23473  10.070  10.105  10.418 -1.2078 -0.7373 -0.8295
  174MOL0     H23474   8.055   9.534  10.117 -0.5649  0.4754 -2.6011
  174MOL0     H23475   7.813   9.477  10.118 -0.4163  0.3268 -1.2781
  174MOL0     H23476   7.426   9.611  10.008 -1.3791  0.5728  0.6875
  174MOL0     H23477   7.189   9.615   9.976 -0.6361 -0.8565  0.1484
  174MOL0     H23478   7.036   9.389   9.973  0.0140  0.8516 -0.3402
  174MOL0     H23479   6.910   9.512   9.962  0.8539  1.8846  1.3882
  174MOL0     H23480   6.798   9.298   9.991 -2.2038 -0.2003  0.6820
  174MOL0     H23481   6.767   9.408  10.124 -0.8361 -1.6366  0.5229
  174MOL0     H23482   6.854   9.257  10.271 -1.3132 -1.3845 -1.0193
  174MOL0     H23483   7.001   9.229  10.156  0.6798 -1.0253  0.2005
  174MOL0     H23484   6.890   9.077  10.038 -2.2320  0.8553 -1.0340
  174MOL0     H23485   6.898   9.031  10.207  2.7785  2.7978  0.8307
  174MOL0     H23486   6.476   9.036  10.121 -0.2947  1.6036 -1.1512
  174MOL0     H23487   7.125   9.414  10.345  0.4611 -0.6070 -0.5901
  174MOL0     H23488   7.393   9.508  10.503 -2.2059  0.2116 -0.2060
  174MOL0     H23489   7.297   9.353  10.485  0.5010 -2.6518 -2.8407
  174MOL0     H23490   7.458   9.353  10.426  1.5895  0.9550 -0.0291
  175MOL0     O23491  11.055   8.909   6.132  0.1047  0.0084  0.8339
  175MOL0     C23492  10.951   8.841   6.166  0.2819  0.0469  0.6642
  175MOL0     O23493  10.940   8.710   6.165 -0.5638  0.5435 -0.4692
  175MOL0     C23494  11.048   8.630   6.128  0.2718 -0.8539  0.1832
  175MOL0     C23495  11.010   8.510   6.065  0.1206 -0.6209 -0.2602
  175MOL0     C23496  11.107   8.426   6.028 -1.2006  0.3579 -0.6661
  175MOL0     C23497  11.248   8.462   6.039  0.0299  1.2018 -0.2388
  175MOL0     O23498  11.345   8.380   5.984 -1.0871 -0.1697  0.1854
  175MOL0     C23499  11.462   8.382   6.053 -0.6914 -0.0129 -0.0754
  175MOL0     C23500  11.560   8.282   5.992  0.0241  0.2762 -0.5544
  175MOL0     C23501  11.691   8.286   6.071  0.1905 -0.2041 -0.0176
  175MOL0     C23502  11.789   8.182   6.006 -0.4241  0.1541  0.2944
  175MOL0     C23503  11.938   8.178   6.058  0.2673  0.6275 -0.3090
  175MOL0     C23504  12.019   8.055   6.008  0.2986 -0.8843  0.0478
  175MOL0     C23505  12.151   8.039   6.074 -0.3282 -0.2935 -0.4416
  175MOL0     C23506  12.238   7.917   6.035 -0.6128 -0.0965 -0.5626
  175MOL0     N23507  12.376   7.927   6.089  0.2506  0.0166  1.0681
  175MOL0     C23508  12.478   7.997   6.029 -0.6083  0.1061 -0.3716
  175MOL0     C23509  12.585   7.985   6.113 -0.4854 -0.3562  0.2506
  175MOL0     C23510  12.721   8.043   6.100 -0.6909 -0.0476  0.2038
  175MOL0     C23511  12.809   7.963   6.001  0.7851 -0.2157 -1.0838
  175MOL0     C23512  12.891   7.855   6.073  0.5013 -0.5156 -0.3678
  175MOL0     C23513  12.970   7.769   5.970  0.8773 -0.0648  0.2604
  175MOL0     O23514  13.059   7.853   5.897  0.5023 -0.0759 -1.1707
  175MOL0     C23515  13.194   7.859   5.948  0.6986  0.3120 -0.1433
  175MOL0     C23516  13.251   7.802   6.069  0.5269 -0.3075  0.5988
  175MOL0     C23517  13.377   7.850   6.109 -0.0561 -0.0855 -0.1888
  175MOL0     C23518  13.453   7.936   6.031 -0.7574 -0.0568 -0.2517
  175MOL0     C23519  13.593   7.976   6.066 -0.9493  0.4425  0.8139
  175MOL0     O23520  13.664   7.910   6.167  0.1722 -0.0731  0.0896
  175MOL0     C23521  13.790   7.953   6.211  1.3762 -0.8017  0.0825
  175MOL0     C23522  13.901   7.935   6.125 -0.1672 -1.1544 -0.2383
  175MOL0     C23523  14.026   7.973   6.164 -0.3035 -0.2275 -0.1839
  175MOL0     C23524  14.040   8.030   6.295 -0.5462 -0.8096  0.4674
  175MOL0     O23525  14.170   8.062   6.333 -0.0674 -0.3158  0.1066
  175MOL0     C23526  14.176   8.157   6.439 -0.8035 -0.4238 -0.0754
  175MOL0     C23527  14.325   8.189   6.461 -0.8638  0.1162  0.2143
  175MOL0     C23528  14.419   8.070   6.498 -0.3934  0.3207  0.1330
  175MOL0     C23529  14.548   8.113   6.553  0.7647  0.5586  0.1406
  175MOL0     C23530  14.624   8.006   6.630  0.2224 -0.9034 -0.7475
  175MOL0     C23531  14.781   8.027   6.631  0.5332  0.2962 -0.2183
  175MOL0     C23532  14.855   7.917   6.703  0.0484  0.8419 -0.0237
  175MOL0     C23533  14.832   7.776   6.651  0.4419  0.7359  0.4837
  175MOL0    Cl23534  14.943   7.659   6.738  0.1259  0.6701  0.4701
  175MOL0     C23535  13.924   8.051   6.376  0.5462 -0.0931 -0.1906
  175MOL0     C23536  13.802   8.014   6.331 -1.0089  0.0653 -0.2366
  175MOL0     O23537  13.640   8.064   5.994 -0.0732  0.3709 -0.7259
  175MOL0     C23538  13.404   7.979   5.911  1.1320 -1.0997 -1.1802
  175MOL0     C23539  13.269   7.945   5.878 -0.0090 -0.6992 -0.0209
  175MOL0     N23540  12.547   7.907   6.228  0.0374  0.0311  0.2647
  175MOL0     N23541  12.420   7.879   6.216  1.1222 -0.1799  0.1982
  175MOL0     C23542  11.280   8.571   6.114  0.3538 -0.3455  0.1960
  175MOL0     C23543  11.186   8.656   6.152  0.0845  0.4714 -0.2309
  175MOL0     C23544  10.833   8.919   6.212  0.6248 -0.0550  0.0158
  175MOL0     C23545  10.724   8.848   6.254  0.1857 -0.0160  0.1765
  175MOL0     C23546  10.609   8.912   6.297  0.4119 -0.0553  0.1672
  175MOL0     C23547  10.611   9.052   6.315  0.1182 -0.2351 -0.8491
  175MOL0     O23548  10.506   9.120   6.365 -0.0495 -0.9177  0.2574
  175MOL0     C23549  10.379   9.061   6.384  0.0407 -0.7174 -0.0257
  175MOL0     C23550  10.278   9.161   6.449  0.7553 -0.5963 -0.6667
  175MOL0     C23551  10.302   9.194   6.597 -0.1811 -0.1735  0.7852
  175MOL0     C23552  10.183   9.220   6.682 -0.0483 -0.0255 -0.1916
  175MOL0     C23553  10.235   9.270   6.807  0.1749  0.9067  0.2910
  175MOL0     C23554  10.285   9.308   6.912  0.2291  1.0628  0.4930
  175MOL0     C23555  10.731   9.124   6.298  0.4084 -0.4932  0.1186
  175MOL0     C23556  10.841   9.062   6.235  0.4936 -0.0517 -0.3308
  175MOL0     C23557  10.944   9.159   6.185  0.0121 -0.0295  0.5943
  175MOL0     H23558  10.904   8.485   6.059  0.4583 -1.8982 -1.5306
  175MOL0     H23559  11.077   8.326   5.997  0.1190 -0.3636  0.2701
  175MOL0     H23560  11.515   8.478   6.046  1.3180 -1.1589 -1.5144
  175MOL0     H23561  11.451   8.355   6.159 -1.9035 -0.3949 -0.2932
  175MOL0     H23562  11.578   8.307   5.887 -1.6140 -2.6622 -1.6889
  175MOL0     H23563  11.515   8.182   5.998  1.3532 -0.2735  0.7810
  175MOL0     H23564  11.699   8.270   6.178  0.6043  3.0951  0.5389
  175MOL0     H23565  11.727   8.388   6.058 -1.1030  0.2339 -0.3396
  175MOL0     H23566  11.741   8.086   6.029  0.3444 -0.2726  0.1494
  175MOL0     H23567  11.791   8.198   5.897  0.4857 -0.2349  0.2477
  175MOL0     H23568  11.982   8.270   6.018 -0.8500  2.0925  1.6325
  175MOL0     H23569  11.954   8.181   6.167  2.3528 -1.2367 -0.4974
  175MOL0     H23570  11.963   7.962   6.024  1.4868 -1.8402 -1.1983
  175MOL0     H23571  12.031   8.069   5.900  3.5639 -0.9122  0.3085
  175MOL0     H23572  12.139   8.023   6.181  0.1573 -2.9214 -0.7003
  175MOL0     H23573  12.215   8.128   6.072  3.0733 -2.5299 -1.0203
  175MOL0     H23574  12.197   7.822   6.072  3.0174 -0.1408  4.5984
  175MOL0     H23575  12.254   7.921   5.927 -2.7156 -2.3831 -1.0418
  175MOL0     H23576  12.478   8.058   5.939  2.8255  2.7607  1.2078
  175MOL0     H23577  12.712   8.149   6.074 -1.3343 -0.2920 -0.6019
  175MOL0     H23578  12.772   8.035   6.196  0.4103 -1.6804 -0.4563
  175MOL0     H23579  12.735   7.914   5.938 -0.8668  0.8590 -0.0468
  175MOL0     H23580  12.887   8.021   5.950  0.4146  0.4004 -0.9632
  175MOL0     H23581  12.817   7.802   6.133 -0.3440 -0.6313 -1.4857
  175MOL0     H23582  12.964   7.901   6.140  2.1679 -5.9690  2.1138
  175MOL0     H23583  12.902   7.723   5.897 -2.5460  2.2266  1.7536
  175MOL0     H23584  13.026   7.684   6.010  1.4944  0.8302  1.3632
  175MOL0     H23585  13.208   7.740   6.147 -1.2242  0.0986  0.0039
  175MOL0     H23586  13.411   7.810   6.204 -0.7574 -0.6449 -0.1635
  175MOL0     H23587  13.884   7.874   6.037  1.1856  2.5686 -3.3468
  175MOL0     H23588  14.106   7.954   6.093 -0.4561  0.3177 -0.5104
  175MOL0     H23589  14.119   8.251   6.431 -2.2127 -1.2281  0.1451
  175MOL0     H23590  14.133   8.110   6.528 -2.3868  0.5805 -0.2602
  175MOL0     H23591  14.350   8.229   6.363 -3.8981  1.0409 -0.2842
  175MOL0     H23592  14.333   8.265   6.540 -3.7877 -2.6624  3.5322
  175MOL0     H23593  14.371   8.018   6.582 -2.7051 -1.6183 -2.2091
  175MOL0     H23594  14.425   8.001   6.413  0.3892 -1.1037  1.3005
  175MOL0     H23595  14.544   8.206   6.611  0.2760  1.7179 -1.6744
  175MOL0     H23596  14.622   8.130   6.474  1.3350 -0.4904  0.4355
  175MOL0     H23597  14.597   7.909   6.588 -0.1631 -0.7895 -0.7688
  175MOL0     H23598  14.588   8.001   6.734  0.0490 -0.2246 -0.7703
  175MOL0     H23599  14.805   8.022   6.525 -4.2789 -1.8885 -1.4534
  175MOL0     H23600  14.804   8.126   6.671 -0.1768  2.1746 -4.0521
  175MOL0     H23601  14.829   7.919   6.809 -0.7639 -2.5642 -0.0427
  175MOL0     H23602  14.962   7.931   6.689  0.1070  1.1686  0.7111
  175MOL0     H23603  14.725   7.751   6.649  0.5098  0.0019  2.9972
  175MOL0     H23604  14.862   7.780   6.546  0.5476 -0.3851  0.4574
  175MOL0     H23605  13.914   8.108   6.468 -4.8137 -1.8227  0.6347
  175MOL0     H23606  13.713   8.022   6.393  0.4172  1.3182  1.7864
  175MOL0     H23607  13.441   8.045   5.833 -1.0049 -0.4950 -1.7305
  175MOL0     H23608  13.218   7.996   5.797  1.9124  0.1278 -0.7817
  175MOL0     H23609  11.381   8.603   6.136  0.6413 -0.7170 -0.5522
  175MOL0     H23610  11.215   8.741   6.213 -1.1706 -0.8872  2.4739
  175MOL0     H23611  10.729   8.741   6.236  6.6402 -0.0112 -0.1981
  175MOL0     H23612  10.521   8.855   6.325 -0.5284  0.3599 -1.7849
  175MOL0     H23613  10.391   8.972   6.446 -0.3287 -0.7172  0.0487
  175MOL0     H23614  10.333   9.029   6.290 -2.0763  0.1764  0.6327
  175MOL0     H23615  10.178   9.117   6.448  1.1083 -1.9474  3.5683
  175MOL0     H23616  10.278   9.254   6.391  1.3397 -0.9938 -1.3150
  175MOL0     H23617  10.364   9.284   6.600  1.1223 -1.0848  2.3684
  175MOL0     H23618  10.360   9.118   6.650  0.6320 -0.5712 -0.6129
  175MOL0     H23619  10.113   9.290   6.636  0.0598 -0.7066 -1.4490
  175MOL0     H23620  10.125   9.130   6.705 -0.9950  0.2537 -1.3530
  175MOL0     H23621  10.329   9.348   7.001  1.4595 -1.1634  0.9715
  175MOL0     H23622  10.730   9.232   6.305 -4.8636 -0.2562 -0.7148
  175MOL0     H23623  10.987   9.138   6.087 -0.5307 -0.0220  0.3520
  175MOL0     H23624  10.894   9.255   6.171 -0.6390 -0.4848 -0.2513
  175MOL0     H23625  11.021   9.169   6.262  0.0613  1.0508  0.4139
  176MOL0     O23626   3.225   7.113   7.739 -0.5355 -0.3089 -0.1983
  176MOL0     C23627   3.141   7.198   7.738 -0.5881  0.3560  0.0693
  176MOL0     O23628   3.170   7.336   7.732  0.0895 -0.3707  0.7741
  176MOL0     C23629   3.295   7.378   7.735  0.4834  0.9263 -0.9030
  176MOL0     C23630   3.360   7.414   7.854 -0.2562  0.0833  0.3581
  176MOL0     C23631   3.489   7.466   7.851  0.1351  0.4131 -0.1796
  176MOL0     C23632   3.558   7.477   7.727 -0.0977 -0.6550  0.4127
  176MOL0     O23633   3.687   7.519   7.730 -0.0302  1.0093 -0.8977
  176MOL0     C23634   3.763   7.451   7.826 -0.5282 -0.5954 -0.1682
  176MOL0     C23635   3.899   7.431   7.771  0.8371  0.1680  0.0061
  176MOL0     C23636   3.983   7.351   7.883  0.1573  0.5136  1.0452
  176MOL0     C23637   4.043   7.453   7.987  0.2479 -0.1925  0.3546
  176MOL0     C23638   4.124   7.373   8.095  0.5248  1.3881 -1.1001
  176MOL0     C23639   4.224   7.263   8.045  0.5165  0.3328  0.0122
  176MOL0     C23640   4.341   7.335   7.971 -0.1115  0.9826  0.4035
  176MOL0     C23641   4.422   7.429   8.063 -0.9870 -0.6668  0.8476
  176MOL0     N23642   4.537   7.488   8.000 -0.2398 -1.0886 -0.0263
  176MOL0     C23643   4.546   7.627   7.986 -0.0403  0.3092 -0.8990
  176MOL0     C23644   4.672   7.652   7.947 -0.6442 -1.0157  0.7171
  176MOL0     C23645   4.728   7.794   7.916  0.4202  0.2899  0.2277
  176MOL0     C23646   4.774   7.867   8.037 -0.6961 -0.6881 -0.7025
  176MOL0     C23647   4.815   8.010   8.016 -0.6751 -0.1106  0.7996
  176MOL0     C23648   4.852   8.079   8.147 -0.1921 -0.3739 -0.1324
  176MOL0     O23649   4.932   7.991   8.228  0.0062  0.0285 -0.2170
  176MOL0     C23650   5.068   7.984   8.210  0.8324  0.4972 -0.7950
  176MOL0     C23651   5.136   8.052   8.114 -0.0314  0.4213  1.1026
  176MOL0     C23652   5.274   8.031   8.092  0.4351 -0.1496 -0.2626
  176MOL0     C23653   5.345   7.936   8.170 -0.6139  0.3263  0.2363
  176MOL0     C23654   5.487   7.926   8.166 -0.3723  0.6080  0.0435
  176MOL0     O23655   5.555   8.044   8.128 -0.4332  0.8242 -0.2534
  176MOL0     C23656   5.688   8.035   8.134 -0.2131  0.0956 -0.6195
  176MOL0     C23657   5.758   8.087   8.243 -0.6940  0.3462 -0.0219
  176MOL0     C23658   5.903   8.084   8.249  0.9742 -0.6959  0.0291
  176MOL0     C23659   5.976   8.056   8.129 -0.2389 -0.0807  0.9134
  176MOL0     O23660   6.115   8.058   8.118  0.5822  0.4639 -0.9638
  176MOL0     C23661   6.190   7.975   8.033 -0.4757 -0.3244  0.2925
  176MOL0     C23662   6.340   7.959   8.084  0.0494 -0.1085 -0.7580
  176MOL0     C23663   6.411   8.095   8.070 -0.0738  0.1930  0.8661
  176MOL0     C23664   6.416   8.166   7.933 -0.2064  0.1640 -0.3893
  176MOL0     C23665   6.507   8.102   7.832 -0.4218  0.5357  0.6910
  176MOL0     C23666   6.615   8.196   7.771  0.1901  0.3481  0.9407
  176MOL0     C23667   6.693   8.140   7.642  0.2270 -0.4025 -1.1223
  176MOL0     C23668   6.795   8.240   7.595  0.0045 -0.5830  0.1775
  176MOL0    Cl23669   6.872   8.201   7.446 -0.1624 -0.0918 -0.1114
  176MOL0     C23670   5.906   8.020   8.007 -0.1118  0.0514 -0.5371
  176MOL0     C23671   5.765   8.009   8.016 -0.6567 -0.2072  0.0332
  176MOL0     O23672   5.546   7.819   8.196  0.5154  0.5997 -0.1571
  176MOL0     C23673   5.271   7.861   8.265 -0.4784 -0.2662 -0.6814
  176MOL0     C23674   5.135   7.894   8.287  0.2269  0.3893 -0.5807
  176MOL0     N23675   4.742   7.533   7.955 -0.4106  0.5049 -0.0855
  176MOL0     N23676   4.658   7.436   7.992 -1.2152  0.8400 -0.0575
  176MOL0     C23677   3.502   7.436   7.612  0.0823 -0.8485  0.0221
  176MOL0     C23678   3.365   7.389   7.616 -0.0744  0.3390  0.2180
  176MOL0     C23679   3.000   7.156   7.734 -0.5831  0.9871 -0.5915
  176MOL0     C23680   2.906   7.257   7.721 -0.0705  0.5505 -0.2889
  176MOL0     C23681   2.771   7.231   7.737 -1.1066  0.5997 -0.8366
  176MOL0     C23682   2.730   7.098   7.746  0.1974 -0.3345 -0.2247
  176MOL0     O23683   2.607   7.048   7.775  1.0053  0.1117 -0.3471
  176MOL0     C23684   2.486   7.129   7.797 -0.7967 -0.9891  0.5295
  176MOL0     C23685   2.364   7.033   7.824  0.8321 -0.8697  0.5176
  176MOL0     C23686   2.250   7.097   7.902 -0.2400  0.5131  0.1352
  176MOL0     C23687   2.165   7.209   7.842  0.3030 -0.0473 -0.0243
  176MOL0     C23688   2.125   7.190   7.705  0.1995 -0.5075  0.7390
  176MOL0     C23689   2.082   7.159   7.589  0.1030  0.6116  0.1256
  176MOL0     C23690   2.829   6.999   7.742  0.5804 -0.0541 -0.5108
  176MOL0     C23691   2.963   7.024   7.750  0.7647 -0.9132  0.0721
  176MOL0     C23692   3.045   6.897   7.767 -0.4186 -0.8441  0.4624
  176MOL0     H23693   3.310   7.399   7.949  0.3996 -5.2418  0.1630
  176MOL0     H23694   3.540   7.501   7.940  1.6194  2.1325 -1.6391
  176MOL0     H23695   3.763   7.515   7.915  0.5419 -0.5343 -0.2045
  176MOL0     H23696   3.718   7.355   7.855 -2.1411  0.8064  2.3233
  176MOL0     H23697   3.947   7.530   7.763  1.4904 -0.1311  0.1422
  176MOL0     H23698   3.893   7.383   7.673  4.0143 -2.7177  1.0176
  176MOL0     H23699   4.069   7.312   7.828 -0.4103  1.9484 -0.9642
  176MOL0     H23700   3.928   7.263   7.920  0.9162 -1.0137 -1.2577
  176MOL0     H23701   4.110   7.518   7.930 -0.1460 -1.1770 -1.3109
  176MOL0     H23702   3.964   7.510   8.037 -2.5281 -2.0317 -1.6529
  176MOL0     H23703   4.181   7.443   8.157  1.5165 -0.0543 -0.3254
  176MOL0     H23704   4.051   7.330   8.163  0.3385  4.2224  0.6254
  176MOL0     H23705   4.269   7.209   8.128  0.1761  0.5836  0.3620
  176MOL0     H23706   4.175   7.188   7.982 -0.9721  1.6504 -0.4558
  176MOL0     H23707   4.302   7.393   7.887 -1.4749  1.6012  1.4170
  176MOL0     H23708   4.401   7.258   7.921 -3.0486 -1.0582 -0.2818
  176MOL0     H23709   4.351   7.506   8.095  0.8855  1.8974 -0.8356
  176MOL0     H23710   4.459   7.369   8.147 -0.4440  2.6599  3.1840
  176MOL0     H23711   4.457   7.690   7.989 -2.1442 -2.3960 -2.2359
  176MOL0     H23712   4.798   7.797   7.832  1.5008 -0.1941  1.0959
  176MOL0     H23713   4.641   7.852   7.883  0.0075  1.2585  2.7951
  176MOL0     H23714   4.698   7.882   8.113  0.5339 -0.9653  0.6353
  176MOL0     H23715   4.853   7.807   8.083 -1.2405 -0.8228  0.0749
  176MOL0     H23716   4.737   8.066   7.964 -0.1935  0.1048  0.3036
  176MOL0     H23717   4.897   8.008   7.943 -2.8358  0.1292 -1.8012
  176MOL0     H23718   4.762   8.107   8.202  1.9181  3.2449  1.8297
  176MOL0     H23719   4.900   8.176   8.134  4.5447 -1.6002  4.5269
  176MOL0     H23720   5.082   8.120   8.049 -0.9790 -1.8753 -0.6594
  176MOL0     H23721   5.318   8.085   8.009  3.5915 -0.8588  0.7777
  176MOL0     H23722   5.704   8.125   8.328 -0.4381  2.4564 -0.7372
  176MOL0     H23723   5.940   8.107   8.348 -2.6881 -2.5486  2.0799
  176MOL0     H23724   6.145   7.875   8.031  0.8354 -0.9334  0.1312
  176MOL0     H23725   6.190   8.021   7.933  1.9258 -0.5741  0.1211
  176MOL0     H23726   6.327   7.938   8.190  0.7148 -0.9756 -0.8378
  176MOL0     H23727   6.400   7.875   8.048 -0.5617 -0.4102 -1.1081
  176MOL0     H23728   6.367   8.163   8.144  0.4830  1.4186  0.1060
  176MOL0     H23729   6.512   8.083   8.110  0.2015  2.6848  1.1183
  176MOL0     H23730   6.451   8.268   7.951 -0.5231  0.3484 -0.8145
  176MOL0     H23731   6.315   8.164   7.891  0.4318 -1.7128 -1.9790
  176MOL0     H23732   6.443   8.070   7.749  0.6255  1.2625 -0.4298
  176MOL0     H23733   6.557   8.011   7.866 -2.3228 -0.2968  1.4003
  176MOL0     H23734   6.576   8.296   7.746  2.1967  1.2494  1.2447
  176MOL0     H23735   6.696   8.208   7.844  1.4647  1.9128 -0.6475
  176MOL0     H23736   6.627   8.114   7.559 -0.9707  0.9571 -0.6321
  176MOL0     H23737   6.750   8.051   7.672  0.9669  0.7629  1.1357
  176MOL0     H23738   6.738   8.328   7.565  2.0867  1.0889  0.8400
  176MOL0     H23739   6.867   8.277   7.669  0.9903 -1.1037 -0.5051
  176MOL0     H23740   5.957   8.006   7.912  0.6479 -0.2550 -0.0923
  176MOL0     H23741   5.714   7.982   7.924 -0.4483 -1.7582  0.3600
  176MOL0     H23742   5.335   7.794   8.321  3.3855  3.6001 -0.0066
  176MOL0     H23743   5.089   7.831   8.363  2.4938  2.5026  2.8457
  176MOL0     H23744   3.550   7.452   7.516 -0.8806  0.3330 -0.2805
  176MOL0     H23745   3.334   7.356   7.518  5.1590  2.4277 -2.5392
  176MOL0     H23746   2.928   7.362   7.709 -3.6336  1.3087 -1.7063
  176MOL0     H23747   2.700   7.313   7.748 -0.3956  1.2508 -1.0073
  176MOL0     H23748   2.459   7.195   7.714  0.2436  1.5144  2.0680
  176MOL0     H23749   2.496   7.195   7.883 -0.1011 -1.1157  0.5495
  176MOL0     H23750   2.406   6.953   7.886  4.0875  1.0351  1.0022
  176MOL0     H23751   2.324   7.001   7.728  3.8030  0.6274 -1.3639
  176MOL0     H23752   2.280   7.123   8.004 -2.7722  0.2958  1.0057
  176MOL0     H23753   2.180   7.015   7.922  1.3185 -0.7680  0.5306
  176MOL0     H23754   2.078   7.210   7.908  0.9823  0.4647  0.8860
  176MOL0     H23755   2.210   7.307   7.859 -1.1809  0.5810  0.3786
  176MOL0     H23756   2.035   7.133   7.496 -1.0377 -0.7854  1.0556
  176MOL0     H23757   2.784   6.901   7.754 -0.9453  0.6725 -0.0681
  176MOL0     H23758   3.142   6.905   7.816 -0.5158 -0.7807  0.6482
  176MOL0     H23759   2.990   6.822   7.825 -4.0831  1.2334 -0.0163
  176MOL0     H23760   3.057   6.860   7.665  0.7424 -0.0071  0.2846
  177MOL0     O23761   3.170   3.414   1.550  0.3739  0.2810 -0.3837
  177MOL0     C23762   3.176   3.395   1.671  0.5063  1.1382 -0.4212
  177MOL0     O23763   3.251   3.469   1.755 -0.1995 -0.5254 -0.0658
  177MOL0     C23764   3.341   3.565   1.713 -0.0712  0.3587  0.3772
  177MOL0     C23765   3.356   3.625   1.584 -0.4198 -0.2816 -0.6852
  177MOL0     C23766   3.448   3.731   1.574  0.0921 -0.2529  0.3666
  177MOL0     C23767   3.524   3.778   1.676  0.2597  0.2380  0.6955
  177MOL0     O23768   3.622   3.874   1.663  0.3882 -0.2507  0.1417
  177MOL0     C23769   3.569   4.005   1.654 -0.3439 -0.1767 -0.3737
  177MOL0     C23770   3.518   4.047   1.513 -0.3641 -0.3313  0.2928
  177MOL0     C23771   3.496   4.203   1.499  0.1742 -0.1788 -0.1981
  177MOL0     C23772   3.483   4.242   1.353 -0.1747 -0.4621 -0.6517
  177MOL0     C23773   3.480   4.400   1.340 -0.2226 -0.3670 -0.3317
  177MOL0     C23774   3.625   4.463   1.324  0.8990  1.6035 -0.2988
  177MOL0     C23775   3.624   4.613   1.297  0.2084 -0.4332 -0.0345
  177MOL0     C23776   3.765   4.651   1.250  0.8577  0.7379  0.3468
  177MOL0     N23777   3.766   4.791   1.202  0.2291  0.1045 -1.5603
  177MOL0     C23778   3.715   4.835   1.076 -0.6410 -0.0921  0.3894
  177MOL0     C23779   3.698   4.968   1.086 -0.1305 -0.3399 -0.7796
  177MOL0     C23780   3.649   5.061   0.976 -0.0465 -0.4994 -1.1073
  177MOL0     C23781   3.747   5.172   0.947 -1.0283  0.5037 -0.3428
  177MOL0     C23782   3.861   5.131   0.850  0.0499 -0.2078 -0.5284
  177MOL0     C23783   3.954   5.244   0.800  0.3916  0.4423 -0.6368
  177MOL0     O23784   3.893   5.304   0.682 -0.3650  0.5585 -0.3641
  177MOL0     C23785   3.988   5.370   0.602  0.0401 -0.5152 -0.5321
  177MOL0     C23786   4.012   5.329   0.475  0.8488  0.0224 -0.2592
  177MOL0     C23787   4.097   5.397   0.389  0.1202  0.3863  0.7105
  177MOL0     C23788   4.187   5.501   0.434  0.4620  0.0280 -0.4905
  177MOL0     C23789   4.289   5.569   0.355 -0.1725 -0.3892  0.0913
  177MOL0     O23790   4.287   5.521   0.223 -0.1578  1.0486  0.0938
  177MOL0     C23791   4.353   5.590   0.128 -0.5807  0.2169  0.4245
  177MOL0     C23792   4.490   5.618   0.134  0.1610 -0.5393 -0.3689
  177MOL0     C23793   4.546   5.696   0.035 -0.9224  0.1333 -0.0013
  177MOL0     C23794   4.473   5.756  -0.064  0.0379  0.0791 -0.0275
  177MOL0     O23795   4.544   5.848  -0.136  0.0734 -0.0717 -0.0680
  177MOL0     C23796   4.495   5.902  -0.260 -0.4269 -0.1668 -0.0443
  177MOL0     C23797   4.603   5.997  -0.303 -0.0157  0.4495  0.1724
  177MOL0     C23798   4.580   6.051  -0.447 -0.0637 -0.7033  0.7518
  177MOL0     C23799   4.680   6.162  -0.478 -0.1406  0.8597 -0.7763
  177MOL0     C23800   4.674   6.232  -0.616 -0.0998  0.1516 -0.4145
  177MOL0     C23801   4.785   6.191  -0.715 -0.0901 -0.5918  0.4576
  177MOL0     C23802   4.778   6.048  -0.770 -0.5275  1.2130  0.1061
  177MOL0     C23803   4.876   6.020  -0.893 -0.0375 -0.0980 -0.3844
  177MOL0    Cl23804   4.829   5.882  -0.989 -0.6213 -0.4151 -0.0464
  177MOL0     C23805   4.339   5.727  -0.076  0.3344 -0.8882  0.0850
  177MOL0     C23806   4.277   5.655   0.026  0.3105  0.0764  1.4660
  177MOL0     O23807   4.350   5.671   0.397 -0.1636  0.7772  0.1065
  177MOL0     C23808   4.158   5.541   0.565 -0.0681 -0.6539 -0.1061
  177MOL0     C23809   4.056   5.481   0.640  0.2129 -0.5030 -1.0009
  177MOL0     N23810   3.732   5.015   1.217 -0.5425  1.2174 -0.1835
  177MOL0     N23811   3.776   4.910   1.284  0.3930  0.8621  0.3574
  177MOL0     C23812   3.518   3.703   1.795  0.9680  0.0036 -0.1966
  177MOL0     C23813   3.417   3.603   1.818 -0.5018 -0.5000 -0.0104
  177MOL0     C23814   3.096   3.296   1.744 -0.1321  0.2785 -0.1606
  177MOL0     C23815   3.030   3.338   1.858 -0.2968  0.5889 -0.3128
  177MOL0     C23816   2.938   3.251   1.916  0.7217  0.6587  0.2811
  177MOL0     C23817   2.923   3.119   1.871 -0.7553 -0.0600  0.1496
  177MOL0     O23818   2.855   3.031   1.941 -0.5444  0.4595 -0.4861
  177MOL0     C23819   2.733   3.082   2.009  0.0011 -0.7594 -0.3311
  177MOL0     C23820   2.650   2.959   2.051  0.2515  0.2568 -0.4056
  177MOL0     C23821   2.529   2.936   1.955  0.8011 -0.7552  0.7929
  177MOL0     C23822   2.581   2.926   1.810  0.4935 -0.7913  0.3327
  177MOL0     C23823   2.495   2.853   1.714 -0.4579  0.6701  0.1196
  177MOL0     C23824   2.439   2.769   1.646  0.2096  0.3303  0.0908
  177MOL0     C23825   2.997   3.081   1.756 -0.0005 -0.4373 -0.1756
  177MOL0     C23826   3.082   3.163   1.696  1.5639 -0.0615 -0.1217
  177MOL0     C23827   3.150   3.099   1.577 -0.1406  0.5805  0.3401
  177MOL0     H23828   3.291   3.596   1.502 -3.0253  2.9407  0.0494
  177MOL0     H23829   3.467   3.780   1.479  0.2623  1.8072  1.4037
  177MOL0     H23830   3.494   4.023   1.731 -1.1748 -5.5138  0.4184
  177MOL0     H23831   3.649   4.075   1.682 -0.4330 -0.3485  0.3178
  177MOL0     H23832   3.417   4.011   1.489 -0.5098  0.1216  0.2190
  177MOL0     H23833   3.589   4.005   1.441  0.6867 -0.7360  1.5366
  177MOL0     H23834   3.577   4.250   1.555 -1.5999  2.5203  0.2941
  177MOL0     H23835   3.405   4.232   1.552 -0.5465 -3.9700  0.9177
  177MOL0     H23836   3.561   4.204   1.287  1.2081  1.2323 -0.0801
  177MOL0     H23837   3.393   4.206   1.303 -0.8794  0.0797  0.1965
  177MOL0     H23838   3.407   4.421   1.261 -1.6604 -1.5133  0.6231
  177MOL0     H23839   3.438   4.429   1.437  1.1236 -2.2795  0.8987
  177MOL0     H23840   3.691   4.441   1.409 -0.2374 -1.6821 -0.1668
  177MOL0     H23841   3.661   4.412   1.235 -2.3962 -1.0335 -0.3150
  177MOL0     H23842   3.582   4.669   1.381 -0.7338  0.4461 -1.0604
  177MOL0     H23843   3.557   4.638   1.214 -1.6057  1.0424  1.7727
  177MOL0     H23844   3.840   4.627   1.326  0.1448  0.1395  0.8708
  177MOL0     H23845   3.786   4.592   1.160 -0.5995 -1.6836  1.4993
  177MOL0     H23846   3.683   4.772   0.994  0.7382  1.5019 -1.4616
  177MOL0     H23847   3.635   4.993   0.892 -3.2039 -1.2935 -0.0775
  177MOL0     H23848   3.551   5.098   1.008  1.5845  1.6318  2.0453
  177MOL0     H23849   3.686   5.242   0.888 -1.5226 -0.5559 -1.1193
  177MOL0     H23850   3.774   5.227   1.038 -3.3327 -0.2535  0.8861
  177MOL0     H23851   3.809   5.082   0.767 -0.5293 -0.8737  0.2195
  177MOL0     H23852   3.919   5.054   0.901 -0.5169 -0.6080 -0.4799
  177MOL0     H23853   4.050   5.199   0.772 -0.7957 -2.2856 -0.6361
  177MOL0     H23854   3.966   5.307   0.889 -0.3562 -2.7103  1.8937
  177MOL0     H23855   3.971   5.239   0.430  0.5219  0.6444 -1.2401
  177MOL0     H23856   4.102   5.367   0.284 -3.0114 -2.5871  1.2232
  177MOL0     H23857   4.545   5.585   0.221 -1.0473  0.7190  0.9283
  177MOL0     H23858   4.653   5.717   0.042 -1.3883  3.3579 -1.0091
  177MOL0     H23859   4.480   5.819  -0.330  1.2677 -2.0457  1.6988
  177MOL0     H23860   4.399   5.955  -0.252 -0.7025 -0.6346 -0.2255
  177MOL0     H23861   4.618   6.073  -0.225  1.4385 -0.4607  0.8225
  177MOL0     H23862   4.700   5.947  -0.297 -0.1053 -0.2784 -2.7595
  177MOL0     H23863   4.598   5.974  -0.521  1.0430  2.2669 -2.3152
  177MOL0     H23864   4.478   6.088  -0.466  1.1507  0.5268 -5.7831
  177MOL0     H23865   4.785   6.133  -0.474 -0.0030  1.4851  1.4644
  177MOL0     H23866   4.669   6.228  -0.391  1.5475 -2.6242  2.3251
  177MOL0     H23867   4.703   6.337  -0.603  0.3150 -0.2415  2.4364
  177MOL0     H23868   4.573   6.216  -0.655  0.6316 -2.0246 -1.5853
  177MOL0     H23869   4.774   6.262  -0.797 -2.4023  1.1462  2.1068
  177MOL0     H23870   4.886   6.206  -0.677 -0.3945  1.6494  0.5391
  177MOL0     H23871   4.676   6.046  -0.810 -0.0080  1.5788 -1.2660
  177MOL0     H23872   4.810   5.963  -0.709  1.1064  0.9283 -1.0800
  177MOL0     H23873   4.883   6.114  -0.949 -2.0452  1.8267  2.3439
  177MOL0     H23874   4.975   5.994  -0.856  0.8062  0.7683 -1.9536
  177MOL0     H23875   4.272   5.777  -0.146  0.0923 -2.2310 -0.6781
  177MOL0     H23876   4.173   5.626   0.021  0.6720 -1.2115 -2.5964
  177MOL0     H23877   4.210   5.625   0.609  1.3351 -1.4515 -0.1833
  177MOL0     H23878   4.026   5.528   0.733  2.3413  2.1397 -1.5218
  177MOL0     H23879   3.581   3.731   1.878 -2.9872 -1.2921  3.6368
  177MOL0     H23880   3.413   3.556   1.915 -0.4788  0.9318  0.7154
  177MOL0     H23881   3.030   3.441   1.892  1.7056  0.8999 -1.1028
  177MOL0     H23882   2.887   3.285   2.006 -0.9195 -1.1528  0.1170
  177MOL0     H23883   2.679   3.141   1.935  1.6124  0.4065 -0.6350
  177MOL0     H23884   2.757   3.144   2.096 -0.2895  1.2027 -1.5878
  177MOL0     H23885   2.616   2.984   2.152  0.8839 -0.2168 -0.0717
  177MOL0     H23886   2.719   2.876   2.064  0.4330 -0.0423 -2.7874
  177MOL0     H23887   2.452   3.010   1.978  0.4032 -1.8972  3.5717
  177MOL0     H23888   2.481   2.842   1.983  0.0539 -0.7991 -0.5345
  177MOL0     H23889   2.581   3.027   1.768  1.2182  0.2655  2.7038
  177MOL0     H23890   2.684   2.891   1.816  0.5549 -0.5635  0.6300
  177MOL0     H23891   2.406   2.684   1.590 -0.4862 -0.6345  1.8964
  177MOL0     H23892   2.982   2.976   1.735  0.5006 -0.7356  0.8765
  177MOL0     H23893   3.233   3.037   1.613 -1.0461 -1.6745 -1.2160
  177MOL0     H23894   3.087   3.033   1.516 -0.3996  0.7142  0.4659
  177MOL0     H23895   3.196   3.166   1.504 -1.3333  1.3435  0.2713
  178MOL0     O23896   9.608  10.466   7.912 -0.5203 -0.2280 -0.0757
  178MOL0     C23897   9.590  10.387   8.006  0.3473 -0.5836  0.4000
  178MOL0     O23898   9.689  10.291   8.043 -0.0793 -0.3241 -0.7931
  178MOL0     C23899   9.809  10.296   7.973  1.2262 -0.8894  1.1584
  178MOL0     C23900   9.836  10.200   7.877 -0.0279 -0.0011 -0.2937
  178MOL0     C23901   9.962  10.209   7.814  0.1964  0.2820  0.7360
  178MOL0     C23902  10.052  10.309   7.844 -1.3101 -0.7681  0.8785
  178MOL0     O23903  10.181  10.306   7.785  0.4116 -0.4557 -0.0857
  178MOL0     C23904  10.263  10.420   7.801 -0.2937 -0.0275 -0.8157
  178MOL0     C23905  10.392  10.412   7.708 -0.1928  0.3857  0.1699
  178MOL0     C23906  10.496  10.320   7.767  0.3270 -0.9378  0.0986
  178MOL0     C23907  10.627  10.308   7.690  0.0820 -0.7543 -0.0014
  178MOL0     C23908  10.737  10.239   7.773 -0.1329 -0.4593  0.3628
  178MOL0     C23909  10.853  10.215   7.687 -0.0960  0.0948 -0.7875
  178MOL0     C23910  10.990  10.183   7.758  0.2291  1.0510  0.1492
  178MOL0     C23911  10.974  10.069   7.869  0.6036 -0.5775 -0.0223
  178MOL0     N23912  11.091  10.070   7.956 -0.2821 -0.5507  0.5695
  178MOL0     C23913  11.089  10.115   8.081 -0.3197 -0.2213  0.4427
  178MOL0     C23914  11.202  10.067   8.145 -0.0752 -0.3957  1.1553
  178MOL0     C23915  11.225  10.092   8.294  0.0950  1.2447  0.1006
  178MOL0     C23916  11.372  10.048   8.342  0.3410  0.4886 -0.2929
  178MOL0     C23917  11.476  10.118   8.246 -0.7518 -0.4175  0.0945
  178MOL0     C23918  11.606  10.053   8.257 -0.6498 -0.1118  1.0826
  178MOL0     O23919  11.695  10.139   8.182  0.0854 -0.2482  0.2896
  178MOL0     C23920  11.811  10.097   8.120 -0.4878 -0.1615  0.6118
  178MOL0     C23921  11.889   9.996   8.162 -0.7590  0.8109  0.1383
  178MOL0     C23922  12.018   9.986   8.100  0.5190 -0.0418 -0.3912
  178MOL0     C23923  12.068  10.078   8.004  0.7559 -0.8758  0.2294
  178MOL0     C23924  12.204  10.073   7.949  0.8785 -0.8226  0.1135
  178MOL0     O23925  12.240  10.187   7.885 -0.4500  0.3361 -0.1821
  178MOL0     C23926  12.373  10.189   7.847  0.6884 -0.0807 -0.0733
  178MOL0     C23927  12.409  10.154   7.714 -0.0551 -0.3373  0.0708
  178MOL0     C23928  12.544  10.163   7.668  0.8099 -0.1241 -0.1111
  178MOL0     C23929  12.636  10.216   7.756  0.2907  1.1685 -0.1853
  178MOL0     O23930  12.772  10.217   7.734  0.2623  0.2077 -0.0344
  178MOL0     C23931  12.830  10.348   7.716 -0.3869  0.0626  0.1823
  178MOL0     C23932  12.988  10.366   7.730  0.0128  0.8483 -0.2366
  178MOL0     C23933  13.054  10.303   7.608 -0.1408 -0.0438 -0.0624
  178MOL0     C23934  13.211  10.295   7.628  0.0706 -0.2372 -0.1548
  178MOL0     C23935  13.268  10.440   7.664  0.4146  0.6251  0.7357
  178MOL0     C23936  13.418  10.422   7.693  0.1891  0.1022 -0.9598
  178MOL0     C23937  13.479  10.567   7.679 -0.3762  0.5750 -0.7122
  178MOL0     C23938  13.627  10.558   7.743 -0.8773 -0.1835 -0.1053
  178MOL0    Cl23939  13.702  10.421   7.666 -0.2366  0.0091  0.0852
  178MOL0     C23940  12.604  10.249   7.892  0.8487 -0.5709 -0.4076
  178MOL0     C23941  12.470  10.243   7.932  0.8090 -0.1075 -0.7795
  178MOL0     O23942  12.258   9.961   7.958 -0.0888 -0.2867 -0.2890
  178MOL0     C23943  11.978  10.182   7.975  0.3864  1.0554 -0.3921
  178MOL0     C23944  11.851  10.190   8.025 -0.0763 -0.0481  0.0941
  178MOL0     N23945  11.258   9.982   8.050 -0.4797  0.2128 -1.1712
  178MOL0     N23946  11.192   9.981   7.941  0.0118  0.8552 -0.0607
  178MOL0     C23947  10.027  10.394   7.960 -0.2746  0.2806 -0.9952
  178MOL0     C23948   9.902  10.380   8.017 -0.4027  0.1424 -0.0701
  178MOL0     C23949   9.465  10.399   8.088 -1.1061 -0.5469 -0.3830
  178MOL0     C23950   9.375  10.501   8.046  0.5312 -0.0350 -0.3010
  178MOL0     C23951   9.261  10.525   8.126  0.6379 -0.5493  0.5176
  178MOL0     C23952   9.222  10.427   8.225  0.0618 -0.4098  0.6825
  178MOL0     O23953   9.105  10.429   8.288  0.8385 -0.0211 -0.4668
  178MOL0     C23954   9.012  10.538   8.264 -0.2220  0.3733  0.7541
  178MOL0     C23955   8.905  10.539   8.372 -0.1323  0.6378 -0.2587
  178MOL0     C23956   8.837  10.406   8.410 -0.2984 -0.2043  0.3252
  178MOL0     C23957   8.722  10.381   8.306  1.0352  0.0470 -0.1363
  178MOL0     C23958   8.645  10.250   8.311 -1.6090  1.2876  0.3379
  178MOL0     C23959   8.581  10.149   8.304 -0.3443 -0.3953 -0.0466
  178MOL0     C23960   9.306  10.326   8.253 -0.4919  0.5903  0.1611
  178MOL0     C23961   9.436  10.318   8.196  0.4543 -0.2057 -0.4376
  178MOL0     C23962   9.517  10.204   8.244 -0.6134 -0.5569 -0.0817
  178MOL0     H23963   9.751  10.138   7.849 -0.7525 -0.1490  1.9920
  178MOL0     H23964  10.000  10.135   7.744 -0.4692 -2.5287  3.1565
  178MOL0     H23965  10.206  10.512   7.786 -2.2871 -0.3472  3.2827
  178MOL0     H23966  10.303  10.427   7.902 -1.4884 -1.3341 -0.2013
  178MOL0     H23967  10.443  10.506   7.686 -1.2360  0.1801 -3.8931
  178MOL0     H23968  10.357  10.363   7.616 -1.2884 -3.0933  2.2618
  178MOL0     H23969  10.458  10.219   7.785  0.6073 -0.8909  1.0140
  178MOL0     H23970  10.512  10.363   7.866 -1.1912  1.1566 -0.4915
  178MOL0     H23971  10.607  10.255   7.596  0.2910 -1.5127  0.3692
  178MOL0     H23972  10.662  10.407   7.660  0.4518 -1.2374 -1.2308
  178MOL0     H23973  10.768  10.296   7.861  2.3961  0.5974 -1.1154
  178MOL0     H23974  10.691  10.145   7.804 -2.4803  1.0586  1.7974
  178MOL0     H23975  10.833  10.135   7.614  0.6141  0.4820 -1.4252
  178MOL0     H23976  10.877  10.300   7.623 -0.4994  2.0189  1.4969
  178MOL0     H23977  11.020  10.274   7.810 -0.1550  1.3552 -0.1501
  178MOL0     H23978  11.063  10.153   7.682 -1.5435 -2.4943 -0.4000
  178MOL0     H23979  10.891  10.092   7.937  0.8942 -1.8251  0.7755
  178MOL0     H23980  10.934   9.978   7.824 -4.2647  1.0955  0.3042
  178MOL0     H23981  11.017  10.186   8.121  1.8721  1.8675  0.9374
  178MOL0     H23982  11.186  10.190   8.324 -1.8611  0.7374 -0.6577
  178MOL0     H23983  11.153  10.027   8.343  0.5744  3.1278  3.6027
  178MOL0     H23984  11.384  10.082   8.445  1.6380 -0.6769 -0.0248
  178MOL0     H23985  11.382   9.939   8.332  1.0014  0.2871  1.9487
  178MOL0     H23986  11.499  10.221   8.275  1.4906 -1.3947  2.0725
  178MOL0     H23987  11.453  10.109   8.139  2.5517 -1.0083 -0.6772
  178MOL0     H23988  11.617   9.958   8.204  5.0713  1.3066 -1.0292
  178MOL0     H23989  11.634  10.034   8.361  2.3497 -0.6108  0.2863
  178MOL0     H23990  11.865   9.933   8.247  1.5338  0.4040  0.5547
  178MOL0     H23991  12.080   9.901   8.128  1.2235  0.8732  0.9458
  178MOL0     H23992  12.339  10.112   7.642  0.2093 -0.1145 -0.3178
  178MOL0     H23993  12.573  10.128   7.569  3.2760  0.7947  0.1923
  178MOL0     H23994  12.796  10.381   7.617  1.7614  0.0032 -0.6228
  178MOL0     H23995  12.792  10.417   7.792  3.1589  0.9580  1.3383
  178MOL0     H23996  13.020  10.471   7.737  5.5788 -0.5595  0.1593
  178MOL0     H23997  13.027  10.326   7.824 -0.9588  0.8058  0.1595
  178MOL0     H23998  13.031  10.196   7.598  1.6292 -0.7418  2.4454
  178MOL0     H23999  13.031  10.372   7.526  1.8711  2.1949  1.1397
  178MOL0     H24000  13.259  10.265   7.534 -0.5770  1.6544 -1.1432
  178MOL0     H24001  13.226  10.233   7.717 -1.5180  0.7655  0.8582
  178MOL0     H24002  13.220  10.479   7.754 -0.7394  2.1102 -0.4797
  178MOL0     H24003  13.258  10.507   7.579  0.4198 -1.0184 -0.6293
  178MOL0     H24004  13.445  10.366   7.783  3.3858  1.3331 -1.0226
  178MOL0     H24005  13.456  10.362   7.610  1.1366 -1.8547  0.7919
  178MOL0     H24006  13.419  10.644   7.729 -0.1417  0.6908 -0.6086
  178MOL0     H24007  13.491  10.600   7.576  0.6806 -1.7524 -1.4037
  178MOL0     H24008  13.681  10.648   7.710 -1.0473 -0.4680 -1.1862
  178MOL0     H24009  13.617  10.547   7.851  2.5468  0.0286  0.3379
  178MOL0     H24010  12.683  10.286   7.957 -0.4926  4.5957 -1.2977
  178MOL0     H24011  12.449  10.275   8.034  0.3506  1.1684 -1.2642
  178MOL0     H24012  12.003  10.259   7.902  0.2171 -0.2602 -1.9134
  178MOL0     H24013  11.781  10.266   7.994 -1.2545 -0.0635  2.5327
  178MOL0     H24014  10.099  10.468   7.993 -1.0085  0.7491 -0.4149
  178MOL0     H24015   9.859  10.444   8.094  2.7871  2.7090 -0.2115
  178MOL0     H24016   9.394  10.553   7.952 -1.4277 -1.5921 -1.6476
  178MOL0     H24017   9.211  10.616   8.094 -0.5701 -0.9444  1.2056
  178MOL0     H24018   8.964  10.527   8.166  0.2811  0.0420  0.5404
  178MOL0     H24019   9.061  10.635   8.256  0.5373  0.1210  2.1765
  178MOL0     H24020   8.820  10.604   8.350  0.3767  0.5063 -3.0673
  178MOL0     H24021   8.954  10.580   8.460  0.4179  0.2898 -0.4008
  178MOL0     H24022   8.815  10.409   8.517 -0.2749  1.6939  0.3055
  178MOL0     H24023   8.911  10.327   8.395 -0.2553 -0.6334  2.5707
  178MOL0     H24024   8.646  10.458   8.324  0.5511 -0.6501  0.9106
  178MOL0     H24025   8.754  10.374   8.202 -2.8257 -3.9575 -1.3803
  178MOL0     H24026   8.542  10.049   8.294  0.4756 -0.6982 -0.2976
  178MOL0     H24027   9.277  10.257   8.332 -3.0514 -1.9702 -2.7570
  178MOL0     H24028   9.548  10.142   8.160  0.6205 -0.9707  0.6458
  178MOL0     H24029   9.609  10.248   8.283 -0.9376  1.8533 -1.8285
  178MOL0     H24030   9.461  10.145   8.318 -2.0640  0.2602 -0.4861
  179MOL0     O24031   4.832   7.453   2.876 -0.2351 -0.1858 -0.0500
  179MOL0     C24032   4.872   7.393   2.976 -0.7072  0.4972  0.1057
  179MOL0     O24033   4.808   7.296   3.054  0.1007  0.3682  0.6286
  179MOL0     C24034   4.673   7.297   3.046 -0.0915 -0.6391  0.2683
  179MOL0     C24035   4.597   7.178   3.022 -0.2708  0.0350 -0.1967
  179MOL0     C24036   4.462   7.178   3.001 -0.2614 -0.3849 -0.0676
  179MOL0     C24037   4.388   7.296   3.031  0.7727 -0.5664  0.2083
  179MOL0     O24038   4.249   7.288   3.035  0.6753  0.3290  0.5108
  179MOL0     C24039   4.203   7.199   3.141 -0.2540  0.5618  0.1734
  179MOL0     C24040   4.059   7.151   3.095 -0.3013 -0.4913 -0.1274
  179MOL0     C24041   4.041   7.095   2.957  0.0507  0.4767  0.6145
  179MOL0     C24042   3.936   6.982   2.964 -0.4811 -0.1796 -0.3185
  179MOL0     C24043   3.922   6.900   2.830  0.3766 -0.6490  0.4260
  179MOL0     C24044   3.902   6.989   2.716 -0.2544  0.3556 -0.6977
  179MOL0     C24045   3.776   7.074   2.732  0.2459 -0.1481  0.8808
  179MOL0     C24046   3.663   7.046   2.638  0.2209  0.5886  0.1127
  179MOL0     N24047   3.607   6.920   2.679  0.3699  0.0754  0.2971
  179MOL0     C24048   3.636   6.789   2.641 -0.3326 -0.7634  0.5071
  179MOL0     C24049   3.524   6.727   2.676 -0.3089 -0.2009  0.4625
  179MOL0     C24050   3.485   6.578   2.658  0.4648 -0.3950  0.0882
  179MOL0     C24051   3.598   6.484   2.701 -0.0267 -0.3973  0.5559
  179MOL0     C24052   3.648   6.507   2.847  0.6511  0.2084 -0.3957
  179MOL0     C24053   3.543   6.451   2.952 -0.2015  0.4000  0.2194
  179MOL0     O24054   3.523   6.311   2.943  0.1976 -0.2598  0.2781
  179MOL0     C24055   3.476   6.238   3.056  0.1203 -0.1560 -0.1221
  179MOL0     C24056   3.455   6.296   3.180 -0.1899 -0.2782  0.0764
  179MOL0     C24057   3.431   6.206   3.292  0.4143  0.1006 -0.8786
  179MOL0     C24058   3.418   6.069   3.273 -0.8642  0.1656 -0.2627
  179MOL0     C24059   3.387   5.974   3.386  0.2017 -0.4958 -0.3042
  179MOL0     O24060   3.391   5.847   3.358  0.3226  0.4223  0.4337
  179MOL0     C24061   3.331   5.761   3.446  0.0411 -0.4774  0.4273
  179MOL0     C24062   3.411   5.654   3.488 -0.4564  0.7215  0.1693
  179MOL0     C24063   3.377   5.566   3.589 -0.3106  0.7749  0.4310
  179MOL0     C24064   3.249   5.580   3.650  0.6305  0.4319  0.9691
  179MOL0     O24065   3.190   5.510   3.751  0.5462  0.0519  0.0235
  179MOL0     C24066   3.271   5.406   3.807 -0.0284 -0.1830 -0.1634
  179MOL0     C24067   3.179   5.303   3.883  0.1362 -0.1588  0.1141
  179MOL0     C24068   3.268   5.195   3.963  0.2042 -0.2403 -0.8547
  179MOL0     C24069   3.344   5.256   4.081  0.4645 -0.1096 -0.3387
  179MOL0     C24070   3.260   5.344   4.170 -1.0776 -1.3551 -0.6714
  179MOL0     C24071   3.340   5.395   4.288 -0.5379  0.3822  0.3004
  179MOL0     C24072   3.250   5.483   4.371  0.1839 -1.1770 -0.1719
  179MOL0     C24073   3.258   5.623   4.316  0.2437  0.1366  0.1323
  179MOL0    Cl24074   3.411   5.693   4.324 -0.0815 -0.3456  0.0807
  179MOL0     C24075   3.172   5.687   3.614  0.5652  0.4732  0.5756
  179MOL0     C24076   3.205   5.778   3.512 -0.5109  0.1550 -0.7826
  179MOL0     O24077   3.352   6.027   3.490  0.9797  0.1902 -0.4446
  179MOL0     C24078   3.425   6.015   3.146  0.5712 -0.4851  0.4887
  179MOL0     C24079   3.453   6.102   3.039  0.5802  0.4308  0.0742
  179MOL0     N24080   3.434   6.811   2.736  0.0944 -0.8495 -0.0974
  179MOL0     N24081   3.478   6.924   2.739  0.0141 -0.5803  0.4527
  179MOL0     C24082   4.456   7.418   3.056  0.1038  0.6149  0.4166
  179MOL0     C24083   4.594   7.413   3.056  0.3729  0.2116 -0.1919
  179MOL0     C24084   5.005   7.416   3.032  0.2310 -1.2928  0.4963
  179MOL0     C24085   5.101   7.326   3.006 -0.8187 -0.8152 -0.4667
  179MOL0     C24086   5.231   7.352   3.054  0.4367  0.0912 -0.3073
  179MOL0     C24087   5.250   7.467   3.136  0.0911 -0.8055 -0.3129
  179MOL0     O24088   5.377   7.480   3.188 -0.1285  0.1519  0.1255
  179MOL0     C24089   5.412   7.597   3.268  0.2310  0.2753 -0.4188
  179MOL0     C24090   5.561   7.636   3.227 -0.6282  0.0283 -0.9246
  179MOL0     C24091   5.618   7.723   3.339  0.1090 -0.3092 -0.8159
  179MOL0     C24092   5.759   7.778   3.306  0.0704 -0.4302 -0.3075
  179MOL0     C24093   5.844   7.783   3.438 -0.0554 -0.8614  0.7980
  179MOL0     C24094   5.899   7.790   3.542  0.4451  0.1063 -0.3980
  179MOL0     C24095   5.145   7.555   3.159  0.0222  0.5957  0.6011
  179MOL0     C24096   5.021   7.532   3.108  0.7334  0.6528 -0.3553
  179MOL0     C24097   4.920   7.640   3.138  0.3599  0.1744  0.8052
  179MOL0     H24098   4.655   7.086   3.014 -1.5836 -0.9279  0.8902
  179MOL0     H24099   4.415   7.083   2.975 -1.0532 -0.1961  0.6251
  179MOL0     H24100   4.265   7.112   3.165 -1.2040  0.3810  2.1126
  179MOL0     H24101   4.196   7.256   3.234  0.0588 -0.7150  0.9995
  179MOL0     H24102   3.994   7.238   3.107 -1.1706 -1.1422 -0.0047
  179MOL0     H24103   4.034   7.079   3.174 -0.2677 -0.6115 -0.2253
  179MOL0     H24104   4.136   7.055   2.918 -1.7499 -2.1859 -1.4071
  179MOL0     H24105   4.012   7.172   2.886 -2.7795 -0.3386  0.7726
  179MOL0     H24106   3.966   6.903   3.033 -1.3172 -0.0989  0.1536
  179MOL0     H24107   3.842   7.023   3.002 -0.1790 -0.1216  0.3641
  179MOL0     H24108   4.008   6.835   2.812 -1.5170 -2.8647 -1.2998
  179MOL0     H24109   3.831   6.839   2.832 -0.2459  0.2605  0.6049
  179MOL0     H24110   3.991   7.051   2.698  0.0839 -0.0320 -0.3713
  179MOL0     H24111   3.898   6.921   2.630  0.8009 -3.2191  1.8528
  179MOL0     H24112   3.802   7.178   2.709 -1.0470 -0.0450 -0.2179
  179MOL0     H24113   3.740   7.078   2.835  2.7654 -0.6379  1.8620
  179MOL0     H24114   3.587   7.124   2.630  0.0724  0.4282 -0.0910
  179MOL0     H24115   3.700   7.034   2.535 -2.9414  2.2069 -1.3532
  179MOL0     H24116   3.724   6.746   2.594 -0.3696 -0.6634  0.3442
  179MOL0     H24117   3.392   6.558   2.712  0.1137  2.9815  0.9777
  179MOL0     H24118   3.471   6.569   2.550 -0.6097 -0.2180  0.1974
  179MOL0     H24119   3.557   6.385   2.678 -2.2379  0.2281  1.4893
  179MOL0     H24120   3.682   6.506   2.634  0.1719  1.1243  1.2670
  179MOL0     H24121   3.662   6.613   2.869  0.2693  0.2988 -0.5866
  179MOL0     H24122   3.740   6.449   2.859  0.4507 -0.1264 -0.4662
  179MOL0     H24123   3.449   6.506   2.940 -0.8514 -0.4258  1.3054
  179MOL0     H24124   3.579   6.487   3.049 -0.3808  3.6545 -0.7881
  179MOL0     H24125   3.463   6.400   3.210 -5.3780 -0.3464  2.9582
  179MOL0     H24126   3.427   6.247   3.392  0.9503 -1.8819 -0.0039
  179MOL0     H24127   3.509   5.646   3.442  0.0324  2.3971  0.8420
  179MOL0     H24128   3.453   5.496   3.625 -0.1183  1.3831  1.2222
  179MOL0     H24129   3.329   5.350   3.733  0.5438  0.8913 -0.5643
  179MOL0     H24130   3.349   5.445   3.873  0.2531 -1.6694  0.4091
  179MOL0     H24131   3.107   5.353   3.949 -0.4088  2.1649 -2.0510
  179MOL0     H24132   3.114   5.262   3.806 -0.4378 -3.5334  2.2080
  179MOL0     H24133   3.214   5.108   4.003  1.7075 -1.1703 -0.7684
  179MOL0     H24134   3.343   5.148   3.899  0.1515  0.4788 -1.4559
  179MOL0     H24135   3.429   5.318   4.053  2.2988 -1.0338  2.7311
  179MOL0     H24136   3.373   5.174   4.148 -1.7170 -1.9721 -1.4935
  179MOL0     H24137   3.169   5.295   4.205 -2.1474  0.4005 -0.8676
  179MOL0     H24138   3.227   5.432   4.113 -0.7638  0.0414  1.2062
  179MOL0     H24139   3.378   5.315   4.352  2.7591  1.2870 -0.3817
  179MOL0     H24140   3.430   5.444   4.251  0.4451 -0.7859  1.0834
  179MOL0     H24141   3.287   5.476   4.474 -0.7879 -0.4287  0.2431
  179MOL0     H24142   3.146   5.453   4.354  0.3320 -0.4319 -2.8220
  179MOL0     H24143   3.226   5.619   4.212 -1.2643  1.8120  0.4838
  179MOL0     H24144   3.197   5.685   4.383  2.3109  1.9600  0.4557
  179MOL0     H24145   3.087   5.705   3.679  1.0455  0.8097  1.1218
  179MOL0     H24146   3.142   5.863   3.487 -1.4862 -0.8850 -1.9967
  179MOL0     H24147   3.404   5.910   3.128  0.8352 -0.1707 -2.0384
  179MOL0     H24148   3.448   6.058   2.940  0.6524  0.0705  0.2310
  179MOL0     H24149   4.405   7.509   3.085 -1.1085  0.0038  0.2388
  179MOL0     H24150   4.644   7.508   3.069  1.2495 -0.4544  1.5580
  179MOL0     H24151   5.087   7.232   2.953 -0.2249 -0.1043 -1.9537
  179MOL0     H24152   5.307   7.275   3.057  0.0678 -0.2473  0.6109
  179MOL0     H24153   5.398   7.583   3.375 -0.6417  0.0700 -0.5546
  179MOL0     H24154   5.345   7.680   3.243  1.3755  1.7980  1.2628
  179MOL0     H24155   5.567   7.693   3.134  3.2860  2.3394  0.5199
  179MOL0     H24156   5.620   7.544   3.220 -1.2251 -0.4859  0.4741
  179MOL0     H24157   5.623   7.675   3.437 -0.8223  0.9301 -0.1199
  179MOL0     H24158   5.552   7.806   3.368 -1.0809 -1.0046 -1.4268
  179MOL0     H24159   5.815   7.709   3.241 -0.8158  0.0001 -1.5691
  179MOL0     H24160   5.748   7.875   3.258  1.8984 -0.3550 -0.6655
  179MOL0     H24161   5.943   7.788   3.640 -0.1741 -0.7271 -0.1284
  179MOL0     H24162   5.155   7.651   3.208  3.0381 -0.1882  1.7444
  179MOL0     H24163   4.966   7.735   3.109  2.2332 -0.8517  0.2570
  179MOL0     H24164   4.823   7.621   3.091  2.2323 -0.2418 -3.3141
  179MOL0     H24165   4.897   7.653   3.244 -0.8846  1.2104  0.4265
  180MOL0     O24166  10.434   8.464   6.990  0.2218 -0.1785  0.6281
  180MOL0     C24167  10.364   8.368   7.019 -0.1500 -0.2573 -1.0768
  180MOL0     O24168  10.368   8.242   6.968  0.3254  0.6198 -0.0418
  180MOL0     C24169  10.481   8.205   6.907 -1.3358 -0.2865  0.7086
  180MOL0     C24170  10.481   8.158   6.777  0.4923 -0.3277 -0.5693
  180MOL0     C24171  10.594   8.116   6.720 -0.6797 -0.4029  0.8565
  180MOL0     C24172  10.721   8.145   6.782 -0.5669 -0.6051 -0.3604
  180MOL0     O24173  10.837   8.112   6.714  0.5131 -1.0509  0.4750
  180MOL0     C24174  10.902   7.992   6.762 -0.1576 -0.1598  0.2303
  180MOL0     C24175  11.013   7.959   6.666  0.2221 -0.7151  0.4997
  180MOL0     C24176  11.119   7.870   6.745 -0.1076  0.6914  0.1851
  180MOL0     C24177  11.254   7.943   6.762 -0.2727 -1.7531 -0.2104
  180MOL0     C24178  11.351   7.856   6.829 -0.2167 -0.1555 -0.2665
  180MOL0     C24179  11.495   7.917   6.824  0.3601  0.4831 -0.6539
  180MOL0     C24180  11.516   8.054   6.890  1.4727  0.1544 -0.2584
  180MOL0     C24181  11.637   8.137   6.847  1.3534  0.2948  0.4891
  180MOL0     N24182  11.767   8.081   6.879 -0.2716  0.9756 -0.4395
  180MOL0     C24183  11.821   8.089   7.005  0.0025 -0.1058 -0.6511
  180MOL0     C24184  11.939   8.022   6.995  0.1384  0.1901  0.4721
  180MOL0     C24185  12.054   7.989   7.086 -0.3155  0.1998 -1.2290
  180MOL0     C24186  12.161   8.107   7.100  0.2268  0.1425  0.6176
  180MOL0     C24187  12.233   8.109   7.241 -0.7689 -0.7241  0.0043
  180MOL0     C24188  12.314   8.239   7.263 -0.1553 -0.2506 -0.3401
  180MOL0     O24189  12.411   8.263   7.154  0.8309  0.1373 -0.0649
  180MOL0     C24190  12.539   8.215   7.162  0.2167  0.6651 -0.1599
  180MOL0     C24191  12.624   8.222   7.053 -0.3651  0.5034 -0.4771
  180MOL0     C24192  12.762   8.191   7.060  0.2024 -1.0182  0.1497
  180MOL0     C24193  12.813   8.137   7.177 -0.3474 -1.0538 -0.6723
  180MOL0     C24194  12.955   8.109   7.181 -0.3009 -0.5827 -0.5523
  180MOL0     O24195  13.034   8.155   7.081  0.2526  0.8287  0.3282
  180MOL0     C24196  13.170   8.144   7.092 -0.1525 -0.4615  0.1834
  180MOL0     C24197  13.242   8.265   7.097  0.0713 -0.4176 -0.1073
  180MOL0     C24198  13.385   8.271   7.119  0.4311 -0.6412  0.7107
  180MOL0     C24199  13.455   8.155   7.128 -0.8216  0.4608  0.2813
  180MOL0     O24200  13.591   8.170   7.135  0.1746  0.7637  0.8125
  180MOL0     C24201  13.681   8.060   7.155  0.2517  0.3399 -0.1848
  180MOL0     C24202  13.817   8.111   7.204  0.0250  0.1052 -0.3709
  180MOL0     C24203  13.901   7.990   7.246  0.6968 -0.5149  0.5848
  180MOL0     C24204  14.049   8.017   7.253  0.4490 -0.2879 -0.1957
  180MOL0     C24205  14.093   8.084   7.386  0.4665 -0.4486  0.4877
  180MOL0     C24206  14.230   8.137   7.400 -0.5767  1.3029 -0.0541
  180MOL0     C24207  14.252   8.255   7.305  0.1444 -0.0336 -0.2189
  180MOL0     C24208  14.384   8.321   7.334  0.5512  0.5527  0.0621
  180MOL0    Cl24209  14.391   8.370   7.505  0.1261 -0.3525  0.0321
  180MOL0     C24210  13.379   8.039   7.129 -0.4919 -0.7133 -0.0984
  180MOL0     C24211  13.245   8.024   7.105 -0.4049  0.2430 -0.0294
  180MOL0     O24212  12.994   8.045   7.282 -0.5749  0.6210 -0.3346
  180MOL0     C24213  12.724   8.114   7.277 -0.6549 -0.3672 -0.7419
  180MOL0     C24214  12.597   8.153   7.277 -0.9045  0.0357 -0.8860
  180MOL0     N24215  11.945   7.960   6.871 -0.7153 -0.9933  0.0073
  180MOL0     N24216  11.833   7.995   6.802 -0.3414 -0.1464  0.4424
  180MOL0     C24217  10.721   8.192   6.915 -0.3305 -0.4247 -0.3457
  180MOL0     C24218  10.601   8.212   6.982  0.3172  0.2146  0.2647
  180MOL0     C24219  10.244   8.399   7.097 -0.2607 -0.0985 -0.1397
  180MOL0     C24220  10.165   8.503   7.047 -0.2531 -0.2137  0.1893
  180MOL0     C24221  10.035   8.530   7.096  0.2406  1.4146  0.2947
  180MOL0     C24222   9.988   8.441   7.200 -0.9907  0.7975  0.5549
  180MOL0     O24223   9.865   8.464   7.247  0.3906  0.2769 -0.3869
  180MOL0     C24224   9.779   8.358   7.199  0.3384 -0.4500 -0.5341
  180MOL0     C24225   9.648   8.363   7.263 -0.4991  0.8447 -0.2657
  180MOL0     C24226   9.568   8.486   7.219 -0.4008  0.4564 -0.0474
  180MOL0     C24227   9.417   8.462   7.242 -0.0543 -0.0368 -0.1864
  180MOL0     C24228   9.402   8.450   7.386 -1.5117  0.1611  1.3028
  180MOL0     C24229   9.384   8.450   7.510 -0.0253  0.1783  0.4625
  180MOL0     C24230  10.067   8.346   7.260  0.1147  0.0102  0.2851
  180MOL0     C24231  10.196   8.325   7.203  0.7926 -0.1112  0.5713
  180MOL0     C24232  10.257   8.207   7.268 -0.0366  0.5745  0.1103
  180MOL0     H24233  10.383   8.141   6.734 -0.5498 -0.2879  1.6366
  180MOL0     H24234  10.579   8.082   6.618  2.4641  0.6057 -0.0743
  180MOL0     H24235  10.936   8.021   6.862  1.4126  0.7514 -0.5260
  180MOL0     H24236  10.826   7.914   6.763 -0.0974 -0.3976 -3.3603
  180MOL0     H24237  11.065   8.044   6.621  0.1481 -1.9094 -2.0039
  180MOL0     H24238  10.975   7.910   6.576 -0.1101  0.9984 -0.3457
  180MOL0     H24239  11.137   7.787   6.676 -0.8861  0.2502  0.4952
  180MOL0     H24240  11.075   7.837   6.839  2.4248 -1.9750  0.5838
  180MOL0     H24241  11.293   7.978   6.666 -2.1099 -2.3194 -1.2051
  180MOL0     H24242  11.236   8.040   6.809  0.3882 -0.4330 -2.5388
  180MOL0     H24243  11.320   7.836   6.932  4.5300 -0.0512  1.4504
  180MOL0     H24244  11.351   7.763   6.772  2.6483  0.3158 -1.1984
  180MOL0     H24245  11.554   7.840   6.875 -1.3818 -0.3135  0.2490
  180MOL0     H24246  11.523   7.935   6.719  1.7451 -1.7083 -0.7161
  180MOL0     H24247  11.520   8.038   6.998 -1.0525 -3.7140 -0.5729
  180MOL0     H24248  11.431   8.120   6.873 -0.5779 -2.6103 -1.2976
  180MOL0     H24249  11.631   8.136   6.738 -0.3568 -2.5412  0.4911
  180MOL0     H24250  11.632   8.242   6.876  1.6155  0.0962  1.2809
  180MOL0     H24251  11.781   8.148   7.088  1.6872  2.3346 -1.4474
  180MOL0     H24252  12.009   7.961   7.182  2.0334 -1.7203 -0.5741
  180MOL0     H24253  12.105   7.901   7.045  4.1188  0.8738  2.0649
  180MOL0     H24254  12.228   8.093   7.015  2.5225  5.6298  1.1306
  180MOL0     H24255  12.102   8.197   7.081 -2.0102 -1.2814  0.4554
  180MOL0     H24256  12.292   8.023   7.273  1.0001  0.3725 -0.1433
  180MOL0     H24257  12.152   8.130   7.311 -2.8233 -1.9536 -1.8672
  180MOL0     H24258  12.373   8.243   7.355 -1.0915 -1.3279  0.3424
  180MOL0     H24259  12.244   8.322   7.270  1.0934  0.9726 -1.7704
  180MOL0     H24260  12.586   8.269   6.963 -4.0196  2.3649  1.7993
  180MOL0     H24261  12.814   8.230   6.974  3.0931 -0.3840  2.0441
  180MOL0     H24262  13.180   8.353   7.097  3.3196  2.1339  2.4530
  180MOL0     H24263  13.433   8.365   7.143 -0.7187 -0.0964  0.9758
  180MOL0     H24264  13.645   7.993   7.233 -1.4129  0.8424 -0.4725
  180MOL0     H24265  13.697   8.007   7.060 -1.0288 -2.5799  1.0949
  180MOL0     H24266  13.853   8.154   7.110  0.3632  0.0209 -0.2821
  180MOL0     H24267  13.806   8.180   7.289  0.3629 -1.4219  0.9629
  180MOL0     H24268  13.865   7.960   7.345  1.7539 -2.3889  0.4522
  180MOL0     H24269  13.880   7.903   7.184 -1.5411 -0.0090  0.5621
  180MOL0     H24270  14.090   8.068   7.166 -0.8025  0.8479 -0.1537
  180MOL0     H24271  14.108   7.926   7.242  2.4165  0.9673 -0.4994
  180MOL0     H24272  14.055   8.024   7.469 -1.8456 -0.4104 -0.4951
  180MOL0     H24273  14.040   8.178   7.406  0.4585 -0.0478 -1.2590
  180MOL0     H24274  14.253   8.166   7.503  1.4065  1.4378 -0.4969
  180MOL0     H24275  14.302   8.058   7.377  0.2436  1.4815  1.7397
  180MOL0     H24276  14.182   8.338   7.320  1.3466  0.9762  0.0627
  180MOL0     H24277  14.248   8.226   7.200  2.3056  3.4501 -1.4500
  180MOL0     H24278  14.464   8.246   7.323  1.4153  1.3294  0.8625
  180MOL0     H24279  14.392   8.408   7.268 -2.8621  0.5163 -0.5861
  180MOL0     H24280  13.433   7.950   7.158  1.9432  1.3243  2.1774
  180MOL0     H24281  13.181   7.937   7.111 -0.7649  0.5689  1.1003
  180MOL0     H24282  12.764   8.065   7.364  0.2193  1.0846 -0.2972
  180MOL0     H24283  12.548   8.128   7.371 -3.5631 -0.8089 -2.3824
  180MOL0     H24284  10.813   8.189   6.974 -0.0866  3.0278 -0.3109
  180MOL0     H24285  10.612   8.238   7.087  2.2712  0.1234  0.1336
  180MOL0     H24286  10.189   8.575   6.969 -0.2553 -2.0592 -1.5800
  180MOL0     H24287   9.975   8.610   7.056 -0.2765  1.0547  0.3343
  180MOL0     H24288   9.809   8.258   7.230 -1.3124 -0.0394  2.8742
  180MOL0     H24289   9.763   8.355   7.091  1.6066 -1.7134 -0.7115
  180MOL0     H24290   9.676   8.354   7.368 -0.9459 -2.3024 -0.3241
  180MOL0     H24291   9.600   8.269   7.236 -3.5286  2.0043  0.6563
  180MOL0     H24292   9.595   8.508   7.115  0.2698  0.7731  0.1887
  180MOL0     H24293   9.610   8.571   7.274 -0.5494  3.0896 -3.6239
  180MOL0     H24294   9.352   8.541   7.203  1.0190  1.1579  0.3826
  180MOL0     H24295   9.385   8.368   7.196  0.9203  0.0559 -1.0878
  180MOL0     H24296   9.376   8.441   7.617 -0.2855  1.3198  0.5614
  180MOL0     H24297  10.031   8.288   7.344  0.5339 -1.0618 -0.2599
  180MOL0     H24298  10.297   8.138   7.192  1.2386  0.2960  0.9901
  180MOL0     H24299  10.341   8.235   7.333  1.4086 -2.3281 -0.2961
  180MOL0     H24300  10.184   8.148   7.324  1.1580 -1.0109  0.0688
  181MOL0     O24301   9.148   3.343   4.778  0.5841  0.1330 -0.6754
  181MOL0     C24302   9.133   3.277   4.677 -0.0283 -0.2025  0.1729
  181MOL0     O24303   9.213   3.180   4.633  0.7012  1.3601 -0.9700
  181MOL0     C24304   9.347   3.170   4.646 -0.5298 -0.7995 -0.5512
  181MOL0     C24305   9.403   3.057   4.589 -0.1336  0.4909  0.2596
  181MOL0     C24306   9.538   3.045   4.584 -0.9280  0.3024  0.3426
  181MOL0     C24307   9.623   3.142   4.641  0.6009  0.3478  0.6932
  181MOL0     O24308   9.758   3.111   4.644 -0.3772 -0.1136 -0.2782
  181MOL0     C24309   9.852   3.201   4.709  0.0002 -0.3742  0.0336
  181MOL0     C24310   9.980   3.118   4.722  0.7909  0.1876  0.3319
  181MOL0     C24311  10.099   3.198   4.789  0.0389 -0.0883 -0.3523
  181MOL0     C24312  10.229   3.126   4.818 -0.4795 -0.3598 -0.0697
  181MOL0     C24313  10.340   3.226   4.869 -0.1048  0.1259  0.1705
  181MOL0     C24314  10.482   3.165   4.895  0.4357 -0.1134  0.7063
  181MOL0     C24315  10.578   3.273   4.938  0.3342  0.3480  1.0432
  181MOL0     C24316  10.552   3.339   5.073  0.0224  0.5111 -0.0257
  181MOL0     N24317  10.600   3.250   5.177  0.8236 -0.2974 -0.4130
  181MOL0     C24318  10.541   3.128   5.218 -0.5775 -0.1694  0.0167
  181MOL0     C24319  10.622   3.084   5.321  0.0593 -0.5795 -0.6908
  181MOL0     C24320  10.606   2.966   5.410  0.2363  0.8518  0.0676
  181MOL0     C24321  10.536   2.994   5.548  0.4782 -0.3272  0.3899
  181MOL0     C24322  10.631   2.956   5.663 -0.7810  0.0759  0.5656
  181MOL0     C24323  10.769   3.045   5.670 -0.4485  0.4037 -0.0771
  181MOL0     O24324  10.795   3.081   5.806 -0.7159  0.3849 -0.9086
  181MOL0     C24325  10.919   3.132   5.829  0.6632  0.9027  0.4838
  181MOL0     C24326  10.986   3.201   5.727  0.0718 -0.3973 -0.6722
  181MOL0     C24327  11.106   3.270   5.749 -0.0678  0.5241 -0.1530
  181MOL0     C24328  11.171   3.263   5.873 -0.3913  0.0955  1.4423
  181MOL0     C24329  11.304   3.321   5.891 -0.0246  0.4857 -0.5666
  181MOL0     O24330  11.332   3.368   6.010  0.2561  0.4367 -1.1753
  181MOL0     C24331  11.446   3.432   6.024 -0.2802 -0.1118  0.4223
  181MOL0     C24332  11.457   3.573   6.038 -0.3326  0.1019 -0.1447
  181MOL0     C24333  11.586   3.633   6.048 -0.0361 -0.8238  0.4718
  181MOL0     C24334  11.697   3.551   6.064 -1.7205 -0.0148 -0.0267
  181MOL0     O24335  11.815   3.618   6.066  0.1937 -0.1968 -0.6057
  181MOL0     C24336  11.917   3.578   6.160  0.1808 -0.0272 -0.1164
  181MOL0     C24337  11.934   3.658   6.287 -0.0002 -0.1516 -0.4169
  181MOL0     C24338  12.077   3.702   6.314 -0.1902  0.3157  0.1206
  181MOL0     C24339  12.114   3.805   6.207  0.5320  0.5897 -0.4079
  181MOL0     C24340  12.260   3.832   6.225 -0.1773  0.5741 -0.0234
  181MOL0     C24341  12.293   3.967   6.170 -0.1887 -0.2121 -0.6057
  181MOL0     C24342  12.444   3.995   6.189 -0.2775  0.3236 -0.8395
  181MOL0     C24343  12.502   4.012   6.333 -0.1178  0.3812 -0.2604
  181MOL0    Cl24344  12.682   4.049   6.340  0.3297 -0.2811  0.1921
  181MOL0     C24345  11.685   3.412   6.061 -0.3503  0.2801  0.1582
  181MOL0     C24346  11.559   3.358   6.041 -0.2918  0.7563  0.0948
  181MOL0     O24347  11.377   3.329   5.788  0.3630 -0.2145 -0.5611
  181MOL0     C24348  11.107   3.196   5.976  0.2015  0.3125  0.2394
  181MOL0     C24349  10.980   3.132   5.955  0.2198 -0.4262  0.5884
  181MOL0     N24350  10.720   3.184   5.343 -0.3656 -0.0395 -0.3017
  181MOL0     N24351  10.711   3.278   5.259 -0.0893 -0.3296  0.2876
  181MOL0     C24352   9.562   3.263   4.687 -0.3270 -0.1654 -0.4799
  181MOL0     C24353   9.422   3.284   4.684 -0.5315 -0.9261 -0.5037
  181MOL0     C24354   8.999   3.290   4.618  0.3900  0.1947  0.1527
  181MOL0     C24355   8.988   3.318   4.486  0.7214 -0.0725  0.2140
  181MOL0     C24356   8.865   3.359   4.425 -0.1547 -0.6615 -0.5047
  181MOL0     C24357   8.746   3.355   4.497  0.9917  0.2335 -0.6742
  181MOL0     O24358   8.626   3.374   4.440  0.1473  0.4568 -0.0112
  181MOL0     C24359   8.617   3.493   4.353 -0.4321  0.6757 -0.5476
  181MOL0     C24360   8.482   3.510   4.297 -0.2694  0.0181 -0.3821
  181MOL0     C24361   8.469   3.645   4.222  0.3428  0.5926  0.8205
  181MOL0     C24362   8.502   3.623   4.074  0.0194  0.1600 -0.4888
  181MOL0     C24363   8.375   3.572   4.014 -0.1440  0.6707  0.0535
  181MOL0     C24364   8.270   3.517   3.970 -0.4081 -1.0898  0.2354
  181MOL0     C24365   8.749   3.293   4.621  0.1694  0.3775 -0.6475
  181MOL0     C24366   8.874   3.275   4.688 -0.1906 -0.3621  0.2503
  181MOL0     C24367   8.871   3.247   4.830 -0.6900 -0.3104 -0.3344
  181MOL0     H24368   9.349   2.969   4.558  3.7453 -3.0486  2.5909
  181MOL0     H24369   9.579   2.953   4.544 -1.4744 -0.5301  1.5986
  181MOL0     H24370   9.876   3.289   4.648 -0.1612 -1.1575 -1.1933
  181MOL0     H24371   9.819   3.237   4.807 -1.5983  0.3180 -0.7204
  181MOL0     H24372  10.012   3.073   4.628 -0.0798 -0.2395  0.2424
  181MOL0     H24373   9.956   3.034   4.788 -0.1687  0.3193  0.1607
  181MOL0     H24374  10.053   3.220   4.886 -0.2902 -0.0610 -0.5130
  181MOL0     H24375  10.123   3.290   4.735  0.1085 -0.9360 -1.8180
  181MOL0     H24376  10.214   3.039   4.883 -0.9574  0.1398  0.5016
  181MOL0     H24377  10.271   3.079   4.729  1.3842 -1.5337  1.3436
  181MOL0     H24378  10.353   3.319   4.812 -0.2466 -0.3226 -0.6114
  181MOL0     H24379  10.309   3.277   4.961  1.2170 -0.3384  0.8957
  181MOL0     H24380  10.478   3.090   4.974 -0.5087 -0.0525  0.7315
  181MOL0     H24381  10.525   3.126   4.802  0.4056  2.8179 -0.6464
  181MOL0     H24382  10.569   3.357   4.868 -2.2667  0.8574  1.9130
  181MOL0     H24383  10.680   3.232   4.938 -0.8397 -2.7823  1.0103
  181MOL0     H24384  10.608   3.433   5.073 -0.4326  0.7842 -0.0733
  181MOL0     H24385  10.449   3.374   5.086  0.7973  2.2953  2.0275
  181MOL0     H24386  10.453   3.075   5.183  0.2047 -2.0522  0.7483
  181MOL0     H24387  10.546   2.887   5.363  2.2247  1.2754 -3.5339
  181MOL0     H24388  10.707   2.924   5.423  0.4053  1.0517 -0.5787
  181MOL0     H24389  10.500   3.097   5.555  0.0100 -0.4576  0.0230
  181MOL0     H24390  10.457   2.919   5.553  1.0809 -0.9779  0.3021
  181MOL0     H24391  10.654   2.850   5.653  1.4699  0.3628  1.8366
  181MOL0     H24392  10.580   2.961   5.759 -0.7858 -2.2924  0.7338
  181MOL0     H24393  10.746   3.133   5.608 -2.1297  1.0867  1.4649
  181MOL0     H24394  10.849   2.991   5.618  0.0115  1.7938 -0.8704
  181MOL0     H24395  10.942   3.216   5.630 -1.9754  1.8388  0.5146
  181MOL0     H24396  11.158   3.328   5.674  1.7315  1.4978  1.7513
  181MOL0     H24397  11.374   3.643   6.032  0.6356  1.3328  0.3821
  181MOL0     H24398  11.580   3.742   6.044 -2.9275 -0.9608 -3.2181
  181MOL0     H24399  11.910   3.473   6.187 -1.8854  0.6102  2.1891
  181MOL0     H24400  12.012   3.583   6.106 -0.5206 -0.6796 -1.4414
  181MOL0     H24401  11.867   3.744   6.272 -1.6922 -1.7635 -2.6657
  181MOL0     H24402  11.895   3.603   6.373 -0.2270 -0.8766 -0.9794
  181MOL0     H24403  12.076   3.736   6.418 -4.0262  1.4003 -0.1325
  181MOL0     H24404  12.152   3.623   6.310  0.5365  0.9385  0.9216
  181MOL0     H24405  12.058   3.899   6.215 -0.1244  0.5150 -3.1398
  181MOL0     H24406  12.109   3.764   6.106  1.0447  1.1239 -0.6548
  181MOL0     H24407  12.316   3.759   6.165 -2.4251 -1.0133 -0.3056
  181MOL0     H24408  12.290   3.827   6.330 -0.0299 -1.1351 -0.1080
  181MOL0     H24409  12.279   3.985   6.063 -1.7100  0.7147 -0.2854
  181MOL0     H24410  12.232   4.039   6.226 -0.6128 -0.1801 -1.1077
  181MOL0     H24411  12.471   4.083   6.129 -1.9012  0.6585 -1.1061
  181MOL0     H24412  12.501   3.919   6.135  0.8560  0.6530 -0.1469
  181MOL0     H24413  12.437   4.083   6.385  0.7125 -0.0041  1.3624
  181MOL0     H24414  12.488   3.915   6.381  0.3425  0.2965 -0.2963
  181MOL0     H24415  11.780   3.361   6.075 -1.4989 -1.9782  0.2869
  181MOL0     H24416  11.562   3.249   6.035  2.9690  0.7627 -0.1456
  181MOL0     H24417  11.154   3.186   6.074  0.7037 -2.0565 -0.1971
  181MOL0     H24418  10.941   3.091   6.048 -1.3293  1.3102  0.7754
  181MOL0     H24419   9.625   3.344   4.724 -0.8192 -0.0310  0.0810
  181MOL0     H24420   9.372   3.377   4.710  2.0196  1.1142 -2.4995
  181MOL0     H24421   9.072   3.319   4.417  0.8565  1.6660  0.3587
  181MOL0     H24422   8.874   3.402   4.325  2.0465  1.5985  0.5401
  181MOL0     H24423   8.676   3.475   4.263  0.9815  0.9365  0.2836
  181MOL0     H24424   8.659   3.578   4.408 -0.9167  0.1615  0.6475
  181MOL0     H24425   8.407   3.511   4.377  2.3806 -2.2731  2.3451
  181MOL0     H24426   8.459   3.424   4.234  1.6769 -3.0711  2.7542
  181MOL0     H24427   8.542   3.712   4.268 -0.1011  1.5021  0.2506
  181MOL0     H24428   8.373   3.697   4.236  1.5473  3.1115  0.3826
  181MOL0     H24429   8.531   3.716   4.024 -0.2221 -0.1073 -1.1281
  181MOL0     H24430   8.583   3.549   4.064 -0.2033 -0.3890  1.4561
  181MOL0     H24431   8.188   3.461   3.930 -0.4960 -0.6757 -0.1774
  181MOL0     H24432   8.654   3.287   4.673 -1.3628 -0.2902 -3.3183
  181MOL0     H24433   8.967   3.216   4.871 -1.1563 -2.3628 -0.7025
  181MOL0     H24434   8.840   3.337   4.884  1.6000 -0.4811  1.3809
  181MOL0     H24435   8.813   3.158   4.857 -1.5984  0.8300  1.6628
  182MOL0     O24436   3.466  10.038   7.698  0.3612  0.0300 -0.0358
  182MOL0     C24437   3.397  10.031   7.592  0.3052 -0.3602  0.2385
  182MOL0     O24438   3.447   9.981   7.472  0.0299  0.0706 -0.1078
  182MOL0     C24439   3.585   9.972   7.468  0.8925  0.0181 -0.5826
  182MOL0     C24440   3.675  10.087   7.493 -0.2954 -0.1797 -0.4537
  182MOL0     C24441   3.815  10.068   7.511  0.4227  0.1773 -0.0997
  182MOL0     C24442   3.872   9.941   7.490  0.3480  0.8605  0.6027
  182MOL0     O24443   4.002   9.922   7.519  0.4586  0.1429 -0.1238
  182MOL0     C24444   4.084   9.842   7.442 -0.3881  0.0935  0.1025
  182MOL0     C24445   4.224   9.903   7.467  0.1351  0.0385 -0.0035
  182MOL0     C24446   4.262   9.996   7.369 -0.3975  0.4181 -0.2706
  182MOL0     C24447   4.391  10.064   7.410  0.4377  1.2006 -0.2167
  182MOL0     C24448   4.448  10.168   7.310 -0.2826 -0.0266  0.1128
  182MOL0     C24449   4.539  10.110   7.190 -0.2426  0.3668 -0.8444
  182MOL0     C24450   4.582  10.245   7.130 -0.4067  0.9706 -0.5589
  182MOL0     C24451   4.689  10.230   7.022 -0.2212 -0.0180 -0.8216
  182MOL0     N24452   4.713  10.359   6.963 -0.5690  0.4012  0.2405
  182MOL0     C24453   4.837  10.416   6.925  0.9908  0.2649  0.3172
  182MOL0     C24454   4.809  10.501   6.831  0.0068 -0.3359  0.1515
  182MOL0     C24455   4.916  10.589   6.772 -0.7501 -0.6069  0.1613
  182MOL0     C24456   4.878  10.638   6.631  0.2634  0.7589 -0.5116
  182MOL0     C24457   4.973  10.728   6.554  0.6452 -1.2860  0.5298
  182MOL0     C24458   5.110  10.672   6.530  0.1885 -0.4862  1.1357
  182MOL0     O24459   5.104  10.550   6.456  0.3053  0.3867  0.4549
  182MOL0     C24460   5.205  10.499   6.385  0.0769 -0.2916 -0.5722
  182MOL0     C24461   5.326  10.555   6.368 -0.6283 -0.1233 -0.1762
  182MOL0     C24462   5.423  10.503   6.277  0.0660 -0.0779 -0.4077
  182MOL0     C24463   5.402  10.386   6.200 -0.5016  0.6223 -0.0145
  182MOL0     C24464   5.496  10.346   6.099  0.5458 -0.0956 -0.1156
  182MOL0     O24465   5.610  10.426   6.090  0.0660  0.0719  0.3806
  182MOL0     C24466   5.702  10.417   5.991 -0.3563  0.0650 -0.4069
  182MOL0     C24467   5.735  10.297   5.922  0.6022 -0.2193 -1.2281
  182MOL0     C24468   5.852  10.289   5.843 -0.3848  0.2198  0.0524
  182MOL0     C24469   5.931  10.396   5.818 -0.4859 -0.0053 -0.5202
  182MOL0     O24470   6.038  10.389   5.736  0.1365 -0.7896 -0.0988
  182MOL0     C24471   6.168  10.409   5.804 -0.3235  0.2266 -0.0949
  182MOL0     C24472   6.277  10.416   5.688 -0.2536  0.2910  0.0294
  182MOL0     C24473   6.401  10.493   5.726 -0.1347  0.6021 -0.9557
  182MOL0     C24474   6.500  10.476   5.614 -0.7955 -0.4916 -0.0283
  182MOL0     C24475   6.651  10.509   5.661  1.1145 -0.0439 -0.4468
  182MOL0     C24476   6.761  10.483   5.560 -0.1129 -0.2488 -0.0282
  182MOL0     C24477   6.900  10.525   5.603 -0.8759 -0.8434 -0.4753
  182MOL0     C24478   6.997  10.519   5.478 -0.1907 -0.2283 -1.0807
  182MOL0    Cl24479   7.151  10.584   5.535  0.1080  0.0156 -0.3825
  182MOL0     C24480   5.892  10.516   5.869  0.1830 -0.4690 -0.6357
  182MOL0     C24481   5.794  10.525   5.968 -0.7507  0.0992  0.1727
  182MOL0     O24482   5.461  10.261   6.018  0.4149  0.4440 -1.1709
  182MOL0     C24483   5.280  10.321   6.220  0.4914  0.7422 -0.7238
  182MOL0     C24484   5.183  10.377   6.311  0.0938  0.2216  0.0875
  182MOL0     N24485   4.674  10.509   6.816  0.9037 -0.2195  0.4219
  182MOL0     N24486   4.613  10.420   6.882  0.4494  0.9713 -0.2719
  182MOL0     C24487   3.788   9.834   7.459 -0.5452  0.4171 -0.1914
  182MOL0     C24488   3.645   9.847   7.456 -0.2402  0.0650  0.5105
  182MOL0     C24489   3.262  10.087   7.605  0.0025  0.0982 -0.1203
  182MOL0     C24490   3.218  10.174   7.502  0.5587 -0.1437  0.4054
  182MOL0     C24491   3.091  10.237   7.515 -0.2410  0.1323  0.4530
  182MOL0     C24492   3.007  10.202   7.617  1.1839  0.4092  0.0651
  182MOL0     O24493   2.880  10.252   7.632 -0.2839 -0.1644  0.3904
  182MOL0     C24494   2.840  10.370   7.559  0.4068 -0.1715 -0.6256
  182MOL0     C24495   2.715  10.433   7.626 -0.0269  0.1963  0.2841
  182MOL0     C24496   2.752  10.541   7.733 -0.0618 -0.8098 -0.4254
  182MOL0     C24497   2.628  10.627   7.762  0.2227 -0.0215 -0.2100
  182MOL0     C24498   2.598  10.708   7.644 -0.7370 -0.5122  0.0363
  182MOL0     C24499   2.600  10.767   7.535  0.1815 -0.3694 -0.4328
  182MOL0     C24500   3.044  10.107   7.713 -0.1614 -1.0657 -0.5046
  182MOL0     C24501   3.177  10.064   7.719 -0.0739  0.2914  0.5944
  182MOL0     C24502   3.223   9.984   7.836  0.5581 -0.4046 -0.3646
  182MOL0     H24503   3.632  10.186   7.498 -1.9225 -0.8065 -1.3272
  182MOL0     H24504   3.878  10.148   7.549  0.4489 -0.0455  0.3349
  182MOL0     H24505   4.064   9.737   7.466  1.6479 -0.1796  0.7851
  182MOL0     H24506   4.062   9.854   7.336  0.1838 -1.1272 -0.1693
  182MOL0     H24507   4.291   9.816   7.467  1.4101  0.9673  1.7972
  182MOL0     H24508   4.234   9.933   7.571  1.9124 -1.8466  0.4617
  182MOL0     H24509   4.189  10.071   7.336 -0.1777  0.1615 -1.3678
  182MOL0     H24510   4.272   9.941   7.275  0.5259  0.8659 -0.4462
  182MOL0     H24511   4.379  10.116   7.506  4.2821 -0.3444  1.3266
  182MOL0     H24512   4.462   9.982   7.424 -1.6143 -0.8989 -1.5216
  182MOL0     H24513   4.364  10.232   7.282 -0.6517 -1.0525 -1.2376
  182MOL0     H24514   4.508  10.231   7.376 -0.3950  0.1070  0.0867
  182MOL0     H24515   4.627  10.051   7.219 -1.8978 -0.0302  4.5048
  182MOL0     H24516   4.487  10.046   7.119 -0.8869 -1.3350  1.0522
  182MOL0     H24517   4.624  10.314   7.204 -0.1519  1.1787 -0.8903
  182MOL0     H24518   4.490  10.279   7.080 -2.0139 -1.1989  0.7512
  182MOL0     H24519   4.778  10.199   7.077 -1.1057  0.4088  0.9135
  182MOL0     H24520   4.663  10.147   6.956 -0.3963 -1.2355  0.7099
  182MOL0     H24521   4.936  10.383   6.955  1.8232  0.6475 -1.8576
  182MOL0     H24522   4.951  10.674   6.831  0.2941 -0.3813 -0.7465
  182MOL0     H24523   5.001  10.520   6.767 -1.5205 -1.6013  0.3100
  182MOL0     H24524   4.849  10.550   6.573  1.2057  0.7270 -0.9565
  182MOL0     H24525   4.786  10.697   6.636  2.4920  4.4660  0.2390
  182MOL0     H24526   4.983  10.819   6.614  0.3408 -1.3573  0.6874
  182MOL0     H24527   4.927  10.760   6.460  1.1176  0.3795  0.8390
  182MOL0     H24528   5.156  10.662   6.629  2.9482  1.2954  0.1665
  182MOL0     H24529   5.164  10.749   6.473 -0.9586  0.0451  0.7327
  182MOL0     H24530   5.355  10.641   6.427 -3.2200 -0.3406  1.5878
  182MOL0     H24531   5.513  10.562   6.262 -0.1266  0.5762  0.8254
  182MOL0     H24532   5.674  10.210   5.941 -1.4496  1.6535  1.6627
  182MOL0     H24533   5.884  10.196   5.799  3.1348  2.4910 -2.7741
  182MOL0     H24534   6.168  10.497   5.869 -1.6592  1.1385 -1.2697
  182MOL0     H24535   6.185  10.321   5.866 -0.8170  0.5696  0.5326
  182MOL0     H24536   6.309  10.318   5.652  3.1007  1.8162 -1.6399
  182MOL0     H24537   6.225  10.469   5.607  1.5124  1.3607 -0.4566
  182MOL0     H24538   6.370  10.598   5.727 -2.4745  0.0897 -3.7480
  182MOL0     H24539   6.444  10.457   5.820  0.5721 -0.4961 -1.6793
  182MOL0     H24540   6.472  10.556   5.545 -2.0751 -0.6796  0.2471
  182MOL0     H24541   6.509  10.379   5.565 -1.0876  0.0193 -1.1287
  182MOL0     H24542   6.672  10.462   5.758 -2.4711 -3.4810 -1.0495
  182MOL0     H24543   6.655  10.614   5.693  2.6650 -0.7348  1.9621
  182MOL0     H24544   6.781  10.381   5.527  3.2026 -0.0551  0.9734
  182MOL0     H24545   6.736  10.549   5.476  0.9207 -1.9617 -1.7485
  182MOL0     H24546   6.936  10.460   5.684  1.7521  1.3175  0.2190
  182MOL0     H24547   6.906  10.629   5.637  2.2811 -0.7963 -0.8728
  182MOL0     H24548   7.014  10.413   5.455 -0.4635  0.4044 -4.7549
  182MOL0     H24549   6.944  10.571   5.398 -2.7397 -0.0972  0.6013
  182MOL0     H24550   5.937  10.608   5.831  0.5452 -0.6281 -0.6027
  182MOL0     H24551   5.785  10.618   6.021  2.4470 -0.0545  1.1647
  182MOL0     H24552   5.244  10.231   6.171 -0.9068  1.5447 -1.2408
  182MOL0     H24553   5.081  10.339   6.312 -0.0827  0.6806  1.4639
  182MOL0     H24554   3.824   9.732   7.449  2.0019  1.1788  0.4710
  182MOL0     H24555   3.577   9.764   7.439 -1.9864  1.6009 -0.5127
  182MOL0     H24556   3.290  10.200   7.425  3.8025 -3.7175  1.9236
  182MOL0     H24557   3.066  10.309   7.438 -3.4285  0.6250  1.7568
  182MOL0     H24558   2.789  10.330   7.471 -1.4782 -0.5856  0.5913
  182MOL0     H24559   2.924  10.437   7.538 -1.0741  1.2263 -2.3444
  182MOL0     H24560   2.671  10.347   7.677 -0.4585  1.5685  2.3820
  182MOL0     H24561   2.644  10.463   7.549  2.0558 -1.1001 -2.3168
  182MOL0     H24562   2.830  10.603   7.689 -0.3629  1.2222  1.7005
  182MOL0     H24563   2.794  10.506   7.827 -0.0790 -0.7299 -0.3878
  182MOL0     H24564   2.534  10.581   7.794 -2.1592  2.3552 -3.1615
  182MOL0     H24565   2.641  10.704   7.838 -2.1763  0.3532 -0.0882
  182MOL0     H24566   2.599  10.837   7.454 -0.6361  2.6022  1.9475
  182MOL0     H24567   2.978  10.078   7.793  1.1994 -0.9407  0.7151
  182MOL0     H24568   3.240   9.877   7.822 -2.6266 -0.8528 -1.4962
  182MOL0     H24569   3.313  10.028   7.882 -0.0848  0.5609 -0.0030
  182MOL0     H24570   3.147   9.988   7.915 -3.2832  0.9327 -3.7867
  183MOL0     O24571   8.736   2.451   2.139  0.1699  0.3098  0.0347
  183MOL0     C24572   8.759   2.367   2.228 -0.9005 -0.2633  0.4084
  183MOL0     O24573   8.891   2.333   2.278  0.6707 -0.4356  0.0655
  183MOL0     C24574   9.008   2.376   2.211 -0.6019  0.0910  0.2871
  183MOL0     C24575   9.124   2.354   2.287 -0.3625 -0.3731  0.3830
  183MOL0     C24576   9.245   2.378   2.237 -0.4494  0.1074  0.6705
  183MOL0     C24577   9.274   2.426   2.103  0.2897  0.4073 -0.3694
  183MOL0     O24578   9.392   2.454   2.042 -0.4004  0.0591 -0.0433
  183MOL0     C24579   9.505   2.385   2.100 -0.4207  0.2612 -0.9000
  183MOL0     C24580   9.609   2.377   1.991 -0.3526 -0.0968 -0.7855
  183MOL0     C24581   9.735   2.299   2.026  0.1083  0.0261  1.5181
  183MOL0     C24582   9.845   2.346   1.924 -0.3692  0.1014  1.0884
  183MOL0     C24583   9.968   2.249   1.938 -0.8852  0.2177 -0.6675
  183MOL0     C24584  10.097   2.310   1.892 -0.6664  0.1821  0.9084
  183MOL0     C24585  10.138   2.428   1.990 -0.3546  0.3868  0.1230
  183MOL0     C24586  10.284   2.453   1.979  0.5284 -0.2029  0.0435
  183MOL0     N24587  10.326   2.568   2.047 -0.0434  0.8189  0.2870
  183MOL0     C24588  10.361   2.568   2.183 -0.6115 -0.1395  0.6284
  183MOL0     C24589  10.425   2.684   2.187  0.0249  0.3784  0.0495
  183MOL0     C24590  10.494   2.736   2.309 -0.1659  0.6744  0.0270
  183MOL0     C24591  10.638   2.774   2.269  0.0191  0.4325  0.9985
  183MOL0     C24592  10.725   2.814   2.386  0.2561  0.2441 -0.5161
  183MOL0     C24593  10.871   2.810   2.342  0.1245 -0.3081 -0.4538
  183MOL0     O24594  10.946   2.871   2.443 -0.2677  0.3112 -0.4937
  183MOL0     C24595  11.078   2.897   2.422 -0.3506 -0.4692  0.4322
  183MOL0     C24596  11.155   2.838   2.320  1.2292  1.2374  0.1591
  183MOL0     C24597  11.294   2.858   2.302 -0.7649 -0.0406 -0.1287
  183MOL0     C24598  11.360   2.961   2.369  0.5237 -0.5243 -0.4672
  183MOL0     C24599  11.498   2.993   2.342 -0.0844  0.3747 -0.6997
  183MOL0     O24600  11.568   3.070   2.434 -0.6966  0.0668 -0.0997
  183MOL0     C24601  11.691   3.106   2.391 -0.2030 -0.3540  0.6393
  183MOL0     C24602  11.803   3.048   2.452  0.4493  0.0165  0.9387
  183MOL0     C24603  11.929   3.094   2.407  0.4887 -0.5163  0.0684
  183MOL0     C24604  11.946   3.210   2.330  0.2573 -0.1635  0.2933
  183MOL0     O24605  12.075   3.249   2.295  0.2431  0.7665  0.2721
  183MOL0     C24606  12.086   3.362   2.211  0.1153  0.2522  0.0787
  183MOL0     C24607  12.221   3.380   2.141  1.1985 -1.1636  0.1784
  183MOL0     C24608  12.342   3.371   2.234  0.2514 -0.4579 -0.3485
  183MOL0     C24609  12.387   3.512   2.287  0.9825  0.3581 -0.1325
  183MOL0     C24610  12.516   3.515   2.364  0.0216  0.4268 -0.2191
  183MOL0     C24611  12.566   3.652   2.416  0.1060  0.3239 -0.1951
  183MOL0     C24612  12.597   3.750   2.299 -0.4208 -0.4885  0.2721
  183MOL0     C24613  12.655   3.887   2.343 -0.0885  0.5114 -0.4143
  183MOL0    Cl24614  12.792   3.871   2.455  0.1798 -0.1673 -0.1331
  183MOL0     C24615  11.832   3.270   2.283  0.6828  0.3492  0.2055
  183MOL0     C24616  11.710   3.213   2.304 -0.1129 -0.2505 -0.2014
  183MOL0     O24617  11.545   2.948   2.237 -0.5133  0.7001 -0.0209
  183MOL0     C24618  11.281   3.036   2.462  0.1487 -0.1080  0.0907
  183MOL0     C24619  11.147   3.000   2.484  0.2006 -0.3367  0.2932
  183MOL0     N24620  10.421   2.757   2.070  0.1696 -0.2427  0.4591
  183MOL0     N24621  10.370   2.680   1.983 -0.5816  0.2174 -0.7554
  183MOL0     C24622   9.162   2.462   2.035 -0.0303  0.2938 -0.1601
  183MOL0     C24623   9.029   2.433   2.087 -0.2804  0.4386  0.0374
  183MOL0     C24624   8.651   2.279   2.278  0.0285 -0.5177 -0.5713
  183MOL0     C24625   8.678   2.184   2.372  0.3863  0.4022 -0.9782
  183MOL0     C24626   8.579   2.093   2.420  0.6438 -0.4541 -0.2801
  183MOL0     C24627   8.444   2.103   2.374 -0.5054 -0.1954  0.3370
  183MOL0     O24628   8.342   2.025   2.427  0.2187 -1.0189 -0.7313
  183MOL0     C24629   8.365   1.960   2.557 -0.3306 -0.5556  0.1581
  183MOL0     C24630   8.236   1.909   2.633  0.9236  0.6336 -0.6412
  183MOL0     C24631   8.101   1.979   2.636  0.5411 -0.0782 -0.6373
  183MOL0     C24632   8.034   1.999   2.491  0.0277  0.1710 -1.4982
  183MOL0     C24633   7.905   1.941   2.496  1.5976  0.5587 -0.4228
  183MOL0     C24634   7.787   1.907   2.491  0.4293 -0.8268  0.3220
  183MOL0     C24635   8.413   2.209   2.276 -0.0997 -0.4714  0.4871
  183MOL0     C24636   8.513   2.297   2.236 -0.2406 -0.2491 -0.0125
  183MOL0     C24637   8.459   2.421   2.175  0.3490 -0.2000  0.2216
  183MOL0     H24638   9.118   2.313   2.388  1.9909  3.5310  2.3287
  183MOL0     H24639   9.334   2.344   2.290 -1.1287 -0.2978  1.5793
  183MOL0     H24640   9.540   2.451   2.180  0.1219  0.9242 -1.6657
  183MOL0     H24641   9.476   2.282   2.122 -2.7649  1.4956  2.7164
  183MOL0     H24642   9.634   2.482   1.974 -0.6099  0.4855  1.8884
  183MOL0     H24643   9.568   2.339   1.897 -1.7799 -0.7403  0.0614
  183MOL0     H24644   9.695   2.198   2.012 -0.7192  0.3696  1.3331
  183MOL0     H24645   9.779   2.313   2.126 -0.3206  1.0297  1.5770
  183MOL0     H24646   9.808   2.341   1.821  2.2032 -0.6588  0.1403
  183MOL0     H24647   9.871   2.452   1.939 -1.3595  0.8397 -1.7558
  183MOL0     H24648   9.972   2.210   2.040 -0.8596 -0.4682 -0.9249
  183MOL0     H24649   9.958   2.154   1.886  1.3241 -1.4758  1.7678
  183MOL0     H24650  10.179   2.239   1.908  0.4766  0.8486 -1.4853
  183MOL0     H24651  10.101   2.325   1.784  1.7785  1.4895  1.1199
  183MOL0     H24652  10.112   2.407   2.094  0.4866  1.0986  0.4888
  183MOL0     H24653  10.083   2.519   1.962  1.4869  2.1463  1.8851
  183MOL0     H24654  10.329   2.367   2.030 -0.4778  0.6624  2.5668
  183MOL0     H24655  10.306   2.457   1.872  0.6867 -0.6323  0.0613
  183MOL0     H24656  10.347   2.490   2.257  3.1708 -0.0216  1.6479
  183MOL0     H24657  10.451   2.826   2.353  0.4267  0.8995  0.1594
  183MOL0     H24658  10.503   2.651   2.378  0.4321  2.5295  2.3745
  183MOL0     H24659  10.683   2.694   2.209 -2.0638 -0.0985  0.0707
  183MOL0     H24660  10.629   2.860   2.202 -1.3633 -2.2879 -2.6994
  183MOL0     H24661  10.712   2.738   2.463  1.3937  2.5737  2.1989
  183MOL0     H24662  10.695   2.901   2.445  1.4776  1.4631 -1.6056
  183MOL0     H24663  10.887   2.888   2.267  0.6629 -0.3461 -0.3805
  183MOL0     H24664  10.906   2.710   2.316  0.6820  0.2028 -1.7741
  183MOL0     H24665  11.113   2.756   2.262  0.4417  0.9059  1.1809
  183MOL0     H24666  11.335   2.799   2.221  0.3084  0.5197 -0.0171
  183MOL0     H24667  11.793   2.963   2.520 -1.0392  1.1744  2.2581
  183MOL0     H24668  12.013   3.040   2.448 -0.4803 -0.0711  2.8409
  183MOL0     H24669  12.015   3.350   2.128  1.7879 -1.9552 -1.1457
  183MOL0     H24670  12.060   3.455   2.262  0.3485 -0.1814  0.9921
  183MOL0     H24671  12.234   3.303   2.064 -3.2018 -0.9319 -1.0961
  183MOL0     H24672  12.219   3.475   2.087 -1.4159 -2.2087 -1.8280
  183MOL0     H24673  12.330   3.300   2.317  4.3843 -0.2077  0.6816
  183MOL0     H24674  12.433   3.333   2.187  1.7379  2.4365 -0.0041
  183MOL0     H24675  12.308   3.557   2.348  1.1742  1.5681 -0.7457
  183MOL0     H24676  12.400   3.582   2.204  2.4096 -1.0532 -1.1634
  183MOL0     H24677  12.587   3.470   2.294  0.4061 -0.5108  0.7418
  183MOL0     H24678  12.514   3.455   2.456 -1.5853 -1.8091 -1.5985
  183MOL0     H24679  12.487   3.701   2.475  0.9035  2.5504 -0.8927
  183MOL0     H24680  12.657   3.633   2.473 -0.5199 -1.0407  0.4038
  183MOL0     H24681  12.519   3.765   2.224  2.6598  1.9544 -2.8070
  183MOL0     H24682  12.671   3.702   2.233 -0.9866 -0.8870 -0.0793
  183MOL0     H24683  12.693   3.931   2.250  1.6790 -1.0535 -0.4905
  183MOL0     H24684  12.580   3.948   2.394 -1.5909 -1.9305  0.5122
  183MOL0     H24685  11.844   3.361   2.226 -0.1532  1.3007  1.4880
  183MOL0     H24686  11.619   3.255   2.261 -1.9021 -3.1996  0.3936
  183MOL0     H24687  11.339   3.114   2.511 -0.7123 -0.5839  1.9671
  183MOL0     H24688  11.086   3.044   2.562  1.5708 -0.7946  1.6695
  183MOL0     H24689   9.185   2.511   1.941 -4.3164 -0.5473 -1.8739
  183MOL0     H24690   8.944   2.462   2.025  0.3211 -0.3817 -1.2130
  183MOL0     H24691   8.781   2.162   2.398  0.3850 -1.0969 -2.0927
  183MOL0     H24692   8.617   2.017   2.488  0.7080 -0.8144 -0.7106
  183MOL0     H24693   8.417   2.035   2.618 -0.2556 -1.1115  0.7797
  183MOL0     H24694   8.428   1.871   2.554 -0.6097 -0.9161  2.5792
  183MOL0     H24695   8.263   1.895   2.738 -1.7442 -0.7471 -0.0674
  183MOL0     H24696   8.223   1.807   2.595 -3.0018  0.5012  0.6059
  183MOL0     H24697   8.117   2.076   2.683  1.7029 -0.3603 -0.4167
  183MOL0     H24698   8.032   1.925   2.701  0.7312 -0.0630 -0.4234
  183MOL0     H24699   8.025   2.103   2.459 -2.9937  0.4926  0.0483
  183MOL0     H24700   8.094   1.953   2.412  2.4272  2.5596 -1.1748
  183MOL0     H24701   7.687   1.868   2.494 -1.5019  3.4492 -0.7718
  183MOL0     H24702   8.306   2.225   2.260 -0.5668 -1.5504  2.2844
  183MOL0     H24703   8.503   2.501   2.236 -1.5821  2.0243 -1.1255
  183MOL0     H24704   8.493   2.439   2.073 -0.4113  0.3589  0.0580
  183MOL0     H24705   8.352   2.443   2.176  0.4433  0.3263 -0.4992
  184MOL0     O24706   6.596   7.755   0.594  0.8063  0.2546 -0.4307
  184MOL0     C24707   6.512   7.809   0.672 -1.2140  0.5138  0.5904
  184MOL0     O24708   6.547   7.865   0.792 -0.2972  0.0084 -0.0201
  184MOL0     C24709   6.674   7.875   0.842  0.5509  0.4198 -0.3584
  184MOL0     C24710   6.772   7.771   0.843 -1.3439 -0.1027  0.1585
  184MOL0     C24711   6.899   7.790   0.900  0.0801  0.0346  0.4449
  184MOL0     C24712   6.935   7.923   0.941 -0.6889  1.0160 -0.0116
  184MOL0     O24713   7.060   7.940   0.981  0.1755 -0.3706 -0.2598
  184MOL0     C24714   7.149   8.028   0.905  0.0051  0.4742 -1.1718
  184MOL0     C24715   7.292   7.969   0.886  0.7482 -0.4930  0.2143
  184MOL0     C24716   7.280   7.822   0.834  0.8013  0.3146  0.0786
  184MOL0     C24717   7.207   7.820   0.698  0.4613 -0.0330 -0.3019
  184MOL0     C24718   7.232   7.685   0.623 -0.4834 -0.1910 -0.5652
  184MOL0     C24719   7.187   7.564   0.702 -0.3079 -0.8384  0.1933
  184MOL0     C24720   7.232   7.437   0.630 -0.4523  0.6964 -0.0590
  184MOL0     C24721   7.124   7.398   0.524 -0.0441  0.4597 -0.4587
  184MOL0     N24722   7.154   7.312   0.413  0.9313  0.4566 -0.0834
  184MOL0     C24723   7.246   7.332   0.317  0.6097  0.8435 -0.8599
  184MOL0     C24724   7.218   7.233   0.231 -0.4474  0.2510 -0.0546
  184MOL0     C24725   7.260   7.244   0.084 -0.1396 -0.0708  0.1455
  184MOL0     C24726   7.411   7.215   0.060 -0.0244 -0.2259 -0.5968
  184MOL0     C24727   7.456   7.068   0.063  0.1044  0.0858  0.5332
  184MOL0     C24728   7.605   7.058   0.053 -0.9443  0.2525  0.3454
  184MOL0     O24729   7.640   6.926   0.111 -0.3132  0.3228  0.1420
  184MOL0     C24730   7.746   6.931   0.193 -0.0524 -0.7262 -0.0013
  184MOL0     C24731   7.756   6.831   0.290  0.4245  0.3433 -0.6690
  184MOL0     C24732   7.866   6.824   0.379  0.2732  0.6892  0.7222
  184MOL0     C24733   7.980   6.908   0.369  0.4988  0.5820  0.2483
  184MOL0     C24734   8.085   6.906   0.472 -0.1968  0.1772 -0.3581
  184MOL0     O24735   8.063   6.840   0.585  0.1742 -0.3945 -0.1874
  184MOL0     C24736   8.171   6.819   0.676 -0.0106  0.2299  0.1661
  184MOL0     C24737   8.256   6.912   0.723 -0.4692  0.0925 -0.5591
  184MOL0     C24738   8.369   6.875   0.798 -0.9760 -0.1743 -0.0989
  184MOL0     C24739   8.391   6.744   0.844 -0.4249 -0.2216 -0.2309
  184MOL0     O24740   8.486   6.728   0.943 -0.3368 -0.4170 -0.2000
  184MOL0     C24741   8.541   6.601   0.956 -0.4295 -0.0618 -0.2742
  184MOL0     C24742   8.611   6.539   0.837 -0.1614 -0.4008 -0.0620
  184MOL0     C24743   8.761   6.584   0.826 -0.0259  0.4232 -0.1339
  184MOL0     C24744   8.850   6.524   0.942  0.2627 -0.0158  0.1134
  184MOL0     C24745   9.002   6.527   0.912 -0.1729 -0.1392 -0.4229
  184MOL0     C24746   9.053   6.668   0.936  0.0060 -0.1959  0.7410
  184MOL0     C24747   9.198   6.680   0.885 -0.0877  0.1849  0.6626
  184MOL0     C24748   9.257   6.812   0.949 -0.1280  0.2062 -0.9753
  184MOL0    Cl24749   9.442   6.801   0.925  0.2838  0.6370 -0.0212
  184MOL0     C24750   8.309   6.646   0.790  0.7794 -0.5207  0.6086
  184MOL0     C24751   8.203   6.686   0.701 -0.4767  0.1553 -0.4374
  184MOL0     O24752   8.192   6.944   0.434 -0.3567  0.2286  0.1096
  184MOL0     C24753   7.965   7.000   0.265  0.4235 -0.8093  0.1620
  184MOL0     C24754   7.856   7.015   0.183 -0.1682 -0.7036 -0.8468
  184MOL0     N24755   7.111   7.156   0.271  0.2884  1.5491 -0.5291
  184MOL0     N24756   7.072   7.213   0.376  0.2385 -0.7362  0.3825
  184MOL0     C24757   6.837   8.018   0.937 -1.2252  0.2404  0.5679
  184MOL0     C24758   6.711   7.999   0.906  0.0907  0.7103  0.0276
  184MOL0     C24759   6.367   7.805   0.629 -0.3979 -0.3174  0.1975
  184MOL0     C24760   6.325   7.695   0.556  0.3939 -0.2901 -1.0479
  184MOL0     C24761   6.201   7.687   0.500 -0.4980  0.0665  0.0515
  184MOL0     C24762   6.114   7.795   0.519 -0.1181  0.6193  0.2574
  184MOL0     O24763   5.990   7.777   0.458 -0.4774 -0.1424 -1.2260
  184MOL0     C24764   5.912   7.900   0.446 -0.4445 -1.3993  0.0335
  184MOL0     C24765   5.811   7.864   0.340 -0.0338  0.1899 -0.2868
  184MOL0     C24766   5.723   7.984   0.302 -0.4395 -0.8888 -0.5363
  184MOL0     C24767   5.612   8.015   0.417 -0.1978 -0.0889  0.7908
  184MOL0     C24768   5.576   8.152   0.378  0.1686 -1.0038  0.6429
  184MOL0     C24769   5.556   8.268   0.356 -0.2630  0.6413  0.2212
  184MOL0     C24770   6.144   7.899   0.601  0.3418  0.6742 -0.6973
  184MOL0     C24771   6.274   7.915   0.648 -0.3753 -0.1616 -0.5515
  184MOL0     C24772   6.324   8.040   0.720 -0.4948  1.2025 -0.2742
  184MOL0     H24773   6.755   7.671   0.806 -0.8451  0.0645 -0.5584
  184MOL0     H24774   6.977   7.715   0.894  0.2408  0.1884  0.6124
  184MOL0     H24775   7.109   8.054   0.806  0.6759 -1.4616 -2.0077
  184MOL0     H24776   7.155   8.124   0.955 -1.2987  0.9745 -1.9230
  184MOL0     H24777   7.350   7.960   0.978  3.3499 -0.1806 -1.2738
  184MOL0     H24778   7.354   8.024   0.814  0.5288 -0.2588  0.2043
  184MOL0     H24779   7.219   7.759   0.900  0.5420  1.4365  0.9348
  184MOL0     H24780   7.381   7.780   0.837 -0.9518 -4.8196 -1.7831
  184MOL0     H24781   7.100   7.839   0.707  0.0141 -1.7397 -1.5452
  184MOL0     H24782   7.250   7.897   0.633  0.1391  1.4318  1.1534
  184MOL0     H24783   7.185   7.695   0.525 -4.1498 -0.6998  0.9951
  184MOL0     H24784   7.339   7.683   0.601  0.4414  1.8690  2.9652
  184MOL0     H24785   7.249   7.561   0.792  0.2247 -3.8965 -0.1869
  184MOL0     H24786   7.079   7.574   0.716 -0.6104  3.0047 -3.0851
  184MOL0     H24787   7.240   7.352   0.698  1.2185 -0.7334 -1.9444
  184MOL0     H24788   7.327   7.456   0.580 -0.8079 -0.4124 -1.1875
  184MOL0     H24789   7.042   7.347   0.575 -0.5646 -1.0366 -2.6290
  184MOL0     H24790   7.078   7.492   0.491  2.2750  1.4354 -1.1493
  184MOL0     H24791   7.316   7.416   0.316  0.6194  0.9329  1.4041
  184MOL0     H24792   7.205   7.165   0.032 -0.3094 -0.6640  1.1881
  184MOL0     H24793   7.245   7.343   0.041  2.3051  0.2822 -0.0357
  184MOL0     H24794   7.436   7.254  -0.039  3.0679  0.4016  0.3209
  184MOL0     H24795   7.469   7.282   0.123 -3.3966  1.1579  1.2630
  184MOL0     H24796   7.393   7.012  -0.006 -1.9023 -1.9657  3.7390
  184MOL0     H24797   7.437   7.023   0.161  3.1648 -1.6998  0.4386
  184MOL0     H24798   7.654   7.139   0.108 -1.8491  0.5941  0.6576
  184MOL0     H24799   7.640   7.058  -0.051 -3.1047 -0.9177 -0.4380
  184MOL0     H24800   7.670   6.768   0.310  0.0914  0.6382 -1.1467
  184MOL0     H24801   7.868   6.744   0.453 -2.1349  0.1129  0.2469
  184MOL0     H24802   8.242   7.014   0.689  1.9608  1.2792  1.6691
  184MOL0     H24803   8.435   6.956   0.830  0.6840 -2.0413  1.5553
  184MOL0     H24804   8.611   6.605   1.040 -2.0054 -1.1862  1.1926
  184MOL0     H24805   8.453   6.539   0.979  0.1826 -0.4622  1.1411
  184MOL0     H24806   8.620   6.431   0.848 -1.2461 -0.3206  1.9297
  184MOL0     H24807   8.562   6.568   0.743  2.2596 -2.1639 -2.0245
  184MOL0     H24808   8.807   6.555   0.731 -2.1120 -1.0850 -0.7572
  184MOL0     H24809   8.756   6.692   0.842 -0.6513  0.1353  1.9147
  184MOL0     H24810   8.824   6.419   0.960 -2.1854  0.7773  1.6199
  184MOL0     H24811   8.831   6.566   1.041  2.6142  3.1093 -0.6050
  184MOL0     H24812   9.030   6.504   0.809 -0.6371 -2.7377 -0.0238
  184MOL0     H24813   9.044   6.446   0.971 -0.9723 -1.1749 -1.2435
  184MOL0     H24814   8.992   6.739   0.881 -0.0534  1.1994  2.5221
  184MOL0     H24815   9.040   6.696   1.041  1.0678 -0.2531  0.9016
  184MOL0     H24816   9.199   6.681   0.775 -3.2484  1.1156  0.5364
  184MOL0     H24817   9.257   6.596   0.923  1.3259  1.6074  1.7214
  184MOL0     H24818   9.233   6.908   0.902  3.9006  1.5099 -0.7141
  184MOL0     H24819   9.234   6.814   1.056 -2.1382  1.0453 -1.3726
  184MOL0     H24820   8.324   6.543   0.821 -2.4718 -0.7407  1.8134
  184MOL0     H24821   8.136   6.604   0.676 -4.1849  2.3915  1.4322
  184MOL0     H24822   8.044   7.074   0.262 -0.7037  0.4873  1.0501
  184MOL0     H24823   7.869   7.098   0.115 -0.9538 -1.8869 -2.5058
  184MOL0     H24824   6.865   8.120   0.963  1.8596  0.2799 -2.1680
  184MOL0     H24825   6.641   8.081   0.910  0.0140  0.6739 -0.4916
  184MOL0     H24826   6.396   7.617   0.531 -0.6158 -1.5410 -0.2025
  184MOL0     H24827   6.186   7.601   0.435  0.1792 -0.6291  0.7932
  184MOL0     H24828   5.962   7.989   0.407 -0.7456 -2.1506 -2.2036
  184MOL0     H24829   5.864   7.933   0.538 -0.3142  1.8720 -0.9522
  184MOL0     H24830   5.748   7.786   0.383 -0.4329  1.1830  1.0024
  184MOL0     H24831   5.847   7.836   0.241 -2.1836  0.6819 -1.2678
  184MOL0     H24832   5.661   7.982   0.211  0.3656  1.3440 -1.1897
  184MOL0     H24833   5.793   8.065   0.280 -0.0307 -0.1449  2.9457
  184MOL0     H24834   5.531   7.942   0.404 -0.0550 -0.4574  1.8679
  184MOL0     H24835   5.658   8.014   0.516  1.3661 -3.1295  0.1691
  184MOL0     H24836   5.544   8.372   0.332 -0.1449  0.5873 -0.0659
  184MOL0     H24837   6.078   7.984   0.614  1.2436  1.0161  2.4673
  184MOL0     H24838   6.401   8.080   0.653  1.0982  1.5498  1.6454
  184MOL0     H24839   6.243   8.110   0.743 -2.5516 -0.7161 -1.3040
  184MOL0     H24840   6.368   8.012   0.817 -1.0807 -2.3668 -0.9174
  185MOL0     O24841   3.656   6.550  10.245  0.4770  0.9322 -0.0350
  185MOL0     C24842   3.632   6.570  10.364  0.5072 -0.2621  0.1584
  185MOL0     O24843   3.505   6.590  10.420 -0.5656  0.4501 -0.3075
  185MOL0     C24844   3.394   6.567  10.355  0.1847 -0.3063  1.1622
  185MOL0     C24845   3.284   6.663  10.365 -0.2301  0.0977 -0.1279
  185MOL0     C24846   3.159   6.637  10.305 -0.0112  0.1701 -0.4952
  185MOL0     C24847   3.129   6.501  10.266  0.9008 -0.4990 -0.2641
  185MOL0     O24848   3.011   6.446  10.222  0.4178  0.8612  0.5707
  185MOL0     C24849   2.894   6.512  10.258  0.3468  0.5122 -0.4914
  185MOL0     C24850   2.774   6.422  10.243 -0.2529 -0.1964  0.3409
  185MOL0     C24851   2.642   6.493  10.270 -0.1961  0.3260  0.6726
  185MOL0     C24852   2.525   6.409  10.302  0.9587 -0.9311  0.1503
  185MOL0     C24853   2.405   6.494  10.347 -0.7301  0.3452  0.5677
  185MOL0     C24854   2.280   6.421  10.393 -0.1419 -0.2429 -0.0149
  185MOL0     C24855   2.229   6.313  10.307 -0.5979  0.1459  0.4577
  185MOL0     C24856   2.074   6.319  10.279 -0.1377  0.6380 -0.2008
  185MOL0     N24857   2.000   6.238  10.376  0.5579 -0.1937  0.2354
  185MOL0     C24858   1.956   6.271  10.497  0.6275  0.1104 -0.1085
  185MOL0     C24859   1.909   6.152  10.552  0.4134  0.5033 -0.6441
  185MOL0     C24860   1.838   6.127  10.681 -0.5966 -0.1836 -0.1559
  185MOL0     C24861   1.924   6.138  10.811  0.0729  0.7416  0.0807
  185MOL0     C24862   2.056   6.084  10.807 -0.2960 -0.1681 -0.1916
  185MOL0     C24863   2.132   6.142  10.927  0.2042  0.0453 -0.5259
  185MOL0     O24864   2.157   6.280  10.928  0.0356 -0.0147 -0.2390
  185MOL0     C24865   2.249   6.344  10.848  0.4350 -0.2762  0.0216
  185MOL0     C24866   2.330   6.277  10.747  0.1357  0.0881 -0.5346
  185MOL0     C24867   2.444   6.324  10.696 -0.7612 -0.6795  0.4123
  185MOL0     C24868   2.489   6.455  10.730  0.5918 -0.1614  0.3266
  185MOL0     C24869   2.603   6.516  10.660  0.2277  1.6400  0.1244
  185MOL0     O24870   2.618   6.648  10.663  0.6865 -0.0637 -0.1894
  185MOL0     C24871   2.725   6.708  10.607  0.2699 -0.6326 -0.6346
  185MOL0     C24872   2.699   6.802  10.512 -1.2444 -0.3398  0.4690
  185MOL0     C24873   2.814   6.866  10.450  0.3858  0.1055 -0.5655
  185MOL0     C24874   2.947   6.833  10.501  0.6046  0.1374  0.4040
  185MOL0     O24875   3.051   6.906  10.450  0.8439  0.0953 -0.2204
  185MOL0     C24876   3.077   7.030  10.516  0.2345 -0.2692  0.3482
  185MOL0     C24877   3.226   7.035  10.552  0.1407  0.0349  0.8608
  185MOL0     C24878   3.267   7.177  10.584  0.4468 -0.3182  0.2046
  185MOL0     C24879   3.399   7.226  10.512 -0.0866 -0.1303  0.9320
  185MOL0     C24880   3.521   7.135  10.527  0.1269  0.1600 -0.5958
  185MOL0     C24881   3.581   7.122  10.669 -0.2190 -0.5570 -0.5628
  185MOL0     C24882   3.713   7.043  10.665  0.0107  0.3773 -0.8790
  185MOL0     C24883   3.783   7.044  10.800  0.6267  0.2209  1.4390
  185MOL0    Cl24884   3.907   6.922  10.786  0.2441 -0.1708  0.3104
  185MOL0     C24885   2.959   6.721  10.591 -0.7556 -1.2267 -0.0026
  185MOL0     C24886   2.851   6.665  10.642 -0.4076  0.7063 -0.1661
  185MOL0     O24887   2.682   6.438  10.600  0.1642  0.9158  0.1559
  185MOL0     C24888   2.401   6.531  10.813  1.0615  0.2373  0.4528
  185MOL0     C24889   2.285   6.478  10.872  0.1503  0.1499  0.3630
  185MOL0     N24890   1.926   6.052  10.464 -0.1100  0.6106  0.0494
  185MOL0     N24891   1.993   6.104  10.359  0.3718 -0.2689  0.0709
  185MOL0     C24892   3.233   6.405  10.275  0.0393 -0.3829 -0.3105
  185MOL0     C24893   3.364   6.437  10.319 -0.0283  0.5371  0.5674
  185MOL0     C24894   3.750   6.546  10.456  0.0218 -0.1051 -0.1226
  185MOL0     C24895   3.817   6.656  10.511 -0.7846 -0.1370  0.4724
  185MOL0     C24896   3.950   6.644  10.559 -0.0701 -0.3255 -0.3088
  185MOL0     C24897   4.010   6.522  10.571 -0.8069  0.4840  0.1582
  185MOL0     O24898   4.149   6.507  10.599  0.8047  0.3697 -0.3551
  185MOL0     C24899   4.198   6.492  10.731  0.6087  0.6624 -1.0597
  185MOL0     C24900   4.342   6.439  10.751 -0.3256  0.1757  0.1575
  185MOL0     C24901   4.396   6.432  10.882  0.6417 -0.4499 -0.6891
  185MOL0     C24902   4.309   6.348  10.973 -0.6705  0.0023 -0.6579
  185MOL0     C24903   4.377   6.330  11.101  0.2524 -0.0578  0.8391
  185MOL0     C24904   4.439   6.291  11.202  0.7969 -0.0178 -0.2036
  185MOL0     C24905   3.928   6.412  10.543 -0.0177  0.7824  0.5623
  185MOL0     C24906   3.806   6.419  10.473 -0.0429 -0.0093 -0.2140
  185MOL0     C24907   3.737   6.287  10.443  0.6218 -0.3783 -0.3440
  185MOL0     H24908   3.315   6.755  10.415  0.1455  1.6138 -2.9293
  185MOL0     H24909   3.088   6.718  10.297 -0.0852  0.1595  0.0244
  185MOL0     H24910   2.895   6.531  10.365  0.8475 -2.1172  0.0361
  185MOL0     H24911   2.876   6.610  10.211 -1.7913  1.6406  2.3702
  185MOL0     H24912   2.782   6.333  10.307 -0.8909 -1.0370 -0.7237
  185MOL0     H24913   2.771   6.387  10.140 -1.6279  0.0409  0.2858
  185MOL0     H24914   2.625   6.543  10.174 -0.3853 -0.1417  0.4609
  185MOL0     H24915   2.659   6.573  10.343  2.1753  0.6613 -0.1402
  185MOL0     H24916   2.509   6.337  10.221  1.4389  0.0519 -0.8571
  185MOL0     H24917   2.553   6.356  10.394 -3.0827 -1.5129  1.2364
  185MOL0     H24918   2.449   6.556  10.426 -1.9864  1.2549  0.5834
  185MOL0     H24919   2.371   6.554  10.262 -0.0301 -0.4982 -0.3336
  185MOL0     H24920   2.297   6.380  10.492  0.5493  1.1738  0.4782
  185MOL0     H24921   2.201   6.495  10.405 -2.2858 -2.0074 -2.1316
  185MOL0     H24922   2.244   6.214  10.351 -1.0589 -0.3959 -0.5733
  185MOL0     H24923   2.278   6.311  10.209 -1.9520 -5.1543 -0.3797
  185MOL0     H24924   2.043   6.423  10.292  0.8827  0.6974  2.3534
  185MOL0     H24925   2.062   6.284  10.176  0.3647 -0.1687  0.0057
  185MOL0     H24926   1.960   6.370  10.540  2.8790 -0.6601  1.7103
  185MOL0     H24927   1.757   6.199  10.692  0.9281  1.2781  2.7642
  185MOL0     H24928   1.802   6.024  10.677  2.2906 -1.4382  2.1165
  185MOL0     H24929   1.932   6.244  10.837  0.5727  0.3998  1.4056
  185MOL0     H24930   1.877   6.087  10.896  3.8510 -1.9628  0.8157
  185MOL0     H24931   2.109   6.109  10.714 -3.4977 -1.4295 -2.5370
  185MOL0     H24932   2.055   5.975  10.819  2.4714 -0.0171  2.7389
  185MOL0     H24933   2.227   6.092  10.949  0.1478  0.8960  2.0663
  185MOL0     H24934   2.076   6.119  11.019  0.7214 -2.3285 -0.7551
  185MOL0     H24935   2.318   6.174  10.714 -0.2776  0.5621 -1.9121
  185MOL0     H24936   2.514   6.277  10.628  1.3067  2.5303  0.1172
  185MOL0     H24937   2.594   6.810  10.486 -1.0144  4.5253  0.0778
  185MOL0     H24938   2.795   6.948  10.381 -2.7122  1.6485  1.8798
  185MOL0     H24939   3.051   7.114  10.450 -1.7259 -0.7223  0.4928
  185MOL0     H24940   3.018   7.045  10.606  2.9456  0.1132  2.1822
  185MOL0     H24941   3.233   6.967  10.638  0.4267 -2.2594 -0.8791
  185MOL0     H24942   3.287   6.979  10.480  0.2356 -2.8293  2.9737
  185MOL0     H24943   3.186   7.251  10.576  1.1610  0.5311  0.5822
  185MOL0     H24944   3.291   7.179  10.690 -0.5573  0.0832  0.4348
  185MOL0     H24945   3.430   7.317  10.564  0.7855 -0.3478  0.8006
  185MOL0     H24946   3.378   7.240  10.406  1.3975  0.9295  0.7582
  185MOL0     H24947   3.599   7.187  10.471 -0.9589  5.2486  2.0143
  185MOL0     H24948   3.495   7.035  10.491 -0.2964  0.6321 -1.6225
  185MOL0     H24949   3.613   7.220  10.705 -1.8566 -0.7257  1.6537
  185MOL0     H24950   3.507   7.090  10.744 -3.0273  1.8582 -2.1257
  185MOL0     H24951   3.784   7.092  10.598  1.1494  1.7711  1.2247
  185MOL0     H24952   3.689   6.939  10.644 -3.2430  0.3410  2.0279
  185MOL0     H24953   3.818   7.143  10.830 -0.5428  1.5159 -1.1714
  185MOL0     H24954   3.713   7.005  10.875  2.2026 -2.1514  1.7841
  185MOL0     H24955   3.059   6.687  10.614 -0.1004 -0.0015 -0.9546
  185MOL0     H24956   2.850   6.580  10.710 -2.4232 -1.1056 -2.3146
  185MOL0     H24957   2.434   6.631  10.840  0.3538  0.7950 -0.6975
  185MOL0     H24958   2.213   6.532  10.934 -2.0038 -2.1086  0.0047
  185MOL0     H24959   3.201   6.303  10.255  0.2481 -0.1329 -2.1295
  185MOL0     H24960   3.438   6.359  10.331 -0.8821 -0.3111  0.3669
  185MOL0     H24961   3.782   6.757  10.493  0.4064  0.2904  0.4366
  185MOL0     H24962   4.002   6.733  10.594 -2.0168 -0.5417  3.6535
  185MOL0     H24963   4.138   6.423  10.790  3.6501 -0.5380  0.8761
  185MOL0     H24964   4.191   6.585  10.789 -1.3456 -0.2754  0.3303
  185MOL0     H24965   4.406   6.511  10.699  1.9698 -1.3946  0.6734
  185MOL0     H24966   4.346   6.335  10.719  1.5904 -0.1679  1.3670
  185MOL0     H24967   4.403   6.535  10.918  1.0966  0.0649 -2.1631
  185MOL0     H24968   4.497   6.392  10.886  0.2307 -1.4294  0.5994
  185MOL0     H24969   4.213   6.396  10.991  0.8331  2.2640  2.2438
  185MOL0     H24970   4.294   6.248  10.932 -5.0768 -0.0933  0.6331
  185MOL0     H24971   4.502   6.253  11.279  1.6161  1.3554 -0.1686
  185MOL0     H24972   3.976   6.314  10.548  0.8002  1.2238  1.9521
  185MOL0     H24973   3.803   6.220  10.388  1.1428  0.6548 -0.9937
  185MOL0     H24974   3.699   6.238  10.533  1.8846  0.6001  0.7678
  185MOL0     H24975   3.652   6.310  10.377  0.0813 -0.6022  0.2591
  186MOL0     O24976   7.893  10.151   7.309  0.3542 -0.0643  0.1722
  186MOL0     C24977   7.794  10.191   7.250  1.0601  0.4485 -0.1054
  186MOL0     O24978   7.791  10.294   7.160 -0.0706 -0.5515 -0.2105
  186MOL0     C24979   7.905  10.338   7.106 -0.3078 -0.5382 -0.1710
  186MOL0     C24980   7.970  10.446   7.172 -0.1652 -0.4213 -0.1735
  186MOL0     C24981   8.102  10.478   7.134  0.0279  0.4076 -0.1060
  186MOL0     C24982   8.168  10.414   7.032 -0.4747 -0.7498  0.6289
  186MOL0     O24983   8.288  10.465   7.000 -0.1533  0.0099  0.2224
  186MOL0     C24984   8.361  10.397   6.890  0.6491  0.5634 -0.2602
  186MOL0     C24985   8.499  10.465   6.878 -0.2165  0.1511 -0.2886
  186MOL0     C24986   8.601  10.407   6.975 -0.5104 -0.4212  0.2334
  186MOL0     C24987   8.553  10.392   7.114  0.0750 -0.8128  0.7031
  186MOL0     C24988   8.674  10.354   7.205  0.0491 -0.7677  0.5084
  186MOL0     C24989   8.772  10.472   7.220  0.7964 -0.5079  0.5984
  186MOL0     C24990   8.869  10.449   7.333 -0.3773 -0.7714 -0.5415
  186MOL0     C24991   8.943  10.317   7.322  0.3527  0.6094 -0.4554
  186MOL0     N24992   9.046  10.311   7.214  0.2436  0.2775  0.0943
  186MOL0     C24993   9.048  10.225   7.108  0.6866 -0.1993  0.2597
  186MOL0     C24994   9.155  10.268   7.024 -0.0050 -0.4253  0.0997
  186MOL0     C24995   9.202  10.224   6.888 -0.2443 -0.2261  1.2225
  186MOL0     C24996   9.347  10.182   6.888 -0.3343  0.4640 -0.2473
  186MOL0     C24997   9.373  10.131   6.743  0.4881 -0.0373  0.3788
  186MOL0     C24998   9.515  10.078   6.732 -0.5255  0.0827  0.4359
  186MOL0     O24999   9.536  10.046   6.592 -0.7455  0.1001 -0.3627
  186MOL0     C25000   9.673  10.037   6.552  0.3655 -0.0797 -0.7617
  186MOL0     C25001   9.783  10.046   6.646 -0.2411  0.2201  0.8547
  186MOL0     C25002   9.910  10.044   6.592  0.1892  0.1324 -0.3683
  186MOL0     C25003   9.936  10.046   6.451  0.2502  0.0714 -0.1366
  186MOL0     C25004  10.071  10.063   6.402 -0.2720  0.5888  0.0298
  186MOL0     O25005  10.162  10.127   6.482  0.3660  0.5705  0.2583
  186MOL0     C25006  10.294  10.111   6.453 -0.8444  0.5683 -1.4172
  186MOL0     C25007  10.346  10.157   6.333  0.3037  1.3440 -0.5607
  186MOL0     C25008  10.479  10.160   6.310  0.6186  0.0547 -0.5473
  186MOL0     C25009  10.569  10.116   6.413 -1.0059 -0.0164  0.4797
  186MOL0     O25010  10.703  10.125   6.407  0.1861  0.0021 -0.1226
  186MOL0     C25011  10.760  10.204   6.304  0.9885 -0.3344  0.7624
  186MOL0     C25012  10.906  10.198   6.324 -0.4670  0.3499  0.2159
  186MOL0     C25013  10.970  10.095   6.232 -0.1182 -0.6053 -0.7837
  186MOL0     C25014  11.114  10.140   6.218  1.0253  0.7012 -0.0039
  186MOL0     C25015  11.199  10.042   6.123  0.4201  0.1508 -0.3038
  186MOL0     C25016  11.176  10.050   5.971  0.2408  0.0563  0.7733
  186MOL0     C25017  11.249   9.932   5.917 -0.6112 -0.0543 -0.3794
  186MOL0     C25018  11.286   9.951   5.773  0.7762 -0.4140 -0.0979
  186MOL0    Cl25019  11.156  10.006   5.666  0.0688 -0.1810 -0.3406
  186MOL0     C25020  10.517  10.061   6.529  0.2115 -0.7367 -0.3076
  186MOL0     C25021  10.381  10.056   6.553 -0.5304 -0.4727  0.0194
  186MOL0     O25022  10.099   9.995   6.303 -0.5866 -0.5838  0.0841
  186MOL0     C25023   9.825  10.040   6.365 -0.0599  0.2629  0.7694
  186MOL0     C25024   9.692  10.028   6.411  0.2035 -0.8672 -0.3267
  186MOL0     N25025   9.214  10.379   7.084  0.0652  0.1623 -0.0797
  186MOL0     N25026   9.151  10.386   7.197 -0.0723  0.0254 -0.7710
  186MOL0     C25027   8.095  10.316   6.961 -0.3112  0.2733 -0.0724
  186MOL0     C25028   7.968  10.275   6.990 -0.1812 -0.2134 -0.4857
  186MOL0     C25029   7.669  10.110   7.273  0.2812 -0.0529  0.3622
  186MOL0     C25030   7.552  10.146   7.194  0.2591  0.2506  0.5159
  186MOL0     C25031   7.430  10.084   7.210 -1.1929  0.5821  0.3647
  186MOL0     C25032   7.417   9.977   7.305  0.5569  0.8857 -0.0778
  186MOL0     O25033   7.298   9.914   7.340  0.4453  0.7381  0.5131
  186MOL0     C25034   7.186   9.877   7.245 -0.0853 -0.1422 -0.6605
  186MOL0     C25035   7.057   9.900   7.320  0.2872 -0.1268 -0.5660
  186MOL0     C25036   6.945   9.839   7.234 -0.0284  0.1511 -0.5050
  186MOL0     C25037   6.808   9.845   7.305 -0.3606  0.6276 -0.1692
  186MOL0     C25038   6.702   9.744   7.261  0.4335 -1.0267 -0.6852
  186MOL0     C25039   6.621   9.654   7.231 -0.3706 -0.4847 -0.7508
  186MOL0     C25040   7.524   9.964   7.392 -0.4273 -0.7649  0.5243
  186MOL0     C25041   7.651  10.019   7.380 -0.1250  0.2073 -0.1977
  186MOL0     C25042   7.757   9.988   7.485  0.7412 -0.4300  0.0997
  186MOL0     H25043   7.922  10.492   7.258 -1.4094  1.8921 -2.0006
  186MOL0     H25044   8.151  10.555   7.193  1.1761 -0.0172 -0.4623
  186MOL0     H25045   8.366  10.288   6.899  1.0719  0.6485  0.6194
  186MOL0     H25046   8.302  10.424   6.802 -1.5582 -0.8317  0.7039
  186MOL0     H25047   8.493  10.573   6.891 -2.9571  0.4696 -3.0994
  186MOL0     H25048   8.518  10.451   6.772  0.6586 -0.2036 -0.0939
  186MOL0     H25049   8.684  10.477   6.965  0.4533 -1.7255 -1.4612
  186MOL0     H25050   8.629  10.307   6.939 -0.7058  0.2345 -1.8801
  186MOL0     H25051   8.509  10.483   7.156 -0.3134 -0.8589  0.4004
  186MOL0     H25052   8.481  10.311   7.127 -0.8972 -0.1451 -0.2638
  186MOL0     H25053   8.637  10.319   7.302 -2.3775 -0.1747 -0.1349
  186MOL0     H25054   8.736  10.271   7.169  0.4387 -1.4503  2.6317
  186MOL0     H25055   8.824  10.480   7.124 -1.2781  1.3841 -0.4761
  186MOL0     H25056   8.733  10.573   7.241  1.1835 -0.6281  2.0391
  186MOL0     H25057   8.815  10.460   7.428 -1.6653 -1.3183 -1.1820
  186MOL0     H25058   8.942  10.530   7.329 -0.5182 -0.7078 -2.1308
  186MOL0     H25059   9.001  10.300   7.413 -1.7089  0.1265  0.8239
  186MOL0     H25060   8.875  10.232   7.313  0.7910  0.4207 -2.7465
  186MOL0     H25061   8.977  10.145   7.092  1.7539 -1.2937  0.8019
  186MOL0     H25062   9.132  10.147   6.854 -0.0334 -0.0795  0.4248
  186MOL0     H25063   9.192  10.313   6.826 -0.2377 -0.5250  0.7879
  186MOL0     H25064   9.415  10.264   6.909 -0.8102  0.0053  3.7466
  186MOL0     H25065   9.375  10.107   6.962  0.2884  1.2032  0.2745
  186MOL0     H25066   9.365  10.205   6.664 -0.6203 -0.6462 -0.1076
  186MOL0     H25067   9.305  10.048   6.719  1.0672 -0.4432  0.1092
  186MOL0     H25068   9.533   9.993   6.798 -0.7885  1.6533  2.6350
  186MOL0     H25069   9.581  10.161   6.759  0.2145 -0.6721  0.9505
  186MOL0     H25070   9.774  10.040   6.754  0.8455  2.7734  1.1628
  186MOL0     H25071   9.978  10.050   6.676 -1.5170  2.0068  0.9726
  186MOL0     H25072  10.274  10.190   6.259 -1.2365 -0.3666  0.0795
  186MOL0     H25073  10.525  10.175   6.213  3.5806 -4.1392 -0.0477
  186MOL0     H25074  10.732  10.163   6.206 -0.3026  0.8554  0.6082
  186MOL0     H25075  10.722  10.307   6.307 -0.2340 -0.7444  0.0599
  186MOL0     H25076  10.952  10.297   6.318 -0.7994  0.4131 -2.5160
  186MOL0     H25077  10.927  10.169   6.428  1.8240 -1.5035 -0.6445
  186MOL0     H25078  10.966   9.993   6.270  1.3818 -0.6741 -0.7553
  186MOL0     H25079  10.924  10.096   6.133 -4.2450 -1.5001  0.9070
  186MOL0     H25080  11.165  10.136   6.315  1.2787  0.8200 -0.1310
  186MOL0     H25081  11.121  10.243   6.182  0.6105  0.4558 -0.7898
  186MOL0     H25082  11.185   9.937   6.152  1.4143  0.2568  0.6305
  186MOL0     H25083  11.304  10.071   6.134  0.5959  1.9588 -4.7962
  186MOL0     H25084  11.068  10.036   5.962  0.6241 -2.2967 -1.1436
  186MOL0     H25085  11.210  10.145   5.928 -1.9679  0.5918  0.0663
  186MOL0     H25086  11.172   9.856   5.925  2.6111 -3.4357  1.7074
  186MOL0     H25087  11.339   9.893   5.967 -0.2979  0.1302 -0.7960
  186MOL0     H25088  11.374  10.015   5.768 -0.3523  1.1639 -0.7581
  186MOL0     H25089  11.318   9.853   5.737 -0.9317 -2.6247  3.7927
  186MOL0     H25090  10.582  10.026   6.609 -1.5123 -1.1475  0.9756
  186MOL0     H25091  10.331  10.021   6.643 -4.1267  0.6289 -1.3905
  186MOL0     H25092   9.848  10.034   6.259  2.1793 -0.3366  1.2567
  186MOL0     H25093   9.609  10.017   6.342 -0.3584  2.6386 -0.3847
  186MOL0     H25094   8.123  10.283   6.861 -1.1317  0.9286 -0.5370
  186MOL0     H25095   7.917  10.194   6.938 -0.1901  0.4248 -1.4961
  186MOL0     H25096   7.565  10.226   7.122  4.4804 -2.1062 -1.7307
  186MOL0     H25097   7.348  10.114   7.145  0.2612  1.4936 -1.1455
  186MOL0     H25098   7.176   9.769   7.228 -3.1545 -0.6532  2.9770
  186MOL0     H25099   7.190   9.935   7.152 -0.1628 -0.8775 -1.1368
  186MOL0     H25100   7.042  10.007   7.340  3.4150  0.3669 -0.4641
  186MOL0     H25101   7.048   9.849   7.416 -0.8590  0.5409 -0.2952
  186MOL0     H25102   6.972   9.736   7.213  3.7036  0.9071 -0.1552
  186MOL0     H25103   6.936   9.887   7.135 -0.1473  0.2540 -0.4443
  186MOL0     H25104   6.825   9.825   7.412 -1.2292 -1.0719 -0.3228
  186MOL0     H25105   6.769   9.947   7.296  1.0230  1.3480  1.3322
  186MOL0     H25106   6.554   9.572   7.215  0.9434 -2.9213  4.2582
  186MOL0     H25107   7.508   9.903   7.481  1.2516 -3.0828 -0.6553
  186MOL0     H25108   7.720   9.945   7.579 -0.9503  0.4662 -0.1023
  186MOL0     H25109   7.827   9.917   7.441 -0.7488 -0.7990 -1.7998
  186MOL0     H25110   7.811  10.074   7.526 -0.1298 -1.0420  2.7076
  187MOL0     O25111   9.433   5.570   0.143  0.3016  0.2495 -0.6318
  187MOL0     C25112   9.399   5.645   0.055  0.8511  0.2262 -0.1651
  187MOL0     O25113   9.447   5.767   0.043 -0.4053 -1.0785 -0.1596
  187MOL0     C25114   9.553   5.801   0.126 -0.3661 -0.2432  0.7222
  187MOL0     C25115   9.540   5.806   0.266 -1.1850  0.6568  0.5222
  187MOL0     C25116   9.652   5.859   0.334 -0.0893  0.0018  0.3829
  187MOL0     C25117   9.780   5.891   0.269 -0.4741 -0.3325  0.1292
  187MOL0     O25118   9.889   5.948   0.332 -0.5106 -0.1625 -0.0565
  187MOL0     C25119   9.919   5.909   0.463 -1.0186  0.1217  0.6495
  187MOL0     C25120  10.014   5.790   0.441 -0.9213 -0.1124  0.5894
  187MOL0     C25121  10.139   5.827   0.365  0.4925 -0.7554 -0.7830
  187MOL0     C25122  10.215   5.696   0.354  0.2982  0.3398 -0.4927
  187MOL0     C25123  10.353   5.695   0.291 -1.1084 -0.1363 -0.7003
  187MOL0     C25124  10.348   5.742   0.150 -0.4008 -0.5734 -0.8358
  187MOL0     C25125  10.484   5.722   0.064 -0.5190  0.2654 -0.0926
  187MOL0     C25126  10.610   5.804   0.116 -1.2290 -0.0463 -0.5978
  187MOL0     N25127  10.742   5.733   0.078 -0.1609  0.2807  0.3794
  187MOL0     C25128  10.820   5.671   0.166  0.3162 -0.7117  0.0602
  187MOL0     C25129  10.937   5.655   0.099 -0.1880 -0.1453 -0.1417
  187MOL0     C25130  11.075   5.604   0.151  0.0847 -0.0428 -0.2499
  187MOL0     C25131  11.201   5.615   0.067  0.4494 -0.1031  0.3724
  187MOL0     C25132  11.198   5.517  -0.055  0.0381 -0.5203  1.4337
  187MOL0     C25133  11.283   5.583  -0.169  0.9412  0.0799  0.2021
  187MOL0     O25134  11.411   5.612  -0.126  0.4169 -0.7026 -0.1358
  187MOL0     C25135  11.511   5.528  -0.147  0.0814 -1.1356 -0.0528
  187MOL0     C25136  11.635   5.592  -0.134 -0.9162 -0.6469  0.6204
  187MOL0     C25137  11.753   5.517  -0.139 -1.2711 -0.0406  0.6914
  187MOL0     C25138  11.752   5.380  -0.160  0.6237 -0.3209 -0.9579
  187MOL0     C25139  11.884   5.309  -0.140 -0.1530 -0.1544 -0.1750
  187MOL0     O25140  11.982   5.373  -0.084 -0.1867  0.5212 -0.0929
  187MOL0     C25141  12.100   5.308  -0.068 -0.0206  0.0690  0.6030
  187MOL0     C25142  12.120   5.185  -0.010 -0.2379  1.1170 -0.3886
  187MOL0     C25143  12.248   5.123  -0.002 -0.0870 -0.7590 -0.6470
  187MOL0     C25144  12.357   5.189  -0.073  0.1242  0.3035 -0.5804
  187MOL0     O25145  12.477   5.127  -0.082 -0.5822  0.3263  0.4391
  187MOL0     C25146  12.540   5.065   0.030 -0.4251  0.0865  0.6560
  187MOL0     C25147  12.683   5.017  -0.005 -0.6270 -0.1141 -0.0829
  187MOL0     C25148  12.764   4.950   0.106  0.8834  0.4915 -0.6139
  187MOL0     C25149  12.692   4.823   0.157 -0.0286 -0.7222 -0.5779
  187MOL0     C25150  12.787   4.744   0.236 -0.2207  0.1326  0.1915
  187MOL0     C25151  12.722   4.622   0.294  0.9449  0.0547 -0.0600
  187MOL0     C25152  12.807   4.547   0.403 -0.9528 -0.1849  0.7341
  187MOL0     C25153  12.896   4.448   0.330 -0.2373  0.6466  0.5868
  187MOL0    Cl25154  13.021   4.382   0.435  0.4053 -0.1083 -0.2671
  187MOL0     C25155  12.333   5.302  -0.147  0.3555  0.0248 -0.3204
  187MOL0     C25156  12.212   5.366  -0.133  0.1428  0.1090 -1.0064
  187MOL0     O25157  11.875   5.187  -0.155 -0.4130  0.1857 -0.2208
  187MOL0     C25158  11.626   5.315  -0.167  0.8907  0.5634  0.6729
  187MOL0     C25159  11.503   5.392  -0.175 -0.7213  0.4420  0.0141
  187MOL0     N25160  10.929   5.719  -0.027 -0.0720 -0.3552 -1.1946
  187MOL0     N25161  10.806   5.747  -0.043 -0.3193  0.1123 -0.2483
  187MOL0     C25162   9.774   5.898   0.135  0.9285  0.7622  0.0842
  187MOL0     C25163   9.667   5.853   0.062  0.6656  0.9593  1.3210
  187MOL0     C25164   9.286   5.610  -0.036  0.2317  0.3626  0.5546
  187MOL0     C25165   9.183   5.531   0.018  0.5477  0.8332 -0.2755
  187MOL0     C25166   9.074   5.491  -0.061  0.0494 -0.4764  0.0622
  187MOL0     C25167   9.062   5.542  -0.191  0.1509 -0.8935  0.5198
  187MOL0     O25168   8.957   5.517  -0.281 -0.6069  0.0888 -0.5900
  187MOL0     C25169   8.864   5.422  -0.246  0.0974  0.0393  0.4588
  187MOL0     C25170   8.752   5.404  -0.355 -0.2306 -0.3136  0.8824
  187MOL0     C25171   8.725   5.534  -0.436 -0.6991 -0.3634  0.5813
  187MOL0     C25172   8.606   5.509  -0.533 -0.4299  0.2116 -0.7068
  187MOL0     C25173   8.642   5.423  -0.645  0.4890 -0.9340 -0.1695
  187MOL0     C25174   8.672   5.351  -0.738  0.8855 -0.2344 -0.1239
  187MOL0     C25175   9.160   5.628  -0.241 -0.7589 -0.3413  0.6535
  187MOL0     C25176   9.273   5.655  -0.169 -0.3290 -0.1974  0.4486
  187MOL0     C25177   9.378   5.742  -0.240 -0.3374  0.3562  0.1002
  187MOL0     H25178   9.442   5.793   0.311 -0.2932 -0.4351  2.2265
  187MOL0     H25179   9.648   5.881   0.440  1.4241 -0.7578  0.6300
  187MOL0     H25180   9.970   5.990   0.517  0.2423  1.1515 -1.9330
  187MOL0     H25181   9.833   5.873   0.520 -0.3060 -2.7270  0.1088
  187MOL0     H25182   9.954   5.719   0.382 -1.4590  1.1404 -0.4198
  187MOL0     H25183  10.049   5.748   0.536 -0.6184 -1.5778 -0.1338
  187MOL0     H25184  10.192   5.907   0.417 -1.8499 -0.7872  1.9215
  187MOL0     H25185  10.112   5.862   0.265 -0.1762 -0.8486 -0.6405
  187MOL0     H25186  10.232   5.662   0.456 -1.4784  2.4914  0.6135
  187MOL0     H25187  10.158   5.618   0.303  1.8519 -1.8344  0.9058
  187MOL0     H25188  10.418   5.761   0.349 -3.4678  1.9464 -0.2565
  187MOL0     H25189  10.403   5.598   0.288  0.0410  0.4486 -2.1317
  187MOL0     H25190  10.269   5.688   0.096  0.6834 -1.0728 -1.9488
  187MOL0     H25191  10.309   5.844   0.141 -2.5116 -1.2229  0.2144
  187MOL0     H25192  10.465   5.744  -0.041  0.9754  2.8184  0.0888
  187MOL0     H25193  10.511   5.617   0.076 -2.7742 -0.1961  1.4357
  187MOL0     H25194  10.613   5.904   0.071  3.3506  1.6447  2.6123
  187MOL0     H25195  10.602   5.827   0.223  1.0643  0.3054 -0.4323
  187MOL0     H25196  10.810   5.660   0.274 -0.9224  0.0244  0.0376
  187MOL0     H25197  11.100   5.660   0.241  0.6856  0.4992 -0.7421
  187MOL0     H25198  11.083   5.498   0.177  2.9225  0.5501  1.6493
  187MOL0     H25199  11.223   5.720   0.046 -0.5934  0.2554  1.0287
  187MOL0     H25200  11.281   5.581   0.133 -0.8602  0.4568  2.3136
  187MOL0     H25201  11.092   5.500  -0.077 -0.0925 -0.0810  1.7018
  187MOL0     H25202  11.239   5.421  -0.023  0.7603 -0.2526  1.3292
  187MOL0     H25203  11.236   5.678  -0.197  0.4086  0.4690  2.2682
  187MOL0     H25204  11.284   5.518  -0.257 -2.0152 -1.8303  1.4070
  187MOL0     H25205  11.630   5.700  -0.123 -5.3483 -0.7055  0.9074
  187MOL0     H25206  11.851   5.562  -0.139 -1.7203  1.0088 -0.7907
  187MOL0     H25207  12.030   5.134   0.023 -0.4315  1.8901  0.2986
  187MOL0     H25208  12.264   5.023   0.037 -0.5923 -1.1880 -1.5079
  187MOL0     H25209  12.564   5.140   0.105  0.4971 -0.3231  0.7858
  187MOL0     H25210  12.473   4.981   0.048  0.5097 -0.5564  1.2176
  187MOL0     H25211  12.681   4.936  -0.079  0.9101 -1.0092  0.7819
  187MOL0     H25212  12.748   5.096  -0.043  1.5048 -1.3037  0.8719
  187MOL0     H25213  12.857   4.920   0.056 -0.1269 -1.8488 -1.2345
  187MOL0     H25214  12.780   5.015   0.192 -0.1483  0.8087 -0.6504
  187MOL0     H25215  12.671   4.754   0.075 -0.3835 -1.2637 -0.0408
  187MOL0     H25216  12.597   4.840   0.208 -0.6419 -0.3579 -1.8107
  187MOL0     H25217  12.832   4.799   0.319 -1.3034  1.3721 -0.0188
  187MOL0     H25218  12.872   4.719   0.172 -0.1708  2.1175 -0.5937
  187MOL0     H25219  12.629   4.655   0.342  0.3525  2.9912 -2.8682
  187MOL0     H25220  12.686   4.559   0.212  0.6825  0.2940 -0.1321
  187MOL0     H25221  12.744   4.495   0.476 -2.7552 -2.2777 -2.0879
  187MOL0     H25222  12.875   4.619   0.449 -1.4428  1.2927 -0.7619
  187MOL0     H25223  12.836   4.361   0.300  1.4954 -1.1508  2.0478
  187MOL0     H25224  12.955   4.488   0.247 -0.2895 -0.0739  0.1949
  187MOL0     H25225  12.413   5.349  -0.203  0.6553 -2.5980 -2.3216
  187MOL0     H25226  12.191   5.457  -0.189 -0.5851 -0.9084 -2.4564
  187MOL0     H25227  11.618   5.209  -0.187  0.9971  0.4402  1.2923
  187MOL0     H25228  11.414   5.336  -0.201 -1.6263  1.0635  1.6544
  187MOL0     H25229   9.859   5.929   0.075 -0.0845  0.0045 -1.8487
  187MOL0     H25230   9.671   5.853  -0.046 -1.9612  1.4444  1.1448
  187MOL0     H25231   9.183   5.491   0.119  0.0215 -2.5011 -1.4731
  187MOL0     H25232   8.989   5.446  -0.010 -1.4919  1.8548 -0.2711
  187MOL0     H25233   8.819   5.457  -0.152  0.8656 -1.4237  1.3931
  187MOL0     H25234   8.915   5.327  -0.229  1.8620  1.2732  2.4959
  187MOL0     H25235   8.661   5.357  -0.317 -1.3267  0.5066 -0.5940
  187MOL0     H25236   8.789   5.339  -0.435  1.8761 -0.2427  1.7319
  187MOL0     H25237   8.809   5.558  -0.502  1.7872 -1.9944  2.9308
  187MOL0     H25238   8.706   5.620  -0.370  0.7162 -0.3509  1.0141
  187MOL0     H25239   8.528   5.461  -0.473  0.8743 -2.3796 -0.9095
  187MOL0     H25240   8.568   5.608  -0.558  0.9582  0.5144 -1.7191
  187MOL0     H25241   8.686   5.281  -0.818  1.0772  0.4290 -0.6836
  187MOL0     H25242   9.160   5.659  -0.345 -0.4861  0.3690  0.8647
  187MOL0     H25243   9.449   5.676  -0.292  1.2401  0.6649  1.7724
  187MOL0     H25244   9.339   5.809  -0.318  0.4646 -1.1866 -1.7169
  187MOL0     H25245   9.436   5.802  -0.170 -0.1970  0.9504 -0.5160
  188MOL0     O25246   3.396   7.001   9.682  0.2072  0.0198 -0.3001
  188MOL0     C25247   3.311   7.082   9.641 -0.3725  0.0458  0.1229
  188MOL0     O25248   3.343   7.211   9.594  0.1721 -0.5766 -0.5988
  188MOL0     C25249   3.462   7.264   9.642 -0.1013  0.4979 -0.1579
  188MOL0     C25250   3.450   7.373   9.725  0.5085 -0.7503  0.3364
  188MOL0     C25251   3.560   7.440   9.761  0.4017  0.7999 -0.0698
  188MOL0     C25252   3.691   7.405   9.724  0.9526 -0.2620 -0.8394
  188MOL0     O25253   3.795   7.472   9.778 -0.1367 -0.1378  0.4743
  188MOL0     C25254   3.928   7.443   9.736  0.6885 -0.4110 -0.0842
  188MOL0     C25255   4.005   7.571   9.757  0.5347 -0.1980 -0.7489
  188MOL0     C25256   4.159   7.560   9.754 -0.3543 -0.2571 -0.5329
  188MOL0     C25257   4.214   7.467   9.648 -0.2117 -0.4301 -0.9306
  188MOL0     C25258   4.362   7.438   9.665 -0.0741  0.3384  0.0637
  188MOL0     C25259   4.406   7.363   9.796 -0.0386 -0.0905 -0.9833
  188MOL0     C25260   4.519   7.268   9.770  0.5452 -0.2638  0.3367
  188MOL0     C25261   4.653   7.356   9.774  1.8870 -0.3811 -0.5097
  188MOL0     N25262   4.772   7.273   9.761  0.4553 -0.3881 -0.0109
  188MOL0     C25263   4.807   7.216   9.645  0.0636 -0.7526 -0.5144
  188MOL0     C25264   4.937   7.174   9.652 -0.1249 -0.3970  0.4570
  188MOL0     C25265   5.023   7.109   9.548 -0.0635 -0.4952 -0.6784
  188MOL0     C25266   5.137   7.198   9.493 -0.2653  0.3381  0.6246
  188MOL0     C25267   5.156   7.176   9.346  0.0176 -0.0270  0.0857
  188MOL0     C25268   5.216   7.301   9.284 -0.2940  0.7042 -0.4183
  188MOL0     O25269   5.358   7.316   9.292  0.1356 -0.3593  0.4917
  188MOL0     C25270   5.413   7.423   9.364 -0.3792  0.1350 -0.6665
  188MOL0     C25271   5.349   7.519   9.442  0.9900  1.0256 -0.3580
  188MOL0     C25272   5.416   7.626   9.500  0.1361  0.2588  0.2229
  188MOL0     C25273   5.559   7.639   9.481  0.2970  1.4649 -0.3481
  188MOL0     C25274   5.627   7.742   9.555 -0.1928 -0.3921 -0.0943
  188MOL0     O25275   5.761   7.748   9.540  0.9332  0.3011  0.0518
  188MOL0     C25276   5.834   7.852   9.599  0.4974  0.3791  0.8324
  188MOL0     C25277   5.957   7.814   9.656 -1.2036  0.2119 -0.7003
  188MOL0     C25278   6.047   7.910   9.704 -0.8000 -0.7847  0.0963
  188MOL0     C25279   6.023   8.049   9.694  1.8352 -0.3755  0.7203
  188MOL0     O25280   6.114   8.141   9.741 -0.1323  0.6789 -0.1482
  188MOL0     C25281   6.134   8.255   9.657  0.2037  0.4017  0.0105
  188MOL0     C25282   6.248   8.339   9.703  0.9148 -1.3637 -1.1111
  188MOL0     C25283   6.388   8.268   9.681 -0.7933 -0.3952 -0.4030
  188MOL0     C25284   6.503   8.364   9.725 -0.3039 -0.6117 -0.2579
  188MOL0     C25285   6.631   8.290   9.770 -0.1978 -0.0964  0.5444
  188MOL0     C25286   6.746   8.381   9.777  0.1369  0.1949 -0.5870
  188MOL0     C25287   6.866   8.331   9.859 -0.0809  1.0678 -0.4334
  188MOL0     C25288   6.922   8.190   9.818  0.1380  0.3584 -0.4915
  188MOL0    Cl25289   7.044   8.152   9.952  0.3716 -0.0146  0.0911
  188MOL0     C25290   5.889   8.086   9.643 -0.6530  0.3075 -0.7856
  188MOL0     C25291   5.799   7.991   9.594  0.1709 -0.3299  0.4943
  188MOL0     O25292   5.560   7.794   9.640 -0.2147 -0.5523  0.0066
  188MOL0     C25293   5.623   7.539   9.401 -0.2894 -0.8576 -0.4927
  188MOL0     C25294   5.549   7.436   9.345  0.0248  1.0901 -0.4513
  188MOL0     N25295   4.982   7.226   9.774 -0.1802 -0.2996 -0.5344
  188MOL0     N25296   4.882   7.281   9.840  0.5290 -0.3483 -0.5302
  188MOL0     C25297   3.702   7.302   9.630 -0.3554  1.0004 -0.7420
  188MOL0     C25298   3.584   7.229   9.586  0.2706 -0.6388 -1.2891
  188MOL0     C25299   3.171   7.033   9.637 -0.3975 -0.0463  0.8765
  188MOL0     C25300   3.076   7.141   9.614  0.1450  0.0578  0.7163
  188MOL0     C25301   2.938   7.112   9.633 -0.5828  0.7946  0.2327
  188MOL0     C25302   2.896   6.979   9.655  0.1570  0.1448 -0.0757
  188MOL0     O25303   2.767   6.945   9.649 -0.0677  0.4550  0.1840
  188MOL0     C25304   2.683   7.019   9.748 -0.5838 -0.7947 -0.4763
  188MOL0     C25305   2.544   6.955   9.758  0.0617 -1.0197 -0.6221
  188MOL0     C25306   2.561   6.821   9.830 -0.4821 -0.0653 -1.0163
  188MOL0     C25307   2.603   6.836   9.976  0.5205 -0.0036  0.2062
  188MOL0     C25308   2.746   6.811   9.992  0.5042 -0.3182  0.9634
  188MOL0     C25309   2.863   6.790   9.989  0.1367 -0.1158  0.1423
  188MOL0     C25310   2.987   6.879   9.667 -0.1938  0.3343 -0.0874
  188MOL0     C25311   3.125   6.897   9.659 -0.4768  0.6100 -0.6954
  188MOL0     C25312   3.214   6.785   9.669  0.4524 -0.2327  0.4042
  188MOL0     H25313   3.353   7.401   9.763  0.6649 -1.5202  1.3492
  188MOL0     H25314   3.548   7.519   9.834 -0.1458 -0.6568  1.4666
  188MOL0     H25315   3.973   7.363   9.795 -0.9920  0.2875  2.3092
  188MOL0     H25316   3.941   7.415   9.631  1.7339 -2.3365  0.5189
  188MOL0     H25317   3.972   7.614   9.852  0.9774  0.9364 -1.0938
  188MOL0     H25318   3.981   7.632   9.670 -2.0008 -1.0435 -0.7432
  188MOL0     H25319   4.182   7.531   9.857 -6.1684 -0.7050  0.9626
  188MOL0     H25320   4.204   7.659   9.743  0.0944 -0.2586  1.0448
  188MOL0     H25321   4.165   7.369   9.652  0.9243 -1.0151 -1.0629
  188MOL0     H25322   4.208   7.517   9.551 -1.2625 -1.3020 -1.3340
  188MOL0     H25323   4.379   7.376   9.577 -2.3827 -1.9420  1.0974
  188MOL0     H25324   4.403   7.539   9.662 -1.3772  0.8669 -0.5856
  188MOL0     H25325   4.424   7.439   9.873 -2.5515  0.2239 -0.6352
  188MOL0     H25326   4.327   7.302   9.840  1.2371 -0.7226  0.5126
  188MOL0     H25327   4.502   7.215   9.676  2.6919 -2.0926  0.8825
  188MOL0     H25328   4.529   7.202   9.857 -1.9220 -0.1304  0.7947
  188MOL0     H25329   4.640   7.432   9.697 -2.3052  1.8019  1.9625
  188MOL0     H25330   4.653   7.402   9.874  1.7586 -1.0322 -0.2013
  188MOL0     H25331   4.747   7.205   9.555  1.1113 -1.7765 -1.1132
  188MOL0     H25332   5.070   7.028   9.605 -0.4078 -0.8499 -0.8960
  188MOL0     H25333   4.957   7.064   9.474 -0.6305 -2.2877  0.8339
  188MOL0     H25334   5.112   7.301   9.519  0.1929 -0.1810  3.5458
  188MOL0     H25335   5.231   7.166   9.540 -0.2686 -0.2818  0.2265
  188MOL0     H25336   5.058   7.163   9.298 -0.3325  0.2819  0.6917
  188MOL0     H25337   5.209   7.081   9.333 -0.0112  0.3070 -3.0310
  188MOL0     H25338   5.162   7.392   9.311 -1.1364  1.0060 -2.8183
  188MOL0     H25339   5.193   7.299   9.177 -0.3815 -0.7901 -0.3971
  188MOL0     H25340   5.243   7.512   9.463  1.1076  0.4780  0.0994
  188MOL0     H25341   5.361   7.694   9.565 -0.2966 -0.8211  1.0128
  188MOL0     H25342   5.993   7.712   9.662  1.0136  0.9181 -1.1482
  188MOL0     H25343   6.148   7.888   9.738 -1.4477 -0.4851  2.3778
  188MOL0     H25344   6.151   8.228   9.552 -0.2090  0.3417 -0.0421
  188MOL0     H25345   6.048   8.319   9.675  0.1200  0.4856 -0.6612
  188MOL0     H25346   6.236   8.432   9.648 -2.7421 -1.6009 -0.9777
  188MOL0     H25347   6.236   8.346   9.812  2.4396  2.2799 -1.0299
  188MOL0     H25348   6.387   8.182   9.748 -3.0746 -0.8909 -0.9888
  188MOL0     H25349   6.390   8.232   9.578  2.2585 -3.3209  0.4975
  188MOL0     H25350   6.478   8.438   9.802 -1.0601 -1.0958 -0.0269
  188MOL0     H25351   6.514   8.431   9.639 -3.0694  0.8249  0.3725
  188MOL0     H25352   6.643   8.195   9.718 -2.7348  0.1308 -0.6070
  188MOL0     H25353   6.618   8.252   9.872  0.5801  1.6588  1.3470
  188MOL0     H25354   6.782   8.394   9.675  0.4581  1.7228 -0.3036
  188MOL0     H25355   6.712   8.474   9.824  2.7978 -0.1289  2.3100
  188MOL0     H25356   6.839   8.325   9.965  0.0341 -1.6606 -0.4860
  188MOL0     H25357   6.955   8.393   9.843  1.3037 -0.1727  1.8677
  188MOL0     H25358   6.844   8.114   9.804 -0.0408  0.3239  0.6256
  188MOL0     H25359   6.981   8.209   9.728  2.7313  3.7279  1.6854
  188MOL0     H25360   5.853   8.189   9.639 -0.2676  0.5361  0.9191
  188MOL0     H25361   5.707   8.034   9.556  0.4276  0.2676  0.5427
  188MOL0     H25362   5.731   7.552   9.407 -0.4015 -0.2627  0.6011
  188MOL0     H25363   5.604   7.371   9.278  2.0859  0.8200  1.4161
  188MOL0     H25364   3.804   7.284   9.597  0.1110  0.8369  0.7379
  188MOL0     H25365   3.588   7.149   9.513 -3.2960  0.2894 -2.7092
  188MOL0     H25366   3.101   7.243   9.589 -0.4987 -0.2467 -1.3895
  188MOL0     H25367   2.865   7.190   9.621 -1.1141  0.2594 -0.0718
  188MOL0     H25368   2.674   7.127   9.734  1.1267 -0.1610  2.3369
  188MOL0     H25369   2.730   7.008   9.847 -1.0955 -0.9985 -0.2547
  188MOL0     H25370   2.495   6.959   9.660 -0.8099 -1.2461 -0.2088
  188MOL0     H25371   2.477   7.008   9.827 -2.0089 -4.1522 -0.0118
  188MOL0     H25372   2.637   6.758   9.782  0.6395 -0.2467  0.9170
  188MOL0     H25373   2.467   6.765   9.829  0.5317 -1.8936  0.2131
  188MOL0     H25374   2.571   6.932  10.018  1.6854  0.1330  0.8189
  188MOL0     H25375   2.535   6.764  10.022  0.3129  0.3841  0.5089
  188MOL0     H25376   2.969   6.776   9.999 -0.1841 -1.1193  4.2252
  188MOL0     H25377   2.946   6.780   9.684 -1.3996  0.8892  0.3389
  188MOL0     H25378   3.295   6.801   9.596  0.3666  4.0845  0.9908
  188MOL0     H25379   3.247   6.782   9.773  2.8689  0.1825 -0.2870
  188MOL0     H25380   3.170   6.688   9.644  2.3470 -0.9675 -0.2794
  189MOL0     O25381   7.332   1.393  10.908 -0.4343 -0.3284  0.1229
  189MOL0     C25382   7.300   1.428  10.795 -1.0883  0.3186 -0.2290
  189MOL0     O25383   7.388   1.423  10.686 -1.2711  0.1413  0.8328
  189MOL0     C25384   7.507   1.346  10.678  1.4613 -0.9125  0.1341
  189MOL0     C25385   7.562   1.258  10.769  0.4588 -0.1723 -0.7907
  189MOL0     C25386   7.680   1.177  10.741 -0.4731  0.0286  0.1403
  189MOL0     C25387   7.760   1.193  10.623  0.0425 -0.6691  0.3991
  189MOL0     O25388   7.883   1.134  10.609 -0.0159 -0.1479  0.6676
  189MOL0     C25389   7.967   1.187  10.504 -0.3452 -0.0362  0.0323
  189MOL0     C25390   8.103   1.114  10.521  0.4358  0.6989  0.2164
  189MOL0     C25391   8.215   1.208  10.482  0.9310 -0.4724  0.6289
  189MOL0     C25392   8.346   1.145  10.516  0.0683 -0.4970 -0.8335
  189MOL0     C25393   8.460   1.217  10.445 -0.1254  0.1981 -1.0750
  189MOL0     C25394   8.594   1.144  10.457 -0.1912  0.1838 -0.0918
  189MOL0     C25395   8.707   1.225  10.402 -0.5818  0.2691 -0.3747
  189MOL0     C25396   8.735   1.347  10.486 -0.2427  0.4100 -0.9264
  189MOL0     N25397   8.858   1.413  10.461  0.2797 -0.4763  1.1800
  189MOL0     C25398   8.917   1.446  10.338  1.4506 -0.7270 -1.0684
  189MOL0     C25399   9.031   1.513  10.369 -0.0158  0.5824  1.1327
  189MOL0     C25400   9.128   1.554  10.260  0.4066  0.3287  0.0460
  189MOL0     C25401   9.250   1.460  10.255 -0.3332 -0.4382  0.0426
  189MOL0     C25402   9.347   1.502  10.140 -0.4843  0.1286 -0.2624
  189MOL0     C25403   9.483   1.528  10.203 -0.0900 -0.6657  0.3630
  189MOL0     O25404   9.550   1.603  10.106  0.8034  0.2504 -0.4686
  189MOL0     C25405   9.690   1.579  10.098  0.9207  0.7191  0.3861
  189MOL0     C25406   9.752   1.451  10.128  0.2398  0.0351  0.1395
  189MOL0     C25407   9.895   1.443  10.137 -0.0556  0.1537 -0.2046
  189MOL0     C25408   9.976   1.559  10.110 -0.2862  0.1141  0.4255
  189MOL0     C25409  10.117   1.559  10.114  0.0419 -0.5039  0.4144
  189MOL0     O25410  10.187   1.679  10.119  0.2342 -0.7954 -0.1115
  189MOL0     C25411  10.317   1.667  10.090  0.0196  0.1143  0.0348
  189MOL0     C25412  10.426   1.686  10.182  0.3946  0.2871  0.0132
  189MOL0     C25413  10.557   1.658  10.154 -0.9253 -0.7936  0.0357
  189MOL0     C25414  10.595   1.646  10.016 -0.2510 -0.6112 -0.0117
  189MOL0     O25415  10.726   1.628   9.967  0.4863  0.7536  0.1759
  189MOL0     C25416  10.832   1.693  10.033 -0.2246 -0.6742  0.1222
  189MOL0     C25417  10.951   1.610  10.033  0.2186  0.6256 -0.0561
  189MOL0     C25418  11.010   1.569   9.894  0.6843  0.2729  0.1395
  189MOL0     C25419  11.136   1.483   9.907  0.6807  0.1159  0.4175
  189MOL0     C25420  11.257   1.551   9.968 -0.7471 -0.2087  0.0900
  189MOL0     C25421  11.383   1.465   9.945 -0.1529 -0.2239  0.5720
  189MOL0     C25422  11.498   1.525  10.021 -0.5546 -0.3433 -0.2757
  189MOL0     C25423  11.572   1.634   9.939 -0.2700 -0.0161 -0.4374
  189MOL0    Cl25424  11.705   1.714  10.036  0.0018 -0.2991  0.0525
  189MOL0     C25425  10.489   1.638   9.925 -0.3895 -0.3676  0.4665
  189MOL0     C25426  10.359   1.646   9.963  0.1112  0.0586  0.2305
  189MOL0     O25427  10.174   1.446  10.114  0.3943  0.0385  0.1279
  189MOL0     C25428   9.912   1.681  10.071  0.5144  0.5613 -0.5645
  189MOL0     C25429   9.772   1.692  10.073 -0.4071 -0.1813 -0.1289
  189MOL0     N25430   9.053   1.511  10.504  0.5595  0.2526 -0.1578
  189MOL0     N25431   8.953   1.446  10.553  0.4975  0.3028 -0.3419
  189MOL0     C25432   7.710   1.290  10.536 -0.4956 -0.2119 -0.3277
  189MOL0     C25433   7.592   1.353  10.557 -0.5033 -0.3014  0.5890
  189MOL0     C25434   7.179   1.513  10.759 -0.1775  0.6066  0.0423
  189MOL0     C25435   7.169   1.569  10.633 -0.4898  0.0464  0.3058
  189MOL0     C25436   7.064   1.645  10.589 -0.1594 -1.0972 -0.6541
  189MOL0     C25437   6.973   1.685  10.686 -0.7352  0.6385  0.8949
  189MOL0     O25438   6.886   1.774  10.644 -0.2219 -0.2967 -0.0036
  189MOL0     C25439   6.890   1.899  10.717  0.5251  0.5840 -1.0906
  189MOL0     C25440   6.816   2.003  10.633 -0.2491  0.1208 -0.9390
  189MOL0     C25441   6.664   1.990  10.645 -0.1817  0.0100  0.3676
  189MOL0     C25442   6.614   2.030  10.780 -0.1243 -0.0430 -0.4653
  189MOL0     C25443   6.476   2.061  10.789 -0.7728  0.0027  1.3560
  189MOL0     C25444   6.353   2.066  10.775 -0.5724  0.2196 -0.0557
  189MOL0     C25445   6.973   1.621  10.815  0.1949 -0.0162  0.9434
  189MOL0     C25446   7.077   1.540  10.850  0.4563  0.0303  0.1435
  189MOL0     C25447   7.076   1.474  10.991 -1.0727  0.2690 -0.4460
  189MOL0     H25448   7.525   1.262  10.871 -1.5771  1.9636 -1.5201
  189MOL0     H25449   7.717   1.106  10.814 -0.2188 -0.8357 -0.7958
  189MOL0     H25450   7.923   1.166  10.406 -1.1431  0.1229  0.3568
  189MOL0     H25451   7.980   1.295  10.513 -3.5121  0.3654  0.6789
  189MOL0     H25452   8.094   1.025  10.458 -0.0605  1.0133 -0.1695
  189MOL0     H25453   8.111   1.080  10.624 -0.5541 -2.3555 -0.6094
  189MOL0     H25454   8.206   1.297  10.545 -0.5245  0.6543 -1.0662
  189MOL0     H25455   8.203   1.236  10.377 -2.2271  1.8359  1.4421
  189MOL0     H25456   8.373   1.155  10.622  2.1505  3.6804 -1.5328
  189MOL0     H25457   8.347   1.040  10.488 -1.8734 -0.8190  0.1294
  189MOL0     H25458   8.441   1.229  10.338  2.0705  1.7973 -1.3423
  189MOL0     H25459   8.463   1.314  10.495 -2.6315 -0.3390  0.2543
  189MOL0     H25460   8.619   1.112  10.559 -2.4731 -4.6401 -0.7792
  189MOL0     H25461   8.583   1.046  10.409  1.2589 -0.5090  0.8945
  189MOL0     H25462   8.683   1.263  10.302 -3.3114  2.2430  0.9057
  189MOL0     H25463   8.793   1.158  10.408 -1.5427 -0.8512  1.7419
  189MOL0     H25464   8.644   1.406  10.468 -2.5898 -2.1709  1.4082
  189MOL0     H25465   8.728   1.328  10.594  0.1548  1.2279 -0.7494
  189MOL0     H25466   8.865   1.428  10.244 -0.7998  0.6753 -0.1853
  189MOL0     H25467   9.076   1.562  10.164  1.2959 -0.4770 -0.5157
  189MOL0     H25468   9.164   1.653  10.291  2.8812 -1.2315  2.7139
  189MOL0     H25469   9.296   1.447  10.353  4.4263 -0.3304 -1.9356
  189MOL0     H25470   9.207   1.360  10.242  2.6869 -1.9886  0.9378
  189MOL0     H25471   9.305   1.590  10.092  0.7291 -0.5740 -2.7455
  189MOL0     H25472   9.334   1.418  10.071  0.9859  0.7180 -1.3053
  189MOL0     H25473   9.525   1.431  10.231 -0.2946 -1.1573 -0.9359
  189MOL0     H25474   9.483   1.595  10.289  1.6058  3.0056 -2.2224
  189MOL0     H25475   9.696   1.359  10.141  1.0447 -0.4080  0.5826
  189MOL0     H25476   9.933   1.350  10.177 -2.3325 -0.7824 -0.0387
  189MOL0     H25477  10.421   1.702  10.289  1.6531  3.4947 -0.3116
  189MOL0     H25478  10.634   1.670  10.230  0.7452  2.0633 -1.9080
  189MOL0     H25479  10.863   1.777   9.971  0.1482 -1.3410 -0.6096
  189MOL0     H25480  10.807   1.736  10.130  0.2502  3.7157 -1.4704
  189MOL0     H25481  11.036   1.664  10.077  0.4431  1.6007 -1.6260
  189MOL0     H25482  10.943   1.518  10.092  1.2797 -0.2760 -1.2599
  189MOL0     H25483  10.929   1.517   9.843  1.3333 -0.0108 -0.6232
  189MOL0     H25484  11.038   1.663   9.847 -3.4443  2.3261  1.2793
  189MOL0     H25485  11.149   1.459   9.801 -0.4169 -1.0598  0.5250
  189MOL0     H25486  11.101   1.392   9.958  0.0961  0.4838  0.6801
  189MOL0     H25487  11.242   1.569  10.075 -2.3632  0.2463 -0.1785
  189MOL0     H25488  11.278   1.647   9.920  2.5963 -1.5870 -1.4625
  189MOL0     H25489  11.377   1.369   9.996  1.4277 -0.3556  0.5739
  189MOL0     H25490  11.404   1.447   9.839 -0.4528  1.4615  0.2066
  189MOL0     H25491  11.572   1.450  10.051  1.1589  1.0796 -0.7474
  189MOL0     H25492  11.462   1.573  10.113 -4.6642 -0.9458 -1.3579
  189MOL0     H25493  11.622   1.577   9.860 -1.7597 -1.6883 -0.2512
  189MOL0     H25494  11.500   1.707   9.901 -1.1514 -0.7617 -0.2418
  189MOL0     H25495  10.518   1.609   9.825  0.3715 -2.0730  1.1327
  189MOL0     H25496  10.279   1.628   9.892  3.0124 -2.0702 -2.8150
  189MOL0     H25497   9.965   1.775  10.062 -1.0678  1.8352  2.2238
  189MOL0     H25498   9.723   1.788  10.059 -1.8144 -1.0931 -1.8238
  189MOL0     H25499   7.752   1.322  10.441 -1.4989  0.6705 -0.4915
  189MOL0     H25500   7.547   1.418  10.482 -1.5458 -0.5565  0.9793
  189MOL0     H25501   7.254   1.557  10.567 -0.1695  1.6836  0.3832
  189MOL0     H25502   7.055   1.691  10.491 -0.9266  2.2007  0.8266
  189MOL0     H25503   6.992   1.938  10.722  0.9032 -0.4675 -0.1171
  189MOL0     H25504   6.843   1.875  10.814 -0.3578 -0.7561 -1.8129
  189MOL0     H25505   6.844   1.987  10.529  1.7645  2.4594 -0.8367
  189MOL0     H25506   6.850   2.103  10.662  2.7367 -0.5670 -1.7494
  189MOL0     H25507   6.635   1.886  10.630  1.1757 -0.3618  0.1491
  189MOL0     H25508   6.617   2.044  10.563  0.0089 -1.9392 -1.1062
  189MOL0     H25509   6.632   1.945  10.847 -2.5335 -1.8641 -1.9812
  189MOL0     H25510   6.685   2.103  10.820  1.2701 -1.0218 -1.0951
  189MOL0     H25511   6.247   2.076  10.783 -0.6559  0.5729 -1.3391
  189MOL0     H25512   6.892   1.649  10.881 -1.8748  1.7487 -2.1089
  189MOL0     H25513   7.133   1.534  11.063 -1.3590  0.4560 -0.3729
  189MOL0     H25514   6.975   1.472  11.034 -1.3509 -0.0287 -1.0903
  189MOL0     H25515   7.110   1.371  11.002  1.1766  1.2251  2.8922
  190MOL0     O25516   1.777   0.598   2.678  0.1894 -0.5041  0.0188
  190MOL0     C25517   1.788   0.671   2.780  0.0440  0.3233  0.0036
  190MOL0     O25518   1.875   0.765   2.797 -0.5115 -0.1214  0.5905
  190MOL0     C25519   1.997   0.769   2.723 -0.4484  0.3833  0.4145
  190MOL0     C25520   2.044   0.675   2.633 -0.4465  0.0984 -0.2112
  190MOL0     C25521   2.179   0.668   2.586 -0.5081 -0.2120  0.0788
  190MOL0     C25522   2.256   0.789   2.606 -0.2982  0.8624  0.7150
  190MOL0     O25523   2.379   0.821   2.551  0.0458 -0.1077 -0.0747
  190MOL0     C25524   2.445   0.749   2.449 -0.0164 -0.4431 -0.4132
  190MOL0     C25525   2.576   0.804   2.397  0.7352  0.3749 -0.0570
  190MOL0     C25526   2.683   0.813   2.510  0.5312  0.4425  0.3785
  190MOL0     C25527   2.828   0.777   2.451  0.9307 -0.3252 -0.0887
  190MOL0     C25528   2.931   0.795   2.559 -0.1143 -0.5912  0.4382
  190MOL0     C25529   2.903   0.715   2.675  0.0068 -0.6084 -0.5922
  190MOL0     C25530   3.021   0.675   2.751 -0.2362 -0.2200 -0.3535
  190MOL0     C25531   3.127   0.776   2.785  0.0647  0.3720  0.2859
  190MOL0     N25532   3.087   0.896   2.852 -0.5221  0.3426 -0.1274
  190MOL0     C25533   3.011   0.900   2.966  0.5211  0.2921 -0.1939
  190MOL0     C25534   3.034   1.016   3.023 -0.5828 -0.5445  0.3461
  190MOL0     C25535   2.975   1.061   3.153 -0.0980 -0.9184 -0.1921
  190MOL0     C25536   2.824   1.052   3.137  0.3962  0.1561  0.4214
  190MOL0     C25537   2.739   1.142   3.231 -0.4134  0.4035  0.2768
  190MOL0     C25538   2.735   1.065   3.363 -0.3687 -0.1590 -0.6040
  190MOL0     O25539   2.685   1.160   3.460  0.0956 -0.0091  1.0004
  190MOL0     C25540   2.544   1.160   3.466 -0.2826  0.2942 -0.0056
  190MOL0     C25541   2.459   1.056   3.480 -0.1514  1.0901  0.3287
  190MOL0     C25542   2.321   1.086   3.504 -0.3728  0.0222  0.1632
  190MOL0     C25543   2.271   1.219   3.518 -0.2634  0.1958 -0.1136
  190MOL0     C25544   2.127   1.246   3.525 -0.5565 -0.4468 -0.0020
  190MOL0     O25545   2.095   1.380   3.564 -0.3741  0.6502  0.3863
  190MOL0     C25546   1.971   1.443   3.546  0.7884 -0.3466 -0.5246
  190MOL0     C25547   1.937   1.537   3.643 -0.0860 -0.4491  0.6907
  190MOL0     C25548   1.820   1.619   3.628  0.5912 -1.3081 -0.7915
  190MOL0     C25549   1.736   1.601   3.520 -0.0539  0.3990  0.4577
  190MOL0     O25550   1.640   1.695   3.513 -0.4529  0.0607  0.2057
  190MOL0     C25551   1.531   1.643   3.447 -1.0753  0.0250 -0.0801
  190MOL0     C25552   1.414   1.742   3.446  0.4836 -0.6888  0.2875
  190MOL0     C25553   1.362   1.783   3.588 -0.0696 -0.6465  1.2582
  190MOL0     C25554   1.218   1.768   3.610 -0.0626  1.5823  0.7810
  190MOL0     C25555   1.204   1.790   3.763 -0.3104  0.6016 -0.9071
  190MOL0     C25556   1.093   1.709   3.828  0.3285 -0.0631  0.0368
  190MOL0     C25557   1.119   1.689   3.980 -0.0473  0.3413  0.5589
  190MOL0     C25558   0.988   1.661   4.064 -0.0872 -0.5041 -0.6176
  190MOL0    Cl25559   0.913   1.816   4.082  0.2100  0.0820  0.1846
  190MOL0     C25560   1.771   1.510   3.425  0.3426  0.1767 -0.5968
  190MOL0     C25561   1.885   1.436   3.438  0.2269 -0.1042  0.4871
  190MOL0     O25562   2.047   1.159   3.497  0.3536 -0.2431  0.1743
  190MOL0     C25563   2.358   1.317   3.497  0.4980 -0.7515  0.1413
  190MOL0     C25564   2.489   1.291   3.471 -0.6721  0.3507 -0.0109
  190MOL0     N25565   3.133   1.084   2.955  0.6785 -0.1002  0.6537
  190MOL0     N25566   3.154   1.018   2.842 -0.1158 -0.4222  0.5474
  190MOL0     C25567   2.200   0.889   2.682 -0.4558 -0.1584  0.5118
  190MOL0     C25568   2.078   0.879   2.746  1.1112  0.1282  0.4596
  190MOL0     C25569   1.671   0.662   2.885 -0.0851  0.7203 -0.5011
  190MOL0     C25570   1.664   0.758   2.986 -0.7019 -0.5108  0.3829
  190MOL0     C25571   1.556   0.750   3.071 -0.3864 -0.5866  0.1851
  190MOL0     C25572   1.461   0.646   3.076  0.1596 -0.6883 -0.0891
  190MOL0     O25573   1.371   0.649   3.168  0.5124  0.6973 -0.1793
  190MOL0     C25574   1.277   0.540   3.176 -0.0420  0.6451 -0.1620
  190MOL0     C25575   1.166   0.591   3.264  0.0160 -0.2193  0.3291
  190MOL0     C25576   1.210   0.605   3.407  0.0129  0.2372  0.3065
  190MOL0     C25577   1.229   0.760   3.437 -0.0764  0.6248  0.9533
  190MOL0     C25578   1.114   0.835   3.434 -0.1282  0.8802 -0.7798
  190MOL0     C25579   0.998   0.874   3.431  0.7453  0.5198 -0.1762
  190MOL0     C25580   1.484   0.545   2.996  0.6906 -0.4114  0.0409
  190MOL0     C25581   1.583   0.554   2.898  0.7988  0.2339  0.7560
  190MOL0     C25582   1.593   0.429   2.816  0.1010  0.4917  0.0227
  190MOL0     H25583   1.986   0.588   2.604  1.5956 -2.1461  2.0688
  190MOL0     H25584   2.218   0.578   2.540 -0.0061  0.7488 -1.4667
  190MOL0     H25585   2.464   0.657   2.505  0.0667  1.3397  2.7050
  190MOL0     H25586   2.372   0.736   2.369 -0.5870 -1.3654  0.2352
  190MOL0     H25587   2.577   0.895   2.336  2.8181  1.1275  0.9749
  190MOL0     H25588   2.601   0.725   2.326 -0.1708  1.4123 -1.6060
  190MOL0     H25589   2.659   0.743   2.591  0.4241  3.1369  2.8359
  190MOL0     H25590   2.696   0.915   2.546 -0.7089  0.4764  0.7823
  190MOL0     H25591   2.822   0.674   2.416  1.0567 -0.8941  1.5183
  190MOL0     H25592   2.855   0.841   2.366 -3.2479  0.4287 -1.0828
  190MOL0     H25593   3.025   0.763   2.512 -0.3793  0.9906 -1.2682
  190MOL0     H25594   2.930   0.901   2.586 -1.8494 -0.5973  0.4791
  190MOL0     H25595   2.851   0.788   2.737  2.2916  2.5810 -2.1352
  190MOL0     H25596   2.841   0.628   2.653  0.5838 -0.8122 -1.4506
  190MOL0     H25597   3.068   0.593   2.697 -1.8051  0.2776 -2.6094
  190MOL0     H25598   2.984   0.631   2.844 -0.2571 -2.6568 -1.4652
  190MOL0     H25599   3.202   0.726   2.847  0.6130  0.7213 -0.0875
  190MOL0     H25600   3.176   0.800   2.691  2.6016  2.1600  1.9188
  190MOL0     H25601   2.931   0.835   2.999 -1.3544  1.1667 -2.7253
  190MOL0     H25602   3.024   1.016   3.240  1.5060  0.6459 -0.2146
  190MOL0     H25603   3.013   1.164   3.158  0.9301 -1.2142 -1.2390
  190MOL0     H25604   2.779   1.069   3.039 -1.7711  4.4942  1.8915
  190MOL0     H25605   2.798   0.948   3.159 -1.7247 -0.1999 -3.1461
  190MOL0     H25606   2.636   1.157   3.199 -0.4721  0.2305  0.3806
  190MOL0     H25607   2.789   1.239   3.240  2.9323 -1.0304 -1.0257
  190MOL0     H25608   2.836   1.033   3.389  0.2714  2.2836  0.1173
  190MOL0     H25609   2.671   0.976   3.360  1.4734 -1.6347  0.7545
  190MOL0     H25610   2.491   0.953   3.491 -0.8018  0.5080 -2.4537
  190MOL0     H25611   2.247   1.007   3.506  0.6374 -1.0637 -2.0123
  190MOL0     H25612   2.015   1.560   3.715  1.3313 -0.5724 -0.7553
  190MOL0     H25613   1.792   1.691   3.704  1.0589 -2.2094  0.2679
  190MOL0     H25614   1.550   1.629   3.340 -1.5441  3.1276 -0.6671
  190MOL0     H25615   1.494   1.552   3.495  0.7112 -0.0802  1.1797
  190MOL0     H25616   1.441   1.831   3.390  0.1163 -0.4676  0.4557
  190MOL0     H25617   1.326   1.701   3.395 -0.2003  1.6303 -0.4882
  190MOL0     H25618   1.426   1.726   3.657  0.1334 -0.5588  1.1450
  190MOL0     H25619   1.375   1.892   3.588 -1.6136 -0.4308 -0.1576
  190MOL0     H25620   1.188   1.664   3.590  0.1957  1.3533  1.5537
  190MOL0     H25621   1.151   1.829   3.550 -0.2148  2.1394  1.5106
  190MOL0     H25622   1.194   1.899   3.770 -1.9055  0.5045 -1.3462
  190MOL0     H25623   1.293   1.762   3.820 -0.6366 -2.2096 -1.6382
  190MOL0     H25624   0.994   1.753   3.814  0.0180 -0.3587  1.1633
  190MOL0     H25625   1.092   1.607   3.787 -0.4437 -0.4969  1.0803
  190MOL0     H25626   1.167   1.773   4.031 -1.3480  0.5161  1.5816
  190MOL0     H25627   1.183   1.600   3.987 -1.3522 -0.6683  0.1880
  190MOL0     H25628   0.932   1.586   4.008 -1.1523  0.5462 -1.0287
  190MOL0     H25629   1.001   1.626   4.166  0.6795  0.3788 -0.4005
  190MOL0     H25630   1.711   1.479   3.340  2.5935 -2.1552 -1.4693
  190MOL0     H25631   1.902   1.354   3.369 -1.8842  0.5676 -0.9069
  190MOL0     H25632   2.333   1.422   3.508 -0.6437 -1.1453  1.7166
  190MOL0     H25633   2.566   1.367   3.463 -0.4616  0.0927 -0.4389
  190MOL0     H25634   2.259   0.980   2.689 -1.6428  0.6914 -0.0780
  190MOL0     H25635   2.061   0.964   2.812  1.8373 -0.2567  1.1634
  190MOL0     H25636   1.740   0.835   2.978 -1.2648 -0.0987 -1.5255
  190MOL0     H25637   1.532   0.822   3.148  2.4321 -0.0067  0.6310
  190MOL0     H25638   1.337   0.460   3.221 -1.8237 -1.0647 -0.7029
  190MOL0     H25639   1.240   0.505   3.080 -0.0136 -3.2935  1.0890
  190MOL0     H25640   1.086   0.517   3.262 -1.6422  1.5133 -0.2276
  190MOL0     H25641   1.119   0.685   3.233  1.3407  1.4955  3.1042
  190MOL0     H25642   1.310   0.561   3.411  0.4804  1.1760 -0.7184
  190MOL0     H25643   1.129   0.571   3.473  0.8723  0.4262  1.4870
  190MOL0     H25644   1.273   0.761   3.537 -0.2572 -0.0518  1.0452
  190MOL0     H25645   1.297   0.808   3.366 -1.5545 -0.6190 -1.4211
  190MOL0     H25646   0.896   0.904   3.427  0.1653 -1.2928  0.2324
  190MOL0     H25647   1.428   0.453   3.011  2.6921 -1.7357 -0.0848
  190MOL0     H25648   1.527   0.358   2.867  3.1309  0.9237  5.2867
  190MOL0     H25649   1.563   0.457   2.715  0.0468  0.5341  0.0506
  190MOL0     H25650   1.694   0.388   2.818  0.1001  0.3106 -1.7465
  191MOL0     O25651   0.940   4.987   2.757  0.4386  0.0618  1.1666
  191MOL0     C25652   0.819   4.999   2.732 -0.5989  0.1711  0.6465
  191MOL0     O25653   0.733   4.896   2.701 -0.4044  0.1019 -0.6288
  191MOL0     C25654   0.770   4.762   2.700  0.0716  0.3547 -1.0816
  191MOL0     C25655   0.879   4.707   2.628  0.6377 -0.4544 -0.1682
  191MOL0     C25656   0.900   4.575   2.631  0.3939  1.0104 -0.4557
  191MOL0     C25657   0.838   4.488   2.725 -0.1574 -0.0336 -0.0556
  191MOL0     O25658   0.885   4.360   2.741  0.2801 -0.2265 -0.5128
  191MOL0     C25659   0.894   4.321   2.878 -0.7649  0.3289 -0.0030
  191MOL0     C25660   0.973   4.429   2.972 -0.7277  0.5980  0.3552
  191MOL0     C25661   1.105   4.468   2.900  0.3009 -0.6382  0.2511
  191MOL0     C25662   1.227   4.397   2.961  0.1138 -0.2434  0.5363
  191MOL0     C25663   1.363   4.430   2.889  1.0509  0.3976 -0.2013
  191MOL0     C25664   1.401   4.572   2.925 -0.7405 -0.0076  0.1506
  191MOL0     C25665   1.549   4.600   2.890  0.9103  0.6085 -0.3643
  191MOL0     C25666   1.594   4.736   2.930 -0.4717  0.4999  0.3975
  191MOL0     N25667   1.731   4.751   2.876 -0.8946  0.1373  0.2691
  191MOL0     C25668   1.760   4.868   2.815  0.7663 -0.6366  0.5582
  191MOL0     C25669   1.891   4.862   2.788  0.0418  0.1853 -0.1729
  191MOL0     C25670   1.988   4.955   2.713  0.0914  0.4684  1.2119
  191MOL0     C25671   2.120   4.886   2.670 -0.3379 -0.2304  0.4005
  191MOL0     C25672   2.214   4.988   2.603 -0.7954 -0.0569  0.1570
  191MOL0     C25673   2.338   4.923   2.547 -0.1213 -0.5239 -0.5275
  191MOL0     O25674   2.308   4.868   2.420  0.2790  0.8016  0.1920
  191MOL0     C25675   2.259   4.740   2.408 -0.6475 -0.9761 -0.0526
  191MOL0     C25676   2.217   4.711   2.280 -0.3217  0.2521  0.0789
  191MOL0     C25677   2.164   4.585   2.250  0.3879 -0.1880 -0.0534
  191MOL0     C25678   2.135   4.494   2.354  0.3758  0.0664 -0.1481
  191MOL0     C25679   2.074   4.365   2.320 -0.2584 -0.3082  0.4239
  191MOL0     O25680   2.072   4.271   2.419  0.2389  0.1992 -0.5629
  191MOL0     C25681   2.032   4.139   2.388 -0.3439 -0.2833 -0.5499
  191MOL0     C25682   1.896   4.101   2.374  0.3642  0.6372 -0.2651
  191MOL0     C25683   1.860   3.967   2.359  0.5896  0.3430  0.3308
  191MOL0     C25684   1.957   3.862   2.356 -0.3134  0.2711  0.3250
  191MOL0     O25685   1.928   3.728   2.356  0.4085 -0.3463  0.1472
  191MOL0     C25686   1.790   3.696   2.375  0.1705 -0.3335  0.6882
  191MOL0     C25687   1.762   3.546   2.352 -0.8490 -0.1137 -0.5842
  191MOL0     C25688   1.837   3.462   2.462  0.3480  0.0880  0.4515
  191MOL0     C25689   1.810   3.501   2.607  0.6251 -0.6325 -0.0990
  191MOL0     C25690   1.836   3.388   2.707 -0.2371 -0.2490  0.4108
  191MOL0     C25691   1.983   3.339   2.702 -0.3064  0.2601 -0.0977
  191MOL0     C25692   2.012   3.243   2.818  0.0850 -0.0110 -0.4002
  191MOL0     C25693   1.918   3.133   2.852 -0.1981 -0.0055 -0.6814
  191MOL0    Cl25694   2.005   3.018   2.968  0.0910  0.0756  0.0634
  191MOL0     C25695   2.096   3.898   2.369 -0.6278  0.9866  0.3674
  191MOL0     C25696   2.132   4.033   2.380 -0.2845  0.0052 -0.1718
  191MOL0     O25697   2.020   4.357   2.211  0.1379  0.4230  0.3724
  191MOL0     C25698   2.172   4.526   2.482  0.9783 -0.3190 -0.2744
  191MOL0     C25699   2.247   4.643   2.513  0.0938  1.1320 -0.6307
  191MOL0     N25700   1.936   4.737   2.838  0.4979  0.0426  0.2836
  191MOL0     N25701   1.837   4.665   2.874 -0.4756  0.0645 -0.0147
  191MOL0     C25702   0.719   4.542   2.780 -0.7935 -0.5071 -0.5778
  191MOL0     C25703   0.682   4.675   2.772  0.2629 -0.3872 -0.5617
  191MOL0     C25704   0.765   5.143   2.749  0.2491  0.7897  0.4362
  191MOL0     C25705   0.624   5.166   2.773  1.0676 -0.2115  0.3027
  191MOL0     C25706   0.572   5.301   2.765 -0.3292 -0.1378 -0.0543
  191MOL0     C25707   0.655   5.407   2.742  0.7041 -0.4201  0.4105
  191MOL0     O25708   0.606   5.533   2.746  0.2103 -0.2380  0.0853
  191MOL0     C25709   0.468   5.564   2.708  0.1249 -1.0158 -0.0487
  191MOL0     C25710   0.448   5.694   2.628  0.0090 -0.9372 -0.0283
  191MOL0     C25711   0.524   5.713   2.498 -0.0758 -0.2054  0.1612
  191MOL0     C25712   0.465   5.829   2.435  0.9462 -0.6392 -0.3813
  191MOL0     C25713   0.517   5.836   2.298  0.5877  0.2009 -0.3558
  191MOL0     C25714   0.563   5.852   2.187 -0.2086  0.3487  0.0322
  191MOL0     C25715   0.787   5.386   2.723 -0.7219 -1.0336 -0.6490
  191MOL0     C25716   0.842   5.264   2.719  1.1903 -0.3080  1.5233
  191MOL0     C25717   0.989   5.260   2.669  0.5226 -0.0667  0.1539
  191MOL0     H25718   0.945   4.769   2.568 -0.3609  0.7474 -0.0781
  191MOL0     H25719   0.976   4.530   2.567 -0.7969 -2.0047  0.0690
  191MOL0     H25720   0.791   4.302   2.913 -0.4719  0.2834  0.8674
  191MOL0     H25721   0.963   4.236   2.882  0.8917  1.4954 -1.9186
  191MOL0     H25722   1.006   4.380   3.064 -0.3359 -2.0357 -1.0900
  191MOL0     H25723   0.905   4.508   3.006 -0.0959  1.1880  0.2510
  191MOL0     H25724   1.132   4.573   2.913  2.0720 -1.0408  0.1430
  191MOL0     H25725   1.099   4.445   2.793  0.0701 -3.0737  0.7123
  191MOL0     H25726   1.241   4.407   3.069  2.7759 -0.4910  0.3038
  191MOL0     H25727   1.205   4.290   2.959  0.0051 -0.2299  0.9611
  191MOL0     H25728   1.439   4.364   2.931  2.2192  0.0563 -2.6772
  191MOL0     H25729   1.338   4.400   2.787 -1.9237 -1.5918  0.9756
  191MOL0     H25730   1.343   4.651   2.876  0.1855 -0.1694 -1.2429
  191MOL0     H25731   1.402   4.593   3.033  2.2262  1.0351  0.0081
  191MOL0     H25732   1.567   4.595   2.782 -1.5657 -1.0333 -0.7738
  191MOL0     H25733   1.615   4.522   2.930  1.0054  0.5866 -0.5622
  191MOL0     H25734   1.530   4.811   2.883  0.6191 -0.1475 -2.2825
  191MOL0     H25735   1.593   4.744   3.039  0.3483 -1.1764  0.5589
  191MOL0     H25736   1.699   4.957   2.800  2.3588  0.3682 -0.2423
  191MOL0     H25737   1.940   4.995   2.623 -0.1192 -0.1887  1.0307
  191MOL0     H25738   2.006   5.045   2.772 -3.3019  1.7767  0.5233
  191MOL0     H25739   2.167   4.856   2.764 -0.7614 -1.0493  0.3573
  191MOL0     H25740   2.087   4.807   2.602 -0.0325 -1.0678  1.2130
  191MOL0     H25741   2.249   5.050   2.686  0.8701 -0.5866 -0.1186
  191MOL0     H25742   2.163   5.055   2.533 -0.0439  0.0907 -0.2622
  191MOL0     H25743   2.380   4.854   2.621  0.1640  1.8539  1.6531
  191MOL0     H25744   2.406   5.005   2.520 -1.2446 -0.3700 -3.0943
  191MOL0     H25745   2.247   4.781   2.202  0.4627 -0.2565 -0.0981
  191MOL0     H25746   2.150   4.543   2.152 -1.9221 -2.1803  1.0374
  191MOL0     H25747   1.822   4.180   2.392 -0.6368 -0.4283  0.4531
  191MOL0     H25748   1.753   3.951   2.371  0.1548  0.2198 -2.7371
  191MOL0     H25749   1.763   3.730   2.475 -1.0738  0.4726  0.0919
  191MOL0     H25750   1.732   3.755   2.303  2.2954  1.5720  0.4456
  191MOL0     H25751   1.658   3.522   2.375 -0.3057 -0.7152  1.5250
  191MOL0     H25752   1.800   3.510   2.256 -0.1454  0.4828 -0.5399
  191MOL0     H25753   1.805   3.358   2.445 -0.8692  0.0954  2.3609
  191MOL0     H25754   1.946   3.465   2.456  0.3895 -1.3994 -0.1315
  191MOL0     H25755   1.703   3.524   2.615  0.3094 -1.4970 -1.5062
  191MOL0     H25756   1.869   3.589   2.634 -1.9940  0.8140  1.3421
  191MOL0     H25757   1.773   3.305   2.674  2.4096 -3.0063  1.8679
  191MOL0     H25758   1.802   3.415   2.808  1.7072 -2.6512  1.8217
  191MOL0     H25759   2.006   3.290   2.607  1.2688 -0.7883  0.7667
  191MOL0     H25760   2.046   3.428   2.716  0.7670 -0.3162 -1.0587
  191MOL0     H25761   2.016   3.304   2.909  0.0719  0.5220 -0.7559
  191MOL0     H25762   2.111   3.200   2.799 -0.1333 -0.1706 -1.2119
  191MOL0     H25763   1.831   3.175   2.902  1.6249 -0.2740  3.0381
  191MOL0     H25764   1.883   3.074   2.766 -1.3007 -1.1395  0.5140
  191MOL0     H25765   2.168   3.817   2.364 -0.9077  0.7190  0.6121
  191MOL0     H25766   2.235   4.057   2.407 -0.9594 -1.4310  4.6209
  191MOL0     H25767   2.160   4.456   2.565  0.2344  0.5953  0.4107
  191MOL0     H25768   2.290   4.662   2.611  1.1767  3.4943 -1.4893
  191MOL0     H25769   0.662   4.480   2.849  0.0436  0.4276  1.0089
  191MOL0     H25770   0.587   4.706   2.813 -0.6326 -3.2401 -0.2324
  191MOL0     H25771   0.561   5.082   2.802 -0.1975  0.5025 -0.3080
  191MOL0     H25772   0.466   5.321   2.777  0.1651  1.8992  1.5129
  191MOL0     H25773   0.397   5.569   2.791 -0.5703 -0.7355 -0.6513
  191MOL0     H25774   0.423   5.486   2.646  1.9287 -1.6101 -0.6574
  191MOL0     H25775   0.482   5.776   2.691  1.8650 -0.5121 -1.5007
  191MOL0     H25776   0.339   5.707   2.620 -0.1948 -0.5910  2.5147
  191MOL0     H25777   0.498   5.627   2.435  0.8132 -0.2245 -0.1930
  191MOL0     H25778   0.632   5.718   2.514  0.1464 -0.9105 -0.9520
  191MOL0     H25779   0.356   5.822   2.439  0.7051  2.4098  2.1790
  191MOL0     H25780   0.494   5.915   2.496  0.5373  0.0018 -1.0807
  191MOL0     H25781   0.611   5.888   2.098  3.0050  1.0762  1.8747
  191MOL0     H25782   0.849   5.475   2.715 -0.7579 -0.9845 -0.3999
  191MOL0     H25783   1.011   5.358   2.628 -3.1068 -0.1760 -2.5350
  191MOL0     H25784   1.063   5.240   2.747  0.1689  3.2129  1.4766
  191MOL0     H25785   0.998   5.180   2.594 -0.3254  1.3165 -1.4741
  192MOL0     O25786   8.450   3.372  10.956  0.0230  0.3745 -0.3255
  192MOL0     C25787   8.497   3.327  10.850 -0.5682  0.3346  0.4218
  192MOL0     O25788   8.466   3.206  10.793  0.0996  0.5022 -0.1136
  192MOL0     C25789   8.397   3.113  10.867 -0.1842  0.0343 -1.1151
  192MOL0     C25790   8.258   3.122  10.874 -0.1801 -0.1918  0.3487
  192MOL0     C25791   8.188   3.027  10.954  0.4391 -0.0924 -1.0594
  192MOL0     C25792   8.262   2.923  11.024  0.5405 -0.1133 -0.6283
  192MOL0     O25793   8.199   2.843  11.119 -0.3022  0.3422  0.8098
  192MOL0     C25794   8.097   2.753  11.068 -0.8270  0.0231  0.3127
  192MOL0     C25795   8.038   2.672  11.181 -0.1462  0.7604  0.6226
  192MOL0     C25796   8.148   2.608  11.264 -0.0052 -0.6205  0.1583
  192MOL0     C25797   8.125   2.497  11.362 -0.5172  0.5850 -0.1612
  192MOL0     C25798   8.258   2.440  11.422 -0.3409  0.8101 -0.4337
  192MOL0     C25799   8.280   2.301  11.372  0.0583  0.8668 -0.0309
  192MOL0     C25800   8.400   2.235  11.457  0.1803 -1.2918  0.2583
  192MOL0     C25801   8.421   2.088  11.425  0.3671 -1.1621  0.0409
  192MOL0     N25802   8.506   2.063  11.311 -0.4242  0.0826  1.1687
  192MOL0     C25803   8.450   2.029  11.189 -0.4661 -0.5417 -0.5656
  192MOL0     C25804   8.545   2.063  11.094 -0.0133 -0.8216  0.1010
  192MOL0     C25805   8.543   2.034  10.946  0.1991 -0.6185  0.9019
  192MOL0     C25806   8.680   1.998  10.896  0.2158 -0.3651  0.4320
  192MOL0     C25807   8.690   1.956  10.754 -0.0879  0.3327  0.1594
  192MOL0     C25808   8.813   1.872  10.715 -0.1183 -0.4904 -0.2031
  192MOL0     O25809   8.926   1.955  10.712 -0.7145  0.1257  0.9213
  192MOL0     C25810   9.049   1.903  10.711 -1.0176  0.1297 -0.2077
  192MOL0     C25811   9.152   1.989  10.741 -0.4948 -0.0038  0.6179
  192MOL0     C25812   9.287   1.948  10.732 -0.1327  0.3858 -0.7650
  192MOL0     C25813   9.317   1.819  10.697  0.2781  0.2747 -0.0103
  192MOL0     C25814   9.458   1.781  10.690  0.2365 -0.1775  0.6376
  192MOL0     O25815   9.557   1.874  10.693  0.3035 -0.7151 -0.0106
  192MOL0     C25816   9.685   1.826  10.672 -0.1147 -0.3444  0.0902
  192MOL0     C25817   9.767   1.805  10.779  0.7789  0.3688  0.1544
  192MOL0     C25818   9.892   1.749  10.769 -1.2368  0.5419  0.2589
  192MOL0     C25819   9.945   1.728  10.644 -1.2796  0.5154 -0.1327
  192MOL0     O25820  10.070   1.677  10.650 -0.3062 -0.1621 -0.3356
  192MOL0     C25821  10.181   1.721  10.570 -0.8084 -0.1328 -0.2178
  192MOL0     C25822  10.307   1.640  10.587  0.2385 -0.3009  0.6216
  192MOL0     C25823  10.377   1.655  10.726 -0.0842 -0.1465  0.4855
  192MOL0     C25824  10.484   1.774  10.731 -0.0930  0.0621 -0.4838
  192MOL0     C25825  10.532   1.792  10.875  0.4075  0.8806  0.0763
  192MOL0     C25826  10.639   1.895  10.883 -0.2604  0.4386  0.5592
  192MOL0     C25827  10.658   1.952  11.025  0.4391 -0.9958 -0.1630
  192MOL0     C25828  10.663   1.856  11.143  0.4141 -0.2039 -0.2429
  192MOL0    Cl25829  10.828   1.794  11.156 -0.6068  0.0959  0.5563
  192MOL0     C25830   9.860   1.743  10.532 -0.3749 -0.0655  0.1669
  192MOL0     C25831   9.734   1.795  10.545 -0.1046  0.1028  0.5886
  192MOL0     O25832   9.477   1.668  10.650  0.3641  0.4959  0.2429
  192MOL0     C25833   9.211   1.730  10.657  0.0781 -0.2551 -0.4357
  192MOL0     C25834   9.081   1.773  10.668 -0.3549  0.8844  0.1994
  192MOL0     N25835   8.656   2.106  11.170 -0.5010 -0.1184 -0.6229
  192MOL0     N25836   8.628   2.110  11.290 -0.4555  0.0722  0.5059
  192MOL0     C25837   8.401   2.904  11.004 -0.7747  0.1918 -0.2761
  192MOL0     C25838   8.463   3.003  10.921 -0.6326 -0.4598 -0.8293
  192MOL0     C25839   8.619   3.388  10.792  0.6564 -0.4772  0.0540
  192MOL0     C25840   8.695   3.306  10.704  0.2768  0.2916 -1.1857
  192MOL0     C25841   8.798   3.363  10.630  0.3143  0.3681  0.2921
  192MOL0     C25842   8.841   3.499  10.650 -0.4260  0.0123  0.0530
  192MOL0     O25843   8.952   3.548  10.577  0.6793 -1.0518 -0.2329
  192MOL0     C25844   9.046   3.641  10.625 -0.0838  0.4363 -0.4388
  192MOL0     C25845   9.156   3.577  10.702  0.2682 -0.3574 -0.3955
  192MOL0     C25846   9.225   3.449  10.646 -0.5059 -0.7973 -0.1345
  192MOL0     C25847   9.318   3.477  10.517 -0.0234 -0.2688 -0.0235
  192MOL0     C25848   9.380   3.356  10.464 -0.4278  0.1106  0.2529
  192MOL0     C25849   9.412   3.259  10.411  0.3460  0.6878 -0.9725
  192MOL0     C25850   8.771   3.576  10.739  0.6500  1.0186 -0.9897
  192MOL0     C25851   8.661   3.524  10.807  0.2368  0.1064 -0.2331
  192MOL0     C25852   8.561   3.616  10.878  0.2070 -0.7799 -0.6007
  192MOL0     H25853   8.200   3.204  10.834  2.8296  2.8882  1.8080
  192MOL0     H25854   8.082   3.036  10.978  0.8096 -0.1941  0.7453
  192MOL0     H25855   8.021   2.808  11.012  1.3408  2.9829  0.0287
  192MOL0     H25856   8.152   2.692  10.996 -0.3287 -0.3675  1.0180
  192MOL0     H25857   7.977   2.592  11.137  1.8680 -0.9091  0.6899
  192MOL0     H25858   7.979   2.737  11.245 -2.5868 -1.4558  0.8030
  192MOL0     H25859   8.190   2.693  11.319  0.0839  0.4504 -1.4669
  192MOL0     H25860   8.220   2.581  11.186  2.2678  0.1503  1.8716
  192MOL0     H25861   8.067   2.531  11.448  1.2155  1.8782  0.5469
  192MOL0     H25862   8.059   2.425  11.313  1.4096 -0.7460 -0.9459
  192MOL0     H25863   8.344   2.498  11.385  0.3507 -1.6951 -3.1864
  192MOL0     H25864   8.246   2.443  11.530 -2.9693  2.0287 -0.7063
  192MOL0     H25865   8.191   2.240  11.391  0.4442  0.8356  1.8904
  192MOL0     H25866   8.302   2.291  11.265  0.3443 -0.5891  0.1365
  192MOL0     H25867   8.371   2.244  11.562  1.0040  4.0012  0.2712
  192MOL0     H25868   8.496   2.283  11.439 -0.3413  0.8415  2.5460
  192MOL0     H25869   8.484   2.049  11.506  0.5343  1.0287  1.0219
  192MOL0     H25870   8.327   2.034  11.412 -0.0994 -1.1694  2.8279
  192MOL0     H25871   8.349   1.995  11.169 -0.1558 -0.2742 -2.7551
  192MOL0     H25872   8.474   1.953  10.923  1.3879 -0.4891 -4.1634
  192MOL0     H25873   8.506   2.120  10.889 -3.3160 -0.7585  2.7514
  192MOL0     H25874   8.748   2.083  10.908 -0.7634  0.2577  1.7561
  192MOL0     H25875   8.709   1.917  10.965 -1.9865  0.5294  2.5634
  192MOL0     H25876   8.685   2.050  10.698 -1.0446  0.4922  0.5010
  192MOL0     H25877   8.595   1.907  10.732 -1.0456  2.4125 -0.5953
  192MOL0     H25878   8.790   1.821  10.621  0.7231 -2.5311  0.6352
  192MOL0     H25879   8.826   1.799  10.796  1.1738  2.3588  2.3391
  192MOL0     H25880   9.134   2.096  10.750  0.1764  0.1003  0.7524
  192MOL0     H25881   9.370   2.018  10.737  1.3329 -1.2043 -1.7552
  192MOL0     H25882   9.734   1.824  10.881  0.1638 -3.0585  0.7309
  192MOL0     H25883   9.947   1.742  10.863 -2.5687  0.7642  1.0845
  192MOL0     H25884  10.156   1.709  10.465  2.4008 -2.1043 -0.8995
  192MOL0     H25885  10.219   1.819  10.602 -0.5825 -1.3197  3.7500
  192MOL0     H25886  10.282   1.535  10.572 -0.4209 -0.5548  3.0487
  192MOL0     H25887  10.382   1.669  10.513  0.9724  3.1298  2.4714
  192MOL0     H25888  10.300   1.670  10.802 -0.8742 -3.6729  0.5467
  192MOL0     H25889  10.418   1.560  10.762  2.5061  0.7838  0.2299
  192MOL0     H25890  10.425   1.863  10.705 -1.7691 -1.0116 -0.5269
  192MOL0     H25891  10.568   1.758  10.663 -1.2350  0.3751 -2.0143
  192MOL0     H25892  10.566   1.695  10.912 -2.1285 -1.1303 -2.4466
  192MOL0     H25893  10.449   1.822  10.939  0.7067  1.8175  0.0460
  192MOL0     H25894  10.730   1.842  10.855  1.7244  3.1718  1.3401
  192MOL0     H25895  10.613   1.982  10.822  0.9184  1.6934  1.7753
  192MOL0     H25896  10.568   2.012  11.041  1.4953  0.4727  0.6221
  192MOL0     H25897  10.746   2.017  11.024 -0.4205  0.3463  2.2691
  192MOL0     H25898  10.631   1.906  11.235 -3.1985 -0.1356 -1.3747
  192MOL0     H25899  10.586   1.779  11.136 -1.2976  1.3488  0.6945
  192MOL0     H25900   9.887   1.726  10.428  1.9989  0.1511  0.6824
  192MOL0     H25901   9.670   1.804  10.458  0.2255 -0.3903  0.2893
  192MOL0     H25902   9.232   1.631  10.619 -0.2812 -0.0257 -1.2731
  192MOL0     H25903   8.999   1.720  10.622 -1.1069  1.9251  0.3012
  192MOL0     H25904   8.454   2.836  11.070  0.7849 -0.9803 -2.6029
  192MOL0     H25905   8.567   2.983  10.898 -0.9980 -0.0312 -3.0802
  192MOL0     H25906   8.684   3.200  10.688 -0.0105  0.2100 -0.4733
  192MOL0     H25907   8.848   3.300  10.556 -4.1644 -0.0705 -2.7419
  192MOL0     H25908   8.997   3.717  10.687 -2.3893  0.6539 -2.3704
  192MOL0     H25909   9.090   3.700  10.545 -0.2610  3.0257  1.2643
  192MOL0     H25910   9.112   3.543  10.796  1.7899  0.7688  0.7786
  192MOL0     H25911   9.236   3.648  10.725  1.2235  0.0891 -4.3046
  192MOL0     H25912   9.140   3.383  10.625 -4.2410  2.7935  2.3802
  192MOL0     H25913   9.280   3.408  10.731  0.4590  0.9706  0.1294
  192MOL0     H25914   9.263   3.528  10.438  0.3741 -0.7271 -0.6045
  192MOL0     H25915   9.400   3.545  10.543 -2.6196  2.7012  1.0030
  192MOL0     H25916   9.444   3.169  10.361  0.0276  0.2121 -0.3370
  192MOL0     H25917   8.807   3.677  10.751  3.4311  0.0501 -0.5533
  192MOL0     H25918   8.558   3.610  10.987 -0.2205  0.9182 -0.4795
  192MOL0     H25919   8.589   3.721  10.864  1.7445 -1.0245  0.3289
  192MOL0     H25920   8.460   3.602  10.838 -0.4536  0.1197  0.6654
  193MOL0     O25921   5.577   5.544   7.806  0.2100  0.1719  0.0724
  193MOL0     C25922   5.503   5.531   7.902 -0.2336  0.9634 -0.5269
  193MOL0     O25923   5.510   5.609   8.018  0.4586  0.3379 -0.2480
  193MOL0     C25924   5.611   5.701   8.035  0.5138  0.2312 -0.5946
  193MOL0     C25925   5.582   5.832   8.048 -0.4104  0.3926  1.2792
  193MOL0     C25926   5.681   5.925   8.087 -0.0438 -0.4726  1.0401
  193MOL0     C25927   5.809   5.888   8.115 -0.1460  0.1593 -0.0024
  193MOL0     O25928   5.902   5.986   8.141 -0.6200 -0.4723  0.0505
  193MOL0     C25929   6.024   5.967   8.079 -0.6974  0.0866  0.6852
  193MOL0     C25930   6.078   6.115   8.067  0.4614 -0.1369 -0.3269
  193MOL0     C25931   6.197   6.117   7.963  0.1219  0.3991 -0.6654
  193MOL0     C25932   6.319   6.055   8.015 -0.8376  0.6233  0.1324
  193MOL0     C25933   6.435   6.135   7.960 -0.4315 -0.4420 -0.4505
  193MOL0     C25934   6.565   6.055   7.977 -0.6542  0.3670 -0.3427
  193MOL0     C25935   6.583   5.991   8.112 -0.0067 -0.6789 -0.1133
  193MOL0     C25936   6.676   5.872   8.092 -0.3735 -0.7172 -0.2918
  193MOL0     N25937   6.698   5.790   8.213  0.1966 -0.2618  0.2882
  193MOL0     C25938   6.722   5.833   8.344  0.1099  0.0912  0.7534
  193MOL0     C25939   6.713   5.722   8.422 -0.2667  1.0029 -0.3576
  193MOL0     C25940   6.713   5.719   8.569  0.0462 -0.8337  0.5484
  193MOL0     C25941   6.852   5.713   8.637  0.3613 -0.4171  0.8029
  193MOL0     C25942   6.843   5.696   8.785 -0.0561  0.5189 -0.2051
  193MOL0     C25943   6.973   5.731   8.859  0.1601 -0.0602 -0.1598
  193MOL0     O25944   7.038   5.847   8.809 -0.0509 -0.2910 -0.7944
  193MOL0     C25945   7.164   5.882   8.846  0.0305  0.1543 -0.0122
  193MOL0     C25946   7.227   6.004   8.799 -0.3866  0.8804  0.1244
  193MOL0     C25947   7.353   6.039   8.835 -0.9989 -0.3281 -0.2622
  193MOL0     C25948   7.430   5.962   8.922  0.0590  0.2640 -0.8126
  193MOL0     C25949   7.580   5.988   8.967  0.2297  0.2857 -0.9125
  193MOL0     O25950   7.639   6.094   8.919 -0.6378 -0.5434  0.6209
  193MOL0     C25951   7.764   6.142   8.955 -0.4947  0.4494  0.2574
  193MOL0     C25952   7.791   6.282   8.922 -0.5849  1.1840  0.1951
  193MOL0     C25953   7.917   6.335   8.946 -0.3492  0.4012  0.1493
  193MOL0     C25954   8.024   6.260   8.995 -0.0008  0.6565  0.3043
  193MOL0     O25955   8.147   6.316   8.992  0.0710 -0.5648 -0.0244
  193MOL0     C25956   8.260   6.250   9.051  0.8546 -0.3971  0.5073
  193MOL0     C25957   8.342   6.170   8.949  0.1347  0.5937 -0.1345
  193MOL0     C25958   8.489   6.159   9.012  1.0278 -0.4223  0.1492
  193MOL0     C25959   8.568   6.283   8.971 -0.1157 -0.4826 -0.6618
  193MOL0     C25960   8.709   6.299   9.046 -0.2973  0.3782 -0.1703
  193MOL0     C25961   8.802   6.179   9.016  0.3573  0.1720 -0.0328
  193MOL0     C25962   8.928   6.192   9.099 -0.0892  0.4121  0.4865
  193MOL0     C25963   9.019   6.303   9.053  0.5478 -0.0492 -0.2901
  193MOL0    Cl25964   9.188   6.292   9.121  0.2140 -0.1559  0.3048
  193MOL0     C25965   7.992   6.129   9.047 -0.4894 -0.9304  0.0777
  193MOL0     C25966   7.868   6.070   9.028  0.6909  0.9737  1.0697
  193MOL0     O25967   7.623   5.903   9.048 -0.1935 -0.0004 -0.2073
  193MOL0     C25968   7.374   5.836   8.948 -0.3712 -0.7992 -0.0593
  193MOL0     C25969   7.249   5.800   8.911 -0.1791 -0.2444 -0.6047
  193MOL0     N25970   6.677   5.618   8.346 -0.0622 -0.0468  0.8329
  193MOL0     N25971   6.660   5.657   8.224 -0.6097 -0.2747 -0.3733
  193MOL0     C25972   5.842   5.752   8.102 -0.5095  0.1434 -0.4541
  193MOL0     C25973   5.741   5.659   8.070 -0.5807  0.3877 -0.3052
  193MOL0     C25974   5.383   5.458   7.879 -0.3360  0.3589  0.4370
  193MOL0     C25975   5.401   5.354   7.789  0.6762 -0.1788  0.3544
  193MOL0     C25976   5.293   5.279   7.742  0.4044  0.1964 -0.7881
  193MOL0     C25977   5.168   5.303   7.801  0.7586 -0.3060 -0.6623
  193MOL0     O25978   5.066   5.229   7.753 -0.2076 -0.0740  0.0228
  193MOL0     C25979   4.930   5.256   7.766  0.0599 -0.0792 -0.6194
  193MOL0     C25980   4.883   5.387   7.692  0.9527 -0.5204  0.2376
  193MOL0     C25981   4.874   5.353   7.540  0.3038  0.8101 -0.2749
  193MOL0     C25982   4.878   5.483   7.453 -0.2643 -0.0202 -0.1629
  193MOL0     C25983   4.752   5.542   7.472  0.0710  1.1403  0.5499
  193MOL0     C25984   4.661   5.619   7.474  0.0849  0.7897 -0.3524
  193MOL0     C25985   5.153   5.399   7.896 -1.2180 -0.7537  0.0950
  193MOL0     C25986   5.259   5.474   7.939  0.4622 -0.6244 -0.8090
  193MOL0     C25987   5.233   5.576   8.047 -0.9206  0.5427  0.7588
  193MOL0     H25988   5.479   5.856   8.024 -1.0265 -2.4431  0.7611
  193MOL0     H25989   5.653   6.030   8.080 -1.4243 -0.8711  0.0907
  193MOL0     H25990   6.094   5.912   8.142 -0.1262 -0.1491 -0.1411
  193MOL0     H25991   6.012   5.922   7.981  1.6404 -0.8846  0.7872
  193MOL0     H25992   6.106   6.165   8.160 -2.1680 -0.3455  0.6717
  193MOL0     H25993   6.003   6.186   8.033  2.1670  2.5291  1.1204
  193MOL0     H25994   6.208   6.225   7.947 -1.5402  0.6638 -0.1951
  193MOL0     H25995   6.159   6.082   7.867 -0.1730  1.8048 -1.0806
  193MOL0     H25996   6.329   6.070   8.123  2.2696 -0.3803  0.0856
  193MOL0     H25997   6.313   5.950   7.985 -2.6870  1.3132 -2.2434
  193MOL0     H25998   6.417   6.151   7.854 -2.0098  2.5081  0.1493
  193MOL0     H25999   6.443   6.231   8.013  0.9462  0.6421 -2.5073
  193MOL0     H26000   6.567   5.982   7.895  3.8780  2.2191 -2.1881
  193MOL0     H26001   6.635   6.136   7.956 -0.3096  0.4141  0.9013
  193MOL0     H26002   6.496   5.950   8.162  0.5223 -1.7771 -0.0689
  193MOL0     H26003   6.629   6.062   8.182 -3.1585 -1.0966  2.6101
  193MOL0     H26004   6.629   5.807   8.017 -0.5975 -0.1895 -0.6145
  193MOL0     H26005   6.772   5.910   8.055 -0.7572 -0.3523 -0.9453
  193MOL0     H26006   6.734   5.936   8.376 -1.7056  0.3804  0.6402
  193MOL0     H26007   6.664   5.809   8.609  1.0105 -0.0378 -0.0067
  193MOL0     H26008   6.664   5.624   8.592  2.8631 -2.4246  0.3516
  193MOL0     H26009   6.906   5.628   8.594  1.6660  1.2057 -0.9295
  193MOL0     H26010   6.907   5.802   8.607 -0.8606 -0.2392 -1.1138
  193MOL0     H26011   6.802   5.596   8.800 -0.7182  0.9422  0.9078
  193MOL0     H26012   6.767   5.760   8.829 -1.1094 -2.6885  3.1536
  193MOL0     H26013   7.038   5.643   8.858  0.1121 -0.1130  0.8824
  193MOL0     H26014   6.954   5.745   8.966  0.5366  1.1463 -0.2321
  193MOL0     H26015   7.172   6.062   8.725  1.2100  3.5653  0.8855
  193MOL0     H26016   7.400   6.126   8.790 -3.2939 -0.0030 -2.2701
  193MOL0     H26017   7.715   6.335   8.865 -4.0425 -4.1367 -0.8366
  193MOL0     H26018   7.938   6.440   8.925 -1.8104  0.4842 -0.9804
  193MOL0     H26019   8.317   6.329   9.100  2.2852  0.2178 -1.9767
  193MOL0     H26020   8.236   6.185   9.136  0.9924  0.3764  1.1464
  193MOL0     H26021   8.311   6.066   8.944  1.9579 -0.0920  1.5801
  193MOL0     H26022   8.350   6.230   8.858 -0.5145  0.5117 -0.2509
  193MOL0     H26023   8.492   6.143   9.120  0.5209  1.3762  0.4689
  193MOL0     H26024   8.536   6.073   8.964 -0.3613  0.2142 -2.5723
  193MOL0     H26025   8.510   6.374   8.990 -0.5277 -0.5401 -1.5768
  193MOL0     H26026   8.590   6.271   8.865  0.1590  0.5496 -0.7337
  193MOL0     H26027   8.697   6.286   9.154  0.1199  0.5543 -0.1022
  193MOL0     H26028   8.756   6.395   9.025  1.1012 -0.5859 -1.6662
  193MOL0     H26029   8.759   6.080   9.035 -0.6070  1.2280  4.3969
  193MOL0     H26030   8.828   6.182   8.909 -0.0316  1.6350 -0.1005
  193MOL0     H26031   8.993   6.105   9.088 -0.8744 -0.3320  1.5809
  193MOL0     H26032   8.904   6.204   9.205 -2.0716 -1.0100  0.2544
  193MOL0     H26033   9.034   6.299   8.944  1.8985 -2.8525 -0.0786
  193MOL0     H26034   8.973   6.399   9.079  1.3632  1.1708 -2.9739
  193MOL0     H26035   8.064   6.067   9.100  0.1389  0.9695  1.5660
  193MOL0     H26036   7.863   5.970   9.070 -0.7830 -0.0985 -1.4498
  193MOL0     H26037   7.420   5.762   9.013  0.8275  0.8062  0.9978
  193MOL0     H26038   7.210   5.704   8.944 -0.6643  0.4430  0.9079
  193MOL0     H26039   5.938   5.707   8.125  0.1542  0.8501 -1.7160
  193MOL0     H26040   5.749   5.552   8.056 -0.4590 -0.0830  2.5951
  193MOL0     H26041   5.500   5.333   7.748  1.8433  2.1611  1.7370
  193MOL0     H26042   5.310   5.194   7.676  0.3608 -0.1434 -0.3693
  193MOL0     H26043   4.899   5.257   7.871 -0.1450 -4.2619 -0.4587
  193MOL0     H26044   4.877   5.167   7.731  1.8164 -0.7372 -1.7532
  193MOL0     H26045   4.956   5.466   7.713 -0.1209  1.1356 -1.8560
  193MOL0     H26046   4.789   5.419   7.737  0.7732 -1.4785  0.5751
  193MOL0     H26047   4.782   5.305   7.507 -1.8437  4.8195 -0.7451
  193MOL0     H26048   4.963   5.292   7.524 -0.7424 -1.9462  3.1521
  193MOL0     H26049   4.959   5.546   7.489 -1.4960  0.4675  1.8963
  193MOL0     H26050   4.883   5.479   7.344 -0.1511  0.8182 -0.1960
  193MOL0     H26051   4.583   5.691   7.465  1.8321  2.8880  0.4013
  193MOL0     H26052   5.057   5.419   7.942 -1.2583  1.9177 -0.9889
  193MOL0     H26053   5.128   5.578   8.077 -0.8623 -2.1866  1.3759
  193MOL0     H26054   5.284   5.546   8.139 -1.9736 -1.9714  0.6121
  193MOL0     H26055   5.266   5.677   8.022  0.6312  0.3023  1.7413
  194MOL0     O26056   7.667   1.564   6.820  0.3175 -0.5783 -0.3742
  194MOL0     C26057   7.616   1.648   6.893  0.1500  0.1787 -0.6839
  194MOL0     O26058   7.672   1.760   6.934 -0.0324 -0.3081  0.1286
  194MOL0     C26059   7.798   1.789   6.893  0.7636 -0.0746  0.8382
  194MOL0     C26060   7.911   1.740   6.952 -0.0317 -0.8110  0.3891
  194MOL0     C26061   8.031   1.747   6.883 -0.2784  0.0161  0.1787
  194MOL0     C26062   8.049   1.820   6.767  0.5951 -0.5755 -0.9185
  194MOL0     O26063   8.174   1.827   6.714 -0.1772  0.4075  0.5471
  194MOL0     C26064   8.210   1.730   6.617  0.6864  0.6518 -0.8402
  194MOL0     C26065   8.351   1.673   6.626 -0.3873 -0.0253  0.1035
  194MOL0     C26066   8.434   1.778   6.551  0.0714  0.5057  0.8302
  194MOL0     C26067   8.589   1.755   6.561  0.3535  0.1071  0.5779
  194MOL0     C26068   8.661   1.871   6.492 -0.3439 -0.5660  0.1619
  194MOL0     C26069   8.805   1.829   6.470  0.0443 -0.6853  0.6313
  194MOL0     C26070   8.888   1.808   6.602  0.3083 -0.1523 -0.5576
  194MOL0     C26071   9.026   1.749   6.578 -0.4937  0.7134  0.6055
  194MOL0     N26072   9.115   1.830   6.494  0.0005 -0.3489 -0.5553
  194MOL0     C26073   9.180   1.792   6.380  0.2596  1.2108  0.2203
  194MOL0     C26074   9.202   1.910   6.312  0.1442  0.0914 -1.3515
  194MOL0     C26075   9.283   1.934   6.190 -0.2884  0.1620  0.6096
  194MOL0     C26076   9.321   1.808   6.110 -0.0650 -0.2446  0.2962
  194MOL0     C26077   9.403   1.828   5.985 -0.1338 -0.4052 -1.5443
  194MOL0     C26078   9.540   1.883   6.019 -0.0698 -0.2409  1.2401
  194MOL0     O26079   9.556   2.010   5.964 -0.1872  0.3125  0.6264
  194MOL0     C26080   9.689   2.063   5.976  1.9769  0.1333  0.3048
  194MOL0     C26081   9.798   1.996   5.927 -0.4503  0.6184  0.0125
  194MOL0     C26082   9.926   2.057   5.940 -0.2901  0.1372  0.4557
  194MOL0     C26083   9.939   2.191   5.975 -0.4637 -0.3013  0.1800
  194MOL0     C26084  10.072   2.253   5.982  0.0729  0.5121  0.5091
  194MOL0     O26085  10.169   2.185   5.895 -0.9703 -0.6073  0.2025
  194MOL0     C26086  10.302   2.236   5.893  0.1234  0.0082 -0.2740
  194MOL0     C26087  10.376   2.218   5.777  0.9349 -0.2213  0.3662
  194MOL0     C26088  10.506   2.272   5.762  0.7083  0.0611 -0.4676
  194MOL0     C26089  10.563   2.338   5.876  0.4286  0.8385 -0.5203
  194MOL0     O26090  10.695   2.387   5.878 -0.2194 -0.3793 -0.2802
  194MOL0     C26091  10.801   2.295   5.840 -0.0071  0.0637 -0.1410
  194MOL0     C26092  10.873   2.225   5.962  0.7706 -0.0237  0.0227
  194MOL0     C26093  11.017   2.189   5.930 -0.0103 -0.1944  0.2826
  194MOL0     C26094  11.046   2.065   5.842 -0.2086  0.0902 -0.1452
  194MOL0     C26095  11.194   2.034   5.866 -0.1977  0.7199 -0.7013
  194MOL0     C26096  11.247   1.934   5.767  0.2220  0.2514 -0.8374
  194MOL0     C26097  11.394   1.966   5.740  0.2510  0.5547 -0.3287
  194MOL0     C26098  11.489   1.866   5.668 -0.2727  0.2368  0.1710
  194MOL0    Cl26099  11.504   1.710   5.751  0.2248 -0.3856  0.3472
  194MOL0     C26100  10.495   2.332   5.999 -0.8397 -0.3882 -0.4249
  194MOL0     C26101  10.365   2.283   6.001  0.7667 -0.2087  0.0915
  194MOL0     O26102  10.090   2.358   6.046  0.6254  0.0406  0.4725
  194MOL0     C26103   9.826   2.264   6.010 -0.0632 -0.0651 -0.5038
  194MOL0     C26104   9.705   2.197   6.008  0.0675 -1.5861 -0.3045
  194MOL0     N26105   9.167   2.011   6.402 -0.0844  0.3582  0.5855
  194MOL0     N26106   9.126   1.966   6.511  0.2445  0.4332 -0.2105
  194MOL0     C26107   7.937   1.887   6.724 -0.4038  1.0387  0.4869
  194MOL0     C26108   7.812   1.858   6.770  0.4809 -0.3960 -0.7485
  194MOL0     C26109   7.480   1.630   6.937 -0.7529 -0.2361 -0.6399
  194MOL0     C26110   7.380   1.569   6.860  0.3255 -0.0007  0.3502
  194MOL0     C26111   7.248   1.559   6.912  0.1467 -0.1504  0.6477
  194MOL0     C26112   7.222   1.577   7.048  0.8670 -0.0140  0.5142
  194MOL0     O26113   7.096   1.554   7.108 -0.3830  0.5968 -0.5400
  194MOL0     C26114   6.988   1.649   7.077 -1.2137 -1.0556  0.2493
  194MOL0     C26115   6.859   1.585   7.019 -1.2560  0.1616 -0.0155
  194MOL0     C26116   6.750   1.678   6.986  1.3592 -0.1170  0.5893
  194MOL0     C26117   6.674   1.757   7.091  0.4136  0.6788 -0.9795
  194MOL0     C26118   6.537   1.787   7.070 -0.5744 -0.7157 -0.8138
  194MOL0     C26119   6.417   1.796   7.065  0.1796  0.1596  0.5490
  194MOL0     C26120   7.324   1.620   7.130 -1.0839  0.3266  0.0013
  194MOL0     C26121   7.453   1.644   7.077  0.1618 -0.3455  0.1213
  194MOL0     C26122   7.548   1.689   7.182  0.0885  0.4969  0.1979
  194MOL0     H26123   7.892   1.690   7.046 -1.4166  1.1000  1.1904
  194MOL0     H26124   8.125   1.719   6.929  1.1471  1.6263 -1.5719
  194MOL0     H26125   8.137   1.648   6.607 -0.8519  1.7840  0.5176
  194MOL0     H26126   8.190   1.775   6.520  2.6045 -2.5630 -2.9304
  194MOL0     H26127   8.351   1.575   6.578 -0.1918 -1.8419  3.4902
  194MOL0     H26128   8.393   1.652   6.725 -0.2291  1.3515  0.3455
  194MOL0     H26129   8.424   1.878   6.594  3.5312  0.7015  1.5025
  194MOL0     H26130   8.398   1.765   6.449 -2.3977  0.9829  1.5779
  194MOL0     H26131   8.617   1.766   6.666 -0.1447  2.9001  0.4924
  194MOL0     H26132   8.628   1.661   6.520  2.7751  1.2887  0.0329
  194MOL0     H26133   8.606   1.887   6.399  2.2194  3.9702 -0.8880
  194MOL0     H26134   8.651   1.952   6.565 -2.2943 -2.7296  2.4755
  194MOL0     H26135   8.791   1.738   6.410  1.1135 -1.1143  1.0049
  194MOL0     H26136   8.855   1.909   6.415 -0.5929 -1.0581 -0.5119
  194MOL0     H26137   8.833   1.743   6.670 -1.8386  0.0132 -2.0458
  194MOL0     H26138   8.897   1.912   6.636  1.2791 -0.6925  0.9199
  194MOL0     H26139   9.073   1.714   6.670 -0.5706 -0.3003  0.2727
  194MOL0     H26140   9.009   1.654   6.527  1.6816 -0.0136  1.1418
  194MOL0     H26141   9.183   1.689   6.347 -1.8518  0.8111  1.0699
  194MOL0     H26142   9.226   1.998   6.121  0.4291 -0.4361 -0.5578
  194MOL0     H26143   9.373   1.990   6.216 -0.4601  0.7220  0.0407
  194MOL0     H26144   9.386   1.743   6.169 -0.5747 -0.7250  0.3335
  194MOL0     H26145   9.227   1.758   6.085  0.6973 -1.3837 -0.3964
  194MOL0     H26146   9.339   1.899   5.932  0.5267 -0.1088 -1.9586
  194MOL0     H26147   9.410   1.735   5.927 -1.3231 -0.8171 -1.0605
  194MOL0     H26148   9.597   1.795   5.986 -3.6450 -2.6231  0.8262
  194MOL0     H26149   9.558   1.899   6.126 -0.2948  1.2614  1.0633
  194MOL0     H26150   9.796   1.898   5.881 -2.2799  1.6672 -2.3284
  194MOL0     H26151  10.006   1.999   5.895  0.8341  1.5819  0.4915
  194MOL0     H26152  10.325   2.188   5.686  0.5893 -0.6653  0.7040
  194MOL0     H26153  10.559   2.259   5.669  2.3145 -1.5008  0.6044
  194MOL0     H26154  10.767   2.212   5.777 -0.1247  1.6245 -2.2051
  194MOL0     H26155  10.877   2.348   5.782 -1.3820  3.0079  0.5880
  194MOL0     H26156  10.865   2.286   6.052  0.2236  0.4180 -0.3180
  194MOL0     H26157  10.815   2.140   5.998 -2.4235  2.8507  2.2739
  194MOL0     H26158  11.062   2.270   5.872  2.6433 -2.9227 -1.7518
  194MOL0     H26159  11.063   2.191   6.030  0.3127  1.0166  0.1288
  194MOL0     H26160  11.021   2.096   5.740 -0.9066  3.0539  0.8186
  194MOL0     H26161  10.978   1.986   5.873 -0.8111  0.6200 -0.0861
  194MOL0     H26162  11.210   2.009   5.971 -4.1203  1.5668  0.2474
  194MOL0     H26163  11.255   2.124   5.856  0.4772  0.6153  1.8779
  194MOL0     H26164  11.227   1.834   5.809  0.2748  0.5584 -0.0634
  194MOL0     H26165  11.192   1.944   5.673 -2.3202 -3.1065  0.0773
  194MOL0     H26166  11.455   1.988   5.828 -0.9547 -0.7759  0.8778
  194MOL0     H26167  11.387   2.046   5.666 -0.7965 -0.9123 -1.9023
  194MOL0     H26168  11.455   1.850   5.565  1.4946  1.7631 -0.7068
  194MOL0     H26169  11.587   1.914   5.661 -0.7573  1.1537 -0.5728
  194MOL0     H26170  10.539   2.378   6.087  2.0432  2.0325 -2.8702
  194MOL0     H26171  10.320   2.273   6.099 -0.4122 -5.7290 -0.6552
  194MOL0     H26172   9.841   2.369   6.035  1.6755 -0.8077  1.9332
  194MOL0     H26173   9.621   2.261   6.030  0.9966 -0.3823 -0.1418
  194MOL0     H26174   7.949   1.950   6.636 -1.2825 -0.1030 -0.4922
  194MOL0     H26175   7.726   1.901   6.718  1.9822  3.1514 -0.6136
  194MOL0     H26176   7.420   1.528   6.768 -0.1897 -0.4293  0.3137
  194MOL0     H26177   7.173   1.509   6.851  1.2657 -0.3305 -0.6292
  194MOL0     H26178   7.025   1.729   7.012  0.8443 -1.6291  0.6615
  194MOL0     H26179   6.964   1.709   7.165 -0.1367  2.2791 -1.5782
  194MOL0     H26180   6.823   1.506   7.086 -0.5935 -0.8709 -0.8507
  194MOL0     H26181   6.897   1.533   6.931 -0.7825  3.6332 -2.0846
  194MOL0     H26182   6.669   1.619   6.941  0.6630  1.1208  0.1712
  194MOL0     H26183   6.787   1.758   6.922 -4.2903  2.7673  0.2566
  194MOL0     H26184   6.698   1.709   7.186  0.9991  0.6237 -1.1499
  194MOL0     H26185   6.721   1.854   7.109  2.6980 -0.9846  3.8690
  194MOL0     H26186   6.311   1.807   7.053  0.5359  1.6548 -1.8806
  194MOL0     H26187   7.303   1.634   7.235 -3.1073  0.6092 -0.3998
  194MOL0     H26188   7.646   1.641   7.175 -0.3989 -0.2526 -2.9883
  194MOL0     H26189   7.569   1.796   7.188  0.3341  0.3659  2.6810
  194MOL0     H26190   7.511   1.663   7.282 -0.5601  3.1326  0.7445
  195MOL0     O26191   9.989  10.214   3.876 -0.5544  0.1484  0.3444
  195MOL0     C26192   9.878  10.181   3.930  0.2869 -0.2113  0.1103
  195MOL0     O26193   9.860  10.061   3.998 -0.0918  0.1990 -0.2083
  195MOL0     C26194   9.941   9.959   3.983  0.7339 -0.1237 -0.2915
  195MOL0     C26195  10.071   9.962   4.037  0.4866 -0.1127  0.4819
  195MOL0     C26196  10.139   9.844   4.048 -0.4474 -0.9655 -0.0990
  195MOL0     C26197  10.099   9.723   3.985 -0.1449 -0.5321 -0.9734
  195MOL0     O26198  10.185   9.611   4.001  0.6932  0.3776  0.6017
  195MOL0     C26199  10.324   9.631   3.975  0.3918 -0.5787  0.2947
  195MOL0     C26200  10.399   9.492   3.957  0.3436  0.1805  0.7414
  195MOL0     C26201  10.547   9.517   3.936 -0.1817 -0.3283 -0.7621
  195MOL0     C26202  10.635   9.601   4.033  0.0534 -0.3426 -0.4517
  195MOL0     C26203  10.782   9.575   4.019  0.4575 -0.2320  0.2142
  195MOL0     C26204  10.837   9.623   3.885  0.3170 -0.7013 -0.2083
  195MOL0     C26205  10.983   9.617   3.909  0.2009  0.1617  0.6946
  195MOL0     C26206  11.060   9.656   3.790  0.2951  0.5748  0.0406
  195MOL0     N26207  11.206   9.629   3.795  0.4703 -0.6597  0.1371
  195MOL0     C26208  11.266   9.509   3.777  0.5328  0.3686  0.0428
  195MOL0     C26209  11.398   9.534   3.797  0.3269 -0.4446 -0.2667
  195MOL0     C26210  11.500   9.427   3.787 -0.4125  0.4310 -0.3155
  195MOL0     C26211  11.490   9.344   3.656 -0.3557 -0.9785 -0.0360
  195MOL0     C26212  11.619   9.261   3.635 -0.3150  0.1683  0.1799
  195MOL0     C26213  11.653   9.159   3.740 -0.0995  0.2879 -0.0375
  195MOL0     O26214  11.715   9.224   3.857 -0.3830 -0.4269  1.0101
  195MOL0     C26215  11.767   9.153   3.964 -0.8034 -0.6999 -0.4591
  195MOL0     C26216  11.807   9.233   4.073 -0.3493  0.0837 -0.7035
  195MOL0     C26217  11.860   9.178   4.194 -0.3210 -0.5871 -0.1207
  195MOL0     C26218  11.880   9.040   4.201  0.0713 -0.3608  0.0945
  195MOL0     C26219  11.948   8.970   4.310  0.3165  0.2955 -0.5814
  195MOL0     O26220  12.009   9.054   4.393 -0.4202  0.6791  0.5068
  195MOL0     C26221  12.073   9.013   4.515  0.2673  0.1177  1.5897
  195MOL0     C26222  12.039   8.912   4.607  0.0221  0.0018 -0.0765
  195MOL0     C26223  12.108   8.897   4.724 -0.3271 -0.2408 -0.4395
  195MOL0     C26224  12.217   8.983   4.744 -0.5921  0.2967 -0.5342
  195MOL0     O26225  12.291   8.961   4.858 -0.7190  0.1061  0.3446
  195MOL0     C26226  12.423   8.907   4.814  0.0025 -0.6079 -0.1403
  195MOL0     C26227  12.518   8.871   4.927 -0.3185 -0.1998 -0.3595
  195MOL0     C26228  12.564   8.994   5.007 -0.3829 -0.2027 -0.2398
  195MOL0     C26229  12.674   8.967   5.109 -0.8492 -0.2835 -0.7747
  195MOL0     C26230  12.779   8.847   5.077 -0.3889 -1.0452 -0.6090
  195MOL0     C26231  12.908   8.852   5.160  0.1960  0.1467  0.0308
  195MOL0     C26232  13.000   8.741   5.112  0.2339  0.6006 -0.7451
  195MOL0     C26233  13.149   8.765   5.158 -0.8454 -0.0076  0.0057
  195MOL0    Cl26234  13.170   8.803   5.328 -0.2614  0.2472 -0.0553
  195MOL0     C26235  12.250   9.079   4.651 -0.1701 -0.2678  0.0822
  195MOL0     C26236  12.181   9.086   4.538  0.2110 -1.1553  0.3813
  195MOL0     O26237  11.946   8.848   4.326 -1.0002 -0.6852  0.5900
  195MOL0     C26238  11.842   8.956   4.091 -0.1635 -0.8891 -0.3838
  195MOL0     C26239  11.782   9.011   3.980  0.2773  0.0229 -0.1041
  195MOL0     N26240  11.418   9.670   3.803  0.1092 -0.0525 -0.0278
  195MOL0     N26241  11.302   9.726   3.798 -0.7899  0.0908 -0.6763
  195MOL0     C26242   9.964   9.719   3.933 -0.0030  0.0992 -0.5644
  195MOL0     C26243   9.883   9.838   3.941 -0.3845 -0.2086 -0.2537
  195MOL0     C26244   9.764  10.275   3.933 -0.5848  0.6102 -0.1717
  195MOL0     C26245   9.634  10.221   3.917 -0.3931  0.5418 -0.1677
  195MOL0     C26246   9.517  10.292   3.908 -0.6550 -0.2378  0.1803
  195MOL0     C26247   9.514  10.432   3.938 -0.2701 -0.2089 -0.6693
  195MOL0     O26248   9.411  10.516   3.940  0.5875 -0.2841  0.2725
  195MOL0     C26249   9.284  10.454   3.949  0.5405  0.2137 -0.0963
  195MOL0     C26250   9.189  10.575   3.984  0.3505 -0.5614  0.0828
  195MOL0     C26251   9.156  10.660   3.857  0.5767  0.2692 -1.2102
  195MOL0     C26252   9.118  10.802   3.874 -1.0976 -0.7453  0.4838
  195MOL0     C26253   9.016  10.829   3.976  1.0873 -0.3175 -0.4663
  195MOL0     C26254   8.920  10.841   4.053  0.0476 -0.3666  0.7703
  195MOL0     C26255   9.641  10.485   3.964 -0.4135  0.5159 -0.5842
  195MOL0     C26256   9.764  10.409   3.960 -0.3389 -0.5100  0.8598
  195MOL0     C26257   9.890  10.465   4.004  0.3354 -0.5919  0.9174
  195MOL0     H26258  10.111  10.055   4.077  0.4129  0.9547 -1.7856
  195MOL0     H26259  10.228   9.857   4.110 -1.2269  0.5459  0.7751
  195MOL0     H26260  10.339   9.684   3.880 -1.8943 -1.8709 -0.8924
  195MOL0     H26261  10.382   9.690   4.046 -1.6879  1.0531  0.7399
  195MOL0     H26262  10.349   9.431   3.881 -0.6797  1.4975  0.3185
  195MOL0     H26263  10.390   9.439   4.052  0.3385  1.8171  1.6891
  195MOL0     H26264  10.559   9.572   3.842  2.7232 -1.6547 -1.2717
  195MOL0     H26265  10.587   9.415   3.932  0.0969 -0.2674  0.2480
  195MOL0     H26266  10.615   9.709   4.031 -2.1621 -0.6000  2.0511
  195MOL0     H26267  10.592   9.565   4.127 -1.5564 -0.8570 -1.3555
  195MOL0     H26268  10.832   9.631   4.098  0.4680 -1.3619  1.0303
  195MOL0     H26269  10.806   9.471   4.042  0.4080  0.0827  1.7687
  195MOL0     H26270  10.795   9.558   3.807 -0.8672 -0.3522  0.1094
  195MOL0     H26271  10.814   9.727   3.860  1.5405 -0.3416  0.1267
  195MOL0     H26272  11.002   9.515   3.943 -2.3668 -0.2838  0.9879
  195MOL0     H26273  11.019   9.682   3.989  2.5577  1.2297 -1.0936
  195MOL0     H26274  11.013   9.601   3.708  3.1932 -2.1117 -0.0098
  195MOL0     H26275  11.052   9.764   3.776  3.5178  1.0764  1.1597
  195MOL0     H26276  11.217   9.417   3.746 -0.0806  0.5031  0.5865
  195MOL0     H26277  11.600   9.468   3.796  0.9131 -2.7947  1.6491
  195MOL0     H26278  11.471   9.359   3.868 -0.7450 -0.0339 -0.8164
  195MOL0     H26279  11.397   9.286   3.658 -2.1327  1.6924 -0.4965
  195MOL0     H26280  11.460   9.415   3.578 -3.0148 -0.1929  1.5850
  195MOL0     H26281  11.703   9.330   3.623  1.2474 -2.0146 -2.7068
  195MOL0     H26282  11.615   9.206   3.541  0.8673  3.5603 -2.0309
  195MOL0     H26283  11.711   9.080   3.692 -1.0538 -0.2388 -0.3534
  195MOL0     H26284  11.571   9.093   3.774  0.3653 -1.1465 -1.5614
  195MOL0     H26285  11.796   9.341   4.066  2.2059  0.4424 -0.3364
  195MOL0     H26286  11.892   9.243   4.274  0.8182 -1.3447  0.0662
  195MOL0     H26287  11.945   8.859   4.595 -0.9591  1.7142 -0.3409
  195MOL0     H26288  12.074   8.832   4.804  0.9006 -0.5822 -0.1769
  195MOL0     H26289  12.416   8.811   4.762  0.0637 -1.5933  1.5941
  195MOL0     H26290  12.460   8.989   4.751 -0.6482  3.5421  4.2999
  195MOL0     H26291  12.465   8.803   4.995 -1.4243  1.7078  0.7839
  195MOL0     H26292  12.594   8.811   4.876 -1.1314 -2.5189  0.9802
  195MOL0     H26293  12.615   9.055   4.933  0.1238 -0.7099 -0.3200
  195MOL0     H26294  12.479   9.051   5.047 -1.3061 -1.7673  0.1309
  195MOL0     H26295  12.625   8.961   5.207  0.9106  1.7412  0.3146
  195MOL0     H26296  12.729   9.061   5.117 -1.5817  0.0197  1.4164
  195MOL0     H26297  12.794   8.872   4.972 -1.2227  1.2640 -0.2401
  195MOL0     H26298  12.715   8.759   5.091 -0.3412 -0.8989  0.6726
  195MOL0     H26299  12.948   8.953   5.147 -1.5276  1.2500  2.5691
  195MOL0     H26300  12.876   8.845   5.264  1.2984 -1.5314  0.2947
  195MOL0     H26301  13.002   8.732   5.003  2.3101 -0.8774 -0.6379
  195MOL0     H26302  12.963   8.640   5.132 -2.4641  1.7124  0.4513
  195MOL0     H26303  13.224   8.686   5.152  1.0523  1.4004  2.6699
  195MOL0     H26304  13.193   8.828   5.080  0.6141 -1.1108 -0.1090
  195MOL0     H26305  12.322   9.157   4.672 -0.6183  0.5580 -1.3013
  195MOL0     H26306  12.203   9.169   4.472 -1.3482 -1.9539 -1.2485
  195MOL0     H26307  11.855   8.848   4.095  1.0722 -0.7544 -0.1120
  195MOL0     H26308  11.734   8.948   3.906  1.0137  0.8865 -1.3509
  195MOL0     H26309   9.915   9.625   3.907 -0.7074  0.4053 -0.3642
  195MOL0     H26310   9.777   9.844   3.919 -0.4861 -1.9415 -0.3599
  195MOL0     H26311   9.638  10.114   3.896  1.1670  0.4552  0.4456
  195MOL0     H26312   9.427  10.232   3.903  0.1214 -1.4748  0.4688
  195MOL0     H26313   9.281  10.387   4.036  2.7001  1.4610  1.0216
  195MOL0     H26314   9.251  10.402   3.859 -1.8768  0.8937  0.3060
  195MOL0     H26315   9.236  10.630   4.066 -1.1585 -1.0837  1.3502
  195MOL0     H26316   9.095  10.528   4.016 -0.2771  1.5645  1.5398
  195MOL0     H26317   9.085  10.608   3.792  2.7860  1.3531 -4.7198
  195MOL0     H26318   9.245  10.653   3.794  1.7424  3.2865 -0.0949
  195MOL0     H26319   9.206  10.859   3.906  0.0039 -2.8915  1.4609
  195MOL0     H26320   9.089  10.837   3.775  2.9170 -1.3693 -1.0991
  195MOL0     H26321   8.845  10.868   4.124 -1.3873 -2.2440  0.0624
  195MOL0     H26322   9.647  10.593   3.968  1.6254  0.4903 -1.5617
  195MOL0     H26323   9.978  10.400   4.010 -0.1907 -1.3238  0.8079
  195MOL0     H26324   9.919  10.539   3.929  0.9827 -0.9058  0.8501
  195MOL0     H26325   9.876  10.520   4.097  2.1823  1.9650 -0.1974
  196MOL0     O26326   4.514  10.833   9.050  1.2105  0.4768 -0.6135
  196MOL0     C26327   4.440  10.769   9.128 -0.3773 -0.3929  0.2970
  196MOL0     O26328   4.486  10.676   9.222 -0.4045 -0.6692  0.8334
  196MOL0     C26329   4.613  10.633   9.235  0.5122 -0.7457 -0.0998
  196MOL0     C26330   4.698  10.587   9.136 -0.9022  0.3618  0.5401
  196MOL0     C26331   4.835  10.564   9.151  0.9431 -0.1800  0.1027
  196MOL0     C26332   4.890  10.567   9.281  0.1428  0.2419  1.1605
  196MOL0     O26333   5.016  10.518   9.297 -0.2633 -0.8425  0.2526
  196MOL0     C26334   5.076  10.514   9.426 -0.4939  0.2986  0.2092
  196MOL0     C26335   5.216  10.452   9.433  0.8916  0.7205  0.8506
  196MOL0     C26336   5.271  10.397   9.572 -0.1830 -0.8194  0.3111
  196MOL0     C26337   5.390  10.303   9.561  0.1627 -0.6114  0.5409
  196MOL0     C26338   5.468  10.271   9.680 -0.7841 -0.0833  0.3558
  196MOL0     C26339   5.394  10.244   9.820  0.3565 -1.0455  0.8650
  196MOL0     C26340   5.489  10.176   9.921 -0.3319 -1.4038 -0.2788
  196MOL0     C26341   5.449  10.185  10.074 -0.2173  0.8190  0.0796
  196MOL0     N26342   5.527  10.096  10.165 -0.2779  0.2342  0.1878
  196MOL0     C26343   5.649  10.129  10.225  0.4625  0.1041  0.2633
  196MOL0     C26344   5.683  10.014  10.291 -0.0444 -0.1096  0.4856
  196MOL0     C26345   5.800   9.957  10.370 -0.2450 -0.2701  0.3991
  196MOL0     C26346   5.851  10.076  10.462 -0.0694  0.9231 -0.2955
  196MOL0     C26347   5.968  10.047  10.551 -0.0330 -0.5513 -0.1522
  196MOL0     C26348   6.014  10.180  10.613  1.0747  0.0715  0.0972
  196MOL0     O26349   6.110  10.163  10.721  0.0862 -1.1547  0.2569
  196MOL0     C26350   6.167  10.269  10.779 -0.2781  0.2906  0.9934
  196MOL0     C26351   6.101  10.395  10.772 -0.2925 -0.2814 -0.9315
  196MOL0     C26352   6.172  10.508  10.821 -0.2316  0.8333 -0.0021
  196MOL0     C26353   6.297  10.502  10.887  1.0434  0.3477  0.0533
  196MOL0     C26354   6.375  10.622  10.934  0.5218  0.2491  0.3062
  196MOL0     O26355   6.479  10.601  11.018  0.1768 -0.4391 -0.7400
  196MOL0     C26356   6.566  10.709  11.048  0.1426  0.5340  0.1440
  196MOL0     C26357   6.703  10.700  11.010 -0.0052  0.2898  0.4891
  196MOL0     C26358   6.798  10.794  11.054 -0.1322  0.3783 -0.5451
  196MOL0     C26359   6.763  10.903  11.131 -0.5049  0.0686 -0.9067
  196MOL0     O26360   6.855  10.995  11.177 -0.1406 -0.3666  0.0628
  196MOL0     C26361   6.991  10.992  11.129 -0.2500  1.0358 -0.4889
  196MOL0     C26362   7.080  11.084  11.201  0.5149 -0.0937 -0.6282
  196MOL0     C26363   7.226  11.052  11.208  1.4394 -0.2011 -0.3409
  196MOL0     C26364   7.298  11.025  11.073 -0.9066 -0.0150  0.3740
  196MOL0     C26365   7.319  11.156  10.998  0.9306 -0.4045 -1.5361
  196MOL0     C26366   7.355  11.140  10.852  0.3504 -1.2810 -0.1774
  196MOL0     C26367   7.480  11.062  10.813  0.8419  0.5951 -0.2598
  196MOL0     C26368   7.604  11.105  10.873 -0.6797 -1.4860  0.0034
  196MOL0    Cl26369   7.625  11.288  10.839  0.1844 -0.2570  0.2841
  196MOL0     C26370   6.631  10.911  11.164  0.3270 -0.2080  0.4420
  196MOL0     C26371   6.525  10.831  11.119  0.0857  0.1199  0.7960
  196MOL0     O26372   6.330  10.728  10.901  0.3678 -0.1397  0.8202
  196MOL0     C26373   6.351  10.372  10.908  0.5600  0.1633 -0.7404
  196MOL0     C26374   6.288  10.259  10.850  0.5663 -0.1633  0.9143
  196MOL0     N26375   5.584   9.920  10.268 -0.1005 -0.4237 -0.3068
  196MOL0     N26376   5.488   9.966  10.193  0.1101 -1.0834  0.4923
  196MOL0     C26377   4.806  10.618   9.387  0.0735  0.1713  0.1822
  196MOL0     C26378   4.673  10.656   9.361  0.4998 -0.0872  0.0861
  196MOL0     C26379   4.306  10.799   9.135 -0.7733 -0.6284  0.2186
  196MOL0     C26380   4.241  10.784   9.258 -0.4475 -0.1737  0.8874
  196MOL0     C26381   4.111  10.822   9.265  0.2333 -0.6401 -0.6056
  196MOL0     C26382   4.041  10.871   9.155  0.0698  0.1910  0.1050
  196MOL0     O26383   3.911  10.909   9.172 -0.2035 -0.3994  0.4428
  196MOL0     C26384   3.823  10.980   9.075 -0.1375 -0.1503 -0.4967
  196MOL0     C26385   3.696  11.029   9.147  0.2942  0.2116 -0.4111
  196MOL0     C26386   3.600  10.903   9.164  0.5228  0.3001 -0.1639
  196MOL0     C26387   3.452  10.930   9.192  0.0127  0.1279  0.0701
  196MOL0     C26388   3.364  10.809   9.203 -1.7050  0.4871 -0.2182
  196MOL0     C26389   3.313  10.700   9.226  0.0255 -0.2701  0.6895
  196MOL0     C26390   4.107  10.891   9.031  0.4635 -0.6614 -0.7551
  196MOL0     C26391   4.237  10.849   9.021  0.1225 -0.2338 -0.6773
  196MOL0     C26392   4.290  10.822   8.875 -0.3174 -0.4466 -0.1310
  196MOL0     H26393   4.663  10.578   9.034  2.0286 -0.7810 -0.4639
  196MOL0     H26394   4.891  10.524   9.066  0.7542 -0.8243  0.2744
  196MOL0     H26395   5.095  10.608   9.478  0.1474 -1.1561  2.8404
  196MOL0     H26396   5.008  10.462   9.495  2.2405 -2.0629  1.3230
  196MOL0     H26397   5.283  10.522   9.382  2.2433 -0.5556  0.8257
  196MOL0     H26398   5.224  10.370   9.361  2.2272  2.3769 -1.0242
  196MOL0     H26399   5.185  10.335   9.599 -0.5976 -1.0221 -1.3863
  196MOL0     H26400   5.286  10.474   9.648  1.3004 -0.2311 -0.5339
  196MOL0     H26401   5.342  10.218   9.512  0.5431 -0.1354 -0.6751
  196MOL0     H26402   5.455  10.353   9.489 -1.5456 -0.4724 -0.9759
  196MOL0     H26403   5.531  10.189   9.645 -2.8893 -1.3458 -0.6340
  196MOL0     H26404   5.537  10.355   9.694 -1.4285  1.4571 -4.1532
  196MOL0     H26405   5.342  10.333   9.855  0.8998 -0.4943  0.3067
  196MOL0     H26406   5.316  10.168   9.809 -3.2335  2.0676  2.9056
  196MOL0     H26407   5.588  10.220   9.906  0.3711 -1.5745  3.0620
  196MOL0     H26408   5.492  10.069   9.901  0.8046 -1.9946  2.5670
  196MOL0     H26409   5.452  10.288  10.111 -0.2827  0.9936 -0.3815
  196MOL0     H26410   5.348  10.144  10.081  0.4599 -0.9154  0.0635
  196MOL0     H26411   5.717  10.211  10.204  0.9699 -0.4488 -0.3016
  196MOL0     H26412   5.768   9.869  10.427  0.2188 -0.3881  0.4851
  196MOL0     H26413   5.875   9.926  10.296  2.2643  2.3708  1.6166
  196MOL0     H26414   5.896  10.154  10.400  0.9013 -0.6685 -1.6706
  196MOL0     H26415   5.766  10.112  10.522  2.4892  1.1681  3.5555
  196MOL0     H26416   6.050  10.003  10.493  0.1718  1.5208 -1.5386
  196MOL0     H26417   5.943   9.981  10.635 -2.7732 -0.7870 -1.0498
  196MOL0     H26418   5.929  10.236  10.655  0.0832  0.6591 -2.4658
  196MOL0     H26419   6.053  10.241  10.531 -1.2482  1.8437  0.2030
  196MOL0     H26420   6.010  10.406  10.714  1.2466  0.9065 -3.3205
  196MOL0     H26421   6.137  10.606  10.789  1.7434  1.3777 -0.6889
  196MOL0     H26422   6.738  10.609  10.961 -2.1026 -0.1613 -0.2821
  196MOL0     H26423   6.896  10.783  11.008 -1.4828 -0.1095 -3.5106
  196MOL0     H26424   7.037  10.896  11.156  0.2072  1.7945  1.6117
  196MOL0     H26425   6.999  11.009  11.021  0.3491 -2.7138 -1.1737
  196MOL0     H26426   7.063  11.182  11.155  0.1947 -1.1292 -2.8059
  196MOL0     H26427   7.041  11.108  11.301 -2.8582  2.2982 -2.2831
  196MOL0     H26428   7.284  11.124  11.267 -0.2167 -0.6110  1.9220
  196MOL0     H26429   7.235  10.964  11.273  2.5372  1.4214  1.8645
  196MOL0     H26430   7.242  10.959  11.006 -0.9021 -1.1061  1.4062
  196MOL0     H26431   7.399  10.983  11.084 -1.4232 -2.1884 -2.1254
  196MOL0     H26432   7.398  11.213  11.048 -2.1134  2.1765  0.6952
  196MOL0     H26433   7.231  11.220  11.009  0.0304 -2.0944  3.7427
  196MOL0     H26434   7.273  11.111  10.786  2.6036 -3.0248 -2.4032
  196MOL0     H26435   7.373  11.244  10.825  1.4909 -0.6814  2.5656
  196MOL0     H26436   7.484  11.071  10.704  1.5660  0.5937 -0.2379
  196MOL0     H26437   7.450  10.959  10.832 -2.3073  1.2980 -0.8130
  196MOL0     H26438   7.611  11.078  10.979 -3.4378  0.9480  0.9602
  196MOL0     H26439   7.692  11.057  10.830 -1.7325 -3.3774 -0.1565
  196MOL0     H26440   6.606  10.995  11.228  0.8505 -0.0471  0.4407
  196MOL0     H26441   6.427  10.835  11.164  0.4688  2.1896  1.5200
  196MOL0     H26442   6.448  10.366  10.956  0.2140  0.3635 -0.0010
  196MOL0     H26443   6.320  10.156  10.842  1.2592  0.1004  0.1582
  196MOL0     H26444   4.835  10.610   9.491  2.1080 -0.8693 -0.4120
  196MOL0     H26445   4.610  10.691   9.442  1.6105 -0.4904  1.1529
  196MOL0     H26446   4.284  10.766   9.356  0.5735  1.3652  0.7536
  196MOL0     H26447   4.057  10.817   9.359  3.0337  2.6695  1.3872
  196MOL0     H26448   3.802  10.901   9.003  0.7187 -2.0165  1.1923
  196MOL0     H26449   3.869  11.067   9.027  0.0756 -0.0570 -0.1268
  196MOL0     H26450   3.645  11.106   9.089  1.2968 -0.5766 -2.4200
  196MOL0     H26451   3.719  11.077   9.243  0.7583 -1.3929  0.3152
  196MOL0     H26452   3.635  10.841   9.246 -0.4452 -1.9124 -1.3187
  196MOL0     H26453   3.612  10.840   9.075 -0.8776  1.2988 -1.1202
  196MOL0     H26454   3.438  10.969   9.293 -2.0506 -2.7123  1.0153
  196MOL0     H26455   3.409  11.002   9.122  0.8935 -0.4924 -1.1344
  196MOL0     H26456   3.261  10.616   9.266  1.6733 -0.5657  2.3536
  196MOL0     H26457   4.060  10.923   8.938  0.0657  0.9869 -0.0234
  196MOL0     H26458   4.338  10.907   8.825  0.6142  0.1493  1.6837
  196MOL0     H26459   4.357  10.737   8.864 -1.4502 -1.6396  1.6460
  196MOL0     H26460   4.198  10.795   8.822 -0.0975  0.9525 -1.3028
  197MOL0     O26461   6.314  10.218   3.024  0.0037 -0.4328  0.6904
  197MOL0     C26462   6.282  10.328   3.058 -0.0372  0.4586 -0.4005
  197MOL0     O26463   6.370  10.431   3.080  0.4014  0.2530 -0.0847
  197MOL0     C26464   6.502  10.414   3.040 -0.8459 -0.2537 -0.8744
  197MOL0     C26465   6.610  10.401   3.132  0.2617 -0.0873 -0.1703
  197MOL0     C26466   6.742  10.389   3.080  0.2226 -0.0804 -0.0590
  197MOL0     C26467   6.772  10.399   2.944 -0.7804  0.0933 -0.3713
  197MOL0     O26468   6.909  10.406   2.917  0.7480  0.1381  0.7478
  197MOL0     C26469   6.955  10.459   2.794  0.1590  0.9548  0.6897
  197MOL0     C26470   7.112  10.493   2.788  0.3026  0.0810  0.7380
  197MOL0     C26471   7.169  10.582   2.671  0.7556 -0.0709 -0.0458
  197MOL0     C26472   7.144  10.522   2.529  0.4250  0.3092  0.8877
  197MOL0     C26473   7.205  10.609   2.416 -0.2024  0.5937 -0.2523
  197MOL0     C26474   7.175  10.562   2.274 -0.3261 -0.0138  0.1343
  197MOL0     C26475   7.262  10.622   2.163  0.0126 -0.4959  0.4007
  197MOL0     C26476   7.415  10.607   2.186  0.9048  0.1389  0.6490
  197MOL0     N26477   7.448  10.473   2.225 -1.0927 -0.2403 -0.9797
  197MOL0     C26478   7.520  10.448   2.346  0.4519  0.8726  0.1863
  197MOL0     C26479   7.554  10.311   2.342  0.4241  0.4222 -0.1032
  197MOL0     C26480   7.623  10.231   2.447  0.0794 -0.1034 -0.3424
  197MOL0     C26481   7.761  10.183   2.392 -0.6389  0.0439  0.2971
  197MOL0     C26482   7.825  10.081   2.486 -0.1969 -0.1553 -0.1496
  197MOL0     C26483   7.958  10.022   2.445 -0.7340 -0.4471 -0.1258
  197MOL0     O26484   8.079  10.108   2.480  0.0141  0.8400  0.4688
  197MOL0     C26485   8.199  10.041   2.480 -0.0957 -0.7685  0.3830
  197MOL0     C26486   8.316  10.108   2.532  1.0119  0.2699 -0.0136
  197MOL0     C26487   8.441  10.050   2.538 -0.9971  0.7003  0.0944
  197MOL0     C26488   8.459   9.916   2.503 -0.3670 -0.0579 -0.1494
  197MOL0     C26489   8.586   9.854   2.509 -0.8205 -0.4608 -0.3580
  197MOL0     O26490   8.596   9.716   2.533 -0.1080 -0.1343  0.3848
  197MOL0     C26491   8.719   9.664   2.518 -0.0058  0.1321  0.2205
  197MOL0     C26492   8.800   9.668   2.403  0.0207  0.8252  0.0479
  197MOL0     C26493   8.921   9.605   2.399 -0.1708  0.1617  0.2265
  197MOL0     C26494   8.970   9.532   2.512  0.0348 -0.3655  0.1563
  197MOL0     O26495   9.090   9.470   2.494  0.5034  0.0465 -0.9370
  197MOL0     C26496   9.139   9.379   2.595  0.3874  0.0260  0.3020
  197MOL0     C26497   9.297   9.379   2.595 -0.3512 -0.5961  0.6236
  197MOL0     C26498   9.357   9.495   2.665  0.5991  0.3333 -0.4350
  197MOL0     C26499   9.514   9.486   2.666 -0.1576  0.4907 -0.8757
  197MOL0     C26500   9.593   9.487   2.539 -0.3740 -0.6081  0.6123
  197MOL0     C26501   9.557   9.602   2.437 -0.1808 -0.0879  0.2624
  197MOL0     C26502   9.675   9.652   2.372 -0.1325  0.2945  0.2455
  197MOL0     C26503   9.652   9.794   2.317 -1.1527  0.1744 -0.0372
  197MOL0    Cl26504   9.792   9.874   2.236 -0.3053  0.0723 -0.1868
  197MOL0     C26505   8.896   9.542   2.632  0.8756  0.3589 -0.0685
  197MOL0     C26506   8.763   9.597   2.634  0.4804 -0.5854 -0.5179
  197MOL0     O26507   8.688   9.926   2.494  0.2999  0.0529  0.5760
  197MOL0     C26508   8.353   9.854   2.447 -0.3375  0.1942 -0.0655
  197MOL0     C26509   8.224   9.919   2.431 -0.6030  0.8460 -0.5794
  197MOL0     N26510   7.496  10.261   2.226  0.3705 -0.1411 -0.5872
  197MOL0     N26511   7.441  10.361   2.156  0.2985  0.5936  0.0291
  197MOL0     C26512   6.664  10.402   2.849 -0.7900  0.4630  0.2293
  197MOL0     C26513   6.529  10.408   2.897 -0.2846 -0.4933  0.0207
  197MOL0     C26514   6.139  10.353   3.091  0.0919  0.2269  0.9322
  197MOL0     C26515   6.096  10.465   3.166 -0.9405 -0.2679  0.3042
  197MOL0     C26516   5.969  10.493   3.200  0.3200  0.2835 -0.5149
  197MOL0     C26517   5.868  10.409   3.162  0.1705  0.0667  0.1198
  197MOL0     O26518   5.728  10.420   3.181 -0.0732  0.3443  0.7854
  197MOL0     C26519   5.683  10.481   3.307  0.0859  0.0648  0.5487
  197MOL0     C26520   5.532  10.467   3.319  0.0206 -0.5231 -0.8133
  197MOL0     C26521   5.484  10.325   3.292 -0.3806 -0.9827 -0.2949
  197MOL0     C26522   5.352  10.294   3.357  0.1683 -0.2108  0.0625
  197MOL0     C26523   5.233  10.322   3.283 -0.0504  0.9964 -0.1522
  197MOL0     C26524   5.128  10.340   3.225  0.5148 -0.1236 -0.2574
  197MOL0     C26525   5.903  10.300   3.089 -1.0226  0.9878  0.3743
  197MOL0     C26526   6.034  10.258   3.053 -0.5101 -0.8615  0.3935
  197MOL0     C26527   6.057  10.134   2.974 -0.2260 -0.6586 -0.3724
  197MOL0     H26528   6.590  10.388   3.237  0.2764 -1.9578 -0.3716
  197MOL0     H26529   6.816  10.376   3.158  0.1535 -1.2604 -0.1822
  197MOL0     H26530   6.944  10.389   2.711 -2.6852  1.3127  0.6433
  197MOL0     H26531   6.907  10.556   2.775 -0.4936  0.5518  0.2348
  197MOL0     H26532   7.162  10.396   2.776 -0.9678 -0.5614  0.4880
  197MOL0     H26533   7.135  10.544   2.882 -1.1203  1.2818  0.4715
  197MOL0     H26534   7.273  10.607   2.696  1.1782 -2.6414  1.0766
  197MOL0     H26535   7.104  10.670   2.663  2.0040  0.6998 -4.0772
  197MOL0     H26536   7.186  10.422   2.531  0.1943  0.2160  1.1039
  197MOL0     H26537   7.037  10.513   2.507  1.1364 -0.5217 -2.9223
  197MOL0     H26538   7.161  10.709   2.428 -0.4718  0.2567  1.9241
  197MOL0     H26539   7.313  10.614   2.431 -0.3839  1.7056  0.7938
  197MOL0     H26540   7.193  10.455   2.265  0.5285  0.2255 -1.4840
  197MOL0     H26541   7.068  10.571   2.253 -0.1053  1.5156 -0.4562
  197MOL0     H26542   7.240  10.728   2.179 -2.0379 -0.9458  0.7602
  197MOL0     H26543   7.237  10.600   2.059  0.7135  1.0663 -0.1340
  197MOL0     H26544   7.466  10.639   2.095 -1.8959  0.5471 -0.9021
  197MOL0     H26545   7.453  10.681   2.257  3.3935 -0.3774 -0.0488
  197MOL0     H26546   7.521  10.511   2.434  3.5090 -0.8774  1.5891
  197MOL0     H26547   7.643  10.294   2.534  0.1820 -0.4111 -0.1421
  197MOL0     H26548   7.569  10.140   2.473  1.6237 -1.1673 -0.7312
  197MOL0     H26549   7.746  10.137   2.294  1.8514 -1.4979  0.5601
  197MOL0     H26550   7.825  10.270   2.376 -1.4355 -0.0276 -4.8578
  197MOL0     H26551   7.759   9.995   2.503 -0.5325 -0.2720 -1.9074
  197MOL0     H26552   7.842  10.122   2.586 -0.4099  1.2345 -0.6655
  197MOL0     H26553   7.960   9.984   2.342  0.7977  1.2445 -0.7641
  197MOL0     H26554   7.961   9.930   2.505 -1.5454  1.0320  2.3338
  197MOL0     H26555   8.296  10.207   2.572  0.3113 -0.0533  0.4517
  197MOL0     H26556   8.527  10.108   2.572  1.3191 -0.6301 -3.0003
  197MOL0     H26557   8.773   9.733   2.321 -0.5022 -0.1258 -0.5635
  197MOL0     H26558   8.993   9.610   2.317  1.7810 -1.5891  1.7139
  197MOL0     H26559   9.097   9.397   2.694 -0.2640  1.5230 -0.2182
  197MOL0     H26560   9.109   9.279   2.561  0.0465  1.0527 -2.7420
  197MOL0     H26561   9.324   9.284   2.641 -0.7149 -1.1432 -0.2851
  197MOL0     H26562   9.340   9.377   2.495 -2.8492 -0.3233 -0.5156
  197MOL0     H26563   9.315   9.581   2.612 -1.0614  0.8138  1.5105
  197MOL0     H26564   9.327   9.489   2.771 -0.6701 -2.3439 -0.8530
  197MOL0     H26565   9.539   9.390   2.712 -2.6005 -0.5073 -1.4714
  197MOL0     H26566   9.548   9.561   2.738 -1.4259  1.3324 -1.1067
  197MOL0     H26567   9.570   9.393   2.488 -2.3375  0.2801 -0.2499
  197MOL0     H26568   9.699   9.477   2.565  0.4786 -0.5792 -2.4738
  197MOL0     H26569   9.489   9.554   2.366  1.8995 -1.6964 -0.7243
  197MOL0     H26570   9.505   9.681   2.493 -1.4501  0.3864 -1.4937
  197MOL0     H26571   9.709   9.577   2.300 -2.5115  1.1108 -1.8418
  197MOL0     H26572   9.763   9.655   2.438  0.7866  0.0483 -0.9345
  197MOL0     H26573   9.570   9.802   2.245  0.8291  0.7112 -2.3667
  197MOL0     H26574   9.630   9.850   2.408 -3.0719 -2.1092  1.0123
  197MOL0     H26575   8.916   9.490   2.725 -1.2371 -1.0556 -0.3407
  197MOL0     H26576   8.692   9.586   2.716  2.3544  3.6939  2.0311
  197MOL0     H26577   8.369   9.752   2.413  4.7158 -0.0000  2.0564
  197MOL0     H26578   8.137   9.872   2.387 -1.5053  1.4197  0.5412
  197MOL0     H26579   6.685  10.422   2.744  0.2384  0.9463  0.5156
  197MOL0     H26580   6.442  10.403   2.832 -2.5430  2.0258  2.5670
  197MOL0     H26581   6.172  10.537   3.195 -1.2657  0.7041 -1.1614
  197MOL0     H26582   5.953  10.573   3.272 -2.1533 -3.8892  4.1823
  197MOL0     H26583   5.712  10.586   3.302 -0.7398  0.2471 -2.6053
  197MOL0     H26584   5.737  10.446   3.396 -3.4586  0.8452  3.2149
  197MOL0     H26585   5.486  10.535   3.247  1.9827  2.7266  0.7646
  197MOL0     H26586   5.494  10.491   3.419 -1.3673 -1.4420 -1.0859
  197MOL0     H26587   5.564  10.260   3.329 -0.5660 -1.2510 -0.3632
  197MOL0     H26588   5.478  10.302   3.185 -1.2149  0.7371 -0.6514
  197MOL0     H26589   5.340  10.185   3.367 -2.0447 -0.4224 -3.3130
  197MOL0     H26590   5.337  10.348   3.451 -1.4929  1.4078 -1.0685
  197MOL0     H26591   5.024  10.351   3.202  0.5723  1.0775 -0.0017
  197MOL0     H26592   5.823  10.234   3.058 -0.5449  1.2383 -1.4864
  197MOL0     H26593   5.963  10.117   2.921 -2.8757  1.4834  3.1591
  197MOL0     H26594   6.136  10.170   2.907  0.1045 -0.6395  0.0265
  197MOL0     H26595   6.083  10.048   3.037 -0.0330 -0.8688 -0.7311
  198MOL0     O26596   0.278   3.489   6.440 -0.2218  0.5859  0.1222
  198MOL0     C26597   0.206   3.498   6.542 -0.4556 -0.6502 -0.0423
  198MOL0     O26598   0.244   3.487   6.676  0.0892 -0.0522  0.5777
  198MOL0     C26599   0.372   3.442   6.701 -0.0990 -0.0189  0.0266
  198MOL0     C26600   0.388   3.312   6.741 -0.5144 -0.2044 -0.7241
  198MOL0     C26601   0.520   3.255   6.751  0.7236 -0.6644  0.0770
  198MOL0     C26602   0.627   3.343   6.721 -0.2563  0.2126  0.5630
  198MOL0     O26603   0.753   3.283   6.728 -0.5301  0.5618  0.6741
  198MOL0     C26604   0.870   3.374   6.727 -0.4489  0.1244  0.7268
  198MOL0     C26605   0.924   3.390   6.587  0.9278 -0.5757  1.1527
  198MOL0     C26606   0.993   3.524   6.560  0.0955 -0.0702 -0.5338
  198MOL0     C26607   1.115   3.564   6.647  0.1757  0.0557 -0.0560
  198MOL0     C26608   1.166   3.697   6.603  0.2181  0.5139  0.7382
  198MOL0     C26609   1.283   3.728   6.693 -0.3817 -0.1104  0.1804
  198MOL0     C26610   1.356   3.856   6.627 -0.1712 -0.0185  0.2371
  198MOL0     C26611   1.456   3.920   6.729  0.1508  0.1158  0.1672
  198MOL0     N26612   1.524   3.824   6.820  0.2729  0.6627 -1.2707
  198MOL0     C26613   1.603   3.721   6.776 -0.1240  0.2872 -0.6569
  198MOL0     C26614   1.654   3.659   6.885  0.5849  0.2840 -0.0912
  198MOL0     C26615   1.758   3.565   6.887 -0.5966 -0.0194  0.0314
  198MOL0     C26616   1.885   3.635   6.923  0.4153  0.3445  0.8989
  198MOL0     C26617   1.928   3.736   6.811 -0.1303  0.4585  0.2514
  198MOL0     C26618   2.083   3.754   6.802  0.0580  0.1386 -0.9941
  198MOL0     O26619   2.142   3.654   6.715  0.6215 -0.1864  0.3443
  198MOL0     C26620   2.280   3.628   6.720  0.6435  0.2162 -0.9567
  198MOL0     C26621   2.323   3.524   6.633  0.4720  0.7604  1.0164
  198MOL0     C26622   2.462   3.502   6.629 -0.1743  0.1466  0.5430
  198MOL0     C26623   2.549   3.548   6.727  0.5282 -0.7857 -0.0381
  198MOL0     C26624   2.687   3.495   6.734  0.6787  0.4428  0.3323
  198MOL0     O26625   2.734   3.429   6.620  0.2971 -0.2096  0.1453
  198MOL0     C26626   2.855   3.360   6.644 -0.5893  0.7444 -0.7536
  198MOL0     C26627   2.972   3.396   6.576 -0.2163 -0.9370  0.3871
  198MOL0     C26628   3.084   3.326   6.592 -0.9957 -0.5876 -0.1607
  198MOL0     C26629   3.092   3.205   6.661  0.1746 -0.8432 -0.2014
  198MOL0     O26630   3.196   3.124   6.653  0.5351 -0.2018  0.7193
  198MOL0     C26631   3.195   3.080   6.508  0.3126  0.0894 -1.1246
  198MOL0     C26632   3.297   2.973   6.497  0.1607 -1.3464 -0.8104
  198MOL0     C26633   3.436   3.025   6.510 -0.1489 -0.0761  0.3393
  198MOL0     C26634   3.531   2.950   6.422 -0.0037  0.2249 -0.6245
  198MOL0     C26635   3.683   2.983   6.441  0.2989 -0.0539 -0.5135
  198MOL0     C26636   3.772   2.935   6.322 -0.2543 -0.5219 -0.4457
  198MOL0     C26637   3.750   2.783   6.295  0.1756 -0.8903  0.3486
  198MOL0     C26638   3.849   2.737   6.187 -0.1501 -0.3758  1.1689
  198MOL0    Cl26639   4.010   2.744   6.257  0.4726  0.5749  0.4067
  198MOL0     C26640   2.976   3.164   6.729  0.5919  0.4264 -0.9505
  198MOL0     C26641   2.860   3.248   6.730  0.0166  0.8815  0.8747
  198MOL0     O26642   2.758   3.518   6.832  1.0623  0.5501  0.5985
  198MOL0     C26643   2.511   3.665   6.794 -0.4879  0.3790 -0.0775
  198MOL0     C26644   2.371   3.704   6.797  0.4586  0.0252 -0.1728
  198MOL0     N26645   1.618   3.730   6.995  0.0521  0.1682 -0.6164
  198MOL0     N26646   1.536   3.826   6.960 -0.3857 -0.1442  0.5965
  198MOL0     C26647   0.604   3.474   6.675  0.0743 -0.3809 -0.1589
  198MOL0     C26648   0.478   3.521   6.657  0.0326  0.2422  0.0558
  198MOL0     C26649   0.061   3.507   6.520 -0.9353  0.0929  0.4237
  198MOL0     C26650   0.013   3.503   6.386  0.8409  0.3255 -0.3445
  198MOL0     C26651  -0.122   3.513   6.346 -0.4354 -0.4028 -0.2635
  198MOL0     C26652  -0.216   3.540   6.448  0.1730  0.0016  0.4635
  198MOL0     O26653  -0.355   3.542   6.418  0.3652 -0.3187  0.2906
  198MOL0     C26654  -0.447   3.589   6.520  0.0962  0.2535  0.3039
  198MOL0     C26655  -0.576   3.640   6.449  0.4274  0.3268  0.9059
  198MOL0     C26656  -0.682   3.530   6.402  0.6343 -0.0022 -0.5152
  198MOL0     C26657  -0.819   3.567   6.342 -0.2542 -0.1606 -0.0981
  198MOL0     C26658  -0.901   3.663   6.415  0.5542 -0.0574 -0.6766
  198MOL0     C26659  -0.999   3.723   6.458 -0.4580 -0.2214  0.5478
  198MOL0     C26660  -0.175   3.530   6.580 -0.4893  0.3552  0.1696
  198MOL0     C26661  -0.036   3.534   6.616 -0.1052 -0.2904 -0.0196
  198MOL0     C26662  -0.015   3.550   6.766 -0.5311  0.3888 -0.3121
  198MOL0     H26663   0.298   3.253   6.753 -1.2363  1.0282  0.0838
  198MOL0     H26664   0.549   3.152   6.768  0.8391 -0.2954  2.3154
  198MOL0     H26665   0.844   3.472   6.767 -0.7478  0.6271 -0.6440
  198MOL0     H26666   0.943   3.324   6.792  0.3158 -1.6287 -1.3567
  198MOL0     H26667   0.848   3.406   6.510  1.9161 -2.4986 -0.3400
  198MOL0     H26668   0.993   3.310   6.555  1.5856  0.5643 -0.4164
  198MOL0     H26669   0.915   3.599   6.577  1.4066  2.3208 -4.0542
  198MOL0     H26670   1.021   3.521   6.455  0.9964 -3.8108 -0.3469
  198MOL0     H26671   1.093   3.557   6.754  2.1742 -2.2676  0.2958
  198MOL0     H26672   1.193   3.487   6.645 -1.5413 -1.8569  1.7080
  198MOL0     H26673   1.199   3.672   6.502 -0.0951 -0.0019  0.7609
  198MOL0     H26674   1.084   3.769   6.599 -0.0887  0.1311  0.0741
  198MOL0     H26675   1.247   3.754   6.793  0.6881 -0.8584  0.7800
  198MOL0     H26676   1.346   3.638   6.693 -2.4207 -1.6985 -2.5958
  198MOL0     H26677   1.285   3.929   6.589  0.8790 -0.1210 -2.0563
  198MOL0     H26678   1.419   3.822   6.545  2.4442  0.4696  1.9196
  198MOL0     H26679   1.530   3.975   6.670  0.8224 -0.6333  0.3034
  198MOL0     H26680   1.409   3.979   6.808 -0.6672 -2.9616  2.1545
  198MOL0     H26681   1.617   3.700   6.671  2.3806  1.0166 -0.5401
  198MOL0     H26682   1.728   3.480   6.949  1.0032 -2.7030 -2.5964
  198MOL0     H26683   1.767   3.521   6.787  0.2643  1.9526 -0.8181
  198MOL0     H26684   1.880   3.674   7.025 -0.5179  0.6460  0.7497
  198MOL0     H26685   1.965   3.560   6.918  0.5395  0.5132  0.2839
  198MOL0     H26686   1.868   3.825   6.833 -1.0838 -0.0606 -0.1677
  198MOL0     H26687   1.895   3.705   6.712  0.1986 -1.5564  0.7296
  198MOL0     H26688   2.125   3.756   6.903  0.9465  1.7804 -1.3590
  198MOL0     H26689   2.093   3.857   6.767  1.2856  0.8079  1.1096
  198MOL0     H26690   2.261   3.473   6.560 -0.5956  2.9125  0.3268
  198MOL0     H26691   2.494   3.426   6.558 -2.2961 -1.8950  1.6043
  198MOL0     H26692   2.979   3.485   6.513 -2.5982  1.7530  3.5494
  198MOL0     H26693   3.172   3.369   6.544  0.1583  1.3330  3.3257
  198MOL0     H26694   3.104   3.020   6.493 -1.1388  1.3701  1.8001
  198MOL0     H26695   3.213   3.152   6.428 -0.9612 -1.1005 -2.5678
  198MOL0     H26696   3.283   2.895   6.573  0.8977  2.1932  3.3698
  198MOL0     H26697   3.286   2.930   6.397  2.6217 -1.1253 -1.2395
  198MOL0     H26698   3.439   3.133   6.493  1.3506 -0.5461 -3.4361
  198MOL0     H26699   3.489   2.999   6.602  1.7596 -2.8892 -1.3784
  198MOL0     H26700   3.502   2.985   6.322 -1.1960  1.5807  0.1631
  198MOL0     H26701   3.515   2.842   6.427 -1.3447  0.4595  1.7036
  198MOL0     H26702   3.707   2.941   6.539 -1.7024  2.4385  1.1723
  198MOL0     H26703   3.703   3.091   6.440 -1.0061  0.2740  2.1220
  198MOL0     H26704   3.744   3.005   6.243  2.5209  0.4640 -0.6706
  198MOL0     H26705   3.880   2.946   6.339 -0.4546 -0.5648  0.9694
  198MOL0     H26706   3.652   2.766   6.252  0.0497 -0.7129  0.5613
  198MOL0     H26707   3.758   2.729   6.390 -1.0809  1.3043  1.7846
  198MOL0     H26708   3.835   2.631   6.164 -0.2988 -0.7445  2.8110
  198MOL0     H26709   3.847   2.792   6.092  3.6961  0.4337  1.3598
  198MOL0     H26710   2.986   3.070   6.783  0.0937  0.4042 -0.8949
  198MOL0     H26711   2.767   3.228   6.781 -0.6627 -1.0010 -0.9210
  198MOL0     H26712   2.583   3.720   6.854 -3.1492  2.0630  1.8023
  198MOL0     H26713   2.335   3.785   6.859  1.5061  0.2235  0.2052
  198MOL0     H26714   0.686   3.536   6.641  3.5764 -3.3801  2.1238
  198MOL0     H26715   0.467   3.617   6.609  3.0357  0.7860  0.2497
  198MOL0     H26716   0.080   3.471   6.307  2.2863  0.1448  0.8931
  198MOL0     H26717  -0.155   3.500   6.243 -1.2042 -1.4806  0.1007
  198MOL0     H26718  -0.402   3.677   6.566  1.2721 -0.8498  1.3353
  198MOL0     H26719  -0.463   3.510   6.593 -0.6246  0.2336  0.1297
  198MOL0     H26720  -0.552   3.707   6.365 -3.2567 -2.5127 -2.8374
  198MOL0     H26721  -0.631   3.701   6.521 -1.9696  0.3791 -0.8660
  198MOL0     H26722  -0.722   3.478   6.490  0.3154 -1.0451 -1.2596
  198MOL0     H26723  -0.623   3.463   6.340  1.9591 -1.0162  1.7032
  198MOL0     H26724  -0.797   3.612   6.245 -2.0181  1.2489  0.0973
  198MOL0     H26725  -0.880   3.480   6.318  0.1591 -0.9498  1.5772
  198MOL0     H26726  -1.079   3.790   6.482 -0.6607  0.4623 -1.7764
  198MOL0     H26727  -0.239   3.520   6.668  1.2749 -0.1666  1.4637
  198MOL0     H26728   0.044   3.642   6.774  0.7677 -0.4187 -0.3043
  198MOL0     H26729  -0.108   3.576   6.815 -0.0375  0.8849  0.3773
  198MOL0     H26730   0.033   3.468   6.820  2.3403  0.8605 -1.8740
  199MOL0     O26731   7.077  10.176   0.518 -0.0298  1.0608  0.2435
  199MOL0     C26732   7.000  10.087   0.503  0.2638 -0.6293 -0.1256
  199MOL0     O26733   6.985  10.022   0.386 -0.3474  0.4472  0.2986
  199MOL0     C26734   7.046  10.076   0.274  0.8078  0.0954 -0.0665
  199MOL0     C26735   7.171  10.036   0.227 -0.4156  0.5278  0.4408
  199MOL0     C26736   7.229  10.087   0.116  1.1736  0.3236  0.7381
  199MOL0     C26737   7.172  10.192   0.048 -1.2651 -0.4723  0.6517
  199MOL0     O26738   7.243  10.244  -0.056 -0.3963  0.0656 -1.0223
  199MOL0     C26739   7.298  10.380  -0.038 -0.0182 -1.0157 -0.5956
  199MOL0     C26740   7.409  10.388  -0.130  0.0424 -0.1272 -0.4464
  199MOL0     C26741   7.530  10.303  -0.083 -0.4412  0.1855  0.2548
  199MOL0     C26742   7.622  10.268  -0.208 -0.1308  0.5697  0.3578
  199MOL0     C26743   7.763  10.223  -0.154 -0.2241  0.1923 -0.4294
  199MOL0     C26744   7.846  10.155  -0.262  0.3762  0.1022 -0.0573
  199MOL0     C26745   7.963  10.078  -0.204 -1.5464 -0.7079 -0.3134
  199MOL0     C26746   8.053  10.160  -0.110  0.0312 -0.7974  0.1624
  199MOL0     N26747   8.119  10.279  -0.177 -0.1566 -0.3278 -0.3763
  199MOL0     C26748   8.140  10.402  -0.113 -0.1937  0.6691 -0.7208
  199MOL0     C26749   8.214  10.468  -0.208 -0.7521 -0.3034  0.6898
  199MOL0     C26750   8.271  10.609  -0.218 -0.0005  0.3849  0.2986
  199MOL0     C26751   8.409  10.607  -0.285 -0.8451  0.3333  0.3168
  199MOL0     C26752   8.511  10.501  -0.236 -0.3919  0.8123 -0.0472
  199MOL0     C26753   8.650  10.559  -0.266  0.2422 -0.1417 -0.6117
  199MOL0     O26754   8.751  10.461  -0.234  0.4006  0.6435  0.3696
  199MOL0     C26755   8.875  10.498  -0.207 -1.1612 -0.3826  0.5868
  199MOL0     C26756   8.953  10.399  -0.147  0.7426  0.3593 -0.1702
  199MOL0     C26757   9.093  10.410  -0.127  0.3293 -0.5835  0.4928
  199MOL0     C26758   9.160  10.537  -0.160  1.3724  1.6519  0.2111
  199MOL0     C26759   9.298  10.558  -0.161  0.1345 -0.0837  0.3914
  199MOL0     O26760   9.375  10.450  -0.167  0.4495 -0.1341  0.7170
  199MOL0     C26761   9.512  10.477  -0.176 -0.2125  1.1828  0.1788
  199MOL0     C26762   9.566  10.534  -0.290 -0.1464  0.2781  0.2085
  199MOL0     C26763   9.696  10.582  -0.298  0.9205 -0.1368 -0.9861
  199MOL0     C26764   9.785  10.551  -0.191 -0.4094  0.0462  0.1431
  199MOL0     O26765   9.914  10.587  -0.211 -0.6211 -0.8621  0.2276
  199MOL0     C26766  10.019  10.552  -0.123  0.1704 -0.2109  0.1177
  199MOL0     C26767  10.146  10.611  -0.182 -0.2116 -0.4914 -0.0121
  199MOL0     C26768  10.137  10.759  -0.157 -0.8446  0.0629 -0.3567
  199MOL0     C26769  10.228  10.805  -0.040 -0.4082  0.3935 -0.2551
  199MOL0     C26770  10.159  10.829   0.093 -0.5566  0.2226 -0.1061
  199MOL0     C26771  10.256  10.889   0.199  0.0435  0.0464  0.5023
  199MOL0     C26772  10.209  10.886   0.344 -0.1848 -0.7740  0.3503
  199MOL0     C26773  10.297  10.987   0.428  0.4682  0.4603 -0.1033
  199MOL0    Cl26774  10.211  10.997   0.588 -0.4658 -0.2001  0.2722
  199MOL0     C26775   9.732  10.483  -0.075 -0.1747 -0.5955 -0.1004
  199MOL0     C26776   9.598  10.453  -0.064  0.9184 -0.6286  0.8035
  199MOL0     O26777   9.342  10.671  -0.162  0.0753  0.3606 -0.1381
  199MOL0     C26778   9.076  10.645  -0.211  0.2494 -0.6070 -0.5758
  199MOL0     C26779   8.943  10.622  -0.234  0.4874  0.9133  0.1106
  199MOL0     N26780   8.230  10.387  -0.315  0.4774 -0.2825  0.8015
  199MOL0     N26781   8.170  10.275  -0.301 -0.0832  1.0828 -0.4875
  199MOL0     C26782   7.051  10.248   0.090 -0.2024 -0.3427 -0.1010
  199MOL0     C26783   6.990  10.182   0.201 -0.1378 -0.2428 -0.1241
  199MOL0     C26784   6.907  10.056   0.618 -0.3578  0.8492  0.0660
  199MOL0     C26785   6.936  10.112   0.739  0.1809  0.0913 -0.4602
  199MOL0     C26786   6.850  10.095   0.849  0.4127 -0.1647  0.4331
  199MOL0     C26787   6.725  10.029   0.828  0.5336 -0.4261 -0.7088
  199MOL0     O26788   6.637   9.999   0.931  0.3045  0.3039  0.3449
  199MOL0     C26789   6.676  10.036   1.073  0.5651  0.3061 -0.5091
  199MOL0     C26790   6.564  10.024   1.179  0.2051 -0.0077  0.1014
  199MOL0     C26791   6.525   9.879   1.216 -0.5998 -0.3128 -0.0260
  199MOL0     C26792   6.376   9.885   1.248 -0.1215 -1.3182 -0.7486
  199MOL0     C26793   6.350   9.741   1.279 -0.5107 -0.4347  0.9910
  199MOL0     C26794   6.332   9.617   1.271 -0.0810  0.1787 -0.2123
  199MOL0     C26795   6.707   9.957   0.710  0.2239  0.2008  0.0558
  199MOL0     C26796   6.793   9.970   0.604  0.0085  0.0653  0.1148
  199MOL0     C26797   6.757   9.892   0.483  0.6135 -0.8426  0.3708
  199MOL0     H26798   7.211   9.948   0.276 -3.2237  0.7139  3.3812
  199MOL0     H26799   7.313  10.035   0.071  0.1515 -1.8964  1.2403
  199MOL0     H26800   7.229  10.463  -0.055  1.0848  0.2683  0.9291
  199MOL0     H26801   7.326  10.386   0.067 -2.8029 -1.7645  0.2809
  199MOL0     H26802   7.432  10.495  -0.134  2.5347 -0.4396  2.1982
  199MOL0     H26803   7.376  10.353  -0.228  1.6066 -0.5293 -0.8537
  199MOL0     H26804   7.485  10.209  -0.049 -0.9024  0.2209 -0.2399
  199MOL0     H26805   7.593  10.357  -0.012  1.2939 -2.0041  0.4933
  199MOL0     H26806   7.580  10.190  -0.271 -0.0267  1.8382 -1.3648
  199MOL0     H26807   7.631  10.355  -0.274  1.2008 -2.6879 -4.3348
  199MOL0     H26808   7.818  10.298  -0.096 -1.5730 -0.0369  1.2418
  199MOL0     H26809   7.747  10.145  -0.079  1.6278  0.1948  0.0328
  199MOL0     H26810   7.785  10.086  -0.322 -0.6024  0.3159  0.6664
  199MOL0     H26811   7.894  10.231  -0.324  1.8918 -0.0381  0.8846
  199MOL0     H26812   8.024  10.031  -0.282 -3.7785  1.5593 -3.6979
  199MOL0     H26813   7.932   9.995  -0.140 -1.2323  0.5976  1.6233
  199MOL0     H26814   7.991  10.192  -0.026 -2.0718 -1.5233 -1.0296
  199MOL0     H26815   8.126  10.089  -0.071  1.4773  0.3217 -0.4017
  199MOL0     H26816   8.099  10.440  -0.020  0.9627  4.8510 -1.7224
  199MOL0     H26817   8.199  10.665  -0.279 -2.3788 -0.7181  1.9067
  199MOL0     H26818   8.269  10.656  -0.120 -1.7932  1.3209 -0.1480
  199MOL0     H26819   8.395  10.583  -0.391  0.3461 -4.1898  0.9817
  199MOL0     H26820   8.450  10.708  -0.274 -2.5952  0.8084  3.4442
  199MOL0     H26821   8.494  10.409  -0.293  2.5220  0.6649 -0.8703
  199MOL0     H26822   8.503  10.478  -0.129 -1.0048 -1.8135 -0.5954
  199MOL0     H26823   8.660  10.652  -0.209 -1.4828  0.5870 -1.4196
  199MOL0     H26824   8.649  10.588  -0.371  3.9826  1.2191 -0.4467
  199MOL0     H26825   8.895  10.308  -0.135  1.1963 -0.1121 -1.3994
  199MOL0     H26826   9.155  10.333  -0.083  2.1793  0.4261 -0.2466
  199MOL0     H26827   9.509  10.570  -0.375 -0.6693 -1.4972 -0.2339
  199MOL0     H26828   9.723  10.641  -0.385  0.6166  0.1230 -0.9029
  199MOL0     H26829  10.005  10.595  -0.024 -0.5604  1.0492 -0.5089
  199MOL0     H26830  10.023  10.443  -0.113 -4.1700 -0.3602  2.7145
  199MOL0     H26831  10.237  10.563  -0.145  0.4312 -1.6020 -2.8093
  199MOL0     H26832  10.155  10.597  -0.290  1.6048  0.7559 -0.0652
  199MOL0     H26833  10.182  10.819  -0.237 -0.2574  0.4400  0.2494
  199MOL0     H26834  10.031  10.786  -0.150 -0.2887  2.4879 -0.4528
  199MOL0     H26835  10.280  10.897  -0.069 -1.9037  1.9845  1.7256
  199MOL0     H26836  10.307  10.732  -0.024  0.0928  0.9344 -0.2232
  199MOL0     H26837  10.116  10.736   0.131 -0.0096  0.8107  2.1302
  199MOL0     H26838  10.079  10.901   0.078 -1.1073 -0.7420 -2.0963
  199MOL0     H26839  10.361  10.867   0.181  0.4198  3.5243 -3.3266
  199MOL0     H26840  10.257  10.997   0.178  0.7721  0.3536  1.9851
  199MOL0     H26841  10.226  10.783   0.376  0.5008 -0.3739  1.3369
  199MOL0     H26842  10.103  10.912   0.347 -1.1490 -3.6769 -2.5102
  199MOL0     H26843  10.395  10.939   0.438 -0.7698 -2.0612  1.0434
  199MOL0     H26844  10.308  11.084   0.379 -1.0156 -0.9594 -3.6459
  199MOL0     H26845   9.792  10.472   0.014 -0.8665  0.7694  0.5768
  199MOL0     H26846   9.558  10.394   0.018  0.7230  0.2221  1.3370
  199MOL0     H26847   9.112  10.745  -0.233  0.8353 -0.7260 -0.1811
  199MOL0     H26848   8.880  10.701  -0.274 -2.5872 -0.7722  1.2389
  199MOL0     H26849   6.997  10.321   0.030  0.4231 -0.9701 -1.4591
  199MOL0     H26850   6.891  10.209   0.236 -2.0552 -2.5685 -3.2257
  199MOL0     H26851   7.034  10.157   0.753  1.6448 -2.2566 -2.3093
  199MOL0     H26852   6.887  10.148   0.937 -0.7616  0.9671  0.2523
  199MOL0     H26853   6.718  10.136   1.071  0.4286  0.3566 -1.3345
  199MOL0     H26854   6.755   9.966   1.102  1.8410  2.4244  1.4426
  199MOL0     H26855   6.477  10.084   1.150  1.5125  2.7123  1.4365
  199MOL0     H26856   6.599  10.071   1.271 -1.5455  1.2634  0.1525
  199MOL0     H26857   6.579   9.845   1.305 -1.3919  0.4361  0.7727
  199MOL0     H26858   6.544   9.804   1.139  0.4741  1.2682 -1.3550
  199MOL0     H26859   6.350   9.945   1.335  0.2568 -1.0601 -0.8116
  199MOL0     H26860   6.310   9.913   1.166 -0.3901  1.7292  0.3811
  199MOL0     H26861   6.323   9.510   1.275 -1.3632  0.2858  0.1666
  199MOL0     H26862   6.627   9.886   0.695 -0.7619  1.5452 -1.4270
  199MOL0     H26863   6.822   9.806   0.466 -0.4435 -1.7660  0.8681
  199MOL0     H26864   6.661   9.846   0.505 -1.0936  1.1514 -2.3445
  199MOL0     H26865   6.753   9.960   0.397  1.0075 -2.3609 -0.8861
  200MOL0     O26866   0.597   9.454   9.860 -0.0877 -0.0822  0.0722
  200MOL0     C26867   0.531   9.406   9.948  0.3208  0.3447  0.2237
  200MOL0     O26868   0.584   9.384  10.080  0.4700  0.8534  0.1691
  200MOL0     C26869   0.702   9.444  10.126  0.1357 -1.0217 -0.9044
  200MOL0     C26870   0.742   9.574  10.089  0.0353 -0.1398  0.6542
  200MOL0     C26871   0.841   9.645  10.154  0.2118  0.0315  0.7324
  200MOL0     C26872   0.913   9.581  10.256 -0.0459 -0.8416 -0.4698
  200MOL0     O26873   1.015   9.644  10.316 -0.6059 -0.0794 -0.5560
  200MOL0     C26874   1.148   9.578  10.307 -0.1485 -0.5152  0.3731
  200MOL0     C26875   1.255   9.684  10.334 -0.6234 -0.6078 -0.0668
  200MOL0     C26876   1.400   9.627  10.320  0.5523 -0.0915  0.6480
  200MOL0     C26877   1.492   9.742  10.352  0.1177  0.7926  0.2996
  200MOL0     C26878   1.638   9.701  10.369 -0.5736 -0.3263  0.9311
  200MOL0     C26879   1.721   9.814  10.416  0.1085  0.6197 -0.5011
  200MOL0     C26880   1.873   9.793  10.434  0.1410 -0.3117  0.4428
  200MOL0     C26881   1.953   9.926  10.462  0.1770 -0.4176 -0.7165
  200MOL0     N26882   1.922   9.977  10.603  0.0610  0.1468  1.6579
  200MOL0     C26883   1.941   9.917  10.718 -0.1484 -0.1642 -1.4220
  200MOL0     C26884   1.891   9.998  10.813  0.8334  0.0854  0.5027
  200MOL0     C26885   1.883   9.995  10.964  0.2918  0.0126  0.4651
  200MOL0     C26886   2.014   9.950  11.019  0.2317  0.2581  0.9965
  200MOL0     C26887   1.984   9.912  11.161  0.7436 -0.7167 -0.1991
  200MOL0     C26888   2.118   9.890  11.234 -0.4980 -0.2162  0.6293
  200MOL0     O26889   2.107   9.878  11.377  0.0928  0.0578  0.5191
  200MOL0     C26890   2.230   9.869  11.433  0.1525  0.0986  0.7483
  200MOL0     C26891   2.235   9.878  11.570 -0.8027 -0.2459 -0.1983
  200MOL0     C26892   2.356   9.854  11.654  0.2213 -0.0661  0.9773
  200MOL0     C26893   2.474   9.829  11.581 -0.4173 -0.0419  0.6164
  200MOL0     C26894   2.598   9.818  11.660 -0.3442 -0.0381 -0.3945
  200MOL0     O26895   2.582   9.822  11.796 -0.2696  0.5599 -0.5146
  200MOL0     C26896   2.671   9.757  11.883 -0.7953 -0.3979  0.4065
  200MOL0     C26897   2.647   9.775  12.015  1.0720  0.0002 -1.0066
  200MOL0     C26898   2.731   9.714  12.109  0.4109 -0.2139 -0.3905
  200MOL0     C26899   2.839   9.631  12.075 -0.1465  0.6221  0.2659
  200MOL0     O26900   2.933   9.581  12.162 -0.2731 -0.0238 -0.1871
  200MOL0     C26901   2.992   9.676  12.256 -0.6789  0.4376 -0.6081
  200MOL0     C26902   3.131   9.633  12.307  0.5644 -0.3381  0.3691
  200MOL0     C26903   3.107   9.526  12.417  0.7151  0.2535 -0.6062
  200MOL0     C26904   3.242   9.514  12.498 -0.7324  1.0290  0.2443
  200MOL0     C26905   3.255   9.388  12.581  0.1106  0.0726 -0.0478
  200MOL0     C26906   3.377   9.381  12.665 -0.5824 -0.4914 -0.1100
  200MOL0     C26907   3.380   9.484  12.778  0.3926  0.0536 -0.7956
  200MOL0     C26908   3.513   9.471  12.863 -0.3978 -0.6713 -0.0887
  200MOL0    Cl26909   3.504   9.537  13.038  0.2483 -0.0133 -0.4894
  200MOL0     C26910   2.854   9.603  11.939 -0.3889  0.5183  0.0884
  200MOL0     C26911   2.768   9.662  11.844 -0.3398 -0.1005 -1.6210
  200MOL0     O26912   2.706   9.824  11.597  0.5497  0.3700  0.3810
  200MOL0     C26913   2.473   9.826  11.448  0.0013 -0.4094  0.9819
  200MOL0     C26914   2.357   9.835  11.374 -0.3669 -0.2647 -0.7320
  200MOL0     N26915   1.816  10.100  10.747 -0.4371 -0.7580 -0.2228
  200MOL0     N26916   1.839  10.089  10.619  0.6627 -0.2508 -1.0479
  200MOL0     C26917   0.891   9.451  10.283  1.1472  0.4329 -0.2937
  200MOL0     C26918   0.793   9.382  10.212  1.3062 -0.1237 -0.2826
  200MOL0     C26919   0.384   9.380   9.931  0.6292 -0.2481  0.4883
  200MOL0     C26920   0.298   9.347  10.037  1.0592 -0.0830 -0.5650
  200MOL0     C26921   0.160   9.314  10.011 -0.8646 -0.8814  0.0479
  200MOL0     C26922   0.107   9.319   9.880 -0.0669  0.2500 -0.5144
  200MOL0     O26923  -0.022   9.307   9.849  0.0789  0.4894  0.1300
  200MOL0     C26924  -0.098   9.253   9.954  0.6892  0.1631 -0.3699
  200MOL0     C26925  -0.235   9.222   9.889  0.4369 -0.0489 -0.0271
  200MOL0     C26926  -0.350   9.216   9.992  0.8593  0.4507  0.8056
  200MOL0     C26927  -0.391   9.068  10.035  0.6418 -0.7045 -0.7694
  200MOL0     C26928  -0.473   9.086  10.153 -0.4056  0.0853 -0.0047
  200MOL0     C26929  -0.512   9.102  10.267  0.9669  0.6862  0.1059
  200MOL0     C26930   0.188   9.361   9.779  0.3563  0.8645  0.1849
  200MOL0     C26931   0.321   9.380   9.801  0.2452  0.0106 -0.2068
  200MOL0     C26932   0.387   9.419   9.670  0.5083  1.1020 -0.0350
  200MOL0     H26933   0.691   9.629  10.011 -1.8313 -1.0360  1.1966
  200MOL0     H26934   0.853   9.750  10.129 -1.7248 -0.1497 -1.2053
  200MOL0     H26935   1.141   9.487  10.367 -2.3581 -0.5917  0.0753
  200MOL0     H26936   1.169   9.548  10.204  1.4772  0.5704  0.3516
  200MOL0     H26937   1.239   9.724  10.435  1.8167  1.3045 -0.3523
  200MOL0     H26938   1.234   9.767  10.265 -3.6909  0.3606  1.8161
  200MOL0     H26939   1.422   9.588  10.220 -0.9711 -1.3198  0.7575
  200MOL0     H26940   1.409   9.544  10.390 -1.5717 -1.8172 -0.9699
  200MOL0     H26941   1.483   9.815  10.272 -2.7413 -0.5221 -0.7019
  200MOL0     H26942   1.458   9.789  10.445 -0.1208  0.3432  0.4438
  200MOL0     H26943   1.641   9.618  10.440 -2.4200  0.5215  2.0837
  200MOL0     H26944   1.673   9.673  10.269 -0.4218  2.5854  0.0773
  200MOL0     H26945   1.713   9.896  10.344  3.0874  1.2427 -0.2289
  200MOL0     H26946   1.678   9.849  10.511 -2.9148 -0.4812 -1.3230
  200MOL0     H26947   1.913   9.752  10.340  0.1937 -1.3102  0.8923
  200MOL0     H26948   1.898   9.717  10.509 -0.4863 -0.7500  0.2125
  200MOL0     H26949   2.061   9.910  10.451  0.0933 -0.6633 -1.2102
  200MOL0     H26950   1.927  10.013  10.402  3.0057  2.2105  1.5472
  200MOL0     H26951   1.987   9.822  10.746 -0.8704 -0.6268 -1.7865
  200MOL0     H26952   1.858  10.092  11.007  0.5900  0.6915 -0.8553
  200MOL0     H26953   1.805   9.925  10.996  0.8584 -0.7386  0.2210
  200MOL0     H26954   2.046   9.860  10.967 -0.4340  0.4738  0.1792
  200MOL0     H26955   2.082  10.036  11.011 -0.9132  1.3232  2.1620
  200MOL0     H26956   1.920   9.823  11.153 -0.4566  0.2573 -2.5251
  200MOL0     H26957   1.916   9.981  11.210 -0.6825 -1.5381 -0.9423
  200MOL0     H26958   2.183   9.973  11.203 -3.2403  0.4156 -4.5933
  200MOL0     H26959   2.154   9.797  11.189 -1.3073  0.2434 -1.0527
  200MOL0     H26960   2.138   9.892  11.616 -0.7750 -0.8171  0.0481
  200MOL0     H26961   2.354   9.857  11.762  0.5405 -2.5693  1.1162
  200MOL0     H26962   2.572   9.848  12.044  0.9448 -0.9173  1.1238
  200MOL0     H26963   2.711   9.713  12.216 -0.8133 -3.6988 -0.5532
  200MOL0     H26964   2.999   9.775  12.210  2.2795  0.9123  0.6441
  200MOL0     H26965   2.925   9.676  12.343 -1.4067 -0.4733 -1.1508
  200MOL0     H26966   3.197   9.601  12.226 -1.4818 -0.0145 -1.5229
  200MOL0     H26967   3.178   9.725  12.344  1.4352  0.1735 -1.8475
  200MOL0     H26968   3.031   9.558  12.489  0.2322  0.2893 -1.1278
  200MOL0     H26969   3.074   9.430  12.377 -0.6705 -1.1569  3.4108
  200MOL0     H26970   3.267   9.599  12.563 -0.4238 -0.1937  1.7839
  200MOL0     H26971   3.325   9.504  12.427 -1.2390  1.4257 -0.4234
  200MOL0     H26972   3.255   9.297  12.521  0.2097 -0.8192  1.2679
  200MOL0     H26973   3.159   9.390  12.634 -0.1434 -0.6071 -0.4724
  200MOL0     H26974   3.391   9.282  12.709  3.2405 -0.1645 -0.2299
  200MOL0     H26975   3.462   9.399  12.599 -0.5179 -1.2885 -0.2452
  200MOL0     H26976   3.294   9.469  12.843 -0.9197  2.1196 -1.9247
  200MOL0     H26977   3.360   9.583  12.734 -1.9228 -0.3625 -0.8225
  200MOL0     H26978   3.550   9.368  12.862  3.4698  0.4845  2.2499
  200MOL0     H26979   3.591   9.527  12.811  0.0106 -1.3709 -0.2427
  200MOL0     H26980   2.933   9.539  11.901  0.9954  0.2068  3.1326
  200MOL0     H26981   2.803   9.638  11.744  0.5854 -2.6324 -0.7695
  200MOL0     H26982   2.567   9.812  11.397 -1.1294 -1.2165 -1.0140
  200MOL0     H26983   2.368   9.809  11.269 -2.8705  2.3062 -1.7883
  200MOL0     H26984   0.950   9.409  10.364  0.5631  2.2615  1.1362
  200MOL0     H26985   0.756   9.284  10.240 -0.6654  0.2164 -1.5555
  200MOL0     H26986   0.329   9.356  10.141  0.8864  0.0834 -0.5286
  200MOL0     H26987   0.095   9.283  10.092 -1.2659 -0.0252  0.0643
  200MOL0     H26988  -0.106   9.326  10.036 -0.0063 -3.3579  2.9831
  200MOL0     H26989  -0.056   9.159   9.990  2.3455  0.6310 -0.9875
  200MOL0     H26990  -0.233   9.122   9.845 -2.0547 -0.6778  1.1243
  200MOL0     H26991  -0.252   9.291   9.806  0.3479  2.7056  2.1286
  200MOL0     H26992  -0.440   9.241   9.937  0.7306 -0.5552  0.5270
  200MOL0     H26993  -0.341   9.283  10.077  0.4565  1.3939  0.1145
  200MOL0     H26994  -0.459   9.011   9.971 -2.6917 -0.2711  2.1143
  200MOL0     H26995  -0.301   9.012  10.063 -0.2198 -1.7525 -0.0210
  200MOL0     H26996  -0.546   9.132  10.364 -1.4115  1.7984 -0.9570
  200MOL0     H26997   0.133   9.366   9.685 -1.4628 -2.6737  0.9230
  200MOL0     H26998   0.477   9.359   9.659 -0.1102  0.0787  0.3358
  200MOL0     H26999   0.326   9.398   9.581 -0.2530  0.1045  0.6956
  200MOL0     H27000   0.414   9.525   9.672  0.5337  1.1044 -0.4413
  201MOL0     O27001   5.546   1.085   5.088 -0.4711  0.7325 -0.4838
  201MOL0     C27002   5.585   1.043   5.201 -0.5839  0.2984  0.2358
  201MOL0     O27003   5.506   0.972   5.286  0.0330 -0.2010 -0.5543
  201MOL0     C27004   5.374   0.980   5.260  0.5406 -0.5734  0.2032
  201MOL0     C27005   5.301   0.890   5.184 -0.1077 -0.0406  0.4736
  201MOL0     C27006   5.164   0.902   5.152 -1.0056 -0.7052  0.2501
  201MOL0     C27007   5.102   1.014   5.207  0.2909  0.5931  0.2553
  201MOL0     O27008   4.967   1.021   5.172 -0.3693 -0.1723 -0.5131
  201MOL0     C27009   4.879   1.054   5.280  0.7875 -0.0224 -0.0793
  201MOL0     C27010   4.740   1.015   5.216 -0.1885  0.4617 -0.2890
  201MOL0     C27011   4.618   1.034   5.310 -0.4209 -1.1227 -0.4352
  201MOL0     C27012   4.490   1.073   5.235  1.0766 -0.1232 -0.9665
  201MOL0     C27013   4.359   1.068   5.325  0.2038  0.5456 -0.6745
  201MOL0     C27014   4.234   1.111   5.259  1.2035 -0.1667 -0.1943
  201MOL0     C27015   4.105   1.087   5.337  0.2496 -0.5181 -0.2696
  201MOL0     C27016   3.997   1.019   5.247  0.3207 -0.0341 -0.6348
  201MOL0     N27017   3.954   1.091   5.121  0.9731 -0.2653 -0.6545
  201MOL0     C27018   3.999   1.070   4.992 -0.2381  0.5361 -0.2688
  201MOL0     C27019   3.917   1.135   4.906  0.2240 -0.1319 -0.0746
  201MOL0     C27020   3.929   1.162   4.759  0.6195  0.4580  0.3285
  201MOL0     C27021   4.063   1.155   4.691 -0.6020  0.2949  0.5614
  201MOL0     C27022   4.059   1.203   4.542  1.1517 -0.8569  0.3325
  201MOL0     C27023   4.060   1.356   4.541 -0.7061  0.0190 -0.1230
  201MOL0     O27024   4.186   1.405   4.596  0.1007 -0.4052 -0.1381
  201MOL0     C27025   4.299   1.422   4.520 -0.8353  0.4763  0.5153
  201MOL0     C27026   4.422   1.446   4.593  0.4016 -0.3861  1.1842
  201MOL0     C27027   4.539   1.436   4.526 -0.0536 -1.2191  0.1644
  201MOL0     C27028   4.541   1.419   4.388 -1.0780 -0.1111 -0.1471
  201MOL0     C27029   4.672   1.395   4.325 -0.5802 -0.1469 -0.7182
  201MOL0     O27030   4.783   1.453   4.385 -0.2519 -0.1250  1.1036
  201MOL0     C27031   4.904   1.447   4.310 -0.4902 -0.1823 -0.0589
  201MOL0     C27032   4.977   1.559   4.278  0.4552  0.3547  0.6904
  201MOL0     C27033   5.114   1.555   4.253  0.2925 -0.3628  0.1581
  201MOL0     C27034   5.180   1.428   4.238 -0.7290  0.6225 -0.5319
  201MOL0     O27035   5.302   1.424   4.185 -0.6416 -0.8967  0.2850
  201MOL0     C27036   5.393   1.316   4.238  0.2156  0.0996 -0.1257
  201MOL0     C27037   5.528   1.382   4.281 -0.2955 -0.3608 -0.4076
  201MOL0     C27038   5.601   1.451   4.168 -0.0944 -0.7850  0.1498
  201MOL0     C27039   5.734   1.522   4.204  0.0654  0.1239 -0.2779
  201MOL0     C27040   5.843   1.422   4.237 -0.1751 -0.2223  0.4419
  201MOL0     C27041   5.970   1.494   4.234  0.7400 -0.2557  0.4080
  201MOL0     C27042   6.083   1.415   4.292 -0.1154 -0.4493 -0.3318
  201MOL0     C27043   6.222   1.455   4.258  0.1005  0.6960 -0.1321
  201MOL0    Cl27044   6.242   1.620   4.318 -0.3336 -0.5199 -0.1378
  201MOL0     C27045   5.103   1.305   4.253 -0.2273  0.3282  1.0900
  201MOL0     C27046   4.962   1.318   4.286 -0.7142 -0.1893  0.0977
  201MOL0     O27047   4.674   1.333   4.223  0.2965 -0.1580 -0.0246
  201MOL0     C27048   4.430   1.407   4.313  0.2070  0.2730  0.7620
  201MOL0     C27049   4.304   1.417   4.375 -0.1291  0.7201 -0.4064
  201MOL0     N27050   3.815   1.197   4.981  0.1235 -0.2614  0.2861
  201MOL0     N27051   3.844   1.169   5.109  0.1666 -1.0634  0.1219
  201MOL0     C27052   5.170   1.113   5.280  0.2695  0.1939  0.1801
  201MOL0     C27053   5.311   1.094   5.308 -0.1564  0.1669  0.3372
  201MOL0     C27054   5.726   1.055   5.246  0.7107 -0.3876 -0.0721
  201MOL0     C27055   5.799   0.942   5.295 -0.0212 -0.0253 -0.2243
  201MOL0     C27056   5.929   0.947   5.324 -0.8529  0.5723  0.0895
  201MOL0     C27057   6.006   1.063   5.307 -0.4891 -0.6312  0.3003
  201MOL0     O27058   6.140   1.079   5.334  0.0661 -0.5082 -0.4800
  201MOL0     C27059   6.219   0.963   5.361  0.5293 -0.3079  0.0625
  201MOL0     C27060   6.254   0.877   5.242  0.7366  0.4959 -0.0071
  201MOL0     C27061   6.340   0.753   5.280 -0.1251  0.3781 -0.5611
  201MOL0     C27062   6.487   0.799   5.286  0.0256 -0.1277  0.9217
  201MOL0     C27063   6.586   0.688   5.282 -0.1718  0.0590  0.7512
  201MOL0     C27064   6.649   0.588   5.284  0.5423  0.7227 -0.3625
  201MOL0     C27065   5.938   1.183   5.264  0.4877  0.6550  0.0844
  201MOL0     C27066   5.802   1.181   5.242  1.2138 -0.0907 -0.0218
  201MOL0     C27067   5.738   1.316   5.224 -0.2613  0.6858  0.3813
  201MOL0     H27068   5.353   0.810   5.132 -1.9232 -1.6076  0.9530
  201MOL0     H27069   5.114   0.834   5.083  2.0701 -1.4889 -1.3873
  201MOL0     H27070   4.902   0.995   5.369 -2.6127  1.6201  2.1000
  201MOL0     H27071   4.882   1.159   5.312  1.0117 -0.7813  2.6198
  201MOL0     H27072   4.744   0.911   5.184  1.0471  1.2167 -2.8075
  201MOL0     H27073   4.719   1.075   5.127  0.3716 -1.9390 -2.1423
  201MOL0     H27074   4.643   1.105   5.389 -0.9658 -0.3329 -0.9664
  201MOL0     H27075   4.602   0.943   5.369  0.8677 -0.0611  1.6658
  201MOL0     H27076   4.498   1.173   5.191 -0.4695  0.7757  0.6833
  201MOL0     H27077   4.480   1.002   5.152 -1.9544  3.0291 -3.6059
  201MOL0     H27078   4.341   0.966   5.362 -3.2106  0.0875 -3.1232
  201MOL0     H27079   4.372   1.142   5.404 -2.5450  1.7454 -1.2348
  201MOL0     H27080   4.237   1.218   5.235 -2.2171 -0.4447 -2.4876
  201MOL0     H27081   4.225   1.055   5.165 -0.0953  0.1091 -0.2438
  201MOL0     H27082   4.065   1.180   5.377 -0.5163 -0.3896 -1.2943
  201MOL0     H27083   4.118   1.029   5.429 -1.7117  2.7951  2.2878
  201MOL0     H27084   4.037   0.919   5.229  1.3988 -0.3623  2.8344
  201MOL0     H27085   3.904   1.005   5.303  0.9085 -0.2574  0.3129
  201MOL0     H27086   4.084   1.011   4.958 -2.3627 -0.5850 -4.3060
  201MOL0     H27087   3.865   1.094   4.702 -0.2230  0.3481  1.3790
  201MOL0     H27088   3.895   1.265   4.743  1.5810  1.1244  2.1928
  201MOL0     H27089   4.137   1.212   4.747  0.5017 -3.1749  2.9530
  201MOL0     H27090   4.095   1.050   4.691 -2.5329 -0.4019 -1.5435
  201MOL0     H27091   3.970   1.167   4.488  1.0896 -1.8935  1.0926
  201MOL0     H27092   4.143   1.164   4.484  0.5218  2.5522 -3.3123
  201MOL0     H27093   3.983   1.389   4.612 -0.7028 -0.7125  0.2350
  201MOL0     H27094   4.049   1.402   4.443  3.8407  0.1254 -0.7755
  201MOL0     H27095   4.414   1.454   4.701  1.1351 -2.0884  1.4046
  201MOL0     H27096   4.624   1.454   4.591  2.3899  0.3295 -3.1613
  201MOL0     H27097   4.934   1.658   4.278  1.0087  0.6246 -0.8320
  201MOL0     H27098   5.159   1.650   4.226  0.0183  1.0910  4.1375
  201MOL0     H27099   5.355   1.272   4.330  1.0696 -1.9861 -0.7256
  201MOL0     H27100   5.409   1.234   4.168  0.0327 -1.8323  1.9902
  201MOL0     H27101   5.497   1.457   4.355  0.5962 -1.9284  1.6427
  201MOL0     H27102   5.595   1.308   4.325 -0.5168 -1.2790 -1.5554
  201MOL0     H27103   5.628   1.379   4.090 -2.9166 -2.2095  0.3424
  201MOL0     H27104   5.532   1.525   4.125  2.1099  1.8886  0.9633
  201MOL0     H27105   5.715   1.588   4.290  3.0631 -1.3309  1.7009
  201MOL0     H27106   5.765   1.573   4.113 -1.3522 -1.8535 -1.9514
  201MOL0     H27107   5.843   1.341   4.164 -0.2900  2.0300 -2.2214
  201MOL0     H27108   5.821   1.390   4.339 -1.4591 -3.1665 -0.6663
  201MOL0     H27109   5.995   1.505   4.128  2.2037 -1.2929  0.6012
  201MOL0     H27110   5.957   1.589   4.286  1.9386 -0.2078  0.6516
  201MOL0     H27111   6.065   1.310   4.269  1.0785 -0.1962 -2.6928
  201MOL0     H27112   6.066   1.423   4.400 -1.0091 -0.8382 -0.4313
  201MOL0     H27113   6.287   1.388   4.315  0.1125 -0.4999 -1.5049
  201MOL0     H27114   6.250   1.440   4.154 -3.1324  0.5390 -1.1092
  201MOL0     H27115   5.149   1.213   4.220  1.8821  1.6751 -0.0088
  201MOL0     H27116   4.896   1.233   4.296 -0.6255 -0.7274 -2.9978
  201MOL0     H27117   4.430   1.399   4.205  1.1935  1.4211  0.6600
  201MOL0     H27118   4.209   1.402   4.324 -1.2252  1.2027  1.3792
  201MOL0     H27119   5.120   1.206   5.305  1.1412  0.9678 -0.8318
  201MOL0     H27120   5.365   1.174   5.358 -1.5176 -0.0009  2.1922
  201MOL0     H27121   5.744   0.848   5.297 -1.1591  0.6322 -0.4183
  201MOL0     H27122   5.979   0.859   5.363 -1.3362 -0.6728 -1.9326
  201MOL0     H27123   6.171   0.902   5.439  0.5328 -2.1860 -1.3305
  201MOL0     H27124   6.311   0.991   5.414  1.5745 -3.1289 -0.0561
  201MOL0     H27125   6.311   0.937   5.170 -0.5611  2.9329  0.8682
  201MOL0     H27126   6.170   0.842   5.181 -1.1578  3.3440  0.7410
  201MOL0     H27127   6.314   0.681   5.202 -1.8851 -0.9361  1.1539
  201MOL0     H27128   6.309   0.717   5.378 -2.5756 -0.1863 -1.4812
  201MOL0     H27129   6.510   0.866   5.202 -0.8996  2.0519  2.3217
  201MOL0     H27130   6.499   0.865   5.372  0.8622  1.1937 -0.1717
  201MOL0     H27131   6.700   0.494   5.289  2.1248  1.5352 -0.5150
  201MOL0     H27132   5.993   1.276   5.253  1.1304  0.4709  1.4424
  201MOL0     H27133   5.748   1.340   5.117  1.9280 -0.9645  0.1402
  201MOL0     H27134   5.637   1.327   5.263 -1.2488 -0.3390 -1.7074
  201MOL0     H27135   5.796   1.390   5.280  2.8193 -0.0140 -1.6128
  202MOL0     O27136   4.550   9.740   4.955  0.5211  0.0688  0.2337
  202MOL0     C27137   4.528   9.671   4.859 -0.5713 -1.4239 -0.2704
  202MOL0     O27138   4.617   9.577   4.810  0.4042 -1.1802  0.6023
  202MOL0     C27139   4.725   9.531   4.879 -0.9687 -1.3508  0.3200
  202MOL0     C27140   4.852   9.579   4.858  0.2438 -0.4484  0.0185
  202MOL0     C27141   4.954   9.545   4.951 -0.6234 -0.9328 -0.0311
  202MOL0     C27142   4.937   9.446   5.048  0.8184 -0.8165 -1.0076
  202MOL0     O27143   5.038   9.414   5.143 -0.2575 -0.3672 -0.0837
  202MOL0     C27144   5.171   9.391   5.097 -0.6542 -0.4896  0.6776
  202MOL0     C27145   5.267   9.523   5.105  0.3658  0.0226 -0.1893
  202MOL0     C27146   5.401   9.497   5.161  0.8987 -0.3283 -0.9908
  202MOL0     C27147   5.492   9.624   5.157  0.3894  0.9106 -0.8859
  202MOL0     C27148   5.643   9.596   5.197 -0.1980 -0.1996  0.5324
  202MOL0     C27149   5.727   9.723   5.189  0.5237 -0.5920 -0.3483
  202MOL0     C27150   5.875   9.691   5.209 -0.1926 -0.7214 -1.0019
  202MOL0     C27151   5.950   9.786   5.305  0.1824 -0.5839  0.5519
  202MOL0     N27152   6.088   9.811   5.260  0.8464 -0.1274 -0.2569
  202MOL0     C27153   6.202   9.812   5.334  0.1703  0.2091 -0.0361
  202MOL0     C27154   6.301   9.884   5.265  0.0605  1.5074 -0.0983
  202MOL0     C27155   6.448   9.907   5.289  0.2683 -0.7035  0.2865
  202MOL0     C27156   6.482  10.066   5.275  0.4226  0.4465 -0.9235
  202MOL0     C27157   6.636  10.087   5.275  0.3857  0.0562  0.2460
  202MOL0     C27158   6.686  10.229   5.271  0.2415 -0.2956 -0.7768
  202MOL0     O27159   6.828  10.231   5.273 -0.3191  0.2245 -0.2901
  202MOL0     C27160   6.902  10.328   5.216 -0.0533  0.5399 -0.1175
  202MOL0     C27161   7.037  10.309   5.210 -0.0378 -0.1002 -0.5873
  202MOL0     C27162   7.130  10.402   5.168  0.7893  0.4445 -0.1714
  202MOL0     C27163   7.082  10.520   5.120  0.1808 -0.4274  0.1972
  202MOL0     C27164   7.178  10.618   5.067  0.7117 -0.1034  0.2468
  202MOL0     O27165   7.313  10.586   5.070 -0.1609 -0.0131 -0.0014
  202MOL0     C27166   7.398  10.688   5.031  0.1323  1.0350 -0.1650
  202MOL0     C27167   7.391  10.757   4.907  0.1599 -0.1470  0.2201
  202MOL0     C27168   7.488  10.858   4.885  0.3200  0.2423  1.3783
  202MOL0     C27169   7.585  10.897   4.977 -0.6412  0.0226 -0.6503
  202MOL0     O27170   7.672  11.001   4.949 -0.7831 -0.3999  0.0570
  202MOL0     C27171   7.727  11.068   5.064 -0.4995 -0.1600  0.6449
  202MOL0     C27172   7.828  11.170   5.018 -0.1240 -0.3720  0.1510
  202MOL0     C27173   7.934  11.106   4.937 -0.7967  0.5302 -0.1912
  202MOL0     C27174   7.993  10.971   5.002 -0.3568 -0.0180  0.6268
  202MOL0     C27175   8.124  10.938   4.927 -0.5284 -0.0601 -0.1128
  202MOL0     C27176   8.178  10.788   4.956  0.1954 -0.0243 -0.7478
  202MOL0     C27177   8.193  10.759   5.107  0.2221  0.4925  0.2652
  202MOL0     C27178   8.298  10.665   5.135 -0.3697 -0.2691 -0.3477
  202MOL0    Cl27179   8.451  10.759   5.149 -0.0100  0.7844  0.1621
  202MOL0     C27180   7.585  10.816   5.095  0.1600 -0.0756  0.0643
  202MOL0     C27181   7.493  10.713   5.124  0.5468 -0.0402  0.1993
  202MOL0     O27182   7.130  10.724   5.026 -0.0706  0.1800 -0.0160
  202MOL0     C27183   6.950  10.548   5.114 -0.1650  1.2031 -0.0396
  202MOL0     C27184   6.859  10.455   5.177  0.2956 -0.6250  0.7509
  202MOL0     N27185   6.233   9.922   5.146 -0.0010  0.1968 -0.7800
  202MOL0     N27186   6.119   9.863   5.141 -0.8469 -0.0401  0.2062
  202MOL0     C27187   4.817   9.380   5.057  0.2673  0.7103  0.4098
  202MOL0     C27188   4.717   9.424   4.973 -0.4318 -0.4132  0.0467
  202MOL0     C27189   4.386   9.672   4.803 -0.3040 -0.1741 -0.1070
  202MOL0     C27190   4.352   9.578   4.698 -0.8385 -0.6108  0.1451
  202MOL0     C27191   4.234   9.566   4.626 -0.2366  0.3314  0.4505
  202MOL0     C27192   4.138   9.657   4.647 -0.3240 -0.3057  0.7678
  202MOL0     O27193   4.019   9.623   4.581  0.1369  0.1458 -0.3050
  202MOL0     C27194   3.907   9.705   4.620 -0.1928 -0.4686  0.2867
  202MOL0     C27195   3.763   9.650   4.588 -0.8243 -0.0885 -0.1856
  202MOL0     C27196   3.757   9.510   4.643 -0.1078  0.4806  0.7646
  202MOL0     C27197   3.607   9.471   4.649 -0.0822 -0.7202 -0.7101
  202MOL0     C27198   3.550   9.439   4.516  0.5318  0.4472  0.3089
  202MOL0     C27199   3.488   9.411   4.412 -1.3345 -0.9491  0.1630
  202MOL0     C27200   4.167   9.763   4.744  0.9110  0.4379 -0.8098
  202MOL0     C27201   4.283   9.769   4.819 -0.4878  0.2019 -0.5907
  202MOL0     C27202   4.281   9.865   4.940 -0.4260  0.0322  0.4236
  202MOL0     H27203   4.860   9.661   4.788 -1.9990  2.4277  2.8538
  202MOL0     H27204   5.047   9.600   4.943 -1.7015  0.9762  0.0382
  202MOL0     H27205   5.219   9.309   5.151 -1.1833 -0.9665  0.4355
  202MOL0     H27206   5.153   9.364   4.992 -3.0540  3.5223 -0.1891
  202MOL0     H27207   5.216   9.591   5.173  0.2048  0.7659 -1.0354
  202MOL0     H27208   5.272   9.571   5.007  0.0828  0.4201 -0.0115
  202MOL0     H27209   5.431   9.416   5.094 -0.0411 -0.2557 -1.5154
  202MOL0     H27210   5.394   9.467   5.266 -0.0416  0.4563 -0.8155
  202MOL0     H27211   5.479   9.665   5.056  3.2966 -1.2211 -2.2739
  202MOL0     H27212   5.446   9.702   5.219  1.4372  1.9521 -1.3838
  202MOL0     H27213   5.638   9.556   5.299  0.6108  0.9973  1.0695
  202MOL0     H27214   5.679   9.534   5.114  0.4938  1.0646 -0.1422
  202MOL0     H27215   5.718   9.767   5.089 -1.4674  2.7667  1.1486
  202MOL0     H27216   5.684   9.795   5.259  0.3042  0.5190 -1.5828
  202MOL0     H27217   5.920   9.700   5.110 -3.2047 -1.2619 -2.5408
  202MOL0     H27218   5.890   9.585   5.232  1.3168 -0.3356 -0.0541
  202MOL0     H27219   5.900   9.884   5.307  2.9529  0.9229  0.1353
  202MOL0     H27220   5.965   9.749   5.406 -0.5630  2.5638  1.9525
  202MOL0     H27221   6.222   9.765   5.430 -1.4539 -1.4606 -0.4534
  202MOL0     H27222   6.479   9.878   5.389 -1.3442 -0.0488  1.0162
  202MOL0     H27223   6.500   9.848   5.213 -2.2472 -1.8458 -0.6695
  202MOL0     H27224   6.434  10.091   5.179 -0.3342 -0.1988 -0.7291
  202MOL0     H27225   6.432  10.123   5.353  1.4737  1.0779 -0.6925
  202MOL0     H27226   6.680  10.037   5.188 -1.5673 -1.9205  0.3104
  202MOL0     H27227   6.677  10.042   5.366 -2.3110 -2.4244  0.3857
  202MOL0     H27228   6.657  10.285   5.360  2.4073 -0.6711  0.2477
  202MOL0     H27229   6.649  10.277   5.180  0.8786  0.1558 -0.8043
  202MOL0     H27230   7.071  10.213   5.249 -0.3241  0.1558  0.3021
  202MOL0     H27231   7.235  10.375   5.163  1.3324  2.3903  0.0573
  202MOL0     H27232   7.313  10.741   4.833  1.0560  1.5009 -1.1276
  202MOL0     H27233   7.474  10.905   4.788 -0.6779 -0.8598  0.9549
  202MOL0     H27234   7.645  11.111   5.122 -2.1244 -0.8490 -1.0411
  202MOL0     H27235   7.782  10.993   5.122 -0.3395 -1.6216 -1.2888
  202MOL0     H27236   7.774  11.239   4.954 -0.4363 -0.1404  0.6548
  202MOL0     H27237   7.879  11.218   5.102  2.4670 -0.5177 -1.2371
  202MOL0     H27238   7.905  11.088   4.833  1.4259  1.8660 -1.0968
  202MOL0     H27239   8.007  11.187   4.938  0.7955 -0.7460  3.4023
  202MOL0     H27240   7.922  10.888   5.004 -0.4426  0.0604  2.2033
  202MOL0     H27241   8.023  10.999   5.103 -1.7085 -2.1810  1.7088
  202MOL0     H27242   8.204  11.008   4.951  1.1115 -2.2602  1.1598
  202MOL0     H27243   8.117  10.952   4.818 -2.7533  0.2213  0.0245
  202MOL0     H27244   8.117  10.712   4.909  0.5690 -1.0119  0.3054
  202MOL0     H27245   8.272  10.770   4.902  0.1700 -2.9594  0.0477
  202MOL0     H27246   8.100  10.713   5.140 -0.2571 -0.3215 -2.0373
  202MOL0     H27247   8.226  10.851   5.156 -0.4201  0.6228  0.4607
  202MOL0     H27248   8.286  10.621   5.234 -0.2967 -1.5358 -0.8810
  202MOL0     H27249   8.300  10.575   5.072 -2.1541 -1.0359  0.6159
  202MOL0     H27250   7.663  10.843   5.165  2.5933 -1.4765 -1.9181
  202MOL0     H27251   7.498  10.657   5.217  2.6114  1.4751  1.0740
  202MOL0     H27252   6.913  10.643   5.077 -0.4427  0.9909 -0.3026
  202MOL0     H27253   6.755  10.484   5.182  0.6286  1.0169 -0.5790
  202MOL0     H27254   4.801   9.289   5.113  0.7873 -0.5035 -1.2997
  202MOL0     H27255   4.615   9.387   4.979 -1.9683  3.4551  0.7085
  202MOL0     H27256   4.418   9.503   4.655  0.6115  1.5326 -1.6316
  202MOL0     H27257   4.217   9.486   4.554 -1.9730  1.6336 -0.6559
  202MOL0     H27258   3.904   9.808   4.585 -0.9673 -0.4961  0.2370
  202MOL0     H27259   3.914   9.703   4.729  4.1318 -2.4417  0.1681
  202MOL0     H27260   3.747   9.650   4.480  2.4843  5.1193 -1.0333
  202MOL0     H27261   3.687   9.717   4.630 -0.7850 -0.9732  1.3903
  202MOL0     H27262   3.796   9.509   4.745  1.0029 -0.2270  0.3445
  202MOL0     H27263   3.815   9.440   4.583  1.8533  2.8959 -0.3357
  202MOL0     H27264   3.604   9.379   4.708  1.3221 -0.5267 -0.2877
  202MOL0     H27265   3.552   9.557   4.689  0.5601 -1.0730  1.0069
  202MOL0     H27266   3.461   9.384   4.312  0.3725  0.3209 -0.7115
  202MOL0     H27267   4.089   9.836   4.761 -1.1661 -1.7792 -0.2843
  202MOL0     H27268   4.333   9.823   5.027 -4.3216 -2.7673  1.7391
  202MOL0     H27269   4.315   9.965   4.913 -0.4146  0.4952  2.0314
  202MOL0     H27270   4.177   9.883   4.970 -0.3756  0.1468  0.5266
  203MOL0     O27271   9.554   3.732   4.992 -0.1340  0.2924  0.2696
  203MOL0     C27272   9.469   3.645   4.983 -0.7333  0.8277  0.6930
  203MOL0     O27273   9.502   3.511   4.987  0.0810 -0.3879 -0.0392
  203MOL0     C27274   9.622   3.473   5.031  0.0241 -0.6397 -1.1728
  203MOL0     C27275   9.741   3.496   4.960  0.4803 -0.0068 -0.0305
  203MOL0     C27276   9.867   3.448   4.999 -0.8081  0.0480  0.4836
  203MOL0     C27277   9.878   3.372   5.113  0.0457 -0.1439 -0.2908
  203MOL0     O27278  10.008   3.322   5.127 -0.4851 -0.1306  0.3917
  203MOL0     C27279  10.035   3.233   5.236  0.5430  0.4045  0.2297
  203MOL0     C27280  10.078   3.296   5.360 -0.2609  0.9284  0.7496
  203MOL0     C27281  10.228   3.343   5.354 -0.1430 -1.1158  0.2145
  203MOL0     C27282  10.265   3.435   5.468  0.5061  0.9580 -0.3533
  203MOL0     C27283  10.418   3.427   5.476  0.3834  0.5481 -0.6442
  203MOL0     C27284  10.484   3.546   5.545 -0.7372 -0.3332  0.3238
  203MOL0     C27285  10.631   3.569   5.518  0.2478  0.0192  0.0803
  203MOL0     C27286  10.717   3.463   5.581 -0.2608  0.1903  0.1180
  203MOL0     N27287  10.862   3.500   5.571  0.5116  0.4351  0.5570
  203MOL0     C27288  10.950   3.476   5.465  1.3884 -0.5174 -0.2122
  203MOL0     C27289  11.060   3.555   5.504  0.4795 -0.8762 -0.2134
  203MOL0     C27290  11.181   3.546   5.410  0.0817  0.6884 -0.3539
  203MOL0     C27291  11.312   3.621   5.454  0.4841  0.1016 -0.5481
  203MOL0     C27292  11.378   3.549   5.573 -1.1260 -1.2465  0.1896
  203MOL0     C27293  11.504   3.629   5.626 -1.0208  0.5267  0.9237
  203MOL0     O27294  11.603   3.639   5.523 -0.6580 -0.7969  0.2320
  203MOL0     C27295  11.732   3.685   5.564 -0.2008  0.3971  0.9676
  203MOL0     C27296  11.772   3.719   5.701  0.1466  0.1908  1.0128
  203MOL0     C27297  11.905   3.766   5.730  0.8344  0.1251 -0.0896
  203MOL0     C27298  11.990   3.781   5.615 -0.1582 -0.5944 -0.3024
  203MOL0     C27299  12.138   3.812   5.641  0.2538  0.0528 -0.6931
  203MOL0     O27300  12.178   3.871   5.754 -0.2742  0.2443 -0.2625
  203MOL0     C27301  12.308   3.917   5.756  0.0244  1.0116  0.1076
  203MOL0     C27302  12.335   4.025   5.666 -0.1359 -0.8878 -0.4652
  203MOL0     C27303  12.458   4.089   5.671 -0.4597  0.7130  0.4305
  203MOL0     C27304  12.565   4.045   5.751 -0.2694  0.4306  0.6912
  203MOL0     O27305  12.689   4.090   5.719 -0.9291  0.7371 -0.5444
  203MOL0     C27306  12.796   4.086   5.816 -0.1765 -0.2976  0.1963
  203MOL0     C27307  12.783   4.211   5.910  0.4141  0.2348 -0.4433
  203MOL0     C27308  12.905   4.219   6.001 -0.4078 -0.0774  0.8590
  203MOL0     C27309  13.027   4.282   5.935 -0.6338  0.3911 -0.3897
  203MOL0     C27310  13.096   4.372   6.047 -0.1157 -0.4897  0.2854
  203MOL0     C27311  13.232   4.425   5.995  0.6489  0.0946  0.0056
  203MOL0     C27312  13.281   4.538   6.087 -0.5966 -0.0033  0.2637
  203MOL0     C27313  13.283   4.488   6.227 -1.3260 -0.5590 -0.2600
  203MOL0    Cl27314  13.382   4.594   6.331  0.6450 -0.3460  0.0965
  203MOL0     C27315  12.539   3.934   5.841  0.0388 -0.1686 -0.8025
  203MOL0     C27316  12.411   3.878   5.847  0.6237  0.0682 -0.1284
  203MOL0     O27317  12.215   3.791   5.550 -0.1271 -0.1558  0.0704
  203MOL0     C27318  11.951   3.748   5.480 -0.0443 -0.3778 -0.1799
  203MOL0     C27319  11.824   3.695   5.458  0.4320  0.1444  0.6354
  203MOL0     N27320  11.039   3.613   5.625  0.0141  0.2916 -0.0618
  203MOL0     N27321  10.924   3.576   5.663  0.3164  0.4240  1.5156
  203MOL0     C27322   9.759   3.352   5.191 -0.1250 -0.1839 -0.4361
  203MOL0     C27323   9.639   3.401   5.148 -0.4098  0.0123 -1.0392
  203MOL0     C27324   9.320   3.680   5.005 -0.4077 -0.0282  0.4659
  203MOL0     C27325   9.235   3.594   5.069 -0.5593  0.3556  0.6589
  203MOL0     C27326   9.106   3.639   5.090  0.6511 -0.1516  0.0530
  203MOL0     C27327   9.057   3.766   5.058 -0.0930  0.2767 -0.5633
  203MOL0     O27328   8.931   3.796   5.109 -0.5247  0.5116 -0.5430
  203MOL0     C27329   8.869   3.918   5.061  0.3464 -0.1527  0.5421
  203MOL0     C27330   8.723   3.897   5.051  0.2182 -0.2600  0.1044
  203MOL0     C27331   8.678   3.778   4.963  0.3199  0.3194  0.2612
  203MOL0     C27332   8.742   3.766   4.826  0.7522  0.4921  0.2694
  203MOL0     C27333   8.664   3.668   4.750  0.7523  0.5105 -0.6261
  203MOL0     C27334   8.587   3.577   4.706 -0.1524 -0.8313  0.5479
  203MOL0     C27335   9.139   3.858   4.986  0.4211 -0.0985 -0.4903
  203MOL0     C27336   9.276   3.810   4.962  0.8470  0.2694  0.0512
  203MOL0     C27337   9.358   3.915   4.886 -0.2506  0.2793  0.1518
  203MOL0     H27338   9.713   3.559   4.875 -1.7665  0.5159  1.0127
  203MOL0     H27339   9.952   3.469   4.936 -1.4489 -1.2484 -0.8796
  203MOL0     H27340   9.947   3.171   5.258 -0.0332  0.2612 -2.2645
  203MOL0     H27341  10.110   3.163   5.197 -0.9067 -0.4894 -1.0303
  203MOL0     H27342  10.059   3.225   5.442  0.1366  1.2782  1.1559
  203MOL0     H27343  10.011   3.377   5.389 -0.1558  1.6459 -0.9042
  203MOL0     H27344  10.250   3.394   5.260  0.8028  0.9295  1.4856
  203MOL0     H27345  10.284   3.249   5.362 -0.2475 -1.1152  1.0586
  203MOL0     H27346  10.209   3.528   5.451  1.3172  1.6002  0.3895
  203MOL0     H27347  10.235   3.402   5.568 -0.8731  3.3746  0.1089
  203MOL0     H27348  10.442   3.339   5.537 -1.0935 -0.3710 -1.3210
  203MOL0     H27349  10.456   3.405   5.376  0.6102 -0.7094 -0.3000
  203MOL0     H27350  10.446   3.638   5.499  2.5775  1.0425  0.0395
  203MOL0     H27351  10.478   3.556   5.653  3.6368  0.0093  0.7135
  203MOL0     H27352  10.675   3.662   5.556  2.8003 -1.1568  0.1990
  203MOL0     H27353  10.656   3.578   5.412 -3.0157  0.1854 -0.7795
  203MOL0     H27354  10.676   3.456   5.682 -2.7476 -0.5487 -0.8554
  203MOL0     H27355  10.716   3.363   5.536  0.2872  0.8262 -1.4009
  203MOL0     H27356  10.937   3.417   5.375 -1.7272  1.5480 -1.2440
  203MOL0     H27357  11.204   3.441   5.396  1.7474  1.0371 -0.4010
  203MOL0     H27358  11.150   3.571   5.308 -1.9036  1.3479  0.3587
  203MOL0     H27359  11.383   3.653   5.377  2.1597 -0.8642  0.5340
  203MOL0     H27360  11.272   3.712   5.500 -1.0781 -1.4097  1.2708
  203MOL0     H27361  11.408   3.446   5.553  1.7593 -0.3909 -0.3921
  203MOL0     H27362  11.298   3.546   5.647 -0.1024  2.8768  1.7593
  203MOL0     H27363  11.546   3.585   5.717  3.8507 -0.9602 -1.6656
  203MOL0     H27364  11.483   3.735   5.646  2.4739  1.6575 -0.5060
  203MOL0     H27365  11.704   3.707   5.785 -2.8730  2.8248 -0.8580
  203MOL0     H27366  11.943   3.787   5.829  0.6393 -0.4403  0.1069
  203MOL0     H27367  12.253   4.046   5.598 -0.1791  0.9855  0.1092
  203MOL0     H27368  12.489   4.171   5.608 -0.0472  2.6235  2.9806
  203MOL0     H27369  12.797   3.994   5.875  1.7113  2.0180  4.1920
  203MOL0     H27370  12.897   4.092   5.774 -0.4394  1.1704 -0.2682
  203MOL0     H27371  12.781   4.290   5.834  0.4418  0.6138 -0.0564
  203MOL0     H27372  12.696   4.216   5.976 -0.6826 -0.5471 -1.7745
  203MOL0     H27373  12.889   4.267   6.098  2.2176 -0.2487  1.4659
  203MOL0     H27374  12.939   4.120   6.031 -0.7292 -0.7924 -1.0251
  203MOL0     H27375  12.997   4.339   5.846 -2.3714 -2.1010 -1.4972
  203MOL0     H27376  13.093   4.203   5.898  0.1844  0.7696  0.2229
  203MOL0     H27377  13.128   4.300   6.124  0.3905  0.3366  0.8592
  203MOL0     H27378  13.028   4.450   6.084  0.4635 -0.6571  1.7636
  203MOL0     H27379  13.300   4.340   5.990 -3.5276 -3.5787 -3.1441
  203MOL0     H27380  13.223   4.463   5.892  0.5669  2.9862  0.9712
  203MOL0     H27381  13.214   4.624   6.083 -1.3502 -0.4208  2.4642
  203MOL0     H27382  13.382   4.576   6.067 -1.6050  2.1069 -1.2397
  203MOL0     H27383  13.178   4.481   6.257 -1.2400  1.4213  0.6987
  203MOL0     H27384  13.341   4.395   6.227  0.1019  0.2129  2.6191
  203MOL0     H27385  12.607   3.893   5.915  2.1077  1.7422 -1.5333
  203MOL0     H27386  12.394   3.806   5.926  0.6432  2.0723  1.8124
  203MOL0     H27387  12.010   3.763   5.391 -1.9625  3.9962 -0.9709
  203MOL0     H27388  11.791   3.662   5.360 -0.2382  1.8978  0.2179
  203MOL0     H27389   9.759   3.292   5.282  1.2517  1.7226  0.9122
  203MOL0     H27390   9.554   3.381   5.212 -0.6262  1.7704 -0.7182
  203MOL0     H27391   9.255   3.496   5.113  0.5919 -0.6105 -1.8342
  203MOL0     H27392   9.043   3.584   5.160  0.0499  1.3454  0.7144
  203MOL0     H27393   8.901   3.935   4.957  2.1665 -0.2776  1.0408
  203MOL0     H27394   8.905   4.005   5.117  0.1169  1.3753 -1.5606
  203MOL0     H27395   8.673   3.984   5.006  0.8770 -0.1383 -0.4082
  203MOL0     H27396   8.677   3.899   5.150  1.8623 -2.9759  1.0375
  203MOL0     H27397   8.569   3.779   4.954 -0.0245 -2.5010  2.6789
  203MOL0     H27398   8.699   3.689   5.023  0.5490 -1.8059 -2.7544
  203MOL0     H27399   8.736   3.866   4.782 -4.4289  0.7458  0.9361
  203MOL0     H27400   8.843   3.723   4.831  0.3044 -1.2862 -3.0554
  203MOL0     H27401   8.518   3.511   4.658  1.2298 -1.2894 -0.9180
  203MOL0     H27402   9.120   3.963   4.970 -1.1184  0.7178  4.7690
  203MOL0     H27403   9.396   3.981   4.965 -1.0706 -1.5646  2.1969
  203MOL0     H27404   9.435   3.880   4.817 -0.0102  1.9539 -0.4666
  203MOL0     H27405   9.293   3.977   4.824 -0.5348 -1.5990 -1.4964
  204MOL0     O27406   2.469   3.327   8.444 -0.1366 -0.4818  0.1483
  204MOL0     C27407   2.427   3.242   8.521  0.1006 -0.1737  0.3394
  204MOL0     O27408   2.497   3.132   8.579  0.2183  0.5343  0.7344
  204MOL0     C27409   2.619   3.109   8.523  0.0061 -0.6189 -0.3074
  204MOL0     C27410   2.646   3.041   8.402  0.5423 -0.2594  0.4115
  204MOL0     C27411   2.776   3.016   8.364 -1.1211  0.0590  0.2637
  204MOL0     C27412   2.886   3.044   8.438  0.5825  0.4577 -0.7724
  204MOL0     O27413   3.019   3.019   8.415 -0.6746  0.5357  0.1256
  204MOL0     C27414   3.050   2.988   8.273 -0.0904 -0.3671 -1.2193
  204MOL0     C27415   3.195   2.981   8.254 -0.7535 -0.4898 -0.2822
  204MOL0     C27416   3.257   2.915   8.376 -0.4007  0.2608  0.4552
  204MOL0     C27417   3.403   2.864   8.367 -0.1760 -0.0832  0.2438
  204MOL0     C27418   3.439   2.782   8.495 -0.7830 -0.1979 -0.5095
  204MOL0     C27419   3.570   2.699   8.465 -0.0914  0.2788 -0.2181
  204MOL0     C27420   3.593   2.601   8.581 -0.7522  0.2113 -0.5963
  204MOL0     C27421   3.734   2.546   8.572 -0.0969 -0.1021 -0.1124
  204MOL0     N27422   3.745   2.460   8.464  0.3958 -0.0067 -1.2212
  204MOL0     C27423   3.691   2.337   8.469  0.5109  0.9626 -0.5841
  204MOL0     C27424   3.715   2.287   8.344 -1.2527 -0.0650  0.0400
  204MOL0     C27425   3.701   2.145   8.299  0.5296  0.4740 -0.0037
  204MOL0     C27426   3.667   2.047   8.417  0.3293  0.5651 -0.1063
  204MOL0     C27427   3.519   2.049   8.458  0.8517  0.0378  0.6065
  204MOL0     C27428   3.502   1.941   8.568 -0.4004  0.1616  0.0755
  204MOL0     O27429   3.596   1.966   8.679  0.0686 -0.3393 -0.6331
  204MOL0     C27430   3.614   1.852   8.759  0.8891  0.2272 -0.5259
  204MOL0     C27431   3.705   1.867   8.859 -0.6810  0.7920 -0.5699
  204MOL0     C27432   3.749   1.768   8.944 -1.0311  0.6601  0.6147
  204MOL0     C27433   3.681   1.642   8.943 -0.4814 -0.7573 -0.1383
  204MOL0     C27434   3.702   1.544   9.059  0.8755 -0.2834  0.1601
  204MOL0     O27435   3.780   1.582   9.162 -0.5938 -0.0511 -0.7388
  204MOL0     C27436   3.801   1.502   9.269  0.5564 -0.5612 -0.2606
  204MOL0     C27437   3.705   1.415   9.325  0.4339 -0.4667  0.3568
  204MOL0     C27438   3.747   1.339   9.433  0.2645  0.0123 -0.6432
  204MOL0     C27439   3.876   1.354   9.495  0.6676 -0.0048 -0.3375
  204MOL0     O27440   3.908   1.290   9.613  0.5419 -0.4970  0.1801
  204MOL0     C27441   3.808   1.233   9.689  0.2349  1.1230  1.4614
  204MOL0     C27442   3.866   1.148   9.800  0.4462  1.0880 -0.5912
  204MOL0     C27443   3.941   1.026   9.760  0.0216  0.4579 -0.5030
  204MOL0     C27444   3.962   0.923   9.877 -0.5198 -0.3495  0.1175
  204MOL0     C27445   4.041   0.795   9.847  0.3854 -0.1419  0.0145
  204MOL0     C27446   4.035   0.695   9.964  0.1516 -0.0388 -0.5534
  204MOL0     C27447   4.147   0.589   9.974 -0.2653  0.2682 -0.2405
  204MOL0     C27448   4.169   0.499  10.097 -0.2890 -0.2163  0.2260
  204MOL0    Cl27449   4.174   0.614  10.232 -0.0081 -0.2030  0.2870
  204MOL0     C27450   3.956   1.452   9.438 -0.4726 -0.0276 -0.7700
  204MOL0     C27451   3.924   1.511   9.321 -0.3106  0.4960  0.4179
  204MOL0     O27452   3.661   1.431   9.042 -0.3685 -0.0179  0.1405
  204MOL0     C27453   3.594   1.614   8.827 -0.5119  0.4971  0.5768
  204MOL0     C27454   3.562   1.715   8.736 -0.5013  0.1147 -0.1874
  204MOL0     N27455   3.794   2.380   8.275 -0.3237 -0.1979  0.3919
  204MOL0     N27456   3.799   2.489   8.344  0.0504 -0.3773  0.9102
  204MOL0     C27457   2.861   3.111   8.558  0.6249  0.0388 -0.7179
  204MOL0     C27458   2.730   3.146   8.599 -0.2768 -0.6718  0.6027
  204MOL0     C27459   2.282   3.251   8.552  0.3170 -1.4570 -0.0483
  204MOL0     C27460   2.195   3.316   8.465 -0.4197 -0.1293  0.0496
  204MOL0     C27461   2.063   3.339   8.486 -0.1314 -0.3150  0.3451
  204MOL0     C27462   2.002   3.264   8.585  0.5748  0.3100 -0.7215
  204MOL0     O27463   1.857   3.258   8.596 -0.0012  1.0138 -0.4213
  204MOL0     C27464   1.764   3.269   8.484  0.3187 -0.5499  0.1019
  204MOL0     C27465   1.661   3.380   8.522 -0.0951 -0.2826 -0.2945
  204MOL0     C27466   1.554   3.406   8.405 -0.0668  0.4193  0.6354
  204MOL0     C27467   1.469   3.282   8.381 -0.0988 -1.1389  0.1335
  204MOL0     C27468   1.341   3.309   8.316  0.4021 -0.0933 -0.5399
  204MOL0     C27469   1.238   3.333   8.264  0.6770 -0.6107 -0.4153
  204MOL0     C27470   2.081   3.196   8.679 -0.5995  0.6877 -0.8307
  204MOL0     C27471   2.220   3.179   8.664  0.7941 -0.0691 -0.5727
  204MOL0     C27472   2.284   3.094   8.771 -0.0331 -0.0182  0.0308
  204MOL0     H27473   2.569   2.990   8.345  1.4136 -1.7119  0.4917
  204MOL0     H27474   2.788   2.972   8.265  0.1038 -1.5039  1.0664
  204MOL0     H27475   3.002   2.891   8.257  1.4441 -0.7625 -3.9709
  204MOL0     H27476   3.002   3.059   8.205 -0.4041 -1.2581 -1.9449
  204MOL0     H27477   3.241   3.077   8.231 -0.0814 -0.7620 -0.0931
  204MOL0     H27478   3.219   2.911   8.174  3.1460 -1.5545  1.5750
  204MOL0     H27479   3.193   2.828   8.389  1.0218 -1.2395 -1.9061
  204MOL0     H27480   3.257   2.977   8.466 -1.4965  0.6549  0.1944
  204MOL0     H27481   3.418   2.793   8.285  0.2321 -1.6649  1.6284
  204MOL0     H27482   3.473   2.948   8.362  1.8750 -1.7551 -1.1107
  204MOL0     H27483   3.455   2.839   8.587  0.0134  0.1783 -0.8739
  204MOL0     H27484   3.350   2.727   8.528 -1.3293  1.0215  0.1316
  204MOL0     H27485   3.552   2.625   8.387  0.0773 -0.5942  0.5458
  204MOL0     H27486   3.656   2.763   8.446  1.7463 -2.3655 -1.3830
  204MOL0     H27487   3.528   2.513   8.583 -1.0721  0.4363 -1.0023
  204MOL0     H27488   3.580   2.646   8.680 -2.3595  0.5048 -0.9157
  204MOL0     H27489   3.805   2.627   8.553 -0.0513 -0.3842 -1.2243
  204MOL0     H27490   3.763   2.499   8.666 -1.1254  0.3846  0.4740
  204MOL0     H27491   3.645   2.277   8.547  0.4089 -1.7928 -2.6017
  204MOL0     H27492   3.630   2.129   8.218 -0.2805  0.9715  0.5945
  204MOL0     H27493   3.796   2.112   8.254  2.3211  1.7459  2.5774
  204MOL0     H27494   3.697   1.951   8.376  2.0839  0.3375  1.5616
  204MOL0     H27495   3.730   2.075   8.503 -0.6995 -0.6265  1.0783
  204MOL0     H27496   3.458   2.012   8.375 -0.0290  1.8780  0.4026
  204MOL0     H27497   3.480   2.145   8.491 -0.8886 -0.8776  1.3422
  204MOL0     H27498   3.525   1.848   8.516  0.9319  1.3564 -1.5936
  204MOL0     H27499   3.397   1.957   8.593 -0.1752  2.7909 -0.3449
  204MOL0     H27500   3.760   1.959   8.878  0.5295 -0.1466  0.6548
  204MOL0     H27501   3.833   1.771   9.014  1.0499 -2.9181 -1.4033
  204MOL0     H27502   3.605   1.406   9.282  0.0644  1.7503  0.6160
  204MOL0     H27503   3.677   1.265   9.470  0.2663  0.9267  1.3004
  204MOL0     H27504   3.754   1.309   9.745  0.9459  1.8594  1.1653
  204MOL0     H27505   3.749   1.165   9.627 -0.7043  2.5428  0.7346
  204MOL0     H27506   3.921   1.213   9.869 -1.3315  2.3091 -0.2628
  204MOL0     H27507   3.781   1.107   9.854  1.9511 -2.1103 -0.4111
  204MOL0     H27508   3.893   0.972   9.677 -2.5125 -1.6621  2.1425
  204MOL0     H27509   4.039   1.054   9.719 -0.3940 -1.9702 -3.5446
  204MOL0     H27510   3.867   0.883   9.913  0.1710 -1.9197  0.2723
  204MOL0     H27511   4.019   0.975   9.955  0.1893  1.5489 -1.5866
  204MOL0     H27512   4.146   0.821   9.833  0.5289  0.7229  2.3832
  204MOL0     H27513   4.005   0.747   9.755  2.0233 -1.1352 -0.1427
  204MOL0     H27514   4.041   0.753  10.056  2.5836 -3.3375  1.6119
  204MOL0     H27515   3.938   0.644   9.969 -0.1381  0.3376 -2.0056
  204MOL0     H27516   4.240   0.640   9.945 -1.3559  3.3365  1.1863
  204MOL0     H27517   4.135   0.516   9.894 -0.7084 -1.5667  1.4176
  204MOL0     H27518   4.096   0.418  10.099  0.5338 -0.9879 -0.0653
  204MOL0     H27519   4.266   0.460  10.063 -0.1145  0.3953  0.0083
  204MOL0     H27520   4.054   1.454   9.484  0.6201 -1.1812 -2.9201
  204MOL0     H27521   3.996   1.581   9.277  0.6073  0.9607  2.5488
  204MOL0     H27522   3.555   1.513   8.814  0.5663 -0.0701  1.5877
  204MOL0     H27523   3.486   1.689   8.663 -2.1269 -3.8025  2.5948
  204MOL0     H27524   2.951   3.142   8.611  1.3546  0.5941 -2.2002
  204MOL0     H27525   2.718   3.222   8.675 -1.2786  4.5285 -4.0490
  204MOL0     H27526   2.238   3.380   8.389  1.1729 -0.2979  0.7806
  204MOL0     H27527   2.011   3.418   8.432  2.3343  2.6416  1.9423
  204MOL0     H27528   1.710   3.174   8.479 -2.9397  1.0820  1.4107
  204MOL0     H27529   1.810   3.293   8.388  0.1113 -1.1374 -0.1502
  204MOL0     H27530   1.723   3.470   8.537 -1.8512  1.4212 -2.5417
  204MOL0     H27531   1.608   3.356   8.614 -1.1685 -2.4943 -1.4223
  204MOL0     H27532   1.597   3.441   8.311  0.5833 -1.9632 -0.0368
  204MOL0     H27533   1.490   3.486   8.442  1.0906  1.6155  0.1144
  204MOL0     H27534   1.521   3.223   8.304  1.8102  1.5208 -0.7669
  204MOL0     H27535   1.432   3.235   8.472 -1.6698 -2.3663 -1.0546
  204MOL0     H27536   1.141   3.367   8.231  0.3366  3.0738  3.4986
  204MOL0     H27537   2.026   3.155   8.763 -0.6248  0.4574 -0.9579
  204MOL0     H27538   2.287   2.990   8.739 -2.2566 -0.0129 -0.2974
  204MOL0     H27539   2.383   3.136   8.792  0.3162 -0.8601  0.1080
  204MOL0     H27540   2.218   3.097   8.857 -0.0202  1.6170  0.0236
  205MOL0     O27541   4.242   1.495   1.048  0.1989 -0.1795 -0.4267
  205MOL0     C27542   4.290   1.484   1.167 -0.3244  0.0483  0.7562
  205MOL0     O27543   4.357   1.369   1.211 -0.0201 -0.4637 -0.8499
  205MOL0     C27544   4.400   1.282   1.118  0.8407  0.9636  0.6688
  205MOL0     C27545   4.456   1.319   0.999 -1.2243 -0.7344 -0.2877
  205MOL0     C27546   4.511   1.219   0.915  0.0782 -0.9155 -0.2843
  205MOL0     C27547   4.488   1.083   0.945 -0.1800 -0.0368  0.4143
  205MOL0     O27548   4.530   0.980   0.874 -0.4370  0.4138 -0.1181
  205MOL0     C27549   4.561   0.999   0.737 -0.3477 -0.3341  0.1565
  205MOL0     C27550   4.620   0.877   0.685  0.7428 -1.2254 -0.3413
  205MOL0     C27551   4.662   0.905   0.532  0.0475  0.2555 -0.4494
  205MOL0     C27552   4.709   0.778   0.478 -0.3986 -0.8933  0.0818
  205MOL0     C27553   4.783   0.819   0.347  0.3062 -0.1270 -0.5689
  205MOL0     C27554   4.834   0.700   0.272 -0.2736  0.6770  0.4479
  205MOL0     C27555   4.945   0.734   0.170 -0.0052  0.6615  0.3514
  205MOL0     C27556   5.000   0.606   0.094  0.0642  0.2569 -0.9210
  205MOL0     N27557   5.114   0.632   0.004 -0.6424  0.6282 -0.0920
  205MOL0     C27558   5.226   0.681   0.056 -0.6290  0.2644 -0.1253
  205MOL0     C27559   5.302   0.692  -0.062  0.3961  0.1270 -0.2178
  205MOL0     C27560   5.446   0.748  -0.061  1.1110  1.1404 -0.2179
  205MOL0     C27561   5.477   0.892  -0.041  0.0897 -0.3800  0.2947
  205MOL0     C27562   5.620   0.912   0.014 -0.4539  0.2255  0.1781
  205MOL0     C27563   5.676   1.055  -0.005  0.4107 -0.2652 -0.3102
  205MOL0     O27564   5.800   1.076   0.059  0.7206  0.4738  0.1854
  205MOL0     C27565   5.920   1.052  -0.002  1.4377  0.5677  0.2535
  205MOL0     C27566   5.932   0.992  -0.130  0.1831  0.4929  0.3891
  205MOL0     C27567   6.055   0.997  -0.196  0.2322  0.4155 -0.2470
  205MOL0     C27568   6.161   1.052  -0.132  0.0275 -0.1536  0.3277
  205MOL0     C27569   6.293   1.057  -0.195  0.6064  0.9477 -0.2830
  205MOL0     O27570   6.387   1.134  -0.131 -0.1543  0.2531 -0.7091
  205MOL0     C27571   6.517   1.112  -0.172  0.0500  0.4150  0.2119
  205MOL0     C27572   6.581   0.990  -0.198 -0.5986  0.2426 -0.2298
  205MOL0     C27573   6.721   0.968  -0.205 -0.2230  0.0929  0.2897
  205MOL0     C27574   6.800   1.079  -0.195 -0.7855 -0.0294 -0.0493
  205MOL0     O27575   6.936   1.069  -0.230  0.2420  0.0012 -0.0940
  205MOL0     C27576   6.992   0.933  -0.239  0.0667 -0.0576  0.1677
  205MOL0     C27577   7.136   0.936  -0.279 -0.0072 -0.3177  0.2133
  205MOL0     C27578   7.216   1.027  -0.185  0.3069 -0.4895 -0.9353
  205MOL0     C27579   7.372   1.000  -0.195  0.1746 -1.1309  0.1844
  205MOL0     C27580   7.453   1.084  -0.083  0.0228  0.3658  0.6765
  205MOL0     C27581   7.605   1.042  -0.061  0.2757  0.8666  1.0225
  205MOL0     C27582   7.652   1.120   0.059 -0.5232  0.3711  1.3177
  205MOL0     C27583   7.808   1.120   0.065 -0.7396  0.5451  0.0969
  205MOL0    Cl27584   7.859   0.948   0.037 -0.3091  0.1014 -0.2840
  205MOL0     C27585   6.740   1.202  -0.172 -1.4267 -0.1409 -2.0583
  205MOL0     C27586   6.608   1.221  -0.154  1.0814 -0.2533  1.0298
  205MOL0     O27587   6.306   0.982  -0.291 -0.4252  0.0440 -0.5327
  205MOL0     C27588   6.152   1.097  -0.000 -0.4268 -0.0134  0.1992
  205MOL0     C27589   6.029   1.108   0.059  0.5691 -0.3897  0.5458
  205MOL0     N27590   5.221   0.679  -0.172  0.3344  0.1319  0.7645
  205MOL0     N27591   5.113   0.642  -0.128  0.2473  0.7457 -0.9317
  205MOL0     C27592   4.416   1.051   1.059  0.3086 -0.9891  0.1565
  205MOL0     C27593   4.379   1.145   1.149  0.2632 -0.5156 -0.2222
  205MOL0     C27594   4.284   1.601   1.259 -0.1559  0.1767 -0.2845
  205MOL0     C27595   4.358   1.591   1.376 -0.3082  0.0965 -0.5254
  205MOL0     C27596   4.346   1.682   1.485 -0.0771 -0.0171 -0.0652
  205MOL0     C27597   4.263   1.795   1.474 -0.2521  0.0832 -0.1141
  205MOL0     O27598   4.246   1.891   1.571  0.3564 -0.4509 -0.1663
  205MOL0     C27599   4.344   1.916   1.669  0.4331 -0.1944 -0.1067
  205MOL0     C27600   4.476   1.954   1.600  0.9221  0.1314 -0.0445
  205MOL0     C27601   4.551   2.050   1.693  0.6477 -0.2142  0.7984
  205MOL0     C27602   4.500   2.201   1.663 -0.2828  0.5219  0.0371
  205MOL0     C27603   4.575   2.264   1.551 -0.6935  0.1975 -0.7771
  205MOL0     C27604   4.636   2.301   1.454 -0.4288  0.1747  0.2571
  205MOL0     C27605   4.202   1.818   1.345 -0.3188  0.0274 -0.3962
  205MOL0     C27606   4.205   1.717   1.242  0.4616  0.6061  0.5366
  205MOL0     C27607   4.108   1.735   1.133 -0.4222 -0.7806 -0.3610
  205MOL0     H27608   4.465   1.423   0.971  1.4643 -0.9299 -0.4349
  205MOL0     H27609   4.563   1.252   0.825 -1.7982  0.8975 -0.7684
  205MOL0     H27610   4.473   1.029   0.679 -1.4805 -0.4882  1.7318
  205MOL0     H27611   4.640   1.075   0.731 -0.7676  0.1450  0.6239
  205MOL0     H27612   4.540   0.803   0.683  0.1422 -0.7134  1.8631
  205MOL0     H27613   4.702   0.844   0.750  1.2263 -1.0038 -0.8217
  205MOL0     H27614   4.739   0.983   0.533 -2.7159  3.2735  2.1733
  205MOL0     H27615   4.574   0.937   0.475 -1.9158 -0.2127  2.1726
  205MOL0     H27616   4.786   0.730   0.539 -1.9136 -3.0661  0.3813
  205MOL0     H27617   4.631   0.707   0.450 -0.9021 -0.0975 -0.5725
  205MOL0     H27618   4.714   0.888   0.298 -1.3830 -1.8060 -0.6402
  205MOL0     H27619   4.875   0.871   0.378  0.8044  0.5582 -3.0068
  205MOL0     H27620   4.885   0.628   0.337 -1.3567 -1.5971 -1.0621
  205MOL0     H27621   4.746   0.655   0.224 -0.3547 -0.7452  1.8260
  205MOL0     H27622   5.034   0.766   0.225  1.9867 -3.0463 -0.3699
  205MOL0     H27623   4.921   0.815   0.101 -1.3104 -0.4644 -0.5598
  205MOL0     H27624   5.045   0.531   0.160 -1.1610 -0.1442 -0.5144
  205MOL0     H27625   4.912   0.568   0.041 -2.0703  2.5744  0.7303
  205MOL0     H27626   5.252   0.694   0.160 -2.1247 -0.4850  0.3735
  205MOL0     H27627   5.502   0.677   0.001  1.4095 -2.6452 -4.3343
  205MOL0     H27628   5.486   0.732  -0.161  1.3865 -1.3490  0.2154
  205MOL0     H27629   5.466   0.952  -0.131 -1.6374  1.9470  1.9498
  205MOL0     H27630   5.408   0.935   0.031  1.4232  2.8107 -0.1645
  205MOL0     H27631   5.687   0.843  -0.039 -0.8183  0.7881 -1.0520
  205MOL0     H27632   5.625   0.884   0.119 -2.3977 -2.3613 -0.3184
  205MOL0     H27633   5.612   1.126   0.048  2.6162  1.0780  0.6718
  205MOL0     H27634   5.674   1.079  -0.112 -1.6487  0.3533 -0.1748
  205MOL0     H27635   5.852   0.949  -0.190  2.4611 -0.8363 -1.8734
  205MOL0     H27636   6.068   0.967  -0.299  2.1596  0.0301  0.0666
  205MOL0     H27637   6.527   0.896  -0.192  0.7601 -0.4794  1.6734
  205MOL0     H27638   6.749   0.864  -0.208  0.2804  0.2351 -0.1140
  205MOL0     H27639   6.983   0.871  -0.149  0.2055  0.5410  0.5970
  205MOL0     H27640   6.943   0.877  -0.320 -3.8440  2.7030  0.3277
  205MOL0     H27641   7.165   0.831  -0.270 -0.7548 -0.5320  0.2007
  205MOL0     H27642   7.145   0.978  -0.380 -2.8686  0.6828  0.2699
  205MOL0     H27643   7.186   1.131  -0.205 -0.7755 -0.1606  1.9357
  205MOL0     H27644   7.187   1.003  -0.082  0.2797 -0.4316 -0.9289
  205MOL0     H27645   7.402   1.030  -0.296 -0.8447  1.7548  0.6603
  205MOL0     H27646   7.397   0.894  -0.180 -0.9995 -1.3371  0.8689
  205MOL0     H27647   7.393   1.082   0.008  1.9061 -2.1528  1.9880
  205MOL0     H27648   7.457   1.179  -0.138 -0.9613 -0.6257 -1.2012
  205MOL0     H27649   7.613   0.936  -0.035 -1.1260  0.2526 -0.8133
  205MOL0     H27650   7.660   1.062  -0.153  0.7945 -3.2268  0.2529
  205MOL0     H27651   7.607   1.081   0.150 -2.6328  0.1229  0.2311
  205MOL0     H27652   7.611   1.222   0.053 -2.3963 -0.4202 -1.5091
  205MOL0     H27653   7.855   1.173  -0.019  1.4791 -2.1267 -0.5131
  205MOL0     H27654   7.843   1.151   0.164 -2.4112 -3.3147  2.1158
  205MOL0     H27655   6.804   1.288  -0.154 -0.8563 -1.2031  2.1876
  205MOL0     H27656   6.570   1.321  -0.137 -0.6830 -0.1935 -2.3735
  205MOL0     H27657   6.237   1.141   0.051  1.4316  0.7761 -3.2455
  205MOL0     H27658   6.018   1.149   0.159  2.3842 -0.5755  0.8481
  205MOL0     H27659   4.396   0.945   1.076  0.4262 -1.0293  0.0450
  205MOL0     H27660   4.339   1.118   1.246 -0.3418 -2.1747 -0.8944
  205MOL0     H27661   4.413   1.500   1.396 -0.6234 -0.0567 -0.3596
  205MOL0     H27662   4.393   1.670   1.582  0.3530  1.2233 -0.1020
  205MOL0     H27663   4.360   1.834   1.739  0.3457 -0.4178 -0.3483
  205MOL0     H27664   4.306   1.994   1.734  1.7609  0.1272  0.3151
  205MOL0     H27665   4.453   2.002   1.504 -0.9402  1.6656  1.0842
  205MOL0     H27666   4.538   1.865   1.592 -0.9213 -1.1979 -0.3255
  205MOL0     H27667   4.660   2.056   1.686  0.5269  2.0756  0.0984
  205MOL0     H27668   4.516   2.026   1.794  1.5543 -0.6999  1.0062
  205MOL0     H27669   4.395   2.204   1.634  0.0351  3.1646 -1.1466
  205MOL0     H27670   4.501   2.264   1.753  1.5939  2.5915 -1.3269
  205MOL0     H27671   4.689   2.333   1.367  0.1430 -4.1635 -1.2535
  205MOL0     H27672   4.145   1.909   1.334  1.7216  2.1905  4.2210
  205MOL0     H27673   4.154   1.739   1.034  3.0390 -1.7315  1.0247
  205MOL0     H27674   4.041   1.649   1.133 -0.2423 -0.9219 -0.8626
  205MOL0     H27675   4.040   1.818   1.154  0.1981 -0.4092  0.2578
  206MOL0     O27676   8.423   1.195   4.537 -0.0601 -0.1230 -0.0245
  206MOL0     C27677   8.385   1.110   4.460 -0.6522  0.5141 -0.2550
  206MOL0     O27678   8.455   0.996   4.421 -0.2010  0.3036  0.1254
  206MOL0     C27679   8.557   0.942   4.500  0.4918  0.1656  0.0255
  206MOL0     C27680   8.685   0.910   4.437  0.7857  0.9483  0.0603
  206MOL0     C27681   8.783   0.852   4.516  0.3261  0.1749 -1.1662
  206MOL0     C27682   8.768   0.829   4.651  0.3938  0.5716  0.0365
  206MOL0     O27683   8.886   0.781   4.720  0.0739 -0.1370  0.7216
  206MOL0     C27684   8.880   0.675   4.816  0.1144  0.3768  1.0048
  206MOL0     C27685   9.017   0.606   4.839  0.4512 -0.6094  0.4061
  206MOL0     C27686   9.079   0.561   4.706 -0.5568 -0.7513  0.1811
  206MOL0     C27687   9.219   0.509   4.718 -0.3706  0.7914 -0.4866
  206MOL0     C27688   9.260   0.435   4.586  0.5871 -0.2780 -0.5386
  206MOL0     C27689   9.391   0.366   4.616  0.8395  0.5669  0.9280
  206MOL0     C27690   9.466   0.340   4.481 -0.5735 -0.6209  0.2223
  206MOL0     C27691   9.578   0.233   4.510 -0.3467  0.8676 -0.2743
  206MOL0     N27692   9.607   0.150   4.391 -0.5942 -0.0455 -0.3435
  206MOL0     C27693   9.738   0.120   4.357 -0.0024 -0.7932  0.9816
  206MOL0     C27694   9.721   0.024   4.264  0.3761 -0.8636 -0.2186
  206MOL0     C27695   9.837  -0.045   4.197  0.2077 -1.2737 -0.6462
  206MOL0     C27696   9.934  -0.101   4.307 -0.0550 -1.2338  0.1992
  206MOL0     C27697  10.042  -0.184   4.247  0.5740  0.2014  0.4140
  206MOL0     C27698  10.165  -0.106   4.186  0.4437  0.2976 -1.1390
  206MOL0     O27699  10.215  -0.010   4.285 -0.3226  0.4558  0.9774
  206MOL0     C27700  10.323  -0.042   4.359 -0.6440  0.2069  0.4490
  206MOL0     C27701  10.396   0.064   4.413 -1.2990 -0.6686 -0.3230
  206MOL0     C27702  10.506   0.038   4.497 -0.4317  0.5502 -0.4895
  206MOL0     C27703  10.544  -0.094   4.519  0.5561  0.3545 -0.3415
  206MOL0     C27704  10.667  -0.119   4.614  0.1198 -0.4472  0.3563
  206MOL0     O27705  10.696  -0.255   4.647 -0.0614  0.2503 -0.4661
  206MOL0     C27706  10.795  -0.272   4.743  0.3465 -0.8191 -0.1899
  206MOL0     C27707  10.763  -0.264   4.877  0.8612  0.2696  0.0629
  206MOL0     C27708  10.865  -0.290   4.969 -0.2861 -0.6713 -0.0689
  206MOL0     C27709  11.000  -0.317   4.933  0.0592  0.3470 -0.1520
  206MOL0     O27710  11.092  -0.364   5.028  0.4011 -0.0385  0.8566
  206MOL0     C27711  11.066  -0.349   5.170  0.3479  0.3969  0.5488
  206MOL0     C27712  11.080  -0.191   5.201  0.8332 -0.0764 -0.1872
  206MOL0     C27713  11.222  -0.142   5.187  0.8797  0.7297 -0.1836
  206MOL0     C27714  11.323  -0.197   5.285  1.1326  0.2104  0.0994
  206MOL0     C27715  11.451  -0.115   5.320 -0.1464 -0.0250 -0.8522
  206MOL0     C27716  11.530  -0.087   5.197 -0.3541 -0.3021  0.1837
  206MOL0     C27717  11.670  -0.060   5.233  0.0551  0.1373  0.1018
  206MOL0     C27718  11.766  -0.059   5.117  0.3127  0.3087 -0.5977
  206MOL0    Cl27719  11.735   0.077   5.013 -0.6400 -0.3754  0.4200
  206MOL0     C27720  11.030  -0.325   4.802  0.5113  1.1425  0.8372
  206MOL0     C27721  10.928  -0.304   4.704  0.0327  0.2648 -0.2139
  206MOL0     O27722  10.727  -0.021   4.657  0.4792 -0.5153 -0.7751
  206MOL0     C27723  10.482  -0.204   4.457 -0.9481 -0.8025 -0.2825
  206MOL0     C27724  10.370  -0.175   4.374  0.2178 -0.2630  0.3733
  206MOL0     N27725   9.584   0.014   4.231 -0.6072  0.7642  0.5992
  206MOL0     N27726   9.516   0.087   4.309 -0.9029  0.4812  0.1017
  206MOL0     C27727   8.652   0.864   4.712 -1.3839  0.7305  0.0847
  206MOL0     C27728   8.549   0.924   4.637  0.0446 -0.1002  0.5358
  206MOL0     C27729   8.259   1.136   4.387 -0.2278  0.1850  0.2277
  206MOL0     C27730   8.261   1.107   4.246 -0.0950  0.1256 -0.7698
  206MOL0     C27731   8.150   1.141   4.173 -0.3134 -0.5424 -0.6592
  206MOL0     C27732   8.038   1.195   4.243  0.3448  0.3153  0.0053
  206MOL0     O27733   7.922   1.225   4.178  0.6285  0.0335 -0.2771
  206MOL0     C27734   7.908   1.351   4.119  0.3496  0.3942 -1.2813
  206MOL0     C27735   7.776   1.359   4.044  0.9920  1.1206 -0.2569
  206MOL0     C27736   7.655   1.333   4.141 -0.3920 -0.5991  0.4561
  206MOL0     C27737   7.550   1.436   4.104  0.4594  0.3078  0.4526
  206MOL0     C27738   7.432   1.412   4.181 -0.7422 -0.0936  0.2182
  206MOL0     C27739   7.329   1.414   4.246  0.6776  0.6923  0.3367
  206MOL0     C27740   8.025   1.189   4.379 -0.3099 -0.8255  0.4796
  206MOL0     C27741   8.138   1.172   4.448 -1.2770 -0.9027  0.1937
  206MOL0     C27742   8.139   1.179   4.603 -0.4528  0.4633  0.7422
  206MOL0     H27743   8.690   0.919   4.329  1.1018  2.9536  0.1941
  206MOL0     H27744   8.866   0.806   4.463  2.3030  2.4911 -0.2463
  206MOL0     H27745   8.837   0.720   4.906 -1.6372 -0.0429  0.4191
  206MOL0     H27746   8.801   0.609   4.779  0.2225  0.9321 -0.2401
  206MOL0     H27747   9.012   0.521   4.908 -4.1976  0.0348  1.1640
  206MOL0     H27748   9.087   0.681   4.877  2.8066 -1.2037 -2.3820
  206MOL0     H27749   9.088   0.631   4.622  1.2824 -1.8597 -0.6079
  206MOL0     H27750   9.014   0.481   4.668 -2.6184  2.2916 -3.5070
  206MOL0     H27751   9.282   0.597   4.732 -0.1601  0.5418  0.1514
  206MOL0     H27752   9.223   0.449   4.809 -2.3285  2.3882  0.7296
  206MOL0     H27753   9.180   0.369   4.549 -0.8544  1.5760 -0.8825
  206MOL0     H27754   9.268   0.516   4.513 -0.9254 -0.9528 -1.5043
  206MOL0     H27755   9.458   0.436   4.666 -0.9661  2.5878  0.6961
  206MOL0     H27756   9.371   0.270   4.663 -1.5252  1.7992  2.6208
  206MOL0     H27757   9.509   0.432   4.441  0.7434 -2.1423 -2.0766
  206MOL0     H27758   9.410   0.309   4.392 -0.6844 -1.3056  0.5259
  206MOL0     H27759   9.666   0.292   4.534 -0.7063  0.5674  2.0385
  206MOL0     H27760   9.556   0.173   4.598  0.4867  1.2214  0.1843
  206MOL0     H27761   9.830   0.157   4.401 -1.5116 -0.2263  3.9357
  206MOL0     H27762   9.813  -0.117   4.119 -1.1895  0.0281 -1.4797
  206MOL0     H27763   9.888   0.029   4.136  0.5894  1.7242  2.9689
  206MOL0     H27764   9.982  -0.023   4.367 -1.9452  0.1855 -0.0433
  206MOL0     H27765   9.880  -0.166   4.377  0.7218 -0.6491  1.3825
  206MOL0     H27766  10.009  -0.257   4.173  1.7116 -3.4383  3.1624
  206MOL0     H27767  10.066  -0.249   4.332 -1.2085 -1.6329 -0.3980
  206MOL0     H27768  10.142  -0.049   4.095 -0.6316 -0.5935 -1.4475
  206MOL0     H27769  10.240  -0.182   4.165 -1.5058 -2.2555  0.5570
  206MOL0     H27770  10.370   0.168   4.398 -1.3698 -1.0785 -3.6512
  206MOL0     H27771  10.558   0.124   4.537 -2.0954  1.4811 -0.2602
  206MOL0     H27772  10.666  -0.227   4.910  1.1135 -1.2493  2.7907
  206MOL0     H27773  10.832  -0.307   5.072 -0.6434 -1.1769 -0.2614
  206MOL0     H27774  10.989  -0.410   5.216  0.1676 -1.0244 -1.4983
  206MOL0     H27775  11.151  -0.385   5.227 -0.1612  0.2980  1.2475
  206MOL0     H27776  11.027  -0.136   5.123  1.0650  1.6285  0.8055
  206MOL0     H27777  11.034  -0.158   5.295 -0.1917  1.5948 -1.2323
  206MOL0     H27778  11.247  -0.178   5.087 -2.1162 -3.0056  0.1918
  206MOL0     H27779  11.219  -0.033   5.201  0.2673  0.6821  0.1340
  206MOL0     H27780  11.359  -0.289   5.237 -2.0041 -2.4409  2.3307
  206MOL0     H27781  11.261  -0.212   5.374  1.8841  1.5484  0.8833
  206MOL0     H27782  11.506  -0.165   5.400 -3.9059 -2.6146  0.3664
  206MOL0     H27783  11.426  -0.019   5.366  0.5715 -0.6595  0.9291
  206MOL0     H27784  11.526  -0.176   5.134  1.7134  0.6444 -1.3993
  206MOL0     H27785  11.483  -0.007   5.138  2.4773  0.7532 -0.7731
  206MOL0     H27786  11.704  -0.142   5.296  1.9187  0.4143 -0.4770
  206MOL0     H27787  11.681   0.032   5.291 -1.4195  0.3405  0.0998
  206MOL0     H27788  11.867  -0.061   5.157  1.6536  1.1159 -3.6561
  206MOL0     H27789  11.758  -0.147   5.052 -3.4932  0.6570 -0.8570
  206MOL0     H27790  11.129  -0.358   4.773  0.3100  0.2558  1.1156
  206MOL0     H27791  10.943  -0.306   4.596  1.3480  2.4263 -0.1390
  206MOL0     H27792  10.523  -0.303   4.473 -0.7016 -0.3615  2.2352
  206MOL0     H27793  10.331  -0.252   4.307  0.5038  0.9555 -1.2726
  206MOL0     H27794   8.646   0.855   4.820 -1.7666 -0.5750 -0.0238
  206MOL0     H27795   8.459   0.965   4.682  0.6873  0.5659  1.2395
  206MOL0     H27796   8.343   1.059   4.192 -2.6133 -2.9049 -2.2194
  206MOL0     H27797   8.156   1.140   4.064 -0.6454 -0.3079 -0.6829
  206MOL0     H27798   7.993   1.359   4.051  0.3746  0.1223 -1.2823
  206MOL0     H27799   7.920   1.426   4.197  1.6773 -0.7845 -0.3032
  206MOL0     H27800   7.776   1.283   3.965 -0.1051  1.3736 -0.5144
  206MOL0     H27801   7.781   1.454   3.990  0.0256  0.8692 -0.8125
  206MOL0     H27802   7.685   1.341   4.246  1.6676  0.9370 -0.1910
  206MOL0     H27803   7.616   1.233   4.123  1.3059 -1.0327 -1.0550
  206MOL0     H27804   7.590   1.538   4.111  0.0543  0.9296 -3.5881
  206MOL0     H27805   7.528   1.428   3.997  0.7362  1.0266  0.3346
  206MOL0     H27806   7.245   1.435   4.309 -0.7867  0.5055 -1.4875
  206MOL0     H27807   7.937   1.220   4.435 -0.8874 -0.8849 -0.3859
  206MOL0     H27808   8.198   1.264   4.638  1.2447 -0.6208  0.6306
  206MOL0     H27809   8.035   1.184   4.636 -1.3359  2.1889 -2.0427
  206MOL0     H27810   8.199   1.100   4.650 -0.4950 -0.5596 -0.8268
  207MOL0     O27811  10.321   0.042  10.848 -0.1432  0.1601 -0.5211
  207MOL0     C27812  10.387  -0.008  10.758 -1.0664  0.7508  0.1187
  207MOL0     O27813  10.524  -0.022  10.758 -0.5771 -0.2577 -0.9079
  207MOL0     C27814  10.606   0.056  10.839  0.0218 -0.6456  0.1055
  207MOL0     C27815  10.720   0.109  10.784  0.6695 -0.3363  0.0814
  207MOL0     C27816  10.814   0.166  10.861 -0.0526  0.4611  0.0618
  207MOL0     C27817  10.788   0.184  10.999  0.5075  0.3171  0.5287
  207MOL0     O27818  10.878   0.233  11.088  0.0389 -0.1135 -0.0769
  207MOL0     C27819  10.992   0.158  11.124 -0.7759 -0.1245 -0.7813
  207MOL0     C27820  11.128   0.209  11.051  0.3676 -0.2512 -1.4768
  207MOL0     C27821  11.248   0.143  11.123 -0.1486  1.4182 -0.4150
  207MOL0     C27822  11.357   0.235  11.180  0.1059  0.8540 -0.1682
  207MOL0     C27823  11.325   0.303  11.319  0.7028  0.1504  0.1045
  207MOL0     C27824  11.433   0.400  11.377  0.0933 -0.0002  0.0869
  207MOL0     C27825  11.560   0.321  11.420  0.1340  0.7260  0.3471
  207MOL0     C27826  11.690   0.378  11.381 -0.1084  0.3049  0.7712
  207MOL0     N27827  11.724   0.507  11.437  0.2710 -0.3224  0.3394
  207MOL0     C27828  11.697   0.635  11.387  0.2574 -0.5151 -0.0679
  207MOL0     C27829  11.759   0.715  11.475  0.5267  0.6541  0.2524
  207MOL0     C27830  11.758   0.859  11.454  0.9091  0.0594 -0.0519
  207MOL0     C27831  11.634   0.932  11.511  0.8529  0.9821 -0.5663
  207MOL0     C27832  11.633   1.090  11.506  0.3985 -0.0656 -0.5587
  207MOL0     C27833  11.761   1.167  11.556 -0.1763 -1.1509 -0.5080
  207MOL0     O27834  11.813   1.120  11.681  0.2488  0.2771  0.5957
  207MOL0     C27835  11.937   1.152  11.713 -0.6737  0.3678 -0.2489
  207MOL0     C27836  12.015   1.056  11.781 -0.4741 -0.7120 -0.3013
  207MOL0     C27837  12.147   1.088  11.812 -0.1909  0.3528  0.1646
  207MOL0     C27838  12.207   1.208  11.772 -0.4714 -0.0081 -0.4793
  207MOL0     C27839  12.343   1.242  11.817  0.3354  0.3516 -0.3038
  207MOL0     O27840  12.391   1.355  11.761 -0.4468  0.1179 -0.6035
  207MOL0     C27841  12.489   1.431  11.822 -0.4816 -0.2843 -0.7778
  207MOL0     C27842  12.456   1.569  11.847 -0.5098  0.7678  0.2132
  207MOL0     C27843  12.556   1.649  11.890 -0.3330  0.0067 -0.7835
  207MOL0     C27844  12.685   1.601  11.926  0.1643  0.3459  0.2582
  207MOL0     O27845  12.793   1.665  11.981 -0.0093 -0.4060 -0.4649
  207MOL0     C27846  12.774   1.811  11.976 -0.2486  0.8325 -1.2502
  207MOL0     C27847  12.900   1.869  12.016 -0.1122  0.9115  0.2291
  207MOL0     C27848  13.013   1.836  11.910 -0.0592  0.8019 -0.0306
  207MOL0     C27849  13.108   1.962  11.901  0.0753 -0.0155 -0.9082
  207MOL0     C27850  13.238   1.926  11.832 -0.0209  0.1219  0.3363
  207MOL0     C27851  13.336   1.854  11.923  0.7345  0.1459  0.0223
  207MOL0     C27852  13.471   1.837  11.866 -1.4006  0.5923  0.0848
  207MOL0     C27853  13.558   1.961  11.903 -0.1779  0.3830  0.0892
  207MOL0    Cl27854  13.609   1.952  12.076 -0.4969  0.1244 -0.0322
  207MOL0     C27855  12.712   1.463  11.892  0.1844 -0.1701  0.2871
  207MOL0     C27856  12.620   1.384  11.836  0.2205  0.1684  0.7491
  207MOL0     O27857  12.403   1.173  11.900 -0.0156 -0.0613 -0.6048
  207MOL0     C27858  12.131   1.298  11.706  0.0836 -0.0329  0.6499
  207MOL0     C27859  11.997   1.275  11.675 -1.1676  0.3100 -0.6271
  207MOL0     N27860  11.809   0.639  11.573 -0.4151  0.1373 -0.8377
  207MOL0     N27861  11.787   0.516  11.556  0.0834 -0.9553 -0.9275
  207MOL0     C27862  10.665   0.140  11.058 -0.0321 -0.3264  0.2338
  207MOL0     C27863  10.578   0.069  10.979 -0.2396 -0.6563  0.0412
  207MOL0     C27864  10.324  -0.052  10.625 -0.0584  0.0116 -0.3657
  207MOL0     C27865  10.410  -0.093  10.523  0.0220  1.0578  0.0017
  207MOL0     C27866  10.363  -0.108  10.399  0.4544 -0.5733  0.4054
  207MOL0     C27867  10.229  -0.090  10.361 -0.2280  0.2709  0.6041
  207MOL0     O27868  10.205  -0.098  10.229  0.3213 -0.1492  0.1034
  207MOL0     C27869  10.097  -0.185  10.201 -0.1755 -0.6560 -0.0508
  207MOL0     C27870  10.003  -0.116  10.111  0.3326  0.2517  0.0015
  207MOL0     C27871   9.881  -0.202  10.089  1.1142  0.4377 -0.1829
  207MOL0     C27872   9.759  -0.112  10.099  0.2215  0.7678 -0.2001
  207MOL0     C27873   9.729  -0.085  10.244  0.7262  0.3903 -0.7999
  207MOL0     C27874   9.691  -0.055  10.359 -1.4491  0.5396  0.3258
  207MOL0     C27875  10.144  -0.041  10.459  1.0955 -0.5011 -0.8853
  207MOL0     C27876  10.191  -0.031  10.587  0.9447 -0.3508  0.1179
  207MOL0     C27877  10.095   0.029  10.692  0.4690  0.1314 -0.3641
  207MOL0     H27878  10.744   0.104  10.679 -1.6112  2.9369 -0.7669
  207MOL0     H27879  10.908   0.200  10.820 -0.2777  0.8044 -0.1821
  207MOL0     H27880  11.010   0.184  11.229  0.6925  3.3993 -1.7541
  207MOL0     H27881  10.978   0.050  11.120  1.8895 -0.7737  2.5694
  207MOL0     H27882  11.137   0.317  11.067 -2.0893 -0.1883 -0.0624
  207MOL0     H27883  11.121   0.181  10.945 -0.3406  0.3040 -1.5866
  207MOL0     H27884  11.295   0.066  11.061  0.1610 -0.2450  1.7665
  207MOL0     H27885  11.211   0.087  11.210 -0.5454 -0.7537 -1.8815
  207MOL0     H27886  11.442   0.173  11.209 -0.8603  0.4343  1.9561
  207MOL0     H27887  11.376   0.319  11.113 -1.5568  2.5329  1.3496
  207MOL0     H27888  11.237   0.367  11.308  1.4610  0.8478 -2.9369
  207MOL0     H27889  11.305   0.221  11.388  1.9803 -0.5773 -0.3761
  207MOL0     H27890  11.462   0.480  11.307  4.6163  0.2575  1.8929
  207MOL0     H27891  11.399   0.445  11.470  0.0876  0.0075  0.0801
  207MOL0     H27892  11.575   0.221  11.377 -0.8451  0.6849  0.0984
  207MOL0     H27893  11.555   0.309  11.529 -0.8300  0.2053  0.2497
  207MOL0     H27894  11.762   0.298  11.401  0.4892  0.8528  0.8596
  207MOL0     H27895  11.676   0.393  11.274 -0.5341  0.2454  0.8183
  207MOL0     H27896  11.642   0.665  11.298  0.0568  2.2529  0.9195
  207MOL0     H27897  11.854   0.895  11.492 -0.0637  1.4474  1.1892
  207MOL0     H27898  11.761   0.878  11.346  2.5914 -1.4585 -0.3148
  207MOL0     H27899  11.547   0.894  11.457 -0.6463  1.4169  1.4495
  207MOL0     H27900  11.625   0.884  11.609  0.1353 -2.8718 -2.3442
  207MOL0     H27901  11.544   1.123  11.560 -0.5980 -1.2190 -1.4616
  207MOL0     H27902  11.623   1.116  11.400 -0.2618 -0.2311 -0.5380
  207MOL0     H27903  11.747   1.275  11.568 -0.4232 -0.9081 -2.6424
  207MOL0     H27904  11.843   1.159  11.484  3.4522  1.0096  3.0008
  207MOL0     H27905  11.966   0.964  11.812  2.4870 -1.4247  2.8230
  207MOL0     H27906  12.205   1.016  11.870  1.8962  0.5559 -1.5662
  207MOL0     H27907  12.360   1.612  11.822 -0.5539  0.3559 -0.3615
  207MOL0     H27908  12.528   1.753  11.902 -0.3115 -0.3086  3.7610
  207MOL0     H27909  12.760   1.840  11.872  1.4010  0.4640 -1.5905
  207MOL0     H27910  12.694   1.849  12.040  0.1995 -0.5754  0.2195
  207MOL0     H27911  12.884   1.975  12.038 -4.0386  1.0268 -2.1906
  207MOL0     H27912  12.933   1.830  12.112 -1.1917  0.0897  0.2834
  207MOL0     H27913  13.066   1.743  11.935 -2.9374 -0.9313  0.0624
  207MOL0     H27914  12.979   1.831  11.807 -1.3458  0.1327  0.4088
  207MOL0     H27915  13.120   2.000  12.002  0.7860 -0.5029 -0.8047
  207MOL0     H27916  13.056   2.042  11.846 -0.4001 -0.9121 -1.7933
  207MOL0     H27917  13.298   2.017  11.819  1.1754 -0.7475 -0.4460
  207MOL0     H27918  13.227   1.885  11.731  2.6434  1.7651 -0.7415
  207MOL0     H27919  13.345   1.910  12.017  0.2349  1.5913 -0.7446
  207MOL0     H27920  13.290   1.756  11.937 -0.1150  0.1243 -2.3262
  207MOL0     H27921  13.471   1.822  11.758  1.6708 -2.8555  0.3601
  207MOL0     H27922  13.517   1.743  11.900 -0.6366  0.0538 -2.2754
  207MOL0     H27923  13.646   1.962  11.840 -0.4637  1.4898 -0.3271
  207MOL0     H27924  13.515   2.061  11.887  0.9902  0.7616 -0.8130
  207MOL0     H27925  12.802   1.412  11.927 -0.4232 -0.5835  1.2912
  207MOL0     H27926  12.646   1.284  11.802 -0.0361  0.4157 -0.1980
  207MOL0     H27927  12.174   1.394  11.677  1.6462 -0.3427  1.8321
  207MOL0     H27928  11.943   1.343  11.610 -2.7003  1.2640  1.5154
  207MOL0     H27929  10.657   0.161  11.164 -0.4271  0.7741  0.0012
  207MOL0     H27930  10.491   0.028  11.029 -1.1286 -1.4838 -2.1036
  207MOL0     H27931  10.517  -0.103  10.540 -0.0740  3.3881  2.6204
  207MOL0     H27932  10.424  -0.139  10.314 -3.6520 -1.4644 -2.5509
  207MOL0     H27933  10.046  -0.220  10.292  2.1223 -1.7129  0.9121
  207MOL0     H27934  10.129  -0.282  10.161 -2.7574 -2.1241  1.1769
  207MOL0     H27935  10.050  -0.092  10.016 -1.2532  0.8580 -0.6756
  207MOL0     H27936   9.979  -0.023  10.163  2.5352 -0.0260  1.6577
  207MOL0     H27937   9.874  -0.283  10.162 -1.2662  0.0877 -0.7063
  207MOL0     H27938   9.879  -0.242   9.988 -0.1471  1.8890 -0.7709
  207MOL0     H27939   9.768  -0.013  10.055 -0.1503  1.0004  0.2409
  207MOL0     H27940   9.676  -0.167  10.055  0.3426  0.4703 -0.0609
  207MOL0     H27941   9.654  -0.030  10.456 -2.3139  0.5834 -0.0071
  207MOL0     H27942  10.044  -0.013  10.429  1.4939  2.2129  0.0552
  207MOL0     H27943  10.089  -0.025  10.787 -0.3432 -0.1093 -0.5381
  207MOL0     H27944  10.137   0.128  10.712 -0.3073  0.4042 -0.0317
  207MOL0     H27945   9.991   0.038  10.660  0.6262  0.2660 -0.8437
  208MOL0     O27946  10.617   3.415   2.589  0.6795  0.2019  0.2352
  208MOL0     C27947  10.641   3.495   2.506  0.7503 -0.1430  0.7550
  208MOL0     O27948  10.547   3.554   2.423  0.8681  0.3617  0.1351
  208MOL0     C27949  10.416   3.533   2.443 -0.3194  1.2501  0.2731
  208MOL0     C27950  10.349   3.562   2.565  0.5456 -0.0981  0.8617
  208MOL0     C27951  10.219   3.512   2.588 -0.1156  0.1885 -0.5947
  208MOL0     C27952  10.146   3.452   2.492 -0.4483  0.4767  0.3933
  208MOL0     O27953  10.010   3.423   2.509 -0.3957 -0.6458 -0.0812
  208MOL0     C27954   9.976   3.284   2.480 -1.4169 -0.1186  0.5370
  208MOL0     C27955   9.820   3.251   2.496  0.2657 -0.8117  0.5480
  208MOL0     C27956   9.725   3.343   2.408  0.1330  0.5191 -0.4835
  208MOL0     C27957   9.582   3.296   2.388 -1.2871 -0.6061  0.2318
  208MOL0     C27958   9.509   3.263   2.524 -0.5332 -0.0080 -0.1273
  208MOL0     C27959   9.366   3.219   2.516  1.1805 -0.4009 -0.2042
  208MOL0     C27960   9.320   3.143   2.642  0.2480 -0.5373 -0.1877
  208MOL0     C27961   9.340   3.230   2.765  1.2154  0.5492 -0.0111
  208MOL0     N27962   9.253   3.183   2.873 -0.4270  0.8344  0.8296
  208MOL0     C27963   9.181   3.266   2.962  1.1203 -0.3168  0.3557
  208MOL0     C27964   9.103   3.182   3.037  0.2794 -0.8620  0.5421
  208MOL0     C27965   9.001   3.231   3.137 -0.0552 -0.1712  0.5491
  208MOL0     C27966   9.062   3.233   3.274  0.1902  0.3475  0.7436
  208MOL0     C27967   8.980   3.306   3.372  0.1080 -0.7014  0.6010
  208MOL0     C27968   9.019   3.276   3.515  1.0648  0.2100  0.4553
  208MOL0     O27969   9.144   3.345   3.522 -0.3029  0.8010  0.6964
  208MOL0     C27970   9.205   3.336   3.646  0.3200 -1.1903  1.0692
  208MOL0     C27971   9.141   3.311   3.767 -0.7108 -0.5078 -0.1854
  208MOL0     C27972   9.213   3.314   3.892  0.9481  0.8537 -0.6696
  208MOL0     C27973   9.353   3.332   3.898 -0.3045  0.5631  0.4093
  208MOL0     C27974   9.415   3.337   4.028 -0.0677  0.2045 -0.6500
  208MOL0     O27975   9.558   3.329   4.027  0.7532  0.2129  0.1791
  208MOL0     C27976   9.644   3.334   4.134  0.4711 -0.0433 -0.4080
  208MOL0     C27977   9.612   3.342   4.270  0.4369 -0.8825  1.0979
  208MOL0     C27978   9.721   3.343   4.350 -0.0163 -0.0858  0.4666
  208MOL0     C27979   9.856   3.361   4.307  0.1437  0.4848  0.1500
  208MOL0     O27980   9.951   3.402   4.402  0.7430 -0.4752  0.2395
  208MOL0     C27981  10.063   3.479   4.374 -0.4880 -0.4831  0.3556
  208MOL0     C27982  10.044   3.624   4.323 -0.1981 -0.0699  0.1137
  208MOL0     C27983  10.187   3.686   4.332 -0.6208 -0.0709 -0.7301
  208MOL0     C27984  10.179   3.832   4.285 -0.0308  1.2709 -0.8220
  208MOL0     C27985  10.308   3.916   4.302  0.3501  0.2784  0.0050
  208MOL0     C27986  10.437   3.870   4.238  0.6057  0.1779  0.5937
  208MOL0     C27987  10.554   3.910   4.309  0.5045 -0.4220 -0.5752
  208MOL0     C27988  10.693   3.882   4.251 -0.8753  0.6716  0.4227
  208MOL0    Cl27989  10.819   3.994   4.308 -0.0405  0.0628 -0.2830
  208MOL0     C27990   9.882   3.351   4.175 -0.3410  0.5312  0.5967
  208MOL0     C27991   9.783   3.328   4.086  0.3942 -1.3815  0.4167
  208MOL0     O27992   9.348   3.371   4.124  0.1034  0.0304 -0.0372
  208MOL0     C27993   9.422   3.343   3.767 -0.9632 -0.3456  0.0966
  208MOL0     C27994   9.345   3.347   3.654 -0.5402 -0.7088  0.9172
  208MOL0     N27995   9.153   3.058   3.028  0.1956  1.2208  0.1241
  208MOL0     N27996   9.224   3.053   2.911  0.0581 -0.5695 -0.7477
  208MOL0     C27997  10.210   3.435   2.365  0.3767 -1.1161 -0.1788
  208MOL0     C27998  10.343   3.472   2.335 -0.3802 -0.2584  0.1388
  208MOL0     C27999  10.779   3.534   2.477  0.5277 -0.3507  0.7373
  208MOL0     C28000  10.793   3.662   2.407 -0.2077  1.1060 -0.1728
  208MOL0     C28001  10.918   3.729   2.405 -0.3792  0.0480 -0.6496
  208MOL0     C28002  11.029   3.662   2.466 -0.3052 -1.0154  0.6700
  208MOL0     O28003  11.144   3.741   2.459 -0.1471 -0.4272  0.7261
  208MOL0     C28004  11.238   3.732   2.572 -0.5675  0.4106 -0.3519
  208MOL0     C28005  11.345   3.837   2.564  1.1897  0.0370  0.2362
  208MOL0     C28006  11.289   3.970   2.583  0.1438  0.3073  0.2189
  208MOL0     C28007  11.396   4.082   2.611  0.7912  0.6196 -0.4250
  208MOL0     C28008  11.492   4.090   2.499 -0.2175  0.1672  0.6599
  208MOL0     C28009  11.568   4.101   2.408 -0.6788  0.4241 -0.0293
  208MOL0     C28010  11.024   3.529   2.507 -0.3935 -0.0423  0.5042
  208MOL0     C28011  10.899   3.467   2.514  0.3855 -0.5162  0.3536
  208MOL0     C28012  10.901   3.334   2.587  0.1218 -0.2480 -0.2920
  208MOL0     H28013  10.396   3.612   2.649 -1.5678 -2.1347  3.4466
  208MOL0     H28014  10.172   3.522   2.686 -0.0730  0.1308 -0.5683
  208MOL0     H28015  10.000   3.257   2.377  2.3393  3.0806  0.3371
  208MOL0     H28016  10.043   3.214   2.530  0.7329  0.3295 -1.5451
  208MOL0     H28017   9.785   3.273   2.598 -1.3825  1.3724 -0.3967
  208MOL0     H28018   9.802   3.144   2.484 -0.1024 -0.7220  0.2787
  208MOL0     H28019   9.770   3.361   2.310  0.0694  1.1702 -0.3976
  208MOL0     H28020   9.708   3.440   2.454  1.9276  0.9330 -0.6187
  208MOL0     H28021   9.528   3.371   2.328 -0.9135  2.5027  3.4686
  208MOL0     H28022   9.588   3.201   2.334  2.0628 -2.7441  3.9299
  208MOL0     H28023   9.556   3.192   2.592 -2.5566 -0.6568  0.6788
  208MOL0     H28024   9.504   3.359   2.577 -2.2591 -0.3242  0.3546
  208MOL0     H28025   9.305   3.307   2.494  2.4765  0.5026 -0.3046
  208MOL0     H28026   9.347   3.160   2.426  1.6135 -0.0909 -0.5095
  208MOL0     H28027   9.385   3.055   2.642 -1.9753 -2.2604  0.6207
  208MOL0     H28028   9.215   3.112   2.631 -1.1776  2.7186  2.5299
  208MOL0     H28029   9.443   3.218   2.801  0.6464 -0.5892  1.3556
  208MOL0     H28030   9.326   3.337   2.745 -0.7113  0.7477  2.0128
  208MOL0     H28031   9.160   3.372   2.960 -0.1908 -0.4309  3.1453
  208MOL0     H28032   8.978   3.336   3.120  0.7842  0.2812  2.0589
  208MOL0     H28033   8.911   3.170   3.150 -0.3188 -0.0462 -0.5610
  208MOL0     H28034   9.066   3.126   3.297  1.7415  0.4834  1.2190
  208MOL0     H28035   9.166   3.265   3.270  0.2392  0.0666 -1.0282
  208MOL0     H28036   8.879   3.274   3.346  0.9649 -1.4966 -2.0146
  208MOL0     H28037   8.980   3.414   3.351  0.3237 -1.0449 -1.3500
  208MOL0     H28038   9.028   3.171   3.541 -2.3636  0.4142  3.0297
  208MOL0     H28039   8.939   3.312   3.580 -2.0585 -3.3846 -1.0546
  208MOL0     H28040   9.035   3.289   3.774 -0.4767 -1.4871  0.5006
  208MOL0     H28041   9.156   3.300   3.983 -1.6073 -0.7937 -2.3877
  208MOL0     H28042   9.509   3.339   4.304 -0.6947 -0.5022 -1.9945
  208MOL0     H28043   9.706   3.341   4.457  1.4045  0.4450  0.6915
  208MOL0     H28044  10.138   3.476   4.453  2.0080  0.6166 -1.8075
  208MOL0     H28045  10.110   3.441   4.283 -1.4765  1.1208 -0.8984
  208MOL0     H28046   9.987   3.619   4.230 -2.1548 -0.2607  1.2658
  208MOL0     H28047   9.972   3.680   4.383 -2.1808 -0.3980 -1.8347
  208MOL0     H28048  10.222   3.689   4.435  1.8601  1.1125 -1.5333
  208MOL0     H28049  10.252   3.624   4.270 -1.2872 -0.6384 -0.8789
  208MOL0     H28050  10.091   3.879   4.330 -0.1530  1.4944 -1.2920
  208MOL0     H28051  10.155   3.838   4.179 -4.0712  0.6677 -0.1086
  208MOL0     H28052  10.332   3.922   4.408  0.6277 -3.1863  0.2502
  208MOL0     H28053  10.283   4.013   4.259 -0.9448 -0.3893 -0.8269
  208MOL0     H28054  10.434   3.761   4.242 -0.4850  0.0305 -2.3299
  208MOL0     H28055  10.439   3.890   4.130  2.6108 -0.6307  0.4343
  208MOL0     H28056  10.566   3.867   4.409  1.5533 -1.6779 -1.2006
  208MOL0     H28057  10.546   4.018   4.323 -0.3535 -0.6026  0.4058
  208MOL0     H28058  10.723   3.777   4.265 -0.8723  0.4935 -0.8583
  208MOL0     H28059  10.676   3.889   4.143 -0.7938 -2.9974  0.0503
  208MOL0     H28060   9.982   3.367   4.135 -0.5477  0.3396 -0.0130
  208MOL0     H28061   9.799   3.315   3.979 -1.1264  1.2602 -0.2549
  208MOL0     H28062   9.529   3.361   3.761 -0.8688 -0.9707 -0.1727
  208MOL0     H28063   9.401   3.372   3.565  3.2130 -1.0389  2.9732
  208MOL0     H28064  10.157   3.396   2.279  2.6612 -1.4373 -1.5290
  208MOL0     H28065  10.394   3.458   2.240 -1.4516  1.0710 -0.6716
  208MOL0     H28066  10.710   3.720   2.368  0.0802  1.7977  0.2122
  208MOL0     H28067  10.926   3.822   2.349 -0.8830  0.8903  0.6295
  208MOL0     H28068  11.280   3.632   2.572 -3.6288 -1.0041 -0.7703
  208MOL0     H28069  11.193   3.740   2.672  3.5987  1.9142  1.6038
  208MOL0     H28070  11.393   3.837   2.466  3.7060 -0.5031  1.3909
  208MOL0     H28071  11.421   3.809   2.638  2.2334 -1.0637 -1.1783
  208MOL0     H28072  11.236   3.963   2.678 -0.5599 -0.2473 -0.2045
  208MOL0     H28073  11.216   4.001   2.507 -1.3292 -1.7061  0.7127
  208MOL0     H28074  11.349   4.179   2.633  0.9332  0.4023  0.8892
  208MOL0     H28075  11.461   4.052   2.694  1.1550 -2.6866 -1.7602
  208MOL0     H28076  11.622   4.136   2.322  1.1424 -0.5459  0.6651
  208MOL0     H28077  11.106   3.470   2.548 -1.4514 -2.6899 -0.9440
  208MOL0     H28078  10.809   3.277   2.572  0.5236 -0.3292 -2.9292
  208MOL0     H28079  10.972   3.274   2.530  1.9854  1.1732  0.4449
  208MOL0     H28080  10.929   3.332   2.693 -2.0832 -0.8082  0.3304
  209MOL0     O28081  11.140  10.268   4.359  0.0720  0.1748  0.1247
  209MOL0     C28082  11.056  10.313   4.286  0.4489  0.2590  1.1816
  209MOL0     O28083  11.089  10.393   4.181  0.9055 -0.2081 -0.0476
  209MOL0     C28084  11.214  10.456   4.179  0.1429 -0.6570 -0.1307
  209MOL0     C28085  11.268  10.511   4.302  0.5779 -0.7424  0.5699
  209MOL0     C28086  11.396  10.577   4.295  0.6528  0.2595  0.2811
  209MOL0     C28087  11.470  10.584   4.181 -0.2682  0.2235 -0.2337
  209MOL0     O28088  11.595  10.638   4.157  0.4382 -0.6584  0.7593
  209MOL0     C28089  11.646  10.684   4.282 -0.0028 -0.4658  0.5713
  209MOL0     C28090  11.787  10.747   4.281  0.2042  0.1643  1.2742
  209MOL0     C28091  11.824  10.802   4.425  0.4158 -0.0349  0.2503
  209MOL0     C28092  11.948  10.902   4.410 -0.6513  0.2582  0.3567
  209MOL0     C28093  12.076  10.820   4.454 -0.3767 -0.5505 -0.2520
  209MOL0     C28094  12.203  10.906   4.448 -0.2683  0.7530 -0.0430
  209MOL0     C28095  12.330  10.829   4.457 -0.9545  0.1668  0.1059
  209MOL0     C28096  12.456  10.922   4.455 -0.9887  0.0088  0.2401
  209MOL0     N28097  12.589  10.852   4.449 -0.3024 -0.9434  0.0045
  209MOL0     C28098  12.623  10.740   4.521 -0.2955  0.2130 -0.2001
  209MOL0     C28099  12.722  10.685   4.453  0.5225 -0.2708  0.0535
  209MOL0     C28100  12.793  10.560   4.497 -0.2065  0.0234  0.3102
  209MOL0     C28101  12.683  10.447   4.488 -0.1121  0.8551 -0.1156
  209MOL0     C28102  12.612  10.427   4.348  0.4921 -0.7764 -0.1587
  209MOL0     C28103  12.502  10.319   4.359 -0.5152 -0.0480 -0.5401
  209MOL0     O28104  12.377  10.388   4.391  0.2344 -0.1842  0.1686
  209MOL0     C28105  12.250  10.341   4.387  0.0214  0.4789 -0.2471
  209MOL0     C28106  12.146  10.432   4.419  1.1713  0.4948 -0.0633
  209MOL0     C28107  12.009  10.393   4.410 -0.6162  0.4984  0.3109
  209MOL0     C28108  11.979  10.263   4.354  0.5289  0.7135  0.0695
  209MOL0     C28109  11.832  10.219   4.351 -0.1714 -0.0487  0.7942
  209MOL0     O28110  11.802  10.131   4.246 -0.2985 -0.5173  0.1032
  209MOL0     C28111  11.669  10.103   4.222 -0.5535  1.1612  0.2898
  209MOL0     C28112  11.622   9.986   4.283 -0.0564 -0.0315 -0.0128
  209MOL0     C28113  11.491   9.948   4.282  0.1707 -0.4966 -0.1916
  209MOL0     C28114  11.409  10.017   4.195  0.3368  0.4044 -0.2059
  209MOL0     O28115  11.284   9.962   4.172  1.1541 -0.3801 -0.4548
  209MOL0     C28116  11.188   9.932   4.289 -0.5639 -0.4877  0.8002
  209MOL0     C28117  11.182   9.785   4.285  0.3065 -0.4136  0.3785
  209MOL0     C28118  11.111   9.717   4.402 -0.5346 -0.4702  0.6305
  209MOL0     C28119  10.954   9.721   4.377 -0.1571 -0.3817  0.9654
  209MOL0     C28120  10.869   9.651   4.486  0.1746 -0.2075  0.2460
  209MOL0     C28121  10.720   9.641   4.462 -0.4633 -0.7099  0.0283
  209MOL0     C28122  10.653   9.786   4.450 -0.4464 -0.0792  0.7546
  209MOL0     C28123  10.502   9.776   4.484 -0.6476  0.7536 -0.2732
  209MOL0    Cl28124  10.423   9.644   4.387  0.0401 -0.0404  0.4327
  209MOL0     C28125  11.442  10.146   4.139 -0.2956  0.6418 -0.3063
  209MOL0     C28126  11.574  10.185   4.164  0.8637 -0.2931 -0.0238
  209MOL0     O28127  11.751  10.253   4.436  0.7940  1.0800  0.2625
  209MOL0     C28128  12.088  10.176   4.321  0.3486 -0.8815  0.3333
  209MOL0     C28129  12.215  10.217   4.336  0.1057 -0.4384  0.1722
  209MOL0     N28130  12.747  10.761   4.339  0.5200  0.0911  0.2335
  209MOL0     N28131  12.666  10.852   4.334  0.2050 -0.2448 -0.5934
  209MOL0     C28132  11.416  10.526   4.069  0.9283 -0.7284  0.4745
  209MOL0     C28133  11.291  10.464   4.056  0.8952  0.0760  0.2221
  209MOL0     C28134  10.920  10.250   4.288  0.8268 -0.1188 -0.7444
  209MOL0     C28135  10.851  10.244   4.170  0.0039 -0.1865  0.2862
  209MOL0     C28136  10.724  10.200   4.162  0.7491  0.5464  0.5051
  209MOL0     C28137  10.655  10.147   4.268 -0.1094 -0.3911  0.5206
  209MOL0     O28138  10.526  10.107   4.249 -0.1190 -0.0370 -0.0089
  209MOL0     C28139  10.434  10.150   4.349 -0.2076  0.7360  0.6353
  209MOL0     C28140  10.300  10.084   4.342 -0.3900 -0.2075  0.1504
  209MOL0     C28141  10.219  10.130   4.464 -0.0394  0.5368  0.6829
  209MOL0     C28142  10.267  10.067   4.596  0.1116 -0.0667  0.4765
  209MOL0     C28143  10.168  10.082   4.698  0.0658 -0.5249 -0.5567
  209MOL0     C28144  10.085  10.084   4.784 -0.2482  0.7381  0.4403
  209MOL0     C28145  10.731  10.140   4.389  0.4676  0.6236  0.0610
  209MOL0     C28146  10.851  10.198   4.399 -0.0805 -0.4729  0.0656
  209MOL0     C28147  10.901  10.198   4.544 -0.7358 -0.4795 -0.8749
  209MOL0     H28148  11.209  10.512   4.392 -0.5523 -0.0717 -0.1521
  209MOL0     H28149  11.423  10.628   4.387 -1.1551  2.5526 -0.3601
  209MOL0     H28150  11.583  10.763   4.324  1.8527  1.4107 -0.0049
  209MOL0     H28151  11.657  10.604   4.356  0.3552  0.2381  1.3046
  209MOL0     H28152  11.781  10.832   4.213 -0.7689 -1.1155 -0.3335
  209MOL0     H28153  11.862  10.671   4.253  0.0075  0.3916  0.0909
  209MOL0     H28154  11.848  10.723   4.497 -1.5446 -1.9510 -1.0706
  209MOL0     H28155  11.744  10.860   4.473  0.2828  2.2419 -2.4741
  209MOL0     H28156  11.967  10.942   4.310  1.4850 -1.9441 -0.2254
  209MOL0     H28157  11.942  10.982   4.485 -0.1099  1.1030 -0.4809
  209MOL0     H28158  12.068  10.762   4.546  0.2397 -1.0518 -0.5095
  209MOL0     H28159  12.094  10.739   4.383 -0.4999  0.2399 -1.2012
  209MOL0     H28160  12.193  10.969   4.360 -1.4188  1.4888  0.5829
  209MOL0     H28161  12.211  10.978   4.530  2.3270  1.1597 -0.5867
  209MOL0     H28162  12.342  10.761   4.372 -0.4923 -2.0289  1.8386
  209MOL0     H28163  12.323  10.761   4.543 -0.7891  1.0653  0.8444
  209MOL0     H28164  12.457  10.999   4.377  2.1400  0.4326  0.5687
  209MOL0     H28165  12.453  10.982   4.547 -0.5431 -0.8652  0.8328
  209MOL0     H28166  12.591  10.711   4.620 -3.2722 -0.6104 -1.3032
  209MOL0     H28167  12.869  10.530   4.424  1.5701  1.0025  1.6741
  209MOL0     H28168  12.845  10.574   4.593 -0.4694  2.1786  0.1686
  209MOL0     H28169  12.717  10.352   4.531 -4.6104 -0.7812  0.3347
  209MOL0     H28170  12.615  10.484   4.566 -0.0261 -0.0937  0.4227
  209MOL0     H28171  12.692  10.387   4.285  0.7775  0.2384 -0.4564
  209MOL0     H28172  12.562  10.517   4.311 -0.4947 -1.6322 -0.9556
  209MOL0     H28173  12.535  10.250   4.437 -0.6631  1.7865  1.2339
  209MOL0     H28174  12.487  10.266   4.265 -1.1946 -0.6540 -0.1008
  209MOL0     H28175  12.178  10.534   4.440  0.8342  0.5380  0.2432
  209MOL0     H28176  11.928  10.461   4.430  0.9437  4.2354 -4.1781
  209MOL0     H28177  11.691   9.919   4.335 -2.2171 -0.7985  2.0192
  209MOL0     H28178  11.455   9.862   4.338  1.5384  0.0384  1.6355
  209MOL0     H28179  11.224   9.966   4.386 -0.4206  1.0271  0.2397
  209MOL0     H28180  11.092   9.973   4.256  1.2827  2.0409 -1.9952
  209MOL0     H28181  11.135   9.743   4.196  2.2081 -1.4445 -0.2041
  209MOL0     H28182  11.281   9.737   4.289  0.1947 -0.6363  0.5088
  209MOL0     H28183  11.136   9.611   4.410 -1.3386 -0.7094  0.1652
  209MOL0     H28184  11.148   9.760   4.495  2.7590  3.3354 -2.0960
  209MOL0     H28185  10.938   9.692   4.273 -2.1372 -0.4082  1.2275
  209MOL0     H28186  10.926   9.827   4.370 -0.0242 -0.4771 -2.4815
  209MOL0     H28187  10.896   9.716   4.569 -1.3660  2.0647 -0.9288
  209MOL0     H28188  10.912   9.553   4.507  0.6328  0.2454  1.4873
  209MOL0     H28189  10.706   9.594   4.364  0.6026  2.1393 -1.6017
  209MOL0     H28190  10.664   9.590   4.541 -1.0088 -0.9393 -0.4961
  209MOL0     H28191  10.671   9.836   4.354  3.7494 -0.7260  1.0570
  209MOL0     H28192  10.695   9.861   4.518  1.3782 -1.1090  0.8066
  209MOL0     H28193  10.486   9.735   4.584  0.2305 -1.5651 -1.0192
  209MOL0     H28194  10.455   9.875   4.482  1.5166  1.8983  0.8940
  209MOL0     H28195  11.378  10.200   4.070  0.7452  0.8058 -1.1777
  209MOL0     H28196  11.607  10.271   4.108  1.6613 -2.1235 -2.5217
  209MOL0     H28197  12.061  10.074   4.298  1.8096 -0.3216 -5.2673
  209MOL0     H28198  12.287  10.141   4.307 -1.4406 -3.3740  3.3388
  209MOL0     H28199  11.472  10.526   3.976  1.6109  0.5908  0.8560
  209MOL0     H28200  11.247  10.419   3.968 -2.5913  2.7051  0.3745
  209MOL0     H28201  10.901  10.277   4.080 -0.9198 -0.9469 -0.5238
  209MOL0     H28202  10.670  10.216   4.069 -0.1433  1.5839  1.1831
  209MOL0     H28203  10.423  10.258   4.344  0.7705  0.8002 -0.6786
  209MOL0     H28204  10.471  10.133   4.451 -0.4495  1.2078  0.8035
  209MOL0     H28205  10.317   9.977   4.330 -2.6698 -0.8650  2.0597
  209MOL0     H28206  10.244  10.117   4.253  0.3127  0.4308 -0.0689
  209MOL0     H28207  10.115  10.105   4.440 -0.7440  2.3511  1.6530
  209MOL0     H28208  10.228  10.239   4.470 -0.1055  0.5965 -0.2300
  209MOL0     H28209  10.286   9.961   4.576 -1.0148 -0.1204 -0.4685
  209MOL0     H28210  10.361  10.114   4.623  0.6259 -1.2673  0.8200
  209MOL0     H28211   9.998  10.093   4.846 -1.3083  1.8498 -1.1353
  209MOL0     H28212  10.683  10.099   4.478  2.9818  1.6417  2.0214
  209MOL0     H28213  10.975  10.277   4.554 -0.0477 -1.0366 -1.4036
  209MOL0     H28214  10.832  10.215   4.627 -0.4755 -1.0542 -0.5359
  209MOL0     H28215  10.947  10.101   4.564 -0.0916 -0.4587 -2.1312
  210MOL0     O28216   5.915   5.837   2.640 -0.1058  0.1410  0.0992
  210MOL0     C28217   5.877   5.837   2.760  0.2126  0.5430 -0.4987
  210MOL0     O28218   5.957   5.824   2.867  0.0599  0.0546  0.0960
  210MOL0     C28219   6.090   5.802   2.839  0.8749  0.7035 -0.8166
  210MOL0     C28220   6.131   5.685   2.770 -0.2132  0.0516 -0.9178
  210MOL0     C28221   6.269   5.667   2.764  0.2466  0.6502 -0.1276
  210MOL0     C28222   6.367   5.749   2.816  0.1623 -0.8138 -0.1984
  210MOL0     O28223   6.507   5.720   2.797 -0.0829  0.4281 -0.1827
  210MOL0     C28224   6.596   5.817   2.851 -0.2671  0.4037  0.2154
  210MOL0     C28225   6.742   5.795   2.803 -0.1993  0.3787  0.2868
  210MOL0     C28226   6.759   5.822   2.656 -0.7910 -0.2385  0.7805
  210MOL0     C28227   6.892   5.770   2.596 -0.5015  0.4164  0.9522
  210MOL0     C28228   6.901   5.789   2.444 -0.7964 -0.7986  0.6251
  210MOL0     C28229   7.038   5.743   2.391  0.5958 -0.5189  0.1547
  210MOL0     C28230   7.062   5.775   2.239 -0.0993  0.1082  0.0187
  210MOL0     C28231   7.211   5.780   2.218  0.1754 -0.2041  0.2107
  210MOL0     N28232   7.283   5.655   2.235 -0.5198  0.1838  0.4021
  210MOL0     C28233   7.420   5.650   2.270  0.1921 -0.0823 -0.7877
  210MOL0     C28234   7.468   5.538   2.218 -0.6724  0.1887 -0.2366
  210MOL0     C28235   7.602   5.490   2.210 -0.2122  0.3309  0.6359
  210MOL0     C28236   7.699   5.586   2.152 -0.0987 -0.5421 -0.1852
  210MOL0     C28237   7.845   5.530   2.167 -0.5981 -0.7049  0.2575
  210MOL0     C28238   7.955   5.612   2.095 -0.8967  0.7117 -0.4250
  210MOL0     O28239   8.062   5.515   2.092 -0.0352  0.0642 -0.1694
  210MOL0     C28240   8.167   5.528   2.177 -0.2800  0.1223 -0.9019
  210MOL0     C28241   8.286   5.466   2.138 -0.5371  0.0381  0.0233
  210MOL0     C28242   8.395   5.472   2.231  0.0756  0.9252  0.3664
  210MOL0     C28243   8.379   5.507   2.360 -0.2607  0.5062  1.3289
  210MOL0     C28244   8.483   5.486   2.466 -0.6856  0.0450  1.1258
  210MOL0     O28245   8.452   5.520   2.595 -0.0987 -0.8329  0.4369
  210MOL0     C28246   8.548   5.483   2.683 -0.7522  0.2488 -0.4419
  210MOL0     C28247   8.511   5.391   2.782  0.7386 -0.0183 -0.1398
  210MOL0     C28248   8.605   5.355   2.868  0.3324  0.3870 -0.8057
  210MOL0     C28249   8.739   5.399   2.857 -0.1209 -0.2060 -0.3006
  210MOL0     O28250   8.841   5.345   2.941 -0.2634  0.0181  0.3170
  210MOL0     C28251   8.902   5.232   2.885  0.1310  0.7075 -0.4186
  210MOL0     C28252   8.997   5.168   2.976 -0.2308  0.5907 -0.1430
  210MOL0     C28253   9.098   5.272   3.024 -0.1419 -0.4357 -0.2191
  210MOL0     C28254   9.161   5.239   3.158  0.9720  0.3440  1.1998
  210MOL0     C28255   9.272   5.338   3.179 -0.1956  1.3533 -0.2398
  210MOL0     C28256   9.238   5.461   3.264  0.8738  0.1879  0.6287
  210MOL0     C28257   9.324   5.583   3.240  0.0556 -0.6880  0.1205
  210MOL0     C28258   9.275   5.699   3.334  0.4061 -0.2376  0.4453
  210MOL0    Cl28259   9.103   5.759   3.296  0.3491  0.1807 -0.0921
  210MOL0     C28260   8.771   5.503   2.773 -0.5008  0.5273 -0.1324
  210MOL0     C28261   8.677   5.543   2.681 -0.4954 -0.4279 -0.7329
  210MOL0     O28262   8.599   5.454   2.425 -0.0199  0.8905  0.8633
  210MOL0     C28263   8.264   5.580   2.394  0.5371 -0.6606  0.0779
  210MOL0     C28264   8.167   5.601   2.294  0.5727 -0.4783  0.5583
  210MOL0     N28265   7.358   5.471   2.152 -0.2313 -0.4820 -1.1005
  210MOL0     N28266   7.249   5.538   2.168  0.4086 -0.1313  0.0764
  210MOL0     C28267   6.317   5.870   2.885  0.8056 -0.5261  0.2823
  210MOL0     C28268   6.178   5.885   2.903 -0.4352 -0.7640  0.2056
  210MOL0     C28269   5.726   5.827   2.790  0.6012 -0.1986  0.5684
  210MOL0     C28270   5.687   5.799   2.920  0.0486 -0.7199  0.6697
  210MOL0     C28271   5.553   5.779   2.951  0.0216 -0.6004 -0.2551
  210MOL0     C28272   5.456   5.783   2.853  0.9284 -0.8796 -0.0161
  210MOL0     O28273   5.320   5.754   2.872  0.2234 -0.4252  0.3086
  210MOL0     C28274   5.292   5.701   2.999  0.4499  0.2331  0.7938
  210MOL0     C28275   5.142   5.663   2.993 -0.2236  0.1983  0.3848
  210MOL0     C28276   5.088   5.623   2.852  1.4037  0.2639  0.4919
  210MOL0     C28277   4.944   5.601   2.861  0.0948  0.0261 -0.6845
  210MOL0     C28278   4.891   5.574   2.732  0.5578  0.4866 -0.1775
  210MOL0     C28279   4.855   5.574   2.611  0.3842  0.4785 -0.1696
  210MOL0     C28280   5.489   5.826   2.729  0.2520  0.2561 -0.2427
  210MOL0     C28281   5.620   5.848   2.694  0.2237  0.2596 -1.2848
  210MOL0     C28282   5.653   5.894   2.553 -0.3986 -0.1215  0.0379
  210MOL0     H28283   6.066   5.613   2.722 -0.7106  0.5602 -1.0090
  210MOL0     H28284   6.312   5.585   2.707 -0.3877 -0.5331  1.0586
  210MOL0     H28285   6.569   5.920   2.825  3.2219  0.4598 -4.7822
  210MOL0     H28286   6.598   5.803   2.959  0.9419  4.1167  0.8219
  210MOL0     H28287   6.770   5.693   2.832  2.4537  1.5730  2.3549
  210MOL0     H28288   6.823   5.854   2.846  2.9471 -2.1176 -1.7305
  210MOL0     H28289   6.757   5.930   2.635  1.0365 -0.6521 -2.1063
  210MOL0     H28290   6.670   5.783   2.605  0.2115 -2.0521  0.3759
  210MOL0     H28291   6.976   5.821   2.644 -1.4206  2.3561  0.5905
  210MOL0     H28292   6.883   5.661   2.610 -0.0860  0.0461 -1.2466
  210MOL0     H28293   6.823   5.723   2.407  0.6174 -0.6691 -2.9863
  210MOL0     H28294   6.900   5.896   2.421 -0.3432 -0.6024  1.4764
  210MOL0     H28295   7.121   5.779   2.453  2.8725 -1.4893 -2.1540
  210MOL0     H28296   7.036   5.635   2.410 -1.5326 -0.3377  1.2826
  210MOL0     H28297   7.015   5.867   2.202 -1.0472 -0.0229  0.8363
  210MOL0     H28298   7.026   5.693   2.177  1.7543 -0.5436 -0.2431
  210MOL0     H28299   7.239   5.822   2.120  1.0143 -0.0853  0.4906
  210MOL0     H28300   7.255   5.845   2.294 -0.1901 -0.2376  0.4539
  210MOL0     H28301   7.478   5.727   2.321 -0.3366 -0.8543  1.0883
  210MOL0     H28302   7.630   5.468   2.314  1.0498  1.2194  0.5116
  210MOL0     H28303   7.596   5.399   2.150 -1.4494  0.6455  0.2625
  210MOL0     H28304   7.669   5.603   2.049 -1.4613 -4.1921 -0.5372
  210MOL0     H28305   7.698   5.683   2.202  1.3636  0.6561 -2.3593
  210MOL0     H28306   7.838   5.433   2.116 -2.2643 -2.4082  3.3691
  210MOL0     H28307   7.862   5.512   2.274  0.8265 -1.5935 -0.0930
  210MOL0     H28308   7.980   5.708   2.141 -0.7569  0.5738 -0.2111
  210MOL0     H28309   7.923   5.633   1.993  0.3999 -1.0945 -1.2392
  210MOL0     H28310   8.288   5.417   2.041 -1.3092 -0.6210  0.3328
  210MOL0     H28311   8.487   5.424   2.198 -0.7341 -0.7729  0.4571
  210MOL0     H28312   8.408   5.358   2.775  0.7071  0.2326 -1.0270
  210MOL0     H28313   8.593   5.283   2.948 -1.4556  0.0147 -1.3707
  210MOL0     H28314   8.825   5.158   2.863  0.5381  0.3299 -0.5922
  210MOL0     H28315   8.940   5.251   2.784  0.3115 -1.9074 -0.9104
  210MOL0     H28316   8.947   5.128   3.065  0.8741 -1.8917 -0.5667
  210MOL0     H28317   9.039   5.086   2.917 -4.1370 -0.0422 -2.3969
  210MOL0     H28318   9.172   5.274   2.942  1.9901  0.6179  1.6128
  210MOL0     H28319   9.051   5.370   3.025  0.3655 -0.1160 -2.3088
  210MOL0     H28320   9.211   5.141   3.156  2.6814  1.1758  1.0829
  210MOL0     H28321   9.083   5.237   3.235  1.0091  2.0390  1.2987
  210MOL0     H28322   9.324   5.363   3.086  1.3101 -0.0058  0.1833
  210MOL0     H28323   9.359   5.295   3.230 -0.0683 -0.0222 -1.5639
  210MOL0     H28324   9.135   5.480   3.233  1.7309 -0.1719 -2.9788
  210MOL0     H28325   9.226   5.446   3.371  1.4356  3.4363  1.2583
  210MOL0     H28326   9.333   5.608   3.134 -1.3288  1.2469  0.3987
  210MOL0     H28327   9.425   5.557   3.273  0.4201  1.0610  0.4850
  210MOL0     H28328   9.277   5.659   3.436 -1.4301  0.5685  0.8422
  210MOL0     H28329   9.343   5.785   3.330 -0.4517  0.3997 -2.2656
  210MOL0     H28330   8.876   5.532   2.780 -0.3085 -0.4208  1.1742
  210MOL0     H28331   8.713   5.610   2.604 -1.0610  0.0620 -0.5835
  210MOL0     H28332   8.247   5.622   2.492 -3.2409 -2.6055  0.4369
  210MOL0     H28333   8.073   5.651   2.318 -0.4261 -0.1917 -3.3126
  210MOL0     H28334   6.371   5.956   2.924 -1.2875 -0.1453  2.5821
  210MOL0     H28335   6.135   5.966   2.962 -2.1286 -1.3269 -0.2269
  210MOL0     H28336   5.757   5.791   3.004  0.1833  4.3485  1.3407
  210MOL0     H28337   5.534   5.772   3.058  1.4003 -0.7347  0.0096
  210MOL0     H28338   5.299   5.773   3.081  2.2853 -1.0699  1.8473
  210MOL0     H28339   5.353   5.612   3.017  1.0322 -0.3632 -3.2050
  210MOL0     H28340   5.088   5.748   3.036  0.5900  0.3901  1.0560
  210MOL0     H28341   5.115   5.592   3.072 -2.7175 -1.8793 -2.1338
  210MOL0     H28342   5.126   5.526   2.817  0.4790  0.2794 -0.6247
  210MOL0     H28343   5.110   5.700   2.778  1.2456  0.2102  0.3881
  210MOL0     H28344   4.914   5.533   2.941  3.3303  1.1835  1.7484
  210MOL0     H28345   4.901   5.700   2.882 -1.4646 -0.3885 -1.7170
  210MOL0     H28346   4.824   5.567   2.509 -0.5894  1.3156  0.0509
  210MOL0     H28347   5.408   5.838   2.658 -0.0225 -1.0782 -0.1751
  210MOL0     H28348   5.567   5.922   2.491  1.2141 -0.3125 -2.4176
  210MOL0     H28349   5.729   5.972   2.546 -0.1924 -0.4808 -3.4214
  210MOL0     H28350   5.698   5.808   2.503  0.0005 -0.0758  0.3121
  211MOL0     O28351   3.296   5.996   7.816  0.5830 -0.3019  0.4761
  211MOL0     C28352   3.208   5.914   7.842 -0.7454  0.4382 -0.1361
  211MOL0     O28353   3.237   5.797   7.904 -0.3490  0.2831 -0.2646
  211MOL0     C28354   3.367   5.750   7.910  0.4730  0.9187  0.2701
  211MOL0     C28355   3.446   5.711   7.802 -0.8644  0.2846  0.0264
  211MOL0     C28356   3.576   5.679   7.825 -1.1932  0.1659  0.3034
  211MOL0     C28357   3.624   5.666   7.958 -0.9475  0.6919 -0.0038
  211MOL0     O28358   3.764   5.633   7.962  0.1416  0.0501 -0.1635
  211MOL0     C28359   3.842   5.716   8.038  0.6718 -0.3503 -0.0777
  211MOL0     C28360   3.989   5.672   8.028  0.2028 -0.1964 -0.2703
  211MOL0     C28361   4.046   5.688   7.888 -0.7881 -0.6266 -0.3870
  211MOL0     C28362   4.175   5.604   7.870 -0.1392  0.3855 -0.4451
  211MOL0     C28363   4.290   5.628   7.979  0.9873  0.6947 -0.1309
  211MOL0     C28364   4.410   5.527   7.978 -1.8725 -0.0305  0.2011
  211MOL0     C28365   4.522   5.570   8.081 -0.6395 -0.4222 -0.0154
  211MOL0     C28366   4.637   5.472   8.094 -0.1292  0.3861 -0.5883
  211MOL0     N28367   4.718   5.507   8.212  0.2417 -0.6364  0.2755
  211MOL0     C28368   4.687   5.480   8.344 -0.2472  0.2396 -0.4195
  211MOL0     C28369   4.810   5.486   8.409  0.2232 -0.5894 -0.6105
  211MOL0     C28370   4.842   5.470   8.555 -0.9164  0.5579 -0.1394
  211MOL0     C28371   4.857   5.605   8.632 -0.2524 -0.2978 -0.7346
  211MOL0     C28372   4.720   5.668   8.664  0.7149 -0.5676 -0.6896
  211MOL0     C28373   4.734   5.818   8.685  0.1009 -0.0041 -0.0244
  211MOL0     O28374   4.612   5.886   8.670  0.5304 -0.5945  0.1442
  211MOL0     C28375   4.512   5.892   8.764  0.3011 -0.1642 -0.9833
  211MOL0     C28376   4.415   5.996   8.747  0.3393 -0.0476  0.7575
  211MOL0     C28377   4.306   5.998   8.838  0.5350 -0.0590  0.4227
  211MOL0     C28378   4.303   5.910   8.952 -0.9084  0.8336 -0.4347
  211MOL0     C28379   4.185   5.914   9.042 -0.2287  0.1183  0.0076
  211MOL0     O28380   4.105   6.025   9.029 -0.1138  0.1646  0.1554
  211MOL0     C28381   4.034   6.053   9.145 -0.2434 -0.3068  0.0717
  211MOL0     C28382   3.898   6.056   9.141  0.0933  0.1851 -0.2018
  211MOL0     C28383   3.835   6.086   9.261  0.1962  0.3880 -0.0052
  211MOL0     C28384   3.897   6.101   9.378 -0.9375  0.3994  0.2537
  211MOL0     O28385   3.816   6.121   9.481  0.6099 -0.4528 -0.0669
  211MOL0     C28386   3.863   6.211   9.573  0.2619  0.4130  0.7824
  211MOL0     C28387   3.734   6.247   9.656  0.1098 -0.7721 -0.5615
  211MOL0     C28388   3.680   6.141   9.746  0.9832  0.5449 -0.4696
  211MOL0     C28389   3.629   6.187   9.886  0.3823 -0.2147 -0.3789
  211MOL0     C28390   3.482   6.217   9.875  0.2538  0.0258  0.3686
  211MOL0     C28391   3.459   6.375   9.846  0.5857 -0.7202 -0.6874
  211MOL0     C28392   3.476   6.461   9.970 -0.7765 -0.2433  0.4415
  211MOL0     C28393   3.492   6.609   9.927 -0.3319  0.4313  0.2652
  211MOL0    Cl28394   3.655   6.650   9.855  0.1645 -0.2849 -0.4107
  211MOL0     C28395   4.037   6.095   9.387 -0.7195 -0.3373  0.0985
  211MOL0     C28396   4.107   6.072   9.269  0.4206 -0.0174 -0.1730
  211MOL0     O28397   4.168   5.827   9.120 -0.2785 -0.1788 -0.1261
  211MOL0     C28398   4.411   5.825   8.970  0.3951  0.7855  0.6274
  211MOL0     C28399   4.507   5.810   8.875 -0.0312 -0.3214  0.0249
  211MOL0     N28400   4.912   5.521   8.316 -0.1993  0.0317 -0.0951
  211MOL0     N28401   4.854   5.544   8.198  0.5808  0.8913 -0.4796
  211MOL0     C28402   3.538   5.702   8.069  0.0991 -0.1706  0.3996
  211MOL0     C28403   3.410   5.740   8.042 -0.5266  0.2645 -0.5663
  211MOL0     C28404   3.070   5.941   7.816 -0.2930  1.1414 -0.6066
  211MOL0     C28405   2.967   5.866   7.888  0.1453 -0.0574 -0.2513
  211MOL0     C28406   2.834   5.917   7.866 -0.6917  1.4622 -0.9611
  211MOL0     C28407   2.806   6.011   7.787  0.0058  0.6392  0.5393
  211MOL0     O28408   2.674   6.050   7.778 -0.1603  0.8509  0.1054
  211MOL0     C28409   2.655   6.188   7.742 -0.6768  0.7817  0.0745
  211MOL0     C28410   2.520   6.236   7.784  0.6464 -0.1252  0.0066
  211MOL0     C28411   2.402   6.145   7.750 -0.2114  0.5877  0.0483
  211MOL0     C28412   2.264   6.213   7.754 -0.5763 -0.1100 -0.4886
  211MOL0     C28413   2.224   6.254   7.897 -0.7726  0.6479 -0.5360
  211MOL0     C28414   2.183   6.280   8.010 -0.0365 -0.6534 -0.2438
  211MOL0     C28415   2.903   6.059   7.701  0.1008 -0.1275  0.0566
  211MOL0     C28416   3.031   6.031   7.718 -0.2667 -0.2872 -1.1782
  211MOL0     C28417   3.130   6.102   7.625  0.4466 -0.2647  0.1002
  211MOL0     H28418   3.418   5.700   7.698  1.0846  0.5272 -0.5739
  211MOL0     H28419   3.629   5.667   7.731 -0.6511 -0.9313  0.7347
  211MOL0     H28420   3.816   5.813   7.995 -1.7027 -0.7032  0.4225
  211MOL0     H28421   3.818   5.710   8.145  1.0038 -2.7462 -0.0780
  211MOL0     H28422   3.996   5.569   8.062 -3.9047 -0.8746 -1.0704
  211MOL0     H28423   4.046   5.734   8.098 -1.1886 -1.2351  1.8656
  211MOL0     H28424   4.076   5.793   7.877 -0.5850 -0.2503  2.8697
  211MOL0     H28425   3.975   5.676   7.805  0.8998 -0.6751 -1.8978
  211MOL0     H28426   4.156   5.496   7.875  1.7558 -0.3309 -4.6569
  211MOL0     H28427   4.225   5.638   7.779  3.4871 -1.1411  0.8162
  211MOL0     H28428   4.321   5.733   7.969 -1.4011  1.4264 -0.4244
  211MOL0     H28429   4.241   5.613   8.075  0.8970  2.1784  0.0822
  211MOL0     H28430   4.374   5.424   7.990 -1.5181 -0.2688 -0.7019
  211MOL0     H28431   4.459   5.534   7.881  1.1125  2.2159  1.7217
  211MOL0     H28432   4.477   5.584   8.179 -0.4752 -3.7414  0.6694
  211MOL0     H28433   4.554   5.671   8.054 -4.2647  0.9985  0.4849
  211MOL0     H28434   4.600   5.375   8.130 -0.1309  0.9848  1.1157
  211MOL0     H28435   4.689   5.451   8.001  1.7699 -0.9595  0.7187
  211MOL0     H28436   4.589   5.459   8.386  0.1147  0.3565  0.5176
  211MOL0     H28437   4.759   5.410   8.594 -1.6157  2.0864  0.8270
  211MOL0     H28438   4.940   5.422   8.569 -1.0942  0.4924  0.9416
  211MOL0     H28439   4.924   5.590   8.717 -0.3742  0.7201 -0.4451
  211MOL0     H28440   4.911   5.671   8.563 -2.3481  0.3239 -1.8847
  211MOL0     H28441   4.683   5.622   8.756 -2.8810  1.1834 -1.0811
  211MOL0     H28442   4.652   5.653   8.579 -0.7842 -1.3273  0.5904
  211MOL0     H28443   4.795   5.866   8.607 -1.3636  1.0614 -0.5724
  211MOL0     H28444   4.781   5.835   8.782 -2.7783  0.5117  1.3682
  211MOL0     H28445   4.435   6.085   8.689 -0.2689  0.8117  1.8514
  211MOL0     H28446   4.219   6.061   8.827  0.5447 -0.1911 -0.4399
  211MOL0     H28447   3.839   6.049   9.050  2.1332 -0.4956 -1.5403
  211MOL0     H28448   3.727   6.098   9.259  0.2251  1.2876 -3.7302
  211MOL0     H28449   3.933   6.161   9.641  0.5553 -0.9107 -0.4571
  211MOL0     H28450   3.908   6.301   9.531 -0.8587  0.4524 -0.3716
  211MOL0     H28451   3.759   6.330   9.723  2.6099 -0.6811 -1.4805
  211MOL0     H28452   3.653   6.280   9.589  1.1044 -0.1773 -1.5168
  211MOL0     H28453   3.602   6.084   9.695 -1.7497  1.6701  2.1352
  211MOL0     H28454   3.769   6.080   9.765  0.9488  0.7132  0.2836
  211MOL0     H28455   3.688   6.261   9.941 -3.0492  1.8148  0.9015
  211MOL0     H28456   3.639   6.099   9.950  0.1846  0.4092  0.5371
  211MOL0     H28457   3.426   6.193   9.966 -1.4648  2.7531  0.1632
  211MOL0     H28458   3.444   6.156   9.793  0.4217 -1.6261  1.4644
  211MOL0     H28459   3.521   6.417   9.766  0.1312  3.1866  0.7645
  211MOL0     H28460   3.356   6.397   9.814  0.1289 -0.6443  0.7843
  211MOL0     H28461   3.560   6.438  10.036  0.3836 -1.6337 -1.4161
  211MOL0     H28462   3.381   6.465  10.023 -0.6478 -0.7669  0.7188
  211MOL0     H28463   3.412   6.646   9.861  0.3547  1.4275 -0.0268
  211MOL0     H28464   3.491   6.660  10.023 -1.7718 -2.3718  1.8796
  211MOL0     H28465   4.089   6.108   9.482  0.8595  0.0071 -0.7789
  211MOL0     H28466   4.215   6.081   9.279  0.5776 -0.4101 -1.3994
  211MOL0     H28467   4.409   5.753   9.051 -1.6414  0.6096  0.4954
  211MOL0     H28468   4.581   5.731   8.882  0.3170 -0.5490 -4.0856
  211MOL0     H28469   3.576   5.694   8.170  2.0022 -0.6599 -0.2980
  211MOL0     H28470   3.346   5.779   8.120  1.6666  0.8830  1.0197
  211MOL0     H28471   2.985   5.790   7.963 -1.6255  0.3998  0.7017
  211MOL0     H28472   2.758   5.862   7.920  0.3377  0.6165 -0.3188
  211MOL0     H28473   2.672   6.203   7.635 -0.0863  0.4249  0.1134
  211MOL0     H28474   2.732   6.254   7.783 -0.4211  1.8944 -2.0974
  211MOL0     H28475   2.498   6.329   7.730 -3.1801 -2.1897 -2.4297
  211MOL0     H28476   2.525   6.237   7.894  2.5156 -1.9175 -0.0253
  211MOL0     H28477   2.390   6.074   7.832  1.3045  2.2834  1.8353
  211MOL0     H28478   2.414   6.104   7.649  0.1037 -1.2298  0.7879
  211MOL0     H28479   2.247   6.287   7.675  1.8633  0.6280 -0.3935
  211MOL0     H28480   2.189   6.138   7.728 -0.0909 -0.0290 -2.2414
  211MOL0     H28481   2.144   6.294   8.109 -2.7903  2.1374 -1.5149
  211MOL0     H28482   2.873   6.122   7.618 -1.4708  1.1363  1.5409
  211MOL0     H28483   3.070   6.168   7.562  0.2603 -0.9302 -0.4394
  211MOL0     H28484   3.206   6.166   7.671  1.3448  1.2079 -3.1342
  211MOL0     H28485   3.186   6.028   7.566  0.4530  0.4650 -0.8242
  212MOL0     O28486   5.306   1.585   2.722 -0.6717 -0.3940  0.5261
  212MOL0     C28487   5.297   1.547   2.837  0.4838 -1.2133 -0.7710
  212MOL0     O28488   5.393   1.570   2.933 -0.5056  0.3735 -0.1145
  212MOL0     C28489   5.516   1.612   2.882  0.9925 -0.5008 -0.4980
  212MOL0     C28490   5.556   1.741   2.917  0.0878  1.0056  0.2321
  212MOL0     C28491   5.692   1.779   2.893 -0.3062 -0.3760  0.6172
  212MOL0     C28492   5.772   1.711   2.797  0.6268  0.3105  0.1661
  212MOL0     O28493   5.868   1.779   2.726 -0.0126 -0.0388  0.3467
  212MOL0     C28494   5.962   1.712   2.637  0.4317 -0.3303  0.6295
  212MOL0     C28495   6.060   1.800   2.571 -0.9591  0.7653 -0.1193
  212MOL0     C28496   5.985   1.899   2.486 -0.4919 -1.0429  1.3142
  212MOL0     C28497   6.026   1.897   2.332  0.1742 -0.2638  0.8908
  212MOL0     C28498   6.167   1.949   2.314 -0.2155  0.1714  0.0015
  212MOL0     C28499   6.175   2.054   2.211 -0.1145 -0.3077  0.1506
  212MOL0     C28500   6.313   2.122   2.210 -0.0690  0.0475  0.4234
  212MOL0     C28501   6.360   2.209   2.322 -1.0912 -0.1254  0.6800
  212MOL0     N28502   6.485   2.265   2.279 -0.1145  0.2067 -0.1067
  212MOL0     C28503   6.607   2.209   2.267  0.6582  0.0862  0.2980
  212MOL0     C28504   6.681   2.300   2.215  0.1197 -0.3708 -0.0321
  212MOL0     C28505   6.825   2.299   2.183  0.1358 -0.4416  0.1107
  212MOL0     C28506   6.904   2.421   2.232  0.0276 -0.2659 -0.2721
  212MOL0     C28507   6.878   2.444   2.383  0.2691 -0.1161 -0.6630
  212MOL0     C28508   6.980   2.559   2.428 -0.1664  0.0498 -0.6762
  212MOL0     O28509   6.966   2.576   2.567  0.4871  0.3311  0.3597
  212MOL0     C28510   7.089   2.620   2.624 -0.2099  0.1580  0.0080
  212MOL0     C28511   7.150   2.735   2.574  1.0480  0.4415  0.8846
  212MOL0     C28512   7.274   2.774   2.622  0.1141  0.4333 -0.0828
  212MOL0     C28513   7.336   2.702   2.724  0.4100  0.7060 -0.1459
  212MOL0     C28514   7.462   2.749   2.768 -0.5705  0.0702 -0.5217
  212MOL0     O28515   7.529   2.835   2.689 -0.5024  0.5307 -0.4100
  212MOL0     C28516   7.668   2.831   2.700 -0.5833 -0.4943  0.1183
  212MOL0     C28517   7.727   2.935   2.622 -0.0252  0.4547 -0.0933
  212MOL0     C28518   7.868   2.944   2.591  0.4897 -0.2024  0.2347
  212MOL0     C28519   7.952   2.849   2.652 -0.3892 -0.1772 -0.6232
  212MOL0     O28520   8.088   2.873   2.636 -0.6446 -0.2258  0.4747
  212MOL0     C28521   8.162   2.891   2.760  0.5157 -0.2314  0.3717
  212MOL0     C28522   8.290   2.962   2.732  0.5436 -0.0758 -0.5734
  212MOL0     C28523   8.273   3.114   2.749 -0.5572  0.0772 -0.2206
  212MOL0     C28524   8.173   3.181   2.661  0.4154 -0.7381  0.2486
  212MOL0     C28525   8.240   3.234   2.535 -0.4862  0.5980  0.7083
  212MOL0     C28526   8.153   3.339   2.474 -0.2844 -0.4150  0.0751
  212MOL0     C28527   8.235   3.375   2.348 -0.0547 -0.2861  0.5841
  212MOL0     C28528   8.170   3.470   2.247 -0.1594  0.6679 -0.4400
  212MOL0    Cl28529   8.001   3.421   2.197 -0.2749  0.1217 -0.0987
  212MOL0     C28530   7.903   2.745   2.714 -0.1730 -0.1821  0.0699
  212MOL0     C28531   7.762   2.737   2.742  0.4616  0.0622 -0.2023
  212MOL0     O28532   7.498   2.698   2.876 -0.1666 -0.3721  0.4436
  212MOL0     C28533   7.274   2.582   2.772 -0.1522 -0.5487 -1.0423
  212MOL0     C28534   7.146   2.539   2.722 -0.0268 -1.2216 -0.4339
  212MOL0     N28535   6.609   2.415   2.207 -0.0821 -0.3829 -0.2569
  212MOL0     N28536   6.493   2.400   2.251 -0.5185  0.8909  0.2652
  212MOL0     C28537   5.723   1.581   2.761  0.4223  0.6409 -0.8750
  212MOL0     C28538   5.602   1.533   2.809  0.3129  0.2832 -0.2482
  212MOL0     C28539   5.170   1.478   2.869 -0.4907 -0.5710  0.3615
  212MOL0     C28540   5.162   1.390   2.979  0.6352  0.5529 -0.1397
  212MOL0     C28541   5.049   1.317   3.012  0.4096  0.0821 -0.6125
  212MOL0     C28542   4.930   1.319   2.940  0.1171  0.7201 -0.8180
  212MOL0     O28543   4.819   1.267   2.993 -0.5418 -0.7790  0.7517
  212MOL0     C28544   4.693   1.256   2.922  0.2600  0.1277  0.2367
  212MOL0     C28545   4.579   1.215   3.007  0.5192  0.4668  0.2370
  212MOL0     C28546   4.449   1.227   2.935  0.6131  1.3380  0.9629
  212MOL0     C28547   4.329   1.186   3.020 -0.0387 -0.4608 -0.2814
  212MOL0     C28548   4.262   1.075   2.957  1.1802 -0.8597  0.6928
  212MOL0     C28549   4.220   0.967   2.917 -0.0966 -0.7597  0.0453
  212MOL0     C28550   4.932   1.403   2.826 -0.6165  0.2343  0.5497
  212MOL0     C28551   5.045   1.481   2.787  0.7882 -0.7584 -0.3114
  212MOL0     C28552   5.021   1.571   2.667 -0.4878  1.0686  1.0358
  212MOL0     H28553   5.500   1.802   2.988  0.1753 -1.3811  2.4750
  212MOL0     H28554   5.724   1.875   2.932 -0.7973 -0.3046  0.8581
  212MOL0     H28555   6.016   1.632   2.689  1.0728  0.8250  1.7813
  212MOL0     H28556   5.905   1.656   2.561 -0.5890  1.2587  0.1773
  212MOL0     H28557   6.124   1.741   2.506  1.2061  0.6221  1.9879
  212MOL0     H28558   6.129   1.851   2.640  0.5118  1.6811 -2.1892
  212MOL0     H28559   6.012   1.998   2.525 -1.1719 -0.1908 -0.2738
  212MOL0     H28560   5.877   1.883   2.490 -0.4790 -1.1720  1.1683
  212MOL0     H28561   6.023   1.791   2.305 -0.3162  0.0561 -0.3891
  212MOL0     H28562   5.951   1.946   2.268  0.7848 -2.4922 -1.7484
  212MOL0     H28563   6.204   1.996   2.406  0.8246  1.9750 -1.2752
  212MOL0     H28564   6.232   1.865   2.285 -1.1836 -0.3158 -0.8139
  212MOL0     H28565   6.163   1.999   2.117  1.2032 -1.4939  0.6428
  212MOL0     H28566   6.110   2.141   2.229 -0.9380 -0.8601 -0.1112
  212MOL0     H28567   6.298   2.184   2.120 -1.3133 -0.7715  0.0347
  212MOL0     H28568   6.382   2.042   2.183 -1.3886  0.1550 -4.0691
  212MOL0     H28569   6.292   2.292   2.343 -0.8344  0.0569  0.8051
  212MOL0     H28570   6.375   2.144   2.408  4.2077  2.8297  2.4183
  212MOL0     H28571   6.636   2.104   2.277  0.2431 -0.0604 -0.0402
  212MOL0     H28572   6.869   2.208   2.226  2.4531  0.7678  0.4366
  212MOL0     H28573   6.836   2.297   2.074  1.5761 -0.5116  0.2422
  212MOL0     H28574   7.010   2.406   2.210  0.4173  3.0600 -1.1878
  212MOL0     H28575   6.874   2.508   2.173  2.6839 -1.9685 -4.6364
  212MOL0     H28576   6.907   2.352   2.436  1.3871  0.3170 -0.5103
  212MOL0     H28577   6.773   2.461   2.409  0.0015 -0.1032 -1.7232
  212MOL0     H28578   6.954   2.656   2.383  0.8727  0.8440  0.3967
  212MOL0     H28579   7.084   2.528   2.420  0.1322 -0.1287  2.6376
  212MOL0     H28580   7.108   2.778   2.484  1.5338 -0.2267  0.3265
  212MOL0     H28581   7.319   2.860   2.575 -1.1014  1.8538  1.2379
  212MOL0     H28582   7.648   2.999   2.585 -2.5515 -2.4564 -0.1715
  212MOL0     H28583   7.903   3.031   2.537 -2.9433  0.6658 -0.8807
  212MOL0     H28584   8.105   2.954   2.829  0.8175 -1.1418  1.4896
  212MOL0     H28585   8.173   2.795   2.813 -2.6890  1.5396  4.9010
  212MOL0     H28586   8.361   2.929   2.808 -0.1267 -1.7230 -0.6179
  212MOL0     H28587   8.337   2.938   2.636 -0.6989 -1.5409 -0.8499
  212MOL0     H28588   8.227   3.121   2.848 -1.9609 -1.1935 -0.7459
  212MOL0     H28589   8.373   3.157   2.743 -0.4577 -0.3538 -2.0420
  212MOL0     H28590   8.134   3.262   2.724  0.2076  0.8750 -1.8115
  212MOL0     H28591   8.085   3.126   2.627  1.4149 -3.0616  1.2014
  212MOL0     H28592   8.251   3.152   2.464 -0.2800  1.6975 -0.5755
  212MOL0     H28593   8.337   3.280   2.556  0.1610  0.5992 -1.8995
  212MOL0     H28594   8.058   3.290   2.451  0.3478 -1.5665 -0.1594
  212MOL0     H28595   8.134   3.432   2.529 -0.7963 -1.7780  2.3386
  212MOL0     H28596   8.277   3.288   2.297  1.1972  0.8679 -0.4076
  212MOL0     H28597   8.327   3.426   2.377 -2.1147  3.6625  0.8557
  212MOL0     H28598   8.167   3.565   2.301 -2.1301  0.3243  0.1143
  212MOL0     H28599   8.232   3.485   2.157 -0.1279  1.3010 -0.3173
  212MOL0     H28600   7.966   2.671   2.763 -2.4588 -3.2751 -1.3628
  212MOL0     H28601   7.720   2.649   2.790  0.9239  0.3722  0.7828
  212MOL0     H28602   7.323   2.524   2.850  0.4988  1.4470  0.0853
  212MOL0     H28603   7.098   2.452   2.765  1.3830 -2.0307 -0.4387
  212MOL0     H28604   5.783   1.520   2.694  1.9460  1.0675  0.0552
  212MOL0     H28605   5.571   1.430   2.797 -1.7639  0.2196  3.9575
  212MOL0     H28606   5.246   1.378   3.047 -1.3568  2.2003  2.8203
  212MOL0     H28607   5.063   1.261   3.105  0.8897 -1.1263 -1.3866
  212MOL0     H28608   4.704   1.184   2.841  0.5498 -0.4819  0.8006
  212MOL0     H28609   4.669   1.353   2.877 -1.2894  0.2645  1.2710
  212MOL0     H28610   4.578   1.271   3.101 -0.2825  2.6976 -1.0129
  212MOL0     H28611   4.595   1.108   3.025  1.9252  0.1776 -2.2737
  212MOL0     H28612   4.452   1.150   2.857  0.0809 -0.7769  2.9202
  212MOL0     H28613   4.431   1.321   2.882 -3.9675  0.3688  0.3534
  212MOL0     H28614   4.379   1.176   3.117  2.0941  1.2525 -1.1066
  212MOL0     H28615   4.253   1.264   3.031  0.5553  0.4290 -2.0048
  212MOL0     H28616   4.193   0.871   2.879  3.5077 -2.9556  2.3731
  212MOL0     H28617   4.839   1.417   2.771 -0.6233  0.4195  0.6063
  212MOL0     H28618   5.021   1.675   2.701 -0.9988  0.6160  2.4720
  212MOL0     H28619   5.097   1.551   2.590 -1.2084 -2.3744  1.0670
  212MOL0     H28620   4.924   1.539   2.631 -1.1363  4.2047 -0.4034
  213MOL0     O28621   6.418   3.810   5.207 -0.4820 -0.6584  0.1549
  213MOL0     C28622   6.398   3.688   5.191 -0.2146 -0.2653  0.4150
  213MOL0     O28623   6.499   3.602   5.192 -1.1164  0.5202 -0.3703
  213MOL0     C28624   6.625   3.633   5.236 -0.1598 -0.4541  0.8348
  213MOL0     C28625   6.729   3.594   5.163  0.1321  0.1463 -0.2887
  213MOL0     C28626   6.858   3.607   5.216  0.6955 -0.8639  0.4797
  213MOL0     C28627   6.878   3.682   5.329 -0.9651 -1.3560  0.0381
  213MOL0     O28628   6.994   3.673   5.394 -0.1286  0.1949  0.0685
  213MOL0     C28629   7.076   3.787   5.391 -0.6416 -0.5265  0.9722
  213MOL0     C28630   7.218   3.739   5.385 -0.1984 -0.5579 -0.5310
  213MOL0     C28631   7.327   3.852   5.389  0.0764  0.6046 -0.3987
  213MOL0     C28632   7.319   3.918   5.524 -0.2300  1.0579  0.4538
  213MOL0     C28633   7.424   4.024   5.555 -0.3523  0.5739 -0.1937
  213MOL0     C28634   7.391   4.155   5.492 -0.5555 -0.0319  0.2879
  213MOL0     C28635   7.508   4.256   5.501  0.0444  1.0839  0.4015
  213MOL0     C28636   7.555   4.289   5.641  0.1739  0.7878  0.4696
  213MOL0     N28637   7.680   4.366   5.637 -0.6283 -0.2002 -0.1667
  213MOL0     C28638   7.759   4.398   5.745  0.3140 -0.6182 -0.1534
  213MOL0     C28639   7.849   4.479   5.695  0.4699  0.2830  0.2442
  213MOL0     C28640   7.957   4.547   5.780 -0.4659 -0.6686 -0.4133
  213MOL0     C28641   8.095   4.487   5.772  0.3413 -0.1931  0.3806
  213MOL0     C28642   8.180   4.564   5.874 -0.1491  0.2231 -0.9823
  213MOL0     C28643   8.320   4.503   5.897 -0.0279  0.8370  0.6923
  213MOL0     O28644   8.392   4.500   5.768 -1.6174  0.3898 -0.4598
  213MOL0     C28645   8.490   4.406   5.754 -0.3881  0.2925  0.0087
  213MOL0     C28646   8.556   4.422   5.636  0.2983  0.4967 -0.4821
  213MOL0     C28647   8.667   4.339   5.608 -1.0935  0.2291  0.2477
  213MOL0     C28648   8.717   4.241   5.694 -0.6141  0.2030  0.2748
  213MOL0     C28649   8.839   4.164   5.664  0.0682 -0.1912 -0.3574
  213MOL0     O28650   8.919   4.208   5.559 -0.0871  0.7864 -0.3723
  213MOL0     C28651   9.040   4.158   5.508  0.3577  0.4238 -0.4851
  213MOL0     C28652   9.150   4.135   5.598  0.1692  0.5251 -0.0009
  213MOL0     C28653   9.273   4.094   5.547  0.3695 -0.7667  0.4514
  213MOL0     C28654   9.283   4.053   5.416 -0.8527  0.4878  0.2956
  213MOL0     O28655   9.410   4.004   5.395 -0.2741  0.0214 -0.1187
  213MOL0     C28656   9.414   3.880   5.324 -0.5197  0.7370  0.0244
  213MOL0     C28657   9.546   3.800   5.366 -0.3555 -0.2241  0.1181
  213MOL0     C28658   9.549   3.746   5.508  0.5621 -1.2726  0.0342
  213MOL0     C28659   9.450   3.642   5.556 -0.5324 -0.5789  0.7524
  213MOL0     C28660   9.462   3.601   5.710  0.3960  0.0205 -0.3779
  213MOL0     C28661   9.457   3.704   5.818  0.3289  0.4062 -0.8404
  213MOL0     C28662   9.329   3.787   5.806 -0.2276 -0.4326  0.1366
  213MOL0     C28663   9.324   3.907   5.913  0.4514  0.6859  0.0921
  213MOL0    Cl28664   9.444   4.031   5.867  0.1816 -0.1192 -0.0736
  213MOL0     C28665   9.182   4.063   5.332 -1.9874 -1.0022  0.5850
  213MOL0     C28666   9.064   4.123   5.373  0.1085  0.7204 -0.4462
  213MOL0     O28667   8.861   4.065   5.733  0.8122  0.3172  0.9511
  213MOL0     C28668   8.659   4.229   5.816  0.2513 -0.2702  0.4453
  213MOL0     C28669   8.550   4.318   5.847 -0.8657 -0.5673 -0.9915
  213MOL0     N28670   7.822   4.503   5.560  0.1864 -0.0621  0.0696
  213MOL0     N28671   7.722   4.433   5.529 -0.3422 -0.4278 -0.0096
  213MOL0     C28672   6.773   3.739   5.406  0.1834 -0.3292  0.4810
  213MOL0     C28673   6.651   3.714   5.354  0.4870  0.3613  0.5865
  213MOL0     C28674   6.256   3.640   5.164  0.0963  0.2728 -0.4096
  213MOL0     C28675   6.240   3.500   5.175  0.0471  0.0683 -0.2033
  213MOL0     C28676   6.115   3.448   5.159 -0.0986 -0.8052 -0.0893
  213MOL0     C28677   5.999   3.522   5.147  0.5351 -0.2669  0.9961
  213MOL0     O28678   5.874   3.456   5.135 -0.6643 -0.2177  0.2060
  213MOL0     C28679   5.788   3.502   5.032  0.1333 -0.0722  0.1198
  213MOL0     C28680   5.675   3.396   5.024  0.5392 -0.3519  0.1357
  213MOL0     C28681   5.565   3.411   5.127  0.6315  0.2939 -0.0178
  213MOL0     C28682   5.443   3.330   5.090 -0.5876  0.6606 -0.0811
  213MOL0     C28683   5.319   3.397   5.116  0.1165  0.3045  0.2611
  213MOL0     C28684   5.212   3.449   5.142 -0.2096 -0.4660 -0.0676
  213MOL0     C28685   6.019   3.654   5.136 -0.1439  0.0113  0.0766
  213MOL0     C28686   6.145   3.718   5.138 -1.0902  0.8730  0.3080
  213MOL0     C28687   6.146   3.857   5.098  0.2520 -0.2396  0.0160
  213MOL0     H28688   6.718   3.556   5.062  2.3985  0.9269 -0.8814
  213MOL0     H28689   6.945   3.563   5.170 -0.0281 -3.2897  1.2788
  213MOL0     H28690   7.057   3.848   5.302  0.3795 -1.0959  0.3472
  213MOL0     H28691   7.051   3.856   5.472  2.3547  1.0127  0.7128
  213MOL0     H28692   7.235   3.683   5.293  0.9995  0.9504 -1.2784
  213MOL0     H28693   7.241   3.670   5.466 -0.3194 -0.2605 -0.2438
  213MOL0     H28694   7.309   3.932   5.317  0.0116  1.2455  0.3259
  213MOL0     H28695   7.428   3.811   5.373  0.1516 -0.0522  1.4719
  213MOL0     H28696   7.218   3.956   5.545  0.1985  1.1707  2.5414
  213MOL0     H28697   7.351   3.840   5.594  3.0482  1.6945 -0.1980
  213MOL0     H28698   7.429   4.029   5.664 -1.9258  2.1235 -0.1481
  213MOL0     H28699   7.521   3.996   5.513 -0.8397  0.9054 -1.6072
  213MOL0     H28700   7.372   4.122   5.390 -1.2261 -0.2673  0.4790
  213MOL0     H28701   7.298   4.192   5.538  0.8970  1.8479  1.8891
  213MOL0     H28702   7.482   4.346   5.444 -2.4321 -0.8179 -1.7237
  213MOL0     H28703   7.596   4.224   5.445 -0.3179  0.8721 -0.0500
  213MOL0     H28704   7.473   4.354   5.672 -1.3586  0.2663 -2.1711
  213MOL0     H28705   7.571   4.200   5.702 -1.9404  0.6026  0.8241
  213MOL0     H28706   7.742   4.371   5.849 -1.7198  0.3467 -0.1918
  213MOL0     H28707   7.956   4.648   5.738  1.5562 -1.0807 -1.6026
  213MOL0     H28708   7.927   4.544   5.885  1.8189 -5.4685  0.3553
  213MOL0     H28709   8.095   4.380   5.795  1.0454 -0.0785  0.9731
  213MOL0     H28710   8.139   4.511   5.675  0.8393 -2.0122  0.1145
  213MOL0     H28711   8.127   4.568   5.970 -1.6857  2.0840 -1.8380
  213MOL0     H28712   8.187   4.666   5.836 -5.6386  1.5542  0.6838
  213MOL0     H28713   8.310   4.405   5.944  0.9434 -0.6418 -1.9475
  213MOL0     H28714   8.375   4.565   5.968  1.4705 -0.5617  0.7982
  213MOL0     H28715   8.521   4.492   5.561  1.1546  1.9445  0.4228
  213MOL0     H28716   8.706   4.345   5.507 -2.3194  2.1229 -0.1781
  213MOL0     H28717   9.131   4.172   5.698 -0.2169  1.7119 -0.4986
  213MOL0     H28718   9.361   4.077   5.607  1.5645  0.8480 -0.7496
  213MOL0     H28719   9.331   3.814   5.353 -0.0724  0.8003  1.5251
  213MOL0     H28720   9.405   3.905   5.218  0.3021  2.1465  0.2640
  213MOL0     H28721   9.561   3.720   5.293 -2.9746  0.2694 -1.0817
  213MOL0     H28722   9.631   3.868   5.353 -1.5449  0.9968 -1.7947
  213MOL0     H28723   9.648   3.702   5.526  1.0206  0.4221  2.0457
  213MOL0     H28724   9.546   3.832   5.575  1.7901 -2.3475  1.5417
  213MOL0     H28725   9.456   3.554   5.490  0.2803  0.2653 -0.3374
  213MOL0     H28726   9.354   3.679   5.520  0.9238  0.8498 -2.0127
  213MOL0     H28727   9.558   3.552   5.725 -0.0175 -1.0136 -1.0326
  213MOL0     H28728   9.385   3.528   5.736 -0.3866  1.4584  1.6667
  213MOL0     H28729   9.467   3.648   5.911  0.0661 -1.1280 -1.6899
  213MOL0     H28730   9.547   3.765   5.816  1.1407 -0.6945 -3.5336
  213MOL0     H28731   9.240   3.726   5.825 -0.9023  0.5181  0.1134
  213MOL0     H28732   9.316   3.834   5.708  1.0379 -1.1997 -0.4248
  213MOL0     H28733   9.223   3.950   5.914 -0.5218 -1.4332  0.9361
  213MOL0     H28734   9.332   3.862   6.013 -1.6110 -0.8555 -0.3596
  213MOL0     H28735   9.196   4.034   5.228  1.3006  1.3333  0.1935
  213MOL0     H28736   8.981   4.142   5.305  0.1629  0.7119 -0.5163
  213MOL0     H28737   8.696   4.161   5.892  1.3671  1.0005  1.0690
  213MOL0     H28738   8.523   4.325   5.952  2.1894  1.6389 -0.2270
  213MOL0     H28739   6.792   3.795   5.497 -2.8555 -0.5354  1.3735
  213MOL0     H28740   6.564   3.760   5.400  0.3915 -1.9731  2.9292
  213MOL0     H28741   6.317   3.432   5.211  0.2868 -0.4398 -1.6104
  213MOL0     H28742   6.110   3.340   5.169 -1.8870 -0.8018 -0.4987
  213MOL0     H28743   5.844   3.494   4.938  1.4197  0.7338  0.7909
  213MOL0     H28744   5.749   3.602   5.052 -0.7412 -1.0533  4.0485
  213MOL0     H28745   5.725   3.300   5.038  2.6964  0.3237 -2.1890
  213MOL0     H28746   5.630   3.399   4.924  0.3778  0.9243  0.2270
  213MOL0     H28747   5.543   3.518   5.140  1.1753  0.3249  0.7152
  213MOL0     H28748   5.604   3.372   5.222 -0.2741 -0.4316  0.0701
  213MOL0     H28749   5.453   3.284   4.991 -0.0788  0.0135  0.2647
  213MOL0     H28750   5.470   3.247   5.155 -0.2291  1.2667  0.5573
  213MOL0     H28751   5.124   3.505   5.163  0.5740  0.8553 -0.2104
  213MOL0     H28752   5.929   3.710   5.115  0.0046  0.0746 -0.4145
  213MOL0     H28753   6.049   3.881   5.053  0.5284  0.6647 -0.1182
  213MOL0     H28754   6.172   3.923   5.181  0.1672 -0.7749  0.4757
  213MOL0     H28755   6.217   3.876   5.017 -0.7829  1.8464 -0.4776
  214MOL0     O28756   3.394  10.349   0.611 -0.2342 -0.1610 -0.3981
  214MOL0     C28757   3.416  10.325   0.495  0.7928 -0.4544 -0.6134
  214MOL0     O28758   3.516  10.252   0.438  0.0338 -0.5178  0.3181
  214MOL0     C28759   3.641  10.223   0.497  0.2996 -1.0711 -0.2858
  214MOL0     C28760   3.725  10.158   0.410  0.2510 -0.3348  0.5779
  214MOL0     C28761   3.859  10.121   0.447 -0.3108 -0.4748 -0.6796
  214MOL0     C28762   3.906  10.156   0.568  0.2054  0.3473 -0.1272
  214MOL0     O28763   4.027  10.115   0.606 -0.5605  0.1515  0.3763
  214MOL0     C28764   4.126  10.188   0.678  0.6715  0.8683 -0.8318
  214MOL0     C28765   4.170  10.309   0.595  0.4782  0.1071 -0.8385
  214MOL0     C28766   4.314  10.366   0.628  0.0150 -0.0385  0.3963
  214MOL0     C28767   4.340  10.502   0.554  0.5492 -0.3447 -0.1244
  214MOL0     C28768   4.479  10.554   0.600  0.2788 -0.0460 -0.5109
  214MOL0     C28769   4.479  10.622   0.741 -0.5771 -0.4188  0.0832
  214MOL0     C28770   4.599  10.716   0.773  0.1952 -0.0090  0.1383
  214MOL0     C28771   4.571  10.790   0.903 -0.2049 -0.3078  0.1024
  214MOL0     N28772   4.689  10.821   0.977 -0.2648 -0.1690 -1.0750
  214MOL0     C28773   4.710  10.955   1.028  0.0867 -0.8243 -1.3798
  214MOL0     C28774   4.773  10.934   1.150  0.7202  0.5138 -0.2986
  214MOL0     C28775   4.799  11.045   1.246  0.8059 -0.7337 -0.1783
  214MOL0     C28776   4.902  11.017   1.343 -0.1401 -0.6496 -0.8671
  214MOL0     C28777   4.916  11.148   1.424 -0.7735  0.1218 -0.2594
  214MOL0     C28778   5.037  11.135   1.519 -1.5747  0.8567  0.0662
  214MOL0     O28779   5.073  11.263   1.569  0.0331  0.1538 -0.4364
  214MOL0     C28780   4.994  11.329   1.663 -0.3829  0.4119  0.0951
  214MOL0     C28781   4.953  11.264   1.779 -0.2045 -0.5818 -0.6720
  214MOL0     C28782   4.873  11.337   1.873 -0.3269  0.0905  0.2101
  214MOL0     C28783   4.825  11.465   1.845  0.4238 -1.4761  0.3062
  214MOL0     C28784   4.750  11.544   1.948 -0.2440  0.0729  0.3863
  214MOL0     O28785   4.703  11.667   1.910  0.4259 -0.2507  0.1185
  214MOL0     C28786   4.669  11.772   1.998 -0.1086  0.2915  0.0372
  214MOL0     C28787   4.747  11.793   2.116  0.4067  0.8808  1.6825
  214MOL0     C28788   4.722  11.902   2.197  0.4374 -0.3798 -0.5365
  214MOL0     C28789   4.614  11.991   2.171  0.5067 -0.5694  0.6118
  214MOL0     O28790   4.584  12.085   2.264  0.6370 -0.3539 -0.1481
  214MOL0     C28791   4.458  12.155   2.256 -0.3270  0.9846  0.1356
  214MOL0     C28792   4.325  12.071   2.278  0.4230 -0.8350 -0.6788
  214MOL0     C28793   4.212  12.170   2.320  0.4104  0.6147 -0.9748
  214MOL0     C28794   4.092  12.096   2.381 -0.1809  0.4289  0.0681
  214MOL0     C28795   3.975  12.199   2.413 -0.3691 -0.4136 -0.0531
  214MOL0     C28796   4.011  12.272   2.548 -0.7087  0.3480  0.6934
  214MOL0     C28797   3.897  12.336   2.625 -0.6836 -0.0037 -0.4398
  214MOL0     C28798   3.809  12.426   2.547 -0.3184 -0.3921 -0.3952
  214MOL0    Cl28799   3.669  12.352   2.474 -0.2523  0.4731 -0.2935
  214MOL0     C28800   4.537  11.965   2.053  0.2012 -0.6586 -0.4773
  214MOL0     C28801   4.566  11.858   1.972  0.5866  0.7800 -0.4828
  214MOL0     O28802   4.738  11.489   2.059 -0.3635 -1.0569 -0.3123
  214MOL0     C28803   4.860  11.525   1.727 -0.1797  0.5904  1.3705
  214MOL0     C28804   4.953  11.459   1.635 -0.0420  0.0621  0.1966
  214MOL0     N28805   4.803  10.796   1.167 -0.2106 -0.9660  0.7928
  214MOL0     N28806   4.747  10.732   1.069 -0.1152 -0.1536  0.3668
  214MOL0     C28807   3.827  10.238   0.647  0.0979 -0.3196  0.0488
  214MOL0     C28808   3.692  10.265   0.619  0.1295 -0.2214 -0.1031
  214MOL0     C28809   3.317  10.388   0.403  0.6275 -0.3431 -0.4050
  214MOL0     C28810   3.178  10.380   0.442  0.2973  0.0511 -0.3459
  214MOL0     C28811   3.078  10.422   0.354  0.3648  1.4217 -0.2390
  214MOL0     C28812   3.113  10.476   0.236 -0.5697  0.5671 -0.0532
  214MOL0     O28813   3.021  10.515   0.135 -0.3816 -0.7339 -0.7201
  214MOL0     C28814   2.887  10.539   0.183  0.4282  0.2751 -0.0759
  214MOL0     C28815   2.801  10.640   0.106  0.3588  0.8928  0.5979
  214MOL0     C28816   2.879  10.772   0.122 -0.0342 -0.3336 -0.1340
  214MOL0     C28817   2.805  10.884   0.044  0.2865  0.7741  0.0397
  214MOL0     C28818   2.674  10.918   0.087 -0.5495  0.4354  0.3230
  214MOL0     C28819   2.563  10.936   0.115  0.7677  0.3353 -0.4103
  214MOL0     C28820   3.247  10.486   0.190  0.5033 -0.2157 -1.7470
  214MOL0     C28821   3.351  10.442   0.269 -0.5214 -0.1240 -0.5734
  214MOL0     C28822   3.487  10.438   0.205 -0.3671  0.4787 -0.4763
  214MOL0     H28823   3.696  10.141   0.307 -1.3302  1.6741  0.6145
  214MOL0     H28824   3.915  10.054   0.383  1.8096 -0.0773  0.6724
  214MOL0     H28825   4.081  10.215   0.774  0.0471  0.7185 -1.0804
  214MOL0     H28826   4.211  10.120   0.689 -0.6899 -0.5776  1.8018
  214MOL0     H28827   4.093  10.385   0.609 -1.1363 -1.2693 -1.9715
  214MOL0     H28828   4.158  10.291   0.488 -1.1158  2.7785 -1.1934
  214MOL0     H28829   4.389  10.291   0.600  2.3566  2.4630 -0.3509
  214MOL0     H28830   4.321  10.387   0.735  0.6561 -0.5353  0.4598
  214MOL0     H28831   4.353  10.488   0.446 -1.0648  0.0182 -0.3909
  214MOL0     H28832   4.257  10.572   0.567 -0.3217 -1.4360  0.3759
  214MOL0     H28833   4.565  10.487   0.593 -0.1025 -0.6816  0.7146
  214MOL0     H28834   4.512  10.637   0.536 -2.5831  1.4965 -0.1615
  214MOL0     H28835   4.397  10.694   0.734 -0.0430  0.1868 -0.0369
  214MOL0     H28836   4.460  10.553   0.824 -2.0275 -0.5530 -0.3251
  214MOL0     H28837   4.602  10.795   0.697  1.1448 -2.3773 -2.4774
  214MOL0     H28838   4.695  10.664   0.773 -0.4546 -1.3210 -1.8313
  214MOL0     H28839   4.516  10.880   0.877 -1.8303 -1.1758  0.4015
  214MOL0     H28840   4.511  10.725   0.968 -0.6391 -0.1200 -0.1042
  214MOL0     H28841   4.668  11.049   0.991 -1.5965 -0.3062  1.5516
  214MOL0     H28842   4.825  11.126   1.177  2.6201 -0.3169  0.9321
  214MOL0     H28843   4.708  11.082   1.294  0.5777  0.3566 -1.3985
  214MOL0     H28844   4.876  10.938   1.414  1.1059  0.9171  1.4270
  214MOL0     H28845   4.983  10.972   1.284 -5.1957 -5.9193 -4.9560
  214MOL0     H28846   4.821  11.169   1.475 -1.1596  1.9263 -1.6302
  214MOL0     H28847   4.941  11.230   1.357  2.1683 -0.1398  0.3942
  214MOL0     H28848   5.122  11.097   1.463 -1.4115  1.6706 -0.2555
  214MOL0     H28849   5.023  11.062   1.600  2.1016 -0.5511 -0.3963
  214MOL0     H28850   4.987  11.162   1.794  1.5057 -0.0377 -0.6346
  214MOL0     H28851   4.839  11.284   1.961 -1.7975  0.5360 -0.0625
  214MOL0     H28852   4.817  11.711   2.132  0.2956  0.9303  2.4414
  214MOL0     H28853   4.789  11.930   2.278  4.0356 -2.1344 -2.6375
  214MOL0     H28854   4.478  12.227   2.337 -1.1800  1.5585 -0.1466
  214MOL0     H28855   4.452  12.205   2.159 -1.3332 -0.6216 -0.6593
  214MOL0     H28856   4.288  12.018   2.189  0.4509  2.2716 -2.7470
  214MOL0     H28857   4.325  12.002   2.362 -2.0650  1.6260  1.5314
  214MOL0     H28858   4.264  12.241   2.386  2.0167 -0.6113 -0.8738
  214MOL0     H28859   4.184  12.238   2.239  4.4625  1.9011 -1.5638
  214MOL0     H28860   4.121  12.035   2.467 -0.2262 -1.2571 -1.0708
  214MOL0     H28861   4.058  12.019   2.312 -0.4453  0.8798 -0.3137
  214MOL0     H28862   3.878  12.149   2.421 -0.4973 -0.3200 -0.8830
  214MOL0     H28863   3.972  12.274   2.333  2.8674 -0.0698  0.0192
  214MOL0     H28864   4.063  12.202   2.615 -1.7527 -0.2077  0.9451
  214MOL0     H28865   4.089  12.345   2.521 -0.8953  0.8873  1.6035
  214MOL0     H28866   3.945  12.388   2.708 -0.4620  0.8509 -1.0855
  214MOL0     H28867   3.830  12.262   2.670  0.7420  0.3831  2.5458
  214MOL0     H28868   3.770  12.500   2.617  2.2226 -0.0161  0.7340
  214MOL0     H28869   3.854  12.480   2.463 -1.9443  0.3889 -0.8102
  214MOL0     H28870   4.456  12.033   2.026  0.1116  0.1115  1.5630
  214MOL0     H28871   4.513  11.850   1.878  1.6450  1.9033 -1.2027
  214MOL0     H28872   4.839  11.626   1.693  1.1567  1.5543  3.2374
  214MOL0     H28873   4.967  11.502   1.536  0.1339 -0.6560 -0.0969
  214MOL0     H28874   3.870  10.276   0.739 -0.0407 -2.1895  0.9278
  214MOL0     H28875   3.630  10.314   0.694  1.5150  1.3935  0.0388
  214MOL0     H28876   3.136  10.324   0.525 -1.3806 -1.5589 -2.1566
  214MOL0     H28877   2.972  10.415   0.378 -0.2252 -1.5072 -3.0658
  214MOL0     H28878   2.886  10.588   0.281  1.1075  2.1613 -0.9673
  214MOL0     H28879   2.834  10.443   0.180 -1.5673  1.3322 -0.6266
  214MOL0     H28880   2.698  10.645   0.143  0.3064 -0.6757  0.7302
  214MOL0     H28881   2.799  10.605   0.002 -1.8612 -1.8245  1.4111
  214MOL0     H28882   2.981  10.780   0.081 -0.5956  0.4383 -1.4487
  214MOL0     H28883   2.887  10.798   0.228  2.4343 -0.9399 -0.1028
  214MOL0     H28884   2.848  10.984   0.057 -2.6017  2.3141 -1.2916
  214MOL0     H28885   2.802  10.863  -0.064 -4.9891  1.6211 -0.2353
  214MOL0     H28886   2.459  10.954   0.133  0.6036 -0.1476 -0.8241
  214MOL0     H28887   3.258  10.540   0.097 -0.8418  4.9970  0.7317
  214MOL0     H28888   3.561  10.467   0.280 -0.8367 -2.2267  1.1608
  214MOL0     H28889   3.513  10.337   0.174  1.8470 -0.2013  3.0438
  214MOL0     H28890   3.488  10.509   0.122  0.9381  1.4433  0.3329
  215MOL0     O28891   5.429   2.272   6.510 -0.4794 -0.6396  0.1786
  215MOL0     C28892   5.477   2.179   6.578 -0.2591 -1.0678  0.2610
  215MOL0     O28893   5.596   2.126   6.554 -0.7760 -0.6674 -0.2024
  215MOL0     C28894   5.681   2.184   6.458  0.0151  0.2840 -0.3324
  215MOL0     C28895   5.691   2.125   6.336  0.1308 -0.6162 -0.0296
  215MOL0     C28896   5.764   2.185   6.234 -0.2130  0.1631 -0.0895
  215MOL0     C28897   5.813   2.317   6.251 -0.7651 -0.3453 -0.0925
  215MOL0     O28898   5.879   2.391   6.156  0.0217  0.2737  1.2075
  215MOL0     C28899   5.875   2.336   6.023 -0.7873 -0.4089 -0.0476
  215MOL0     C28900   5.920   2.454   5.915 -0.1037 -0.3930  0.4093
  215MOL0     C28901   6.065   2.499   5.950  0.5548  0.1401 -0.5114
  215MOL0     C28902   6.168   2.400   5.887  0.7386 -0.0927  0.2183
  215MOL0     C28903   6.307   2.431   5.941 -0.0419  0.6438 -0.0133
  215MOL0     C28904   6.385   2.553   5.897 -0.0699  0.1237 -0.8704
  215MOL0     C28905   6.536   2.554   5.914  0.1231  0.4476 -0.0453
  215MOL0     C28906   6.579   2.612   6.057 -0.3083  0.1684 -0.3656
  215MOL0     N28907   6.573   2.510   6.164  0.1757 -0.1620  0.4616
  215MOL0     C28908   6.645   2.397   6.160  0.4890 -0.1593 -0.0071
  215MOL0     C28909   6.595   2.323   6.269  0.6385  0.1246  0.6880
  215MOL0     C28910   6.618   2.173   6.277  0.1821 -0.1699 -0.2392
  215MOL0     C28911   6.762   2.132   6.302 -0.6106  0.1120  0.5540
  215MOL0     C28912   6.799   1.983   6.280 -0.1832 -0.6742 -0.0353
  215MOL0     C28913   6.947   1.955   6.321  0.3881 -0.2324  1.3723
  215MOL0     O28914   7.042   2.035   6.256  0.7807  0.7529  0.0213
  215MOL0     C28915   7.171   2.008   6.288  0.2806  0.0187 -0.1207
  215MOL0     C28916   7.221   1.911   6.378 -0.2142 -1.3274  0.6551
  215MOL0     C28917   7.363   1.903   6.403 -0.6678  0.9815  0.1091
  215MOL0     C28918   7.460   1.977   6.331 -0.1527 -0.1212 -0.3887
  215MOL0     C28919   7.604   1.954   6.343 -0.5049  0.7020 -0.7001
  215MOL0     O28920   7.689   1.987   6.241  0.4213 -0.0314 -0.4121
  215MOL0     C28921   7.821   1.990   6.268 -0.0008  0.3894  0.4851
  215MOL0     C28922   7.868   2.112   6.318 -0.0302 -0.0147 -0.4525
  215MOL0     C28923   8.002   2.132   6.347 -0.6396 -0.0781 -0.1422
  215MOL0     C28924   8.102   2.036   6.320 -0.2968 -0.5255 -0.1609
  215MOL0     O28925   8.239   2.039   6.341  0.1710  0.1429 -0.5054
  215MOL0     C28926   8.320   2.118   6.260  0.6420 -0.2587  0.0483
  215MOL0     C28927   8.352   2.057   6.119  0.1861 -0.2575 -0.4106
  215MOL0     C28928   8.411   1.914   6.133 -1.2548  0.0474 -0.8208
  215MOL0     C28929   8.515   1.879   6.018  0.7819  0.7097 -0.5725
  215MOL0     C28930   8.634   1.968   6.015  0.1118 -0.4455  0.1350
  215MOL0     C28931   8.706   1.950   5.883  0.1772  0.0613  0.5766
  215MOL0     C28932   8.842   2.025   5.880  0.6248  0.0432  0.4414
  215MOL0     C28933   8.938   1.986   5.993 -0.6573  0.1795  0.1030
  215MOL0    Cl28934   8.961   1.803   6.024 -0.2329  0.4642  0.3176
  215MOL0     C28935   8.061   1.917   6.265  0.2656  0.1976  0.3637
  215MOL0     C28936   7.925   1.895   6.235  0.3056  0.8109 -0.2459
  215MOL0     O28937   7.642   1.925   6.462 -0.4641  0.0139 -1.0258
  215MOL0     C28938   7.404   2.068   6.238  0.2653 -0.3397  0.6018
  215MOL0     C28939   7.265   2.081   6.224 -0.5011 -0.4245  0.3892
  215MOL0     N28940   6.512   2.410   6.342  0.6622 -0.1485 -0.7365
  215MOL0     N28941   6.501   2.528   6.286  0.5156  0.3745  0.2818
  215MOL0     C28942   5.792   2.378   6.372  0.0039  0.0433 -0.0977
  215MOL0     C28943   5.728   2.307   6.479 -0.0524 -0.7947 -0.1426
  215MOL0     C28944   5.377   2.133   6.684  0.0082 -0.1984 -0.7197
  215MOL0     C28945   5.243   2.134   6.645 -0.2995  0.0184 -0.6059
  215MOL0     C28946   5.145   2.076   6.727  0.2382 -0.2903  0.3613
  215MOL0     C28947   5.171   2.026   6.851  0.4849  0.4028  1.3822
  215MOL0     O28948   5.061   2.004   6.931 -0.1490 -1.0160  0.6807
  215MOL0     C28949   5.062   1.962   7.065 -0.1250 -0.3203  1.4305
  215MOL0     C28950   4.922   1.933   7.111  0.3327  0.7067  0.3637
  215MOL0     C28951   4.885   1.972   7.255  0.0803  0.2901  1.0836
  215MOL0     C28952   4.735   1.963   7.286  0.1566 -0.3287  0.0418
  215MOL0     C28953   4.720   1.932   7.433  0.9679 -0.0763  0.6317
  215MOL0     C28954   4.701   1.913   7.548  0.0889  0.5617  0.1451
  215MOL0     C28955   5.302   2.031   6.898 -0.6917  0.3841 -0.3245
  215MOL0     C28956   5.407   2.083   6.817  0.3707  0.2589  0.5878
  215MOL0     C28957   5.554   2.062   6.861 -0.7222  0.8558 -0.1602
  215MOL0     H28958   5.654   2.025   6.312  0.0165 -0.1721 -1.7984
  215MOL0     H28959   5.775   2.145   6.133 -0.8565  1.3508 -0.6500
  215MOL0     H28960   5.948   2.257   6.003  0.5105  1.5754 -4.3370
  215MOL0     H28961   5.774   2.305   5.995 -0.3245 -1.6720 -0.3830
  215MOL0     H28962   5.850   2.538   5.920 -1.8021 -1.6924 -0.6213
  215MOL0     H28963   5.920   2.415   5.813  0.4116 -0.2665  0.3562
  215MOL0     H28964   6.068   2.493   6.060 -3.7413  0.1010 -0.2417
  215MOL0     H28965   6.084   2.605   5.929  1.4075  1.2256  4.4252
  215MOL0     H28966   6.134   2.304   5.926 -2.0038  0.5500 -0.3886
  215MOL0     H28967   6.166   2.413   5.778  0.2622  2.4329  0.4477
  215MOL0     H28968   6.308   2.431   6.050  1.7420  1.4044  0.0027
  215MOL0     H28969   6.366   2.342   5.916  1.8051  1.5463  0.8762
  215MOL0     H28970   6.354   2.578   5.795 -1.9319  1.0929 -0.1067
  215MOL0     H28971   6.345   2.632   5.961 -4.0771 -3.2271  1.1892
  215MOL0     H28972   6.576   2.623   5.838 -0.3000  1.2652  0.4677
  215MOL0     H28973   6.578   2.454   5.897  0.7675  0.9108 -1.4012
  215MOL0     H28974   6.683   2.644   6.062 -0.7404  1.4456  2.7974
  215MOL0     H28975   6.509   2.688   6.091 -1.6958 -0.5373 -1.5370
  215MOL0     H28976   6.699   2.357   6.075 -0.2804 -0.1345 -0.5218
  215MOL0     H28977   6.553   2.151   6.362 -1.4820  2.6020 -0.6634
  215MOL0     H28978   6.564   2.135   6.189 -0.1110 -2.2981  0.7896
  215MOL0     H28979   6.815   2.189   6.225 -1.1317  0.6941  0.6119
  215MOL0     H28980   6.805   2.169   6.395 -1.7455  0.2394  1.0442
  215MOL0     H28981   6.784   1.956   6.175 -2.1988 -3.0001  0.7576
  215MOL0     H28982   6.737   1.914   6.338  0.9690 -1.4032  0.3608
  215MOL0     H28983   6.963   1.847   6.310  1.1018  0.0860 -5.9881
  215MOL0     H28984   6.956   1.987   6.425  0.8975 -0.2548  1.3354
  215MOL0     H28985   7.151   1.842   6.424  0.3186 -1.6989  0.9068
  215MOL0     H28986   7.397   1.838   6.484 -0.1319  2.7182  1.3366
  215MOL0     H28987   7.802   2.197   6.334  0.5165  0.4068 -0.4006
  215MOL0     H28988   8.041   2.224   6.389  0.8172 -1.7824  2.5737
  215MOL0     H28989   8.263   2.211   6.247 -0.6663 -0.4939  3.1961
  215MOL0     H28990   8.419   2.138   6.303  1.4077 -2.3717 -0.6120
  215MOL0     H28991   8.272   2.047   6.045 -0.2522  0.9599 -0.1304
  215MOL0     H28992   8.419   2.129   6.070  3.2655 -1.9416  1.0729
  215MOL0     H28993   8.460   1.894   6.228 -2.3160  1.7940  0.1488
  215MOL0     H28994   8.327   1.845   6.123  0.0484 -1.6144 -0.6752
  215MOL0     H28995   8.467   1.875   5.920  2.4278  3.7738 -1.6444
  215MOL0     H28996   8.560   1.782   6.041  1.0358  0.7867 -0.7277
  215MOL0     H28997   8.706   1.939   6.092  1.2271  3.7792  0.9401
  215MOL0     H28998   8.605   2.072   6.034  1.1702 -0.7585  4.5638
  215MOL0     H28999   8.712   1.846   5.849 -1.2608  0.9831 -2.9289
  215MOL0     H29000   8.648   1.994   5.802  2.4567  2.2843  0.0292
  215MOL0     H29001   8.848   2.133   5.890 -1.2300  0.4296 -1.8906
  215MOL0     H29002   8.890   2.001   5.785  1.6840  2.7686  0.1968
  215MOL0     H29003   9.035   2.033   5.973 -2.0249  3.1491 -0.1832
  215MOL0     H29004   8.903   2.033   6.085 -0.4064  0.3143  0.1302
  215MOL0     H29005   8.139   1.842   6.257 -0.8358 -0.8404 -1.0529
  215MOL0     H29006   7.885   1.802   6.196 -0.4206  0.8891  0.3088
  215MOL0     H29007   7.464   2.124   6.166 -0.2509 -1.1412 -0.4751
  215MOL0     H29008   7.233   2.154   6.150  1.4398  1.1945  1.0251
  215MOL0     H29009   5.829   2.478   6.390 -0.2585  0.3724 -1.2755
  215MOL0     H29010   5.701   2.356   6.571  0.1229 -1.5445  0.3156
  215MOL0     H29011   5.216   2.169   6.546  0.0539 -2.3409 -1.6049
  215MOL0     H29012   5.044   2.089   6.688 -0.0650  0.8074  1.4456
  215MOL0     H29013   5.108   2.043   7.123  1.3830  1.3355 -1.8107
  215MOL0     H29014   5.122   1.872   7.081 -2.3254 -2.5370 -1.5733
  215MOL0     H29015   4.903   1.827   7.093 -0.2010  0.8601  0.0098
  215MOL0     H29016   4.854   1.999   7.057  2.2153  2.7270  0.2869
  215MOL0     H29017   4.924   2.069   7.289  0.3271  1.1396 -1.4334
  215MOL0     H29018   4.938   1.895   7.312  1.2097  1.8796  2.2676
  215MOL0     H29019   4.681   2.058   7.278  1.8541  0.5438 -2.1211
  215MOL0     H29020   4.691   1.889   7.220  0.3511  0.0987 -0.5758
  215MOL0     H29021   4.683   1.891   7.651 -0.2636 -1.1168 -0.2417
  215MOL0     H29022   5.324   2.013   7.003 -1.4063  1.4651  0.0347
  215MOL0     H29023   5.553   2.020   6.962  2.6840 -0.4756 -0.5468
  215MOL0     H29024   5.619   2.008   6.793  3.1889  2.3992  2.0358
  215MOL0     H29025   5.592   2.164   6.870  0.9271  0.1995  0.6203
  216MOL0     O29026   0.200   1.547   4.297  0.3427 -0.6182  0.6827
  216MOL0     C29027   0.188   1.630   4.387 -1.0488  0.1016  0.5658
  216MOL0     O29028   0.295   1.689   4.443  0.7728  0.3303 -0.0963
  216MOL0     C29029   0.425   1.640   4.454  0.6178  0.1878 -0.5531
  216MOL0     C29030   0.464   1.508   4.459  0.0254  0.1028 -0.6177
  216MOL0     C29031   0.590   1.457   4.471 -0.6204 -0.0395 -0.4184
  216MOL0     C29032   0.689   1.544   4.494  0.0408  0.2748 -0.4031
  216MOL0     O29033   0.814   1.495   4.515 -0.8901 -0.1973  0.0165
  216MOL0     C29034   0.905   1.514   4.413 -0.0462  0.1425  0.5073
  216MOL0     C29035   1.025   1.424   4.422 -0.0571  0.6424  0.3776
  216MOL0     C29036   1.107   1.454   4.540 -0.0876  0.1314 -0.2619
  216MOL0     C29037   1.209   1.336   4.556  0.0874  1.0359  1.0393
  216MOL0     C29038   1.256   1.324   4.701 -0.3204  0.4180 -0.7729
  216MOL0     C29039   1.357   1.217   4.714  0.0191 -0.0344  0.2266
  216MOL0     C29040   1.419   1.236   4.855 -0.1808 -0.4605  0.0964
  216MOL0     C29041   1.545   1.151   4.892 -0.0682 -0.6281  0.4816
  216MOL0     N29042   1.517   1.010   4.867 -0.5076  0.2600 -0.8826
  216MOL0     C29043   1.574   0.930   4.766 -0.7151 -0.2575 -0.6507
  216MOL0     C29044   1.563   0.807   4.818 -1.0939  0.6016  0.5612
  216MOL0     C29045   1.587   0.679   4.735 -0.1750  0.2081 -0.4036
  216MOL0     C29046   1.615   0.546   4.818  0.0856  0.0697  0.1244
  216MOL0     C29047   1.520   0.440   4.759 -0.6822  0.4665 -0.4182
  216MOL0     C29048   1.387   0.448   4.821  0.2555 -0.3170  0.1647
  216MOL0     O29049   1.310   0.335   4.789  0.2217  0.1820  0.0015
  216MOL0     C29050   1.205   0.340   4.691  0.5830  0.1550  0.2589
  216MOL0     C29051   1.148   0.209   4.672 -0.1942 -0.6658 -0.4773
  216MOL0     C29052   1.065   0.197   4.565  0.0529 -0.3800 -0.5321
  216MOL0     C29053   1.029   0.298   4.478 -0.2415  0.3029  0.6398
  216MOL0     C29054   0.947   0.288   4.357 -0.2140 -0.2228 -0.1417
  216MOL0     O29055   0.983   0.222   4.236  0.3849  0.2318  0.1667
  216MOL0     C29056   1.098   0.141   4.234 -0.2229  0.3250  0.4923
  216MOL0     C29057   1.091   0.009   4.262 -0.7405  0.0464  0.4542
  216MOL0     C29058   1.204  -0.079   4.235 -0.1856  0.4536  0.6704
  216MOL0     C29059   1.327  -0.022   4.180 -0.5043  0.2454 -0.3517
  216MOL0     O29060   1.444  -0.094   4.149  0.0060 -0.2855  0.0994
  216MOL0     C29061   1.437  -0.241   4.174  0.0271  0.3616 -0.0963
  216MOL0     C29062   1.546  -0.319   4.093  0.1062 -0.2781  0.6286
  216MOL0     C29063   1.692  -0.270   4.127 -0.1339  0.3209  1.0716
  216MOL0     C29064   1.772  -0.325   4.001  0.6191 -0.5509 -0.1689
  216MOL0     C29065   1.919  -0.291   4.004 -0.6139 -0.0051  0.0047
  216MOL0     C29066   1.960  -0.153   4.063  0.4368 -0.4648 -0.1909
  216MOL0     C29067   2.105  -0.110   4.025 -0.4511 -0.2510  0.3464
  216MOL0     C29068   2.200  -0.200   4.094  0.3180  0.1550 -0.1330
  216MOL0    Cl29069   2.363  -0.132   4.061  0.0428 -0.2804  0.1932
  216MOL0     C29070   1.325   0.117   4.158  0.0811 -0.2194 -0.4698
  216MOL0     C29071   1.216   0.203   4.178  0.3623  0.6156  0.3743
  216MOL0     O29072   0.839   0.346   4.381  0.4965 -0.4408 -0.2491
  216MOL0     C29073   1.079   0.424   4.512 -0.5025 -1.0958 -0.7403
  216MOL0     C29074   1.164   0.450   4.616 -0.0186  0.3847 -0.4131
  216MOL0     N29075   1.498   0.822   4.937  0.0966  0.3267  0.5722
  216MOL0     N29076   1.466   0.936   4.967 -0.1247  0.2690  0.5561
  216MOL0     C29077   0.662   1.680   4.498 -0.5173 -0.3681  0.8599
  216MOL0     C29078   0.531   1.726   4.487 -0.9196 -1.2431 -0.1758
  216MOL0     C29079   0.058   1.674   4.427  0.4515 -0.3776 -1.0413
  216MOL0     C29080   0.051   1.792   4.506 -0.3129  0.8548  1.1973
  216MOL0     C29081  -0.070   1.848   4.550  0.1828  0.0436 -0.1345
  216MOL0     C29082  -0.192   1.788   4.525  0.7370 -0.5403 -0.0181
  216MOL0     O29083  -0.320   1.824   4.563 -0.0752 -0.4503  0.0225
  216MOL0     C29084  -0.325   1.949   4.631  0.7393 -0.1137 -0.3471
  216MOL0     C29085  -0.477   1.986   4.657  0.0155 -0.3334  0.9121
  216MOL0     C29086  -0.553   1.886   4.748 -0.1175 -0.5741 -0.2672
  216MOL0     C29087  -0.703   1.894   4.727  0.0748  0.4428 -0.2475
  216MOL0     C29088  -0.775   1.791   4.808 -0.1472  0.2494 -1.3911
  216MOL0     C29089  -0.844   1.722   4.880 -0.0609  1.1289  0.4837
  216MOL0     C29090  -0.191   1.676   4.451 -0.3606  0.1650 -0.3522
  216MOL0     C29091  -0.070   1.612   4.401  0.1165  0.3018  0.0574
  216MOL0     C29092  -0.089   1.486   4.330 -0.2202  1.0046 -0.0979
  216MOL0     H29093   0.385   1.432   4.454  1.0549 -1.2222  1.6931
  216MOL0     H29094   0.616   1.352   4.474 -1.8231 -0.3404 -0.0840
  216MOL0     H29095   0.864   1.489   4.315  2.2639  0.1624 -0.5255
  216MOL0     H29096   0.930   1.620   4.412  0.4942  0.0330 -1.0875
  216MOL0     H29097   1.083   1.436   4.330 -1.8356  1.2129 -0.7254
  216MOL0     H29098   0.994   1.319   4.429 -3.5499  1.5127 -0.1262
  216MOL0     H29099   1.044   1.471   4.628 -2.5022 -1.5950 -1.5628
  216MOL0     H29100   1.168   1.543   4.518 -0.6261  0.0250 -2.3311
  216MOL0     H29101   1.155   1.243   4.537 -0.0287  0.4446  3.8525
  216MOL0     H29102   1.294   1.355   4.490 -1.1571 -1.5431 -1.5425
  216MOL0     H29103   1.301   1.423   4.712 -0.5263  0.3261  1.2708
  216MOL0     H29104   1.172   1.313   4.770  0.3937  2.7316  0.5730
  216MOL0     H29105   1.315   1.117   4.701  3.5042 -1.3826 -2.0424
  216MOL0     H29106   1.437   1.219   4.639  0.0751 -2.0512  0.1882
  216MOL0     H29107   1.344   1.220   4.933  0.0412 -1.7532  0.0658
  216MOL0     H29108   1.447   1.340   4.868  0.4544 -0.8759  2.3807
  216MOL0     H29109   1.635   1.177   4.836 -0.4718 -2.5605 -1.1848
  216MOL0     H29110   1.573   1.169   4.996 -0.0179 -1.8312  0.6909
  216MOL0     H29111   1.623   0.976   4.681 -1.4025  2.1215  0.1711
  216MOL0     H29112   1.496   0.676   4.676  0.3337  2.3342 -1.4088
  216MOL0     H29113   1.664   0.697   4.660  2.6714 -0.2251  2.1917
  216MOL0     H29114   1.715   0.525   4.778 -1.0703 -1.1543 -2.3237
  216MOL0     H29115   1.616   0.556   4.927  0.1049 -2.6581  0.4385
  216MOL0     H29116   1.572   0.344   4.763 -1.5466 -0.0518 -1.2058
  216MOL0     H29117   1.521   0.440   4.650 -1.9372  0.7371 -0.4369
  216MOL0     H29118   1.344   0.545   4.794  2.2762  0.2269 -1.4174
  216MOL0     H29119   1.398   0.440   4.929 -0.3801 -0.1198  0.2440
  216MOL0     H29120   1.174   0.128   4.739 -2.7349  0.0487  1.5432
  216MOL0     H29121   1.032   0.097   4.536 -3.6003  1.0302 -1.7936
  216MOL0     H29122   0.998  -0.029   4.301 -0.6117 -1.7064 -0.8202
  216MOL0     H29123   1.188  -0.179   4.276 -3.4046  0.8915  0.7390
  216MOL0     H29124   1.449  -0.273   4.278 -1.8466 -1.7413 -0.4656
  216MOL0     H29125   1.341  -0.278   4.137  0.9179 -0.8307 -1.2907
  216MOL0     H29126   1.534  -0.428   4.093  1.8565 -0.5033  0.6167
  216MOL0     H29127   1.517  -0.293   3.991  0.5336  1.0741  0.8408
  216MOL0     H29128   1.703  -0.164   4.150 -0.0940  0.6935 -0.5494
  216MOL0     H29129   1.734  -0.312   4.219 -0.5125  0.6760  1.4075
  216MOL0     H29130   1.721  -0.282   3.915  0.9401  0.7140  0.2612
  216MOL0     H29131   1.753  -0.433   3.992 -1.2113 -0.1131 -2.6078
  216MOL0     H29132   1.961  -0.300   3.904 -0.1628  1.6545  0.0104
  216MOL0     H29133   1.963  -0.364   4.072 -0.6708  2.0389  2.3929
  216MOL0     H29134   1.915  -0.069   4.009  1.0973  0.3530  0.4989
  216MOL0     H29135   1.952  -0.142   4.172  4.3295 -1.0723  0.2953
  216MOL0     H29136   2.108  -0.011   4.072  0.9923  0.3444 -0.8983
  216MOL0     H29137   2.116  -0.097   3.917 -0.6242  0.6266  0.4262
  216MOL0     H29138   2.195  -0.205   4.203 -0.9491 -1.4469 -0.2326
  216MOL0     H29139   2.174  -0.295   4.047 -0.5832  0.8770 -1.1609
  216MOL0     H29140   1.412   0.159   4.109 -0.6632  1.4295 -0.4316
  216MOL0     H29141   1.217   0.312   4.173 -0.8233  0.5574 -3.1262
  216MOL0     H29142   1.039   0.514   4.466 -1.4063 -1.8014 -1.3976
  216MOL0     H29143   1.198   0.553   4.626  0.5918  0.5622 -3.3902
  216MOL0     H29144   0.738   1.750   4.531 -0.9023  1.4721 -1.8482
  216MOL0     H29145   0.489   1.825   4.501 -1.1772 -1.4178  0.2881
  216MOL0     H29146   0.139   1.848   4.535 -0.3410  0.6456  1.6987
  216MOL0     H29147  -0.068   1.935   4.615 -1.6521  0.9871 -1.2638
  216MOL0     H29148  -0.291   2.018   4.553  2.1387 -1.9541 -1.4427
  216MOL0     H29149  -0.268   1.948   4.724  1.7814 -0.5976 -0.9707
  216MOL0     H29150  -0.528   2.010   4.563  2.0761  3.4147  0.5299
  216MOL0     H29151  -0.482   2.082   4.709 -2.5500  0.2647 -0.2623
  216MOL0     H29152  -0.536   1.913   4.853  0.7091 -0.3390 -0.4531
  216MOL0     H29153  -0.512   1.787   4.725  2.7627  0.5900 -0.6288
  216MOL0     H29154  -0.737   1.994   4.756  1.9731  1.0580 -0.0202
  216MOL0     H29155  -0.734   1.873   4.625 -2.3319  2.8360 -0.1158
  216MOL0     H29156  -0.901   1.653   4.939  0.6497 -2.6628 -2.8531
  216MOL0     H29157  -0.284   1.625   4.423  0.6730 -1.3401 -1.2073
  216MOL0     H29158  -0.037   1.491   4.234  1.7157  0.3822  0.8622
  216MOL0     H29159  -0.033   1.406   4.380 -0.5695 -0.0219 -1.3061
  216MOL0     H29160  -0.188   1.448   4.306  0.8323 -1.7887 -0.3907
  217MOL0     O29161   0.443   2.960   4.265 -0.6169 -0.0844 -0.1810
  217MOL0     C29162   0.393   2.856   4.304  1.0674  0.1516 -0.4193
  217MOL0     O29163   0.443   2.779   4.403  0.0385 -0.6128  0.1686
  217MOL0     C29164   0.542   2.813   4.489  0.9129  0.5256 -0.4567
  217MOL0     C29165   0.544   2.744   4.606  0.4816 -0.1374  0.1615
  217MOL0     C29166   0.658   2.753   4.688 -0.0142  0.1897  0.5080
  217MOL0     C29167   0.781   2.821   4.655 -0.2173 -0.0177  0.3790
  217MOL0     O29168   0.895   2.815   4.735 -0.2627 -0.2172  0.0272
  217MOL0     C29169   1.025   2.824   4.677  0.0680 -0.1658  0.6426
  217MOL0     C29170   1.093   2.954   4.733  0.3046 -0.6841  0.1941
  217MOL0     C29171   1.230   2.986   4.668  0.6207  0.0786 -0.4952
  217MOL0     C29172   1.280   3.111   4.740  0.7708  0.2984  0.1050
  217MOL0     C29173   1.430   3.122   4.744  0.2157 -0.4788 -0.8203
  217MOL0     C29174   1.505   3.109   4.610 -0.5815 -0.4946  0.6850
  217MOL0     C29175   1.471   3.212   4.500 -0.2563  0.7345 -0.3035
  217MOL0     C29176   1.592   3.227   4.402  0.0652 -0.2736  0.1210
  217MOL0     N29177   1.541   3.285   4.270 -0.2984  0.2030 -0.0502
  217MOL0     C29178   1.462   3.217   4.183 -0.2425 -0.6111  0.1328
  217MOL0     C29179   1.445   3.306   4.081  0.3001  1.2552  0.1001
  217MOL0     C29180   1.375   3.273   3.957  0.4081  0.0995 -0.4561
  217MOL0     C29181   1.233   3.350   3.943  0.3233  0.3486  0.3083
  217MOL0     C29182   1.141   3.281   3.846  0.5469  0.2254  0.1702
  217MOL0     C29183   1.002   3.332   3.861  0.5956  0.5020  0.0071
  217MOL0     O29184   0.997   3.452   3.785  0.1731 -0.7029 -0.5328
  217MOL0     C29185   0.886   3.515   3.742  0.3379 -0.1519 -0.8251
  217MOL0     C29186   0.894   3.652   3.708 -0.2730  0.0389  0.7176
  217MOL0     C29187   0.784   3.727   3.684  0.1312 -0.0713 -0.4578
  217MOL0     C29188   0.656   3.660   3.675  0.7901  0.0359 -0.5315
  217MOL0     C29189   0.535   3.729   3.620  0.4706  0.6449 -1.0129
  217MOL0     O29190   0.562   3.834   3.534  0.2430 -0.3011  0.6946
  217MOL0     C29191   0.451   3.898   3.493  0.0120 -1.1026  0.2509
  217MOL0     C29192   0.392   3.860   3.370 -0.4016 -0.8677 -0.0746
  217MOL0     C29193   0.269   3.910   3.325 -0.3648  0.3055  0.6802
  217MOL0     C29194   0.193   3.998   3.401 -0.9906  0.1989 -0.0116
  217MOL0     O29195   0.073   4.043   3.351 -0.6906  0.3112 -0.1208
  217MOL0     C29196  -0.025   4.091   3.442 -0.4162 -0.2007 -0.1963
  217MOL0     C29197  -0.160   4.114   3.368 -0.1922 -0.5483 -0.5131
  217MOL0     C29198  -0.255   3.996   3.338  0.1960 -0.2282  0.0995
  217MOL0     C29199  -0.401   4.057   3.318  0.3687 -0.1422  0.0539
  217MOL0     C29200  -0.482   3.938   3.280 -0.3091 -0.2703 -0.4121
  217MOL0     C29201  -0.630   3.989   3.250 -0.3759  0.4589  0.6456
  217MOL0     C29202  -0.706   3.858   3.217 -0.2285  0.7011 -0.3644
  217MOL0     C29203  -0.839   3.875   3.160 -0.7532  0.3277  0.3065
  217MOL0    Cl29204  -0.960   3.930   3.282 -0.1158 -0.2196  0.0548
  217MOL0     C29205   0.249   4.037   3.528 -0.1637  0.3342  1.0417
  217MOL0     C29206   0.371   3.985   3.569  0.9629 -0.1413  0.3657
  217MOL0     O29207   0.429   3.701   3.675  0.3863 -0.9155 -0.3563
  217MOL0     C29208   0.648   3.534   3.722 -1.0354  0.4217  1.1559
  217MOL0     C29209   0.763   3.469   3.766  1.4364 -0.7854 -0.1923
  217MOL0     N29210   1.510   3.424   4.108 -1.0653  0.0410  0.2965
  217MOL0     N29211   1.552   3.415   4.231 -0.7250  0.1637 -0.7017
  217MOL0     C29212   0.775   2.890   4.531  0.0447  1.1082  0.0255
  217MOL0     C29213   0.664   2.880   4.449 -0.4914 -0.1892  0.4010
  217MOL0     C29214   0.264   2.828   4.231 -0.5397  0.4867 -0.2632
  217MOL0     C29215   0.215   2.917   4.124 -0.0102 -0.0053  0.0650
  217MOL0     C29216   0.094   2.907   4.064  0.0484  0.7659 -0.1017
  217MOL0     C29217   0.018   2.793   4.096  0.5260  0.0557 -0.0187
  217MOL0     O29218  -0.115   2.771   4.043 -0.0027 -0.2267  0.4406
  217MOL0     C29219  -0.187   2.873   3.970  0.4546 -0.0008  0.3940
  217MOL0     C29220  -0.338   2.854   3.980  0.1481  0.6350 -0.3413
  217MOL0     C29221  -0.406   2.899   4.117 -0.5152  0.2736  0.3030
  217MOL0     C29222  -0.465   2.776   4.182 -0.7722  0.5122  0.4530
  217MOL0     C29223  -0.583   2.741   4.099  0.9426 -0.6268  0.2749
  217MOL0     C29224  -0.688   2.724   4.042  0.6034  0.4884  0.5388
  217MOL0     C29225   0.071   2.696   4.185 -0.4177  0.3428 -0.1780
  217MOL0     C29226   0.197   2.699   4.240 -0.3431 -0.3123 -0.4809
  217MOL0     C29227   0.243   2.583   4.323 -0.2082  0.1406 -0.5988
  217MOL0     H29228   0.454   2.687   4.629 -0.2285  0.4032 -1.2032
  217MOL0     H29229   0.661   2.702   4.784  2.0563 -0.5518  0.0944
  217MOL0     H29230   1.086   2.733   4.688 -0.0675 -0.9301 -3.4274
  217MOL0     H29231   1.025   2.829   4.568 -0.2066 -0.3162  0.6335
  217MOL0     H29232   1.114   2.944   4.840  3.5916  2.5685  0.0650
  217MOL0     H29233   1.027   3.041   4.729 -0.2919 -1.0741  1.1838
  217MOL0     H29234   1.221   3.003   4.560  1.2368 -0.8440 -0.7033
  217MOL0     H29235   1.307   2.912   4.691  0.1828 -0.4756 -0.7905
  217MOL0     H29236   1.247   3.205   4.694  0.6064  0.8947  1.4087
  217MOL0     H29237   1.253   3.121   4.845  3.1652 -1.1597  0.9225
  217MOL0     H29238   1.453   3.210   4.806 -1.2509 -0.9499  0.4468
  217MOL0     H29239   1.459   3.038   4.808 -0.9579 -0.4122 -0.1868
  217MOL0     H29240   1.604   3.130   4.651 -0.8109  0.0377  0.9651
  217MOL0     H29241   1.511   3.010   4.563  0.3492 -0.5817  0.9607
  217MOL0     H29242   1.431   3.305   4.542 -1.0162  0.8822 -1.3173
  217MOL0     H29243   1.389   3.181   4.436  0.6165 -0.3584 -0.9166
  217MOL0     H29244   1.649   3.313   4.436 -0.7350  0.7242 -0.9715
  217MOL0     H29245   1.649   3.134   4.393  0.1734 -0.2556  0.5909
  217MOL0     H29246   1.420   3.117   4.193  2.6478 -1.8776  0.5330
  217MOL0     H29247   1.451   3.287   3.880 -1.2143  2.6727 -1.7291
  217MOL0     H29248   1.340   3.169   3.954 -0.7505  0.4949 -2.8993
  217MOL0     H29249   1.194   3.348   4.045 -1.6294  1.5983 -0.3552
  217MOL0     H29250   1.255   3.456   3.925  0.9524  0.4641  1.5994
  217MOL0     H29251   1.137   3.174   3.867 -0.5464  0.1386 -0.3992
  217MOL0     H29252   1.185   3.298   3.747  0.8959  0.4069  0.3563
  217MOL0     H29253   0.978   3.348   3.967  2.9285  0.4281  0.6061
  217MOL0     H29254   0.932   3.259   3.819  0.5878 -0.0047  0.8801
  217MOL0     H29255   0.989   3.702   3.699 -2.2496  4.3375  1.1647
  217MOL0     H29256   0.793   3.833   3.662 -2.3542  0.2208 -0.4081
  217MOL0     H29257   0.431   3.783   3.304  1.0707  0.7650 -1.2079
  217MOL0     H29258   0.228   3.886   3.227 -3.1809  0.0120  1.8224
  217MOL0     H29259  -0.042   4.013   3.517 -1.4918 -0.2967 -0.5272
  217MOL0     H29260  -0.001   4.184   3.495  3.7195  0.2465 -2.4266
  217MOL0     H29261  -0.214   4.185   3.431  0.7119 -1.1938  1.0516
  217MOL0     H29262  -0.132   4.158   3.272  1.1321 -0.4942 -0.1236
  217MOL0     H29263  -0.224   3.945   3.246  1.9135  0.6491  0.1522
  217MOL0     H29264  -0.263   3.913   3.408 -1.7022 -1.3037 -1.2904
  217MOL0     H29265  -0.406   4.137   3.244  0.4499 -0.3632 -0.1903
  217MOL0     H29266  -0.427   4.097   3.416  2.1142  2.3671 -0.4295
  217MOL0     H29267  -0.480   3.860   3.358 -0.7954  1.5939  1.5767
  217MOL0     H29268  -0.447   3.899   3.184  3.2801 -0.3877  0.7785
  217MOL0     H29269  -0.666   4.024   3.347  1.3573  0.6960  1.2550
  217MOL0     H29270  -0.637   4.068   3.175 -1.1724 -0.7262 -0.5696
  217MOL0     H29271  -0.724   3.815   3.316 -1.0438  1.9513  0.0561
  217MOL0     H29272  -0.640   3.791   3.160 -0.8043  0.9983 -1.3955
  217MOL0     H29273  -0.820   3.933   3.069  2.0120 -1.3314 -0.2960
  217MOL0     H29274  -0.866   3.775   3.125 -2.8887  1.0345 -0.2217
  217MOL0     H29275   0.193   4.104   3.593 -0.7245  1.7018 -0.7615
  217MOL0     H29276   0.408   4.000   3.670  0.4599 -0.7734  0.6427
  217MOL0     H29277   0.549   3.490   3.718 -0.2925 -1.2273 -1.4493
  217MOL0     H29278   0.753   3.381   3.829  3.0337  0.2801  1.6419
  217MOL0     H29279   0.858   2.949   4.492  2.0222 -1.8450 -0.5748
  217MOL0     H29280   0.665   2.924   4.350 -0.0906  0.7953  0.8287
  217MOL0     H29281   0.276   3.004   4.099 -0.3774 -0.5142 -2.8648
  217MOL0     H29282   0.069   2.979   3.986  0.8226 -0.6684 -1.7536
  217MOL0     H29283  -0.151   2.870   3.866  0.6617  2.4458  0.3540
  217MOL0     H29284  -0.171   2.968   4.021 -0.0333 -1.4141  3.3601
  217MOL0     H29285  -0.354   2.747   3.959  4.0804 -0.1443 -0.1732
  217MOL0     H29286  -0.388   2.910   3.901  3.2227 -0.5363 -3.3687
  217MOL0     H29287  -0.489   2.971   4.115 -1.3801 -0.6993 -0.0057
  217MOL0     H29288  -0.323   2.941   4.174 -0.0371  1.1582 -0.9990
  217MOL0     H29289  -0.392   2.696   4.199 -1.8172 -0.3316  1.0972
  217MOL0     H29290  -0.505   2.804   4.279  1.2025  0.1312  1.4256
  217MOL0     H29291  -0.771   2.697   3.980  1.1593  3.0946 -1.5435
  217MOL0     H29292   0.015   2.608   4.215  0.6786 -1.3162 -2.6795
  217MOL0     H29293   0.255   2.614   4.427  0.1618 -0.5578 -0.4308
  217MOL0     H29294   0.179   2.497   4.301 -1.6581  1.8571 -3.8702
  217MOL0     H29295   0.339   2.554   4.282 -0.7050 -1.3462 -0.7520
  218MOL0     O29296   5.699   1.049   2.550  0.3774 -0.3651  0.4355
  218MOL0     C29297   5.660   1.161   2.525 -0.4200  0.0381 -0.1035
  218MOL0     O29298   5.728   1.273   2.545 -0.2076  0.2353 -0.3234
  218MOL0     C29299   5.857   1.277   2.591 -0.4854  0.9634  0.4096
  218MOL0     C29300   5.885   1.285   2.729 -0.4569  0.0087  0.1794
  218MOL0     C29301   6.016   1.307   2.776  0.4040  0.3314 -0.2737
  218MOL0     C29302   6.125   1.309   2.694 -0.1362 -1.0245 -0.0915
  218MOL0     O29303   6.240   1.320   2.757 -0.2711 -0.1833  0.3400
  218MOL0     C29304   6.347   1.385   2.690  0.1379 -0.0923 -1.4768
  218MOL0     C29305   6.344   1.539   2.677  0.1936  0.2061  0.4499
  218MOL0     C29306   6.480   1.591   2.613  0.5421  0.2861  0.0437
  218MOL0     C29307   6.470   1.740   2.559 -0.5405 -0.1860  0.5521
  218MOL0     C29308   6.518   1.843   2.655 -0.0379 -0.6281  0.1460
  218MOL0     C29309   6.519   1.982   2.583  1.0016 -0.8649 -1.2239
  218MOL0     C29310   6.550   2.096   2.684 -0.2141  0.1712 -0.1706
  218MOL0     C29311   6.692   2.100   2.713  0.1115  0.4918  0.5177
  218MOL0     N29312   6.721   2.190   2.825 -0.1916 -0.4466  0.7959
  218MOL0     C29313   6.701   2.325   2.829  0.3915  0.4429  0.4924
  218MOL0     C29314   6.749   2.374   2.944 -0.0842  0.1313 -0.3294
  218MOL0     C29315   6.744   2.523   2.983 -0.7237 -0.1042 -0.1725
  218MOL0     C29316   6.881   2.603   2.955 -0.9499 -0.1941 -0.4721
  218MOL0     C29317   6.881   2.749   2.989 -0.1001  0.4659  0.3904
  218MOL0     C29318   7.003   2.825   2.948  0.4192 -0.3224  0.2129
  218MOL0     O29319   7.086   2.806   3.066  0.1937  0.6904  0.5405
  218MOL0     C29320   7.195   2.886   3.088 -0.4008 -0.6284 -0.7273
  218MOL0     C29321   7.265   2.943   2.987  0.4365 -0.5136  0.0637
  218MOL0     C29322   7.397   3.002   3.005  0.8395  0.1757  0.5790
  218MOL0     C29323   7.454   3.011   3.131 -0.2536  0.4302  0.9497
  218MOL0     C29324   7.584   3.072   3.169  1.0143 -0.6159 -0.4903
  218MOL0     O29325   7.618   3.198   3.116 -0.2786  0.0518  0.3182
  218MOL0     C29326   7.729   3.269   3.153 -1.0908 -0.0719 -0.3279
  218MOL0     C29327   7.736   3.412   3.176  0.7377  0.5643 -0.9159
  218MOL0     C29328   7.859   3.474   3.202 -0.2790 -0.4222  0.4559
  218MOL0     C29329   7.983   3.413   3.187 -0.2004 -0.3953  0.0631
  218MOL0     O29330   8.104   3.467   3.222 -0.3888  1.2067  0.7199
  218MOL0     C29331   8.146   3.606   3.212  0.6070 -0.5955 -0.1256
  218MOL0     C29332   8.273   3.620   3.286  0.2305 -0.9933 -0.1935
  218MOL0     C29333   8.355   3.743   3.240 -0.2495  0.1019 -0.6914
  218MOL0     C29334   8.445   3.796   3.356  0.3474  0.5959  0.4753
  218MOL0     C29335   8.524   3.916   3.315  0.6872 -1.0297 -0.6517
  218MOL0     C29336   8.644   3.888   3.225 -0.4913 -0.2826  0.1644
  218MOL0     C29337   8.716   4.009   3.176 -0.1802 -1.1924  0.1528
  218MOL0     C29338   8.819   3.970   3.072 -0.2636  0.6741  0.1521
  218MOL0    Cl29339   8.933   3.875   3.155  0.0390  0.3038  0.0965
  218MOL0     C29340   7.983   3.282   3.150 -0.3025  0.8827  0.3026
  218MOL0     C29341   7.855   3.204   3.131 -0.6678  0.2317 -0.5093
  218MOL0     O29342   7.647   3.008   3.250 -0.1302  0.3759  0.5340
  218MOL0     C29343   7.379   2.961   3.238  0.6401 -0.4332 -0.5308
  218MOL0     C29344   7.247   2.897   3.219 -0.6344  0.1586  0.6258
  218MOL0     N29345   6.795   2.261   3.016  0.8464  0.5578  0.2118
  218MOL0     N29346   6.779   2.154   2.945 -0.0970  0.2683 -0.3426
  218MOL0     C29347   6.100   1.297   2.554  0.5204  0.1616 -0.4542
  218MOL0     C29348   5.966   1.281   2.504  0.2767 -0.8839 -0.2458
  218MOL0     C29349   5.521   1.194   2.470  0.4197 -1.1717  0.1507
  218MOL0     C29350   5.457   1.318   2.494  0.6407 -0.2329 -0.5542
  218MOL0     C29351   5.332   1.346   2.450 -0.0423 -0.5096 -0.0281
  218MOL0     C29352   5.253   1.262   2.373 -0.0289 -0.9379 -0.4655
  218MOL0     O29353   5.128   1.295   2.318 -0.3332 -0.0414  0.2378
  218MOL0     C29354   5.087   1.430   2.329 -0.0773 -0.1701 -0.3796
  218MOL0     C29355   4.981   1.443   2.221  0.2621 -0.0861 -0.1203
  218MOL0     C29356   5.034   1.434   2.079  0.1566  0.1065  0.8380
  218MOL0     C29357   4.965   1.524   1.980  0.1432 -0.3322  0.3996
  218MOL0     C29358   4.826   1.498   1.975 -0.4226  0.1171  1.0931
  218MOL0     C29359   4.713   1.456   1.958 -0.7607  0.1686  0.7845
  218MOL0     C29360   5.311   1.139   2.347 -0.3456  0.2675 -0.0219
  218MOL0     C29361   5.446   1.106   2.387  0.6779  0.6095 -0.4420
  218MOL0     C29362   5.500   0.977   2.340 -0.4871  0.3963  0.4831
  218MOL0     H29363   5.797   1.281   2.793 -1.2937  0.5779 -0.8883
  218MOL0     H29364   6.042   1.319   2.880  2.8132  0.4124 -0.8301
  218MOL0     H29365   6.437   1.361   2.747 -0.5760 -1.7544 -0.9947
  218MOL0     H29366   6.362   1.330   2.596  2.6877 -0.8067 -0.7449
  218MOL0     H29367   6.338   1.587   2.775  0.9186  0.8874  0.1795
  218MOL0     H29368   6.257   1.565   2.617 -0.7985 -0.2643  1.6501
  218MOL0     H29369   6.506   1.521   2.533  0.6710 -1.5740  1.6108
  218MOL0     H29370   6.548   1.575   2.697 -2.7923 -2.8314  2.5438
  218MOL0     H29371   6.534   1.756   2.472  2.2276  0.4940  2.6020
  218MOL0     H29372   6.365   1.757   2.531 -2.4733 -3.6190  4.5041
  218MOL0     H29373   6.450   1.853   2.740  0.6431  1.1528  0.5136
  218MOL0     H29374   6.609   1.801   2.700 -0.3543 -2.6396 -0.9369
  218MOL0     H29375   6.587   1.989   2.498  2.2354  3.6430 -0.1404
  218MOL0     H29376   6.416   1.990   2.548  0.3039 -1.1872  0.6512
  218MOL0     H29377   6.493   2.080   2.776 -2.5477 -2.5695 -1.9099
  218MOL0     H29378   6.529   2.189   2.629 -0.2465  0.5914  0.5453
  218MOL0     H29379   6.724   2.000   2.744 -0.5630  0.0650 -0.1366
  218MOL0     H29380   6.754   2.133   2.628  0.3233  1.7695  1.1520
  218MOL0     H29381   6.659   2.379   2.744  3.6504 -1.0637 -2.3322
  218MOL0     H29382   6.658   2.570   2.933  0.5112  0.3854 -1.9151
  218MOL0     H29383   6.726   2.527   3.091  0.6780  1.1354  0.0475
  218MOL0     H29384   6.963   2.562   3.014  0.7278 -0.3196 -2.7330
  218MOL0     H29385   6.909   2.598   2.849 -1.0438  0.1752 -0.5159
  218MOL0     H29386   6.864   2.752   3.097 -2.3913 -0.0196  0.0968
  218MOL0     H29387   6.795   2.781   2.929  1.4135 -1.7699 -3.2717
  218MOL0     H29388   6.970   2.926   2.922 -3.4331 -0.8544  2.3478
  218MOL0     H29389   7.046   2.773   2.862  1.5877  0.9358 -0.0036
  218MOL0     H29390   7.226   2.926   2.887 -1.1316 -1.3069  0.7732
  218MOL0     H29391   7.448   3.049   2.922  0.3944  2.4382  1.5227
  218MOL0     H29392   7.645   3.471   3.176 -1.1319 -1.7248  3.9295
  218MOL0     H29393   7.871   3.581   3.216  0.4087 -0.4488  0.0938
  218MOL0     H29394   8.169   3.625   3.107  4.4096  0.6199  0.7495
  218MOL0     H29395   8.062   3.670   3.239  1.3099 -0.0019  0.6789
  218MOL0     H29396   8.249   3.632   3.392 -0.2854  0.1361 -0.4255
  218MOL0     H29397   8.333   3.530   3.267  0.9057 -0.6271  0.1418
  218MOL0     H29398   8.423   3.718   3.158  1.2233  0.1940  0.4694
  218MOL0     H29399   8.286   3.821   3.207 -0.9423 -0.7582 -1.3473
  218MOL0     H29400   8.521   3.724   3.386  1.3063  1.2101 -0.3852
  218MOL0     H29401   8.379   3.819   3.440  1.4634  0.6978  1.3401
  218MOL0     H29402   8.565   3.963   3.404  0.3904 -2.3542  0.2235
  218MOL0     H29403   8.461   3.992   3.268  0.6763  0.2451  1.3217
  218MOL0     H29404   8.704   3.814   3.279 -0.8328  0.4583  1.6015
  218MOL0     H29405   8.617   3.835   3.133 -0.8761  1.4427 -0.7726
  218MOL0     H29406   8.743   4.076   3.258 -1.4218 -0.4278 -0.0358
  218MOL0     H29407   8.649   4.075   3.119 -0.3032 -0.7767  0.7706
  218MOL0     H29408   8.770   3.918   2.989  0.7440 -0.5703  0.3072
  218MOL0     H29409   8.876   4.054   3.030 -1.1130  3.0383  3.3220
  218MOL0     H29410   8.072   3.225   3.125 -2.1836 -1.7237 -0.8609
  218MOL0     H29411   7.857   3.102   3.093 -1.6654  0.2685 -0.6827
  218MOL0     H29412   7.419   2.974   3.338 -3.0529  2.0835  0.8574
  218MOL0     H29413   7.198   2.838   3.297  0.1332  0.6759  1.5155
  218MOL0     H29414   6.181   1.294   2.482  0.6902 -1.2475 -0.2324
  218MOL0     H29415   5.934   1.269   2.400 -0.4149  2.6810 -0.5504
  218MOL0     H29416   5.514   1.390   2.553 -0.6968  0.0803  0.4035
  218MOL0     H29417   5.296   1.447   2.464  1.4678  0.0927 -0.3933
  218MOL0     H29418   5.164   1.505   2.309 -2.2099  2.9598  2.0830
  218MOL0     H29419   5.049   1.458   2.427 -0.1599 -1.7419  0.0683
  218MOL0     H29420   4.944   1.544   2.244  0.0409  0.1115 -1.2708
  218MOL0     H29421   4.895   1.380   2.243 -0.3626  0.9933  0.6289
  218MOL0     H29422   5.025   1.332   2.041  0.6347  0.0834  0.7866
  218MOL0     H29423   5.141   1.458   2.085 -0.0698  1.3919  0.0038
  218MOL0     H29424   4.978   1.629   2.010 -3.3524  0.6139 -0.9367
  218MOL0     H29425   5.010   1.519   1.881  2.7936  1.0543  1.4209
  218MOL0     H29426   4.608   1.436   1.951 -0.5127 -0.7561 -0.7809
  218MOL0     H29427   5.264   1.061   2.287 -0.8273  0.1048  0.5482
  218MOL0     H29428   5.462   0.912   2.420 -2.1606  1.7042  0.8056
  218MOL0     H29429   5.460   0.952   2.241  0.7816  2.2645 -0.5705
  218MOL0     H29430   5.609   0.980   2.332 -0.4484  1.0346  1.1995
  219MOL0     O29431   7.136  10.123   6.990  0.4855  0.0780 -0.2622
  219MOL0     C29432   7.090  10.115   6.880 -0.3221  1.0616  0.0112
  219MOL0     O29433   7.139  10.033   6.779  0.2848  0.3384  0.1141
  219MOL0     C29434   7.269   9.990   6.786  0.3623 -1.0333 -0.5008
  219MOL0     C29435   7.369  10.078   6.742 -0.2925  0.0928 -0.9169
  219MOL0     C29436   7.501  10.053   6.774 -0.2389 -1.1759  0.6937
  219MOL0     C29437   7.537   9.925   6.827 -0.8729  1.0363  0.1641
  219MOL0     O29438   7.673   9.899   6.853 -0.0922  0.1469 -0.2577
  219MOL0     C29439   7.698   9.843   6.979 -0.4348  0.1809 -0.6271
  219MOL0     C29440   7.840   9.883   7.018  0.8411  0.7379 -0.2183
  219MOL0     C29441   7.890   9.782   7.126 -0.3583 -0.3216 -1.0874
  219MOL0     C29442   8.036   9.799   7.159  0.5083 -0.7623 -0.8342
  219MOL0     C29443   8.137   9.779   7.058  0.5183  0.2118  0.3724
  219MOL0     C29444   8.125   9.644   6.989  0.6190 -0.0736  0.5425
  219MOL0     C29445   8.248   9.614   6.906 -0.5677 -0.1562  1.2018
  219MOL0     C29446   8.353   9.533   6.989 -0.3019 -0.0085  0.3356
  219MOL0     N29447   8.485   9.513   6.922 -0.7970  1.1126  0.9704
  219MOL0     C29448   8.512   9.425   6.821  0.8455  0.8929  0.4520
  219MOL0     C29449   8.650   9.436   6.798  0.0882  0.1890  0.2629
  219MOL0     C29450   8.716   9.352   6.691  0.1958  0.3252 -0.1492
  219MOL0     C29451   8.851   9.412   6.650 -0.0376  0.4643  0.6241
  219MOL0     C29452   8.924   9.309   6.568  0.5345  0.0992 -0.1174
  219MOL0     C29453   9.063   9.358   6.520 -0.0624 -0.6966  0.2542
  219MOL0     O29454   9.128   9.258   6.437  0.5553  0.1631  0.9168
  219MOL0     C29455   9.248   9.280   6.388  0.3859  0.7310  0.0902
  219MOL0     C29456   9.332   9.168   6.355 -0.2376  0.7173  0.2991
  219MOL0     C29457   9.463   9.198   6.319  0.8162  0.2031  0.6201
  219MOL0     C29458   9.513   9.324   6.286  0.7356  0.0217 -0.4051
  219MOL0     C29459   9.652   9.345   6.232  1.0679 -0.1442 -0.2484
  219MOL0     O29460   9.737   9.238   6.221  0.3928 -0.3158 -0.2469
  219MOL0     C29461   9.849   9.234   6.146 -0.3689 -0.1104  1.4204
  219MOL0     C29462   9.873   9.304   6.025 -0.2968 -0.8437  0.0431
  219MOL0     C29463   9.991   9.292   5.962  1.4008 -0.4603 -0.1706
  219MOL0     C29464  10.086   9.193   5.998 -0.4229  0.1276  0.1023
  219MOL0     O29465  10.204   9.187   5.927  0.0266 -0.1017 -0.1329
  219MOL0     C29466  10.311   9.228   6.013 -0.1956 -1.2585  0.5275
  219MOL0     C29467  10.441   9.242   5.935  0.0290  0.0141  0.3504
  219MOL0     C29468  10.488   9.104   5.885 -0.3388  0.3245 -0.8566
  219MOL0     C29469  10.630   9.106   5.828  1.1198  0.7270 -0.5706
  219MOL0     C29470  10.702   8.968   5.841  0.2140 -0.0785  0.1328
  219MOL0     C29471  10.852   8.954   5.810  0.6112 -0.6474  0.2484
  219MOL0     C29472  10.904   8.808   5.807 -0.0784  0.7024  0.5696
  219MOL0     C29473  11.050   8.805   5.764  0.5941 -0.5360  0.1058
  219MOL0    Cl29474  11.134   8.644   5.751  0.0192  0.3649 -0.4698
  219MOL0     C29475  10.067   9.119   6.111  0.2965 -0.1408 -0.1632
  219MOL0     C29476   9.941   9.135   6.179  0.6850  0.0627  0.1698
  219MOL0     O29477   9.675   9.456   6.189 -0.1068 -0.0204 -0.3348
  219MOL0     C29478   9.428   9.427   6.301 -1.0710  0.2422 -0.4731
  219MOL0     C29479   9.296   9.409   6.352  0.1010 -0.0193 -0.3068
  219MOL0     N29480   8.708   9.529   6.880  0.2676 -0.5663  0.1239
  219MOL0     N29481   8.606   9.577   6.947  0.9348 -0.3186 -0.7232
  219MOL0     C29482   7.435   9.841   6.867  0.0406  0.9073 -0.9648
  219MOL0     C29483   7.302   9.869   6.847  0.0235 -0.5592  0.6001
  219MOL0     C29484   6.959  10.185   6.862 -0.3249 -0.6319 -0.4307
  219MOL0     C29485   6.870  10.182   6.973  0.3323 -0.7904  0.4009
  219MOL0     C29486   6.736  10.204   6.952  0.4229  0.9637 -0.6370
  219MOL0     C29487   6.688  10.234   6.829  0.1386 -0.1205 -0.0622
  219MOL0     O29488   6.551  10.266   6.833 -0.1645  0.7176 -0.0646
  219MOL0     C29489   6.519  10.354   6.728 -0.3040  0.0039 -0.0014
  219MOL0     C29490   6.392  10.434   6.759 -0.6441 -0.5985  0.5443
  219MOL0     C29491   6.284  10.339   6.793  0.0438  1.1779  0.6837
  219MOL0     C29492   6.159  10.431   6.794 -0.1194 -0.5392  0.0193
  219MOL0     C29493   6.038  10.349   6.808  0.9940 -1.0033 -0.0399
  219MOL0     C29494   5.934  10.290   6.815  0.0408 -0.8074 -1.0767
  219MOL0     C29495   6.773  10.242   6.719  0.2137  0.7976 -0.5053
  219MOL0     C29496   6.913  10.215   6.733  1.2360  0.0408 -0.0116
  219MOL0     C29497   6.990  10.202   6.616  0.0051 -0.0593 -0.3883
  219MOL0     H29498   7.334  10.167   6.690 -3.1630  0.2306  1.0093
  219MOL0     H29499   7.577  10.128   6.756  0.0492 -1.1765  1.8547
  219MOL0     H29500   7.627   9.866   7.058 -1.3343 -2.6037 -0.5071
  219MOL0     H29501   7.693   9.734   6.966  0.0512  0.0666  0.1186
  219MOL0     H29502   7.827   9.989   7.044 -1.2911  0.2921  0.7071
  219MOL0     H29503   7.910   9.878   6.934  2.4516 -0.9474  1.1384
  219MOL0     H29504   7.860   9.684   7.087 -1.5139 -0.5659  0.3195
  219MOL0     H29505   7.833   9.787   7.219 -2.2582 -1.4847 -2.1217
  219MOL0     H29506   8.053   9.884   7.225 -0.7896 -3.4213  3.3331
  219MOL0     H29507   8.067   9.723   7.231  1.4140  2.5347  2.5354
  219MOL0     H29508   8.127   9.856   6.982  2.9990 -0.2649 -0.5137
  219MOL0     H29509   8.236   9.791   7.104  1.1348 -4.9289  0.9816
  219MOL0     H29510   8.113   9.553   7.049 -0.8860 -0.5999 -0.4967
  219MOL0     H29511   8.030   9.635   6.935  0.1294 -0.2270  1.4146
  219MOL0     H29512   8.289   9.698   6.850 -1.8530  0.3467  0.9654
  219MOL0     H29513   8.219   9.540   6.830 -3.6032 -0.9083  2.9263
  219MOL0     H29514   8.374   9.575   7.087 -0.6879 -0.1950  0.5017
  219MOL0     H29515   8.316   9.437   7.027 -1.5778  0.3550  0.0503
  219MOL0     H29516   8.430   9.380   6.765 -1.6857  2.0090  2.9934
  219MOL0     H29517   8.734   9.251   6.730 -3.6405  0.3310  2.0789
  219MOL0     H29518   8.655   9.346   6.601 -0.4005  0.7760  0.2176
  219MOL0     H29519   8.851   9.508   6.597  0.0338  0.5896  0.8485
  219MOL0     H29520   8.923   9.434   6.730  3.3278 -1.4982 -1.6290
  219MOL0     H29521   8.870   9.290   6.475  1.7257  3.2355 -1.6112
  219MOL0     H29522   8.938   9.213   6.617  1.8024  0.2616 -0.1400
  219MOL0     H29523   9.132   9.384   6.601  1.3579 -2.3847 -0.3506
  219MOL0     H29524   9.045   9.447   6.458 -1.9871 -2.8873 -2.5702
  219MOL0     H29525   9.289   9.069   6.362 -0.5657  0.8165 -0.1856
  219MOL0     H29526   9.521   9.107   6.304  1.5013  0.5849  0.9471
  219MOL0     H29527   9.791   9.369   5.996 -1.6748 -2.2553  0.6316
  219MOL0     H29528   9.994   9.359   5.876 -2.7746  0.5333  0.1969
  219MOL0     H29529  10.285   9.328   6.046  0.6117 -0.4491 -1.1535
  219MOL0     H29530  10.322   9.161   6.098  0.2076 -1.0886  0.6078
  219MOL0     H29531  10.423   9.305   5.847 -4.5590  0.5724  1.4353
  219MOL0     H29532  10.517   9.288   5.998  2.6883 -1.1560 -1.8104
  219MOL0     H29533  10.466   9.031   5.963  2.6997  0.1748 -0.0209
  219MOL0     H29534  10.427   9.083   5.797  1.4755 -0.0740 -2.0739
  219MOL0     H29535  10.691   9.179   5.883 -0.6197 -0.7820  3.8388
  219MOL0     H29536  10.636   9.142   5.725 -0.0486 -1.5537 -1.5011
  219MOL0     H29537  10.637   8.905   5.780  0.7296 -0.6969  0.2111
  219MOL0     H29538  10.698   8.935   5.945  0.7155  0.1232  0.2207
  219MOL0     H29539  10.869   8.990   5.708  0.0183 -2.8449 -0.6736
  219MOL0     H29540  10.917   9.008   5.879  1.5866 -0.1142 -1.0398
  219MOL0     H29541  10.831   8.751   5.748 -2.9063 -0.3181  4.6781
  219MOL0     H29542  10.895   8.752   5.900 -1.6955 -2.5199 -1.3084
  219MOL0     H29543  11.069   8.862   5.672  1.0227  3.4286  2.3918
  219MOL0     H29544  11.103   8.860   5.843 -1.5961  3.5285 -0.9624
  219MOL0     H29545  10.150   9.058   6.144  1.5561  0.4959 -1.9832
  219MOL0     H29546   9.915   9.090   6.274 -0.7921  1.2079  0.3532
  219MOL0     H29547   9.465   9.525   6.274  0.4259 -0.3199 -0.5666
  219MOL0     H29548   9.235   9.498   6.363 -0.8145 -0.7778  1.0295
  219MOL0     H29549   7.452   9.752   6.927  0.4590  1.7135  0.1442
  219MOL0     H29550   7.219   9.809   6.886 -1.2013  0.2005 -0.7454
  219MOL0     H29551   6.897  10.152   7.074 -0.0324 -3.1121 -0.1287
  219MOL0     H29552   6.668  10.185   7.035  1.3294  0.3278 -0.0135
  219MOL0     H29553   6.519  10.293   6.637  1.4012 -1.0155  0.6294
  219MOL0     H29554   6.593  10.434   6.720 -0.8893  0.7778  1.6899
  219MOL0     H29555   6.373  10.497   6.671  1.6277 -3.4007 -2.1954
  219MOL0     H29556   6.410  10.493   6.849 -0.8350  1.4949 -0.7208
  219MOL0     H29557   6.286  10.314   6.899 -2.0469  1.9091  0.9455
  219MOL0     H29558   6.288  10.259   6.719 -1.9457  0.6426  1.1186
  219MOL0     H29559   6.167  10.497   6.881  1.9127  0.0387 -0.5361
  219MOL0     H29560   6.157  10.488   6.701  1.2152 -0.1787  0.1865
  219MOL0     H29561   5.837  10.245   6.821 -0.7282  0.9068  0.1039
  219MOL0     H29562   6.732  10.272   6.623 -2.9746 -1.4399 -0.0221
  219MOL0     H29563   6.963  10.278   6.542  0.7086 -0.9522 -1.6279
  219MOL0     H29564   7.095  10.229   6.632 -0.3073  0.2588  1.2448
  219MOL0     H29565   6.984  10.103   6.569 -1.6675  1.0171 -2.6260
  220MOL0     O29566   0.217   1.019   6.262  0.1456  0.2595  0.3070
  220MOL0     C29567   0.132   1.107   6.251  0.2098  0.0858  0.4839
  220MOL0     O29568   0.156   1.244   6.273  0.2823  0.8740 -0.0130
  220MOL0     C29569   0.279   1.293   6.304  0.3052  0.2732  0.0947
  220MOL0     C29570   0.404   1.227   6.305 -0.1945 -0.6904  0.0905
  220MOL0     C29571   0.518   1.294   6.353  0.4808 -0.2855  0.4668
  220MOL0     C29572   0.505   1.418   6.411  0.3200  0.1799  0.1406
  220MOL0     O29573   0.602   1.499   6.471  0.3224  0.4862  0.1018
  220MOL0     C29574   0.734   1.456   6.430 -0.0686 -1.1817  1.1230
  220MOL0     C29575   0.835   1.538   6.507 -0.2902  0.7727  0.2534
  220MOL0     C29576   0.985   1.510   6.471  0.9776 -0.4063  0.0747
  220MOL0     C29577   1.083   1.485   6.581 -0.8126  1.0987 -0.0823
  220MOL0     C29578   1.225   1.491   6.519 -0.2938  0.1359  0.2905
  220MOL0     C29579   1.308   1.594   6.600 -0.0025 -0.7008 -0.2716
  220MOL0     C29580   1.456   1.576   6.581  0.3836 -0.4009  0.0546
  220MOL0     C29581   1.523   1.452   6.640  0.6812 -0.2155 -0.3527
  220MOL0     N29582   1.671   1.454   6.658 -0.0913  0.6609 -0.0337
  220MOL0     C29583   1.748   1.561   6.675 -0.1480 -1.2041  0.1286
  220MOL0     C29584   1.873   1.506   6.697 -0.2039 -0.6831  0.3376
  220MOL0     C29585   2.005   1.571   6.724  0.2639 -0.3535 -0.2705
  220MOL0     C29586   2.000   1.663   6.842  0.2381  0.0923 -0.3257
  220MOL0     C29587   2.040   1.586   6.964  0.0761  0.7182  0.0041
  220MOL0     C29588   2.190   1.610   6.987 -0.2661  0.0921  0.7396
  220MOL0     O29589   2.228   1.545   7.109  0.5268 -0.0264 -0.0664
  220MOL0     C29590   2.357   1.545   7.152  0.1541 -0.6174 -0.9938
  220MOL0     C29591   2.385   1.533   7.284  0.0492 -0.2637  0.3633
  220MOL0     C29592   2.515   1.538   7.327 -0.7095 -0.2720  0.7667
  220MOL0     C29593   2.622   1.565   7.243 -0.2706 -0.2332 -0.0937
  220MOL0     C29594   2.762   1.580   7.284 -0.2667 -0.0541 -0.7755
  220MOL0     O29595   2.865   1.586   7.186 -0.2910  0.3098  0.0774
  220MOL0     C29596   2.987   1.632   7.218 -0.8059  0.2128  0.0169
  220MOL0     C29597   3.093   1.576   7.148 -0.0297  0.2571  0.2472
  220MOL0     C29598   3.226   1.599   7.175 -0.7220 -0.3619 -0.0664
  220MOL0     C29599   3.260   1.689   7.276  0.3785 -0.0495  0.0673
  220MOL0     O29600   3.394   1.706   7.300  0.4150  0.0141  0.6422
  220MOL0     C29601   3.425   1.760   7.431  0.9075  0.0111  0.2010
  220MOL0     C29602   3.567   1.724   7.444  0.6255 -0.6539  0.3272
  220MOL0     C29603   3.618   1.742   7.587 -1.2945 -0.1779 -0.1392
  220MOL0     C29604   3.755   1.676   7.595  0.5177  0.3575 -0.1093
  220MOL0     C29605   3.877   1.738   7.527 -0.1607 -0.1337  0.3874
  220MOL0     C29606   3.987   1.781   7.628 -0.6783 -0.3522  0.5975
  220MOL0     C29607   4.125   1.793   7.557 -0.9162 -0.4140  0.3502
  220MOL0     C29608   4.213   1.919   7.599 -0.0706  0.7536 -0.5511
  220MOL0    Cl29609   4.338   1.939   7.481 -0.4299  0.0319  0.2648
  220MOL0     C29610   3.154   1.751   7.351  0.2738  0.5336 -1.3527
  220MOL0     C29611   3.021   1.725   7.321 -0.6288  0.3482 -0.8155
  220MOL0     O29612   2.783   1.591   7.407 -0.9262 -0.3332 -0.6387
  220MOL0     C29613   2.595   1.568   7.107 -0.2221 -0.1411  0.5745
  220MOL0     C29614   2.462   1.562   7.061 -0.3273  0.0424  0.1837
  220MOL0     N29615   1.875   1.373   6.671  0.1042  0.6054 -0.2902
  220MOL0     N29616   1.753   1.344   6.648  0.1401  0.5647 -0.0846
  220MOL0     C29617   0.384   1.488   6.396 -0.6400 -0.6444 -0.0186
  220MOL0     C29618   0.278   1.429   6.333 -0.5289 -0.5525 -0.2943
  220MOL0     C29619  -0.013   1.090   6.227 -0.2860  0.0329  0.2047
  220MOL0     C29620  -0.105   1.185   6.266 -0.7617 -0.9177 -0.0819
  220MOL0     C29621  -0.242   1.180   6.245 -0.5665  0.2717  0.4224
  220MOL0     C29622  -0.290   1.072   6.179  0.9932 -0.0489  0.6095
  220MOL0     O29623  -0.426   1.055   6.153 -0.5088 -0.1006  0.4382
  220MOL0     C29624  -0.518   1.163   6.145  0.9816  0.6458  0.0178
  220MOL0     C29625  -0.634   1.114   6.060 -0.1148  0.2159  0.4602
  220MOL0     C29626  -0.579   1.065   5.923  0.1254  0.8824  0.3736
  220MOL0     C29627  -0.684   0.979   5.853 -0.3813  0.8402 -0.3886
  220MOL0     C29628  -0.664   0.835   5.885 -0.1295 -0.0877  0.0264
  220MOL0     C29629  -0.661   0.716   5.905 -0.4962  0.0376 -0.4672
  220MOL0     C29630  -0.201   0.967   6.146 -0.0515  0.3231  0.4577
  220MOL0     C29631  -0.062   0.976   6.168  0.0379  0.4727  1.3547
  220MOL0     C29632   0.026   0.868   6.096  0.1698  0.5539  0.4277
  220MOL0     H29633   0.422   1.125   6.273  0.6446 -0.5675  0.1662
  220MOL0     H29634   0.612   1.240   6.356  0.4404 -0.3067  1.5015
  220MOL0     H29635   0.758   1.351   6.450 -0.8503 -1.7682 -0.7533
  220MOL0     H29636   0.744   1.477   6.323 -2.8421  1.8051  1.2978
  220MOL0     H29637   0.821   1.513   6.612  0.6163 -2.8646 -0.3510
  220MOL0     H29638   0.818   1.646   6.503 -2.5409  0.4471 -0.4654
  220MOL0     H29639   1.014   1.604   6.423  0.7997 -0.4117 -0.0445
  220MOL0     H29640   0.985   1.430   6.397  1.2493  0.1937 -0.5871
  220MOL0     H29641   1.059   1.551   6.664  1.0715 -0.4443  1.7940
  220MOL0     H29642   1.065   1.388   6.628 -2.3236  2.9543  3.5926
  220MOL0     H29643   1.271   1.393   6.535  1.7318  0.9722 -0.0825
  220MOL0     H29644   1.221   1.519   6.414  0.9679  0.3881  0.2932
  220MOL0     H29645   1.286   1.698   6.574  0.6576 -0.3543  0.5079
  220MOL0     H29646   1.290   1.578   6.707 -0.1924  0.2871 -0.1493
  220MOL0     H29647   1.507   1.657   6.633  1.1919  2.6401 -4.8539
  220MOL0     H29648   1.490   1.596   6.479  1.5313  0.2657  0.5488
  220MOL0     H29649   1.484   1.442   6.742 -0.8662 -3.1839 -1.1131
  220MOL0     H29650   1.499   1.360   6.585 -1.5570  0.2776 -0.2886
  220MOL0     H29651   1.716   1.664   6.679  0.2938 -0.9281 -2.1276
  220MOL0     H29652   2.074   1.488   6.741  0.4797 -0.5977 -2.1645
  220MOL0     H29653   2.045   1.623   6.637 -0.3215  1.8657  0.7141
  220MOL0     H29654   2.082   1.733   6.821 -0.2436  1.6787  2.5546
  220MOL0     H29655   1.906   1.715   6.860  0.7396  1.1944 -0.8145
  220MOL0     H29656   2.021   1.478   6.959 -0.1589  0.7277  0.5528
  220MOL0     H29657   1.982   1.623   7.049 -0.6147  0.9900 -0.5713
  220MOL0     H29658   2.213   1.716   7.002 -2.1404  0.3833  1.9299
  220MOL0     H29659   2.231   1.569   6.894 -1.2977  1.6256 -0.4558
  220MOL0     H29660   2.310   1.518   7.361 -2.4602 -0.1022 -1.9015
  220MOL0     H29661   2.533   1.522   7.433 -1.7626 -0.7657  0.8863
  220MOL0     H29662   3.071   1.508   7.066 -0.2578  1.4646 -0.7277
  220MOL0     H29663   3.308   1.557   7.117 -0.6688 -0.9374  0.4089
  220MOL0     H29664   3.413   1.868   7.448  0.4329  0.1320 -0.8571
  220MOL0     H29665   3.365   1.698   7.498 -1.7852  2.7326  0.5140
  220MOL0     H29666   3.560   1.615   7.437 -2.2458 -0.7682  2.5036
  220MOL0     H29667   3.631   1.772   7.370 -0.7982  2.4431  0.9534
  220MOL0     H29668   3.615   1.848   7.615  1.7416  0.1697 -0.7836
  220MOL0     H29669   3.552   1.692   7.659  0.4711 -0.1112  1.6239
  220MOL0     H29670   3.729   1.578   7.555 -2.9112  0.1530  2.1453
  220MOL0     H29671   3.782   1.660   7.700 -0.5947  0.5842  0.2208
  220MOL0     H29672   3.844   1.826   7.471 -2.0774 -1.0139  0.0863
  220MOL0     H29673   3.925   1.662   7.465  2.8446 -0.4397  2.8521
  220MOL0     H29674   3.968   1.875   7.681  2.9859  0.3983  0.8450
  220MOL0     H29675   3.992   1.704   7.704 -1.6832 -1.5619 -0.5214
  220MOL0     H29676   4.119   1.798   7.448 -1.3587 -2.2554  0.2620
  220MOL0     H29677   4.178   1.701   7.583  0.0740 -0.4010 -1.4662
  220MOL0     H29678   4.159   2.013   7.588  0.5685  1.0506 -1.1962
  220MOL0     H29679   4.254   1.904   7.699  0.0679  3.4282 -0.1425
  220MOL0     H29680   3.175   1.816   7.436  1.3421 -0.2099 -1.0328
  220MOL0     H29681   2.944   1.772   7.380  0.5684 -2.2177  3.2492
  220MOL0     H29682   2.672   1.585   7.033 -1.3486  0.8604 -0.4006
  220MOL0     H29683   2.433   1.562   6.957  0.2981  0.9743  0.0047
  220MOL0     H29684   0.379   1.585   6.444  1.5384  0.5930 -2.0751
  220MOL0     H29685   0.189   1.484   6.304  1.3092  2.1264 -1.2418
  220MOL0     H29686  -0.083   1.286   6.298 -2.4818 -0.9928  1.5208
  220MOL0     H29687  -0.302   1.266   6.273 -1.7664 -0.5282  0.3813
  220MOL0     H29688  -0.481   1.256   6.101 -1.9332  2.2056  0.5950
  220MOL0     H29689  -0.551   1.197   6.244  1.4916  2.0801 -0.2828
  220MOL0     H29690  -0.718   1.183   6.064 -0.0662  0.2370  1.2715
  220MOL0     H29691  -0.683   1.030   6.111 -2.4846  1.6933  0.7857
  220MOL0     H29692  -0.489   1.004   5.932 -2.3805 -2.9461  2.8119
  220MOL0     H29693  -0.555   1.147   5.855  1.4759  0.0426 -0.1885
  220MOL0     H29694  -0.777   1.020   5.892 -1.3939 -0.3098 -1.5067
  220MOL0     H29695  -0.678   0.998   5.745 -0.5051  2.1673 -0.1823
  220MOL0     H29696  -0.649   0.610   5.913  0.0141  0.1839  0.9712
  220MOL0     H29697  -0.253   0.885   6.096 -1.5116  1.5418 -0.0994
  220MOL0     H29698   0.104   0.920   6.038  0.0746  1.4845  1.1134
  220MOL0     H29699   0.068   0.799   6.170  0.1083 -0.3708 -0.3818
  220MOL0     H29700  -0.036   0.798   6.040 -3.1887  1.5867  2.5584
  221MOL0     O29701   5.843   1.494   7.299 -1.1502 -0.5494 -0.6679
  221MOL0     C29702   5.924   1.563   7.228  0.6332  0.2281  0.4980
  221MOL0     O29703   5.897   1.691   7.183 -0.8703 -0.1624  0.6487
  221MOL0     C29704   5.776   1.746   7.216 -0.1788 -0.6893 -0.8465
  221MOL0     C29705   5.761   1.808   7.344  0.1496  0.0088 -0.1823
  221MOL0     C29706   5.641   1.868   7.385 -0.4627 -0.9975 -0.3283
  221MOL0     C29707   5.529   1.875   7.301  0.5562  0.8463 -0.0897
  221MOL0     O29708   5.410   1.941   7.322  0.2233  0.7039 -0.3933
  221MOL0     C29709   5.420   2.042   7.423  0.0059 -0.5527  0.2363
  221MOL0     C29710   5.295   2.133   7.417 -0.0972 -0.0974  0.3458
  221MOL0     C29711   5.314   2.231   7.297 -0.0592  0.2156 -0.3788
  221MOL0     C29712   5.388   2.346   7.354 -0.5481 -0.5612 -0.0878
  221MOL0     C29713   5.499   2.385   7.265 -0.8060 -0.1964  0.3380
  221MOL0     C29714   5.457   2.436   7.123 -0.3563 -0.5911 -1.0953
  221MOL0     C29715   5.582   2.424   7.033  1.2176 -0.1565 -0.7794
  221MOL0     C29716   5.698   2.513   7.066  0.2334 -0.3214  0.9046
  221MOL0     N29717   5.786   2.538   6.946  0.5216  0.7203  0.0461
  221MOL0     C29718   5.889   2.449   6.911  0.3834 -0.2778 -0.3004
  221MOL0     C29719   5.948   2.526   6.820 -0.5468 -0.3000  0.2083
  221MOL0     C29720   6.087   2.503   6.783 -0.8262 -0.5741 -0.4045
  221MOL0     C29721   6.093   2.415   6.665  0.3007 -0.9596  0.6281
  221MOL0     C29722   6.219   2.438   6.583 -0.2740  0.3841  0.5918
  221MOL0     C29723   6.355   2.446   6.653 -0.5811  0.5292 -1.8762
  221MOL0     O29724   6.381   2.331   6.731  0.2231  0.5948 -0.0751
  221MOL0     C29725   6.499   2.311   6.796  0.4839  0.2988 -1.4021
  221MOL0     C29726   6.607   2.405   6.804 -1.1477 -0.0183  0.2917
  221MOL0     C29727   6.720   2.368   6.880 -0.5681 -0.2382 -0.0611
  221MOL0     C29728   6.735   2.247   6.951  1.3186 -0.7105  0.2442
  221MOL0     C29729   6.855   2.216   7.029 -0.3002 -0.1692 -0.6207
  221MOL0     O29730   6.841   2.113   7.118 -0.0712 -0.4722  0.2149
  221MOL0     C29731   6.952   2.052   7.180  0.5786  0.4574  0.4483
  221MOL0     C29732   7.062   2.010   7.109 -0.1935 -0.3632 -1.1776
  221MOL0     C29733   7.163   1.935   7.175  0.0309  0.0246 -0.4413
  221MOL0     C29734   7.149   1.906   7.316 -0.1812  0.0750 -0.5579
  221MOL0     O29735   7.248   1.833   7.376 -0.5282  0.4784  0.1791
  221MOL0     C29736   7.286   1.867   7.508 -0.2282 -0.3913 -0.2609
  221MOL0     C29737   7.435   1.855   7.534 -0.2796  0.2518  0.6236
  221MOL0     C29738   7.465   1.902   7.676  0.0503  0.1690 -0.3386
  221MOL0     C29739   7.618   1.939   7.689 -0.6615 -0.1292 -0.7912
  221MOL0     C29740   7.659   2.007   7.818  0.0805  0.9153 -0.6317
  221MOL0     C29741   7.650   1.905   7.934  0.1020 -0.3453 -0.2934
  221MOL0     C29742   7.635   1.971   8.062  0.1666 -0.2912 -0.5757
  221MOL0     C29743   7.623   1.877   8.177  0.1960 -0.5165 -1.0100
  221MOL0    Cl29744   7.790   1.834   8.233 -0.0069  0.5758  0.3797
  221MOL0     C29745   7.035   1.958   7.384 -0.1470 -0.2508 -0.0956
  221MOL0     C29746   6.933   2.022   7.313 -0.5473 -0.5049  0.3889
  221MOL0     O29747   6.960   2.271   7.000 -0.3719  0.1305 -1.0794
  221MOL0     C29748   6.621   2.160   6.943 -0.1790 -0.2726  0.2356
  221MOL0     C29749   6.512   2.194   6.868  0.2618  0.0832 -0.4804
  221MOL0     N29750   5.883   2.644   6.791 -0.1366 -0.5405  0.4838
  221MOL0     N29751   5.776   2.655   6.877 -0.7167  0.6494 -0.0122
  221MOL0     C29752   5.550   1.817   7.172  0.1882 -0.5875  1.0175
  221MOL0     C29753   5.674   1.757   7.125  0.0244 -1.1011 -0.5744
  221MOL0     C29754   6.051   1.511   7.178 -0.0090  1.3761 -0.8703
  221MOL0     C29755   6.113   1.574   7.075  0.5756  0.8996  0.7617
  221MOL0     C29756   6.223   1.517   7.004  0.0103 -0.6516  0.9025
  221MOL0     C29757   6.293   1.409   7.054 -0.0347  0.5235 -0.3838
  221MOL0     O29758   6.393   1.357   6.978 -0.2104 -0.1123  0.6600
  221MOL0     C29759   6.474   1.255   7.042  0.4279 -0.2097  0.5632
  221MOL0     C29760   6.583   1.192   6.949 -0.3266  1.0312 -1.0179
  221MOL0     C29761   6.705   1.283   6.943 -0.3822 -0.0297  0.0497
  221MOL0     C29762   6.826   1.216   6.875 -0.2341 -0.1443 -0.3504
  221MOL0     C29763   6.794   1.170   6.739  0.4843  0.1142  0.0557
  221MOL0     C29764   6.786   1.122   6.629  0.8945  1.1679  0.5369
  221MOL0     C29765   6.237   1.356   7.179 -0.6376  0.8454 -0.0409
  221MOL0     C29766   6.119   1.399   7.240  1.4159 -0.4988  0.4650
  221MOL0     C29767   6.070   1.350   7.383 -0.1337  0.3909 -0.1397
  221MOL0     H29768   5.847   1.808   7.410  0.8987 -1.3801 -1.1042
  221MOL0     H29769   5.647   1.904   7.487 -2.5306  0.1125 -0.5398
  221MOL0     H29770   5.431   2.004   7.525 -1.8810 -0.6879  0.4169
  221MOL0     H29771   5.515   2.091   7.399 -0.5437  0.6343  0.3884
  221MOL0     H29772   5.279   2.186   7.511  0.2406 -0.7678  0.7922
  221MOL0     H29773   5.208   2.072   7.392 -0.6240  1.2359 -1.1983
  221MOL0     H29774   5.219   2.257   7.250 -0.5179 -2.5788 -1.1962
  221MOL0     H29775   5.377   2.180   7.223  0.6986 -0.7182  0.8635
  221MOL0     H29776   5.326   2.434   7.372 -0.8581  0.0251 -3.4064
  221MOL0     H29777   5.433   2.326   7.452 -3.2199 -1.6486  1.0152
  221MOL0     H29778   5.555   2.464   7.315 -0.6581  1.3130 -2.0290
  221MOL0     H29779   5.566   2.301   7.248 -1.2969 -0.6696  0.7264
  221MOL0     H29780   5.372   2.377   7.087 -1.4147 -0.4273  0.9860
  221MOL0     H29781   5.425   2.540   7.134  1.0177 -0.3172  0.7118
  221MOL0     H29782   5.544   2.454   6.935 -1.5376  1.7831  0.7514
  221MOL0     H29783   5.609   2.318   7.023 -3.3809 -1.7452  0.8192
  221MOL0     H29784   5.659   2.603   7.114 -0.2728 -0.2522  0.3844
  221MOL0     H29785   5.759   2.451   7.132 -0.1530  0.5031  2.0652
  221MOL0     H29786   5.908   2.358   6.968 -0.1775  0.3909  1.0074
  221MOL0     H29787   6.143   2.594   6.764  2.4361 -2.5318 -0.9008
  221MOL0     H29788   6.151   2.461   6.861 -0.7843 -0.0309 -0.1432
  221MOL0     H29789   6.094   2.311   6.697 -1.9557 -1.4514 -0.6528
  221MOL0     H29790   5.999   2.431   6.612  0.0918 -0.1962  1.2127
  221MOL0     H29791   6.214   2.534   6.531  4.0826  0.9605  0.8808
  221MOL0     H29792   6.207   2.358   6.509 -0.3179  1.0271 -0.1117
  221MOL0     H29793   6.351   2.528   6.726  0.3986 -0.4930 -0.6214
  221MOL0     H29794   6.441   2.463   6.588 -1.1171  1.2516 -2.4095
  221MOL0     H29795   6.607   2.496   6.744  2.0072  2.0695  3.0933
  221MOL0     H29796   6.800   2.438   6.903  0.4940 -0.7024 -2.1297
  221MOL0     H29797   7.073   2.031   7.003  3.0741  3.6941 -0.2665
  221MOL0     H29798   7.246   1.891   7.120  1.2245 -1.5760  2.3962
  221MOL0     H29799   7.258   1.970   7.532  0.8014  0.4741 -2.5454
  221MOL0     H29800   7.229   1.794   7.567 -0.3418 -0.4537 -0.4463
  221MOL0     H29801   7.473   1.753   7.520  0.0550  0.5334 -0.6287
  221MOL0     H29802   7.492   1.916   7.462 -0.0459  1.1000  1.5026
  221MOL0     H29803   7.392   1.974   7.714 -0.4684 -0.5986  0.1433
  221MOL0     H29804   7.457   1.817   7.745  1.8880  0.5998  0.4681
  221MOL0     H29805   7.646   2.012   7.612  0.2559 -1.2127 -1.5239
  221MOL0     H29806   7.683   1.851   7.680  2.1835  1.4305  2.1872
  221MOL0     H29807   7.596   2.092   7.845 -0.2560 -0.0457  1.8240
  221MOL0     H29808   7.763   2.041   7.815  0.6050  0.0612  3.2417
  221MOL0     H29809   7.559   1.844   7.934 -1.1482  1.4329  0.8325
  221MOL0     H29810   7.739   1.842   7.945 -0.0883 -0.1901  3.0543
  221MOL0     H29811   7.537   2.018   8.056 -0.3272 -0.7654  2.1602
  221MOL0     H29812   7.715   2.045   8.079  1.6519 -1.3109 -2.7227
  221MOL0     H29813   7.587   1.936   8.263  0.7499 -1.3942 -0.1580
  221MOL0     H29814   7.555   1.795   8.154 -1.3845  1.0050 -2.0596
  221MOL0     H29815   7.002   1.952   7.487 -1.7151 -0.3609 -0.5810
  221MOL0     H29816   6.846   2.045   7.373  0.4538  1.3242  1.2295
  221MOL0     H29817   6.622   2.059   6.984 -0.1689 -0.7299 -0.8546
  221MOL0     H29818   6.433   2.120   6.866  0.5428 -0.2684 -3.4943
  221MOL0     H29819   5.467   1.831   7.103  1.4159 -0.6054 -0.5220
  221MOL0     H29820   5.691   1.729   7.021 -1.2206 -3.2569 -0.2668
  221MOL0     H29821   6.049   1.641   7.018 -1.7716 -2.0565 -0.3411
  221MOL0     H29822   6.268   1.560   6.915  0.3138 -2.3026  0.2211
  221MOL0     H29823   6.401   1.178   7.068 -2.6700  1.8265 -1.4139
  221MOL0     H29824   6.521   1.292   7.133  3.6815  1.3847 -1.5617
  221MOL0     H29825   6.542   1.180   6.848 -0.8521  2.2592 -0.9668
  221MOL0     H29826   6.608   1.095   6.993  0.2812 -0.1111 -3.6431
  221MOL0     H29827   6.739   1.313   7.043  0.5642 -3.0420  0.7332
  221MOL0     H29828   6.677   1.375   6.891 -2.2506  0.1119  1.1851
  221MOL0     H29829   6.904   1.291   6.862  0.8012 -0.8817  1.3182
  221MOL0     H29830   6.855   1.138   6.947  0.8326 -1.1402 -1.8037
  221MOL0     H29831   6.767   1.081   6.532 -0.4738  0.8135  0.9358
  221MOL0     H29832   6.294   1.272   7.219  2.1505  1.8230 -1.6308
  221MOL0     H29833   5.972   1.302   7.377  0.5048 -0.7924 -2.4636
  221MOL0     H29834   6.138   1.278   7.428 -1.6175 -0.2755  1.1085
  221MOL0     H29835   6.072   1.430   7.458 -3.4113 -1.5643  2.2681
  222MOL0     O29836   1.529   6.523  10.908  0.5980  0.2359  0.3695
  222MOL0     C29837   1.517   6.433  10.828  1.1088  0.0039  0.3782
  222MOL0     O29838   1.589   6.421  10.713 -0.2164 -0.1936 -0.7781
  222MOL0     C29839   1.696   6.499  10.694 -0.1480 -0.2198  0.2471
  222MOL0     C29840   1.695   6.580  10.578  0.2583 -0.4896  0.8003
  222MOL0     C29841   1.801   6.668  10.554 -0.2144  0.9705  0.3360
  222MOL0     C29842   1.909   6.675  10.647  0.0951  1.1391 -0.2843
  222MOL0     O29843   2.005   6.770  10.632  0.4534  0.1790  0.0128
  222MOL0     C29844   2.138   6.718  10.621 -0.0536 -0.3912  0.1911
  222MOL0     C29845   2.230   6.811  10.539 -0.0794  0.3285 -0.1146
  222MOL0     C29846   2.292   6.905  10.631 -0.7605  0.6495  0.1300
  222MOL0     C29847   2.368   7.014  10.549 -0.3769  0.0596  0.6401
  222MOL0     C29848   2.478   7.084  10.629  0.2256 -0.0511  0.1357
  222MOL0     C29849   2.561   7.181  10.557 -0.3086 -0.3108  0.3815
  222MOL0     C29850   2.651   7.261  10.646 -0.4398 -0.9228  0.5706
  222MOL0     C29851   2.754   7.333  10.564  0.4051  0.3208  0.3916
  222MOL0     N29852   2.836   7.416  10.644 -0.2958  0.0564 -0.0259
  222MOL0     C29853   2.814   7.542  10.685 -0.2287  0.1668  0.1234
  222MOL0     C29854   2.926   7.577  10.742 -0.8082  0.0758 -0.0026
  222MOL0     C29855   2.935   7.712  10.802  0.3119 -0.8735  0.7181
  222MOL0     C29856   3.069   7.763  10.852 -0.1166  0.0106 -0.1400
  222MOL0     C29857   3.194   7.745  10.764 -0.4474  0.7697  0.0622
  222MOL0     C29858   3.305   7.834  10.826  0.3857  0.2523  1.1091
  222MOL0     O29859   3.441   7.831  10.763  0.7804  0.4336 -0.0716
  222MOL0     C29860   3.526   7.732  10.807 -0.3222 -1.6966  0.7650
  222MOL0     C29861   3.658   7.753  10.755  1.0234 -0.0016 -0.3533
  222MOL0     C29862   3.755   7.644  10.755 -0.2589 -0.2121  0.3695
  222MOL0     C29863   3.720   7.529  10.827  0.1061  0.4772 -0.5550
  222MOL0     C29864   3.830   7.427  10.863 -0.0127  0.0313  0.9576
  222MOL0     O29865   3.824   7.365  10.989 -0.2788  0.2168  0.4645
  222MOL0     C29866   3.907   7.263  11.022  0.5886 -0.2964 -0.2179
  222MOL0     C29867   3.857   7.162  11.103  0.5272  0.3985  0.1484
  222MOL0     C29868   3.942   7.062  11.146  0.1980 -0.0912 -0.7001
  222MOL0     C29869   4.078   7.057  11.112 -0.6334 -0.2797 -0.1619
  222MOL0     O29870   4.170   6.965  11.159  0.5711  0.4209 -0.9017
  222MOL0     C29871   4.124   6.853  11.249 -0.5433 -0.7348  0.1384
  222MOL0     C29872   4.057   6.739  11.169  0.0581  0.1900  0.1563
  222MOL0     C29873   4.063   6.608  11.256 -0.5403 -0.6913  1.5846
  222MOL0     C29874   3.934   6.524  11.250 -0.4283  0.2126  0.4025
  222MOL0     C29875   3.968   6.374  11.270 -0.6505 -0.2320 -0.0761
  222MOL0     C29876   4.030   6.351  11.404 -0.1601  0.0487 -0.2965
  222MOL0     C29877   3.931   6.359  11.521  0.3688 -1.5594  0.5962
  222MOL0     C29878   3.982   6.338  11.664 -0.1831  0.0385 -0.6928
  222MOL0    Cl29879   3.843   6.318  11.768 -0.2179 -0.1527 -0.2199
  222MOL0     C29880   4.130   7.160  11.034  0.9508  0.0413 -0.0967
  222MOL0     C29881   4.048   7.276  10.999 -0.7076  1.1556  0.1622
  222MOL0     O29882   3.909   7.395  10.773 -0.1207  0.1328  0.1093
  222MOL0     C29883   3.597   7.517  10.892 -0.6916 -0.9196 -0.0414
  222MOL0     C29884   3.497   7.614  10.873 -0.5858  0.2631  0.0267
  222MOL0     N29885   3.017   7.479  10.739  0.0149 -0.9545  0.2163
  222MOL0     N29886   2.959   7.380  10.692  0.9846 -0.8019  0.5941
  222MOL0     C29887   1.918   6.586  10.757  0.5266  0.2340  0.0755
  222MOL0     C29888   1.807   6.499  10.780  0.2247 -0.4146  0.5906
  222MOL0     C29889   1.402   6.335  10.850  0.6731  0.1309  0.5186
  222MOL0     C29890   1.414   6.212  10.777  0.2644 -0.6242  0.0544
  222MOL0     C29891   1.315   6.113  10.781 -0.0080  0.0275 -0.5439
  222MOL0     C29892   1.205   6.133  10.865 -0.7080  0.9823  0.3323
  222MOL0     O29893   1.112   6.034  10.890  0.5021  0.1237 -0.5828
  222MOL0     C29894   1.129   5.901  10.842 -0.0298  0.6992 -0.1370
  222MOL0     C29895   1.035   5.817  10.924  0.4218  1.0657 -0.5374
  222MOL0     C29896   0.889   5.843  10.887  0.2227 -0.6640  0.1701
  222MOL0     C29897   0.795   5.753  10.968  0.5042  0.3661 -0.6917
  222MOL0     C29898   0.654   5.764  10.912 -0.5100 -0.0386 -0.4880
  222MOL0     C29899   0.533   5.778  10.882 -0.8605 -0.4860  0.2829
  222MOL0     C29900   1.191   6.256  10.929  0.1940  0.0307  0.2995
  222MOL0     C29901   1.279   6.358  10.926 -0.3811  0.1009  0.0767
  222MOL0     C29902   1.260   6.479  11.020  0.0056 -0.5574 -0.1358
  222MOL0     H29903   1.611   6.577  10.509  0.3159 -0.1381  0.7134
  222MOL0     H29904   1.807   6.736  10.470  0.1662 -0.7161 -1.0764
  222MOL0     H29905   2.177   6.702  10.722  1.4948  2.6607  0.1628
  222MOL0     H29906   2.129   6.623  10.567 -0.6773  0.9829 -2.2199
  222MOL0     H29907   2.170   6.859  10.460  1.6553  2.0153 -0.4967
  222MOL0     H29908   2.314   6.754  10.498  1.0670  1.0956  1.0896
  222MOL0     H29909   2.371   6.852  10.685 -2.1217 -2.3817 -0.6617
  222MOL0     H29910   2.215   6.940  10.702 -1.1364 -0.4298  0.2764
  222MOL0     H29911   2.397   6.968  10.454 -1.7143  0.9108 -0.2061
  222MOL0     H29912   2.297   7.091  10.519 -2.3763 -1.8653  0.1059
  222MOL0     H29913   2.431   7.132  10.715  0.2610 -1.4129  0.9491
  222MOL0     H29914   2.544   7.010  10.676 -1.7396 -0.4290  2.4750
  222MOL0     H29915   2.622   7.133  10.480 -0.1778 -0.7277  0.7378
  222MOL0     H29916   2.498   7.253  10.504 -0.6671 -2.1494 -1.8352
  222MOL0     H29917   2.700   7.198  10.721 -0.9436 -2.1512 -0.1097
  222MOL0     H29918   2.585   7.338  10.688 -1.9891 -1.7737 -0.1876
  222MOL0     H29919   2.824   7.261  10.522  1.5815  0.6892  1.6575
  222MOL0     H29920   2.700   7.384  10.484 -0.7494  2.5391  2.4404
  222MOL0     H29921   2.726   7.605  10.676  1.1131  1.9958 -0.7873
  222MOL0     H29922   2.916   7.783  10.722  3.7764 -0.1691  0.3810
  222MOL0     H29923   2.858   7.735  10.876  1.2986 -0.5954  1.6850
  222MOL0     H29924   3.055   7.870  10.872  1.4730  0.7462 -2.5526
  222MOL0     H29925   3.078   7.710  10.947 -2.3833  0.4168  0.3621
  222MOL0     H29926   3.175   7.790  10.666  0.4651  2.4023  0.5894
  222MOL0     H29927   3.212   7.638  10.751 -0.7856  0.4136  2.0951
  222MOL0     H29928   3.326   7.813  10.932 -0.1190  0.6771  1.2948
  222MOL0     H29929   3.272   7.937  10.816 -0.7807 -0.1889  0.2127
  222MOL0     H29930   3.687   7.842  10.701  2.9829 -0.3193  0.1150
  222MOL0     H29931   3.856   7.640  10.714  0.5841 -0.2979  2.3373
  222MOL0     H29932   3.754   7.157  11.137  0.6888 -0.2314  0.5646
  222MOL0     H29933   3.905   6.993  11.221 -1.6863  1.1184 -0.4716
  222MOL0     H29934   4.214   6.820  11.301 -0.4309  0.8733  1.0579
  222MOL0     H29935   4.063   6.888  11.334 -0.1389  1.0720 -0.2756
  222MOL0     H29936   3.951   6.765  11.159 -0.2117 -0.4227  1.3278
  222MOL0     H29937   4.114   6.719  11.078 -0.9963 -4.8168  0.3536
  222MOL0     H29938   4.157   6.557  11.236 -0.5560 -0.1949  0.1159
  222MOL0     H29939   4.074   6.652  11.356 -0.8290  1.1746  0.8269
  222MOL0     H29940   3.873   6.542  11.160  1.4093 -1.0645 -1.1737
  222MOL0     H29941   3.869   6.555  11.332 -0.8475 -0.5725  0.3780
  222MOL0     H29942   4.038   6.337  11.195 -0.5835 -1.7387  0.7014
  222MOL0     H29943   3.878   6.313  11.265 -2.5320  2.1363  2.0105
  222MOL0     H29944   4.069   6.249  11.418 -2.8869 -1.0207  0.3522
  222MOL0     H29945   4.112   6.421  11.415  1.3008 -1.5335 -0.6625
  222MOL0     H29946   3.858   6.277  11.524 -1.0240 -0.3615  3.4732
  222MOL0     H29947   3.879   6.455  11.528  3.4404  0.2982 -0.0835
  222MOL0     H29948   4.040   6.246  11.657 -1.0990 -0.7852  1.6249
  222MOL0     H29949   4.054   6.410  11.703  3.0114 -3.4681  0.4918
  222MOL0     H29950   4.237   7.154  11.019  1.2796  3.2887  0.1294
  222MOL0     H29951   4.094   7.364  10.954 -3.1899  2.2394 -0.4568
  222MOL0     H29952   3.577   7.426  10.946 -0.8584 -2.1448 -2.0487
  222MOL0     H29953   3.393   7.609  10.906 -1.6574  3.9192 -2.2051
  222MOL0     H29954   2.009   6.590  10.815  1.4455  2.6777 -1.3877
  222MOL0     H29955   1.824   6.439  10.869  0.6338  2.5143  2.6241
  222MOL0     H29956   1.507   6.179  10.733 -0.1417 -1.3082 -0.3158
  222MOL0     H29957   1.327   6.015  10.737 -0.1607  0.9821 -2.8995
  222MOL0     H29958   1.229   5.857  10.853  0.3631  1.3971 -0.8745
  222MOL0     H29959   1.116   5.900  10.734  0.7783  1.4186 -0.2539
  222MOL0     H29960   1.049   5.837  11.030 -0.9257 -1.4470  0.2130
  222MOL0     H29961   1.066   5.716  10.894  2.3366  1.5962 -0.4700
  222MOL0     H29962   0.874   5.821  10.780 -0.7262 -1.0949  0.3852
  222MOL0     H29963   0.857   5.945  10.911  1.0378 -0.4427  0.3372
  222MOL0     H29964   0.830   5.650  10.956  0.6772  0.1235  1.4467
  222MOL0     H29965   0.806   5.781  11.073 -0.5658 -0.0615 -0.4533
  222MOL0     H29966   0.436   5.793  10.839  1.0732  1.5745 -3.9042
  222MOL0     H29967   1.099   6.274  10.983 -0.6364  0.7928 -1.2779
  222MOL0     H29968   1.299   6.575  10.984  0.8261 -0.7438  0.2176
  222MOL0     H29969   1.155   6.478  11.050  0.0301 -0.6155 -0.0537
  222MOL0     H29970   1.310   6.449  11.112  0.0202  4.0163  1.5991
  223MOL0     O29971  11.213   2.062   4.332 -0.1818 -0.3695  0.8693
  223MOL0     C29972  11.198   2.140   4.235  0.3328  0.3837 -0.2798
  223MOL0     O29973  11.299   2.194   4.172 -0.0986  0.2858 -0.1604
  223MOL0     C29974  11.426   2.148   4.204  0.1008 -0.5646 -0.2947
  223MOL0     C29975  11.531   2.237   4.197 -0.2043  0.3190 -0.5148
  223MOL0     C29976  11.662   2.197   4.229 -0.2784  0.7043  0.1618
  223MOL0     C29977  11.694   2.063   4.250  0.2546  0.2675 -0.0796
  223MOL0     O29978  11.819   2.014   4.274 -0.1707  0.4907  0.2681
  223MOL0     C29979  11.928   2.101   4.312  1.1867 -0.1612  0.6690
  223MOL0     C29980  12.060   2.025   4.303  0.8811 -0.3506  0.5631
  223MOL0     C29981  12.171   2.086   4.390 -0.0109  0.3166  0.1280
  223MOL0     C29982  12.294   1.990   4.397  0.2378 -0.6776 -0.1184
  223MOL0     C29983  12.411   2.059   4.464  0.6370 -0.6440 -0.0266
  223MOL0     C29984  12.517   1.961   4.495 -1.1906 -0.3414  0.4057
  223MOL0     C29985  12.563   1.877   4.369 -0.3244  0.3398  1.0955
  223MOL0     C29986  12.688   1.789   4.417 -1.3243 -0.6139 -0.8502
  223MOL0     N29987  12.729   1.703   4.310  0.0292 -0.0368  0.2251
  223MOL0     C29988  12.831   1.727   4.219 -0.0798  0.1408  0.3523
  223MOL0     C29989  12.831   1.616   4.137 -0.8010 -0.7008 -0.4382
  223MOL0     C29990  12.898   1.589   4.005  0.2721  0.7827  0.0566
  223MOL0     C29991  12.966   1.447   3.999 -0.1724  0.4326 -0.1069
  223MOL0     C29992  13.037   1.432   3.865 -0.2980 -0.5215  0.6775
  223MOL0     C29993  13.092   1.298   3.849  0.0713  1.0261 -0.0692
  223MOL0     O29994  13.205   1.297   3.942 -0.6537 -0.5431 -0.8069
  223MOL0     C29995  13.306   1.206   3.938  0.1402  0.4009 -0.0573
  223MOL0     C29996  13.308   1.113   3.836 -0.1080  0.3117  0.6688
  223MOL0     C29997  13.427   1.034   3.829 -0.5680 -0.9270  0.8695
  223MOL0     C29998  13.533   1.043   3.915 -0.1165  0.1275 -0.3009
  223MOL0     C29999  13.657   0.966   3.902 -0.8166  0.1508 -0.4664
  223MOL0     O30000  13.723   0.937   4.013 -0.9200  0.2086 -0.3396
  223MOL0     C30001  13.827   0.854   3.986  1.5352 -0.3479  0.4444
  223MOL0     C30002  13.804   0.710   3.969 -0.7865  0.0390 -0.4640
  223MOL0     C30003  13.917   0.630   3.955 -0.0999  0.2349  0.0536
  223MOL0     C30004  14.040   0.686   3.980 -0.3635  0.2080  0.2888
  223MOL0     O30005  14.151   0.617   3.960  0.1450  0.5437  0.3790
  223MOL0     C30006  14.189   0.545   4.080 -0.0087  1.0892  0.0600
  223MOL0     C30007  14.334   0.495   4.071 -0.3138 -0.0681  0.1135
  223MOL0     C30008  14.376   0.424   4.195  0.6512 -0.0941 -0.4980
  223MOL0     C30009  14.493   0.328   4.161 -0.5725 -0.0525  0.0937
  223MOL0     C30010  14.506   0.210   4.256 -0.2872  0.2324 -0.3638
  223MOL0     C30011  14.610   0.107   4.210 -0.0339  0.6466  0.1118
  223MOL0     C30012  14.739   0.162   4.268  0.0280  0.4244 -0.5595
  223MOL0     C30013  14.860   0.087   4.224 -1.0954  0.4782 -0.0221
  223MOL0    Cl30014  14.850  -0.085   4.307  0.1237 -0.2403  0.1508
  223MOL0     C30015  14.057   0.822   3.994  0.4118  0.5555  0.0589
  223MOL0     C30016  13.948   0.909   3.992 -0.2232  0.1985 -0.2590
  223MOL0     O30017  13.683   0.923   3.788  0.6653 -0.0948 -0.0049
  223MOL0     C30018  13.523   1.137   4.025  0.9978  0.5597  0.0585
  223MOL0     C30019  13.407   1.214   4.030  0.1525 -0.1221 -0.1738
  223MOL0     N30020  12.716   1.537   4.173 -0.4182  0.2580  0.2381
  223MOL0     N30021  12.659   1.586   4.280  0.3616 -0.1896  0.8502
  223MOL0     C30022  11.591   1.970   4.242  0.8780  0.0698 -0.0665
  223MOL0     C30023  11.460   2.015   4.227 -0.2224  0.3716  0.4895
  223MOL0     C30024  11.060   2.193   4.223  0.3837  0.2317 -1.1112
  223MOL0     C30025  10.947   2.127   4.285 -0.3286  0.2599  0.5485
  223MOL0     C30026  10.823   2.176   4.268  0.4339 -0.8750  0.3390
  223MOL0     C30027  10.799   2.289   4.193  0.2592 -0.0569  1.0682
  223MOL0     O30028  10.668   2.313   4.161 -0.1412 -0.5383 -0.2208
  223MOL0     C30029  10.564   2.341   4.260 -0.5767  0.4209 -0.1235
  223MOL0     C30030  10.430   2.302   4.201 -0.8452 -0.4520 -0.2724
  223MOL0     C30031  10.392   2.379   4.074 -0.2762  0.3524  0.0784
  223MOL0     C30032  10.262   2.333   4.020 -0.2620  0.2494  0.5351
  223MOL0     C30033  10.152   2.384   4.108 -0.4172  0.1577  0.2979
  223MOL0     C30034  10.059   2.433   4.170  0.4742  0.7938  0.4710
  223MOL0     C30035  10.901   2.365   4.139 -0.8989 -0.5792  0.1316
  223MOL0     C30036  11.031   2.319   4.156 -0.1460 -0.7035  0.8094
  223MOL0     C30037  11.137   2.418   4.095  0.2195  0.0214 -0.5018
  223MOL0     H30038  11.488   2.327   4.152  1.0400  1.2500  0.1108
  223MOL0     H30039  11.731   2.281   4.236  0.8901  0.0310 -2.0923
  223MOL0     H30040  11.925   2.186   4.243  0.0907  2.8082  4.0616
  223MOL0     H30041  11.912   2.142   4.412 -4.2254  0.1115 -0.0113
  223MOL0     H30042  12.093   2.026   4.199 -0.6558 -0.7952  0.0484
  223MOL0     H30043  12.044   1.918   4.315  0.6608 -0.3411  0.3616
  223MOL0     H30044  12.139   2.099   4.493  1.5194 -0.4652  0.7335
  223MOL0     H30045  12.187   2.189   4.357 -2.0709  1.2261  1.7703
  223MOL0     H30046  12.267   1.895   4.446 -4.6632  0.0577 -0.9011
  223MOL0     H30047  12.327   1.971   4.295 -0.5805  0.1061 -0.5375
  223MOL0     H30048  12.442   2.146   4.405  1.1751  1.5655  3.2410
  223MOL0     H30049  12.382   2.102   4.560 -0.9763 -0.7900 -0.4070
  223MOL0     H30050  12.611   1.992   4.542 -0.5094 -2.1813  0.3485
  223MOL0     H30051  12.475   1.892   4.568  0.5390 -1.6304  0.2597
  223MOL0     H30052  12.586   1.944   4.286  0.0735  1.1183  1.8269
  223MOL0     H30053  12.479   1.814   4.337  1.2608 -1.0470 -0.5743
  223MOL0     H30054  12.770   1.856   4.445 -1.6196  0.0383 -1.5120
  223MOL0     H30055  12.661   1.725   4.502  0.3040 -0.6623 -0.3385
  223MOL0     H30056  12.894   1.816   4.219 -0.6209  0.6618  4.0473
  223MOL0     H30057  12.820   1.585   3.928 -0.3437 -1.5675  0.7329
  223MOL0     H30058  12.972   1.669   3.992 -0.4085  1.9370  2.7101
  223MOL0     H30059  13.039   1.434   4.080 -1.5916 -2.3715  0.8449
  223MOL0     H30060  12.901   1.361   4.014  1.1143 -0.5461  0.0719
  223MOL0     H30061  13.119   1.503   3.856 -1.2137  0.7135  1.6820
  223MOL0     H30062  12.960   1.455   3.791  1.2929  0.7998 -0.6511
  223MOL0     H30063  13.127   1.298   3.746 -0.3056 -2.6860 -0.3200
  223MOL0     H30064  13.035   1.206   3.865  1.5532 -0.0368 -0.6502
  223MOL0     H30065  13.247   1.095   3.749  1.9754  0.7455 -0.9793
  223MOL0     H30066  13.436   0.972   3.740 -2.2363 -1.9568  1.3724
  223MOL0     H30067  13.704   0.670   3.957 -0.8481  0.7667 -2.9260
  223MOL0     H30068  13.888   0.526   3.945 -2.1132  0.5707  1.7064
  223MOL0     H30069  14.197   0.616   4.164  6.3733  0.4195  0.4966
  223MOL0     H30070  14.127   0.456   4.095 -0.3441  0.9869 -1.7025
  223MOL0     H30071  14.344   0.429   3.984 -0.5248  1.3306 -0.9985
  223MOL0     H30072  14.403   0.578   4.056 -1.7685  0.8637 -1.8217
  223MOL0     H30073  14.407   0.498   4.270  2.3807 -0.9218 -0.3371
  223MOL0     H30074  14.289   0.363   4.219  1.8608 -2.4789 -1.7461
  223MOL0     H30075  14.586   0.386   4.160  1.2357 -2.6660  1.8774
  223MOL0     H30076  14.481   0.285   4.061  1.3162  2.8294 -1.5067
  223MOL0     H30077  14.413   0.152   4.257  0.2883 -0.7390  1.4372
  223MOL0     H30078  14.525   0.235   4.361 -1.1483  0.1957 -0.1922
  223MOL0     H30079  14.588   0.005   4.243  0.0983  0.0957 -1.4015
  223MOL0     H30080  14.614   0.096   4.101  2.4086 -2.2060  0.3507
  223MOL0     H30081  14.740   0.146   4.376  2.2382  1.3598 -0.3852
  223MOL0     H30082  14.751   0.267   4.241  1.0434  0.1811 -1.1155
  223MOL0     H30083  14.854   0.070   4.116 -0.3583 -0.7451  0.1063
  223MOL0     H30084  14.955   0.132   4.253 -1.8888  0.8888  2.1776
  223MOL0     H30085  14.156   0.865   3.983  0.0842  0.7774 -3.0666
  223MOL0     H30086  13.961   1.017   3.988 -1.3644  0.4574  1.8888
  223MOL0     H30087  13.607   1.150   4.092  0.9320 -2.3577  0.8412
  223MOL0     H30088  13.410   1.302   4.094  0.2581  0.0332 -0.3919
  223MOL0     H30089  11.619   1.868   4.268 -3.1640 -0.7979  1.6705
  223MOL0     H30090  11.388   1.934   4.231 -1.1140  1.1816  1.0594
  223MOL0     H30091  10.957   2.034   4.340 -0.4328 -0.0045  0.1223
  223MOL0     H30092  10.737   2.118   4.300  0.5963 -0.9230  0.6885
  223MOL0     H30093  10.563   2.447   4.285 -1.4586 -0.0251  1.9406
  223MOL0     H30094  10.579   2.293   4.357  0.2528 -1.2488 -1.0359
  223MOL0     H30095  10.348   2.311   4.273  0.9534  0.7994  1.7503
  223MOL0     H30096  10.443   2.196   4.174  2.0754 -0.8315  2.0592
  223MOL0     H30097  10.466   2.357   3.996  0.1552 -0.1248  0.6032
  223MOL0     H30098  10.394   2.485   4.099  2.5931  0.4660 -0.3171
  223MOL0     H30099  10.270   2.386   3.925  3.8606  0.4296  0.7682
  223MOL0     H30100  10.250   2.225   4.009  3.2985 -0.2010 -0.3745
  223MOL0     H30101   9.970   2.476   4.212  0.2276 -0.6767  1.5116
  223MOL0     H30102  10.863   2.454   4.089  1.5778 -0.5929 -1.9905
  223MOL0     H30103  11.094   2.513   4.062  0.6872  1.4048  2.5383
  223MOL0     H30104  11.220   2.437   4.164 -0.8766  3.3626  0.0624
  223MOL0     H30105  11.180   2.363   4.011 -1.0072 -2.1582  0.2097
  224MOL0     O30106   8.545   7.514   9.353 -0.6291 -0.1805 -0.4088
  224MOL0     C30107   8.495   7.411   9.308  1.0370  0.3094  0.4937
  224MOL0     O30108   8.554   7.283   9.308 -0.8707 -0.0328 -0.2213
  224MOL0     C30109   8.692   7.301   9.318 -0.0137  1.2291 -0.2191
  224MOL0     C30110   8.753   7.301   9.444 -0.3011 -1.3267 -0.6208
  224MOL0     C30111   8.895   7.297   9.453  0.5649  0.2904  0.2466
  224MOL0     C30112   8.972   7.297   9.344 -0.3013 -0.7738 -0.8128
  224MOL0     O30113   9.107   7.287   9.351 -0.4836  0.4608  0.5509
  224MOL0     C30114   9.180   7.315   9.234 -0.3414  0.5970 -0.1375
  224MOL0     C30115   9.313   7.364   9.269 -0.4143 -0.0796  0.0183
  224MOL0     C30116   9.397   7.265   9.355  0.4656 -0.7598 -0.1287
  224MOL0     C30117   9.548   7.287   9.337 -0.3118 -0.1584  0.4822
  224MOL0     C30118   9.643   7.192   9.408  0.5281 -0.5097 -0.5142
  224MOL0     C30119   9.791   7.250   9.410 -0.0988  0.7570 -0.2975
  224MOL0     C30120   9.885   7.140   9.464  0.2140  0.1021 -0.1373
  224MOL0     C30121  10.018   7.208   9.507  0.6812 -0.6309  0.3669
  224MOL0     N30122  10.116   7.203   9.398  0.9536  0.1341 -0.0250
  224MOL0     C30123  10.204   7.099   9.390  0.8784  0.0112  0.4548
  224MOL0     C30124  10.289   7.129   9.284 -0.1641 -0.2245 -0.0663
  224MOL0     C30125  10.397   7.038   9.226  0.1490 -0.2818 -0.2703
  224MOL0     C30126  10.486   7.118   9.137  0.6988 -0.3635  0.4253
  224MOL0     C30127  10.605   7.181   9.203 -0.9331 -0.6689  0.8214
  224MOL0     C30128  10.701   7.232   9.094  0.0141  0.0270 -0.5753
  224MOL0     O30129  10.818   7.149   9.087  0.1689 -0.0375  0.3319
  224MOL0     C30130  10.931   7.187   9.017  0.5191 -0.1434  0.1580
  224MOL0     C30131  10.936   7.312   8.951  0.3455 -0.3861  0.3184
  224MOL0     C30132  11.045   7.365   8.883 -0.3825 -0.0070 -0.2322
  224MOL0     C30133  11.157   7.282   8.880 -0.4979  0.4756 -0.5422
  224MOL0     C30134  11.276   7.332   8.812 -0.1037 -0.4129  0.4057
  224MOL0     O30135  11.394   7.257   8.820 -0.1901 -0.0200  0.5409
  224MOL0     C30136  11.503   7.304   8.746  0.3748 -0.0934  0.1918
  224MOL0     C30137  11.597   7.378   8.818  0.0610  0.2994  0.1272
  224MOL0     C30138  11.712   7.406   8.754 -0.1763  0.2928 -0.7905
  224MOL0     C30139  11.740   7.376   8.619  0.3980  0.2316  0.3498
  224MOL0     O30140  11.862   7.422   8.573 -0.3611 -0.0564  0.3554
  224MOL0     C30141  11.903   7.360   8.445  0.0041 -0.3226  0.3917
  224MOL0     C30142  12.042   7.392   8.400 -0.5775  1.1356  1.2997
  224MOL0     C30143  12.149   7.297   8.449 -0.1080  0.9044 -0.2916
  224MOL0     C30144  12.289   7.346   8.425 -0.3947  0.3841  0.6140
  224MOL0     C30145  12.347   7.267   8.308  0.1638  0.8283 -0.0643
  224MOL0     C30146  12.495   7.293   8.279 -0.3407 -0.5362 -0.7467
  224MOL0     C30147  12.541   7.277   8.142 -0.4140 -0.4886  0.8323
  224MOL0     C30148  12.548   7.135   8.100 -0.4334  0.2789 -0.0353
  224MOL0    Cl30149  12.575   7.130   7.920  0.4087 -0.0903  0.0253
  224MOL0     C30150  11.633   7.312   8.548  0.2205 -0.5994 -0.6452
  224MOL0     C30151  11.519   7.270   8.618  0.3504 -0.1248  0.2725
  224MOL0     O30152  11.263   7.448   8.762  0.4545 -0.3109  0.2480
  224MOL0     C30153  11.162   7.160   8.948 -0.0138  0.1325 -0.9720
  224MOL0     C30154  11.045   7.108   9.018  0.3189  0.2851  0.6035
  224MOL0     N30155  10.253   7.253   9.244 -0.2156  0.7945  0.5003
  224MOL0     N30156  10.144   7.299   9.302 -0.4535  0.1212  0.1716
  224MOL0     C30157   8.911   7.301   9.212  0.2399  0.0314  0.7178
  224MOL0     C30158   8.768   7.295   9.211  0.5279 -1.1365 -0.0529
  224MOL0     C30159   8.352   7.427   9.263  0.1323  0.6803  0.9368
  224MOL0     C30160   8.304   7.559   9.254  1.4089 -0.0427 -0.6173
  224MOL0     C30161   8.169   7.584   9.226 -0.1623 -0.2048 -0.2649
  224MOL0     C30162   8.080   7.489   9.208  0.2746  0.7458  0.1781
  224MOL0     O30163   7.951   7.526   9.173  0.5976 -0.0796 -0.3142
  224MOL0     C30164   7.838   7.430   9.189 -0.1569 -0.4966  0.7070
  224MOL0     C30165   7.712   7.472   9.106  0.8588 -0.0824 -0.3726
  224MOL0     C30166   7.606   7.365   9.128  0.5092 -0.1263  0.4324
  224MOL0     C30167   7.462   7.426   9.100 -0.7390  0.2677 -0.2573
  224MOL0     C30168   7.431   7.420   8.963 -0.5356 -0.8554  0.3150
  224MOL0     C30169   7.410   7.413   8.844 -0.0104  0.5967  0.5278
  224MOL0     C30170   8.129   7.350   9.205 -0.1567  0.1634  0.0314
  224MOL0     C30171   8.263   7.325   9.227  0.7288  1.0118  0.1303
  224MOL0     C30172   8.314   7.180   9.205  0.1661 -0.7359 -0.2123
  224MOL0     H30173   8.683   7.299   9.527 -1.8329  0.2632 -1.7929
  224MOL0     H30174   8.945   7.296   9.550 -0.1387 -2.1577  0.6523
  224MOL0     H30175   9.183   7.223   9.174 -0.5329 -0.0908  0.8778
  224MOL0     H30176   9.134   7.388   9.167 -1.4666  1.5328  1.5756
  224MOL0     H30177   9.314   7.451   9.335 -0.9326 -0.4528  0.5286
  224MOL0     H30178   9.369   7.388   9.178 -1.0552 -2.2730 -1.0252
  224MOL0     H30179   9.372   7.168   9.309 -1.3035  0.4961 -1.9980
  224MOL0     H30180   9.356   7.262   9.456 -0.3782  1.0941 -0.3726
  224MOL0     H30181   9.578   7.273   9.233 -0.0172  1.8462  0.2488
  224MOL0     H30182   9.574   7.388   9.368 -1.4286  0.4935 -0.5847
  224MOL0     H30183   9.615   7.174   9.512 -2.7608 -4.0224 -1.7986
  224MOL0     H30184   9.655   7.097   9.356  1.1804 -1.0173  0.5336
  224MOL0     H30185   9.818   7.273   9.307  2.1144  0.2493  0.1236
  224MOL0     H30186   9.800   7.344   9.465 -3.1690  0.1358  1.5495
  224MOL0     H30187   9.912   7.054   9.402  4.5031 -0.5092  2.2332
  224MOL0     H30188   9.832   7.097   9.550 -0.2863 -0.7823 -0.8632
  224MOL0     H30189  10.009   7.310   9.547  0.4336 -0.1559 -0.8515
  224MOL0     H30190  10.060   7.141   9.583  1.6138 -1.2827 -0.7060
  224MOL0     H30191  10.209   7.009   9.450 -1.1509 -0.7459 -0.4283
  224MOL0     H30192  10.457   6.988   9.302  1.2181 -1.7384 -1.9962
  224MOL0     H30193  10.348   6.953   9.177 -3.3384  1.1159  0.5054
  224MOL0     H30194  10.521   7.042   9.066 -0.4387  0.5813 -1.2083
  224MOL0     H30195  10.432   7.198   9.087 -0.9358 -0.6072  1.7272
  224MOL0     H30196  10.655   7.124   9.282 -1.3046  0.7205  2.0980
  224MOL0     H30197  10.577   7.270   9.260  3.2876  1.1325  0.4649
  224MOL0     H30198  10.746   7.330   9.115  2.4299  0.0405 -4.6602
  224MOL0     H30199  10.649   7.242   8.998  0.7644 -2.9214 -1.3842
  224MOL0     H30200  10.841   7.365   8.947 -1.7580 -3.4915  3.1344
  224MOL0     H30201  11.039   7.469   8.851 -2.4104 -0.4224 -1.4221
  224MOL0     H30202  11.586   7.396   8.924  0.7801 -3.4229  0.9573
  224MOL0     H30203  11.788   7.455   8.815  0.0803 -1.6301  0.5452
  224MOL0     H30204  11.908   7.252   8.467 -3.5822 -0.9369 -1.1637
  224MOL0     H30205  11.833   7.392   8.368  2.6309  0.3116 -1.8886
  224MOL0     H30206  12.049   7.377   8.292  2.7577  0.1728  1.5413
  224MOL0     H30207  12.065   7.498   8.413 -0.1297  1.7650 -3.1866
  224MOL0     H30208  12.139   7.267   8.553 -1.7183 -3.0717 -1.4271
  224MOL0     H30209  12.141   7.198   8.405  0.2901  0.9713 -0.5274
  224MOL0     H30210  12.352   7.336   8.513  0.1721  1.7983  0.3972
  224MOL0     H30211  12.287   7.452   8.397 -1.4802 -0.0318 -1.0440
  224MOL0     H30212  12.282   7.265   8.220  1.3953 -0.9955 -0.9963
  224MOL0     H30213  12.335   7.161   8.332 -1.9654  0.0998 -3.5322
  224MOL0     H30214  12.503   7.401   8.291  0.4551 -0.0582 -4.2833
  224MOL0     H30215  12.568   7.241   8.341  0.0957  0.9823  0.0561
  224MOL0     H30216  12.636   7.326   8.118 -1.1044 -0.6919 -3.0515
  224MOL0     H30217  12.459   7.326   8.087 -1.2612 -0.0175  2.4522
  224MOL0     H30218  12.641   7.091   8.138 -2.3183 -1.9198  2.4805
  224MOL0     H30219  12.465   7.070   8.130 -1.0353  0.7849 -0.5733
  224MOL0     H30220  11.638   7.288   8.442  2.1768 -0.7334 -0.5605
  224MOL0     H30221  11.434   7.226   8.567 -1.3781  1.3351  1.7475
  224MOL0     H30222  11.256   7.108   8.962 -1.2801 -1.5012  2.8464
  224MOL0     H30223  11.042   7.017   9.076  0.0514 -2.5267 -3.4402
  224MOL0     H30224   8.969   7.288   9.121 -0.6685  0.7305  0.0219
  224MOL0     H30225   8.712   7.282   9.119 -0.0065  2.3364 -0.3515
  224MOL0     H30226   8.366   7.641   9.287  0.2419  0.9864 -0.8966
  224MOL0     H30227   8.143   7.689   9.230 -1.0784 -0.4519  1.6953
  224MOL0     H30228   7.812   7.420   9.295  0.5412  2.1020  1.1940
  224MOL0     H30229   7.877   7.335   9.149 -0.2543 -0.3457  0.2505
  224MOL0     H30230   7.722   7.473   8.998 -0.4599  0.0389 -0.5125
  224MOL0     H30231   7.674   7.569   9.141 -1.9614 -1.2989  0.2795
  224MOL0     H30232   7.613   7.339   9.234  2.0841  1.4903  0.7781
  224MOL0     H30233   7.630   7.279   9.065  1.3155  1.2134 -1.1552
  224MOL0     H30234   7.384   7.368   9.151  1.7191 -2.1587  1.0263
  224MOL0     H30235   7.454   7.531   9.128 -1.7276  0.4565 -1.1776
  224MOL0     H30236   7.385   7.403   8.740  3.5140 -0.8752 -0.3433
  224MOL0     H30237   8.064   7.269   9.173  0.8096 -0.0651 -1.5028
  224MOL0     H30238   8.336   7.144   9.306 -1.5384  1.3970  1.0151
  224MOL0     H30239   8.237   7.120   9.156  0.8724 -2.0329  0.2314
  224MOL0     H30240   8.393   7.178   9.129 -2.2741  2.9190 -3.2386
  225MOL0     O30241   6.984   9.251   9.738 -0.0313 -0.4205  0.8467
  225MOL0     C30242   6.990   9.213   9.620  0.3958  0.6073  0.2494
  225MOL0     O30243   7.107   9.197   9.548 -0.8351 -0.0465 -0.0124
  225MOL0     C30244   7.201   9.291   9.563 -0.1274 -0.2215  0.5084
  225MOL0     C30245   7.198   9.394   9.472 -0.2018 -0.6930 -0.0650
  225MOL0     C30246   7.291   9.504   9.486 -0.1907 -0.5157 -0.2863
  225MOL0     C30247   7.398   9.493   9.576 -0.3017  1.3652  0.4503
  225MOL0     O30248   7.498   9.579   9.594  0.0691 -0.3674  0.0219
  225MOL0     C30249   7.633   9.533   9.557  0.6189 -0.1140  0.3304
  225MOL0     C30250   7.715   9.541   9.676  0.4323 -0.4972  0.0008
  225MOL0     C30251   7.867   9.538   9.642 -0.3754 -0.7553 -0.0011
  225MOL0     C30252   7.941   9.552   9.777 -0.4405 -0.3189  0.1235
  225MOL0     C30253   8.093   9.564   9.745 -0.4611  1.1547  0.3405
  225MOL0     C30254   8.187   9.534   9.857 -0.8928  0.4009  0.1256
  225MOL0     C30255   8.328   9.552   9.793  0.1173  1.0120  0.4497
  225MOL0     C30256   8.420   9.555   9.906  0.2548 -0.5455 -0.0122
  225MOL0     N30257   8.562   9.574   9.881 -0.0715  0.0527 -0.3210
  225MOL0     C30258   8.641   9.653   9.973 -0.2709 -0.3496 -0.0625
  225MOL0     C30259   8.755   9.674   9.899 -0.7045 -0.5180  0.2558
  225MOL0     C30260   8.866   9.776   9.934  0.8205  0.7765 -0.5036
  225MOL0     C30261   8.993   9.707   9.962 -0.3619 -0.3872  0.3430
  225MOL0     C30262   9.067   9.653   9.832 -0.9273  0.4287 -0.1893
  225MOL0     C30263   9.191   9.727   9.794  0.0264 -0.9449  0.1610
  225MOL0     O30264   9.233   9.660   9.678  0.3655  0.0244 -0.9787
  225MOL0     C30265   9.348   9.709   9.616  0.1970 -0.2754 -0.4983
  225MOL0     C30266   9.418   9.822   9.646  0.1776 -0.4414 -0.7033
  225MOL0     C30267   9.520   9.860   9.568  0.1771  0.3546 -0.3024
  225MOL0     C30268   9.574   9.781   9.467 -0.2058  0.7636 -0.4363
  225MOL0     C30269   9.697   9.830   9.395  0.8214  0.2145 -0.5913
  225MOL0     O30270   9.754   9.948   9.445  0.7895  0.2760 -0.0512
  225MOL0     C30271   9.879   9.993   9.417 -0.2322 -0.3791 -0.4743
  225MOL0     C30272   9.909  10.124   9.450 -0.4065 -0.8024 -0.2877
  225MOL0     C30273  10.021  10.195   9.399  0.3643  0.3524 -0.2670
  225MOL0     C30274  10.126  10.113   9.344  0.4552 -0.0021 -0.4902
  225MOL0     O30275  10.255  10.158   9.318 -0.0238  0.5210 -0.4701
  225MOL0     C30276  10.279  10.293   9.300  0.2918 -1.2393  0.9285
  225MOL0     C30277  10.409  10.314   9.228 -0.3105  0.1039  0.0265
  225MOL0     C30278  10.458  10.459   9.234 -0.4765 -1.1206 -0.2768
  225MOL0     C30279  10.592  10.446   9.149  0.4663 -0.3352  0.5377
  225MOL0     C30280  10.578  10.423   8.996  0.6270  0.2792  0.6643
  225MOL0     C30281  10.702  10.456   8.911  0.1899 -1.0306  0.9035
  225MOL0     C30282  10.698  10.382   8.775  0.2354 -1.0959 -0.0669
  225MOL0     C30283  10.575  10.430   8.694  0.3048  0.0004 -0.2503
  225MOL0    Cl30284  10.612  10.399   8.523  0.1781  0.2992  0.2935
  225MOL0     C30285  10.104   9.980   9.319 -0.3628 -0.8862 -0.2920
  225MOL0     C30286   9.981   9.919   9.348 -0.4631  0.1148  0.1590
  225MOL0     O30287   9.738   9.765   9.293 -0.5230 -0.6308  0.9389
  225MOL0     C30288   9.513   9.664   9.436  0.0886  0.0089 -0.2133
  225MOL0     C30289   9.394   9.628   9.509  0.8056 -0.0386 -1.3854
  225MOL0     N30290   8.747   9.615   9.772  0.5323 -0.4106 -1.1863
  225MOL0     N30291   8.631   9.556   9.767  0.3295 -0.3916  0.8619
  225MOL0     C30292   7.398   9.376   9.659 -0.8765 -0.4519 -0.1557
  225MOL0     C30293   7.297   9.282   9.660 -0.1128  0.2888 -0.4901
  225MOL0     C30294   6.870   9.151   9.552  1.3985  0.5374  0.4880
  225MOL0     C30295   6.887   9.062   9.440  0.3884  0.7390 -0.5335
  225MOL0     C30296   6.782   9.001   9.373  0.5251 -0.5438  0.0943
  225MOL0     C30297   6.652   9.034   9.417  0.7437 -0.2030  0.3058
  225MOL0     O30298   6.538   8.983   9.355  0.1105  0.1955  0.3410
  225MOL0     C30299   6.546   8.855   9.281  0.1924  0.2102 -0.0241
  225MOL0     C30300   6.414   8.787   9.260 -0.1421  0.2665  0.2631
  225MOL0     C30301   6.331   8.895   9.186  0.4402  0.0783  0.5471
  225MOL0     C30302   6.197   8.833   9.125 -0.0746 -0.1040 -0.0642
  225MOL0     C30303   6.133   8.948   9.066  0.3998  0.3284  0.1293
  225MOL0     C30304   6.094   9.052   9.015 -1.3932 -0.3001  0.2240
  225MOL0     C30305   6.630   9.123   9.528  0.3263 -0.3179 -0.0356
  225MOL0     C30306   6.735   9.187   9.597 -0.4071 -0.6333  0.8823
  225MOL0     C30307   6.689   9.284   9.704 -0.7639  0.5462 -0.3686
  225MOL0     H30308   7.129   9.393   9.388  1.6959  1.7195 -1.7878
  225MOL0     H30309   7.282   9.594   9.426  3.6801  1.9283  2.3715
  225MOL0     H30310   7.633   9.426   9.534  3.3368 -0.8884  3.1340
  225MOL0     H30311   7.685   9.579   9.472 -0.7833  1.5209  0.2932
  225MOL0     H30312   7.696   9.453   9.739  0.7978  0.7792  2.0062
  225MOL0     H30313   7.681   9.629   9.732 -0.9356 -2.0845  1.8010
  225MOL0     H30314   7.901   9.606   9.562  2.5607 -0.4623  1.3720
  225MOL0     H30315   7.894   9.435   9.619 -0.3176 -1.0638  1.3794
  225MOL0     H30316   7.908   9.648   9.820 -1.8235 -1.9009  2.8682
  225MOL0     H30317   7.924   9.471   9.848 -0.7006 -0.2286  0.1658
  225MOL0     H30318   8.125   9.491   9.670 -0.0546  0.0907  1.5192
  225MOL0     H30319   8.114   9.669   9.721 -0.2563  1.1993  0.7054
  225MOL0     H30320   8.165   9.602   9.940 -4.8026 -1.9063  1.2050
  225MOL0     H30321   8.183   9.437   9.907 -0.8264  1.7924  2.9882
  225MOL0     H30322   8.334   9.641   9.730 -0.5780  1.8433  1.5248
  225MOL0     H30323   8.352   9.467   9.728  0.4730  1.6659 -0.2815
  225MOL0     H30324   8.401   9.647   9.962  2.1461  1.1913 -2.0504
  225MOL0     H30325   8.415   9.467   9.970  2.8759  0.7389  2.1881
  225MOL0     H30326   8.612   9.697  10.068 -1.5327  2.0231 -1.4764
  225MOL0     H30327   8.869   9.858   9.862 -1.3309  0.9039 -0.5086
  225MOL0     H30328   8.833   9.813  10.031 -0.6722 -1.3301 -0.1236
  225MOL0     H30329   9.044   9.778  10.027 -0.6634 -0.3301  0.5164
  225MOL0     H30330   8.975   9.621  10.028 -2.1136  0.4554  1.0079
  225MOL0     H30331   8.996   9.643   9.749 -0.0996 -1.4316 -0.7316
  225MOL0     H30332   9.113   9.559   9.864 -3.9656 -0.4026  2.3800
  225MOL0     H30333   9.263   9.734   9.875  1.0642  3.3572 -0.8729
  225MOL0     H30334   9.173   9.834   9.780  0.4407 -0.8244  0.5281
  225MOL0     H30335   9.391   9.899   9.718  1.3074  1.5413 -2.3006
  225MOL0     H30336   9.571   9.952   9.596  0.3710  0.0368  0.4089
  225MOL0     H30337   9.840  10.193   9.499 -3.0677 -3.0739 -0.6249
  225MOL0     H30338  10.033  10.300   9.421  2.0035  0.4884 -1.5790
  225MOL0     H30339  10.197  10.321   9.233  1.5316 -5.1455 -2.6986
  225MOL0     H30340  10.274  10.355   9.390 -3.8894  0.2944 -0.1094
  225MOL0     H30341  10.485  10.262   9.288 -1.1968  0.3375  1.4096
  225MOL0     H30342  10.401  10.277   9.126  2.1094  1.9965 -0.9271
  225MOL0     H30343  10.397  10.534   9.185 -0.2203 -1.9995 -1.9927
  225MOL0     H30344  10.471  10.492   9.338 -1.0105 -0.0402 -0.5411
  225MOL0     H30345  10.656  10.364   9.183  1.0968 -0.1652 -0.2034
  225MOL0     H30346  10.647  10.539   9.160  0.2050 -0.3379  2.0521
  225MOL0     H30347  10.490  10.483   8.971 -0.1204 -0.3696  1.6712
  225MOL0     H30348  10.546  10.319   8.989 -0.2926  0.3687  2.7580
  225MOL0     H30349  10.692  10.564   8.894 -1.0326 -0.7992  2.7753
  225MOL0     H30350  10.789  10.424   8.968  1.9457 -0.7514 -1.4769
  225MOL0     H30351  10.691  10.274   8.794  0.5489 -0.9668  0.8614
  225MOL0     H30352  10.781  10.405   8.708 -0.5958 -1.9565 -1.4340
  225MOL0     H30353  10.487  10.376   8.732  0.8841  0.4409  1.8451
  225MOL0     H30354  10.552  10.535   8.712 -0.6069 -0.4004  1.0401
  225MOL0     H30355  10.189   9.918   9.291  1.9271  0.9472  2.0019
  225MOL0     H30356   9.958   9.820   9.311 -0.4106  0.8035 -1.8475
  225MOL0     H30357   9.556   9.600   9.360  0.6597  1.5183 -1.2105
  225MOL0     H30358   9.337   9.541   9.478 -3.0072  2.1344 -1.1002
  225MOL0     H30359   7.481   9.372   9.729  0.5776  0.7148 -1.7086
  225MOL0     H30360   7.310   9.190   9.718 -2.0614  0.5194  0.3936
  225MOL0     H30361   6.986   9.034   9.406  0.2231  0.4702 -0.7956
  225MOL0     H30362   6.801   8.931   9.292  1.7506  1.2131 -1.1986
  225MOL0     H30363   6.620   8.803   9.342  1.9168  1.8809 -0.5498
  225MOL0     H30364   6.599   8.869   9.186 -0.7231 -3.4615 -1.2101
  225MOL0     H30365   6.364   8.747   9.349 -2.0199 -2.2076 -1.7498
  225MOL0     H30366   6.434   8.708   9.187  0.1429  1.6949 -1.2900
  225MOL0     H30367   6.400   8.931   9.109 -1.3935  0.0788 -1.1506
  225MOL0     H30368   6.301   8.969   9.261 -2.5691 -1.3261  0.8901
  225MOL0     H30369   6.218   8.763   9.043  1.0563  1.5150 -1.2318
  225MOL0     H30370   6.130   8.796   9.202 -1.2871  1.3226 -0.4026
  225MOL0     H30371   6.053   9.135   8.961 -0.6060  1.7701  2.6259
  225MOL0     H30372   6.526   9.140   9.553 -0.0435  1.1898 -2.3263
  225MOL0     H30373   6.583   9.306   9.690 -1.8418 -2.0540  2.6409
  225MOL0     H30374   6.707   9.245   9.805 -4.0494 -1.9245 -0.5832
  225MOL0     H30375   6.745   9.378   9.705  0.7819 -0.3231 -1.0256
  226MOL0     O30376   1.733   3.153   7.869 -0.0770  0.0900 -0.8556
  226MOL0     C30377   1.653   3.190   7.950  0.3025 -0.4008 -0.8926
  226MOL0     O30378   1.687   3.254   8.067  0.1972  0.6830  0.4724
  226MOL0     C30379   1.815   3.280   8.085  0.0980 -0.5465  0.4701
  226MOL0     C30380   1.891   3.182   8.148 -0.9138 -0.1811 -0.6214
  226MOL0     C30381   2.031   3.194   8.154  0.2665  0.4264 -0.4426
  226MOL0     C30382   2.090   3.310   8.115  0.3355 -0.0827 -0.3737
  226MOL0     O30383   2.224   3.313   8.126  0.2439 -0.2699  0.0929
  226MOL0     C30384   2.298   3.422   8.085 -0.3239 -0.8463 -0.7604
  226MOL0     C30385   2.448   3.384   8.078 -0.4222 -0.3081  0.4597
  226MOL0     C30386   2.479   3.253   7.997 -0.4402 -0.2430 -0.8764
  226MOL0     C30387   2.629   3.250   7.991 -0.0001 -0.1329  0.2159
  226MOL0     C30388   2.658   3.152   7.875 -0.1955 -0.1690 -0.4354
  226MOL0     C30389   2.809   3.124   7.865 -0.0544 -0.0105  0.4056
  226MOL0     C30390   2.885   3.250   7.816 -0.2846 -0.6937  0.3286
  226MOL0     C30391   3.030   3.208   7.779 -0.6480 -0.5496 -0.1324
  226MOL0     N30392   3.097   3.310   7.689  0.6055 -0.2511 -0.0494
  226MOL0     C30393   3.158   3.274   7.572 -0.8450  0.3337 -0.7221
  226MOL0     C30394   3.204   3.393   7.529 -0.2332 -0.5951 -0.7809
  226MOL0     C30395   3.288   3.413   7.407  0.9215 -0.0027  0.1604
  226MOL0     C30396   3.402   3.513   7.423 -0.7313 -0.2895  0.4718
  226MOL0     C30397   3.523   3.465   7.506 -0.6468 -0.7165 -0.0091
  226MOL0     C30398   3.641   3.553   7.492 -0.4192  1.0005  0.9820
  226MOL0     O30399   3.739   3.488   7.568  0.1220 -0.4253  0.9117
  226MOL0     C30400   3.871   3.541   7.551  0.8444 -0.1585 -0.5187
  226MOL0     C30401   3.977   3.454   7.591  0.5420 -1.0770 -0.2119
  226MOL0     C30402   4.109   3.494   7.580 -0.3259  0.1728 -0.7511
  226MOL0     C30403   4.140   3.614   7.504  0.2861  0.9206 -0.0732
  226MOL0     C30404   4.272   3.649   7.492 -0.4861 -0.5686 -0.0643
  226MOL0     O30405   4.364   3.570   7.561 -0.0420  0.0459  0.5264
  226MOL0     C30406   4.503   3.578   7.556  0.1313  0.2402  0.3285
  226MOL0     C30407   4.577   3.463   7.584  0.0196 -0.6149 -0.0452
  226MOL0     C30408   4.716   3.459   7.590  0.3095  0.0235  0.6214
  226MOL0     C30409   4.793   3.576   7.556  0.2611 -0.1122  0.1507
  226MOL0     O30410   4.924   3.582   7.584 -0.5495  0.2868  0.2209
  226MOL0     C30411   4.964   3.680   7.674 -0.6962  0.3812  0.1371
  226MOL0     C30412   5.115   3.661   7.698 -0.5153  0.6862  0.3130
  226MOL0     C30413   5.208   3.680   7.572  0.1260 -0.3781  0.7309
  226MOL0     C30414   5.345   3.728   7.619 -0.1225 -1.0765  0.4433
  226MOL0     C30415   5.444   3.744   7.505 -0.4251 -0.0127  0.8960
  226MOL0     C30416   5.497   3.605   7.457 -0.3012 -0.0671 -0.6226
  226MOL0     C30417   5.588   3.619   7.342 -0.2580 -0.8402 -0.1764
  226MOL0     C30418   5.647   3.479   7.303 -0.4784 -0.1141  0.8321
  226MOL0    Cl30419   5.769   3.500   7.175 -0.6656  0.1727 -0.4465
  226MOL0     C30420   4.725   3.697   7.520  0.2253  0.6336 -0.1319
  226MOL0     C30421   4.581   3.693   7.527 -0.4199 -0.5163 -0.7002
  226MOL0     O30422   4.302   3.742   7.415  0.6310  0.0691 -0.1469
  226MOL0     C30423   4.033   3.697   7.464  0.0029 -0.3449  0.3936
  226MOL0     C30424   3.900   3.660   7.481  0.3412  0.3953  0.2092
  226MOL0     N30425   3.150   3.496   7.598 -0.3181  0.3424 -0.2666
  226MOL0     N30426   3.090   3.444   7.703 -0.0853  0.0765 -0.4516
  226MOL0     C30427   2.004   3.416   8.066  0.2188  0.1205 -0.6506
  226MOL0     C30428   1.868   3.404   8.052  0.0751  0.3439 -0.6997
  226MOL0     C30429   1.512   3.187   7.918 -0.2827  0.0745 -0.5564
  226MOL0     C30430   1.426   3.283   7.970  1.6864  0.5714 -0.4643
  226MOL0     C30431   1.295   3.292   7.932  0.4348  0.1651  0.3907
  226MOL0     C30432   1.239   3.217   7.833 -0.2939  0.9545 -1.0424
  226MOL0     O30433   1.108   3.236   7.795 -0.1160  0.5411  0.3729
  226MOL0     C30434   1.034   3.117   7.810  0.8332 -0.0673 -0.4506
  226MOL0     C30435   0.883   3.142   7.820 -0.4989 -0.2096 -0.0084
  226MOL0     C30436   0.828   3.230   7.708  0.0693  0.5196 -0.4876
  226MOL0     C30437   0.733   3.333   7.770  0.2972  0.3536 -1.1359
  226MOL0     C30438   0.667   3.435   7.678 -0.2724 -0.1799 -0.0619
  226MOL0     C30439   0.614   3.511   7.604 -0.5525  0.3208  0.5475
  226MOL0     C30440   1.324   3.115   7.785  0.5872 -0.2812 -0.4404
  226MOL0     C30441   1.454   3.093   7.830 -0.1771 -0.8138 -0.4398
  226MOL0     C30442   1.528   2.978   7.772 -0.0491  0.3049  0.2451
  226MOL0     H30443   1.851   3.083   8.167  1.5574 -0.9091  1.3174
  226MOL0     H30444   2.087   3.110   8.194 -0.2061 -0.4070 -1.5162
  226MOL0     H30445   2.269   3.435   7.980  1.8661  2.9172 -1.0598
  226MOL0     H30446   2.274   3.506   8.151  0.0065 -3.1592  2.5905
  226MOL0     H30447   2.487   3.375   8.180  2.7334 -0.1503 -0.6280
  226MOL0     H30448   2.501   3.472   8.040 -2.2481  1.0367  0.8567
  226MOL0     H30449   2.419   3.251   7.905 -0.2626  0.4404 -1.0101
  226MOL0     H30450   2.446   3.162   8.050  2.1575  0.2163  1.7933
  226MOL0     H30451   2.679   3.343   7.962  0.1439 -1.0891 -2.9596
  226MOL0     H30452   2.665   3.221   8.090  1.0836 -1.1080 -0.4409
  226MOL0     H30453   2.607   3.058   7.897  0.2639 -0.0358  1.3749
  226MOL0     H30454   2.632   3.194   7.778  2.1714  0.9564 -0.6548
  226MOL0     H30455   2.834   3.080   7.961 -0.1675 -2.1125 -0.4847
  226MOL0     H30456   2.830   3.033   7.808  0.1590 -0.3076  0.9526
  226MOL0     H30457   2.894   3.325   7.894  2.3873  0.7119 -1.1816
  226MOL0     H30458   2.841   3.303   7.731 -1.3873 -2.0609  0.0025
  226MOL0     H30459   3.091   3.185   7.866 -0.2588  1.1605  0.0700
  226MOL0     H30460   3.026   3.116   7.719  0.2448 -0.2379 -0.6836
  226MOL0     H30461   3.170   3.172   7.536 -1.6577 -0.6335  1.5773
  226MOL0     H30462   3.341   3.319   7.384 -3.0636 -1.8349 -2.6086
  226MOL0     H30463   3.223   3.441   7.324  3.1126 -3.0637 -2.8410
  226MOL0     H30464   3.440   3.526   7.321 -0.0434 -2.8784  0.3466
  226MOL0     H30465   3.363   3.602   7.474 -0.2723 -0.7032  1.5880
  226MOL0     H30466   3.545   3.364   7.471 -1.1636 -0.4507 -1.1587
  226MOL0     H30467   3.493   3.455   7.611  1.0086 -0.7898  0.4779
  226MOL0     H30468   3.627   3.659   7.517  0.4384  1.8661 -1.7508
  226MOL0     H30469   3.664   3.558   7.385 -0.1384  1.8539  1.0683
  226MOL0     H30470   3.942   3.354   7.614 -0.1512 -0.7536  0.1311
  226MOL0     H30471   4.185   3.424   7.616 -0.9149 -1.3251 -2.2412
  226MOL0     H30472   4.525   3.368   7.584 -1.9122  0.3652 -2.0968
  226MOL0     H30473   4.773   3.373   7.625 -1.5959 -0.9081  1.5886
  226MOL0     H30474   4.944   3.780   7.632  1.5045  0.9666  0.3625
  226MOL0     H30475   4.906   3.679   7.767 -3.1838 -0.3749 -1.3266
  226MOL0     H30476   5.132   3.739   7.772  0.5542  0.3022  0.4849
  226MOL0     H30477   5.135   3.561   7.740  4.3405  1.0068 -0.7225
  226MOL0     H30478   5.218   3.590   7.510 -0.2574  0.1425 -0.1129
  226MOL0     H30479   5.172   3.755   7.501  0.2992  0.1522  1.1977
  226MOL0     H30480   5.383   3.656   7.692 -0.1007 -1.5457 -0.0311
  226MOL0     H30481   5.340   3.829   7.662  2.2381  0.3026 -2.1167
  226MOL0     H30482   5.529   3.805   7.536  0.2275  1.2917 -2.8977
  226MOL0     H30483   5.401   3.795   7.418 -2.8594 -0.3403  1.8115
  226MOL0     H30484   5.556   3.564   7.539 -2.5906  1.9828  2.2750
  226MOL0     H30485   5.413   3.543   7.423 -1.7176  0.5063  1.6155
  226MOL0     H30486   5.668   3.681   7.383 -1.5529 -1.0662  3.0154
  226MOL0     H30487   5.545   3.673   7.257  1.1071  2.7906  1.2245
  226MOL0     H30488   5.698   3.442   7.393  1.1681  3.0886  1.3670
  226MOL0     H30489   5.577   3.399   7.276 -0.1339  0.6543 -2.7817
  226MOL0     H30490   4.780   3.789   7.505 -0.0156  1.1575  1.9190
  226MOL0     H30491   4.524   3.784   7.509 -0.7350 -0.6288 -0.2910
  226MOL0     H30492   4.060   3.787   7.410  0.8514 -1.2810 -0.7945
  226MOL0     H30493   3.838   3.739   7.439  2.2392  1.7034 -0.2758
  226MOL0     H30494   2.043   3.516   8.051 -1.1485  0.8849  0.6731
  226MOL0     H30495   1.809   3.481   8.003 -0.7913 -0.4970 -1.0225
  226MOL0     H30496   1.449   3.350   8.052 -0.2161  1.4572 -0.5911
  226MOL0     H30497   1.244   3.380   7.970 -0.2496  1.2623 -2.7942
  226MOL0     H30498   1.066   3.067   7.902  0.3135  1.3576  0.5506
  226MOL0     H30499   1.048   3.048   7.726  0.4642 -0.8303  0.0946
  226MOL0     H30500   0.864   3.186   7.918  4.0278  3.5743 -0.5285
  226MOL0     H30501   0.838   3.042   7.826 -3.0469  0.8836  0.2363
  226MOL0     H30502   0.774   3.164   7.640  2.2372 -2.6495  0.6147
  226MOL0     H30503   0.900   3.291   7.652 -0.8862  1.4943 -0.6810
  226MOL0     H30504   0.652   3.272   7.812 -0.4770  0.5107 -2.3582
  226MOL0     H30505   0.780   3.393   7.848  1.0954  1.2393 -2.2579
  226MOL0     H30506   0.581   3.583   7.532  1.5375  0.7958 -0.0042
  226MOL0     H30507   1.286   3.047   7.710 -2.2066  1.9188 -1.1721
  226MOL0     H30508   1.461   2.900   7.734 -0.1486  0.3857  0.2535
  226MOL0     H30509   1.596   3.003   7.690 -1.1223 -0.9176 -1.0969
  226MOL0     H30510   1.595   2.930   7.844  0.7791  0.9548 -0.0820
  227MOL0     O30511   7.136   1.573   8.480 -0.5031  0.5973  0.1661
  227MOL0     C30512   7.191   1.577   8.592  1.1457  0.3491 -0.5599
  227MOL0     O30513   7.133   1.601   8.714 -1.1815 -0.5345  0.4359
  227MOL0     C30514   7.007   1.584   8.748  0.2115  0.1768  0.3993
  227MOL0     C30515   6.979   1.564   8.878  0.0431 -0.1095  0.0328
  227MOL0     C30516   6.854   1.566   8.930 -0.2168  0.5175  0.9490
  227MOL0     C30517   6.745   1.582   8.842 -0.0248 -0.6505  0.7998
  227MOL0     O30518   6.615   1.563   8.873  0.1058 -0.1468  0.5322
  227MOL0     C30519   6.587   1.467   8.975 -0.8016 -1.2459  0.0900
  227MOL0     C30520   6.437   1.417   8.968 -0.3446 -0.2188  0.2229
  227MOL0     C30521   6.434   1.307   8.861  0.9980 -0.4473 -0.0119
  227MOL0     C30522   6.295   1.261   8.879 -0.0830 -0.0709  0.4730
  227MOL0     C30523   6.278   1.155   8.776  0.1808  0.2222 -0.1611
  227MOL0     C30524   6.131   1.105   8.781  0.7617 -0.0258 -0.4140
  227MOL0     C30525   6.014   1.199   8.729 -1.0330 -0.6140 -0.2553
  227MOL0     C30526   5.880   1.130   8.727 -0.4791  0.6160 -0.4463
  227MOL0     N30527   5.874   1.003   8.653  0.3033 -0.5158 -0.1215
  227MOL0     C30528   5.930   0.983   8.532  0.2301 -0.2346  0.0406
  227MOL0     C30529   5.936   0.846   8.524 -0.7073 -0.2307 -0.3683
  227MOL0     C30530   5.985   0.765   8.408 -0.9584 -0.2189 -0.4658
  227MOL0     C30531   6.117   0.685   8.431  0.4723  0.3823 -0.9747
  227MOL0     C30532   6.102   0.533   8.432  0.2977  0.5923  0.2063
  227MOL0     C30533   6.220   0.453   8.486  0.4483  0.4842  0.5932
  227MOL0     O30534   6.329   0.480   8.395 -0.2483 -1.0437  0.2067
  227MOL0     C30535   6.447   0.430   8.437 -0.1104 -0.3552  0.2743
  227MOL0     C30536   6.483   0.389   8.563  0.2100  0.3892 -0.6905
  227MOL0     C30537   6.618   0.348   8.589 -0.1707  0.5488 -0.4446
  227MOL0     C30538   6.713   0.340   8.488 -0.2941 -0.0237  0.3714
  227MOL0     C30539   6.832   0.280   8.517 -0.3422 -0.1428 -0.2940
  227MOL0     O30540   6.945   0.306   8.435  0.4051 -0.5598 -0.6318
  227MOL0     C30541   7.078   0.263   8.469  0.0753 -0.2960 -0.3729
  227MOL0     C30542   7.164   0.279   8.371 -0.7366 -0.5252  0.1442
  227MOL0     C30543   7.296   0.249   8.382 -0.1510  0.5620 -0.5392
  227MOL0     C30544   7.349   0.188   8.499 -0.6537 -0.6148  0.1134
  227MOL0     O30545   7.482   0.154   8.500  0.3905  0.7208  0.4822
  227MOL0     C30546   7.530   0.073   8.614  0.7244 -0.8573  0.7878
  227MOL0     C30547   7.671   0.028   8.593  0.6568  0.3832 -0.5409
  227MOL0     C30548   7.770   0.146   8.581 -0.0699  0.9615 -0.7002
  227MOL0     C30549   7.909   0.122   8.633  0.7995 -0.3539  0.3642
  227MOL0     C30550   8.014   0.226   8.595  0.4295  0.1804  0.6096
  227MOL0     C30551   8.164   0.175   8.628 -0.0124 -0.2841  0.0466
  227MOL0     C30552   8.272   0.262   8.564 -0.6123  0.4155  1.1042
  227MOL0     C30553   8.398   0.259   8.641  0.6253  0.0599 -0.9435
  227MOL0    Cl30554   8.521   0.354   8.551  0.0581  0.1993 -0.4020
  227MOL0     C30555   7.258   0.172   8.608  0.0438  1.4014  0.4372
  227MOL0     C30556   7.127   0.209   8.592  0.6340  0.5479 -0.1963
  227MOL0     O30557   6.827   0.197   8.606 -0.3430  0.0390  0.0937
  227MOL0     C30558   6.680   0.395   8.366 -0.1007  0.0002 -0.5260
  227MOL0     C30559   6.545   0.434   8.339 -0.3468 -0.3256 -0.2713
  227MOL0     N30560   5.892   0.796   8.643  0.4170  0.2449  0.7846
  227MOL0     N30561   5.845   0.887   8.714 -0.6892 -0.3291  0.5431
  227MOL0     C30562   6.775   1.608   8.713  0.2682 -0.2910  1.1102
  227MOL0     C30563   6.906   1.605   8.660  0.8800 -0.6667  0.6980
  227MOL0     C30564   7.334   1.596   8.595 -0.1697 -1.0198  0.4026
  227MOL0     C30565   7.392   1.677   8.496 -0.1285 -0.4663  0.7353
  227MOL0     C30566   7.524   1.669   8.465  0.4887 -0.2405  0.2645
  227MOL0     C30567   7.611   1.606   8.555 -0.0697  0.6594  0.6744
  227MOL0     O30568   7.746   1.619   8.533  0.0980  0.0146 -0.0028
  227MOL0     C30569   7.838   1.537   8.610  0.3859 -0.3138  0.0423
  227MOL0     C30570   7.968   1.505   8.542 -0.1922 -0.5948  0.3188
  227MOL0     C30571   8.051   1.630   8.495  0.1327 -0.2563  0.3847
  227MOL0     C30572   8.200   1.596   8.477  0.3394  0.3584  1.0282
  227MOL0     C30573   8.206   1.548   8.333  0.4515 -0.3713 -0.2687
  227MOL0     C30574   8.214   1.496   8.227  1.0274 -0.2602  0.6886
  227MOL0     C30575   7.557   1.532   8.668 -0.7788  0.3967  0.1788
  227MOL0     C30576   7.416   1.517   8.678 -0.6464 -0.6597 -0.3552
  227MOL0     C30577   7.367   1.440   8.799 -0.0723  0.0239 -0.4436
  227MOL0     H30578   7.065   1.545   8.942 -1.3540  1.3179  2.5144
  227MOL0     H30579   6.836   1.542   9.034  1.8300  2.6056  1.8730
  227MOL0     H30580   6.663   1.388   8.967  2.1129  1.3606 -0.0986
  227MOL0     H30581   6.603   1.522   9.068 -2.3004 -1.5319  0.5372
  227MOL0     H30582   6.369   1.495   8.934  0.1104  0.1834  0.2113
  227MOL0     H30583   6.406   1.377   9.065  0.8710  0.2056  0.8146
  227MOL0     H30584   6.507   1.230   8.887  1.8201 -0.5052 -2.2469
  227MOL0     H30585   6.459   1.350   8.763  0.7016  0.5405  0.3352
  227MOL0     H30586   6.280   1.218   8.978 -1.3129 -1.2239 -0.1812
  227MOL0     H30587   6.236   1.352   8.862  1.2231  0.7071 -0.0220
  227MOL0     H30588   6.291   1.201   8.678 -0.1639  2.3391  0.7324
  227MOL0     H30589   6.349   1.073   8.795 -2.0951 -1.8019  0.0422
  227MOL0     H30590   6.123   1.017   8.716 -1.5965 -1.3765  1.5349
  227MOL0     H30591   6.113   1.082   8.886  2.0921  1.3530  0.1482
  227MOL0     H30592   6.041   1.236   8.629  1.9210 -0.1949  0.5884
  227MOL0     H30593   6.010   1.282   8.801 -1.8106 -1.7724  1.0787
  227MOL0     H30594   5.852   1.108   8.830  3.0144  1.1590  0.7585
  227MOL0     H30595   5.804   1.202   8.693  0.3238  2.4811  1.4746
  227MOL0     H30596   5.967   1.070   8.479  0.6176 -0.8644 -0.7293
  227MOL0     H30597   5.899   0.700   8.392  0.2419 -1.7787 -0.9326
  227MOL0     H30598   5.990   0.832   8.322 -3.4387  0.8264  0.1180
  227MOL0     H30599   6.195   0.708   8.358  2.5424  1.8902  1.5102
  227MOL0     H30600   6.151   0.724   8.527 -4.3972  1.0730  0.7742
  227MOL0     H30601   6.084   0.490   8.333 -1.0022 -0.3676  0.8295
  227MOL0     H30602   6.008   0.500   8.477  0.6207 -2.4216 -1.0714
  227MOL0     H30603   6.193   0.347   8.487 -0.4140  0.6557 -0.8372
  227MOL0     H30604   6.247   0.485   8.587  3.6210  0.6262 -0.1867
  227MOL0     H30605   6.420   0.384   8.651  3.5834 -2.3467  1.8956
  227MOL0     H30606   6.639   0.326   8.693 -0.2914  0.2880 -0.4748
  227MOL0     H30607   7.147   0.333   8.278  0.9916  0.4712  0.3537
  227MOL0     H30608   7.372   0.279   8.310  1.4580 -2.0727 -0.0945
  227MOL0     H30609   7.520   0.124   8.710 -0.1339  0.1755  0.1740
  227MOL0     H30610   7.459  -0.009   8.612 -1.9826  1.3628 -0.9153
  227MOL0     H30611   7.696  -0.042   8.673  1.8543  0.7444 -0.5801
  227MOL0     H30612   7.673  -0.013   8.491 -0.3939 -1.2456  0.0581
  227MOL0     H30613   7.792   0.174   8.478  1.9596 -0.7128 -0.7849
  227MOL0     H30614   7.718   0.235   8.620  1.4815  0.5786  2.6775
  227MOL0     H30615   7.938   0.022   8.600 -1.0972 -0.8814  0.2056
  227MOL0     H30616   7.899   0.123   8.742 -0.9503 -0.0350  0.2341
  227MOL0     H30617   7.993   0.323   8.641 -1.7466  0.4659 -0.8243
  227MOL0     H30618   8.009   0.243   8.487  0.0039  0.4243  0.6628
  227MOL0     H30619   8.174   0.184   8.736  0.8887  0.3150 -0.0781
  227MOL0     H30620   8.175   0.073   8.589 -0.2598 -0.3601  0.1717
  227MOL0     H30621   8.245   0.364   8.533  0.0736  1.5471  3.8799
  227MOL0     H30622   8.303   0.200   8.480 -2.1325 -0.4222  1.1238
  227MOL0     H30623   8.382   0.287   8.746  1.8629 -1.3429 -0.3426
  227MOL0     H30624   8.443   0.159   8.647  5.5388  2.0746  0.7225
  227MOL0     H30625   7.303   0.127   8.695 -0.2531  1.1312  0.4543
  227MOL0     H30626   7.062   0.197   8.679 -0.3796  2.8422 -0.5849
  227MOL0     H30627   6.760   0.384   8.293 -0.2828  1.4834 -0.9955
  227MOL0     H30628   6.522   0.473   8.241 -0.5643  0.5226  0.1075
  227MOL0     H30629   6.684   1.631   8.659 -0.3673  0.3388  2.4255
  227MOL0     H30630   6.925   1.630   8.556  1.5124 -0.1633  0.9259
  227MOL0     H30631   7.321   1.729   8.432  0.5599  0.2140  0.5205
  227MOL0     H30632   7.557   1.711   8.370 -0.6569 -1.0291 -0.5101
  227MOL0     H30633   7.797   1.436   8.612  2.2020 -1.1461 -1.5381
  227MOL0     H30634   7.849   1.564   8.715 -0.4344 -1.3968  0.4191
  227MOL0     H30635   7.968   1.427   8.466 -0.5113 -0.2959  0.0105
  227MOL0     H30636   8.028   1.462   8.624 -0.2491  1.0851  1.2905
  227MOL0     H30637   8.040   1.720   8.556 -0.2469  1.7529 -2.4682
  227MOL0     H30638   8.008   1.675   8.405 -0.0941  1.5298  1.3421
  227MOL0     H30639   8.241   1.697   8.493 -1.5514  0.7495  4.1072
  227MOL0     H30640   8.246   1.520   8.541 -1.2565 -2.0396 -0.5181
  227MOL0     H30641   8.224   1.444   8.134 -3.6005 -0.9194  0.3233
  227MOL0     H30642   7.614   1.483   8.747 -2.0908  0.0546  0.9455
  227MOL0     H30643   7.294   1.489   8.865 -1.2974 -0.7782 -1.1524
  227MOL0     H30644   7.321   1.349   8.759 -0.1255  0.3521 -1.1553
  227MOL0     H30645   7.439   1.406   8.874 -2.3323 -0.3362  1.6827
  228MOL0     O30646   6.813   7.445   0.702  0.2950  0.1898  0.3200
  228MOL0     C30647   6.807   7.325   0.742  0.8849 -1.0050 -1.0630
  228MOL0     O30648   6.877   7.266   0.842 -0.4706 -0.3612  1.0867
  228MOL0     C30649   6.979   7.329   0.906  0.5765  0.6631 -0.8357
  228MOL0     C30650   6.950   7.435   0.989  0.1221  0.3488  0.3271
  228MOL0     C30651   7.048   7.477   1.077 -0.2580 -0.3757 -0.1319
  228MOL0     C30652   7.175   7.430   1.073  0.3217 -0.9726 -0.7264
  228MOL0     O30653   7.278   7.470   1.154  0.4080  0.2690 -0.6162
  228MOL0     C30654   7.251   7.567   1.258 -0.6176  0.1380  0.8973
  228MOL0     C30655   7.363   7.589   1.350 -0.0078 -0.3866  0.2512
  228MOL0     C30656   7.484   7.663   1.277 -0.2834 -0.2365 -0.6938
  228MOL0     C30657   7.600   7.655   1.375 -0.7703  0.1323 -0.3129
  228MOL0     C30658   7.719   7.724   1.321 -0.0163 -0.2301 -0.5316
  228MOL0     C30659   7.792   7.657   1.201  0.2772  0.4483 -0.4120
  228MOL0     C30660   7.872   7.531   1.246  0.5479  0.1208  0.7617
  228MOL0     C30661   8.011   7.564   1.308 -0.2710 -1.2249 -0.5313
  228MOL0     N30662   8.091   7.648   1.219  0.1461 -1.5590 -0.1698
  228MOL0     C30663   8.143   7.605   1.093 -0.3126 -0.0561 -0.4011
  228MOL0     C30664   8.198   7.712   1.039  0.1261 -0.4240  0.5038
  228MOL0     C30665   8.251   7.716   0.895 -0.2240 -0.1292  0.1455
  228MOL0     C30666   8.398   7.763   0.903  0.0576 -0.0422 -0.4753
  228MOL0     C30667   8.450   7.770   0.762  0.3987 -0.2556  0.3088
  228MOL0     C30668   8.582   7.850   0.749  0.8720  0.3950 -0.1605
  228MOL0     O30669   8.686   7.780   0.801 -0.7792  0.0822  0.5097
  228MOL0     C30670   8.819   7.833   0.786 -1.0965 -0.2033  1.0452
  228MOL0     C30671   8.853   7.954   0.726 -0.3282  0.2488  0.0902
  228MOL0     C30672   8.995   7.986   0.713  0.4108  1.3714 -0.0438
  228MOL0     C30673   9.094   7.900   0.748 -0.0800 -0.8163  0.2031
  228MOL0     C30674   9.232   7.935   0.731 -0.8483  0.1159 -0.5283
  228MOL0     O30675   9.320   7.838   0.762 -0.4641  0.2966  0.1548
  228MOL0     C30676   9.452   7.858   0.780  0.0236  0.0279  0.2756
  228MOL0     C30677   9.529   7.744   0.817  0.9361  0.2626  0.5167
  228MOL0     C30678   9.664   7.749   0.863 -0.1935 -0.1552  0.2779
  228MOL0     C30679   9.734   7.872   0.864  0.0674  0.1757  0.2909
  228MOL0     O30680   9.860   7.883   0.912 -0.0967 -0.3734  0.8057
  228MOL0     C30681   9.967   7.802   0.859  0.6653 -0.4256  0.0581
  228MOL0     C30682  10.111   7.840   0.896 -0.1740 -0.1110 -0.0070
  228MOL0     C30683  10.158   7.969   0.820 -0.8556 -0.5535 -0.6337
  228MOL0     C30684  10.115   8.102   0.889 -0.0516 -0.4720  0.4638
  228MOL0     C30685  10.160   8.217   0.801 -0.3549  0.5000 -0.1990
  228MOL0     C30686  10.310   8.259   0.824  0.3152  0.6966 -0.4726
  228MOL0     C30687  10.338   8.374   0.926  0.7265  0.3610 -0.2735
  228MOL0     C30688  10.482   8.412   0.945 -0.6694  0.3736  0.7664
  228MOL0    Cl30689  10.496   8.538   1.079 -0.1546 -0.0086 -0.0481
  228MOL0     C30690   9.665   7.980   0.816 -0.2019 -0.4667 -0.1661
  228MOL0     C30691   9.530   7.976   0.778  0.5312  0.0675  0.1737
  228MOL0     O30692   9.263   8.049   0.679 -0.0078  0.2009 -1.0424
  228MOL0     C30693   9.060   7.778   0.802  0.6908  0.4567  0.3882
  228MOL0     C30694   8.929   7.743   0.820  0.3623 -0.2735 -0.5841
  228MOL0     N30695   8.185   7.819   1.130 -0.5702  1.2138 -0.8584
  228MOL0     N30696   8.120   7.779   1.238  0.1432 -0.0849 -0.3090
  228MOL0     C30697   7.207   7.327   0.990  0.1477  0.4382 -0.3635
  228MOL0     C30698   7.110   7.268   0.905  0.4473 -0.1689  0.0080
  228MOL0     C30699   6.716   7.231   0.674  0.7200 -0.1226  0.1264
  228MOL0     C30700   6.737   7.228   0.541  0.1824 -0.4739  0.9105
  228MOL0     C30701   6.673   7.139   0.457  0.3212 -0.1542  0.2543
  228MOL0     C30702   6.562   7.069   0.510  0.5033  0.3106 -0.9535
  228MOL0     O30703   6.480   6.995   0.441  0.2193  0.7195  0.3967
  228MOL0     C30704   6.508   6.961   0.304  0.0523  0.5748 -0.4020
  228MOL0     C30705   6.402   6.862   0.262  0.5447  0.6229  0.5097
  228MOL0     C30706   6.262   6.931   0.255 -0.6977  0.2478  0.7485
  228MOL0     C30707   6.147   6.840   0.196 -0.1365 -0.1626  0.7144
  228MOL0     C30708   6.044   6.931   0.145  0.5240  0.1877 -0.5627
  228MOL0     C30709   5.962   7.013   0.125  0.0393 -0.4383 -0.1380
  228MOL0     C30710   6.532   7.068   0.645  0.2956 -0.5894 -0.8994
  228MOL0     C30711   6.617   7.143   0.728 -0.3922  0.1916 -0.1140
  228MOL0     C30712   6.593   7.139   0.877 -0.1104 -0.5354  0.1681
  228MOL0     H30713   6.855   7.486   0.991  0.5640  1.1702  1.5072
  228MOL0     H30714   7.020   7.565   1.135  1.9974  0.0751  0.3879
  228MOL0     H30715   7.235   7.658   1.200 -0.5127 -0.8621 -0.7412
  228MOL0     H30716   7.162   7.539   1.315 -1.9798  2.1481 -0.1133
  228MOL0     H30717   7.406   7.494   1.384  0.5547 -0.0088  0.6151
  228MOL0     H30718   7.337   7.641   1.443  1.4850  1.3994 -0.2654
  228MOL0     H30719   7.454   7.767   1.262 -1.2980 -0.6432 -1.5910
  228MOL0     H30720   7.502   7.617   1.179 -0.9089 -1.5886 -0.1947
  228MOL0     H30721   7.572   7.705   1.469  1.9596 -1.4439  1.4674
  228MOL0     H30722   7.640   7.558   1.403 -1.2231  0.5108  1.8316
  228MOL0     H30723   7.695   7.824   1.284  1.2092  1.0107  1.8045
  228MOL0     H30724   7.786   7.730   1.407 -0.3341  1.8620 -0.3808
  228MOL0     H30725   7.725   7.631   1.118  0.2715  0.5470 -0.4392
  228MOL0     H30726   7.863   7.732   1.164  1.2701 -0.7614 -1.0217
  228MOL0     H30727   7.895   7.478   1.153  1.6072 -1.2182  1.7422
  228MOL0     H30728   7.811   7.463   1.306 -1.3512  0.6180 -0.5138
  228MOL0     H30729   7.996   7.617   1.403 -0.7869  0.0015 -1.2715
  228MOL0     H30730   8.071   7.476   1.334  1.7943  1.3118  4.9120
  228MOL0     H30731   8.132   7.515   1.034 -2.2904  1.3545 -2.3494
  228MOL0     H30732   8.241   7.626   0.834  3.1014  0.2488 -1.1607
  228MOL0     H30733   8.195   7.790   0.837  2.1963  1.4176 -0.3606
  228MOL0     H30734   8.400   7.859   0.955  0.1471  0.6159 -1.6774
  228MOL0     H30735   8.464   7.687   0.945 -0.6009 -0.1474  0.4057
  228MOL0     H30736   8.377   7.823   0.700  1.2987 -0.1495 -0.6950
  228MOL0     H30737   8.451   7.667   0.728 -2.5199 -1.9537  4.4955
  228MOL0     H30738   8.572   7.948   0.797  0.3751  0.3576 -0.1857
  228MOL0     H30739   8.602   7.864   0.642  0.3207 -0.5535 -0.3995
  228MOL0     H30740   8.778   8.027   0.698 -2.0185 -1.0552  1.0029
  228MOL0     H30741   9.017   8.084   0.673 -1.1823  1.4835 -0.7478
  228MOL0     H30742   9.468   7.654   0.813 -2.1272  2.1795  0.2474
  228MOL0     H30743   9.720   7.661   0.892  1.0552 -0.3054 -2.2400
  228MOL0     H30744   9.964   7.696   0.888 -0.0284 -1.1752 -2.4698
  228MOL0     H30745   9.963   7.806   0.750 -3.9021  0.3838  0.0618
  228MOL0     H30746  10.123   7.842   1.005  0.8497 -4.0911  0.1250
  228MOL0     H30747  10.174   7.756   0.865 -0.6263 -0.0930 -1.0033
  228MOL0     H30748  10.268   7.969   0.816 -0.8831 -1.7121 -2.3769
  228MOL0     H30749  10.117   7.962   0.719  1.3883  0.9601 -1.7436
  228MOL0     H30750  10.153   8.108   0.991  0.6434  0.0281  0.1790
  228MOL0     H30751  10.005   8.105   0.889 -0.0944 -1.1587 -0.8805
  228MOL0     H30752  10.101   8.302   0.833  1.5603  2.4393 -1.4935
  228MOL0     H30753  10.138   8.197   0.695  0.2742 -3.3770  0.2492
  228MOL0     H30754  10.382   8.176   0.829  1.0892  1.0577 -3.4927
  228MOL0     H30755  10.349   8.308   0.734  3.8555  1.9347  1.5371
  228MOL0     H30756  10.303   8.343   1.024  3.2846  3.0588  1.6944
  228MOL0     H30757  10.279   8.461   0.895 -0.5888  0.7366  2.9067
  228MOL0     H30758  10.539   8.321   0.965 -0.5033 -0.0995 -1.4972
  228MOL0     H30759  10.518   8.447   0.847  0.7626  0.1058  1.1681
  228MOL0     H30760   9.733   8.065   0.817  0.5801 -1.0289 -1.8349
  228MOL0     H30761   9.497   8.073   0.742 -1.2063 -0.3593  0.5377
  228MOL0     H30762   9.133   7.702   0.828 -0.5532 -0.7174  0.5951
  228MOL0     H30763   8.900   7.647   0.862  4.5492 -1.2461  0.5602
  228MOL0     H30764   7.308   7.288   0.999 -1.1105 -2.7414  2.6538
  228MOL0     H30765   7.123   7.187   0.833  2.3011  0.6498 -0.6437
  228MOL0     H30766   6.812   7.291   0.495 -1.2512 -0.4541 -1.5795
  228MOL0     H30767   6.705   7.144   0.353  0.3384 -1.7734  0.1566
  228MOL0     H30768   6.608   6.917   0.300  0.5672  1.1572  3.1979
  228MOL0     H30769   6.506   7.048   0.237 -2.2022 -0.2154 -1.4608
  228MOL0     H30770   6.394   6.774   0.327 -0.1101  0.3157  0.0346
  228MOL0     H30771   6.431   6.812   0.169  0.1183 -3.1547  2.2039
  228MOL0     H30772   6.267   7.024   0.198 -1.9956  0.2359  0.6033
  228MOL0     H30773   6.236   6.962   0.357 -0.1146 -1.1034  1.3370
  228MOL0     H30774   6.184   6.797   0.102 -0.5936 -0.1863  0.5414
  228MOL0     H30775   6.110   6.763   0.265 -2.8525 -0.1340 -0.5769
  228MOL0     H30776   5.895   7.097   0.123  1.9785  1.3110  2.0959
  228MOL0     H30777   6.460   6.999   0.687  1.9531 -1.4556  0.7022
  228MOL0     H30778   6.490   7.103   0.888 -0.1849 -0.9097 -1.4987
  228MOL0     H30779   6.657   7.060   0.920 -1.3375 -1.2048  0.8103
  228MOL0     H30780   6.604   7.236   0.927 -1.4428  1.2245 -2.7220
  229MOL0     O30781   5.236   6.661   1.270  0.3658 -0.5449  0.0924
  229MOL0     C30782   5.233   6.617   1.381  0.9675 -0.0748  0.4672
  229MOL0     O30783   5.163   6.496   1.411  0.8531  0.1214 -0.1206
  229MOL0     C30784   5.093   6.438   1.308 -0.2678  0.5048  0.4276
  229MOL0     C30785   4.965   6.395   1.331  0.4037 -0.0595 -0.1712
  229MOL0     C30786   4.899   6.319   1.233  0.2628  0.0055  0.3844
  229MOL0     C30787   4.963   6.283   1.112 -0.4534  0.6294 -0.4175
  229MOL0     O30788   4.900   6.194   1.024 -0.1779  0.0626 -0.1815
  229MOL0     C30789   4.861   6.262   0.902  0.2194  0.2130  0.3121
  229MOL0     C30790   4.773   6.174   0.809  0.5725  0.7020  0.2912
  229MOL0     C30791   4.855   6.048   0.771  0.5512  0.0502  0.0940
  229MOL0     C30792   4.976   6.081   0.688 -0.1178 -0.0714  0.4237
  229MOL0     C30793   5.015   5.967   0.598  0.0733  0.7911 -0.4464
  229MOL0     C30794   5.128   6.026   0.510 -0.3105  0.5866  1.2026
  229MOL0     C30795   5.076   6.114   0.385  0.6689  0.5745  0.4514
  229MOL0     C30796   5.170   6.218   0.331 -0.7507 -0.9585  0.5783
  229MOL0     N30797   5.285   6.154   0.277 -0.2056  0.3034 -0.6443
  229MOL0     C30798   5.292   6.102   0.152  0.1704 -0.2877  0.3009
  229MOL0     C30799   5.421   6.059   0.143  0.5524  0.0351  0.1953
  229MOL0     C30800   5.482   6.021   0.014  0.8637  0.2526  0.3850
  229MOL0     C30801   5.583   5.910   0.042  0.1103 -0.1100  0.5951
  229MOL0     C30802   5.635   5.865  -0.091 -0.7292  0.4022  0.6880
  229MOL0     C30803   5.750   5.751  -0.086 -0.1809 -0.2610  0.2553
  229MOL0     O30804   5.802   5.722  -0.217  0.2776  0.8671 -0.0902
  229MOL0     C30805   5.924   5.661  -0.228 -1.2518  0.0508  0.8002
  229MOL0     C30806   5.969   5.613  -0.354  0.1053  0.0262 -0.1531
  229MOL0     C30807   6.069   5.516  -0.366 -0.6853  0.5388  0.8559
  229MOL0     C30808   6.142   5.478  -0.261 -0.4137 -0.5922 -0.0093
  229MOL0     C30809   6.258   5.393  -0.274 -0.1645 -0.0524 -0.3017
  229MOL0     O30810   6.328   5.394  -0.391 -0.0946  0.3001  0.4656
  229MOL0     C30811   6.421   5.294  -0.408 -0.0055  0.1687 -0.3470
  229MOL0     C30812   6.397   5.202  -0.510  0.7081  0.4337 -0.1629
  229MOL0     C30813   6.504   5.115  -0.535  0.2907 -0.7715  0.3793
  229MOL0     C30814   6.633   5.118  -0.464 -0.7456 -0.7338  0.7061
  229MOL0     O30815   6.737   5.033  -0.492 -0.4449 -0.1677 -0.1444
  229MOL0     C30816   6.733   4.945  -0.600 -0.2492 -0.3613 -0.3332
  229MOL0     C30817   6.871   4.908  -0.656  1.1267  0.0556  0.3780
  229MOL0     C30818   6.941   4.799  -0.563  0.2033  0.0820  0.1793
  229MOL0     C30819   7.015   4.846  -0.445  0.4618 -0.3085 -0.2579
  229MOL0     C30820   7.104   4.742  -0.362  0.1285 -0.4732 -0.2213
  229MOL0     C30821   7.192   4.820  -0.262 -0.6981 -0.1200 -0.2057
  229MOL0     C30822   7.274   4.734  -0.176  0.5947 -0.6474  0.4120
  229MOL0     C30823   7.344   4.807  -0.067 -0.3556  0.0921  0.8771
  229MOL0    Cl30824   7.468   4.935  -0.117 -0.2986 -0.2332  0.3519
  229MOL0     C30825   6.643   5.196  -0.355 -0.1570 -0.5503  0.1800
  229MOL0     C30826   6.542   5.291  -0.329  0.2721  0.2638 -0.6662
  229MOL0     O30827   6.280   5.319  -0.174  0.2767 -0.0541 -0.4385
  229MOL0     C30828   6.106   5.525  -0.139 -0.5157  0.0186 -0.4672
  229MOL0     C30829   6.002   5.613  -0.122  0.7282 -0.8045  0.2443
  229MOL0     N30830   5.485   6.085   0.264 -0.4697 -0.1649 -0.5349
  229MOL0     N30831   5.408   6.148   0.342  0.2674 -0.0512 -0.5726
  229MOL0     C30832   5.089   6.324   1.089  0.1548 -0.4869  0.4113
  229MOL0     C30833   5.160   6.393   1.186  0.6327  0.5503  0.2783
  229MOL0     C30834   5.291   6.693   1.495 -0.0393 -0.1214  0.6584
  229MOL0     C30835   5.357   6.817   1.465  0.2005 -0.4704 -0.6460
  229MOL0     C30836   5.423   6.887   1.562 -1.6567 -0.7484  0.4799
  229MOL0     C30837   5.410   6.852   1.698 -0.3361  0.2399  0.3529
  229MOL0     O30838   5.482   6.913   1.797  0.6355  0.1941  0.2079
  229MOL0     C30839   5.550   7.034   1.768  0.8090  0.1510 -0.6214
  229MOL0     C30840   5.625   7.100   1.880 -0.1030 -0.7412  0.0663
  229MOL0     C30841   5.748   7.016   1.942  0.7459  0.3557 -0.7570
  229MOL0     C30842   5.839   6.939   1.840  0.7833  0.6805  0.5448
  229MOL0     C30843   5.914   7.037   1.752  0.3928  0.0873 -0.3527
  229MOL0     C30844   5.959   7.117   1.671 -0.9824 -0.5741 -0.8294
  229MOL0     C30845   5.346   6.734   1.730 -0.6673 -0.7930  0.3097
  229MOL0     C30846   5.289   6.647   1.632 -0.2513  0.3416 -0.3954
  229MOL0     C30847   5.242   6.509   1.680 -0.8973 -0.4028 -0.3330
  229MOL0     H30848   4.927   6.428   1.427 -1.9609  0.8099 -1.3376
  229MOL0     H30849   4.794   6.293   1.247  0.2224 -0.0259  0.0310
  229MOL0     H30850   4.799   6.351   0.917 -1.0025 -0.6627  0.6228
  229MOL0     H30851   4.952   6.283   0.845  0.2475 -0.7701 -0.0233
  229MOL0     H30852   4.757   6.232   0.717 -1.7667 -0.5881 -0.1978
  229MOL0     H30853   4.678   6.147   0.857  0.5036 -0.3372 -0.3918
  229MOL0     H30854   4.800   5.969   0.718  3.0302 -0.8322 -1.3220
  229MOL0     H30855   4.892   6.006   0.865 -1.3325 -0.4107  0.6730
  229MOL0     H30856   4.958   6.169   0.625  1.7241 -0.3285 -0.5385
  229MOL0     H30857   5.063   6.110   0.747 -0.8291  2.1372  0.4783
  229MOL0     H30858   5.052   5.886   0.661  0.1589 -0.5154 -2.1040
  229MOL0     H30859   4.929   5.927   0.543  0.6279 -2.5297  0.8802
  229MOL0     H30860   5.200   6.088   0.564 -2.1451  1.1396  3.1562
  229MOL0     H30861   5.184   5.945   0.462  0.3229  0.4953  2.0763
  229MOL0     H30862   4.988   6.166   0.424 -0.5177 -1.2942  0.4014
  229MOL0     H30863   5.049   6.043   0.306  0.1103  2.1872 -0.8568
  229MOL0     H30864   5.120   6.273   0.250  0.3135 -0.9498 -0.0817
  229MOL0     H30865   5.196   6.285   0.414  0.8158  0.4265 -0.9534
  229MOL0     H30866   5.211   6.123   0.082 -3.5421  0.1810  4.2756
  229MOL0     H30867   5.398   5.978  -0.041  2.5449  0.1491 -2.2441
  229MOL0     H30868   5.520   6.106  -0.043  1.5759 -1.9166 -2.5809
  229MOL0     H30869   5.674   5.945   0.094 -0.0233  0.7973  0.2437
  229MOL0     H30870   5.546   5.827   0.102  0.9432  1.3984  3.4090
  229MOL0     H30871   5.675   5.950  -0.146  0.2704  0.5919  1.6625
  229MOL0     H30872   5.548   5.822  -0.140  0.3425  1.1252 -2.0354
  229MOL0     H30873   5.709   5.664  -0.032 -2.9275  1.9396  2.0105
  229MOL0     H30874   5.832   5.784  -0.021 -1.0330 -0.4612  1.4767
  229MOL0     H30875   5.914   5.644  -0.442 -0.9457 -1.1041  0.0698
  229MOL0     H30876   6.090   5.474  -0.464  1.7197  0.5252  1.3124
  229MOL0     H30877   6.307   5.201  -0.571 -1.1177 -0.5793  2.3349
  229MOL0     H30878   6.496   5.054  -0.624 -1.3119 -2.9276  1.8993
  229MOL0     H30879   6.687   4.850  -0.572  0.0775 -0.0195  1.4625
  229MOL0     H30880   6.684   4.990  -0.687 -0.0934 -1.4678 -1.0107
  229MOL0     H30881   6.848   4.876  -0.758  0.0980  0.6617  0.4003
  229MOL0     H30882   6.925   5.002  -0.669 -0.8641  1.1012 -0.9346
  229MOL0     H30883   6.867   4.720  -0.545 -2.6078  2.6888  0.9065
  229MOL0     H30884   7.021   4.765  -0.630 -2.1507  0.3109 -3.0181
  229MOL0     H30885   6.944   4.898  -0.381  1.3413  2.9450 -1.6978
  229MOL0     H30886   7.084   4.922  -0.484  1.1713  0.0223  1.5734
  229MOL0     H30887   7.178   4.690  -0.424  1.5341  2.6809 -1.4046
  229MOL0     H30888   7.049   4.673  -0.299 -2.4499 -0.7387 -2.5936
  229MOL0     H30889   7.257   4.884  -0.323 -1.8043 -1.6386 -3.1533
  229MOL0     H30890   7.122   4.875  -0.198 -1.4987 -0.3416 -0.8884
  229MOL0     H30891   7.346   4.673  -0.232 -1.4045 -0.6064 -2.3863
  229MOL0     H30892   7.207   4.664  -0.126  2.1774 -1.3174  1.6891
  229MOL0     H30893   7.265   4.852  -0.006 -0.9690  0.2845 -0.0451
  229MOL0     H30894   7.403   4.730  -0.016  0.4992  1.1356  1.5187
  229MOL0     H30895   6.734   5.191  -0.296 -2.0072  0.6836  3.3586
  229MOL0     H30896   6.543   5.351  -0.238  1.4179 -0.5393 -0.1182
  229MOL0     H30897   6.154   5.497  -0.046  1.0144 -1.7310 -1.7080
  229MOL0     H30898   5.988   5.644  -0.019 -0.5681 -0.5252  0.0051
  229MOL0     H30899   5.135   6.308   0.992 -0.9667  0.1378 -0.2481
  229MOL0     H30900   5.263   6.419   1.164 -0.1836  2.0570 -2.2052
  229MOL0     H30901   5.354   6.859   1.365  3.2339  0.6204 -0.3676
  229MOL0     H30902   5.472   6.981   1.542 -2.3696 -0.9806 -3.0569
  229MOL0     H30903   5.475   7.106   1.734 -3.4321 -2.1942  2.8410
  229MOL0     H30904   5.631   7.023   1.695  0.7221  1.2062 -0.8914
  229MOL0     H30905   5.549   7.116   1.957 -3.3294  1.6727 -3.2325
  229MOL0     H30906   5.673   7.188   1.837 -0.1665 -2.0095 -2.9007
  229MOL0     H30907   5.711   6.952   2.023  1.5683  1.7518  0.7744
  229MOL0     H30908   5.815   7.077   2.003  1.8104 -0.9024 -0.6344
  229MOL0     H30909   5.911   6.883   1.900  1.3379  1.1414  0.3180
  229MOL0     H30910   5.775   6.875   1.779  0.6397  0.8706  0.4949
  229MOL0     H30911   5.997   7.179   1.593 -2.0907  1.2086  0.0045
  229MOL0     H30912   5.333   6.714   1.836  0.2975 -4.3665 -0.0935
  229MOL0     H30913   5.295   6.435   1.620 -0.2611  0.1834 -0.5202
  229MOL0     H30914   5.280   6.495   1.782 -2.6251  0.9851  0.5490
  229MOL0     H30915   5.134   6.507   1.670 -0.7719 -1.9197 -1.6586
  230MOL0     O30916   0.060   0.037   4.265  0.0468 -0.6015  0.1862
  230MOL0     C30917   0.018   0.146   4.217 -1.2988  0.5283 -1.0295
  230MOL0     O30918   0.074   0.263   4.246 -0.0400  0.0270  0.0447
  230MOL0     C30919   0.180   0.284   4.335  0.2354  0.3223  0.2875
  230MOL0     C30920   0.310   0.269   4.295  0.5376  0.0073  0.5279
  230MOL0     C30921   0.413   0.308   4.381 -0.6455 -0.2656 -0.4661
  230MOL0     C30922   0.389   0.366   4.511  0.6317  0.3083  0.7596
  230MOL0     O30923   0.475   0.416   4.604 -0.5101  0.5258 -0.1155
  230MOL0     C30924   0.609   0.407   4.575 -0.7297 -0.8529  0.0778
  230MOL0     C30925   0.697   0.498   4.667  0.3715 -0.6869  0.0198
  230MOL0     C30926   0.659   0.494   4.819 -0.2708 -0.3372  0.1413
  230MOL0     C30927   0.724   0.606   4.895 -0.4528  0.8544 -0.5797
  230MOL0     C30928   0.669   0.635   5.033 -0.9499 -0.2050 -0.4858
  230MOL0     C30929   0.676   0.514   5.122  0.7206 -0.3551 -0.2053
  230MOL0     C30930   0.618   0.547   5.269 -0.7717 -0.4983  0.1873
  230MOL0     C30931   0.462   0.539   5.271 -0.4465  0.2218  0.6655
  230MOL0     N30932   0.392   0.523   5.404 -0.2405  0.1117 -0.9721
  230MOL0     C30933   0.411   0.591   5.526  0.2235 -0.6743 -0.0058
  230MOL0     C30934   0.320   0.536   5.613  0.5448 -0.6108 -0.1481
  230MOL0     C30935   0.319   0.540   5.772 -0.4526  0.1219  0.5154
  230MOL0     C30936   0.277   0.687   5.807  0.1951  0.0999  0.6827
  230MOL0     C30937   0.274   0.707   5.957 -0.7645  0.3076  0.3063
  230MOL0     C30938   0.407   0.692   6.026  0.1761 -0.2532  0.3074
  230MOL0     O30939   0.510   0.768   5.954  0.1904 -0.0369 -0.3297
  230MOL0     C30940   0.638   0.730   5.989  0.8986 -0.1997  0.7577
  230MOL0     C30941   0.680   0.679   6.117 -0.2394 -1.4050 -0.9278
  230MOL0     C30942   0.817   0.668   6.150 -0.2290  0.0335 -0.1979
  230MOL0     C30943   0.909   0.703   6.052 -0.6672 -0.0209 -0.1092
  230MOL0     C30944   1.054   0.675   6.055  0.2917  0.1459 -0.6177
  230MOL0     O30945   1.140   0.734   5.965 -0.1303  0.7470  0.9670
  230MOL0     C30946   1.270   0.686   5.961 -0.0424 -0.2668  0.0389
  230MOL0     C30947   1.330   0.619   5.858  0.0321 -0.2020  0.2502
  230MOL0     C30948   1.462   0.595   5.847  0.3716  0.5016 -0.3542
  230MOL0     C30949   1.541   0.623   5.957 -0.6881  0.9114 -0.7366
  230MOL0     O30950   1.673   0.592   5.936 -0.0241 -0.3695  0.5199
  230MOL0     C30951   1.754   0.604   6.048 -0.1685  0.9710  0.2095
  230MOL0     C30952   1.897   0.568   6.009  0.1082  0.7347 -0.6998
  230MOL0     C30953   1.948   0.634   5.887  0.1763 -0.4847  0.1067
  230MOL0     C30954   2.093   0.642   5.913  0.5474  0.5286  0.1764
  230MOL0     C30955   2.186   0.681   5.792  0.2950 -0.5258 -0.1387
  230MOL0     C30956   2.132   0.798   5.698 -0.7081 -0.7206  0.3110
  230MOL0     C30957   2.232   0.841   5.592  0.7068 -0.2706 -0.5757
  230MOL0     C30958   2.317   0.959   5.640 -0.3704  0.2990 -0.6040
  230MOL0    Cl30959   2.227   1.110   5.620  0.2774 -0.1308 -0.1857
  230MOL0     C30960   1.485   0.692   6.069  1.2831 -0.1336  0.0649
  230MOL0     C30961   1.350   0.727   6.061 -0.7292  0.0322  0.4621
  230MOL0     O30962   1.077   0.586   6.131 -0.2292  0.1896 -0.3186
  230MOL0     C30963   0.861   0.756   5.926 -0.7558  0.1445  0.0842
  230MOL0     C30964   0.725   0.776   5.898  0.2060  0.1926  0.8966
  230MOL0     N30965   0.238   0.453   5.539 -0.5186  0.1849  0.3761
  230MOL0     N30966   0.279   0.454   5.416  0.3778 -0.1135  0.2966
  230MOL0     C30967   0.252   0.376   4.549 -1.2084 -0.5511 -0.1417
  230MOL0     C30968   0.149   0.330   4.464  0.8474 -0.2168  1.0805
  230MOL0     C30969  -0.104   0.151   4.141  0.0894  1.1374  0.0404
  230MOL0     C30970  -0.168   0.273   4.115  1.0538 -0.4214 -0.3139
  230MOL0     C30971  -0.286   0.278   4.042  0.0499 -1.3378  0.1462
  230MOL0     C30972  -0.345   0.173   3.981 -0.1255  0.5521 -0.7661
  230MOL0     O30973  -0.472   0.184   3.930 -0.6695  0.3615  0.1670
  230MOL0     C30974  -0.516   0.079   3.843  0.5572  0.3434 -0.4493
  230MOL0     C30975  -0.444   0.081   3.704  0.3660 -0.2018 -0.7830
  230MOL0     C30976  -0.495   0.001   3.585  0.1014 -0.5199 -1.4295
  230MOL0     C30977  -0.523  -0.149   3.624  0.2874 -0.3041 -0.3252
  230MOL0     C30978  -0.401  -0.203   3.684 -1.0369  0.9616  0.1309
  230MOL0     C30979  -0.311  -0.264   3.746  0.4571  0.0920 -0.6718
  230MOL0     C30980  -0.283   0.046   4.007  0.3983 -0.4262  0.0645
  230MOL0     C30981  -0.167   0.032   4.088  0.3556 -0.0079 -0.1173
  230MOL0     C30982  -0.113  -0.116   4.106  0.3330  1.1038  0.5418
  230MOL0     H30983   0.336   0.228   4.198  1.4545 -0.9002  1.1352
  230MOL0     H30984   0.513   0.323   4.342 -1.0118  2.0030 -0.6404
  230MOL0     H30985   0.649   0.306   4.588  0.5876 -0.9548 -3.7777
  230MOL0     H30986   0.635   0.444   4.476  1.4706 -2.1118  0.1386
  230MOL0     H30987   0.698   0.604   4.642  2.7593 -0.2477  1.6373
  230MOL0     H30988   0.804   0.480   4.653  0.5204 -0.6092  0.9917
  230MOL0     H30989   0.688   0.395   4.854 -0.1566 -0.0462  0.8869
  230MOL0     H30990   0.552   0.509   4.835  0.3690  0.9741  4.3934
  230MOL0     H30991   0.831   0.583   4.901 -0.5134  0.6272 -0.3354
  230MOL0     H30992   0.702   0.698   4.840  0.1666  1.1835 -0.2842
  230MOL0     H30993   0.728   0.721   5.066 -1.4585  0.0075 -0.1164
  230MOL0     H30994   0.566   0.672   5.028 -1.4493 -1.2351  1.2076
  230MOL0     H30995   0.618   0.432   5.079  1.4966 -2.5100  2.5280
  230MOL0     H30996   0.782   0.487   5.129  1.7527  2.9088 -1.4595
  230MOL0     H30997   0.649   0.649   5.292  0.0312 -0.1433 -2.2352
  230MOL0     H30998   0.662   0.476   5.340  1.4805  0.6659  0.0589
  230MOL0     H30999   0.406   0.617   5.220 -1.2457 -2.0393 -2.1841
  230MOL0     H31000   0.436   0.451   5.212 -0.8340 -1.5719  3.2966
  230MOL0     H31001   0.493   0.656   5.555  0.9120 -3.0796  4.2695
  230MOL0     H31002   0.255   0.462   5.813 -0.0115 -2.2739 -2.9109
  230MOL0     H31003   0.412   0.504   5.816  1.4971 -0.1294 -3.3179
  230MOL0     H31004   0.336   0.759   5.751 -0.0522 -0.5783 -0.4793
  230MOL0     H31005   0.174   0.712   5.779 -0.8990 -2.1905  2.2511
  230MOL0     H31006   0.187   0.662   6.006 -1.2590  1.2872  0.3652
  230MOL0     H31007   0.256   0.815   5.961 -0.0322  0.4443  0.0661
  230MOL0     H31008   0.441   0.589   6.014  3.8167  1.0892 -4.0779
  230MOL0     H31009   0.405   0.715   6.132  4.2793 -0.3010  0.5713
  230MOL0     H31010   0.599   0.658   6.187 -2.4676 -0.9483 -3.2202
  230MOL0     H31011   0.851   0.603   6.230  1.8446 -0.9460 -1.8054
  230MOL0     H31012   1.273   0.594   5.769  2.4233  1.7363 -1.9702
  230MOL0     H31013   1.513   0.549   5.763  0.6712 -0.7506  0.4772
  230MOL0     H31014   1.758   0.706   6.088  1.7331  0.6653  0.9277
  230MOL0     H31015   1.706   0.536   6.119 -0.6738 -0.3046 -1.2840
  230MOL0     H31016   1.961   0.595   6.093  1.2758 -0.9351 -0.9942
  230MOL0     H31017   1.902   0.460   5.990  2.9975  0.7252 -0.3424
  230MOL0     H31018   1.913   0.587   5.794 -0.1127  0.9141 -0.5182
  230MOL0     H31019   1.917   0.739   5.879  0.7057 -0.4701 -2.7825
  230MOL0     H31020   2.125   0.548   5.960 -1.8227  0.8890  2.7654
  230MOL0     H31021   2.120   0.712   5.993 -0.6854  0.9639  0.2296
  230MOL0     H31022   2.194   0.592   5.729  2.2259 -1.3074  1.1216
  230MOL0     H31023   2.281   0.703   5.842  0.3091  0.6352 -0.6427
  230MOL0     H31024   2.042   0.763   5.647 -1.4368 -0.8731  1.6529
  230MOL0     H31025   2.099   0.878   5.765 -0.7904 -0.1470 -0.3966
  230MOL0     H31026   2.166   0.871   5.510  1.4306  0.3556 -0.9465
  230MOL0     H31027   2.295   0.755   5.566 -1.3679 -2.7173  1.9102
  230MOL0     H31028   2.341   0.955   5.747  0.0513  2.6579 -0.5623
  230MOL0     H31029   2.413   0.963   5.588  0.7152  1.1376  1.3437
  230MOL0     H31030   1.540   0.728   6.156 -0.3269  0.5894  0.8410
  230MOL0     H31031   1.306   0.788   6.140 -1.3900 -1.1481  1.0383
  230MOL0     H31032   0.929   0.797   5.852 -3.6753  2.5251 -1.4883
  230MOL0     H31033   0.688   0.810   5.801 -1.1167 -0.3916  1.1729
  230MOL0     H31034   0.238   0.429   4.643  0.0544 -0.9898  0.3143
  230MOL0     H31035   0.047   0.336   4.500 -0.8548 -1.7245 -2.9647
  230MOL0     H31036  -0.128   0.369   4.143 -0.2058  1.4123 -4.1322
  230MOL0     H31037  -0.334   0.374   4.026  0.2093 -1.8000 -4.1939
  230MOL0     H31038  -0.620   0.095   3.814  0.4956  1.1263  0.1628
  230MOL0     H31039  -0.505  -0.018   3.892  1.1243  0.2134 -0.8304
  230MOL0     H31040  -0.336   0.063   3.711  0.2874 -0.4421 -0.1057
  230MOL0     H31041  -0.446   0.188   3.683  3.1917  0.3888  1.3370
  230MOL0     H31042  -0.414   0.005   3.512  1.0016  3.4479 -0.4792
  230MOL0     H31043  -0.586   0.042   3.541 -1.4311 -0.9136  1.1433
  230MOL0     H31044  -0.609  -0.148   3.690  0.7403  2.1836  0.3512
  230MOL0     H31045  -0.544  -0.207   3.533  1.9059 -1.2766 -0.1218
  230MOL0     H31046  -0.252  -0.332   3.804 -0.1781  0.3885  0.3395
  230MOL0     H31047  -0.310  -0.045   3.955  1.6679 -0.9795  0.3388
  230MOL0     H31048  -0.005  -0.113   4.092 -0.0361  1.0600 -3.3285
  230MOL0     H31049  -0.146  -0.161   4.201 -1.3266  0.8305 -0.1317
  230MOL0     H31050  -0.144  -0.182   4.025  0.0326  0.8457  0.8626
  231MOL0     O31051   4.341   2.727   5.869  0.1027  0.2708 -0.0824
  231MOL0     C31052   4.244   2.774   5.809  0.2416 -0.0117  0.0169
  231MOL0     O31053   4.243   2.889   5.733  0.1452 -0.0909 -0.0928
  231MOL0     C31054   4.354   2.965   5.694 -0.5025  0.1550 -0.2700
  231MOL0     C31055   4.326   3.074   5.620  0.6640 -0.2845 -0.2279
  231MOL0     C31056   4.420   3.165   5.575 -1.0944  0.3274  0.3160
  231MOL0     C31057   4.557   3.164   5.625  0.6744  0.7095 -0.6830
  231MOL0     O31058   4.636   3.266   5.594  0.5539 -0.0998  0.1677
  231MOL0     C31059   4.780   3.247   5.599  0.4271  0.6551  0.1982
  231MOL0     C31060   4.824   3.157   5.487  0.1697  0.5869 -0.1596
  231MOL0     C31061   4.960   3.112   5.531  0.5939 -0.1706  0.2795
  231MOL0     C31062   5.033   3.029   5.430  0.1571 -0.3209 -0.5121
  231MOL0     C31063   5.184   3.044   5.434  0.8743 -0.4756 -0.3212
  231MOL0     C31064   5.253   2.979   5.314 -0.3936  0.4602 -0.0557
  231MOL0     C31065   5.401   2.967   5.332 -0.5199  0.0317 -0.5388
  231MOL0     C31066   5.484   2.899   5.221  0.4024  0.3895  0.3266
  231MOL0     N31067   5.635   2.909   5.237  0.9967  0.3446 -0.3626
  231MOL0     C31068   5.704   3.020   5.207 -1.0497 -1.0236 -0.3926
  231MOL0     C31069   5.837   2.984   5.218  0.5174  0.4453  0.2383
  231MOL0     C31070   5.953   3.069   5.194 -0.0517  0.0415  0.4466
  231MOL0     C31071   6.057   2.991   5.116 -0.3861 -0.3223  1.0918
  231MOL0     C31072   6.183   3.063   5.088 -0.0291 -0.1057  0.5770
  231MOL0     C31073   6.284   3.061   5.202  0.0539 -0.7043 -0.3988
  231MOL0     O31074   6.397   3.148   5.168  0.6575  0.1074 -0.1649
  231MOL0     C31075   6.510   3.147   5.250 -0.1281  0.7182  0.0691
  231MOL0     C31076   6.596   3.255   5.245 -0.2817 -0.5682  0.6017
  231MOL0     C31077   6.725   3.246   5.298 -0.1455  0.5837  0.4922
  231MOL0     C31078   6.768   3.138   5.367  0.5586 -0.0450 -0.2389
  231MOL0     C31079   6.899   3.137   5.436  1.1910  0.3935 -0.2036
  231MOL0     O31080   6.964   3.253   5.449  0.6862  0.0142  0.7187
  231MOL0     C31081   7.090   3.255   5.504 -0.7010  0.3747  0.3172
  231MOL0     C31082   7.188   3.344   5.456  0.4891 -0.3450 -0.6109
  231MOL0     C31083   7.314   3.353   5.518 -0.1634 -0.3683 -0.4248
  231MOL0     C31084   7.343   3.258   5.623 -0.0511 -0.0861 -0.1449
  231MOL0     O31085   7.471   3.279   5.666  0.1377  0.6503 -0.3164
  231MOL0     C31086   7.534   3.163   5.735 -0.1576 -0.5847  0.5122
  231MOL0     C31087   7.663   3.213   5.816  0.9368 -0.2123  0.4969
  231MOL0     C31088   7.737   3.092   5.876 -0.3771 -0.2323 -0.4131
  231MOL0     C31089   7.863   3.140   5.963  0.9579 -0.1780  0.8837
  231MOL0     C31090   7.948   3.019   5.995  0.1620 -0.6179 -0.5712
  231MOL0     C31091   7.996   2.935   5.879 -1.0102 -0.0887  0.3802
  231MOL0     C31092   8.086   2.826   5.936 -0.6233 -0.2078  0.0516
  231MOL0     C31093   8.159   2.747   5.824 -0.5826 -0.4813  0.1878
  231MOL0    Cl31094   8.240   2.845   5.698  0.2051 -0.1726 -0.3315
  231MOL0     C31095   7.247   3.170   5.668  0.9603 -0.1412 -0.4481
  231MOL0     C31096   7.126   3.168   5.612 -0.7669  0.4057  0.3196
  231MOL0     O31097   6.941   3.025   5.452  0.0370  0.0562  0.3845
  231MOL0     C31098   6.687   3.031   5.376  0.6559 -0.0404  0.7548
  231MOL0     C31099   6.558   3.034   5.325 -0.5013  0.4863 -0.1657
  231MOL0     N31100   5.844   2.850   5.243 -0.8377 -0.4061 -0.1840
  231MOL0     N31101   5.719   2.802   5.255 -0.2326 -0.4446 -0.4416
  231MOL0     C31102   4.584   3.042   5.700 -0.0486 -0.6402 -0.9927
  231MOL0     C31103   4.491   2.945   5.737  0.6327  0.7001  0.4596
  231MOL0     C31104   4.109   2.700   5.826 -0.0928 -0.0511 -0.0600
  231MOL0     C31105   3.997   2.771   5.774 -0.6237  0.5717 -0.1856
  231MOL0     C31106   3.872   2.731   5.781 -0.2004 -0.0146 -0.1532
  231MOL0     C31107   3.847   2.606   5.839 -0.6394 -0.0667 -0.0529
  231MOL0     O31108   3.722   2.557   5.853 -0.8093 -0.7251 -0.2906
  231MOL0     C31109   3.624   2.649   5.893  1.0352  0.6141 -0.5071
  231MOL0     C31110   3.503   2.562   5.933 -0.2672 -0.4605 -0.5034
  231MOL0     C31111   3.507   2.520   6.085  0.4933  0.2343  0.8232
  231MOL0     C31112   3.383   2.557   6.169 -0.0314  0.2507  0.1406
  231MOL0     C31113   3.350   2.706   6.154 -1.1577 -0.2210 -1.4443
  231MOL0     C31114   3.327   2.822   6.129 -0.3243 -0.1185 -0.6135
  231MOL0     C31115   3.954   2.528   5.898 -0.1721 -0.0940  0.0424
  231MOL0     C31116   4.084   2.577   5.890 -0.0366  0.5615 -0.3022
  231MOL0     C31117   4.200   2.497   5.944  0.8993  0.0742  0.0522
  231MOL0     H31118   4.223   3.102   5.600 -0.0538 -2.7227 -0.2413
  231MOL0     H31119   4.389   3.247   5.510  4.9537  1.6628 -1.6147
  231MOL0     H31120   4.817   3.347   5.576 -0.5176  1.0566  0.3678
  231MOL0     H31121   4.810   3.212   5.698 -4.9741 -1.0505  1.5720
  231MOL0     H31122   4.823   3.220   5.397  0.1615 -0.5011 -0.9433
  231MOL0     H31123   4.756   3.072   5.475  0.2541  0.6060 -0.8042
  231MOL0     H31124   4.952   3.040   5.613 -0.6543  0.5245  0.7937
  231MOL0     H31125   5.021   3.203   5.541  0.1172  0.6613 -3.0312
  231MOL0     H31126   5.018   2.922   5.448 -1.7473  0.1424  1.0468
  231MOL0     H31127   5.003   3.066   5.331  2.5122  3.0208 -0.1397
  231MOL0     H31128   5.209   3.149   5.446 -3.9720  1.1957 -2.4528
  231MOL0     H31129   5.216   2.993   5.526  1.2394 -0.9909 -0.7253
  231MOL0     H31130   5.208   2.880   5.315 -2.1070  1.1699  1.6356
  231MOL0     H31131   5.222   3.032   5.223 -0.9822  2.2035  1.0927
  231MOL0     H31132   5.428   2.918   5.426 -0.9398  2.1062  0.7472
  231MOL0     H31133   5.439   3.069   5.343  0.1046  0.5847 -5.4818
  231MOL0     H31134   5.456   2.794   5.231  2.5375 -0.2908 -0.2441
  231MOL0     H31135   5.452   2.939   5.124 -2.6162 -0.3624  0.9202
  231MOL0     H31136   5.676   3.121   5.178  0.8918 -0.4028 -0.2564
  231MOL0     H31137   5.941   3.165   5.144  1.9295  1.4732  2.5241
  231MOL0     H31138   6.001   3.089   5.290 -0.9556  1.4680  0.6199
  231MOL0     H31139   6.070   2.890   5.156 -1.8357 -1.5985 -1.4001
  231MOL0     H31140   6.000   2.980   5.023 -2.3689 -0.8472  2.3004
  231MOL0     H31141   6.159   3.165   5.058  1.7746 -0.7272 -3.7607
  231MOL0     H31142   6.230   3.016   5.000 -1.7920  2.6372 -2.0184
  231MOL0     H31143   6.320   2.959   5.219 -0.0083 -0.7528 -0.5579
  231MOL0     H31144   6.232   3.087   5.295 -1.6318  1.6499 -1.8974
  231MOL0     H31145   6.564   3.340   5.186 -1.4697 -1.5543 -0.2410
  231MOL0     H31146   6.798   3.326   5.284 -1.6152  1.9404  0.3294
  231MOL0     H31147   7.157   3.411   5.377  0.7296 -0.6430 -0.9626
  231MOL0     H31148   7.389   3.420   5.480 -0.2212  0.2684  0.5577
  231MOL0     H31149   7.469   3.113   5.808  2.7997  0.0977  3.9484
  231MOL0     H31150   7.563   3.091   5.658  0.7572 -1.1070  1.3166
  231MOL0     H31151   7.736   3.272   5.760 -0.2371  0.8502  0.0303
  231MOL0     H31152   7.624   3.288   5.886 -0.3311 -0.8228  0.4731
  231MOL0     H31153   7.688   3.024   5.946 -1.2287  0.8036  0.0237
  231MOL0     H31154   7.771   3.038   5.787 -0.4131 -0.4165 -0.3148
  231MOL0     H31155   7.837   3.195   6.054  0.1988 -1.0337  1.2001
  231MOL0     H31156   7.908   3.206   5.888  0.2124  0.4741  0.9991
  231MOL0     H31157   7.897   2.957   6.069 -0.2083  0.2175 -0.1061
  231MOL0     H31158   8.042   3.047   6.042 -0.4256 -1.1963  0.9805
  231MOL0     H31159   7.915   2.887   5.823 -1.9869  1.2319  0.6021
  231MOL0     H31160   8.056   2.994   5.810 -1.4208 -0.6860 -0.5166
  231MOL0     H31161   8.020   2.758   5.990 -0.8873 -1.7286 -2.0934
  231MOL0     H31162   8.158   2.876   6.002 -3.6626  1.5264  2.3193
  231MOL0     H31163   8.234   2.690   5.880 -0.9628 -1.6644 -0.4608
  231MOL0     H31164   8.085   2.677   5.783 -2.3379  0.2430  1.9509
  231MOL0     H31165   7.259   3.107   5.756 -0.9188  0.9930  0.6928
  231MOL0     H31166   7.055   3.097   5.654 -2.6258  0.6716 -2.1352
  231MOL0     H31167   6.707   2.944   5.438  1.9818 -0.0264  0.3851
  231MOL0     H31168   6.490   2.952   5.344 -1.4851  1.3780  0.2087
  231MOL0     H31169   4.687   3.036   5.735 -0.0639  0.3542 -0.7329
  231MOL0     H31170   4.523   2.867   5.806  0.1891  0.6064  0.5630
  231MOL0     H31171   4.009   2.865   5.721  1.0567 -0.0181 -0.9379
  231MOL0     H31172   3.791   2.792   5.741 -0.1217 -0.1275 -0.4876
  231MOL0     H31173   3.587   2.709   5.810  0.3538 -0.9069 -1.3543
  231MOL0     H31174   3.648   2.716   5.976  0.6973  0.0773  0.0342
  231MOL0     H31175   3.500   2.466   5.882  1.4014 -0.8442  0.0521
  231MOL0     H31176   3.410   2.613   5.910 -1.1999 -1.9539 -0.1366
  231MOL0     H31177   3.596   2.560   6.134  0.3739  0.1149  1.1419
  231MOL0     H31178   3.521   2.412   6.092  1.5162  0.3205  0.3070
  231MOL0     H31179   3.296   2.502   6.133 -0.9829  3.3024 -2.8227
  231MOL0     H31180   3.407   2.538   6.273 -1.0188 -1.3152  0.1067
  231MOL0     H31181   3.307   2.922   6.097  2.7098  0.8755  0.2477
  231MOL0     H31182   3.935   2.431   5.942  0.5068  0.2437  1.1408
  231MOL0     H31183   4.170   2.405   5.995 -0.3152  1.7951  2.6835
  231MOL0     H31184   4.272   2.498   5.862 -0.4621  2.2959 -1.2285
  231MOL0     H31185   4.253   2.560   6.015  2.6634 -1.1006 -0.1614
  232MOL0     O31186   1.780   1.744   9.509  0.4878  0.0329  0.2643
  232MOL0     C31187   1.752   1.640   9.450  0.3153 -0.0122  0.5602
  232MOL0     O31188   1.818   1.526   9.449 -0.3253  0.4167  0.2132
  232MOL0     C31189   1.933   1.507   9.520 -0.4407  0.4536  0.3374
  232MOL0     C31190   2.054   1.522   9.457 -0.0296  0.3169  0.1783
  232MOL0     C31191   2.170   1.500   9.536  0.8468 -0.3764 -0.3881
  232MOL0     C31192   2.165   1.464   9.674 -0.7903 -0.6918 -0.3259
  232MOL0     O31193   2.284   1.429   9.729 -0.4055  0.3959 -0.0231
  232MOL0     C31194   2.346   1.483   9.845 -0.4760  0.4934 -0.0003
  232MOL0     C31195   2.259   1.519   9.971  1.1686  0.2871 -0.3743
  232MOL0     C31196   2.196   1.393  10.041  0.8582 -0.3891  0.0772
  232MOL0     C31197   2.303   1.337  10.143  0.1965 -0.3670  0.4324
  232MOL0     C31198   2.247   1.202  10.197  0.0186  0.2134 -0.1051
  232MOL0     C31199   2.314   1.152  10.327  0.0588 -0.2929 -0.5651
  232MOL0     C31200   2.466   1.134  10.298 -0.0573  0.4594 -0.3111
  232MOL0     C31201   2.533   1.039  10.391 -0.1323 -0.4201 -0.1996
  232MOL0     N31202   2.679   1.025  10.382  0.0528  0.3100 -0.0828
  232MOL0     C31203   2.756   1.018  10.498  0.4156 -0.5873 -0.5082
  232MOL0     C31204   2.870   0.975  10.450  1.1365  0.1689  0.2039
  232MOL0     C31205   2.982   0.965  10.541  0.3569  0.5902  0.6453
  232MOL0     C31206   3.093   0.873  10.489  0.7523  0.0032  0.6033
  232MOL0     C31207   3.207   0.861  10.598  0.5877 -0.4988 -0.1081
  232MOL0     C31208   3.324   0.963  10.578 -0.3182  0.5410  0.0777
  232MOL0     O31209   3.384   0.986  10.708  0.4777  0.6250 -0.4288
  232MOL0     C31210   3.492   0.908  10.746  0.0323  0.4540 -0.7533
  232MOL0     C31211   3.523   0.916  10.874 -0.2941 -0.3102 -0.2382
  232MOL0     C31212   3.628   0.844  10.926  1.2926 -0.0740  0.3588
  232MOL0     C31213   3.706   0.760  10.841  0.4809 -0.3010 -0.2890
  232MOL0     C31214   3.817   0.683  10.900 -0.5217 -1.0676  0.3716
  232MOL0     O31215   3.884   0.582  10.826  0.2539 -0.6034 -0.8019
  232MOL0     C31216   4.019   0.562  10.854  0.3671  0.3309  0.2665
  232MOL0     C31217   4.119   0.556  10.761 -0.0858  0.5651  0.2678
  232MOL0     C31218   4.250   0.508  10.790  0.1116 -0.8495  0.3603
  232MOL0     C31219   4.283   0.485  10.923 -0.0217  0.5019  0.0870
  232MOL0     O31220   4.414   0.451  10.953  0.4410 -0.6063 -0.3744
  232MOL0     C31221   4.447   0.311  10.949 -0.1881  0.3658  0.3536
  232MOL0     C31222   4.587   0.268  10.889  0.2270 -0.1384 -0.2008
  232MOL0     C31223   4.628   0.352  10.766  0.6018 -0.0429 -0.3201
  232MOL0     C31224   4.766   0.315  10.717  1.0251  0.3077  0.0570
  232MOL0     C31225   4.779   0.345  10.569  0.0098  0.5679  0.0473
  232MOL0     C31226   4.925   0.316  10.516  0.4046 -0.4862 -0.2880
  232MOL0     C31227   4.935   0.366  10.364 -0.1799  0.3601 -1.2660
  232MOL0     C31228   5.082   0.339  10.315 -0.2250 -0.7960 -0.2271
  232MOL0    Cl31229   5.203   0.436  10.412 -0.4909 -0.4238 -0.5493
  232MOL0     C31230   4.186   0.481  11.023 -0.0769 -0.4641  0.3929
  232MOL0     C31231   4.052   0.523  10.988  0.7628 -0.1133 -0.4632
  232MOL0     O31232   3.849   0.708  11.014  0.5268 -0.3054 -0.2253
  232MOL0     C31233   3.676   0.749  10.706 -0.3291  0.3446 -0.8026
  232MOL0     C31234   3.569   0.819  10.664  0.5776 -0.8188  1.6695
  232MOL0     N31235   2.865   0.948  10.315 -1.2475 -0.4025 -0.0754
  232MOL0     N31236   2.744   0.972  10.277 -0.8174 -0.4751 -0.1478
  232MOL0     C31237   2.037   1.457   9.734 -0.7638  0.6378 -0.0435
  232MOL0     C31238   1.931   1.465   9.657 -0.0174 -0.0811  0.7794
  232MOL0     C31239   1.635   1.632   9.378  0.3794  0.9624  0.4867
  232MOL0     C31240   1.648   1.608   9.238  0.6551 -0.3326 -0.0194
  232MOL0     C31241   1.531   1.592   9.155 -0.6254 -0.0943 -0.7611
  232MOL0     C31242   1.404   1.590   9.211 -0.6651  0.1440  0.0472
  232MOL0     O31243   1.284   1.574   9.138 -0.4467  0.1375 -0.3448
  232MOL0     C31244   1.283   1.595   8.997 -0.4729 -0.4525  0.2064
  232MOL0     C31245   1.265   1.741   8.955 -0.5805 -0.0344  0.7438
  232MOL0     C31246   1.123   1.775   8.943  0.1914  0.7099  0.5107
  232MOL0     C31247   1.100   1.922   8.883  0.6935  0.1390  0.1000
  232MOL0     C31248   0.964   1.953   8.852 -0.5845  0.2664 -0.5343
  232MOL0     C31249   0.861   2.000   8.811  0.2926  0.0542 -0.1937
  232MOL0     C31250   1.398   1.622   9.344 -0.5820  0.1211 -0.0959
  232MOL0     C31251   1.504   1.636   9.434 -0.7001 -0.7305  0.0468
  232MOL0     C31252   1.479   1.664   9.580  0.0635  1.0022  0.2739
  232MOL0     H31253   2.072   1.550   9.354  0.9804 -2.9074 -0.6201
  232MOL0     H31254   2.272   1.515   9.503  2.0202 -0.4544  2.8767
  232MOL0     H31255   2.431   1.425   9.879 -0.0654  0.7371 -0.5942
  232MOL0     H31256   2.385   1.582   9.818 -1.5725  1.5892  2.2014
  232MOL0     H31257   2.184   1.593   9.939  1.4771  1.2423  1.0460
  232MOL0     H31258   2.321   1.567  10.047 -0.8197  0.0561  1.4774
  232MOL0     H31259   2.171   1.313   9.971 -0.5886 -1.3858  1.6584
  232MOL0     H31260   2.106   1.413  10.099  1.2134  2.4898 -0.2258
  232MOL0     H31261   2.405   1.330  10.104  0.9123 -2.0686  2.4175
  232MOL0     H31262   2.308   1.407  10.227  1.0929  0.9297 -0.6592
  232MOL0     H31263   2.142   1.212  10.228 -0.2579 -4.6799  1.4036
  232MOL0     H31264   2.255   1.130  10.115 -1.9774 -0.9146  0.6149
  232MOL0     H31265   2.304   1.219  10.413  0.2332 -3.1137  1.8251
  232MOL0     H31266   2.274   1.056  10.362 -1.5039  0.4451 -0.2318
  232MOL0     H31267   2.524   1.226  10.311  1.4782 -0.9010  6.3238
  232MOL0     H31268   2.478   1.094  10.197  0.9192 -0.7730  0.2588
  232MOL0     H31269   2.507   1.067  10.493 -0.2651  2.7880 -1.0107
  232MOL0     H31270   2.482   0.942  10.390 -3.1859  1.0652  0.1603
  232MOL0     H31271   2.728   1.048  10.598 -0.1327 -1.5728 -0.3580
  232MOL0     H31272   3.017   1.067  10.562  0.4756  0.5887  0.4537
  232MOL0     H31273   2.940   0.924  10.634  0.0202 -4.2973 -1.3797
  232MOL0     H31274   3.055   0.774  10.461  0.9279  0.9564 -3.7592
  232MOL0     H31275   3.136   0.905  10.393  0.1579 -1.9449 -0.3509
  232MOL0     H31276   3.241   0.757  10.597  0.3946 -0.6469  2.3465
  232MOL0     H31277   3.150   0.866  10.691 -1.1224 -2.6595 -0.9285
  232MOL0     H31278   3.282   1.055  10.536 -2.9864 -0.5203  0.2002
  232MOL0     H31279   3.396   0.927  10.504  1.9372 -2.2831  3.3500
  232MOL0     H31280   3.464   0.982  10.936  0.8473 -1.2936  1.9868
  232MOL0     H31281   3.647   0.858  11.032  0.3700  0.7760  0.4213
  232MOL0     H31282   4.102   0.589  10.659 -0.8491  1.4635  0.6705
  232MOL0     H31283   4.319   0.519  10.708 -0.6357  3.5644  0.0427
  232MOL0     H31284   4.432   0.257  11.043  1.8426 -0.6424  0.1670
  232MOL0     H31285   4.382   0.264  10.874  3.8141  1.4635 -4.3206
  232MOL0     H31286   4.665   0.288  10.964  0.0414 -1.6993  0.4439
  232MOL0     H31287   4.582   0.162  10.862 -1.6333  0.1659 -1.2088
  232MOL0     H31288   4.547   0.330  10.696 -1.8328  1.0867  1.9277
  232MOL0     H31289   4.627   0.461  10.779  0.7959 -0.3642  3.4593
  232MOL0     H31290   4.764   0.207  10.730  0.4953  0.5476  2.4342
  232MOL0     H31291   4.851   0.357  10.771  0.3403 -0.6578  1.9640
  232MOL0     H31292   4.763   0.452  10.554 -3.3383  0.2480  0.5515
  232MOL0     H31293   4.704   0.292  10.510 -1.7085  0.2395  2.3683
  232MOL0     H31294   4.998   0.372  10.575 -0.0034  0.4225 -0.6189
  232MOL0     H31295   4.952   0.212  10.533  1.5806  0.1022  1.8476
  232MOL0     H31296   4.903   0.470  10.352 -1.6269 -0.1850 -2.4251
  232MOL0     H31297   4.863   0.311  10.303 -0.2120 -0.7931 -0.2179
  232MOL0     H31298   5.090   0.230  10.324  0.2302 -0.6472  1.4576
  232MOL0     H31299   5.081   0.364  10.208  1.8307 -0.3851 -0.1762
  232MOL0     H31300   4.210   0.465  11.128 -2.8918  0.3791  1.2504
  232MOL0     H31301   3.985   0.521  11.073  0.1745  0.9205 -0.8896
  232MOL0     H31302   3.734   0.679  10.646  0.8515  1.1984 -0.6934
  232MOL0     H31303   3.543   0.815  10.559  0.3764  2.2425  1.5171
  232MOL0     H31304   2.032   1.420   9.836  0.8171 -0.8241 -0.4671
  232MOL0     H31305   1.833   1.463   9.703  0.0582 -2.6040  0.9507
  232MOL0     H31306   1.747   1.583   9.203  1.1029 -0.0986  1.0422
  232MOL0     H31307   1.561   1.588   9.051  3.2499  1.9077  0.0943
  232MOL0     H31308   1.199   1.538   8.957 -0.5032 -0.5397  0.3916
  232MOL0     H31309   1.374   1.557   8.950  0.1398  1.2569 -0.0579
  232MOL0     H31310   1.308   1.753   8.855 -1.7105  1.0298  0.3586
  232MOL0     H31311   1.322   1.804   9.025 -0.0268 -0.1628  0.4165
  232MOL0     H31312   1.068   1.765   9.037  0.7763 -0.3650  0.7569
  232MOL0     H31313   1.078   1.712   8.864 -1.0450  1.7275  0.3694
  232MOL0     H31314   1.138   1.993   8.957  1.4264 -2.1613  2.0860
  232MOL0     H31315   1.159   1.941   8.793  0.5353  1.4710  0.2636
  232MOL0     H31316   0.767   2.036   8.775  0.0567 -1.9347 -1.7216
  232MOL0     H31317   1.299   1.629   9.388 -0.8298  2.9965 -0.8982
  232MOL0     H31318   1.389   1.609   9.608 -1.3740  1.5841 -2.7855
  232MOL0     H31319   1.552   1.613   9.643  1.5851  1.7820 -0.7986
  232MOL0     H31320   1.476   1.766   9.619 -0.1056 -0.4861  4.7155
  233MOL0     O31321   8.881   3.305   9.446  0.6945 -0.4207  0.2618
  233MOL0     C31322   8.784   3.249   9.491 -0.1214 -0.7135 -0.1731
  233MOL0     O31323   8.717   3.148   9.431  0.3818  0.3244 -0.2464
  233MOL0     C31324   8.754   3.112   9.305  0.5280 -1.2699  0.1068
  233MOL0     C31325   8.878   3.048   9.290  0.2765 -0.2871 -1.2349
  233MOL0     C31326   8.911   3.010   9.163 -0.7431  0.5073 -0.0901
  233MOL0     C31327   8.831   3.034   9.049  0.3205  0.2797 -0.6466
  233MOL0     O31328   8.885   3.017   8.923 -0.2018 -0.3292  0.4801
  233MOL0     C31329   8.843   3.111   8.821  0.0057  0.9244 -0.2038
  233MOL0     C31330   8.948   3.104   8.705 -0.1471 -0.1681  1.0791
  233MOL0     C31331   9.093   3.110   8.756  0.5445  1.3010 -0.0934
  233MOL0     C31332   9.194   3.161   8.656 -1.0084 -0.0461  0.6096
  233MOL0     C31333   9.341   3.137   8.705  0.6357  0.1286  0.0230
  233MOL0     C31334   9.464   3.185   8.623  0.6108  0.8010  0.0405
  233MOL0     C31335   9.458   3.332   8.572  0.5431 -0.0395  0.2779
  233MOL0     C31336   9.598   3.371   8.518  0.4095 -0.1973 -0.3922
  233MOL0     N31337   9.701   3.378   8.625  0.0565  0.1699 -0.6092
  233MOL0     C31338   9.699   3.477   8.714  0.8673 -0.3183  0.4896
  233MOL0     C31339   9.795   3.436   8.801  0.0484 -0.4728  0.6671
  233MOL0     C31340   9.826   3.515   8.926  0.5115  0.1078 -0.0708
  233MOL0     C31341   9.706   3.571   9.015 -0.3752  0.2551 -0.3145
  233MOL0     C31342   9.629   3.452   9.078 -0.5671 -0.2675  0.1872
  233MOL0     C31343   9.511   3.512   9.149 -0.2121  0.5070 -0.9254
  233MOL0     O31344   9.544   3.593   9.257  0.8743  0.5071  0.6228
  233MOL0     C31345   9.448   3.605   9.356  0.4386 -0.3338 -0.2945
  233MOL0     C31346   9.312   3.553   9.360  0.0335 -0.2335  0.4169
  233MOL0     C31347   9.215   3.600   9.453 -0.5046  0.5532  0.6987
  233MOL0     C31348   9.261   3.688   9.552 -0.1602 -0.4133  0.0650
  233MOL0     C31349   9.177   3.709   9.677  0.5528  0.1663 -0.6308
  233MOL0     O31350   9.222   3.799   9.772  0.5646 -0.4267 -0.4266
  233MOL0     C31351   9.133   3.842   9.867  0.7590 -0.2791 -0.2871
  233MOL0     C31352   9.087   3.751   9.964 -0.3084  0.5453  0.4696
  233MOL0     C31353   9.002   3.785  10.065 -0.3905  0.3669  0.3251
  233MOL0     C31354   8.954   3.918  10.074 -0.4152 -0.4149 -0.2941
  233MOL0     O31355   8.875   3.968  10.176  0.2478  0.3083 -0.7142
  233MOL0     C31356   8.919   3.968  10.314 -0.2568  0.0446  0.0985
  233MOL0     C31357   8.799   3.921  10.401 -0.3683 -0.0634 -0.0920
  233MOL0     C31358   8.748   3.778  10.374  0.0661  0.1710  0.0307
  233MOL0     C31359   8.626   3.755  10.457 -0.1712 -0.3187 -0.1013
  233MOL0     C31360   8.575   3.611  10.422 -0.5351 -0.0202 -0.1948
  233MOL0     C31361   8.442   3.573  10.495 -0.1927 -0.2707 -0.6318
  233MOL0     C31362   8.403   3.427  10.481 -0.8050  1.0397 -0.5365
  233MOL0     C31363   8.260   3.397  10.531 -0.0329 -0.5266  0.1190
  233MOL0    Cl31364   8.228   3.221  10.534  0.7010 -0.2410 -0.0118
  233MOL0     C31365   8.995   4.009   9.974 -1.1600  0.6697  0.6489
  233MOL0     C31366   9.080   3.968   9.871  0.3562  0.1166  0.4837
  233MOL0     O31367   9.072   3.652   9.690 -0.9538  0.3776 -0.7817
  233MOL0     C31368   9.384   3.750   9.543 -0.5138  0.3606 -0.3712
  233MOL0     C31369   9.473   3.699   9.445 -0.2997 -0.0978 -0.3815
  233MOL0     N31370   9.854   3.319   8.760 -0.2804  0.3223  0.1283
  233MOL0     N31371   9.795   3.281   8.647  0.3904 -0.0311  0.2518
  233MOL0     C31372   8.709   3.103   9.065  0.8725 -0.2545 -0.7483
  233MOL0     C31373   8.673   3.148   9.196 -1.0992  0.5713 -0.0177
  233MOL0     C31374   8.737   3.299   9.621 -0.2553 -0.7024  0.0017
  233MOL0     C31375   8.800   3.414   9.678 -0.3326 -0.0395  0.0759
  233MOL0     C31376   8.758   3.469   9.799 -1.1980 -0.9937  0.6540
  233MOL0     C31377   8.667   3.405   9.877 -0.3758  0.0081  0.6558
  233MOL0     O31378   8.636   3.455   9.997 -0.0994 -0.7148  0.2465
  233MOL0     C31379   8.637   3.366  10.113 -0.0850 -0.0786 -0.7015
  233MOL0     C31380   8.765   3.370  10.190  0.4975 -0.0565  0.2929
  233MOL0     C31381   8.864   3.264  10.139  0.4256 -0.2312  1.1988
  233MOL0     C31382   8.992   3.312  10.192 -0.3395 -0.1776  0.3911
  233MOL0     C31383   9.106   3.226  10.165 -0.2896 -0.6107 -0.5940
  233MOL0     C31384   9.205   3.164  10.149  0.4408  0.0996  0.4748
  233MOL0     C31385   8.609   3.281   9.826  0.1638 -0.3850 -0.4731
  233MOL0     C31386   8.638   3.236   9.697 -0.3947  0.0513  1.3976
  233MOL0     C31387   8.556   3.129   9.644  0.7972 -0.4068 -0.8131
  233MOL0     H31388   8.932   3.030   9.382 -1.2481 -3.0109 -0.7662
  233MOL0     H31389   9.008   2.962   9.157  0.3842  2.1596  2.7026
  233MOL0     H31390   8.753   3.078   8.768  1.1984 -1.3498 -0.9389
  233MOL0     H31391   8.840   3.211   8.866 -2.2769  0.3098  1.2264
  233MOL0     H31392   8.939   3.181   8.628  1.8795  0.4321  1.3913
  233MOL0     H31393   8.933   3.005   8.662 -4.8962  1.8779 -2.9570
  233MOL0     H31394   9.119   3.005   8.774  1.1611  1.2630 -1.1398
  233MOL0     H31395   9.104   3.169   8.847  0.5222  3.5907 -1.5108
  233MOL0     H31396   9.168   3.114   8.561 -0.2073 -0.6433  0.6697
  233MOL0     H31397   9.170   3.267   8.643 -1.2314 -0.3371 -1.7498
  233MOL0     H31398   9.344   3.202   8.793 -2.0926  2.5663 -1.4701
  233MOL0     H31399   9.342   3.033   8.737  0.2291  0.7727  2.3560
  233MOL0     H31400   9.550   3.170   8.689  1.3358  0.8094 -0.8919
  233MOL0     H31401   9.479   3.119   8.538 -1.5240  1.2683 -0.7494
  233MOL0     H31402   9.428   3.403   8.650 -0.3563  0.7059 -0.7287
  233MOL0     H31403   9.375   3.343   8.502 -2.1953  1.0386  3.4351
  233MOL0     H31404   9.626   3.285   8.455 -0.8008 -1.7146  1.0413
  233MOL0     H31405   9.599   3.460   8.454  0.8428  1.7666  2.2023
  233MOL0     H31406   9.635   3.562   8.732  1.9438  0.7290 -0.4932
  233MOL0     H31407   9.882   3.448   8.993  1.8512  1.2968  0.0294
  233MOL0     H31408   9.893   3.594   8.892 -1.1877  0.4788 -2.8336
  233MOL0     H31409   9.756   3.628   9.094  0.0932 -2.5055  1.5137
  233MOL0     H31410   9.641   3.644   8.965 -0.7132 -1.1021 -1.9755
  233MOL0     H31411   9.682   3.384   9.145 -0.2761  1.2643  1.5680
  233MOL0     H31412   9.589   3.396   8.993 -1.3546  0.3695  0.1246
  233MOL0     H31413   9.454   3.425   9.180  0.3183  0.8533  1.1497
  233MOL0     H31414   9.447   3.574   9.086  0.5297  3.2743  0.8664
  233MOL0     H31415   9.268   3.503   9.274  0.9785 -0.4088  0.0219
  233MOL0     H31416   9.116   3.556   9.457 -2.0399  3.5045 -1.1278
  233MOL0     H31417   9.121   3.648   9.960  0.8179  0.8643  1.1211
  233MOL0     H31418   8.979   3.707  10.137 -1.3116  0.5834  0.2725
  233MOL0     H31419   8.998   3.892  10.322 -0.4211 -0.5410 -2.7463
  233MOL0     H31420   8.954   4.062  10.357  0.2463  0.0331 -0.2722
  233MOL0     H31421   8.826   3.937  10.505  0.7868 -1.0255 -0.2153
  233MOL0     H31422   8.716   3.991  10.389 -1.3799 -0.5043  3.3325
  233MOL0     H31423   8.726   3.771  10.267  3.7226  1.6900 -0.9879
  233MOL0     H31424   8.825   3.702  10.389  2.0220  1.7445 -1.3218
  233MOL0     H31425   8.545   3.822  10.429 -1.5390 -2.2027 -0.7777
  233MOL0     H31426   8.653   3.777  10.561  0.0612  1.7927 -0.5677
  233MOL0     H31427   8.651   3.538  10.451 -0.4993  0.0748 -0.0455
  233MOL0     H31428   8.552   3.613  10.316  1.8926  1.8658 -0.7724
  233MOL0     H31429   8.481   3.598  10.593  0.1525  1.4709 -1.1838
  233MOL0     H31430   8.357   3.640  10.476  0.8211  0.9075 -1.1046
  233MOL0     H31431   8.462   3.354  10.537 -6.3533 -3.6650  0.0029
  233MOL0     H31432   8.411   3.409  10.373  3.1133 -1.1521 -0.0869
  233MOL0     H31433   8.262   3.435  10.633 -1.4840  0.5025 -0.2033
  233MOL0     H31434   8.182   3.447  10.472  0.0118 -0.2333  0.3119
  233MOL0     H31435   8.964   4.113   9.969 -1.2087  0.6464  0.4258
  233MOL0     H31436   9.115   4.034   9.793 -0.4894 -1.4510 -1.3014
  233MOL0     H31437   9.411   3.828   9.612 -0.6960 -0.0999  0.2291
  233MOL0     H31438   9.567   3.753   9.444  0.9633 -2.0721  2.0180
  233MOL0     H31439   8.629   3.132   8.997 -1.5095 -0.0191  1.9103
  233MOL0     H31440   8.586   3.211   9.214 -1.3264 -0.1512  1.5314
  233MOL0     H31441   8.888   3.454   9.628  1.0839 -1.3206  1.4470
  233MOL0     H31442   8.803   3.564   9.825 -0.0693 -1.1262 -0.6729
  233MOL0     H31443   8.603   3.267  10.083 -0.6791  0.8872 -3.5764
  233MOL0     H31444   8.561   3.414  10.176  1.8532  2.5926 -0.1931
  233MOL0     H31445   8.734   3.335  10.289 -3.5875  0.8436 -0.4994
  233MOL0     H31446   8.821   3.464  10.194  1.0913 -0.4274  1.1891
  233MOL0     H31447   8.873   3.273  10.030 -0.8398  3.7028  1.2619
  233MOL0     H31448   8.841   3.165  10.179 -0.0630  0.2575  2.1587
  233MOL0     H31449   9.019   3.406  10.143  1.7174 -0.5539  0.7327
  233MOL0     H31450   8.984   3.325  10.301  1.4070  4.2528  0.1923
  233MOL0     H31451   9.296   3.109  10.136  0.5738 -0.0753  1.9222
  233MOL0     H31452   8.530   3.230   9.880  1.0867 -0.2802  1.0296
  233MOL0     H31453   8.615   3.037   9.644  0.6867 -0.6001  2.8772
  233MOL0     H31454   8.463   3.106   9.698  1.6828  1.5835  1.7361
  233MOL0     H31455   8.511   3.145   9.545 -0.1481 -0.7674 -0.4544
  234MOL0     O31456   7.258   0.099   7.778 -0.0466 -0.2858 -0.5209
  234MOL0     C31457   7.191   0.059   7.684 -0.3504 -1.2965 -0.0953
  234MOL0     O31458   7.238  -0.000   7.569 -0.0841 -0.4113  0.2842
  234MOL0     C31459   7.375  -0.026   7.575 -0.0926  0.4178 -0.2227
  234MOL0     C31460   7.413  -0.154   7.606  0.3608  0.0319  0.4204
  234MOL0     C31461   7.545  -0.186   7.644  0.2087 -0.2352  0.2802
  234MOL0     C31462   7.652  -0.088   7.657  0.8865  0.8730 -0.0164
  234MOL0     O31463   7.786  -0.106   7.697  0.0731 -0.5023  0.2066
  234MOL0     C31464   7.832  -0.241   7.700 -0.5306 -1.1291  0.4786
  234MOL0     C31465   7.981  -0.251   7.755 -0.5608  0.3671  0.2328
  234MOL0     C31466   8.028  -0.398   7.786 -0.3113  0.4093 -0.2695
  234MOL0     C31467   8.123  -0.447   7.682  0.0193  0.1029 -0.7470
  234MOL0     C31468   8.204  -0.570   7.705 -0.2606 -1.1337 -0.1333
  234MOL0     C31469   8.257  -0.622   7.563  0.0318  0.0445 -0.5767
  234MOL0     C31470   8.329  -0.757   7.576  0.3126 -0.5101 -0.3878
  234MOL0     C31471   8.422  -0.794   7.465 -0.2206  0.4704  0.3874
  234MOL0     N31472   8.468  -0.934   7.478  0.1107 -0.3573  0.1457
  234MOL0     C31473   8.392  -1.045   7.442  0.2433  0.0771  0.7668
  234MOL0     C31474   8.434  -1.151   7.516 -0.3962 -0.2998 -0.2040
  234MOL0     C31475   8.373  -1.279   7.541 -0.7352 -0.4818  0.4095
  234MOL0     C31476   8.257  -1.256   7.647  0.1918  0.3061 -0.3250
  234MOL0     C31477   8.121  -1.216   7.575  0.0919  0.6192  0.7068
  234MOL0     C31478   8.032  -1.150   7.666 -0.1610 -0.3734 -0.4217
  234MOL0     O31479   8.076  -1.017   7.667  0.5009 -0.2188 -0.9817
  234MOL0     C31480   7.973  -0.927   7.687  0.7335 -0.3706 -0.1649
  234MOL0     C31481   7.872  -0.946   7.784  0.6648 -1.2574  0.1039
  234MOL0     C31482   7.770  -0.855   7.804  0.0942 -0.0621  0.3304
  234MOL0     C31483   7.755  -0.743   7.722  0.5185  0.3339  0.4530
  234MOL0     C31484   7.636  -0.652   7.735 -0.4021  0.2078 -0.3311
  234MOL0     O31485   7.546  -0.685   7.827  0.7270 -0.1945 -0.6818
  234MOL0     C31486   7.432  -0.609   7.840  0.7616  1.5924  0.3211
  234MOL0     C31487   7.340  -0.610   7.732 -0.2843  0.4596 -0.2435
  234MOL0     C31488   7.224  -0.533   7.741 -0.7729 -0.0174 -0.0710
  234MOL0     C31489   7.185  -0.464   7.860 -0.0909 -0.7165  0.3746
  234MOL0     O31490   7.077  -0.382   7.880 -0.1352  0.3082 -0.4559
  234MOL0     C31491   6.967  -0.419   7.795 -0.7780 -1.1024  0.2909
  234MOL0     C31492   6.974  -0.318   7.681 -0.3962  0.0733  0.1433
  234MOL0     C31493   6.842  -0.313   7.606  0.6081 -0.2350 -0.6030
  234MOL0     C31494   6.728  -0.241   7.675 -0.3876 -0.1007  0.0205
  234MOL0     C31495   6.594  -0.221   7.594 -0.0241  0.1729  0.8066
  234MOL0     C31496   6.521  -0.352   7.573 -0.4869  0.5782  0.4975
  234MOL0     C31497   6.459  -0.408   7.700  0.0289 -0.0864 -0.3375
  234MOL0     C31498   6.322  -0.472   7.692  0.1495  0.4492 -0.1833
  234MOL0    Cl31499   6.208  -0.347   7.661 -0.0029 -0.1478 -0.3055
  234MOL0     C31500   7.271  -0.473   7.965 -1.1226  0.1605  0.8679
  234MOL0     C31501   7.395  -0.539   7.953 -1.1635  0.4931 -0.6527
  234MOL0     O31502   7.637  -0.549   7.668  0.2184  0.1652 -0.8066
  234MOL0     C31503   7.846  -0.730   7.623 -0.9711  0.1496 -0.3217
  234MOL0     C31504   7.961  -0.816   7.602  0.1614 -0.0029 -0.3098
  234MOL0     N31505   8.545  -1.100   7.589 -0.6447 -0.6927 -0.1859
  234MOL0     N31506   8.567  -0.971   7.565  0.8200 -0.1354  0.0727
  234MOL0     C31507   7.617   0.038   7.613  0.6014  0.4026  0.2605
  234MOL0     C31508   7.478   0.071   7.576 -0.0087 -0.2056  0.8079
  234MOL0     C31509   7.049   0.088   7.690  0.2306 -0.5102 -0.0692
  234MOL0     C31510   6.974   0.084   7.566 -0.7007  0.0406 -0.3275
  234MOL0     C31511   6.835   0.114   7.554 -0.7923  0.2669 -0.0367
  234MOL0     C31512   6.771   0.154   7.669  0.1461 -0.9375 -0.0882
  234MOL0     O31513   6.636   0.200   7.674 -0.2627  0.6661  0.1214
  234MOL0     C31514   6.552   0.170   7.562 -0.3342 -0.3160  0.7607
  234MOL0     C31515   6.419   0.125   7.618 -0.2224  0.4380  0.5730
  234MOL0     C31516   6.309   0.106   7.516 -1.0867  0.3840  0.8629
  234MOL0     C31517   6.233  -0.028   7.546 -0.5072  0.8280  0.0846
  234MOL0     C31518   6.107  -0.036   7.476 -1.0051  0.2724 -0.2452
  234MOL0     C31519   6.010  -0.072   7.407  0.3184  0.9167  0.1354
  234MOL0     C31520   6.837   0.141   7.792  0.3505  0.3096  0.4055
  234MOL0     C31521   6.973   0.099   7.808  0.4597 -0.4038 -1.2275
  234MOL0     C31522   7.028   0.100   7.946 -0.5806 -0.2923  0.4352
  234MOL0     H31523   7.332  -0.226   7.602 -0.6353  1.1606 -0.4308
  234MOL0     H31524   7.564  -0.289   7.670 -3.7078 -0.5753  2.4502
  234MOL0     H31525   7.760  -0.297   7.760  1.8595 -3.9664  0.9125
  234MOL0     H31526   7.830  -0.266   7.594  0.3936  2.5527 -0.5607
  234MOL0     H31527   7.986  -0.193   7.847 -2.6234  1.4486 -0.2633
  234MOL0     H31528   8.048  -0.192   7.692  0.0810 -0.2992  0.2727
  234MOL0     H31529   7.944  -0.469   7.780 -0.5427  0.7656 -1.7351
  234MOL0     H31530   8.080  -0.409   7.882  4.0132 -2.5056 -2.5960
  234MOL0     H31531   8.069  -0.472   7.591  0.6920 -0.0495 -1.1153
  234MOL0     H31532   8.189  -0.361   7.664  2.0515 -1.2508 -0.1754
  234MOL0     H31533   8.282  -0.564   7.782 -1.9910  0.7750  1.6073
  234MOL0     H31534   8.133  -0.643   7.747 -2.2906 -0.0986 -1.5936
  234MOL0     H31535   8.169  -0.639   7.501  0.2612  1.4830 -1.3563
  234MOL0     H31536   8.329  -0.552   7.520  2.8902 -1.5863  1.2415
  234MOL0     H31537   8.258  -0.839   7.584 -0.4423  0.0214 -1.4653
  234MOL0     H31538   8.378  -0.757   7.674  0.2373  1.2824 -0.3088
  234MOL0     H31539   8.388  -0.781   7.362  1.5476  1.2874 -0.1303
  234MOL0     H31540   8.512  -0.733   7.479  0.1822  0.0133 -0.1465
  234MOL0     H31541   8.330  -1.052   7.353 -0.8020  2.2116  1.2884
  234MOL0     H31542   8.334  -1.325   7.450  0.5021  2.5223 -1.8194
  234MOL0     H31543   8.439  -1.356   7.580 -1.2298 -0.4674  1.2965
  234MOL0     H31544   8.233  -1.346   7.705 -0.3959  1.1481  0.7919
  234MOL0     H31545   8.287  -1.176   7.716  0.7012  0.8268 -1.1353
  234MOL0     H31546   8.061  -1.300   7.540 -1.5463  2.1016 -0.2118
  234MOL0     H31547   8.145  -1.152   7.489 -0.4459  0.3094  0.3237
  234MOL0     H31548   8.045  -1.185   7.769 -2.0481  0.6156  0.1992
  234MOL0     H31549   7.929  -1.174   7.636  0.1174 -1.7425 -0.3495
  234MOL0     H31550   7.860  -1.042   7.832  0.2581 -1.7878 -1.0352
  234MOL0     H31551   7.693  -0.868   7.878  1.2036  1.2325  1.7808
  234MOL0     H31552   7.382  -0.674   7.656  2.6558  1.2643  0.5788
  234MOL0     H31553   7.172  -0.534   7.645  0.7556 -0.8461 -0.9479
  234MOL0     H31554   6.976  -0.523   7.760  2.5241 -0.1318 -2.2298
  234MOL0     H31555   6.880  -0.408   7.861  0.8680 -0.7647  2.5351
  234MOL0     H31556   6.993  -0.216   7.714  0.3591 -0.0754  0.1949
  234MOL0     H31557   7.055  -0.344   7.611 -1.4254 -0.3349 -0.9268
  234MOL0     H31558   6.853  -0.275   7.504  1.4449  0.8383 -0.1431
  234MOL0     H31559   6.819  -0.419   7.591 -0.6708 -0.2189  0.9950
  234MOL0     H31560   6.754  -0.139   7.704 -1.3558  0.3234 -0.5570
  234MOL0     H31561   6.704  -0.288   7.771 -1.1537  2.0376  0.9314
  234MOL0     H31562   6.607  -0.172   7.497 -2.2524 -1.1020 -0.2344
  234MOL0     H31563   6.527  -0.158   7.653  1.5964 -0.4862  3.5374
  234MOL0     H31564   6.448  -0.329   7.494  1.0691  0.9415 -0.8743
  234MOL0     H31565   6.587  -0.427   7.528 -1.0623  0.6304 -0.4642
  234MOL0     H31566   6.437  -0.326   7.769 -0.5798 -1.5217  1.2480
  234MOL0     H31567   6.514  -0.495   7.738 -0.7922 -0.7957 -0.7251
  234MOL0     H31568   6.331  -0.551   7.617 -0.0151  1.7536 -1.6409
  234MOL0     H31569   6.299  -0.519   7.788 -2.0776 -0.9597 -1.3264
  234MOL0     H31570   7.254  -0.427   8.062 -0.9974 -0.4841  1.2052
  234MOL0     H31571   7.453  -0.537   8.045  0.6024 -2.0571 -1.6051
  234MOL0     H31572   7.841  -0.646   7.554 -0.1821  1.9807  1.7360
  234MOL0     H31573   8.044  -0.791   7.537  0.4559 -2.9077 -1.1848
  234MOL0     H31574   7.687   0.117   7.589 -1.2376  1.3205 -2.6543
  234MOL0     H31575   7.459   0.173   7.546  2.3986 -0.4624 -2.0406
  234MOL0     H31576   7.030   0.056   7.477 -1.3802  0.5212 -0.9132
  234MOL0     H31577   6.782   0.112   7.459 -1.3317 -1.7461  0.2593
  234MOL0     H31578   6.587   0.083   7.506 -2.8138  0.1223 -1.6473
  234MOL0     H31579   6.533   0.250   7.489 -2.5127 -0.5203  1.0327
  234MOL0     H31580   6.385   0.212   7.675 -2.1491 -1.1669  2.0134
  234MOL0     H31581   6.426   0.043   7.690 -1.6832  0.4144  0.7172
  234MOL0     H31582   6.353   0.102   7.415 -1.4749 -1.4845  0.7298
  234MOL0     H31583   6.247   0.195   7.524 -3.1410 -0.8355 -0.6060
  234MOL0     H31584   6.299  -0.106   7.507 -2.0414 -0.9861  0.9314
  234MOL0     H31585   6.228  -0.038   7.655 -1.4572  2.2220  0.1890
  234MOL0     H31586   5.932  -0.122   7.353 -0.2077  2.4765 -0.6194
  234MOL0     H31587   6.767   0.167   7.871 -0.5829 -0.3194 -0.2085
  234MOL0     H31588   7.083   0.193   7.956  0.7607 -0.6608 -2.5083
  234MOL0     H31589   6.954   0.098   8.027 -0.0040 -2.1014  0.9771
  234MOL0     H31590   7.105   0.024   7.959 -0.2540 -0.2569 -1.1186
  235MOL0     O31591   4.877   9.701  10.063  0.2509  0.0146  0.3091
  235MOL0     C31592   4.861   9.711   9.939  0.3814  0.2291 -0.4050
  235MOL0     O31593   4.950   9.663   9.847  0.0524 -0.7845 -0.0966
  235MOL0     C31594   5.072   9.627   9.906 -0.5941  0.1455  0.5149
  235MOL0     C31595   5.111   9.490   9.908 -0.3334  0.1746 -0.4216
  235MOL0     C31596   5.235   9.437   9.950  0.7283 -0.0900  0.2282
  235MOL0     C31597   5.327   9.536   9.980 -0.3010 -0.5042  0.3106
  235MOL0     O31598   5.447   9.485  10.031 -0.7716 -0.5456  0.4742
  235MOL0     C31599   5.515   9.582  10.118 -0.0376  0.8460  0.4361
  235MOL0     C31600   5.642   9.512  10.178  0.9498  0.1713  0.5061
  235MOL0     C31601   5.733   9.605  10.272 -0.2715  0.1125  0.2763
  235MOL0     C31602   5.874   9.539  10.304 -0.9367 -0.4336  0.5408
  235MOL0     C31603   5.954   9.635  10.389 -0.1686  0.6712  0.1678
  235MOL0     C31604   6.093   9.576  10.414  0.2996  0.8135 -0.8958
  235MOL0     C31605   6.188   9.679  10.480 -0.3914  0.6565  0.0044
  235MOL0     C31606   6.326   9.611  10.513 -0.4904 -0.1237 -0.0627
  235MOL0     N31607   6.430   9.700  10.559 -0.4623  0.3209  0.1346
  235MOL0     C31608   6.488   9.706  10.684  0.9622 -0.5843  0.3003
  235MOL0     C31609   6.610   9.751  10.662 -0.2299 -0.0119  0.4719
  235MOL0     C31610   6.710   9.786  10.766  0.2884 -0.4846 -1.4064
  235MOL0     C31611   6.689   9.935  10.818  0.0510  0.1459  0.1229
  235MOL0     C31612   6.556   9.944  10.908  0.1877  0.3806  0.0187
  235MOL0     C31613   6.544   9.852  11.031  0.6841 -1.0977  0.1763
  235MOL0     O31614   6.657   9.887  11.113  0.1119 -0.6703  0.5550
  235MOL0     C31615   6.721   9.813  11.210 -0.0350  0.3302 -0.3417
  235MOL0     C31616   6.795   9.874  11.310 -0.4725 -0.6840 -0.1221
  235MOL0     C31617   6.862   9.791  11.410 -0.0151  0.1948 -0.3688
  235MOL0     C31618   6.850   9.653  11.403  0.2350  0.8018 -0.7280
  235MOL0     C31619   6.914   9.575  11.511  0.9428  0.6868 -0.3862
  235MOL0     O31620   6.962   9.644  11.623  0.6478 -0.0167  0.0605
  235MOL0     C31621   7.006   9.588  11.748  0.0939  0.3417  0.2526
  235MOL0     C31622   7.116   9.645  11.808  0.1836  0.0729 -0.4802
  235MOL0     C31623   7.162   9.589  11.925 -0.0716 -0.2450 -0.8066
  235MOL0     C31624   7.106   9.469  11.980  0.6684  0.0073 -0.0305
  235MOL0     O31625   7.165   9.432  12.093  0.6288 -0.4402 -0.1131
  235MOL0     C31626   7.103   9.316  12.160  0.2907 -0.1181 -0.0414
  235MOL0     C31627   7.162   9.312  12.302  0.6506  0.0285  0.3835
  235MOL0     C31628   7.310   9.269  12.309 -0.2579 -0.0688 -0.9236
  235MOL0     C31629   7.327   9.122  12.268  0.1169 -0.0884  0.0820
  235MOL0     C31630   7.473   9.072  12.268  0.9379 -0.0569 -0.0621
  235MOL0     C31631   7.492   8.938  12.206 -0.5389 -0.1612  0.3137
  235MOL0     C31632   7.649   8.915  12.194 -0.0316 -0.8583 -0.1127
  235MOL0     C31633   7.677   8.775  12.138 -0.4646  0.6530 -0.3138
  235MOL0    Cl31634   7.854   8.754  12.136 -0.2913  0.1552 -0.2491
  235MOL0     C31635   7.008   9.403  11.903  0.3321  0.0504 -0.7966
  235MOL0     C31636   6.949   9.468  11.796 -1.1499  0.3584  0.1438
  235MOL0     O31637   6.906   9.453  11.500 -0.6461  0.1876  0.7333
  235MOL0     C31638   6.770   9.589  11.303  0.7743 -0.4520 -0.4441
  235MOL0     C31639   6.707   9.672  11.211  0.7061 -0.5460  0.2805
  235MOL0     N31640   6.622   9.788  10.527  0.6954 -0.3631  0.6837
  235MOL0     N31641   6.509   9.759  10.471 -0.8085  0.4170  0.0199
  235MOL0     C31642   5.298   9.674   9.976  0.5700 -0.2569 -0.7239
  235MOL0     C31643   5.167   9.714   9.943  0.3675  0.7108 -1.0473
  235MOL0     C31644   4.743   9.773   9.885 -0.0307 -0.0446 -0.1619
  235MOL0     C31645   4.738   9.783   9.748  0.1067  0.4260 -0.2442
  235MOL0     C31646   4.627   9.829   9.686  0.2173 -0.1850 -0.5643
  235MOL0     C31647   4.512   9.877   9.753 -0.1617  0.3782  0.5682
  235MOL0     O31648   4.389   9.919   9.692  0.3076 -0.2072 -0.1020
  235MOL0     C31649   4.382   9.923   9.546 -0.4178  0.3836 -0.4751
  235MOL0     C31650   4.234   9.957   9.516 -0.4975 -0.8264 -0.0307
  235MOL0     C31651   4.142   9.867   9.598  0.3383  0.3046  0.1027
  235MOL0     C31652   4.015   9.846   9.529  0.1116 -0.5238 -0.6351
  235MOL0     C31653   3.939   9.977   9.530  0.5854 -0.6048 -0.0958
  235MOL0     C31654   3.889  10.086   9.520  0.5428  0.0420  0.5100
  235MOL0     C31655   4.519   9.876   9.893  0.9958  0.3796 -0.1311
  235MOL0     C31656   4.632   9.822   9.962  0.0783  0.3488  0.7358
  235MOL0     C31657   4.621   9.792  10.115  0.8251 -0.1797 -0.6159
  235MOL0     H31658   5.026   9.428   9.880 -2.7831  3.6973 -1.4142
  235MOL0     H31659   5.256   9.330   9.951 -1.4320 -0.5733  2.0715
  235MOL0     H31660   5.553   9.658  10.049  0.2964  0.1240 -0.1820
  235MOL0     H31661   5.446   9.618  10.194 -1.0311  2.0816 -0.9867
  235MOL0     H31662   5.702   9.483  10.091 -1.1296 -0.2899 -0.8466
  235MOL0     H31663   5.606   9.424  10.232 -2.8344  1.2973  0.0497
  235MOL0     H31664   5.689   9.626  10.370  0.4993 -3.4488  1.5387
  235MOL0     H31665   5.753   9.693  10.210 -1.5244  0.6671  0.6334
  235MOL0     H31666   5.863   9.441  10.351 -3.1766  0.4545  2.0487
  235MOL0     H31667   5.933   9.523  10.213 -1.3297 -0.0146  0.2105
  235MOL0     H31668   5.975   9.726  10.333  1.8291 -0.9764 -1.9701
  235MOL0     H31669   5.893   9.668  10.474 -0.7950  1.5004 -0.5871
  235MOL0     H31670   6.064   9.498  10.485 -1.6300  0.1770 -2.3161
  235MOL0     H31671   6.142   9.518  10.336 -1.9962 -2.8692  0.1825
  235MOL0     H31672   6.136   9.713  10.570 -1.0264  1.3029 -0.5968
  235MOL0     H31673   6.204   9.774  10.427 -0.0912  1.8581  2.1464
  235MOL0     H31674   6.313   9.534  10.590  2.3998 -1.4787 -0.7720
  235MOL0     H31675   6.369   9.552  10.431  1.0257  0.3279  0.3797
  235MOL0     H31676   6.439   9.686  10.779  0.6523  0.0401  0.2802
  235MOL0     H31677   6.702   9.715  10.849  2.6888 -0.6054 -1.2121
  235MOL0     H31678   6.817   9.778  10.743  0.4685  1.8850 -1.5608
  235MOL0     H31679   6.776   9.960  10.880 -0.2527 -1.0789  1.0946
  235MOL0     H31680   6.681  10.006  10.736  1.9972  0.4392  0.1444
  235MOL0     H31681   6.469   9.937  10.843 -1.0385 -0.3807  1.6625
  235MOL0     H31682   6.534  10.045  10.945 -1.9238 -0.5161  1.3797
  235MOL0     H31683   6.559   9.749  10.997 -0.7077 -0.4273 -2.7606
  235MOL0     H31684   6.445   9.864  11.077  0.1722  2.3472 -1.4866
  235MOL0     H31685   6.786   9.982  11.317  2.4767 -0.2828 -1.3492
  235MOL0     H31686   6.926   9.832  11.487  0.5525 -2.1491  0.4826
  235MOL0     H31687   7.164   9.735  11.772 -0.0072 -0.2725 -1.6374
  235MOL0     H31688   7.240   9.642  11.978 -0.6809  0.2135 -0.3576
  235MOL0     H31689   6.994   9.323  12.170  0.3930 -0.3843  1.5228
  235MOL0     H31690   7.126   9.223  12.108 -0.3637  0.5138 -1.5136
  235MOL0     H31691   7.139   9.397  12.367 -1.2357 -0.6142  0.6263
  235MOL0     H31692   7.102   9.236  12.354 -0.7216 -0.2191 -1.4539
  235MOL0     H31693   7.370   9.336  12.247 -2.4549  0.8117 -2.1990
  235MOL0     H31694   7.333   9.275  12.416 -3.9365 -0.1312  0.0201
  235MOL0     H31695   7.294   9.129  12.164  0.8269  3.8924 -0.0410
  235MOL0     H31696   7.257   9.061  12.326  0.1048 -2.0447 -1.8580
  235MOL0     H31697   7.487   9.061  12.376 -0.9288  0.3255  0.2491
  235MOL0     H31698   7.532   9.154  12.226 -0.9430  0.6504 -1.4135
  235MOL0     H31699   7.454   8.853  12.263 -1.0999 -1.9926 -2.6081
  235MOL0     H31700   7.459   8.923  12.103 -0.1759 -2.8488  0.5147
  235MOL0     H31701   7.682   8.917  12.298 -1.4319 -1.7910  0.3732
  235MOL0     H31702   7.700   8.998  12.145  1.6019  0.2647  3.1980
  235MOL0     H31703   7.629   8.695  12.194  0.1538  0.5916  0.1341
  235MOL0     H31704   7.646   8.774  12.033 -1.0275  2.1431 -0.1888
  235MOL0     H31705   6.959   9.308  11.922 -0.8424  0.7669 -0.0962
  235MOL0     H31706   6.865   9.418  11.749 -1.2640  0.6723  0.0055
  235MOL0     H31707   6.745   9.484  11.293 -0.9559  0.0390 -1.6466
  235MOL0     H31708   6.646   9.617  11.140  1.1989  0.1935 -0.7418
  235MOL0     H31709   5.373   9.748  10.004 -0.6255  0.7849 -0.1292
  235MOL0     H31710   5.131   9.816   9.948  1.8842  1.2470  3.2711
  235MOL0     H31711   4.816   9.764   9.675 -1.3021  3.3234 -2.7461
  235MOL0     H31712   4.618   9.821   9.578  0.3630  0.0706 -0.5983
  235MOL0     H31713   4.405   9.824   9.507 -1.2636  0.3237 -0.8517
  235MOL0     H31714   4.453   9.998   9.509 -1.2735  0.8222 -1.2807
  235MOL0     H31715   4.214   9.948   9.409  0.6696  2.0956 -0.5945
  235MOL0     H31716   4.212  10.058   9.553  1.5958  0.0232 -0.9013
  235MOL0     H31717   4.132   9.888   9.705  1.3940 -2.3328  0.8019
  235MOL0     H31718   4.200   9.774   9.602  0.9325  0.5200 -2.2260
  235MOL0     H31719   4.021   9.807   9.427 -0.3657  0.3819 -1.0240
  235MOL0     H31720   3.960   9.775   9.591  1.6067 -2.0792 -1.0180
  235MOL0     H31721   3.854  10.188   9.519  0.0922 -0.1005 -0.6875
  235MOL0     H31722   4.434   9.912   9.951  0.9495 -0.9980  0.6982
  235MOL0     H31723   4.649   9.690  10.141 -1.9823 -0.5862  1.2097
  235MOL0     H31724   4.681   9.858  10.178  0.2061 -0.8033  0.6501
  235MOL0     H31725   4.521   9.798  10.158  1.1992  2.4878  0.0783
  236MOL0     O31726   1.409   4.595   5.850  0.6516  0.0361 -0.8114
  236MOL0     C31727   1.398   4.561   5.732  0.0130  0.4545  0.0738
  236MOL0     O31728   1.498   4.530   5.648 -0.5744  0.1457  0.4532
  236MOL0     C31729   1.628   4.580   5.660 -0.0573 -0.6983  0.1424
  236MOL0     C31730   1.721   4.537   5.565  0.0385 -0.1397 -0.0681
  236MOL0     C31731   1.851   4.587   5.552 -0.6105 -0.5642  0.0444
  236MOL0     C31732   1.904   4.669   5.647  0.0931  0.8326 -0.3249
  236MOL0     O31733   2.037   4.703   5.630  1.0383  0.2024 -0.3175
  236MOL0     C31734   2.116   4.733   5.739 -0.3873 -1.0452  0.3762
  236MOL0     C31735   2.206   4.621   5.789 -0.1129 -0.2745  0.4690
  236MOL0     C31736   2.337   4.675   5.858 -0.3515 -0.4047 -0.7462
  236MOL0     C31737   2.443   4.568   5.871  0.6450  0.4159  0.8494
  236MOL0     C31738   2.554   4.605   5.953 -0.8819 -0.2515 -0.6664
  236MOL0     C31739   2.669   4.508   5.973  0.0938 -0.2076  0.9800
  236MOL0     C31740   2.769   4.576   6.070  0.0113  0.9706 -0.6463
  236MOL0     C31741   2.908   4.523   6.040 -0.2634  0.7439 -0.1140
  236MOL0     N31742   3.006   4.607   6.116 -0.1480  0.3012 -1.2220
  236MOL0     C31743   3.033   4.596   6.251 -0.5694 -0.5299  0.4584
  236MOL0     C31744   3.103   4.715   6.272 -0.1893 -0.6713 -0.0505
  236MOL0     C31745   3.139   4.756   6.410 -0.3776  0.9755  0.3275
  236MOL0     C31746   3.144   4.903   6.452  0.2989 -0.9391  0.5318
  236MOL0     C31747   3.215   4.938   6.573 -0.5879 -0.0076 -0.6906
  236MOL0     C31748   3.186   5.081   6.615 -0.6558 -0.3842  0.5508
  236MOL0     O31749   3.262   5.121   6.725  0.3399  0.3420 -0.0508
  236MOL0     C31750   3.384   5.177   6.710 -0.4287  0.2299  0.4866
  236MOL0     C31751   3.463   5.186   6.590  0.4944 -0.6736  0.0008
  236MOL0     C31752   3.598   5.237   6.589  0.0869 -0.9798  0.7443
  236MOL0     C31753   3.654   5.279   6.709 -0.6571 -0.5999 -0.0603
  236MOL0     C31754   3.793   5.318   6.720 -0.1296  0.6602 -0.7489
  236MOL0     O31755   3.855   5.323   6.595  0.6269 -1.1515 -0.4478
  236MOL0     C31756   3.993   5.343   6.576 -0.5242 -0.7043  0.5532
  236MOL0     C31757   4.048   5.470   6.588  0.3175 -0.4602 -0.3191
  236MOL0     C31758   4.180   5.493   6.547  0.6851 -0.6554 -0.8652
  236MOL0     C31759   4.261   5.391   6.499 -0.9633 -0.2514  0.5814
  236MOL0     O31760   4.390   5.413   6.450  0.5083  0.0983 -0.2230
  236MOL0     C31761   4.495   5.328   6.514  0.4500 -0.3347  0.4025
  236MOL0     C31762   4.624   5.406   6.498 -0.5794  0.1213  0.5902
  236MOL0     C31763   4.743   5.333   6.558 -0.1687 -0.5297 -0.3280
  236MOL0     C31764   4.871   5.419   6.566  0.0063 -0.7548  0.0906
  236MOL0     C31765   4.967   5.351   6.657 -0.5110 -0.0870  0.5018
  236MOL0     C31766   5.118   5.397   6.655 -0.6413  0.0933 -0.3253
  236MOL0     C31767   5.205   5.294   6.729 -0.4847  0.2440  0.3555
  236MOL0     C31768   5.332   5.347   6.776 -0.1435  0.2654 -0.7911
  236MOL0    Cl31769   5.423   5.218   6.862  0.0388  0.3449 -0.0318
  236MOL0     C31770   4.199   5.262   6.485 -0.0347 -0.6528 -0.8964
  236MOL0     C31771   4.066   5.241   6.524  0.5522  0.5623 -0.9752
  236MOL0     O31772   3.846   5.347   6.823 -0.1920  0.3567  0.6041
  236MOL0     C31773   3.572   5.265   6.824 -0.3843 -0.1862  0.1979
  236MOL0     C31774   3.442   5.222   6.824  0.3512 -0.4087  0.8946
  236MOL0     N31775   3.134   4.784   6.153  0.4254 -0.6486 -0.5037
  236MOL0     N31776   3.066   4.716   6.067  0.5973 -0.0857 -0.7086
  236MOL0     C31777   1.819   4.703   5.754  0.0953  0.5202  0.1304
  236MOL0     C31778   1.682   4.661   5.756  0.4873  0.4531  0.3950
  236MOL0     C31779   1.265   4.575   5.674 -0.6291  0.7991 -0.1695
  236MOL0     C31780   1.189   4.456   5.659  0.0215  0.3963  0.9375
  236MOL0     C31781   1.058   4.467   5.610 -0.9501 -0.4021  0.3628
  236MOL0     C31782   0.995   4.594   5.596  0.8442 -0.3267 -0.3052
  236MOL0     O31783   0.859   4.590   5.571 -0.5545 -0.0413  0.6350
  236MOL0     C31784   0.784   4.716   5.605  0.6726 -0.5912 -0.1903
  236MOL0     C31785   0.636   4.679   5.617  1.0833 -0.6749  1.0466
  236MOL0     C31786   0.598   4.583   5.502  0.1637 -0.3002  0.1292
  236MOL0     C31787   0.448   4.585   5.475  0.1083 -0.9181 -0.1674
  236MOL0     C31788   0.383   4.515   5.582 -0.1000 -0.3203  0.2370
  236MOL0     C31789   0.335   4.442   5.670 -0.4050  0.4374 -0.1914
  236MOL0     C31790   1.077   4.707   5.594 -0.0834  0.3098 -1.0950
  236MOL0     C31791   1.212   4.699   5.650  1.3749 -0.3415  0.4965
  236MOL0     C31792   1.304   4.818   5.643 -0.0568 -0.7924  0.4430
  236MOL0     H31793   1.684   4.462   5.494  1.7181 -1.2925  0.2244
  236MOL0     H31794   1.912   4.554   5.469 -0.6600 -1.3708  0.3245
  236MOL0     H31795   2.181   4.818   5.714  1.2065 -3.0696 -3.1257
  236MOL0     H31796   2.054   4.760   5.825  1.7381 -1.3904  2.1055
  236MOL0     H31797   2.239   4.558   5.706  0.2531 -0.4136  0.7162
  236MOL0     H31798   2.147   4.559   5.857  0.5376  0.3926  1.6755
  236MOL0     H31799   2.311   4.722   5.953  0.6055 -1.4054  0.0421
  236MOL0     H31800   2.374   4.758   5.796 -2.8779 -0.2369 -2.1377
  236MOL0     H31801   2.394   4.484   5.921 -0.0214  0.5444  0.4295
  236MOL0     H31802   2.475   4.539   5.771  0.3667  0.9048  0.6157
  236MOL0     H31803   2.592   4.697   5.907 -1.6456  0.3792 -0.0600
  236MOL0     H31804   2.517   4.643   6.049 -3.4386 -2.9410 -0.4698
  236MOL0     H31805   2.621   4.417   6.009  1.9382 -1.4677  0.3574
  236MOL0     H31806   2.721   4.481   5.881  0.8188 -0.9056  1.5896
  236MOL0     H31807   2.737   4.550   6.171  0.6973  0.7420 -0.4894
  236MOL0     H31808   2.777   4.683   6.049  0.3480  1.3333  1.1488
  236MOL0     H31809   2.919   4.419   6.072 -0.1898  0.9302  0.4726
  236MOL0     H31810   2.923   4.534   5.932 -1.3425 -0.5390 -0.4187
  236MOL0     H31811   3.007   4.524   6.328 -1.9933 -2.9237 -2.0584
  236MOL0     H31812   3.072   4.713   6.485  1.6801 -0.4801  1.4406
  236MOL0     H31813   3.236   4.711   6.433  0.6128 -0.1104 -4.7369
  236MOL0     H31814   3.188   4.953   6.365 -0.8725 -0.3403  0.2529
  236MOL0     H31815   3.036   4.920   6.460  0.1685 -0.5900 -1.3891
  236MOL0     H31816   3.322   4.927   6.554 -0.0313 -1.4169  2.5682
  236MOL0     H31817   3.194   4.873   6.658 -0.7234  0.3836 -0.4232
  236MOL0     H31818   3.082   5.081   6.648 -1.1463 -0.9567 -0.9071
  236MOL0     H31819   3.196   5.151   6.532  2.4608  0.4550  1.5262
  236MOL0     H31820   3.426   5.150   6.494  1.1020 -0.6138 -0.2642
  236MOL0     H31821   3.655   5.251   6.498 -0.4602 -0.6891  0.4466
  236MOL0     H31822   3.984   5.550   6.623  1.0591  0.7157 -1.5385
  236MOL0     H31823   4.211   5.597   6.562  1.4281 -1.1441  1.5092
  236MOL0     H31824   4.482   5.318   6.622 -0.2440  2.0600  0.5947
  236MOL0     H31825   4.492   5.229   6.467 -2.0474 -0.4054  0.5787
  236MOL0     H31826   4.642   5.421   6.391 -2.8772  1.5294  0.3407
  236MOL0     H31827   4.613   5.505   6.544 -0.7484 -0.2215  1.2955
  236MOL0     H31828   4.718   5.300   6.659  2.3129  0.9790  0.8750
  236MOL0     H31829   4.744   5.241   6.499 -1.0032 -1.5142  1.1526
  236MOL0     H31830   4.850   5.520   6.601 -2.2992 -0.2364 -2.4438
  236MOL0     H31831   4.911   5.427   6.464  0.2380  0.1392  0.2488
  236MOL0     H31832   4.968   5.246   6.627 -2.8235  0.4396 -1.7640
  236MOL0     H31833   4.933   5.357   6.761  1.0339  1.3233  0.9953
  236MOL0     H31834   5.160   5.417   6.556  0.8741 -4.3814 -0.8013
  236MOL0     H31835   5.126   5.480   6.727  1.8992 -0.0366 -0.3555
  236MOL0     H31836   5.224   5.210   6.661  0.1571  0.3033  0.4513
  236MOL0     H31837   5.157   5.256   6.819 -3.3099  2.6158 -0.0087
  236MOL0     H31838   5.393   5.388   6.695  2.5135 -0.8759  0.5383
  236MOL0     H31839   5.306   5.434   6.836  0.1181 -0.2506  0.0965
  236MOL0     H31840   4.256   5.179   6.446  0.5699  0.7590 -3.1836
  236MOL0     H31841   4.016   5.145   6.516 -0.0711  0.4624  2.5059
  236MOL0     H31842   3.613   5.318   6.909 -0.6355 -0.8136  0.7224
  236MOL0     H31843   3.393   5.232   6.920 -0.8540 -2.9933  0.6290
  236MOL0     H31844   1.856   4.763   5.836 -0.9104 -0.3923  1.2833
  236MOL0     H31845   1.619   4.686   5.840 -2.0051 -1.5084 -0.7542
  236MOL0     H31846   1.239   4.363   5.683 -0.4057 -0.0611  0.0805
  236MOL0     H31847   1.003   4.374   5.602 -2.5096  0.6102 -1.2599
  236MOL0     H31848   0.806   4.792   5.530 -2.1706  0.5088 -0.0259
  236MOL0     H31849   0.815   4.767   5.697  1.0087 -2.8889  1.0586
  236MOL0     H31850   0.576   4.770   5.616  3.3762  0.9330  1.8442
  236MOL0     H31851   0.626   4.630   5.715  1.4293 -1.0219  0.9125
  236MOL0     H31852   0.628   4.479   5.517 -1.9836 -0.7132  2.1421
  236MOL0     H31853   0.622   4.611   5.399  0.1970  3.2042  0.9702
  236MOL0     H31854   0.417   4.690   5.469  0.3200 -0.7171  1.6933
  236MOL0     H31855   0.419   4.536   5.382 -3.3909  0.4862  0.0291
  236MOL0     H31856   0.288   4.376   5.740 -1.2743 -0.5892 -1.6657
  236MOL0     H31857   1.030   4.796   5.555 -1.3750  1.7235  3.1609
  236MOL0     H31858   1.239   4.906   5.632  2.0513  1.1112  2.2114
  236MOL0     H31859   1.367   4.840   5.729 -0.6393 -0.6474  0.8349
  236MOL0     H31860   1.356   4.818   5.546 -2.2393  0.8156 -0.8195
  237MOL0     O31861   1.472   3.745   3.047  0.2883  0.4293 -0.6365
  237MOL0     C31862   1.417   3.632   3.026  0.0088 -0.3113 -0.2966
  237MOL0     O31863   1.455   3.511   3.087  0.1556  0.1851  0.7317
  237MOL0     C31864   1.563   3.529   3.172 -0.1782  0.1367  0.0474
  237MOL0     C31865   1.549   3.587   3.300  1.0866 -0.1439 -0.7753
  237MOL0     C31866   1.654   3.627   3.379 -0.3047 -0.2515  0.6863
  237MOL0     C31867   1.782   3.590   3.340 -0.3488 -0.1175 -0.0902
  237MOL0     O31868   1.901   3.631   3.403  0.1555  0.1016  0.4619
  237MOL0     C31869   1.930   3.613   3.541  0.2879 -1.0636  0.0035
  237MOL0     C31870   2.072   3.673   3.572  0.0523 -0.0645 -0.2971
  237MOL0     C31871   2.082   3.716   3.721 -0.0213 -0.1389 -0.8677
  237MOL0     C31872   2.235   3.718   3.743 -0.8216 -0.5870  0.0910
  237MOL0     C31873   2.264   3.786   3.872 -0.3939 -0.0267 -0.1135
  237MOL0     C31874   2.401   3.731   3.922  0.3405 -0.1260 -0.1187
  237MOL0     C31875   2.421   3.799   4.061 -0.2788 -0.0954 -0.7382
  237MOL0     C31876   2.564   3.787   4.090 -1.2786 -0.3904  0.1929
  237MOL0     N31877   2.607   3.803   4.232 -0.6247  0.9162 -0.1722
  237MOL0     C31878   2.587   3.913   4.317 -0.0898 -0.1096 -0.2803
  237MOL0     C31879   2.639   3.880   4.436  0.8301 -0.2594  0.4640
  237MOL0     C31880   2.654   3.964   4.559 -0.2526 -1.7414 -0.5559
  237MOL0     C31881   2.554   3.939   4.672 -0.5885 -0.4415  2.1511
  237MOL0     C31882   2.551   4.037   4.793 -0.6732  0.7758 -0.8284
  237MOL0     C31883   2.682   4.060   4.868  0.3377 -0.0283 -0.3219
  237MOL0     O31884   2.752   3.938   4.900  0.1824  0.2267 -0.2166
  237MOL0     C31885   2.715   3.876   5.016  0.3901 -0.6000  0.3525
  237MOL0     C31886   2.594   3.905   5.089 -0.3449  0.6538 -0.1369
  237MOL0     C31887   2.546   3.818   5.190 -1.2035 -0.4247  1.0240
  237MOL0     C31888   2.621   3.699   5.218  0.2582 -0.7566 -0.2749
  237MOL0     C31889   2.577   3.609   5.317  0.1792 -0.2082 -0.5524
  237MOL0     O31890   2.466   3.647   5.382 -0.1418 -0.6590 -0.5696
  237MOL0     C31891   2.429   3.570   5.494 -0.5337  0.2127  1.5613
  237MOL0     C31892   2.380   3.443   5.478 -0.4482  0.2948 -1.0241
  237MOL0     C31893   2.323   3.375   5.588 -0.0772  0.2242  0.3130
  237MOL0     C31894   2.321   3.440   5.716 -0.2627  0.1912  0.0261
  237MOL0     O31895   2.259   3.391   5.835  0.2238 -0.0245  0.3934
  237MOL0     C31896   2.196   3.257   5.837 -0.5491 -0.1078  0.1319
  237MOL0     C31897   2.112   3.244   5.960 -0.1310  0.5042  0.6563
  237MOL0     C31898   2.032   3.114   5.964  0.4476 -0.5139  0.0457
  237MOL0     C31899   1.966   3.088   6.101 -0.5662  0.1189 -0.3662
  237MOL0     C31900   1.843   3.000   6.081  1.2056 -0.2950 -0.4428
  237MOL0     C31901   1.782   2.944   6.213  0.1911  0.1453  0.3506
  237MOL0     C31902   1.771   3.054   6.317 -0.6716 -0.1872 -0.4951
  237MOL0     C31903   1.687   3.022   6.434  0.7454  1.0463 -0.1455
  237MOL0    Cl31904   1.512   2.978   6.405  0.0651 -0.1500 -0.1545
  237MOL0     C31905   2.377   3.572   5.719  0.6433  0.7566  0.1494
  237MOL0     C31906   2.427   3.638   5.612 -0.4258 -0.4237  0.0562
  237MOL0     O31907   2.642   3.509   5.337  0.4418 -0.0009 -0.0979
  237MOL0     C31908   2.737   3.673   5.149  0.4258  0.0961 -0.0357
  237MOL0     C31909   2.784   3.756   5.045  0.5998  0.2163 -0.2919
  237MOL0     N31910   2.697   3.756   4.419 -0.3645  0.1531 -0.1982
  237MOL0     N31911   2.673   3.706   4.304 -0.1627  0.3779  0.4367
  237MOL0     C31912   1.800   3.517   3.218  0.1990  0.9574  0.1457
  237MOL0     C31913   1.694   3.489   3.133  0.2102  0.2412  0.7520
  237MOL0     C31914   1.305   3.606   2.932 -0.1082 -0.0460  0.5138
  237MOL0     C31915   1.243   3.479   2.929 -0.9037  0.5540  0.2215
  237MOL0     C31916   1.127   3.455   2.859  0.4637  0.0814 -0.7673
  237MOL0     C31917   1.061   3.558   2.798 -0.2669 -0.8048  0.0971
  237MOL0     O31918   0.945   3.552   2.724 -0.5242 -0.4252 -0.8813
  237MOL0     C31919   0.885   3.432   2.694  1.0492  0.9726 -0.2106
  237MOL0     C31920   0.765   3.389   2.785 -0.1603  0.3606 -0.2790
  237MOL0     C31921   0.699   3.267   2.719 -0.3910 -0.2219 -0.6659
  237MOL0     C31922   0.611   3.180   2.810  0.2094 -0.1393 -0.2812
  237MOL0     C31923   0.496   3.250   2.878 -0.1329 -0.7627  0.1726
  237MOL0     C31924   0.418   3.315   2.949  0.1053 -0.0241  0.1443
  237MOL0     C31925   1.127   3.681   2.791  0.1563 -0.4900 -0.7643
  237MOL0     C31926   1.248   3.713   2.862  0.2242  0.1203 -0.0356
  237MOL0     C31927   1.292   3.860   2.859  0.5248  0.5608 -0.3748
  237MOL0     H31928   1.447   3.608   3.330  1.1887  1.1050 -1.2465
  237MOL0     H31929   1.642   3.691   3.467  1.1059  1.7277 -0.4688
  237MOL0     H31930   1.852   3.661   3.602  1.8711  2.9359 -0.8600
  237MOL0     H31931   1.928   3.507   3.571 -1.6275 -0.9746  0.3467
  237MOL0     H31932   2.106   3.752   3.503 -0.0786 -1.0289 -1.4995
  237MOL0     H31933   2.140   3.590   3.553  0.4649  0.4211 -0.9900
  237MOL0     H31934   2.044   3.645   3.796 -1.8360 -0.4442 -2.0158
  237MOL0     H31935   2.031   3.812   3.722 -0.2505 -0.2570 -1.0441
  237MOL0     H31936   2.268   3.614   3.742  0.4068 -0.2137  0.0383
  237MOL0     H31937   2.301   3.757   3.664 -0.6479  0.4388  0.7191
  237MOL0     H31938   2.238   3.890   3.849 -2.8224 -1.0902 -2.7439
  237MOL0     H31939   2.187   3.752   3.942 -1.9986  2.1912 -0.6700
  237MOL0     H31940   2.414   3.623   3.916  2.8394  0.1716 -3.3705
  237MOL0     H31941   2.472   3.761   3.844 -2.6676  1.7994 -2.3483
  237MOL0     H31942   2.358   3.748   4.134 -0.0303  2.3539  1.3440
  237MOL0     H31943   2.405   3.907   4.068  0.2085  0.0209 -1.3698
  237MOL0     H31944   2.586   3.683   4.063  0.9484 -1.6168  5.3922
  237MOL0     H31945   2.625   3.849   4.025  2.5556 -3.5573  0.3832
  237MOL0     H31946   2.533   4.004   4.295 -2.0936 -0.7821  1.5476
  237MOL0     H31947   2.756   3.935   4.584  0.7316 -0.4005 -2.6621
  237MOL0     H31948   2.650   4.073   4.543  3.3148 -1.6025 -1.3334
  237MOL0     H31949   2.462   3.939   4.612  1.5196 -1.8921 -1.4244
  237MOL0     H31950   2.562   3.835   4.702  0.5562 -0.7957  0.7664
  237MOL0     H31951   2.468   3.999   4.854  0.2122 -0.2596 -0.2223
  237MOL0     H31952   2.538   4.141   4.762  2.9673  2.8161  3.2466
  237MOL0     H31953   2.654   4.117   4.957  1.4420 -1.4894  1.0228
  237MOL0     H31954   2.750   4.121   4.807  0.4578  0.1335 -0.0280
  237MOL0     H31955   2.531   3.988   5.061 -1.0907 -0.4137 -1.7891
  237MOL0     H31956   2.455   3.848   5.241 -1.6613  4.3312 -1.9703
  237MOL0     H31957   2.363   3.402   5.379 -1.4114 -1.1446 -0.3001
  237MOL0     H31958   2.304   3.269   5.575  0.6358 -0.2327  2.5920
  237MOL0     H31959   2.132   3.246   5.749  0.9207 -0.4950 -0.9229
  237MOL0     H31960   2.275   3.181   5.832 -2.5794 -2.3422  0.2535
  237MOL0     H31961   2.173   3.247   6.051 -2.1634 -0.2193  2.1263
  237MOL0     H31962   2.045   3.330   5.965  1.9933  2.5840 -2.8842
  237MOL0     H31963   1.953   3.131   5.891  0.6135  0.6496  0.1232
  237MOL0     H31964   2.093   3.028   5.936  1.5993  1.1793 -3.1455
  237MOL0     H31965   1.935   3.181   6.151 -1.1158 -0.5982  0.6539
  237MOL0     H31966   2.037   3.035   6.165 -0.4720  1.3548  0.6046
  237MOL0     H31967   1.877   2.913   6.025 -2.1941 -0.6196 -2.2454
  237MOL0     H31968   1.762   3.055   6.033  0.0584 -1.1053  0.4994
  237MOL0     H31969   1.685   2.896   6.196  1.6321 -3.0017  0.3563
  237MOL0     H31970   1.846   2.863   6.249  3.3534  1.1840 -2.5194
  237MOL0     H31971   1.736   3.142   6.264  1.0066  0.0534 -1.2813
  237MOL0     H31972   1.864   3.092   6.361 -1.6355  0.4950  1.0135
  237MOL0     H31973   1.735   2.942   6.491 -1.1480  0.2767  0.4310
  237MOL0     H31974   1.677   3.110   6.498 -0.1681  0.3902  0.6437
  237MOL0     H31975   2.384   3.608   5.821 -1.5547  3.3979 -0.5345
  237MOL0     H31976   2.452   3.743   5.620 -1.6471 -0.0451 -0.7575
  237MOL0     H31977   2.789   3.579   5.167 -1.6397 -1.5828 -2.1968
  237MOL0     H31978   2.880   3.733   4.999  0.5553 -0.4607 -0.0468
  237MOL0     H31979   1.903   3.486   3.202 -0.0836  1.1930 -2.5363
  237MOL0     H31980   1.711   3.440   3.038 -1.4033 -2.6879  1.8492
  237MOL0     H31981   1.291   3.390   2.970 -0.6445  0.7541  0.3524
  237MOL0     H31982   1.088   3.354   2.858 -0.3807  0.3883 -0.0005
  237MOL0     H31983   0.955   3.348   2.694  0.7060  0.6750  0.7002
  237MOL0     H31984   0.838   3.433   2.596 -1.0462 -2.2667  0.6065
  237MOL0     H31985   0.697   3.474   2.800  0.3846  0.4141  2.5669
  237MOL0     H31986   0.803   3.357   2.883 -0.2879  3.1199  0.7770
  237MOL0     H31987   0.776   3.204   2.674 -0.1254 -0.4946  0.1454
  237MOL0     H31988   0.636   3.303   2.637 -3.2045  1.1386  1.8895
  237MOL0     H31989   0.572   3.103   2.742  0.3072  2.0782 -3.0598
  237MOL0     H31990   0.688   3.135   2.874  0.2916  0.5673  0.1229
  237MOL0     H31991   0.334   3.362   2.995 -0.5252  0.5112 -1.4844
  237MOL0     H31992   1.073   3.758   2.738 -1.5212 -0.8554  0.3460
  237MOL0     H31993   1.224   3.927   2.805  2.2666  2.9063  0.1531
  237MOL0     H31994   1.300   3.904   2.959  2.0849 -0.3570 -0.0681
  237MOL0     H31995   1.387   3.860   2.807  0.6333 -1.9613 -0.3028
  238MOL0     O31996   3.794   1.211   6.300  0.3327  0.9064 -0.0625
  238MOL0     C31997   3.767   1.154   6.193  0.2231 -0.3037 -0.4318
  238MOL0     O31998   3.848   1.067   6.132  0.1685  0.4147 -0.0012
  238MOL0     C31999   3.985   1.067   6.163  0.3164 -0.2441 -0.5777
  238MOL0     C32000   4.058   0.945   6.165 -0.2510 -1.0142  0.8585
  238MOL0     C32001   4.198   0.948   6.182  0.7211 -0.2331 -0.7955
  238MOL0     C32002   4.272   1.065   6.198 -0.2140  0.0536 -0.5291
  238MOL0     O32003   4.407   1.052   6.209 -0.3770  0.7182  0.0903
  238MOL0     C32004   4.491   1.164   6.214  0.9683 -0.2910  0.0473
  238MOL0     C32005   4.639   1.128   6.204  0.1650  0.1666 -0.9390
  238MOL0     C32006   4.727   1.238   6.150  0.3060 -0.3132 -0.2046
  238MOL0     C32007   4.886   1.203   6.152  0.7391 -0.0061  1.0688
  238MOL0     C32008   4.970   1.314   6.096  0.2132  0.4017  0.8300
  238MOL0     C32009   5.119   1.277   6.083 -0.3334 -0.0951  0.4041
  238MOL0     C32010   5.191   1.405   6.035 -1.2747  0.2310  0.2048
  238MOL0     C32011   5.334   1.376   5.998 -0.1422  0.3354 -0.4264
  238MOL0     N32012   5.415   1.498   5.965 -0.2598 -0.8433  0.5850
  238MOL0     C32013   5.438   1.597   6.053  0.7810 -0.2696 -0.2609
  238MOL0     C32014   5.513   1.691   5.993 -0.4770  0.1683  0.0250
  238MOL0     C32015   5.521   1.828   6.056 -0.1880 -0.2866 -0.1783
  238MOL0     C32016   5.396   1.914   6.036  0.7266  0.4077 -0.1883
  238MOL0     C32017   5.328   1.993   6.148 -0.2575  0.4266  0.9489
  238MOL0     C32018   5.277   1.907   6.262  0.7276 -0.2879  0.8119
  238MOL0     O32019   5.134   1.879   6.239 -0.2032  0.0015  0.0652
  238MOL0     C32020   5.062   1.869   6.358 -0.3468 -0.5395 -0.1583
  238MOL0     C32021   4.919   1.888   6.350  0.6048 -0.2798  0.5172
  238MOL0     C32022   4.833   1.874   6.453 -0.7098 -0.5747  0.7979
  238MOL0     C32023   4.878   1.843   6.580  0.7405  0.3416  0.2116
  238MOL0     C32024   4.790   1.833   6.700 -0.1775 -0.0550  0.5565
  238MOL0     O32025   4.663   1.859   6.681 -0.1939 -0.1769  0.0126
  238MOL0     C32026   4.575   1.818   6.775 -1.1747 -0.4056 -1.2898
  238MOL0     C32027   4.570   1.717   6.871  0.2049 -0.1002  0.2926
  238MOL0     C32028   4.448   1.691   6.937 -0.6314 -0.0291  0.1500
  238MOL0     C32029   4.333   1.768   6.916  0.2757 -0.9838  0.8371
  238MOL0     O32030   4.210   1.761   6.980 -0.4434 -0.1096  0.5964
  238MOL0     C32031   4.207   1.677   7.094  0.2755 -0.2871 -0.0684
  238MOL0     C32032   4.063   1.688   7.154  0.4861  0.3023  0.5741
  238MOL0     C32033   3.952   1.648   7.054 -0.4875 -0.5986  1.2036
  238MOL0     C32034   3.823   1.632   7.118  0.4357 -1.2217  0.0024
  238MOL0     C32035   3.707   1.583   7.025 -0.2526  0.2667 -0.5428
  238MOL0     C32036   3.732   1.425   6.978  0.0269  0.0496 -0.0506
  238MOL0     C32037   3.604   1.370   6.923  0.2941  0.5286 -0.6772
  238MOL0     C32038   3.502   1.319   7.021 -0.5684 -0.1250  0.2032
  238MOL0    Cl32039   3.351   1.291   6.928 -0.0363 -0.2510  0.3029
  238MOL0     C32040   4.340   1.870   6.821  0.7768 -0.0873  0.4290
  238MOL0     C32041   4.462   1.901   6.759  0.1625  0.8342  0.7759
  238MOL0     O32042   4.849   1.815   6.809 -0.1826 -1.0222 -0.2387
  238MOL0     C32043   5.019   1.820   6.593 -0.0554  0.4182 -0.2161
  238MOL0     C32044   5.108   1.834   6.486 -0.0581  0.1928 -0.1467
  238MOL0     N32045   5.534   1.657   5.860  0.3948  0.4021  0.2541
  238MOL0     N32046   5.471   1.545   5.846 -0.5208  0.4036  0.8014
  238MOL0     C32047   4.200   1.188   6.201 -0.1222  0.7306 -0.3632
  238MOL0     C32048   4.060   1.184   6.181  0.1092  0.3063 -0.2836
  238MOL0     C32049   3.625   1.155   6.147  0.5812 -1.5002  0.2180
  238MOL0     C32050   3.560   1.036   6.108 -0.0675  0.6563 -0.4352
  238MOL0     C32051   3.423   1.025   6.085 -0.3577  0.1189 -0.0073
  238MOL0     C32052   3.349   1.145   6.106 -0.0957  0.4520  0.1445
  238MOL0     O32053   3.213   1.149   6.092 -0.1347  0.0955 -0.1043
  238MOL0     C32054   3.144   1.055   6.004 -0.2967  0.0689  0.6662
  238MOL0     C32055   3.001   1.107   5.994  0.4737  0.5926 -0.0091
  238MOL0     C32056   2.910   1.025   5.912  0.3129 -0.1865 -0.1027
  238MOL0     C32057   2.766   1.051   5.946  0.9369 -0.4531 -0.2328
  238MOL0     C32058   2.724   1.165   5.868 -0.7240 -0.1879 -0.4060
  238MOL0     C32059   2.706   1.273   5.809 -0.7269 -0.2886 -0.0903
  238MOL0     C32060   3.409   1.269   6.125 -0.1060 -0.5181 -0.1535
  238MOL0     C32061   3.549   1.278   6.143 -0.6363 -0.0799 -0.4941
  238MOL0     C32062   3.626   1.406   6.145 -0.1920  0.1263 -0.5307
  238MOL0     H32063   3.998   0.855   6.158  0.4496 -1.3914 -0.8587
  238MOL0     H32064   4.258   0.858   6.188  3.1932  1.2670 -1.4269
  238MOL0     H32065   4.462   1.211   6.119 -1.3185 -4.4879 -1.6190
  238MOL0     H32066   4.465   1.232   6.296 -1.6769 -0.6393 -0.4336
  238MOL0     H32067   4.649   1.041   6.138 -1.9635 -0.7278 -0.1539
  238MOL0     H32068   4.683   1.092   6.297  4.6521  1.8482 -2.1232
  238MOL0     H32069   4.708   1.323   6.215 -1.6736 -0.7399 -0.1761
  238MOL0     H32070   4.691   1.262   6.049  0.2687 -4.0934 -1.2747
  238MOL0     H32071   4.918   1.185   6.255 -3.9878 -3.8522  2.2135
  238MOL0     H32072   4.899   1.112   6.093  2.6636 -0.2300  1.7708
  238MOL0     H32073   4.917   1.342   6.005 -1.6345  0.3272  1.8374
  238MOL0     H32074   4.958   1.395   6.169  2.5615  0.3172  1.3846
  238MOL0     H32075   5.158   1.246   6.180 -1.4205  1.5469  1.4186
  238MOL0     H32076   5.130   1.186   6.023 -1.7052 -1.4098  2.0751
  238MOL0     H32077   5.203   1.467   6.124 -1.4656  2.8578 -1.4891
  238MOL0     H32078   5.141   1.466   5.959 -2.4157  1.2485  1.7270
  238MOL0     H32079   5.393   1.325   6.074  2.7257  3.4444 -0.3667
  238MOL0     H32080   5.336   1.311   5.909  0.6102 -2.0046  1.1976
  238MOL0     H32081   5.400   1.602   6.155  2.5707  0.8380  0.4081
  238MOL0     H32082   5.530   1.811   6.164 -2.1860 -2.1428 -0.2297
  238MOL0     H32083   5.611   1.878   6.019  1.3474 -3.3940 -0.9749
  238MOL0     H32084   5.434   1.983   5.960  1.1616 -1.7022 -1.9732
  238MOL0     H32085   5.312   1.856   5.998 -2.2694  4.2970 -0.1708
  238MOL0     H32086   5.245   2.045   6.098 -1.0466 -1.1429  0.5445
  238MOL0     H32087   5.397   2.063   6.195 -1.0202  0.6944  1.7084
  238MOL0     H32088   5.297   1.964   6.353  0.5206  0.4332  0.4171
  238MOL0     H32089   5.337   1.816   6.263  0.2565 -0.5998  1.1878
  238MOL0     H32090   4.885   1.895   6.247  0.5914 -0.1777  0.5290
  238MOL0     H32091   4.733   1.905   6.427 -0.3855 -2.4673 -3.6244
  238MOL0     H32092   4.650   1.646   6.851 -0.2305 -0.3650 -0.5649
  238MOL0     H32093   4.455   1.603   7.000  2.2372 -0.0547 -0.0812
  238MOL0     H32094   4.234   1.573   7.069 -1.0730 -0.4807 -0.8294
  238MOL0     H32095   4.279   1.716   7.166 -0.4933 -0.5723  0.8799
  238MOL0     H32096   4.063   1.625   7.244 -2.1991  0.3423  0.6773
  238MOL0     H32097   4.040   1.790   7.189 -1.7274  1.0621 -2.6974
  238MOL0     H32098   3.942   1.721   6.973  2.1239 -0.2332  1.1081
  238MOL0     H32099   3.968   1.551   7.008 -1.3275 -0.9966  1.7347
  238MOL0     H32100   3.805   1.729   7.167 -0.1570 -0.6324 -1.3378
  238MOL0     H32101   3.831   1.561   7.202  2.4620  0.0098  0.9497
  238MOL0     H32102   3.686   1.652   6.943 -0.1265 -2.5626 -3.1500
  238MOL0     H32103   3.621   1.572   7.092  1.3404 -1.4490  1.3768
  238MOL0     H32104   3.806   1.419   6.898 -0.5745  3.4123 -1.0268
  238MOL0     H32105   3.752   1.368   7.069 -1.3291 -1.1275 -0.4526
  238MOL0     H32106   3.628   1.281   6.863  0.9088  1.4425 -1.8277
  238MOL0     H32107   3.553   1.437   6.853  0.2697 -0.8702 -2.0755
  238MOL0     H32108   3.537   1.232   7.078  1.4271 -0.7724 -1.8734
  238MOL0     H32109   3.488   1.400   7.093  0.7177  0.4667 -0.1817
  238MOL0     H32110   4.257   1.924   6.776 -0.0629 -3.3075 -2.2283
  238MOL0     H32111   4.479   1.982   6.688  0.9717 -0.8472 -1.0556
  238MOL0     H32112   5.061   1.804   6.691 -1.6834  1.5928  0.7093
  238MOL0     H32113   5.213   1.824   6.512 -0.1088 -0.4325 -0.1849
  238MOL0     H32114   4.252   1.282   6.214  0.9994  0.1205 -0.3124
  238MOL0     H32115   3.997   1.272   6.188 -1.9074 -1.0576 -0.4146
  238MOL0     H32116   3.626   0.951   6.102  0.2986  1.0045 -1.5547
  238MOL0     H32117   3.382   0.935   6.040 -0.3840  0.7880 -1.3698
  238MOL0     H32118   3.151   0.957   6.053  1.6930 -0.4696 -0.5925
  238MOL0     H32119   3.196   1.048   5.908  0.6511 -1.0780  1.2314
  238MOL0     H32120   3.002   1.212   5.963 -1.6688  0.6665 -0.0156
  238MOL0     H32121   2.965   1.096   6.097  1.6798 -2.8085  0.1656
  238MOL0     H32122   2.945   0.926   5.942  3.8504  1.2696  1.0522
  238MOL0     H32123   2.916   1.032   5.803 -1.8803  0.6313 -0.2334
  238MOL0     H32124   2.711   0.964   5.909 -1.2380 -0.0563  1.7960
  238MOL0     H32125   2.739   1.060   6.051  2.9938 -1.0628  0.3930
  238MOL0     H32126   2.679   1.368   5.768  0.8376 -0.4197 -1.5210
  238MOL0     H32127   3.356   1.363   6.125  0.5978 -0.1068 -0.4387
  238MOL0     H32128   3.633   1.439   6.249 -3.7399 -3.1663  1.0042
  238MOL0     H32129   3.725   1.400   6.100  0.3556 -0.8621  0.7297
  238MOL0     H32130   3.565   1.473   6.084  0.4334  1.1881 -0.0142
  239MOL0     O32131   9.803   8.873   1.980 -0.1620 -0.2774 -0.0375
  239MOL0     C32132   9.731   8.775   1.977 -0.6160 -0.3032  0.0966
  239MOL0     O32133   9.752   8.658   2.039 -0.5015  0.2610 -0.4762
  239MOL0     C32134   9.864   8.655   2.120  0.0912 -0.1242 -0.3572
  239MOL0     C32135   9.984   8.604   2.071  0.0159 -0.4368  0.2799
  239MOL0     C32136  10.090   8.601   2.161 -0.5327 -0.6354 -0.8548
  239MOL0     C32137  10.075   8.628   2.303 -0.1851 -0.2648 -0.1291
  239MOL0     O32138  10.181   8.616   2.394 -0.4563 -0.4971  0.1416
  239MOL0     C32139  10.198   8.723   2.492  0.0891  0.5054 -0.8645
  239MOL0     C32140  10.324   8.682   2.575 -0.4996  0.3447  0.0830
  239MOL0     C32141  10.372   8.787   2.668  0.2078 -0.1580 -0.6081
  239MOL0     C32142  10.501   8.759   2.737 -0.4699 -0.4329 -0.0847
  239MOL0     C32143  10.621   8.756   2.647  0.5061 -0.1552 -0.2704
  239MOL0     C32144  10.760   8.771   2.729  0.2486 -0.4619  0.7402
  239MOL0     C32145  10.886   8.767   2.636  0.1261 -0.7610 -0.1774
  239MOL0     C32146  11.023   8.808   2.700 -0.6556  0.9230  0.6024
  239MOL0     N32147  11.073   8.724   2.807  0.4334 -0.1617 -0.9257
  239MOL0     C32148  11.113   8.598   2.787 -0.3238 -0.5654  0.0107
  239MOL0     C32149  11.143   8.552   2.909 -0.1387  0.6043  0.4545
  239MOL0     C32150  11.173   8.402   2.929 -0.6665 -0.0294  0.6455
  239MOL0     C32151  11.318   8.365   2.882  0.5525 -0.5316  0.2690
  239MOL0     C32152  11.427   8.427   2.969  0.0905  0.0949  0.2619
  239MOL0     C32153  11.563   8.427   2.913  0.2058 -0.2299  0.0325
  239MOL0     O32154  11.621   8.298   2.941  0.4001  0.4435  0.8537
  239MOL0     C32155  11.731   8.278   2.864  0.1106 -0.1577 -0.5276
  239MOL0     C32156  11.782   8.359   2.757  0.0342 -0.0611  0.0198
  239MOL0     C32157  11.898   8.319   2.693  0.2513  0.8622  0.5412
  239MOL0     C32158  11.981   8.214   2.736 -0.4282  0.9657 -0.8559
  239MOL0     C32159  12.116   8.197   2.677 -0.0840  0.7595 -0.4210
  239MOL0     O32160  12.130   8.241   2.556  0.2817 -0.0429  0.0235
  239MOL0     C32161  12.243   8.253   2.474 -0.5536  0.9628 -0.3699
  239MOL0     C32162  12.377   8.224   2.511  0.5282  0.3202 -0.4050
  239MOL0     C32163  12.484   8.251   2.425  0.4824  0.2105  0.6010
  239MOL0     C32164  12.456   8.302   2.296  0.3053 -0.0979  0.6060
  239MOL0     O32165  12.565   8.333   2.209 -0.0721 -0.2649  0.5244
  239MOL0     C32166  12.700   8.354   2.264  0.0385 -0.2445  0.3892
  239MOL0     C32167  12.783   8.436   2.176  1.1219  0.3500  0.7004
  239MOL0     C32168  12.799   8.382   2.034  0.1726  0.0571  0.3615
  239MOL0     C32169  12.758   8.495   1.933  1.0164  0.0425 -0.3326
  239MOL0     C32170  12.775   8.461   1.787 -0.0719 -0.2445 -0.1990
  239MOL0     C32171  12.922   8.461   1.753 -0.2354  0.4541 -0.1405
  239MOL0     C32172  12.942   8.459   1.608 -0.2501  0.4535  0.4053
  239MOL0     C32173  12.959   8.605   1.551 -0.0383 -0.8209 -0.6266
  239MOL0    Cl32174  13.115   8.683   1.615 -0.0248  0.2137  0.0547
  239MOL0     C32175  12.327   8.318   2.259  0.0024 -0.9289  0.7764
  239MOL0     C32176  12.219   8.303   2.345 -0.5581 -0.3169  0.3971
  239MOL0     O32177  12.201   8.138   2.743 -0.8416 -0.2815  0.0070
  239MOL0     C32178  11.933   8.132   2.840 -0.1491 -0.5039  1.0161
  239MOL0     C32179  11.808   8.161   2.896  0.4572  0.4902 -0.1264
  239MOL0     N32180  11.151   8.651   2.993 -0.2217  0.0335 -0.7157
  239MOL0     N32181  11.100   8.755   2.938  0.0112 -0.0300 -0.3385
  239MOL0     C32182   9.951   8.679   2.346  0.8176  0.2041  0.0945
  239MOL0     C32183   9.846   8.690   2.258  0.0591  0.1593 -0.4823
  239MOL0     C32184   9.598   8.790   1.906 -0.8191 -0.4279  0.5231
  239MOL0     C32185   9.538   8.676   1.849 -0.0548  1.1730  0.2917
  239MOL0     C32186   9.416   8.674   1.779  0.0684  0.1551  0.0607
  239MOL0     C32187   9.350   8.797   1.762 -0.4703 -0.0560  0.3150
  239MOL0     O32188   9.233   8.807   1.691  0.5669 -0.5289 -0.3735
  239MOL0     C32189   9.148   8.692   1.687 -0.6424  0.0636 -0.0881
  239MOL0     C32190   9.015   8.727   1.614  0.0477 -0.6666 -0.4044
  239MOL0     C32191   8.940   8.609   1.546 -0.6647  1.1304 -0.2346
  239MOL0     C32192   8.814   8.647   1.467 -0.2382  0.9165  0.3392
  239MOL0     C32193   8.690   8.670   1.542  0.7388  0.3846  0.6554
  239MOL0     C32194   8.592   8.704   1.590  0.1570 -0.2269 -0.3923
  239MOL0     C32195   9.408   8.915   1.814  0.7653  0.5804 -0.4503
  239MOL0     C32196   9.531   8.918   1.886  0.5735  1.9839  0.1246
  239MOL0     C32197   9.592   9.043   1.934  0.8347 -0.8077 -0.3073
  239MOL0     H32198  10.008   8.578   1.968  1.2042  2.4397 -0.2886
  239MOL0     H32199  10.189   8.592   2.119  0.2525  3.6729 -0.3350
  239MOL0     H32200  10.212   8.825   2.456 -0.2772  1.3795  1.3077
  239MOL0     H32201  10.112   8.714   2.560  1.5179 -2.0690  0.7744
  239MOL0     H32202  10.408   8.670   2.506 -0.8360 -1.5937 -0.0285
  239MOL0     H32203  10.299   8.588   2.624 -2.3714 -0.5061 -2.3180
  239MOL0     H32204  10.289   8.813   2.734  0.6923  2.3578 -0.8928
  239MOL0     H32205  10.396   8.879   2.613 -1.5867  0.2636 -0.7587
  239MOL0     H32206  10.508   8.844   2.807  1.5809  0.9678 -1.8529
  239MOL0     H32207  10.493   8.673   2.804  3.6321 -0.4119  0.7010
  239MOL0     H32208  10.610   8.671   2.578 -0.7524  1.6282 -2.4012
  239MOL0     H32209  10.619   8.839   2.576 -0.3559 -1.7251 -2.1994
  239MOL0     H32210  10.754   8.869   2.776 -2.8201 -0.8140  1.2959
  239MOL0     H32211  10.770   8.689   2.801 -1.1629 -0.4001  1.0282
  239MOL0     H32212  10.865   8.846   2.564 -2.0141 -0.0603  1.1014
  239MOL0     H32213  10.887   8.670   2.585 -2.5437 -0.8860 -0.1236
  239MOL0     H32214  11.107   8.817   2.630  0.9018  1.9773  2.5222
  239MOL0     H32215  11.012   8.907   2.744  0.9280  1.9205 -1.1382
  239MOL0     H32216  11.122   8.539   2.697 -1.5638 -2.6609  1.1588
  239MOL0     H32217  11.158   8.363   3.030  2.0180 -2.3579  0.3057
  239MOL0     H32218  11.097   8.358   2.864 -1.4757 -0.3435  1.7874
  239MOL0     H32219  11.338   8.258   2.890  0.0400 -0.6654 -0.1909
  239MOL0     H32220  11.339   8.398   2.780 -0.7309  0.8410  0.4015
  239MOL0     H32221  11.425   8.382   3.068 -0.0484 -1.6562 -0.5095
  239MOL0     H32222  11.391   8.529   2.990 -2.2093  0.1458 -3.1138
  239MOL0     H32223  11.626   8.498   2.968  0.5548  1.1637 -2.0387
  239MOL0     H32224  11.552   8.443   2.806 -1.4016 -3.2473 -0.3461
  239MOL0     H32225  11.741   8.450   2.714 -2.4956 -1.0473  0.1357
  239MOL0     H32226  11.929   8.370   2.603 -0.9190 -0.3603 -0.6022
  239MOL0     H32227  12.404   8.182   2.607  2.7952  0.5996 -0.8658
  239MOL0     H32228  12.583   8.228   2.463  0.8113  2.0966  0.9704
  239MOL0     H32229  12.702   8.406   2.360 -2.0720 -2.1926  1.5768
  239MOL0     H32230  12.745   8.254   2.269 -0.9760 -0.7060  0.4809
  239MOL0     H32231  12.751   8.540   2.183 -4.8929 -0.9182 -1.1312
  239MOL0     H32232  12.883   8.431   2.219  1.0423 -2.4305  0.7615
  239MOL0     H32233  12.905   8.359   2.016  0.3488  0.7131  0.5238
  239MOL0     H32234  12.751   8.286   2.016  1.8377 -0.4193 -1.9541
  239MOL0     H32235  12.809   8.588   1.960  0.0341  0.6464 -0.4929
  239MOL0     H32236  12.653   8.523   1.949  0.6559 -2.0703  1.5015
  239MOL0     H32237  12.727   8.540   1.728 -0.4228 -0.4920 -0.2469
  239MOL0     H32238  12.737   8.360   1.766  1.9491 -1.5934  2.1645
  239MOL0     H32239  12.977   8.545   1.796  1.2985 -0.3286 -0.5302
  239MOL0     H32240  12.973   8.371   1.787  2.0724  1.9265  0.5109
  239MOL0     H32241  12.853   8.415   1.561  0.8589  0.7250 -2.0926
  239MOL0     H32242  13.028   8.397   1.582 -1.6306 -1.6394  0.4796
  239MOL0     H32243  12.960   8.598   1.441  4.4888  0.4365 -0.8518
  239MOL0     H32244  12.867   8.661   1.570  0.0415  0.3615 -3.2811
  239MOL0     H32245  12.289   8.350   2.163 -2.6949 -0.2412  1.9939
  239MOL0     H32246  12.119   8.328   2.310 -0.2627 -0.1011 -0.2962
  239MOL0     H32247  11.997   8.055   2.881  1.7516  0.6139  0.2512
  239MOL0     H32248  11.761   8.108   2.978 -0.9992  0.5949 -0.8569
  239MOL0     H32249   9.948   8.726   2.443  1.8487 -2.0890  1.3118
  239MOL0     H32250   9.751   8.730   2.293  0.3983 -0.5561  1.3613
  239MOL0     H32251   9.578   8.576   1.860  1.1238  1.3988 -1.6142
  239MOL0     H32252   9.380   8.579   1.740 -0.2754  0.5085 -0.5010
  239MOL0     H32253   9.120   8.659   1.788 -1.2994 -1.7554 -0.8263
  239MOL0     H32254   9.195   8.607   1.637 -1.0139 -0.1712 -0.0427
  239MOL0     H32255   9.032   8.816   1.554 -1.4591 -0.9798 -1.3435
  239MOL0     H32256   8.951   8.769   1.692  0.6646  0.9523 -0.7342
  239MOL0     H32257   8.903   8.541   1.623 -0.9415  1.0888 -0.4020
  239MOL0     H32258   9.002   8.542   1.485 -0.3677  1.0769  0.1241
  239MOL0     H32259   8.836   8.733   1.403 -2.2355  0.5551 -0.9286
  239MOL0     H32260   8.788   8.560   1.405 -0.3229  0.8362  0.4869
  239MOL0     H32261   8.496   8.738   1.623 -0.2978 -1.4720 -0.3943
  239MOL0     H32262   9.354   9.008   1.798 -0.7233 -0.6816 -3.8312
  239MOL0     H32263   9.686   9.071   1.885  0.7649 -2.2427 -1.3047
  239MOL0     H32264   9.537   9.137   1.919  1.9656  0.1729  1.3055
  239MOL0     H32265   9.606   9.026   2.042  0.5734 -2.7962 -0.5581
  240MOL0     O32266  10.094   8.401   8.134  0.3850  0.2943 -0.0378
  240MOL0     C32267  10.088   8.520   8.165  0.5599 -0.3815 -0.4418
  240MOL0     O32268  10.181   8.623   8.157  0.0507  0.6964 -0.8459
  240MOL0     C32269  10.309   8.587   8.118  0.1448  0.4275  0.5318
  240MOL0     C32270  10.366   8.636   7.996 -0.4152 -0.4642  0.0623
  240MOL0     C32271  10.498   8.631   7.966  0.0014  0.2090  0.3834
  240MOL0     C32272  10.590   8.579   8.060  0.3056  0.3283 -0.3432
  240MOL0     O32273  10.725   8.557   8.048 -0.3096 -0.0368  0.8049
  240MOL0     C32274  10.784   8.583   7.918 -0.2067 -0.0518  0.0355
  240MOL0     C32275  10.784   8.455   7.819 -0.7347 -0.2880 -0.2610
  240MOL0     C32276  10.900   8.471   7.699  0.5008 -0.2617  0.0701
  240MOL0     C32277  10.881   8.604   7.613  0.9841 -0.3937 -0.6323
  240MOL0     C32278  10.952   8.735   7.684 -0.2392  0.0798  0.3118
  240MOL0     C32279  10.980   8.850   7.574 -0.3903  0.1524 -1.3334
  240MOL0     C32280  11.061   8.972   7.632 -0.3129 -0.0719 -0.6928
  240MOL0     C32281  11.144   9.048   7.534 -0.1896 -0.1557  0.4517
  240MOL0     N32282  11.258   8.961   7.488  0.5415 -0.0494  0.3306
  240MOL0     C32283  11.348   8.906   7.572 -0.3305 -1.3318  0.0163
  240MOL0     C32284  11.426   8.827   7.490 -0.6191  0.9067 -0.2041
  240MOL0     C32285  11.547   8.734   7.525  0.6875 -0.2161 -0.5529
  240MOL0     C32286  11.678   8.808   7.512  0.3132  0.5774 -0.5303
  240MOL0     C32287  11.736   8.851   7.377 -0.5858 -0.2571  0.1174
  240MOL0     C32288  11.891   8.854   7.388  0.5379  0.7773  0.1311
  240MOL0     O32289  11.939   8.941   7.493 -0.3003  0.6265 -0.2909
  240MOL0     C32290  12.080   8.964   7.504 -0.5935 -0.6951  0.2311
  240MOL0     C32291  12.164   8.901   7.411  0.6583 -0.4247 -0.0604
  240MOL0     C32292  12.298   8.919   7.426 -0.5061  0.7646 -0.0394
  240MOL0     C32293  12.357   9.007   7.525  0.1321 -0.1578 -0.2013
  240MOL0     C32294  12.498   9.035   7.522 -0.5518  0.3702  0.9205
  240MOL0     O32295  12.540   9.108   7.629  0.2342 -0.7695 -0.7971
  240MOL0     C32296  12.670   9.129   7.651  0.1219  0.4850 -0.0294
  240MOL0     C32297  12.739   9.247   7.619  0.3091 -0.1488 -0.1904
  240MOL0     C32298  12.872   9.255   7.650 -0.4757  0.6748  0.4902
  240MOL0     C32299  12.938   9.151   7.721  0.0022  1.1890 -0.1881
  240MOL0     O32300  13.069   9.159   7.763  0.2798  0.4171 -0.4784
  240MOL0     C32301  13.139   9.288   7.771 -0.8661  1.3500  0.4376
  240MOL0     C32302  13.210   9.318   7.639  1.2072 -0.3086  0.0449
  240MOL0     C32303  13.315   9.205   7.612  0.6826  0.2707  0.6321
  240MOL0     C32304  13.415   9.255   7.512  0.2494 -0.5229  0.0455
  240MOL0     C32305  13.503   9.136   7.473  0.6492 -0.4683 -1.0102
  240MOL0     C32306  13.588   9.074   7.592  0.0264 -0.2282  0.3727
  240MOL0     C32307  13.718   9.006   7.538 -0.1414 -0.2417 -0.2469
  240MOL0     C32308  13.825   9.115   7.521 -0.7414 -0.1016  0.4186
  240MOL0    Cl32309  13.963   9.038   7.423  0.2645 -0.0545  0.2378
  240MOL0     C32310  12.870   9.037   7.752 -0.3441  0.1915  0.5507
  240MOL0     C32311  12.741   9.024   7.708  0.6038  0.3983  0.2706
  240MOL0     O32312  12.566   8.989   7.430  0.2987 -0.2614  0.0046
  240MOL0     C32313  12.276   9.060   7.617  0.1833  0.2984 -0.4111
  240MOL0     C32314  12.137   9.041   7.603  0.1822 -0.0988  0.3481
  240MOL0     N32315  11.373   8.826   7.358  0.1336 -0.3567  0.0415
  240MOL0     N32316  11.277   8.918   7.355 -1.0216  0.6626  0.2161
  240MOL0     C32317  10.533   8.524   8.177 -0.0033 -0.1945  0.4338
  240MOL0     C32318  10.397   8.525   8.201  0.0041 -0.2781 -0.0598
  240MOL0     C32319   9.952   8.569   8.210 -0.3994  0.4571  0.6463
  240MOL0     C32320   9.920   8.707   8.193  0.0933  0.6598 -0.6253
  240MOL0     C32321   9.800   8.765   8.243 -0.3082  0.5439  0.2661
  240MOL0     C32322   9.700   8.688   8.299 -0.2368  0.1297  1.0884
  240MOL0     O32323   9.589   8.749   8.342 -0.2138  0.2531  0.2954
  240MOL0     C32324   9.474   8.672   8.366  0.4513 -0.1054  0.1445
  240MOL0     C32325   9.350   8.767   8.404 -0.3521 -0.1639 -1.0954
  240MOL0     C32326   9.236   8.687   8.456  0.3986 -0.5594  0.2539
  240MOL0     C32327   9.109   8.767   8.498  0.2739  0.3617  0.7253
  240MOL0     C32328   9.077   8.855   8.390 -0.9865 -0.9598  0.3626
  240MOL0     C32329   9.050   8.925   8.300  0.8009  0.0130 -0.2688
  240MOL0     C32330   9.728   8.547   8.312 -0.3578 -0.7081 -0.3702
  240MOL0     C32331   9.851   8.484   8.266 -0.4394  0.3223  0.1198
  240MOL0     C32332   9.871   8.333   8.294  1.0037 -0.6755  0.6352
  240MOL0     H32333  10.307   8.697   7.929  0.1933 -0.4203 -0.4480
  240MOL0     H32334  10.533   8.687   7.880 -0.5457  2.3712  1.5145
  240MOL0     H32335  10.735   8.666   7.865 -3.7973 -0.4164  2.4557
  240MOL0     H32336  10.888   8.614   7.927 -0.9434  2.7331  0.0056
  240MOL0     H32337  10.685   8.439   7.774 -0.5762 -0.2622 -0.6250
  240MOL0     H32338  10.812   8.374   7.887  2.4689  0.6620 -0.3116
  240MOL0     H32339  10.910   8.387   7.629 -1.3220  0.1854 -0.7711
  240MOL0     H32340  10.995   8.474   7.753  1.0916 -0.7916 -0.9093
  240MOL0     H32341  10.913   8.597   7.508 -0.7962  5.2572 -1.8724
  240MOL0     H32342  10.773   8.614   7.604  0.4482 -3.7983  0.3503
  240MOL0     H32343  10.886   8.782   7.757  0.9493  0.7657  0.9744
  240MOL0     H32344  11.045   8.702   7.732 -0.1792 -1.4812 -0.7850
  240MOL0     H32345  11.044   8.805   7.498 -0.9639 -2.7977 -0.2031
  240MOL0     H32346  10.887   8.881   7.526  1.0586  0.1338 -4.3715
  240MOL0     H32347  11.125   8.943   7.716 -0.2063 -0.5298 -0.9326
  240MOL0     H32348  10.982   9.034   7.676 -0.7090 -0.7584 -0.4187
  240MOL0     H32349  11.074   9.072   7.454  0.9063  0.8019 -0.2600
  240MOL0     H32350  11.170   9.142   7.583 -1.3330  1.6703 -2.2289
  240MOL0     H32351  11.367   8.917   7.678  0.8088  0.2078 -0.3122
  240MOL0     H32352  11.545   8.702   7.630  1.0218 -0.9784 -0.7725
  240MOL0     H32353  11.541   8.642   7.466  2.5031 -1.3707  0.8995
  240MOL0     H32354  11.662   8.904   7.563  2.2601  0.4864  0.3163
  240MOL0     H32355  11.760   8.757   7.562 -0.5567 -2.5238 -2.0384
  240MOL0     H32356  11.710   8.957   7.366  4.4421  1.2135 -0.0528
  240MOL0     H32357  11.699   8.787   7.297  1.9363  1.3976 -2.5812
  240MOL0     H32358  11.935   8.896   7.297  0.3380  1.1928  0.2268
  240MOL0     H32359  11.930   8.751   7.389 -2.6003 -0.5307  1.0153
  240MOL0     H32360  12.135   8.829   7.334  1.3262 -6.6753  4.7126
  240MOL0     H32361  12.361   8.861   7.360 -1.3914 -1.5133  1.0173
  240MOL0     H32362  12.684   9.332   7.578  1.2776  2.0266  2.6693
  240MOL0     H32363  12.930   9.344   7.628 -0.1933  0.1947 -0.7530
  240MOL0     H32364  13.070   9.369   7.795 -1.7076  1.2814 -1.5292
  240MOL0     H32365  13.219   9.283   7.845  1.6201  0.9580 -2.0827
  240MOL0     H32366  13.136   9.322   7.559 -0.2375  3.4469  1.3488
  240MOL0     H32367  13.271   9.406   7.655  1.1003 -0.8037  4.5506
  240MOL0     H32368  13.375   9.189   7.702  0.8541  1.5869  0.7689
  240MOL0     H32369  13.262   9.117   7.575  5.3722 -1.8401 -1.9887
  240MOL0     H32370  13.469   9.337   7.559 -2.3011 -0.4367  3.1208
  240MOL0     H32371  13.365   9.297   7.423  2.7029 -0.2106 -1.2554
  240MOL0     H32372  13.573   9.181   7.403  2.5969 -0.5830  0.7757
  240MOL0     H32373  13.446   9.059   7.421  0.9095 -1.4161  0.0661
  240MOL0     H32374  13.620   9.154   7.660 -3.0181  1.6006 -0.1645
  240MOL0     H32375  13.524   9.003   7.644  0.5809  0.8158  2.6151
  240MOL0     H32376  13.700   8.949   7.447  0.5235 -2.9089  1.1977
  240MOL0     H32377  13.752   8.931   7.609  6.1804  0.7433 -1.6742
  240MOL0     H32378  13.788   9.205   7.471 -1.0690  0.0941  1.0162
  240MOL0     H32379  13.866   9.140   7.619  1.8127 -2.4858  0.0943
  240MOL0     H32380  12.914   8.958   7.812 -1.6734 -0.4558  0.7336
  240MOL0     H32381  12.695   8.928   7.729  2.4375 -1.6898 -4.0490
  240MOL0     H32382  12.308   9.126   7.697 -0.1262 -1.6776  1.4323
  240MOL0     H32383  12.077   9.079   7.685  4.0359  2.2433  2.3544
  240MOL0     H32384  10.596   8.469   8.247 -0.8352 -0.3482  1.0728
  240MOL0     H32385  10.349   8.482   8.288 -2.3902 -2.6879 -2.3747
  240MOL0     H32386  10.000   8.758   8.140  0.5783 -0.6756 -1.2226
  240MOL0     H32387   9.792   8.873   8.232 -1.3030  0.7930  2.7377
  240MOL0     H32388   9.501   8.602   8.446  1.9683  1.3701  0.9884
  240MOL0     H32389   9.459   8.618   8.272 -0.8749  0.4421  0.0177
  240MOL0     H32390   9.331   8.826   8.313  2.6519  1.1600 -1.0025
  240MOL0     H32391   9.376   8.838   8.483 -1.6340 -0.9584  0.0745
  240MOL0     H32392   9.262   8.625   8.542  2.7406  0.2922  0.2408
  240MOL0     H32393   9.207   8.614   8.381 -0.3542 -0.0553  0.0380
  240MOL0     H32394   9.032   8.688   8.502  0.1779  0.4087 -0.0527
  240MOL0     H32395   9.116   8.809   8.598 -1.2323  0.0679  0.9749
  240MOL0     H32396   9.022   8.992   8.222 -2.6141  0.9957  1.6031
  240MOL0     H32397   9.653   8.481   8.353  0.1068  0.9505  3.6702
  240MOL0     H32398   9.813   8.303   8.382 -0.0793 -0.4080  0.0393
  240MOL0     H32399   9.838   8.278   8.206 -1.4957 -0.0723  1.1063
  240MOL0     H32400   9.977   8.312   8.305  1.5629  0.8231 -1.2556
  241MOL0     O32401   2.863   5.646   9.432  0.9975  0.0581 -0.9819
  241MOL0     C32402   2.857   5.636   9.311 -0.0434  0.3115 -0.7214
  241MOL0     O32403   2.945   5.574   9.235  0.3555  0.2386  0.2785
  241MOL0     C32404   3.055   5.511   9.284 -0.0891 -0.2455  0.1723
  241MOL0     C32405   3.172   5.502   9.212 -0.9974 -0.0724 -0.0174
  241MOL0     C32406   3.295   5.459   9.263 -0.7062  0.2746 -1.3990
  241MOL0     C32407   3.297   5.411   9.394  0.0751  0.7819  0.4481
  241MOL0     O32408   3.409   5.356   9.457  0.2427  0.3841 -0.4239
  241MOL0     C32409   3.542   5.378   9.405  0.0192 -0.1224  0.4146
  241MOL0     C32410   3.580   5.247   9.327 -0.2940  0.6510 -0.1437
  241MOL0     C32411   3.729   5.242   9.311 -0.5312 -0.3069  0.2652
  241MOL0     C32412   3.774   5.144   9.205  0.3491  0.2373  0.5718
  241MOL0     C32413   3.924   5.144   9.194  0.2789 -0.6750 -0.1072
  241MOL0     C32414   3.959   5.069   9.064  0.4644 -0.7825 -0.8713
  241MOL0     C32415   4.084   4.998   9.071  0.0756  0.1964 -0.3337
  241MOL0     C32416   4.166   5.008   8.944  0.1510  0.0284  0.0710
  241MOL0     N32417   4.292   4.942   8.958 -0.2713  0.4506  0.3298
  241MOL0     C32418   4.312   4.804   8.972  0.1542 -0.0583 -0.6491
  241MOL0     C32419   4.449   4.803   9.004  0.2922  0.2010  0.3126
  241MOL0     C32420   4.526   4.677   9.026  0.4044 -0.0409 -0.2652
  241MOL0     C32421   4.582   4.604   8.893 -0.0767 -0.0015  0.2097
  241MOL0     C32422   4.672   4.696   8.806 -1.2491 -0.6772  0.3339
  241MOL0     C32423   4.798   4.758   8.865 -0.3874  0.0068  0.0492
  241MOL0     O32424   4.880   4.642   8.907  0.3652 -0.8329 -0.5967
  241MOL0     C32425   5.018   4.658   8.913  0.4085 -0.0991 -0.2932
  241MOL0     C32426   5.079   4.776   8.922 -0.0235 -0.6690  1.1185
  241MOL0     C32427   5.213   4.781   8.945  0.1832 -0.5853 -0.5331
  241MOL0     C32428   5.295   4.667   8.956 -0.1774  0.3582 -0.6011
  241MOL0     C32429   5.442   4.667   8.985  0.0288 -0.4455  0.2988
  241MOL0     O32430   5.497   4.553   9.014  0.3128 -0.5597 -0.0165
  241MOL0     C32431   5.630   4.556   9.058  0.3714 -0.1944 -0.1542
  241MOL0     C32432   5.731   4.566   8.961  0.2000 -0.2309  1.0441
  241MOL0     C32433   5.863   4.561   8.999 -0.2160 -0.6670 -0.8935
  241MOL0     C32434   5.892   4.547   9.135  0.2247  0.7729 -0.0455
  241MOL0     O32435   6.019   4.518   9.174 -0.2041 -0.3762 -0.0291
  241MOL0     C32436   6.043   4.406   9.252  0.1879 -0.2531  0.0110
  241MOL0     C32437   6.183   4.351   9.215  0.3047  0.5211  0.1882
  241MOL0     C32438   6.217   4.214   9.274 -0.4887  0.6534  0.2672
  241MOL0     C32439   6.118   4.112   9.237  0.2125  0.3187  1.7319
  241MOL0     C32440   6.162   3.971   9.281 -0.0340  0.9154  0.2411
  241MOL0     C32441   6.050   3.870   9.254 -0.6876  0.7560 -0.0518
  241MOL0     C32442   5.930   3.893   9.352 -0.7559  0.3127  0.4984
  241MOL0     C32443   5.855   3.766   9.364 -0.7729 -0.5443  1.1055
  241MOL0    Cl32444   5.714   3.800   9.470  0.2231  0.2414 -0.0136
  241MOL0     C32445   5.791   4.539   9.233  0.4478  0.1620  0.1211
  241MOL0     C32446   5.654   4.546   9.195 -0.3576  1.0420  0.5494
  241MOL0     O32447   5.499   4.779   8.984 -0.1011  0.6674  0.0631
  241MOL0     C32448   5.229   4.543   8.938 -0.2608  0.1167 -0.5779
  241MOL0     C32449   5.092   4.538   8.920  0.5285 -1.5228  0.8125
  241MOL0     N32450   4.506   4.934   9.002  0.0669  0.7421  0.0975
  241MOL0     N32451   4.407   5.013   8.966 -0.0602 -0.3458  0.4894
  241MOL0     C32452   3.181   5.394   9.461 -0.5567 -0.6227 -0.0752
  241MOL0     C32453   3.059   5.448   9.412 -0.2028  0.0034 -0.1332
  241MOL0     C32454   2.728   5.689   9.249 -0.1364 -0.2102  0.1227
  241MOL0     C32455   2.747   5.773   9.135  0.5589 -0.3405  0.2643
  241MOL0     C32456   2.639   5.845   9.074 -0.0863  0.3885 -0.6841
  241MOL0     C32457   2.517   5.834   9.128 -0.2457  0.3859 -0.7478
  241MOL0     O32458   2.420   5.912   9.060 -0.4788 -0.0689 -0.3298
  241MOL0     C32459   2.303   5.953   9.123  0.6717  0.1255 -0.2928
  241MOL0     C32460   2.328   6.059   9.230 -0.9221  1.5949 -0.5274
  241MOL0     C32461   2.393   6.189   9.185  0.4419 -0.5312 -0.1896
  241MOL0     C32462   2.413   6.300   9.295 -0.4994 -0.5403  0.6750
  241MOL0     C32463   2.284   6.337   9.350  0.5133 -0.2847 -0.0161
  241MOL0     C32464   2.168   6.361   9.386  0.4914 -0.3535 -0.8575
  241MOL0     C32465   2.489   5.746   9.236  0.7142 -0.3392  0.3658
  241MOL0     C32466   2.587   5.668   9.292 -0.1764 -0.2635  0.1026
  241MOL0     C32467   2.550   5.577   9.407  0.6106  0.7883 -0.3854
  241MOL0     H32468   3.167   5.547   9.113  0.7231  0.5120  0.1203
  241MOL0     H32469   3.386   5.458   9.204  1.7944 -2.6771  2.0265
  241MOL0     H32470   3.541   5.462   9.335 -1.3274 -1.7666 -1.6563
  241MOL0     H32471   3.619   5.401   9.479  0.8931  0.9108 -0.7705
  241MOL0     H32472   3.525   5.257   9.233  1.8776  1.8539 -1.3678
  241MOL0     H32473   3.550   5.154   9.376 -0.5033  0.1177 -1.2602
  241MOL0     H32474   3.769   5.196   9.402  2.1993 -1.3919 -1.3551
  241MOL0     H32475   3.782   5.336   9.296  1.0762 -1.6289 -4.0235
  241MOL0     H32476   3.741   5.043   9.230 -0.4632 -0.0808 -1.5668
  241MOL0     H32477   3.737   5.189   9.112 -1.1428  0.4583  1.2383
  241MOL0     H32478   3.967   5.244   9.197  1.8080 -1.3131  0.2564
  241MOL0     H32479   3.972   5.088   9.275 -0.3630 -0.9840  0.0724
  241MOL0     H32480   3.884   4.994   9.038  1.1535 -0.3884 -4.5412
  241MOL0     H32481   3.959   5.140   8.981 -0.9165 -0.3830 -0.5408
  241MOL0     H32482   4.073   4.890   9.089 -1.9137  0.9639  4.6200
  241MOL0     H32483   4.154   5.036   9.146  0.4168  2.1134 -1.5553
  241MOL0     H32484   4.109   4.969   8.859 -0.3703  1.4816 -0.2674
  241MOL0     H32485   4.178   5.113   8.916 -1.4023  0.2867  0.3091
  241MOL0     H32486   4.234   4.728   8.971  2.3866 -2.5128  0.6019
  241MOL0     H32487   4.604   4.696   9.100 -0.9156  3.2773  0.4303
  241MOL0     H32488   4.464   4.597   9.069  0.2475  0.7147  0.9775
  241MOL0     H32489   4.641   4.517   8.920  1.7589  1.8098  2.3869
  241MOL0     H32490   4.488   4.566   8.850  0.2303 -0.6618  0.1105
  241MOL0     H32491   4.608   4.766   8.752 -3.1579 -0.4055  2.7437
  241MOL0     H32492   4.712   4.626   8.732 -1.8748 -0.5948 -0.0917
  241MOL0     H32493   4.785   4.820   8.954 -0.2412  0.3729 -0.1819
  241MOL0     H32494   4.841   4.812   8.780  1.0362 -1.0309  0.0797
  241MOL0     H32495   5.021   4.868   8.922 -0.2818 -0.8123 -0.3431
  241MOL0     H32496   5.262   4.873   8.973 -2.4042  0.6617  0.2881
  241MOL0     H32497   5.714   4.578   8.855 -3.4279 -0.4279  1.4760
  241MOL0     H32498   5.934   4.543   8.919 -0.0651  1.9850 -1.4536
  241MOL0     H32499   6.034   4.424   9.360  2.2159  2.3681 -0.1659
  241MOL0     H32500   5.964   4.332   9.235  0.2445 -0.5237  0.8698
  241MOL0     H32501   6.200   4.349   9.107 -0.1983 -0.3929  0.1135
  241MOL0     H32502   6.258   4.416   9.261  0.5392 -0.2206  0.8843
  241MOL0     H32503   6.318   4.189   9.240 -0.1181  3.2008 -0.7831
  241MOL0     H32504   6.225   4.215   9.383 -2.1624 -0.7295  0.4309
  241MOL0     H32505   6.120   4.104   9.128  1.6056  1.8187  1.6044
  241MOL0     H32506   6.020   4.133   9.279 -0.4358 -1.0203  0.9530
  241MOL0     H32507   6.181   3.961   9.388 -1.0788 -0.0959  0.3622
  241MOL0     H32508   6.248   3.945   9.220 -3.1177 -0.3119 -4.0808
  241MOL0     H32509   6.017   3.852   9.151 -1.9779 -2.7992  0.8010
  241MOL0     H32510   6.085   3.778   9.302 -3.4319 -0.0663  0.5679
  241MOL0     H32511   5.866   3.979   9.332 -0.0519  2.1716  4.9437
  241MOL0     H32512   5.980   3.903   9.449  0.5583 -2.1837  0.1751
  241MOL0     H32513   5.817   3.731   9.268  1.8183  1.8780 -0.9770
  241MOL0     H32514   5.912   3.681   9.404 -2.1981 -4.1279 -3.6019
  241MOL0     H32515   5.815   4.515   9.336  1.2495 -0.2343 -0.1430
  241MOL0     H32516   5.582   4.530   9.274 -0.1652  0.7380  0.6685
  241MOL0     H32517   5.280   4.448   8.948  1.0320  0.9703  1.5877
  241MOL0     H32518   5.049   4.439   8.907  0.4991 -1.5097  0.8116
  241MOL0     H32519   3.182   5.351   9.560 -1.7128 -1.3211 -0.3478
  241MOL0     H32520   2.971   5.444   9.475 -1.8578 -1.9861 -2.3837
  241MOL0     H32521   2.841   5.809   9.094  1.2167 -2.1642  0.0900
  241MOL0     H32522   2.664   5.906   8.988  0.3919  0.1319 -0.7287
  241MOL0     H32523   2.245   5.868   9.159  0.9706  0.6621  1.5478
  241MOL0     H32524   2.235   5.998   9.050 -0.8239 -2.1704 -0.4114
  241MOL0     H32525   2.388   6.013   9.309 -2.0744 -0.3803 -0.7221
  241MOL0     H32526   2.233   6.080   9.282 -1.7698 -1.5772 -0.5521
  241MOL0     H32527   2.351   6.237   9.096  2.7378 -0.2805 -1.2320
  241MOL0     H32528   2.492   6.168   9.143  1.3010  3.4378 -0.6223
  241MOL0     H32529   2.475   6.256   9.373  0.9684 -2.2027 -1.3252
  241MOL0     H32530   2.460   6.389   9.253 -0.0658 -1.4043 -0.7420
  241MOL0     H32531   2.074   6.381   9.434  0.9818  0.7168 -0.2924
  241MOL0     H32532   2.390   5.733   9.279  0.3766 -3.4876 -1.0593
  241MOL0     H32533   2.592   5.605   9.504  0.8678 -1.5067  0.2308
  241MOL0     H32534   2.444   5.557   9.426  1.1554 -0.4013  1.7804
  241MOL0     H32535   2.585   5.476   9.385  1.6481  0.8392  0.9112
  242MOL0     O32536   3.650   4.727   5.045 -0.1273 -0.2459 -0.6909
  242MOL0     C32537   3.594   4.811   4.968  0.6292  0.8858 -0.6018
  242MOL0     O32538   3.652   4.926   4.933 -0.0865 -0.2877 -0.7111
  242MOL0     C32539   3.776   4.956   4.981 -0.3995  0.2941  1.3413
  242MOL0     C32540   3.891   4.886   4.934 -0.1906  0.6348  0.7299
  242MOL0     C32541   4.019   4.910   4.997 -0.4529 -0.2576 -0.7038
  242MOL0     C32542   4.038   5.008   5.098  1.3166 -0.0538 -0.3387
  242MOL0     O32543   4.154   5.030   5.154 -0.7517  0.2573  0.2769
  242MOL0     C32544   4.163   5.132   5.247  0.3728  0.3451 -0.2945
  242MOL0     C32545   4.308   5.133   5.295  1.0236 -0.3897  0.5656
  242MOL0     C32546   4.404   5.170   5.186 -0.0459 -1.1212  0.2651
  242MOL0     C32547   4.411   5.071   5.067 -0.3150  0.3786 -0.6481
  242MOL0     C32548   4.558   5.049   5.035  0.2923 -0.3822 -0.6633
  242MOL0     C32549   4.630   4.939   5.095 -0.5323  0.6268  0.8589
  242MOL0     C32550   4.767   4.930   5.038  0.1431 -0.5281  0.7994
  242MOL0     C32551   4.827   4.795   5.089  0.1280  0.1281 -0.5035
  242MOL0     N32552   4.972   4.786   5.073 -0.6306  0.2666 -0.0567
  242MOL0     C32553   5.035   4.782   4.948  0.1573 -0.3411  0.0329
  242MOL0     C32554   5.172   4.799   4.969 -1.3761 -0.7755 -0.6194
  242MOL0     C32555   5.288   4.820   4.869  0.2588  0.8002 -0.4626
  242MOL0     C32556   5.299   4.966   4.846 -0.0359 -0.5600 -0.5905
  242MOL0     C32557   5.379   4.979   4.724  0.2691 -0.0724  0.1686
  242MOL0     C32558   5.420   5.123   4.698  0.5142  0.8521  0.4321
  242MOL0     O32559   5.446   5.117   4.561  0.4578 -0.2397  0.6049
  242MOL0     C32560   5.582   5.126   4.540 -0.5985  0.3144 -0.5156
  242MOL0     C32561   5.640   5.255   4.512 -0.8934 -0.3887 -0.7413
  242MOL0     C32562   5.779   5.276   4.509 -0.0930 -0.0569 -0.3588
  242MOL0     C32563   5.866   5.162   4.508  0.0070 -0.1468  0.1313
  242MOL0     C32564   6.012   5.173   4.491 -0.1488  0.3182 -0.2953
  242MOL0     O32565   6.098   5.063   4.515  0.5765  0.4420 -0.9296
  242MOL0     C32566   6.231   5.090   4.545 -0.5546  0.1553 -0.4447
  242MOL0     C32567   6.325   5.010   4.485  0.0302 -0.1526  0.6276
  242MOL0     C32568   6.460   5.030   4.509  0.0701  0.3463 -0.6348
  242MOL0     C32569   6.511   5.132   4.585 -0.0970 -0.1268 -0.2176
  242MOL0     O32570   6.649   5.134   4.584 -0.2388  0.5541  0.6819
  242MOL0     C32571   6.717   5.242   4.646  0.0789 -0.2681  0.5280
  242MOL0     C32572   6.862   5.248   4.593 -0.2047 -0.0456  0.4920
  242MOL0     C32573   6.942   5.365   4.653  0.4003  0.6031  1.6870
  242MOL0     C32574   7.084   5.368   4.586 -0.0212 -0.3587  0.1617
  242MOL0     C32575   7.169   5.496   4.611 -0.3241  0.3466 -0.2054
  242MOL0     C32576   7.319   5.484   4.547  0.7242 -0.2388  0.6128
  242MOL0     C32577   7.417   5.593   4.601 -0.3122 -0.3321 -0.0344
  242MOL0     C32578   7.562   5.583   4.542  0.3912 -0.1676 -0.3232
  242MOL0    Cl32579   7.604   5.591   4.365  0.0084 -0.3436 -0.3619
  242MOL0     C32580   6.421   5.214   4.644 -0.0722  0.1867 -0.5533
  242MOL0     C32581   6.281   5.188   4.628 -0.8143 -0.9523 -0.4417
  242MOL0     O32582   6.047   5.287   4.456  0.7137  0.3315 -0.2114
  242MOL0     C32583   5.809   5.035   4.526  0.0372 -0.3059 -0.5749
  242MOL0     C32584   5.672   5.016   4.547 -0.0489 -0.6911  0.1928
  242MOL0     N32585   5.183   4.812   5.108  0.2497  0.3630 -0.2643
  242MOL0     N32586   5.067   4.805   5.165 -0.5609 -0.4242 -0.3396
  242MOL0     C32587   3.917   5.086   5.126 -0.4583  0.4119 -0.6021
  242MOL0     C32588   3.794   5.059   5.066 -0.6876  0.2561  0.3129
  242MOL0     C32589   3.468   4.776   4.892 -0.6055  0.3072 -0.8740
  242MOL0     C32590   3.389   4.882   4.842 -0.2211 -0.2688  0.1114
  242MOL0     C32591   3.257   4.860   4.807 -0.0089 -0.5659  0.4240
  242MOL0     C32592   3.209   4.738   4.795  0.0269  0.5811  0.4884
  242MOL0     O32593   3.085   4.718   4.736 -0.1418 -0.1675  0.2527
  242MOL0     C32594   3.012   4.834   4.677 -0.0954 -0.7708 -0.4996
  242MOL0     C32595   2.877   4.785   4.638 -0.2383 -0.1801  0.4251
  242MOL0     C32596   2.871   4.692   4.516 -0.5502 -0.2585  0.5417
  242MOL0     C32597   2.893   4.542   4.550  0.1275  0.5697 -0.8237
  242MOL0     C32598   2.769   4.501   4.623  0.5191 -1.0461 -0.6430
  242MOL0     C32599   2.672   4.487   4.696  1.2814  0.2463 -0.4692
  242MOL0     C32600   3.286   4.632   4.831 -0.1755 -0.0430 -0.3074
  242MOL0     C32601   3.415   4.644   4.879  0.2681 -0.1853 -0.3880
  242MOL0     C32602   3.481   4.512   4.911  0.7609  0.1460  0.4242
  242MOL0     H32603   3.877   4.807   4.861 -0.1121 -3.9393  5.1349
  242MOL0     H32604   4.100   4.842   4.970 -0.1370 -0.5373  0.7963
  242MOL0     H32605   4.128   5.223   5.197 -1.7814 -1.8106 -3.0147
  242MOL0     H32606   4.101   5.112   5.335 -0.0303 -0.7839 -0.8165
  242MOL0     H32607   4.329   5.038   5.344 -2.8608 -0.6689  2.1032
  242MOL0     H32608   4.304   5.214   5.369 -0.3538  0.4063 -0.3215
  242MOL0     H32609   4.500   5.171   5.237  0.5277  1.4671 -0.6980
  242MOL0     H32610   4.374   5.266   5.141  3.1758  0.9117  2.0559
  242MOL0     H32611   4.369   4.973   5.094 -1.2090  1.3512  1.7349
  242MOL0     H32612   4.367   5.106   4.974  1.0953 -0.6402 -1.7593
  242MOL0     H32613   4.551   5.043   4.926 -1.0625 -0.9140 -0.5680
  242MOL0     H32614   4.611   5.143   5.053  1.2663 -1.1205  0.4636
  242MOL0     H32615   4.635   4.958   5.203  0.6789  3.4741  0.3796
  242MOL0     H32616   4.585   4.840   5.087  2.8461 -1.1309  1.6110
  242MOL0     H32617   4.835   5.008   5.071 -2.1628  1.1558  1.9073
  242MOL0     H32618   4.756   4.924   4.930 -1.2318 -2.9943  0.9918
  242MOL0     H32619   4.801   4.777   5.194  1.3579  0.9144 -0.0428
  242MOL0     H32620   4.780   4.706   5.046  0.3107 -1.2522  1.9959
  242MOL0     H32621   4.985   4.779   4.852  3.4026  0.8855 -1.8778
  242MOL0     H32622   5.385   4.792   4.911  1.3332  5.5873  0.8564
  242MOL0     H32623   5.265   4.753   4.786  1.1181  0.0965 -0.1496
  242MOL0     H32624   5.202   5.016   4.838  0.6654  0.7162 -1.3429
  242MOL0     H32625   5.354   5.015   4.927  0.1310 -0.3218 -0.8490
  242MOL0     H32626   5.329   4.932   4.640  0.2961  0.7526 -0.3200
  242MOL0     H32627   5.464   4.914   4.746  2.3962  2.2429 -0.7185
  242MOL0     H32628   5.499   5.153   4.767  0.4074 -0.3541  1.1096
  242MOL0     H32629   5.334   5.188   4.719  1.5617  1.6348  2.6078
  242MOL0     H32630   5.576   5.343   4.501 -2.4564 -1.5089 -0.9972
  242MOL0     H32631   5.826   5.374   4.501 -1.3226  0.5042 -1.0196
  242MOL0     H32632   6.300   4.928   4.418 -0.8455  1.4699 -1.1416
  242MOL0     H32633   6.536   4.959   4.478 -0.0270  0.0971 -0.3111
  242MOL0     H32634   6.674   5.336   4.609 -0.5013 -0.9311 -0.5353
  242MOL0     H32635   6.710   5.235   4.755  0.4544 -1.9930  0.4699
  242MOL0     H32636   6.916   5.154   4.606  0.0599 -0.3510 -2.1520
  242MOL0     H32637   6.854   5.258   4.484 -1.2020 -1.0188  0.4606
  242MOL0     H32638   6.893   5.459   4.625  1.8090  1.0676  0.6477
  242MOL0     H32639   6.952   5.369   4.762 -1.1288  2.1296  1.8227
  242MOL0     H32640   7.080   5.355   4.477 -1.1386  1.0655 -0.0060
  242MOL0     H32641   7.136   5.279   4.621 -0.2233 -0.9242 -0.9184
  242MOL0     H32642   7.175   5.517   4.718  1.8655  2.3514 -0.6531
  242MOL0     H32643   7.125   5.585   4.565  1.7939  1.1291 -0.8491
  242MOL0     H32644   7.364   5.388   4.575  1.9118  0.2245  0.3823
  242MOL0     H32645   7.310   5.488   4.438 -1.1265 -1.2798  0.6864
  242MOL0     H32646   7.414   5.595   4.710  1.0402  2.2947  0.0304
  242MOL0     H32647   7.387   5.694   4.572  2.8832  0.4124 -1.0914
  242MOL0     H32648   7.613   5.665   4.593 -1.6266  1.5569 -0.9138
  242MOL0     H32649   7.591   5.480   4.563  0.4516 -0.4100 -1.5209
  242MOL0     H32650   6.451   5.298   4.706  0.3535  2.2048 -3.3253
  242MOL0     H32651   6.214   5.262   4.670 -1.3769  0.9459 -4.3055
  242MOL0     H32652   5.875   4.948   4.527 -0.7606 -0.9313 -1.1583
  242MOL0     H32653   5.614   4.926   4.567 -1.3532 -0.6249 -2.8126
  242MOL0     H32654   3.920   5.173   5.192  2.7860  0.4285 -0.5830
  242MOL0     H32655   3.708   5.114   5.100 -2.4254 -0.9072 -1.9354
  242MOL0     H32656   3.416   4.987   4.844 -2.4332  0.3854  3.0852
  242MOL0     H32657   3.212   4.955   4.782  2.3732  0.0910 -1.7788
  242MOL0     H32658   3.070   4.883   4.598 -0.2875  2.6169  1.2817
  242MOL0     H32659   2.990   4.898   4.763 -1.3616 -3.5110  1.3218
  242MOL0     H32660   2.834   4.881   4.606  0.9678 -0.0532 -0.8991
  242MOL0     H32661   2.818   4.748   4.722 -1.4605 -1.4465 -0.9311
  242MOL0     H32662   2.945   4.719   4.440 -1.2633  0.4917  0.1043
  242MOL0     H32663   2.780   4.705   4.458 -1.6792 -2.7941  1.5922
  242MOL0     H32664   2.906   4.485   4.457  1.5907 -1.5886  0.6101
  242MOL0     H32665   2.978   4.517   4.614 -0.2000 -3.2532 -1.6290
  242MOL0     H32666   2.584   4.490   4.756  1.0776  2.5649 -0.8136
  242MOL0     H32667   3.238   4.535   4.822  0.7669 -0.4353 -1.3924
  242MOL0     H32668   3.582   4.512   4.867  0.9660  0.9856  0.8681
  242MOL0     H32669   3.489   4.507   5.020 -1.9263  0.9309  0.7316
  242MOL0     H32670   3.435   4.417   4.883  1.1088 -0.2566  1.1902
  243MOL0     O32671   3.014   2.537   1.640 -0.5028  0.1805 -0.2206
  243MOL0     C32672   3.026   2.591   1.531 -0.2094  0.5821 -0.0978
  243MOL0     O32673   2.951   2.556   1.423  0.3896  0.0490  0.2658
  243MOL0     C32674   2.868   2.449   1.448  0.1197  0.1412 -0.4316
  243MOL0     C32675   2.732   2.469   1.432  0.0554 -0.4316  0.6814
  243MOL0     C32676   2.643   2.363   1.447  0.1533 -0.9853  0.4054
  243MOL0     C32677   2.688   2.235   1.477  0.1591 -0.2994  0.9665
  243MOL0     O32678   2.596   2.136   1.474 -0.1609  0.7927 -0.3083
  243MOL0     C32679   2.638   2.008   1.531  0.2897  0.7967  1.1274
  243MOL0     C32680   2.525   1.899   1.521  0.0195  0.2024 -0.2795
  243MOL0     C32681   2.408   1.948   1.601 -0.4866  0.5594  0.1408
  243MOL0     C32682   2.407   1.926   1.758 -0.3273  0.3798 -0.1778
  243MOL0     C32683   2.415   1.774   1.790  0.2630 -0.2919 -0.5532
  243MOL0     C32684   2.353   1.741   1.927  0.4597  0.6439 -0.5947
  243MOL0     C32685   2.362   1.591   1.950 -0.2294  0.2632 -0.0813
  243MOL0     C32686   2.354   1.560   2.097 -0.0332  0.2310 -0.4146
  243MOL0     N32687   2.478   1.612   2.166 -1.1879  0.4269  0.3208
  243MOL0     C32688   2.494   1.619   2.305  0.1134 -1.0728  0.2785
  243MOL0     C32689   2.627   1.599   2.333  0.6113 -0.1179  0.8033
  243MOL0     C32690   2.700   1.575   2.460 -0.4480 -0.0659 -0.2219
  243MOL0     C32691   2.676   1.681   2.559 -0.4025 -0.8012 -0.8454
  243MOL0     C32692   2.707   1.825   2.507  0.3052 -0.4502 -0.6235
  243MOL0     C32693   2.822   1.892   2.606 -0.7182  0.0015  0.3411
  243MOL0     O32694   2.933   1.813   2.584 -0.1454  0.9169  0.3103
  243MOL0     C32695   3.042   1.851   2.649 -0.0238 -0.2825 -0.5231
  243MOL0     C32696   3.093   1.767   2.744  0.0526 -0.6312  0.6032
  243MOL0     C32697   3.220   1.795   2.807 -0.2331  1.2063 -0.0802
  243MOL0     C32698   3.281   1.916   2.778 -0.1359 -0.2055 -0.3151
  243MOL0     C32699   3.405   1.953   2.847 -0.5795  0.2082  0.4182
  243MOL0     O32700   3.474   2.067   2.803  0.4387  0.0983  0.0364
  243MOL0     C32701   3.606   2.092   2.822 -0.2887  0.1352 -0.1814
  243MOL0     C32702   3.715   2.002   2.850  0.1309 -0.2398  0.5830
  243MOL0     C32703   3.848   2.056   2.866 -0.3275  0.1724 -0.6575
  243MOL0     C32704   3.875   2.186   2.857  0.4282 -0.2911  0.7354
  243MOL0     O32705   4.004   2.229   2.894 -0.3428 -1.6301 -0.3299
  243MOL0     C32706   4.023   2.367   2.949 -0.0765 -0.4791  0.1931
  243MOL0     C32707   4.066   2.461   2.840  0.0874  0.2965 -0.4113
  243MOL0     C32708   4.211   2.428   2.779  0.7348  0.5834 -0.2115
  243MOL0     C32709   4.315   2.495   2.869 -0.0693 -0.0721  0.7102
  243MOL0     C32710   4.453   2.510   2.803 -0.5070 -0.4778 -0.5961
  243MOL0     C32711   4.551   2.560   2.905 -0.1488 -0.7394 -0.1899
  243MOL0     C32712   4.696   2.554   2.848 -0.0802 -0.3593  0.3334
  243MOL0     C32713   4.790   2.512   2.950 -0.1595  0.7627  0.4900
  243MOL0    Cl32714   4.957   2.544   2.903 -1.0449  0.5509  0.4889
  243MOL0     C32715   3.762   2.274   2.828 -0.3212 -0.1083 -0.0157
  243MOL0     C32716   3.637   2.226   2.802  0.3582  0.3973  0.2382
  243MOL0     O32717   3.452   1.886   2.938  0.3291  0.4332  1.3089
  243MOL0     C32718   3.223   2.001   2.684 -0.0334 -0.4703 -0.0618
  243MOL0     C32719   3.106   1.972   2.621  0.0346 -0.4484 -0.4411
  243MOL0     N32720   2.692   1.584   2.209  0.4003 -0.2822  0.3582
  243MOL0     N32721   2.600   1.597   2.118  0.3274 -0.0966 -0.1331
  243MOL0     C32722   2.831   2.210   1.486 -0.5586 -0.1358 -0.0405
  243MOL0     C32723   2.914   2.322   1.473 -0.3589  0.4791 -0.9129
  243MOL0     C32724   3.143   2.678   1.510  1.4818 -0.3561 -0.6004
  243MOL0     C32725   3.111   2.777   1.422  0.3508  0.3605 -0.7982
  243MOL0     C32726   3.206   2.870   1.373  0.0889 -0.0410  0.5222
  243MOL0     C32727   3.339   2.858   1.409 -0.0153  0.7486 -1.0532
  243MOL0     O32728   3.427   2.939   1.345  0.0793 -0.1281  0.9774
  243MOL0     C32729   3.478   3.038   1.427  0.0953 -0.6335  0.2488
  243MOL0     C32730   3.618   3.089   1.392  0.4122  1.4635 -0.5464
  243MOL0     C32731   3.619   3.214   1.316  0.2938  0.0181  0.0656
  243MOL0     C32732   3.756   3.251   1.267  0.4102  1.1337 -0.4777
  243MOL0     C32733   3.870   3.247   1.367  0.6667  0.2655 -0.1862
  243MOL0     C32734   3.961   3.235   1.444  0.0897  0.1890 -0.8702
  243MOL0     C32735   3.369   2.773   1.519 -0.1365  0.1962 -0.2196
  243MOL0     C32736   3.271   2.683   1.571 -0.1114  0.3355 -0.0302
  243MOL0     C32737   3.321   2.588   1.683  0.6581 -0.0477 -0.9737
  243MOL0     H32738   2.695   2.571   1.427  0.6873 -0.1113  2.0216
  243MOL0     H32739   2.536   2.369   1.429  0.3806 -0.6911 -1.0270
  243MOL0     H32740   2.720   1.973   1.468 -0.5565  0.0531  0.4202
  243MOL0     H32741   2.685   2.014   1.629 -1.0645  3.5928  1.6980
  243MOL0     H32742   2.559   1.801   1.557  1.2936  0.5597 -0.4548
  243MOL0     H32743   2.491   1.876   1.420 -1.0052 -1.8761  0.4891
  243MOL0     H32744   2.323   1.893   1.559 -1.0495  2.0157 -0.6843
  243MOL0     H32745   2.400   2.056   1.585 -1.8312  1.5881  5.6086
  243MOL0     H32746   2.496   1.980   1.792 -0.2525 -0.0147  0.2699
  243MOL0     H32747   2.315   1.965   1.802 -0.0085 -3.8503  5.3321
  243MOL0     H32748   2.359   1.716   1.716 -1.3962  1.6772 -0.9291
  243MOL0     H32749   2.511   1.722   1.797 -0.5988 -1.7718  1.0352
  243MOL0     H32750   2.405   1.802   2.001  1.4886  0.5753 -1.2317
  243MOL0     H32751   2.248   1.769   1.922 -0.7619 -3.1713  0.1218
  243MOL0     H32752   2.459   1.555   1.914 -0.3790 -2.4160  1.9567
  243MOL0     H32753   2.282   1.540   1.895 -0.8945  2.1339 -0.9334
  243MOL0     H32754   2.259   1.591   2.142  0.3827  1.0482 -0.0753
  243MOL0     H32755   2.361   1.451   2.097  1.7552  0.3114 -0.8974
  243MOL0     H32756   2.411   1.624   2.374 -0.9554 -0.5340 -1.0167
  243MOL0     H32757   2.664   1.486   2.513  1.1818  0.7979  2.5092
  243MOL0     H32758   2.804   1.570   2.427 -0.3850  0.0912 -0.0476
  243MOL0     H32759   2.568   1.679   2.577 -0.4863 -0.4974 -1.3112
  243MOL0     H32760   2.712   1.656   2.659  0.4835 -0.9759 -1.2020
  243MOL0     H32761   2.621   1.893   2.513 -0.1575 -1.1288  1.0463
  243MOL0     H32762   2.756   1.821   2.409  2.7788  2.2840  0.3194
  243MOL0     H32763   2.788   1.894   2.710  0.0529 -0.5515  0.6107
  243MOL0     H32764   2.830   1.994   2.566  1.6346 -1.0509 -2.1343
  243MOL0     H32765   3.044   1.671   2.758 -0.7487 -0.1148  1.4957
  243MOL0     H32766   3.259   1.721   2.876  0.9836  1.2186 -0.7274
  243MOL0     H32767   3.689   1.897   2.853 -1.9749  0.2596  1.1211
  243MOL0     H32768   3.931   1.989   2.888 -1.1313 -1.1077 -1.4247
  243MOL0     H32769   3.933   2.412   2.993  1.8070  1.6514  2.0942
  243MOL0     H32770   4.100   2.368   3.027  0.0486 -1.4129  0.0981
  243MOL0     H32771   3.996   2.461   2.756 -0.1026 -0.9878 -0.2753
  243MOL0     H32772   4.079   2.562   2.880  1.3312  0.1964 -0.5168
  243MOL0     H32773   4.228   2.320   2.779 -2.1684 -0.0108 -2.0371
  243MOL0     H32774   4.223   2.462   2.675 -1.0337  1.3089 -0.2116
  243MOL0     H32775   4.344   2.439   2.958  4.6051  1.8700  0.6868
  243MOL0     H32776   4.279   2.594   2.898  1.7159  0.8865 -0.1280
  243MOL0     H32777   4.463   2.580   2.720 -1.0253  0.1596 -0.1328
  243MOL0     H32778   4.479   2.410   2.769  3.7475  0.2008  0.0215
  243MOL0     H32779   4.510   2.658   2.931 -2.3506 -1.5955 -0.1494
  243MOL0     H32780   4.545   2.509   3.001 -1.2866 -1.0026 -0.3818
  243MOL0     H32781   4.729   2.653   2.818 -1.7150  0.4316  1.0389
  243MOL0     H32782   4.705   2.489   2.760 -1.0431  0.2706 -0.2424
  243MOL0     H32783   4.772   2.574   3.038 -1.8334  0.5465  0.3345
  243MOL0     H32784   4.771   2.407   2.973  0.7877  0.3498 -0.5351
  243MOL0     H32785   3.780   2.380   2.840  0.6384 -0.5424  3.4255
  243MOL0     H32786   3.561   2.293   2.763  1.8235  1.7259 -0.4780
  243MOL0     H32787   3.260   2.099   2.657 -0.8314 -0.2954 -0.5483
  243MOL0     H32788   3.049   2.036   2.553 -0.7842 -2.5264 -1.8163
  243MOL0     H32789   2.875   2.116   1.516 -0.4712  0.1983  0.9087
  243MOL0     H32790   3.021   2.319   1.495 -0.4416  1.5863 -0.3262
  243MOL0     H32791   3.012   2.805   1.390 -0.2751  1.5939  1.8978
  243MOL0     H32792   3.187   2.948   1.300  0.2879 -0.2938  0.1915
  243MOL0     H32793   3.488   3.020   1.534 -0.5680  0.1386  0.4533
  243MOL0     H32794   3.413   3.126   1.426  0.7345 -0.1057 -2.0196
  243MOL0     H32795   3.674   3.008   1.344  0.6336  1.7881 -0.8409
  243MOL0     H32796   3.669   3.114   1.486  1.6274 -0.2796 -0.6954
  243MOL0     H32797   3.572   3.298   1.368  0.4116 -0.6384  1.2763
  243MOL0     H32798   3.558   3.198   1.227 -0.1849  1.0691  0.1855
  243MOL0     H32799   3.787   3.178   1.191  0.2093 -0.1003  0.5826
  243MOL0     H32800   3.756   3.347   1.216  1.5936  0.2051 -2.3309
  243MOL0     H32801   4.046   3.240   1.508 -2.8840  4.0913  3.4470
  243MOL0     H32802   3.469   2.759   1.558 -0.3358 -0.2112  0.1631
  243MOL0     H32803   3.386   2.514   1.635  0.2412 -0.2450 -1.2407
  243MOL0     H32804   3.385   2.648   1.748  0.9598 -0.9638 -0.4016
  243MOL0     H32805   3.245   2.543   1.748 -1.5515  1.7174 -2.1906
  244MOL0     O32806  10.312  10.920   1.327  0.1227  0.4930  0.2304
  244MOL0     C32807  10.309  10.847   1.424  0.7665 -0.3803 -0.7893
  244MOL0     O32808  10.217  10.745   1.449 -0.6515 -0.0512 -0.0479
  244MOL0     C32809  10.087  10.745   1.402  0.0449 -0.4792  0.1459
  244MOL0     C32810  10.018  10.623   1.419 -0.0201 -0.8879 -0.7649
  244MOL0     C32811   9.895  10.612   1.350 -0.7287 -0.0393 -0.3388
  244MOL0     C32812   9.832  10.722   1.292 -0.1930  0.2078  0.1437
  244MOL0     O32813   9.708  10.725   1.237  0.1368 -0.3759 -0.1474
  244MOL0     C32814   9.617  10.621   1.253  0.3956 -0.5495  0.2193
  244MOL0     C32815   9.485  10.687   1.194 -0.2432 -0.0847  0.1725
  244MOL0     C32816   9.394  10.578   1.124  0.1183  0.0998  0.2829
  244MOL0     C32817   9.333  10.473   1.206  0.1117  0.1637 -0.1439
  244MOL0     C32818   9.257  10.388   1.097  0.3893 -0.5204 -1.1649
  244MOL0     C32819   9.173  10.276   1.157  0.3294 -0.2574  0.0648
  244MOL0     C32820   9.257  10.170   1.224  0.1672 -0.4892  0.8540
  244MOL0     C32821   9.334  10.079   1.136 -0.6030  0.4569 -0.8436
  244MOL0     N32822   9.472  10.133   1.131 -0.1935  0.1389  0.2452
  244MOL0     C32823   9.535  10.164   1.017  0.4247 -0.2727 -0.2686
  244MOL0     C32824   9.661  10.197   1.057  0.4222  0.6349 -0.1084
  244MOL0     C32825   9.779  10.223   0.964  0.0740 -0.5053  0.4657
  244MOL0     C32826   9.836  10.372   0.969 -0.2079  0.5542  0.6489
  244MOL0     C32827   9.954  10.390   1.066 -0.2755  0.6650 -0.4581
  244MOL0     C32828  10.085  10.326   1.018 -0.8781 -0.8337 -0.5640
  244MOL0     O32829  10.186  10.325   1.113  0.2404 -0.1778 -0.1206
  244MOL0     C32830  10.302  10.405   1.091 -0.0428 -0.1541  0.1190
  244MOL0     C32831  10.422  10.350   1.046  0.6581 -0.5602  0.5269
  244MOL0     C32832  10.530  10.422   1.027 -0.6295 -0.0420  0.7805
  244MOL0     C32833  10.530  10.562   1.059 -0.6504  0.1420  0.1779
  244MOL0     C32834  10.665  10.641   1.059  0.4849  1.7158 -0.3589
  244MOL0     O32835  10.661  10.764   1.102 -0.1500  0.6361  0.2373
  244MOL0     C32836  10.779  10.836   1.089 -0.8957  0.5699 -0.1338
  244MOL0     C32837  10.801  10.923   0.981 -0.9808  0.8503  0.3501
  244MOL0     C32838  10.928  10.992   0.967  0.3691  0.1946 -1.0719
  244MOL0     C32839  11.027  10.976   1.063 -0.2888 -0.0561  0.1485
  244MOL0     O32840  11.132  11.051   1.048  0.0696 -0.2901  0.1257
  244MOL0     C32841  11.262  10.983   1.032 -1.0055 -0.0714 -0.5198
  244MOL0     C32842  11.372  11.090   1.021  0.1735  0.4271  0.5786
  244MOL0     C32843  11.370  11.188   1.142  0.0350 -0.2511  0.4429
  244MOL0     C32844  11.501  11.260   1.144 -0.1916 -0.3976 -0.4013
  244MOL0     C32845  11.490  11.384   1.244 -0.3714 -0.7810 -0.1618
  244MOL0     C32846  11.443  11.358   1.392 -0.3713  0.0605 -0.3225
  244MOL0     C32847  11.459  11.494   1.478 -0.2560  0.0476  0.9069
  244MOL0     C32848  11.603  11.547   1.496 -0.2926 -0.5221  0.0752
  244MOL0    Cl32849  11.592  11.707   1.577  0.0187 -0.0433  0.0761
  244MOL0     C32850  10.998  10.900   1.174  0.8776 -0.4560 -1.0961
  244MOL0     C32851  10.876  10.831   1.194  0.5783 -0.0867  0.0526
  244MOL0     O32852  10.764  10.577   1.018  0.2480  0.1391 -0.3021
  244MOL0     C32853  10.413  10.620   1.107 -0.4411  0.0658  0.2552
  244MOL0     C32854  10.299  10.541   1.111 -0.0183 -0.5933 -0.1894
  244MOL0     N32855   9.673  10.193   1.195  0.1623 -0.5792 -0.9672
  244MOL0     N32856   9.558  10.149   1.234  0.4072  0.6559 -0.3349
  244MOL0     C32857   9.902  10.837   1.276  0.2388 -0.3464  0.0552
  244MOL0     C32858  10.029  10.848   1.331  0.1051 -0.4179 -0.1129
  244MOL0     C32859  10.398  10.884   1.542  0.1294 -0.1787  0.2088
  244MOL0     C32860  10.347  10.838   1.668 -0.2697 -0.1584  0.0152
  244MOL0     C32861  10.428  10.838   1.783  0.5054  0.1908  0.7668
  244MOL0     C32862  10.556  10.895   1.783 -0.8462 -0.7516 -0.3698
  244MOL0     O32863  10.640  10.913   1.885  0.6430 -0.4573 -0.3517
  244MOL0     C32864  10.645  10.800   1.980 -0.4904 -0.3458  0.1850
  244MOL0     C32865  10.664  10.666   1.904 -0.0105  0.1406 -0.2543
  244MOL0     C32866  10.719  10.551   1.994  0.5807  0.0131 -0.7702
  244MOL0     C32867  10.831  10.459   1.926  0.3839 -0.3955 -0.5858
  244MOL0     C32868  10.861  10.343   2.010 -0.3172  0.0544  0.1287
  244MOL0     C32869  10.894  10.247   2.080  0.2146  0.0446 -0.6210
  244MOL0     C32870  10.595  10.959   1.662 -0.9298  0.7459  0.3252
  244MOL0     C32871  10.528  10.949   1.538  0.2241  0.2150  0.3058
  244MOL0     C32872  10.604  10.988   1.410 -0.1719  0.4055 -0.3129
  244MOL0     H32873  10.074  10.540   1.463  1.6214 -0.1883 -1.4487
  244MOL0     H32874   9.841  10.518   1.339 -1.2940  0.1967  0.2881
  244MOL0     H32875   9.644  10.529   1.200 -1.3130  0.0394 -1.7988
  244MOL0     H32876   9.610  10.588   1.357  1.4721 -0.2084  0.4147
  244MOL0     H32877   9.521  10.770   1.132 -0.0850  0.0026  0.3750
  244MOL0     H32878   9.434  10.730   1.281 -2.0166  0.7380 -1.2169
  244MOL0     H32879   9.456  10.521   1.055 -1.1733  1.7060 -2.3391
  244MOL0     H32880   9.316  10.630   1.068  0.7664 -0.9033 -1.6406
  244MOL0     H32881   9.411  10.415   1.255 -0.0115 -0.2259 -0.3958
  244MOL0     H32882   9.267  10.511   1.285  0.3816 -1.8026  1.0978
  244MOL0     H32883   9.183  10.435   1.032  0.5155  0.2951 -0.7374
  244MOL0     H32884   9.334  10.343   1.033  2.5045 -1.4502  1.8037
  244MOL0     H32885   9.097  10.305   1.230 -0.6270 -1.5318 -0.3911
  244MOL0     H32886   9.125  10.224   1.074  0.4154 -0.0975 -0.0860
  244MOL0     H32887   9.180  10.113   1.276 -1.2892 -0.3562 -1.0585
  244MOL0     H32888   9.318  10.219   1.301  0.4620  1.3802 -0.4769
  244MOL0     H32889   9.346   9.981   1.182  0.4943  1.7523  1.8258
  244MOL0     H32890   9.284  10.072   1.039  0.4237  0.7579 -1.4070
  244MOL0     H32891   9.512  10.155   0.911  2.3737 -1.9477 -0.6213
  244MOL0     H32892   9.855  10.152   0.998 -0.6423 -1.9952 -0.8522
  244MOL0     H32893   9.760  10.192   0.860  1.3694 -0.9177  0.3399
  244MOL0     H32894   9.873  10.391   0.868  0.4779 -0.7579  0.6233
  244MOL0     H32895   9.758  10.439   1.004  0.6057  0.4463  2.8309
  244MOL0     H32896   9.921  10.346   1.161  2.2474 -0.5333 -0.0510
  244MOL0     H32897   9.963  10.498   1.079 -2.1779  0.7538  0.4427
  244MOL0     H32898  10.122  10.369   0.924 -1.8664 -0.7936 -0.9412
  244MOL0     H32899  10.070  10.219   1.000  0.9131 -1.2994  0.4385
  244MOL0     H32900  10.414  10.243   1.034 -0.3177 -0.3581 -1.0165
  244MOL0     H32901  10.614  10.366   0.987  0.3441  0.9657  1.3438
  244MOL0     H32902  10.722  10.936   0.906 -1.3224  1.9717  0.8828
  244MOL0     H32903  10.940  11.051   0.876  1.9347 -1.0613 -1.7310
  244MOL0     H32904  11.284  10.922   1.121 -2.2313 -1.5407 -1.1704
  244MOL0     H32905  11.259  10.915   0.946  0.3659  1.4358 -1.8029
  244MOL0     H32906  11.468  11.038   1.013  0.0767  0.1581  1.1401
  244MOL0     H32907  11.344  11.141   0.928 -1.4889 -1.8147 -0.2571
  244MOL0     H32908  11.281  11.253   1.139 -2.1752 -3.0911  0.1707
  244MOL0     H32909  11.353  11.124   1.229  1.0915 -1.5201 -0.2565
  244MOL0     H32910  11.538  11.287   1.045 -0.0197  1.1702  0.0650
  244MOL0     H32911  11.584  11.205   1.189  3.4366  2.9310 -2.4235
  244MOL0     H32912  11.432  11.460   1.191 -0.2541  0.0115  0.8243
  244MOL0     H32913  11.583  11.438   1.261 -1.9275  1.4585  1.9419
  244MOL0     H32914  11.336  11.342   1.374 -1.5184  5.0069  0.8314
  244MOL0     H32915  11.495  11.273   1.438  2.6759  1.1135 -1.5342
  244MOL0     H32916  11.410  11.466   1.572  1.2451 -0.4029  1.5948
  244MOL0     H32917  11.393  11.567   1.431 -0.7299 -2.0973 -2.0269
  244MOL0     H32918  11.672  11.480   1.549  1.8881  0.5198 -1.3258
  244MOL0     H32919  11.652  11.562   1.400  0.6266  1.5420  0.8084
  244MOL0     H32920  11.074  10.896   1.253  1.8108  2.9086 -1.6842
  244MOL0     H32921  10.863  10.767   1.281  1.3357 -0.1425  0.1325
  244MOL0     H32922  10.418  10.721   1.146 -1.6794  0.3518 -0.2664
  244MOL0     H32923  10.198  10.567   1.142  0.0447 -3.4835  3.1250
  244MOL0     H32924   9.850  10.913   1.218  1.9178 -0.7797 -2.1373
  244MOL0     H32925  10.073  10.947   1.328 -3.5550  1.3417 -0.3115
  244MOL0     H32926  10.248  10.795   1.683 -0.3773  0.0738 -0.0204
  244MOL0     H32927  10.381  10.783   1.864 -1.1863  3.0379  1.8850
  244MOL0     H32928  10.559  10.796   2.046 -0.6654 -2.6890 -0.0862
  244MOL0     H32929  10.723  10.812   2.056 -0.1051 -1.7406  0.0418
  244MOL0     H32930  10.744  10.681   1.831  1.5617 -0.8315  1.1924
  244MOL0     H32931  10.571  10.637   1.854 -0.6744  0.4803  0.7605
  244MOL0     H32932  10.629  10.491   2.012 -0.3801  0.8397 -2.5838
  244MOL0     H32933  10.739  10.588   2.095  2.0795 -0.3354 -0.9160
  244MOL0     H32934  10.801  10.423   1.827 -0.0215  0.4175 -0.7699
  244MOL0     H32935  10.921  10.519   1.911 -0.8919  1.7894 -0.0178
  244MOL0     H32936  10.939  10.174   2.145  2.3982  0.0883 -2.0119
  244MOL0     H32937  10.686  11.018   1.662 -1.1535  1.2275 -2.1749
  244MOL0     H32938  10.544  11.051   1.344  0.7969 -0.0649 -1.6982
  244MOL0     H32939  10.699  11.042   1.411  0.0478  0.0259 -0.4001
  244MOL0     H32940  10.616  10.887   1.371 -3.9474 -0.4978  0.5062
  245MOL0     O32941   1.836   4.606   3.464  0.7091 -0.3684  0.8051
  245MOL0     C32942   1.749   4.684   3.423 -0.2831  0.9437  0.1839
  245MOL0     O32943   1.774   4.780   3.331  0.5680  0.0707 -0.4451
  245MOL0     C32944   1.902   4.793   3.273  0.1519 -0.3540  0.1857
  245MOL0     C32945   1.912   4.861   3.151  0.4577 -0.2753  0.0105
  245MOL0     C32946   2.036   4.899   3.088  0.7477 -0.0965 -0.5604
  245MOL0     C32947   2.158   4.876   3.163 -0.9436  0.4469  0.9883
  245MOL0     O32948   2.284   4.877   3.111  0.1187  0.3654  0.2376
  245MOL0     C32949   2.321   5.003   3.050 -0.3992  0.8055 -0.3766
  245MOL0     C32950   2.455   4.991   2.983  0.4069  0.0810 -0.6944
  245MOL0     C32951   2.558   5.086   3.047 -1.0988  0.3440  0.3250
  245MOL0     C32952   2.699   5.081   2.975  0.7776 -0.3243  0.1983
  245MOL0     C32953   2.810   5.146   3.069 -0.2020  0.5666  0.1094
  245MOL0     C32954   2.950   5.145   2.999  0.0632  0.0871  0.0536
  245MOL0     C32955   3.070   5.206   3.068 -0.1163  0.2230 -0.2331
  245MOL0     C32956   3.199   5.180   2.986 -0.6563  0.0678 -0.3501
  245MOL0     N32957   3.315   5.261   3.045  0.7224  0.3071  0.3853
  245MOL0     C32958   3.344   5.397   3.014 -0.0482  0.1533 -0.1755
  245MOL0     C32959   3.462   5.418   3.084 -0.2041  0.0160  0.0595
  245MOL0     C32960   3.543   5.544   3.046 -0.6506 -0.1288 -0.3074
  245MOL0     C32961   3.681   5.547   3.120  0.2912 -0.2416 -0.2377
  245MOL0     C32962   3.771   5.649   3.075 -0.3715  1.0036 -0.0692
  245MOL0     C32963   3.712   5.791   3.067 -0.2684  1.1853  0.2145
  245MOL0     O32964   3.705   5.846   3.190  0.1628  0.9859  0.0895
  245MOL0     C32965   3.814   5.914   3.253  1.1068 -0.1031 -0.2531
  245MOL0     C32966   3.940   5.915   3.191  0.2797  0.7264 -1.0163
  245MOL0     C32967   4.038   5.991   3.255 -0.4445  0.7987  1.2666
  245MOL0     C32968   4.017   6.069   3.367 -1.5862  0.0503  0.7721
  245MOL0     C32969   4.123   6.149   3.428 -0.5166 -0.8174  0.3575
  245MOL0     O32970   4.085   6.211   3.548 -1.1560 -0.1160  0.0046
  245MOL0     C32971   4.185   6.284   3.612  0.3578  0.2983  0.1573
  245MOL0     C32972   4.258   6.383   3.536 -0.2049  0.6001  0.2345
  245MOL0     C32973   4.368   6.450   3.594 -0.1323 -0.1177  0.3174
  245MOL0     C32974   4.405   6.419   3.725 -0.7143  0.2941  0.3121
  245MOL0     O32975   4.507   6.483   3.784  0.7945 -0.5061  0.2484
  245MOL0     C32976   4.640   6.426   3.759  0.8204 -0.0342 -0.6418
  245MOL0     C32977   4.692   6.349   3.882 -0.5826 -0.2118 -0.2579
  245MOL0     C32978   4.709   6.462   3.994 -0.3550 -0.3675  0.1495
  245MOL0     C32979   4.738   6.410   4.136  0.1890 -0.1659 -0.2800
  245MOL0     C32980   4.633   6.474   4.229  0.0009 -0.2191 -0.9689
  245MOL0     C32981   4.645   6.408   4.365  0.0891 -0.8894  0.4418
  245MOL0     C32982   4.551   6.465   4.470  0.6485 -0.7265  0.1256
  245MOL0     C32983   4.596   6.589   4.532 -0.5066 -1.1529 -0.4198
  245MOL0    Cl32984   4.443   6.660   4.595  0.0953  0.1012  0.0517
  245MOL0     C32985   4.326   6.323   3.804 -0.5481 -0.6244  0.1683
  245MOL0     C32986   4.216   6.256   3.748 -0.6158 -0.6131  1.2388
  245MOL0     O32987   4.236   6.140   3.381 -0.2819 -0.3396  0.3147
  245MOL0     C32988   3.887   6.057   3.428 -0.0618 -0.6141  0.6968
  245MOL0     C32989   3.788   5.983   3.371 -0.1082  0.5888  0.6265
  245MOL0     N32990   3.506   5.302   3.145  0.4189 -0.2151  0.8053
  245MOL0     N32991   3.418   5.209   3.118  0.2962 -0.2337  0.0526
  245MOL0     C32992   2.149   4.804   3.284 -0.1822 -0.2291  0.2506
  245MOL0     C32993   2.023   4.774   3.338 -0.3832  0.7765 -0.3171
  245MOL0     C32994   1.612   4.662   3.468  0.8069  1.4661 -0.2838
  245MOL0     C32995   1.505   4.660   3.381 -0.5474 -0.0521  1.0101
  245MOL0     C32996   1.371   4.620   3.415  0.1473 -0.1480  0.2019
  245MOL0     C32997   1.343   4.593   3.544 -0.4120  0.1097 -0.6134
  245MOL0     O32998   1.212   4.558   3.575 -0.0511  0.4108  0.6376
  245MOL0     C32999   1.164   4.567   3.710  0.1335  0.0117 -0.2270
  245MOL0     C33000   1.015   4.611   3.717  0.0133  0.1010  0.2859
  245MOL0     C33001   0.927   4.568   3.603 -0.4417 -0.0253 -0.7586
  245MOL0     C33002   0.779   4.596   3.640 -0.7001  0.0413 -0.1402
  245MOL0     C33003   0.701   4.611   3.519  1.0135 -0.0070 -0.6356
  245MOL0     C33004   0.641   4.634   3.414  0.2768  0.6454 -0.7461
  245MOL0     C33005   1.448   4.599   3.635 -0.3428  0.0278  0.8419
  245MOL0     C33006   1.580   4.635   3.603  0.6352 -0.2324  0.6898
  245MOL0     C33007   1.688   4.633   3.715 -0.5216  0.1840 -0.5599
  245MOL0     H33008   1.816   4.883   3.106  0.2445 -0.0204  0.5932
  245MOL0     H33009   2.031   4.968   3.004 -0.9960  2.0109  1.1186
  245MOL0     H33010   2.248   5.037   2.975  0.3286  3.4602  0.0032
  245MOL0     H33011   2.334   5.077   3.130 -1.3304  1.8590 -1.1627
  245MOL0     H33012   2.448   5.010   2.875  1.2356  0.9583 -0.6031
  245MOL0     H33013   2.499   4.893   3.007  2.4912  1.5752  2.1258
  245MOL0     H33014   2.577   5.040   3.144 -1.7182  0.4603  0.5024
  245MOL0     H33015   2.510   5.184   3.057 -2.0058  0.3695 -3.1058
  245MOL0     H33016   2.722   4.978   2.946  2.1424  0.3124 -1.0467
  245MOL0     H33017   2.699   5.141   2.884 -2.9550 -1.2913 -0.6162
  245MOL0     H33018   2.788   5.247   3.104  0.0078  1.1550 -1.3755
  245MOL0     H33019   2.821   5.078   3.154 -1.0149  2.8304  2.1529
  245MOL0     H33020   2.979   5.042   2.975 -3.2781 -0.5423 -1.8820
  245MOL0     H33021   2.939   5.197   2.903  3.6239 -0.3257 -0.7196
  245MOL0     H33022   3.074   5.155   3.164 -2.3596  1.5028  0.6218
  245MOL0     H33023   3.079   5.311   3.098  0.4377  1.0290 -2.9090
  245MOL0     H33024   3.212   5.072   3.001  2.0743  0.0566 -2.0955
  245MOL0     H33025   3.188   5.204   2.880  6.0702  2.0851 -1.0193
  245MOL0     H33026   3.280   5.454   2.947 -0.0072  2.8507  1.9106
  245MOL0     H33027   3.565   5.556   2.940  5.5544 -2.6325  0.2795
  245MOL0     H33028   3.476   5.624   3.079 -0.7763  0.3326 -1.6424
  245MOL0     H33029   3.661   5.563   3.226  0.7904  0.7671 -0.2878
  245MOL0     H33030   3.727   5.448   3.121 -0.5841 -0.6887  2.1896
  245MOL0     H33031   3.816   5.623   2.978  0.7551 -0.9823  0.9095
  245MOL0     H33032   3.852   5.644   3.149 -1.8763 -1.8362  1.6035
  245MOL0     H33033   3.610   5.793   3.028 -0.8649 -1.8453  1.3088
  245MOL0     H33034   3.767   5.858   3.001  0.0573  1.0615  0.3583
  245MOL0     H33035   3.953   5.856   3.101 -0.6823 -0.4776 -0.3944
  245MOL0     H33036   4.134   5.982   3.203 -0.6256  0.5666  0.9639
  245MOL0     H33037   4.237   6.409   3.433  1.4213  1.1078  0.0012
  245MOL0     H33038   4.426   6.523   3.539  0.8240 -0.6958  0.5291
  245MOL0     H33039   4.631   6.347   3.684  1.5182 -0.4849 -0.2644
  245MOL0     H33040   4.709   6.503   3.724  1.5771  0.6900  2.1608
  245MOL0     H33041   4.612   6.277   3.902 -1.8941  0.8317 -1.5556
  245MOL0     H33042   4.791   6.306   3.864  0.5939  1.1319  2.3685
  245MOL0     H33043   4.796   6.520   3.961 -2.1286  1.3300 -1.7645
  245MOL0     H33044   4.621   6.527   3.987 -0.7747 -1.0809 -1.5798
  245MOL0     H33045   4.841   6.435   4.162  0.8283  0.5556 -3.1549
  245MOL0     H33046   4.742   6.302   4.123  3.0893  0.0431 -2.1870
  245MOL0     H33047   4.531   6.470   4.190 -1.2486  1.2463  1.8211
  245MOL0     H33048   4.645   6.583   4.227  0.5184 -0.2892 -2.1765
  245MOL0     H33049   4.619   6.302   4.355 -0.8638 -0.7430  1.2182
  245MOL0     H33050   4.746   6.413   4.407  0.8646  0.7043 -1.4461
  245MOL0     H33051   4.539   6.384   4.543  0.7165 -0.0865  0.8641
  245MOL0     H33052   4.455   6.478   4.419  1.8139 -3.6617 -3.3066
  245MOL0     H33053   4.669   6.577   4.613  0.2301 -0.9614 -1.0404
  245MOL0     H33054   4.643   6.659   4.463 -0.8910 -0.5228 -0.0483
  245MOL0     H33055   4.344   6.319   3.911  0.1955  0.6357  0.1091
  245MOL0     H33056   4.160   6.181   3.802 -0.8928 -1.6840 -0.4795
  245MOL0     H33057   3.856   6.110   3.517  0.0049  0.3867  0.1323
  245MOL0     H33058   3.686   5.990   3.407 -0.1315  0.4746  0.5811
  245MOL0     H33059   2.237   4.787   3.346  0.0868  1.7477  0.4831
  245MOL0     H33060   2.032   4.746   3.442 -0.3852  1.2357 -0.1916
  245MOL0     H33061   1.525   4.666   3.274 -1.2248  2.5367  0.9596
  245MOL0     H33062   1.313   4.617   3.324  1.8507  0.8276 -0.9820
  245MOL0     H33063   1.227   4.633   3.772  1.8816 -0.0192 -1.8901
  245MOL0     H33064   1.165   4.466   3.750  0.0679  0.1721  0.1867
  245MOL0     H33065   1.015   4.720   3.710 -1.9909  0.0513 -4.0216
  245MOL0     H33066   0.968   4.578   3.810 -0.2822 -2.8374 -0.7794
  245MOL0     H33067   0.933   4.462   3.577  0.6225 -0.3460  0.6694
  245MOL0     H33068   0.955   4.624   3.513 -0.1350 -0.8147 -1.1652
  245MOL0     H33069   0.753   4.505   3.696  0.8646  0.9603  2.2404
  245MOL0     H33070   0.772   4.687   3.701  0.4959  1.0292 -1.4191
  245MOL0     H33071   0.591   4.648   3.321  0.2246 -3.8109 -1.6108
  245MOL0     H33072   1.432   4.563   3.736 -1.0760  2.4025  1.6354
  245MOL0     H33073   1.646   4.654   3.814  1.7181  0.3198  0.4098
  245MOL0     H33074   1.732   4.533   3.726  1.1182  1.0989  1.9820
  245MOL0     H33075   1.771   4.702   3.698 -0.4168  0.0374 -0.6475
  246MOL0     O33076   5.003   4.781  10.109  0.6973 -0.3348  0.3435
  246MOL0     C33077   4.919   4.864  10.163  0.2191 -0.5454  0.2914
  246MOL0     O33078   4.899   4.892  10.286 -0.1201 -0.6140 -0.6682
  246MOL0     C33079   5.009   4.881  10.376  0.2933 -0.1296 -0.2873
  246MOL0     C33080   5.136   4.943  10.356  0.0885  0.3552 -0.4387
  246MOL0     C33081   5.232   4.953  10.453  0.3728 -0.1469 -0.7906
  246MOL0     C33082   5.219   4.880  10.574 -0.3796 -1.3082  0.8104
  246MOL0     O33083   5.312   4.882  10.676 -0.0546 -0.6665 -0.3856
  246MOL0     C33084   5.444   4.905  10.635  0.7491  0.0031 -0.1355
  246MOL0     C33085   5.546   4.831  10.724  0.5460 -0.5400  0.3469
  246MOL0     C33086   5.673   4.792  10.654  0.0823 -0.0423  1.3527
  246MOL0     C33087   5.774   4.714  10.742 -0.2223 -0.2421 -0.3310
  246MOL0     C33088   5.848   4.801  10.837  0.7529 -0.4829  0.2619
  246MOL0     C33089   5.940   4.713  10.918 -0.5808  0.6511  0.2404
  246MOL0     C33090   5.866   4.632  11.030  0.8038  0.2407 -0.4841
  246MOL0     C33091   5.962   4.545  11.114 -0.2656  0.2780 -0.4234
  246MOL0     N33092   6.065   4.620  11.187 -0.1862  0.3982  0.3451
  246MOL0     C33093   6.201   4.622  11.165  0.1964 -0.2723  0.6600
  246MOL0     C33094   6.254   4.702  11.257  0.7376 -0.0972 -0.2557
  246MOL0     C33095   6.401   4.734  11.278  0.3369  0.7900 -0.8795
  246MOL0     C33096   6.452   4.850  11.182  0.0603  0.2736 -0.8415
  246MOL0     C33097   6.610   4.875  11.185  0.1699 -0.0900 -0.2306
  246MOL0     C33098   6.687   4.747  11.144  0.2462 -1.0222 -0.3969
  246MOL0     O33099   6.645   4.711  11.015  0.7234 -0.1160  0.6210
  246MOL0     C33100   6.662   4.585  10.974 -0.0133 -0.1846  1.0426
  246MOL0     C33101   6.567   4.529  10.894  0.7354  0.2960 -0.4606
  246MOL0     C33102   6.552   4.390  10.870  0.1438  0.0556  0.3590
  246MOL0     C33103   6.653   4.299  10.920 -0.4283  0.7080  0.7664
  246MOL0     C33104   6.651   4.149  10.903  0.1997  0.2029 -0.1013
  246MOL0     O33105   6.734   4.059  10.965 -0.4069 -0.1071  0.1755
  246MOL0     C33106   6.737   3.925  10.927 -0.2428  0.2455  0.0475
  246MOL0     C33107   6.869   3.871  10.927 -0.9099  0.3356 -0.0881
  246MOL0     C33108   6.892   3.734  10.933  0.5820 -0.5844 -0.2947
  246MOL0     C33109   6.791   3.649  10.900 -0.7006  0.4736 -0.5287
  246MOL0     O33110   6.817   3.513  10.905 -0.3308 -0.6114  0.6355
  246MOL0     C33111   6.954   3.467  10.882 -0.0867  0.0056  0.0155
  246MOL0     C33112   7.036   3.442  11.014  0.1088  0.2820 -0.3418
  246MOL0     C33113   7.167   3.369  10.994  0.0806  0.0028  0.2997
  246MOL0     C33114   7.291   3.419  11.058  0.3966  0.4054 -0.1775
  246MOL0     C33115   7.332   3.557  10.991 -0.4224 -0.2447  0.0401
  246MOL0     C33116   7.452   3.615  11.067  0.0357 -0.1146 -0.6747
  246MOL0     C33117   7.402   3.662  11.211 -0.8260 -0.9441 -0.0038
  246MOL0     C33118   7.493   3.765  11.276  0.0762 -0.1728 -0.9831
  246MOL0    Cl33119   7.651   3.680  11.293  0.3159  0.0480 -0.4675
  246MOL0     C33120   6.658   3.695  10.888 -0.5124  0.2697 -0.2563
  246MOL0     C33121   6.632   3.842  10.901 -0.9570  0.0536 -0.3325
  246MOL0     O33122   6.564   4.118  10.826  0.8885 -0.1917  0.8130
  246MOL0     C33123   6.756   4.360  10.985 -0.4697  0.1521 -0.5597
  246MOL0     C33124   6.763   4.502  11.014 -0.7707  1.3889 -0.7992
  246MOL0     N33125   6.160   4.744  11.343  0.5496 -0.1897  0.2888
  246MOL0     N33126   6.048   4.696  11.298 -0.4665  1.4404  0.4269
  246MOL0     C33127   5.094   4.816  10.597 -0.8681 -0.2548 -0.5048
  246MOL0     C33128   4.990   4.831  10.506 -0.3080 -0.2715  0.2532
  246MOL0     C33129   4.811   4.936  10.075 -0.0926 -0.2579  0.2067
  246MOL0     C33130   4.680   4.959  10.121  0.4546 -1.5906  0.3635
  246MOL0     C33131   4.585   5.031  10.043  0.2068  0.4417  1.1732
  246MOL0     C33132   4.616   5.071   9.913  0.3980 -0.7712  1.5131
  246MOL0     O33133   4.527   5.137   9.825 -0.0533 -0.7081 -0.0860
  246MOL0     C33134   4.396   5.178   9.864  0.1096 -1.1303  0.2534
  246MOL0     C33135   4.334   5.298   9.780  0.1380  0.2945 -0.5702
  246MOL0     C33136   4.350   5.431   9.856  0.3247  0.3439  0.1049
  246MOL0     C33137   4.304   5.559   9.774 -0.1202 -0.0537 -0.0650
  246MOL0     C33138   4.160   5.551   9.754  0.3852 -0.2352  0.6651
  246MOL0     C33139   4.041   5.542   9.742 -0.5630  0.4014  0.1608
  246MOL0     C33140   4.748   5.059   9.870 -0.8702  0.7399  0.4441
  246MOL0     C33141   4.848   4.983   9.947 -0.6165 -0.5044  0.8388
  246MOL0     C33142   4.995   4.983   9.897 -0.6652 -0.3205 -0.2777
  246MOL0     H33143   5.144   5.005  10.267  3.1587 -1.1545 -1.3430
  246MOL0     H33144   5.319   5.017  10.440 -0.9607  1.3390 -3.3589
  246MOL0     H33145   5.467   4.879  10.531  4.7924 -0.0921  0.6382
  246MOL0     H33146   5.451   5.014  10.642 -1.8062  0.1771  0.9187
  246MOL0     H33147   5.494   4.744  10.764 -0.2460 -0.8180 -1.2378
  246MOL0     H33148   5.566   4.901  10.806  0.2497  0.0133 -0.0481
  246MOL0     H33149   5.725   4.884  10.626  1.0199 -0.3839  1.9341
  246MOL0     H33150   5.637   4.728  10.572  2.3883  0.2778 -0.0202
  246MOL0     H33151   5.732   4.626  10.792  0.9854  1.4218  4.0452
  246MOL0     H33152   5.844   4.670  10.671  1.4500 -0.7165  1.5146
  246MOL0     H33153   5.915   4.874  10.790  4.1516 -3.1913  0.4768
  246MOL0     H33154   5.769   4.852  10.893  0.5633  1.1152 -1.3548
  246MOL0     H33155   5.994   4.661  10.838 -2.6975  0.2897 -1.0118
  246MOL0     H33156   6.012   4.777  10.970 -1.7847  2.0655  0.2095
  246MOL0     H33157   5.797   4.560  10.985  2.3372 -1.4227 -0.2856
  246MOL0     H33158   5.803   4.696  11.094 -2.3565 -0.5815 -2.5479
  246MOL0     H33159   5.896   4.490  11.181  0.3454  0.9633  0.7785
  246MOL0     H33160   6.006   4.474  11.044 -2.0552 -0.2034 -1.1286
  246MOL0     H33161   6.248   4.572  11.081 -0.3639  2.3220 -1.3129
  246MOL0     H33162   6.417   4.767  11.381  0.5660 -0.8674 -0.3522
  246MOL0     H33163   6.451   4.637  11.267 -2.7903 -0.9757 -0.9049
  246MOL0     H33164   6.409   4.828  11.083 -0.7301  0.0784 -0.4663
  246MOL0     H33165   6.393   4.937  11.211  1.3292  0.5274  1.1738
  246MOL0     H33166   6.633   4.901  11.289  1.2033 -0.5414 -0.3377
  246MOL0     H33167   6.630   4.958  11.116 -1.9070  0.6831  0.0117
  246MOL0     H33168   6.663   4.667  11.214  0.9719 -0.7925  0.1208
  246MOL0     H33169   6.796   4.748  11.139  0.2676 -1.7875 -0.2853
  246MOL0     H33170   6.481   4.588  10.862  1.1165  0.3113 -1.4875
  246MOL0     H33171   6.458   4.382  10.817  0.2025 -2.4087  0.5165
  246MOL0     H33172   6.955   3.937  10.941 -0.2174 -0.2199 -1.5695
  246MOL0     H33173   6.997   3.711  10.947  0.5489 -0.0789  0.8816
  246MOL0     H33174   6.948   3.375  10.824 -1.2304 -0.9904  1.6315
  246MOL0     H33175   7.011   3.546  10.831 -1.0971  0.7978  0.0679
  246MOL0     H33176   7.036   3.535  11.072 -6.0148  0.9054 -0.7506
  246MOL0     H33177   6.965   3.391  11.080 -2.1697  1.7004 -1.5831
  246MOL0     H33178   7.169   3.267  11.034 -0.6238 -1.8764 -3.8545
  246MOL0     H33179   7.178   3.353  10.886 -2.0326 -1.2093  0.2143
  246MOL0     H33180   7.367   3.343  11.043  0.7461  0.7430 -0.1323
  246MOL0     H33181   7.277   3.437  11.165  0.3256  2.7458 -0.5171
  246MOL0     H33182   7.246   3.625  10.994  0.1348  0.5170 -0.8647
  246MOL0     H33183   7.365   3.537  10.889 -0.2916 -2.7288  0.4947
  246MOL0     H33184   7.542   3.553  11.071  0.5217  0.5353 -1.1860
  246MOL0     H33185   7.475   3.708  11.014 -1.1603  0.3963 -0.3240
  246MOL0     H33186   7.395   3.574  11.276  2.2925 -0.8347  0.6203
  246MOL0     H33187   7.303   3.709  11.205 -1.5187 -2.2641  0.6317
  246MOL0     H33188   7.506   3.863  11.229  0.3547  1.7955  2.8052
  246MOL0     H33189   7.460   3.791  11.377  0.3417  1.0568 -1.1904
  246MOL0     H33190   6.577   3.623  10.883 -1.1839  0.7268  2.4727
  246MOL0     H33191   6.529   3.874  10.896 -0.6439  1.4629 -7.0862
  246MOL0     H33192   6.823   4.287  11.029 -0.9401 -1.4534 -2.3621
  246MOL0     H33193   6.852   4.534  11.067  0.8657 -3.4855 -0.0886
  246MOL0     H33194   5.080   4.772  10.695 -3.4278  2.9302  0.7547
  246MOL0     H33195   4.900   4.780  10.538 -1.2849  1.0603 -0.3230
  246MOL0     H33196   4.654   4.931  10.223  2.2491  1.1260  1.6976
  246MOL0     H33197   4.481   5.057  10.061 -1.1716 -1.2863 -2.9977
  246MOL0     H33198   4.401   5.211   9.968 -0.6735 -2.1876  0.6480
  246MOL0     H33199   4.328   5.092   9.861 -1.0041 -0.2243 -1.6514
  246MOL0     H33200   4.226   5.280   9.779  0.0071  0.8674  0.9460
  246MOL0     H33201   4.380   5.289   9.681 -0.2148  1.3484 -0.8455
  246MOL0     H33202   4.455   5.437   9.885 -0.4360  0.7386  3.0791
  246MOL0     H33203   4.286   5.426   9.945 -2.0255 -0.1833 -1.5338
  246MOL0     H33204   4.323   5.648   9.834 -2.0041  1.1393 -1.1230
  246MOL0     H33205   4.362   5.569   9.681 -2.0380  0.8278 -1.2335
  246MOL0     H33206   3.938   5.520   9.720 -0.6183  0.4938  0.3279
  246MOL0     H33207   4.782   5.104   9.778 -0.0973  3.0296  1.7826
  246MOL0     H33208   5.061   4.996   9.983 -1.3988 -0.7241  0.3550
  246MOL0     H33209   5.011   4.884   9.852 -0.7333 -0.3026 -0.3407
  246MOL0     H33210   5.019   5.058   9.821  2.2883 -2.2825 -1.4698
  247MOL0     O33211   2.025  10.607   2.740 -0.4849 -0.9184  0.0127
  247MOL0     C33212   2.029  10.632   2.617 -0.3946  0.4325  0.7192
  247MOL0     O33213   1.930  10.691   2.542  0.0263  0.6152  0.2087
  247MOL0     C33214   1.804  10.716   2.605 -0.7395  0.7383 -0.2380
  247MOL0     C33215   1.727  10.609   2.673 -0.0065 -0.1244 -0.6594
  247MOL0     C33216   1.598  10.627   2.704  0.7138  0.7763 -0.3795
  247MOL0     C33217   1.535  10.751   2.676  0.4178 -0.8169 -0.1122
  247MOL0     O33218   1.400  10.771   2.686  0.0299 -0.3638 -0.1538
  247MOL0     C33219   1.317  10.663   2.641  0.6516  0.1375 -0.7762
  247MOL0     C33220   1.207  10.636   2.744  0.0734  0.4420 -0.0853
  247MOL0     C33221   1.119  10.762   2.772  0.1139 -0.1984  0.2667
  247MOL0     C33222   1.167  10.840   2.900  0.1051  0.5161  0.4744
  247MOL0     C33223   1.089  10.969   2.921  0.3125  0.0679 -0.0459
  247MOL0     C33224   1.134  11.057   3.040  0.0341 -0.5104 -0.5164
  247MOL0     C33225   1.036  11.179   3.068  0.3411  0.4260 -0.1869
  247MOL0     C33226   1.008  11.264   2.949 -0.6194  0.1140  0.3546
  247MOL0     N33227   0.979  11.404   2.982  0.7673  0.2305 -0.0645
  247MOL0     C33228   1.031  11.510   2.914 -0.6743  0.1779 -0.5718
  247MOL0     C33229   0.958  11.608   2.953  0.4378  1.5245 -0.8817
  247MOL0     C33230   0.989  11.742   2.896  0.1879 -0.3490  1.2151
  247MOL0     C33231   0.859  11.825   2.869  0.3519 -0.3377 -0.5322
  247MOL0     C33232   0.874  11.938   2.771  0.3470 -0.3660  0.0854
  247MOL0     C33233   0.962  12.046   2.833  0.7076  0.4327 -0.3763
  247MOL0     O33234   1.098  12.025   2.814 -0.0231  0.1270  0.1405
  247MOL0     C33235   1.167  12.078   2.710 -0.7362 -0.0997 -0.7149
  247MOL0     C33236   1.297  12.039   2.682  0.2701  0.3050  1.1652
  247MOL0     C33237   1.373  12.098   2.579  0.6888  0.1754  0.0782
  247MOL0     C33238   1.325  12.199   2.494 -1.2199  0.6355  0.6065
  247MOL0     C33239   1.416  12.295   2.419 -0.2674  0.6737 -0.7470
  247MOL0     O33240   1.545  12.262   2.451 -0.1430  0.0124 -0.1731
  247MOL0     C33241   1.655  12.313   2.374 -0.2003  0.9349  0.8582
  247MOL0     C33242   1.675  12.434   2.321 -0.6973  0.0422 -0.2201
  247MOL0     C33243   1.807  12.472   2.291 -0.5443 -0.9643  0.6072
  247MOL0     C33244   1.913  12.382   2.288 -0.6142  0.0548 -0.1370
  247MOL0     O33245   2.046  12.408   2.241 -0.0453 -1.2247 -0.5078
  247MOL0     C33246   2.058  12.509   2.139  0.2107  0.0654 -0.1273
  247MOL0     C33247   2.200  12.502   2.082  0.6888  0.2343  1.1121
  247MOL0     C33248   2.308  12.540   2.184 -0.1364 -0.5459  0.0222
  247MOL0     C33249   2.446  12.550   2.116 -0.9512 -0.1903 -0.3722
  247MOL0     C33250   2.558  12.579   2.220 -0.3118 -0.7552  1.0004
  247MOL0     C33251   2.704  12.592   2.167  0.4842 -0.2167 -0.5712
  247MOL0     C33252   2.805  12.610   2.286 -0.7102 -0.6138 -0.2024
  247MOL0     C33253   2.951  12.612   2.241 -0.1682  0.3081 -1.6190
  247MOL0    Cl33254   2.980  12.464   2.149  0.2267  0.2301  0.1661
  247MOL0     C33255   1.884  12.248   2.331 -0.4459  0.9504 -0.5744
  247MOL0     C33256   1.756  12.217   2.383 -0.2367 -0.5635 -0.3268
  247MOL0     O33257   1.384  12.386   2.345 -0.5533  0.9552  1.0074
  247MOL0     C33258   1.196  12.232   2.516  0.3685 -0.2228 -0.2117
  247MOL0     C33259   1.110  12.173   2.615 -0.5859  0.6452  0.9000
  247MOL0     N33260   0.857  11.566   3.041  0.3588  0.5955  0.6165
  247MOL0     N33261   0.870  11.438   3.064  0.8674 -0.0056  0.6242
  247MOL0     C33262   1.602  10.855   2.618 -0.6633  0.9086 -0.6366
  247MOL0     C33263   1.734  10.832   2.580 -0.4696  0.2186 -0.3821
  247MOL0     C33264   2.143  10.597   2.530 -0.1480  0.5096  0.5472
  247MOL0     C33265   2.187  10.696   2.434  0.2451 -0.5500  0.5225
  247MOL0     C33266   2.316  10.678   2.379 -0.2785  0.5741  0.6486
  247MOL0     C33267   2.390  10.558   2.393  0.0603  0.2647  0.1271
  247MOL0     O33268   2.511  10.556   2.333  0.2604  0.2090 -0.3038
  247MOL0     C33269   2.595  10.435   2.348 -0.3421  0.3456 -0.0596
  247MOL0     C33270   2.675  10.426   2.486 -0.4352 -0.9780  0.2749
  247MOL0     C33271   2.788  10.525   2.480 -0.5674 -0.8327 -0.1727
  247MOL0     C33272   2.927  10.480   2.409  0.0690 -0.7602 -0.2267
  247MOL0     C33273   3.012  10.593   2.389  0.5536 -0.0862  0.2658
  247MOL0     C33274   3.090  10.684   2.398 -0.5710 -0.0099  0.1757
  247MOL0     C33275   2.335  10.459   2.474 -0.5716 -0.8832  1.2792
  247MOL0     C33276   2.218  10.477   2.551 -0.1498  0.2532  0.0218
  247MOL0     C33277   2.170  10.355   2.630  0.1199 -0.0325 -0.0691
  247MOL0     H33278   1.781  10.517   2.693  1.9458  0.8754 -1.0555
  247MOL0     H33279   1.533  10.547   2.737 -0.1852  2.0366  1.0587
  247MOL0     H33280   1.283  10.673   2.538 -0.2948 -0.1612 -0.4997
  247MOL0     H33281   1.363  10.564   2.643  3.5626  1.3683 -0.4810
  247MOL0     H33282   1.254  10.597   2.835 -1.6060 -0.2227  0.5388
  247MOL0     H33283   1.147  10.559   2.695  1.5916 -0.5963 -0.3899
  247MOL0     H33284   1.015  10.730   2.783  0.3787 -2.0646 -1.8096
  247MOL0     H33285   1.124  10.816   2.678 -1.8665 -0.8486 -0.2580
  247MOL0     H33286   1.157  10.783   2.993 -1.3890 -0.1593 -0.0723
  247MOL0     H33287   1.271  10.872   2.889  0.3955 -1.1463 -2.5124
  247MOL0     H33288   1.100  11.035   2.835 -0.6486  2.3400  1.4770
  247MOL0     H33289   0.983  10.945   2.935 -0.3296  0.7723 -3.0915
  247MOL0     H33290   1.126  10.989   3.125  1.7540 -1.2484 -0.9150
  247MOL0     H33291   1.237  11.092   3.042 -1.3360  4.3301 -0.0609
  247MOL0     H33292   1.071  11.233   3.157 -0.8724  2.4866 -0.9012
  247MOL0     H33293   0.936  11.144   3.095  0.6758 -0.3136  0.1001
  247MOL0     H33294   1.097  11.272   2.885 -1.4829 -1.6803 -1.1610
  247MOL0     H33295   0.923  11.224   2.893 -2.0825  3.6203 -0.1737
  247MOL0     H33296   1.117  11.513   2.847  1.2141  1.8975  1.7656
  247MOL0     H33297   1.052  11.801   2.963  1.4709  1.7793 -1.6402
  247MOL0     H33298   1.039  11.723   2.801 -0.8278  0.6416  0.4612
  247MOL0     H33299   0.786  11.758   2.821  0.4486 -0.4655 -0.5025
  247MOL0     H33300   0.820  11.864   2.963 -0.5681 -1.1445 -0.5642
  247MOL0     H33301   0.783  11.992   2.743  1.1897  2.5167  2.4504
  247MOL0     H33302   0.929  11.905   2.682  0.4602 -0.8719  0.3443
  247MOL0     H33303   0.961  12.033   2.941  1.4413 -0.3344 -0.4488
  247MOL0     H33304   0.926  12.145   2.803 -1.0464 -0.6721 -2.0955
  247MOL0     H33305   1.340  11.957   2.739 -1.0194  0.4995  2.4871
  247MOL0     H33306   1.473  12.055   2.573  0.5817 -0.2510  1.2395
  247MOL0     H33307   1.604  12.516   2.318 -0.6749  0.2586  2.7226
  247MOL0     H33308   1.830  12.568   2.246  2.7306 -1.9002  0.0201
  247MOL0     H33309   1.990  12.481   2.058 -0.5122 -1.9388  1.1094
  247MOL0     H33310   2.041  12.604   2.191  3.6507 -0.3178  2.0143
  247MOL0     H33311   2.227  12.404   2.041  3.7658  0.8712  1.4010
  247MOL0     H33312   2.215  12.583   2.010  3.4690 -0.6807  0.5355
  247MOL0     H33313   2.287  12.638   2.226  1.4677 -0.3997  0.5621
  247MOL0     H33314   2.302  12.461   2.258 -0.5903 -0.7519 -0.2309
  247MOL0     H33315   2.444  12.639   2.053  1.0545  0.1951  0.0393
  247MOL0     H33316   2.474  12.466   2.051  1.8839 -0.9757  1.6779
  247MOL0     H33317   2.566  12.490   2.284 -0.6175  1.0153  3.6627
  247MOL0     H33318   2.539  12.676   2.267 -0.3088  0.3236 -1.0845
  247MOL0     H33319   2.724  12.495   2.122  2.8950 -0.3494  0.6563
  247MOL0     H33320   2.697  12.676   2.096 -2.5415  0.8298  0.7801
  247MOL0     H33321   2.789  12.531   2.360  1.3545 -0.1251  0.8490
  247MOL0     H33322   2.795  12.706   2.337  0.9123 -0.6542  0.2725
  247MOL0     H33323   2.984  12.702   2.188  2.3283  0.9913  0.8615
  247MOL0     H33324   3.013  12.606   2.330 -1.9436  2.2695 -0.1423
  247MOL0     H33325   1.954  12.166   2.338 -0.8062  0.6868 -0.0129
  247MOL0     H33326   1.747  12.121   2.432  0.5516 -0.1448  0.6701
  247MOL0     H33327   1.146  12.316   2.467 -0.6890 -0.2961  0.6862
  247MOL0     H33328   1.018  12.230   2.626 -0.3367  1.4177 -0.7764
  247MOL0     H33329   1.564  10.955   2.601  2.5765  2.2356 -0.7630
  247MOL0     H33330   1.775  10.912   2.521  1.2036  0.4281  0.9965
  247MOL0     H33331   2.128  10.787   2.426 -2.5348 -2.2846 -0.1971
  247MOL0     H33332   2.365  10.749   2.313 -1.2573  1.0224  0.3926
  247MOL0     H33333   2.663  10.431   2.262  0.7517 -0.3786  0.8094
  247MOL0     H33334   2.533  10.345   2.341 -0.2880  0.2038  1.0948
  247MOL0     H33335   2.720  10.326   2.485  2.3075  0.1626 -1.6218
  247MOL0     H33336   2.603  10.429   2.568 -2.0630  1.0782 -1.1207
  247MOL0     H33337   2.818  10.554   2.581  0.1490  0.9224 -0.8463
  247MOL0     H33338   2.741  10.614   2.436 -1.1491 -1.4386 -0.7910
  247MOL0     H33339   2.978  10.401   2.465  0.6608  0.0810  0.4322
  247MOL0     H33340   2.906  10.444   2.307 -0.8802 -0.3947 -0.1715
  247MOL0     H33341   3.155  10.768   2.387  0.1162 -0.4442  0.8990
  247MOL0     H33342   2.382  10.361   2.481  1.1084 -0.2288 -0.2522
  247MOL0     H33343   2.251  10.296   2.674  0.2655 -1.3852 -2.0426
  247MOL0     H33344   2.092  10.369   2.705 -0.4802 -3.4382  0.0815
  247MOL0     H33345   2.128  10.295   2.549 -1.0915  2.7146 -1.6222
  248MOL0     O33346   2.173   9.590  11.012  0.7143  0.0436  0.3324
  248MOL0     C33347   2.165   9.467  10.993 -0.4588  0.0364 -0.3495
  248MOL0     O33348   2.255   9.379  11.042  0.7219  0.2560  0.7418
  248MOL0     C33349   2.359   9.433  11.111 -0.4638  0.9002 -0.9615
  248MOL0     C33350   2.344   9.478  11.240  0.6583  0.4861 -0.3013
  248MOL0     C33351   2.462   9.517  11.315 -0.1703  0.0605 -0.5699
  248MOL0     C33352   2.586   9.521  11.260 -0.9242  0.5527 -0.1098
  248MOL0     O33353   2.689   9.554  11.351 -0.5403 -0.6113 -0.6517
  248MOL0     C33354   2.822   9.562  11.289  0.1633  0.1623  0.1181
  248MOL0     C33355   2.910   9.614  11.394 -0.2600  0.0464 -0.2432
  248MOL0     C33356   3.057   9.625  11.348  0.0662 -0.0972 -0.0784
  248MOL0     C33357   3.130   9.712  11.455 -0.5652 -0.3678  0.0294
  248MOL0     C33358   3.280   9.702  11.431 -0.6016 -0.7900  0.4900
  248MOL0     C33359   3.346   9.805  11.520  0.5406  0.1889  0.0039
  248MOL0     C33360   3.489   9.766  11.545 -0.2126  0.8203 -1.0225
  248MOL0     C33361   3.511   9.644  11.635  0.6082 -0.3545 -0.5853
  248MOL0     N33362   3.649   9.630  11.674  0.7165 -0.8693  0.3433
  248MOL0     C33363   3.692   9.676  11.795  0.0755  0.1362 -0.3826
  248MOL0     C33364   3.817   9.626  11.803  0.2111  0.2687 -0.7911
  248MOL0     C33365   3.909   9.642  11.922  0.2763 -0.0778 -0.3703
  248MOL0     C33366   3.982   9.774  11.933 -0.1560 -0.0709  0.0406
  248MOL0     C33367   4.085   9.764  12.039 -1.4327 -0.1051 -0.0363
  248MOL0     C33368   4.212   9.685  12.002 -0.1753 -0.6453  0.9419
  248MOL0     O33369   4.284   9.742  11.884 -0.4290  0.0959 -0.3863
  248MOL0     C33370   4.383   9.839  11.905 -0.4733  0.3863 -0.1382
  248MOL0     C33371   4.428   9.909  12.025 -0.3163  0.8102  0.3092
  248MOL0     C33372   4.543   9.983  12.015  0.1852 -0.2087 -0.0283
  248MOL0     C33373   4.606  10.018  11.889 -0.5128 -0.8885 -0.5107
  248MOL0     C33374   4.689  10.136  11.871 -0.3432 -0.3999 -0.8036
  248MOL0     O33375   4.730  10.179  11.997  0.0021  0.2533  0.1575
  248MOL0     C33376   4.797  10.296  12.020  0.1661 -0.6676  0.3001
  248MOL0     C33377   4.809  10.331  12.156 -0.4366  0.1752  0.1733
  248MOL0     C33378   4.879  10.445  12.194  0.2307  0.4080 -0.9004
  248MOL0     C33379   4.933  10.533  12.101 -0.6306 -0.7803 -1.0764
  248MOL0     O33380   4.997  10.647  12.130 -0.3218  0.4040  0.0612
  248MOL0     C33381   5.063  10.659  12.262  0.4746 -0.1779  0.8329
  248MOL0     C33382   5.107  10.802  12.264 -0.0954  0.1875 -0.4604
  248MOL0     C33383   5.243  10.825  12.195 -0.7357 -0.1558 -0.5775
  248MOL0     C33384   5.300  10.965  12.220 -0.3449 -0.0165 -0.4758
  248MOL0     C33385   5.442  10.992  12.171 -0.3015 -0.4537 -0.3309
  248MOL0     C33386   5.486  11.133  12.192  0.1068 -0.6901  0.2469
  248MOL0     C33387   5.642  11.133  12.174 -0.6160 -0.3450 -0.1036
  248MOL0     C33388   5.695  11.273  12.139  1.6913  0.0429  1.1955
  248MOL0    Cl33389   5.607  11.398  12.238  0.1704  0.2718  0.1320
  248MOL0     C33390   4.908  10.506  11.966 -0.8361 -0.0752  0.2814
  248MOL0     C33391   4.844  10.392  11.919 -0.3631 -0.0118  0.1008
  248MOL0     O33392   4.718  10.183  11.763 -0.8638 -0.1444 -0.7409
  248MOL0     C33393   4.551   9.958  11.775  0.3167  0.1259  0.6522
  248MOL0     C33394   4.446   9.867  11.782  0.0645  0.7981 -0.2307
  248MOL0     N33395   3.849   9.563  11.684 -0.7584  0.3446  0.3558
  248MOL0     N33396   3.743   9.560  11.608 -1.4238  0.1597  0.7091
  248MOL0     C33397   2.600   9.482  11.129  0.1846  0.7469  0.0519
  248MOL0     C33398   2.482   9.435  11.059 -0.1288 -0.9396 -0.5491
  248MOL0     C33399   2.059   9.390  10.927 -0.9512 -0.5031  0.4080
  248MOL0     C33400   2.075   9.263  10.868  0.9155  1.0642  0.2051
  248MOL0     C33401   1.970   9.193  10.794 -0.1285 -0.2867 -0.3135
  248MOL0     C33402   1.838   9.243  10.799  0.1756 -0.6898  0.8025
  248MOL0     O33403   1.724   9.191  10.745  0.0101  0.4118 -0.2113
  248MOL0     C33404   1.732   9.086  10.649 -0.7997 -0.5142 -1.6151
  248MOL0     C33405   1.588   9.037  10.619  0.0692  0.4128 -0.7379
  248MOL0     C33406   1.581   8.955  10.495 -0.5718  0.0720 -0.3366
  248MOL0     C33407   1.444   8.930  10.442  0.4735 -0.1909  0.0188
  248MOL0     C33408   1.374   8.825  10.505  0.9784 -0.1674  0.5409
  248MOL0     C33409   1.303   8.735  10.545  0.0925 -0.0507 -1.6645
  248MOL0     C33410   1.824   9.362  10.865  0.1403 -0.8729 -0.0610
  248MOL0     C33411   1.930   9.434  10.933  0.3932  1.3433  0.4104
  248MOL0     C33412   1.893   9.538  11.014  0.2668  0.1956  0.2018
  248MOL0     H33413   2.242   9.482  11.278  0.1438  0.4417 -1.6126
  248MOL0     H33414   2.449   9.546  11.419 -1.4963 -2.5958  0.1088
  248MOL0     H33415   2.861   9.467  11.253  1.8788  1.1228 -0.6697
  248MOL0     H33416   2.825   9.617  11.194  2.6403  0.0309  0.0707
  248MOL0     H33417   2.903   9.553  11.485 -1.0355 -2.2684 -1.7675
  248MOL0     H33418   2.879   9.715  11.423 -2.3251 -0.2485 -1.3099
  248MOL0     H33419   3.064   9.650  11.241  0.3396 -1.7142 -0.4684
  248MOL0     H33420   3.096   9.523  11.355 -0.6647 -0.2781  1.6209
  248MOL0     H33421   3.109   9.816  11.430  3.3545  1.1489  2.0793
  248MOL0     H33422   3.110   9.665  11.552 -0.3148 -2.2030 -0.7649
  248MOL0     H33423   3.328   9.606  11.455  2.4015  0.5589  0.3564
  248MOL0     H33424   3.291   9.733  11.327 -0.7517 -0.5630  0.5418
  248MOL0     H33425   3.336   9.898  11.462  2.1221 -0.3082 -1.1446
  248MOL0     H33426   3.294   9.813  11.616  0.0974  0.1890 -0.2348
  248MOL0     H33427   3.543   9.835  11.611  0.3356 -0.1133 -0.4824
  248MOL0     H33428   3.544   9.758  11.451  1.3672  2.2161 -0.2570
  248MOL0     H33429   3.452   9.651  11.726  0.0331 -0.6526 -0.9293
  248MOL0     H33430   3.481   9.550  11.586 -0.4962  1.1368 -2.9799
  248MOL0     H33431   3.638   9.731  11.871 -1.8906 -2.8778  0.5652
  248MOL0     H33432   3.853   9.614  12.011 -0.2911 -1.1302 -1.0385
  248MOL0     H33433   3.981   9.562  11.903  1.5974  0.8633  0.5097
  248MOL0     H33434   4.017   9.815  11.838  0.6213 -0.1823  0.2698
  248MOL0     H33435   3.907   9.850  11.959  1.1184  0.5602  2.1212
  248MOL0     H33436   4.046   9.735  12.136 -0.2863  1.7633  1.0444
  248MOL0     H33437   4.120   9.866  12.059 -2.9567  0.3228  0.5776
  248MOL0     H33438   4.188   9.584  11.969 -1.6500 -0.0355  0.0203
  248MOL0     H33439   4.286   9.678  12.082  1.1287 -0.8261 -0.2303
  248MOL0     H33440   4.386   9.896  12.124  0.9458  2.0366  1.0321
  248MOL0     H33441   4.577  10.035  12.103 -2.3157  1.4051  0.0858
  248MOL0     H33442   4.771  10.270  12.237  0.7829  0.8107  1.2606
  248MOL0     H33443   4.879  10.456  12.302 -2.6332  3.2242 -1.0350
  248MOL0     H33444   4.991  10.640  12.342 -1.6617 -0.3175 -0.9996
  248MOL0     H33445   5.145  10.586  12.260 -0.5347 -1.3467  0.7069
  248MOL0     H33446   5.013  10.852  12.238 -0.6949 -0.6456  0.0450
  248MOL0     H33447   5.117  10.838  12.366 -1.4685 -3.0731  0.9692
  248MOL0     H33448   5.303  10.736  12.216 -0.7885 -0.2387 -0.7769
  248MOL0     H33449   5.231  10.811  12.087  1.6157 -2.6531 -0.6094
  248MOL0     H33450   5.289  10.989  12.326 -0.4969  2.3310 -0.9652
  248MOL0     H33451   5.245  11.037  12.159  1.8830  0.1898 -2.3727
  248MOL0     H33452   5.443  10.967  12.064  0.7035  1.2753 -0.7787
  248MOL0     H33453   5.504  10.914  12.215 -0.3368  0.7102  1.9525
  248MOL0     H33454   5.438  11.204  12.123  1.9119  2.7387  2.2427
  248MOL0     H33455   5.458  11.171  12.290 -2.1086  0.5046 -0.7654
  248MOL0     H33456   5.674  11.060  12.099  2.0958 -0.4263  0.9946
  248MOL0     H33457   5.687  11.104  12.269 -3.0128 -2.2369  0.5421
  248MOL0     H33458   5.801  11.287  12.161  1.3545  2.0640  1.6990
  248MOL0     H33459   5.688  11.302  12.034  0.9021 -2.5254  0.4571
  248MOL0     H33460   4.950  10.574  11.893 -0.5422  0.1477  0.6594
  248MOL0     H33461   4.838  10.377  11.812  0.8148 -4.2340  0.4532
  248MOL0     H33462   4.600   9.975  11.679  1.0010 -2.0765  0.5633
  248MOL0     H33463   4.408   9.822  11.690 -0.2656  2.0095 -0.7142
  248MOL0     H33464   2.686   9.482  11.064 -0.6078 -3.0758 -1.2722
  248MOL0     H33465   2.496   9.415  10.953  0.1065 -0.6726 -0.5688
  248MOL0     H33466   2.173   9.216  10.857  0.3183  0.4353 -6.1655
  248MOL0     H33467   1.973   9.090  10.760 -1.8135  0.1151 -1.8526
  248MOL0     H33468   1.791   9.003  10.689  0.8650  1.9858  1.5125
  248MOL0     H33469   1.782   9.135  10.565  1.4037  1.6272  0.7849
  248MOL0     H33470   1.515   9.117  10.632 -0.4417 -0.3083  1.2090
  248MOL0     H33471   1.562   8.967  10.699  2.3855 -0.7614 -0.9433
  248MOL0     H33472   1.634   8.861  10.514  0.8759  0.8019 -0.6201
  248MOL0     H33473   1.643   9.010  10.424  1.7007 -1.5804  0.2569
  248MOL0     H33474   1.383   9.020  10.452  0.9305 -0.0479  2.0337
  248MOL0     H33475   1.449   8.906  10.336 -0.8007  0.8531 -0.2978
  248MOL0     H33476   1.254   8.659  10.602  0.2550  0.2791 -1.0737
  248MOL0     H33477   1.734   9.422  10.853 -1.5681 -3.0485  1.0780
  248MOL0     H33478   1.947   9.538  11.109  0.0302  5.4519  0.6452
  248MOL0     H33479   1.910   9.636  10.968 -3.0396  0.9264  0.2748
  248MOL0     H33480   1.786   9.532  11.036 -0.0110  0.9324 -0.8688
  249MOL0     O33481   2.996   0.023   0.956 -0.0359 -0.2440 -0.3654
  249MOL0     C33482   3.046   0.040   1.069 -0.8294  0.0108 -0.2015
  249MOL0     O33483   2.971   0.065   1.181 -0.4473  0.9040 -0.5645
  249MOL0     C33484   2.836   0.039   1.175  0.1967  0.3770  0.3836
  249MOL0     C33485   2.772  -0.037   1.278  0.2621  0.3301 -0.0581
  249MOL0     C33486   2.638  -0.046   1.273 -0.0369 -1.4726  0.3345
  249MOL0     C33487   2.557   0.013   1.172 -0.3946 -0.4768  0.6827
  249MOL0     O33488   2.426  -0.008   1.191  1.0376 -0.6219 -0.3732
  249MOL0     C33489   2.338  -0.002   1.073  0.4116  0.0476 -0.1448
  249MOL0     C33490   2.212  -0.089   1.099  0.3635 -0.1275  0.0872
  249MOL0     C33491   2.120  -0.056   1.212  0.9869 -0.2432 -0.1281
  249MOL0     C33492   1.996  -0.142   1.216 -0.2875  0.2709  0.1348
  249MOL0     C33493   1.898  -0.092   1.324  0.2590 -0.0047 -0.4365
  249MOL0     C33494   1.786   0.006   1.277  0.5767  0.5604  0.3380
  249MOL0     C33495   1.674   0.026   1.379  0.3140  0.0703  0.4780
  249MOL0     C33496   1.551   0.090   1.301 -0.5436  0.1836 -0.2232
  249MOL0     N33497   1.592   0.200   1.205  0.4935  0.6877 -0.3204
  249MOL0     C33498   1.667   0.312   1.238 -0.2126 -0.1064 -0.6331
  249MOL0     C33499   1.667   0.379   1.128  0.1072  0.0639  0.8385
  249MOL0     C33500   1.752   0.506   1.114 -0.4589 -0.4011  0.3531
  249MOL0     C33501   1.867   0.500   1.018 -0.9259  0.6059  0.6632
  249MOL0     C33502   1.980   0.398   1.065  0.5975 -0.7534  0.1219
  249MOL0     C33503   2.040   0.435   1.206  0.8848 -0.1290  0.2618
  249MOL0     O33504   2.154   0.354   1.219  0.4133 -0.0370  0.3837
  249MOL0     C33505   2.276   0.408   1.194 -0.1277 -0.2630  0.3702
  249MOL0     C33506   2.295   0.531   1.131 -0.4784 -0.2376 -0.5919
  249MOL0     C33507   2.424   0.577   1.104 -0.3460  0.1467  0.2747
  249MOL0     C33508   2.539   0.501   1.152  0.1253  0.0929 -0.3853
  249MOL0     C33509   2.675   0.540   1.123 -0.3515 -0.3580  0.4510
  249MOL0     O33510   2.775   0.453   1.154  0.8985 -0.4477  0.2225
  249MOL0     C33511   2.907   0.493   1.150 -0.2687 -0.8863 -0.1228
  249MOL0     C33512   2.953   0.601   1.223  0.2893 -0.2032 -0.2466
  249MOL0     C33513   3.087   0.639   1.219  0.1543 -0.6368  0.3197
  249MOL0     C33514   3.175   0.567   1.142 -0.0761  0.7402  1.0274
  249MOL0     O33515   3.309   0.611   1.144  0.5331 -0.0804 -0.0271
  249MOL0     C33516   3.406   0.524   1.092 -0.0687  0.1936  0.4824
  249MOL0     C33517   3.540   0.574   1.132 -1.3139  0.4261 -0.4424
  249MOL0     C33518   3.580   0.710   1.072  0.4975  0.1824  0.5457
  249MOL0     C33519   3.710   0.765   1.125 -0.0668 -0.7611 -0.7727
  249MOL0     C33520   3.737   0.915   1.097 -0.2072 -0.1479  0.3692
  249MOL0     C33521   3.856   0.972   1.173  0.1336 -0.1341  0.1689
  249MOL0     C33522   3.881   1.113   1.112 -0.1845 -0.5382  1.3769
  249MOL0     C33523   4.000   1.177   1.183  0.7349 -0.1046  1.3079
  249MOL0    Cl33524   3.958   1.257   1.346  0.3449  0.0641  0.3782
  249MOL0     C33525   3.129   0.451   1.073  0.3086 -0.1104  0.0812
  249MOL0     C33526   2.998   0.417   1.079  0.5612  0.1390  0.9588
  249MOL0     O33527   2.689   0.650   1.064 -0.2121 -0.2412  0.7693
  249MOL0     C33528   2.515   0.385   1.234 -0.3454  0.1566 -0.1411
  249MOL0     C33529   2.385   0.337   1.248 -0.5086  0.3003  0.3336
  249MOL0     N33530   1.575   0.324   1.040  0.4271 -0.2897  0.5532
  249MOL0     N33531   1.543   0.209   1.076  0.6639  0.2011  0.7109
  249MOL0     C33532   2.612   0.079   1.064  0.5049  0.4769  0.8113
  249MOL0     C33533   2.755   0.090   1.069  0.5539 -0.0314  0.2230
  249MOL0     C33534   3.191   0.060   1.073  0.3796  0.1168 -0.2950
  249MOL0     C33535   3.264   0.076   0.946  0.0806  0.8818  0.5986
  249MOL0     C33536   3.396   0.086   0.943  0.3834  0.3774 -0.0246
  249MOL0     C33537   3.470   0.106   1.066  0.0609 -0.2813  0.9732
  249MOL0     O33538   3.607   0.140   1.049  0.7443 -0.1235 -0.4372
  249MOL0     C33539   3.699   0.160   1.156  0.2590 -0.2879  0.7600
  249MOL0     C33540   3.820   0.239   1.113 -0.7103 -0.4634 -0.7140
  249MOL0     C33541   3.926   0.279   1.217  0.2726  0.9861  0.3546
  249MOL0     C33542   4.014   0.162   1.270 -0.6602 -0.7195 -0.3453
  249MOL0     C33543   4.124   0.220   1.347 -0.9420 -0.0458 -0.0363
  249MOL0     C33544   4.214   0.281   1.400  0.2594  0.1125  0.3240
  249MOL0     C33545   3.407   0.093   1.191  1.0230 -0.4758  0.7652
  249MOL0     C33546   3.259   0.072   1.197 -0.3108 -0.7141 -0.9024
  249MOL0     C33547   3.210   0.082   1.333  0.4353  0.1027 -0.1538
  249MOL0     H33548   2.837  -0.078   1.355  1.1024  0.9832 -0.3983
  249MOL0     H33549   2.589  -0.109   1.346 -1.0055  0.1069  1.1260
  249MOL0     H33550   2.304   0.098   1.046 -1.8050 -1.0587 -1.7492
  249MOL0     H33551   2.387  -0.048   0.986 -3.8890  1.3747 -3.6422
  249MOL0     H33552   2.246  -0.192   1.113 -1.4502 -1.2190 -2.5386
  249MOL0     H33553   2.153  -0.091   1.007 -0.2706  4.6095  0.1677
  249MOL0     H33554   2.087   0.048   1.210 -0.2503 -0.5316  1.9637
  249MOL0     H33555   2.182  -0.072   1.301  1.0915 -2.7061 -0.5628
  249MOL0     H33556   1.947  -0.148   1.118 -0.7035 -0.2934  0.3686
  249MOL0     H33557   2.015  -0.250   1.220 -3.3333 -0.3631  0.4639
  249MOL0     H33558   1.861  -0.185   1.367  2.4107 -0.1289  1.3448
  249MOL0     H33559   1.952  -0.033   1.400 -0.2096  0.5134 -0.4989
  249MOL0     H33560   1.839   0.101   1.261 -1.1277  1.0950 -3.0613
  249MOL0     H33561   1.746  -0.031   1.182 -2.9968  0.2850  1.7899
  249MOL0     H33562   1.713   0.104   1.445 -1.3022  0.9807  0.4307
  249MOL0     H33563   1.643  -0.064   1.431  1.6898 -0.1432  0.9659
  249MOL0     H33564   1.494   0.015   1.245  1.0611 -0.8295 -0.5612
  249MOL0     H33565   1.485   0.133   1.376 -1.2878 -0.4301 -0.5093
  249MOL0     H33566   1.719   0.342   1.329  0.8496  2.8912 -2.1056
  249MOL0     H33567   1.686   0.581   1.069 -0.9583 -0.5447  0.8431
  249MOL0     H33568   1.776   0.557   1.207 -0.0099 -2.0236  1.1521
  249MOL0     H33569   1.841   0.466   0.917  3.6188 -0.8868 -0.2340
  249MOL0     H33570   1.909   0.600   1.006 -0.5749  0.5890  1.6761
  249MOL0     H33571   2.061   0.406   0.992  1.2303 -1.4932  0.7185
  249MOL0     H33572   1.947   0.294   1.066 -0.7484 -0.3482 -0.1033
  249MOL0     H33573   1.962   0.417   1.280 -0.6687  0.7071 -1.0934
  249MOL0     H33574   2.053   0.544   1.213  1.4957 -0.1926  0.2371
  249MOL0     H33575   2.207   0.582   1.093 -1.4157  0.9826  2.8601
  249MOL0     H33576   2.434   0.666   1.042  1.0667  0.3985  0.8292
  249MOL0     H33577   2.889   0.648   1.296 -1.5958 -2.3431 -0.3879
  249MOL0     H33578   3.124   0.721   1.280  1.7376 -2.4908  1.9692
  249MOL0     H33579   3.405   0.420   1.123  2.1661 -1.1086 -3.1365
  249MOL0     H33580   3.404   0.526   0.982 -0.0151 -0.0390  0.4769
  249MOL0     H33581   3.540   0.586   1.241 -0.9674  0.7669 -0.4782
  249MOL0     H33582   3.604   0.494   1.095 -3.2813 -0.2404 -2.6383
  249MOL0     H33583   3.592   0.700   0.964  0.4448 -3.0164  0.7574
  249MOL0     H33584   3.510   0.790   1.098 -1.0097 -0.8991 -0.0433
  249MOL0     H33585   3.785   0.708   1.070  0.4236 -1.4761  0.5712
  249MOL0     H33586   3.721   0.758   1.234  1.0540  4.3488 -0.3395
  249MOL0     H33587   3.654   0.978   1.133 -0.5789  0.9169 -2.1448
  249MOL0     H33588   3.753   0.929   0.990 -1.4934  2.4212  0.4266
  249MOL0     H33589   3.834   0.972   1.280 -0.3986  1.3093  0.0889
  249MOL0     H33590   3.942   0.906   1.161  0.8362  0.9039 -0.7292
  249MOL0     H33591   3.793   1.178   1.121  0.4199  0.3712  0.7867
  249MOL0     H33592   3.898   1.106   1.004 -0.1393 -0.7827  1.3995
  249MOL0     H33593   4.079   1.102   1.183  1.4971  0.6662  0.3591
  249MOL0     H33594   4.037   1.256   1.117 -1.3214 -1.8651 -2.2695
  249MOL0     H33595   3.198   0.386   1.021  0.0080 -1.7116  1.5831
  249MOL0     H33596   2.968   0.326   1.029  1.5984 -0.0014  0.5758
  249MOL0     H33597   2.592   0.313   1.258  1.0270  1.2599 -1.0655
  249MOL0     H33598   2.367   0.249   1.309  2.6753 -0.9013 -0.2832
  249MOL0     H33599   2.559   0.132   0.986 -1.0709 -2.8165 -0.5616
  249MOL0     H33600   2.797   0.163   1.000  0.1642  2.0846  2.0956
  249MOL0     H33601   3.198   0.073   0.859 -2.9301 -3.6766  2.6407
  249MOL0     H33602   3.447   0.085   0.847 -0.2746 -0.3107 -0.3782
  249MOL0     H33603   3.720   0.064   1.205 -0.7874 -0.0198  1.8078
  249MOL0     H33604   3.656   0.218   1.239  0.2833 -0.4654  0.8967
  249MOL0     H33605   3.787   0.338   1.079 -0.7658  1.3459  3.8871
  249MOL0     H33606   3.880   0.193   1.034 -2.1649 -3.2673 -0.2993
  249MOL0     H33607   3.890   0.323   1.310  2.7825 -1.0786  2.4518
  249MOL0     H33608   3.985   0.360   1.172  1.4253  1.6690  2.9120
  249MOL0     H33609   3.968   0.100   1.348  2.0344 -3.1121 -0.5052
  249MOL0     H33610   4.056   0.104   1.187 -0.0795  1.2031 -1.4683
  249MOL0     H33611   4.294   0.329   1.453 -0.9269 -0.4351  2.7523
  249MOL0     H33612   3.463   0.110   1.282  1.0964 -0.4256  0.7102
  249MOL0     H33613   3.137   0.004   1.356 -1.1598  1.5316 -0.1225
  249MOL0     H33614   3.296   0.075   1.401  1.3752  2.3782 -1.0168
  249MOL0     H33615   3.160   0.179   1.336  0.1176  0.0009 -1.4813
  250MOL0     O33616   2.747  11.124   3.756 -0.3188  0.2520 -0.1723
  250MOL0     C33617   2.716  11.026   3.685 -0.1338 -0.0865  0.2438
  250MOL0     O33618   2.787  10.926   3.634 -0.0787  0.6311 -0.0352
  250MOL0     C33619   2.923  10.936   3.638  0.1121 -1.5937  0.5746
  250MOL0     C33620   2.991  11.010   3.539  0.6789 -0.2002  0.5091
  250MOL0     C33621   3.133  11.009   3.537  0.3672  0.1749  0.4571
  250MOL0     C33622   3.207  10.933   3.629 -0.1087 -0.6309  0.8367
  250MOL0     O33623   3.340  10.938   3.603  0.1351  0.0212  0.3486
  250MOL0     C33624   3.415  10.842   3.677 -0.3581  0.6046 -0.7890
  250MOL0     C33625   3.567  10.833   3.656 -0.4140  0.5573 -0.1595
  250MOL0     C33626   3.621  10.966   3.611  0.2670  0.1963 -0.3720
  250MOL0     C33627   3.774  10.968   3.636 -0.6494 -0.4084  1.0944
  250MOL0     C33628   3.829  11.111   3.618 -0.5189 -0.0721 -0.2540
  250MOL0     C33629   3.978  11.115   3.642 -0.3193  0.2657  0.9344
  250MOL0     C33630   4.024  11.067   3.785 -0.7649 -0.8474  0.3530
  250MOL0     C33631   4.164  11.120   3.812  1.0167  1.4064 -0.8800
  250MOL0     N33632   4.254  11.031   3.867 -0.4976  0.2893 -0.0387
  250MOL0     C33633   4.292  11.022   3.998 -0.2678  0.5931  0.0991
  250MOL0     C33634   4.405  10.952   3.990 -0.1352 -0.4839 -0.7654
  250MOL0     C33635   4.483  10.931   4.113 -0.8035 -0.5273 -0.2605
  250MOL0     C33636   4.625  10.960   4.093 -0.5386  0.0910  0.2061
  250MOL0     C33637   4.694  10.966   4.238  0.6878 -0.1226 -0.3486
  250MOL0     C33638   4.842  11.013   4.241 -0.6266  0.2831  0.6576
  250MOL0     O33639   4.919  10.947   4.134  0.4344 -0.6005  0.7638
  250MOL0     C33640   5.057  10.966   4.119  0.1005 -1.0795  0.3515
  250MOL0     C33641   5.109  10.918   3.998  0.2067 -0.6049 -0.0863
  250MOL0     C33642   5.252  10.900   3.979 -0.1554  0.1137  0.3955
  250MOL0     C33643   5.346  10.952   4.069 -0.1312 -0.6540  0.0649
  250MOL0     C33644   5.497  10.957   4.053  0.5152  0.5697 -0.1417
  250MOL0     O33645   5.541  10.916   3.928 -1.0847 -0.2429 -0.3473
  250MOL0     C33646   5.678  10.912   3.921 -0.8996  0.1181 -0.5369
  250MOL0     C33647   5.769  11.029   3.910  0.1454  0.5345 -0.3884
  250MOL0     C33648   5.904  11.005   3.909 -0.2065  1.1619  0.1784
  250MOL0     C33649   5.966  10.885   3.923 -1.1162 -0.2941  0.1199
  250MOL0     O33650   6.106  10.866   3.916  0.5371 -0.4420  0.1995
  250MOL0     C33651   6.194  10.982   3.931  0.3800  0.6444 -0.3000
  250MOL0     C33652   6.334  10.918   3.954 -0.3165 -0.0472 -0.2401
  250MOL0     C33653   6.374  10.826   3.844 -0.2593  0.0076  0.0385
  250MOL0     C33654   6.522  10.809   3.839  0.7364 -0.1614 -0.5376
  250MOL0     C33655   6.566  10.745   3.701  0.3192 -0.9231 -0.0128
  250MOL0     C33656   6.711  10.716   3.686 -0.7707 -0.0972 -0.3128
  250MOL0     C33657   6.749  10.625   3.566  0.7174 -0.0730  0.0715
  250MOL0     C33658   6.901  10.605   3.539 -0.4940 -0.3748 -0.1143
  250MOL0    Cl33659   6.963  10.750   3.463  0.2470  0.4974  0.2309
  250MOL0     C33660   5.877  10.775   3.928 -0.0666  0.8975  0.2773
  250MOL0     C33661   5.737  10.784   3.929 -0.3727 -0.6825 -0.6373
  250MOL0     O33662   5.559  11.013   4.145  0.1387  0.2540 -0.4165
  250MOL0     C33663   5.284  10.998   4.192  0.0983  0.5506  0.5243
  250MOL0     C33664   5.144  11.007   4.219 -0.5189  0.6487  0.4824
  250MOL0     N33665   4.442  10.928   3.856  0.1385 -0.5136  0.7616
  250MOL0     N33666   4.348  10.977   3.784  0.5842 -0.3646 -0.1055
  250MOL0     C33667   3.137  10.881   3.742  0.3071 -0.0668  0.4745
  250MOL0     C33668   2.994  10.891   3.748 -0.1321  0.6206  0.3138
  250MOL0     C33669   2.572  11.018   3.655 -0.2958  0.1298 -0.2528
  250MOL0     C33670   2.517  10.889   3.652 -0.3051 -0.5481  0.3223
  250MOL0     C33671   2.384  10.874   3.624  0.3227 -0.1243  0.3022
  250MOL0     C33672   2.295  10.982   3.617  0.2515  0.0531  0.1372
  250MOL0     O33673   2.157  10.974   3.586  0.4581  0.3758  0.1927
  250MOL0     C33674   2.095  11.088   3.530  0.3505 -0.8951  0.1709
  250MOL0     C33675   1.970  11.036   3.474  0.3747  0.2040 -0.7916
  250MOL0     C33676   1.851  11.026   3.581 -0.3420  0.3949  0.1046
  250MOL0     C33677   1.736  10.944   3.523  0.3591  0.3114 -0.0166
  250MOL0     C33678   1.657  11.022   3.437 -0.2378  0.0454  0.1939
  250MOL0     C33679   1.591  11.088   3.353  0.2008 -0.1058  0.6454
  250MOL0     C33680   2.353  11.110   3.623 -1.1469 -0.4520 -0.1232
  250MOL0     C33681   2.490  11.129   3.640  0.1894 -0.5504  0.5231
  250MOL0     C33682   2.524  11.273   3.672 -0.4658 -0.3658  0.2496
  250MOL0     H33683   2.929  11.055   3.462 -3.5547  0.2225  3.8024
  250MOL0     H33684   3.186  11.065   3.460  0.8671  1.0803  1.4253
  250MOL0     H33685   3.404  10.856   3.785 -0.2508 -1.4928 -0.4627
  250MOL0     H33686   3.378  10.747   3.639  0.2394  1.1703 -2.9210
  250MOL0     H33687   3.581  10.763   3.573  0.9245  2.2708 -1.4604
  250MOL0     H33688   3.620  10.791   3.741 -0.5870  2.9498  1.2286
  250MOL0     H33689   3.578  11.043   3.676 -2.0100 -0.8818 -0.4906
  250MOL0     H33690   3.593  10.987   3.507 -1.4987 -1.7415 -0.3450
  250MOL0     H33691   3.792  10.925   3.735 -0.5519 -2.6078  0.1649
  250MOL0     H33692   3.819  10.893   3.571 -2.2576 -1.4153  1.0924
  250MOL0     H33693   3.804  11.151   3.519 -2.1805  5.0009  1.8558
  250MOL0     H33694   3.775  11.178   3.687  0.2202 -2.7040  3.1489
  250MOL0     H33695   4.027  11.047   3.571  2.5042  1.9975  1.1054
  250MOL0     H33696   4.022  11.213   3.624 -0.6402  0.1110 -0.8747
  250MOL0     H33697   4.016  10.959   3.800  0.8992 -0.6828  3.1130
  250MOL0     H33698   3.955  11.100   3.863 -1.7204 -3.6107  0.7923
  250MOL0     H33699   4.201  11.168   3.720  2.8073  1.5882 -0.0996
  250MOL0     H33700   4.164  11.200   3.886  0.7906 -0.6818  1.4792
  250MOL0     H33701   4.239  11.062   4.083  0.6524  4.6901 -1.0216
  250MOL0     H33702   4.441  11.005   4.183 -2.8355  0.8704 -2.7733
  250MOL0     H33703   4.463  10.828   4.143  1.9679 -0.8879  0.6508
  250MOL0     H33704   4.669  10.889   4.023 -1.3930 -1.8740  1.5589
  250MOL0     H33705   4.640  11.063   4.058 -0.3409 -0.2673 -0.7941
  250MOL0     H33706   4.702  10.862   4.271  2.8078  0.3485  0.7349
  250MOL0     H33707   4.632  11.024   4.307 -1.1779 -0.3156 -1.7636
  250MOL0     H33708   4.898  10.978   4.328 -3.1994 -3.7276  0.9415
  250MOL0     H33709   4.839  11.122   4.229 -1.3026  0.9376  5.0038
  250MOL0     H33710   5.033  10.889   3.926 -1.9775  2.7540  0.6308
  250MOL0     H33711   5.290  10.839   3.897 -1.9104 -2.8294  1.6220
  250MOL0     H33712   5.729  11.130   3.910  1.9864  1.4351 -4.0725
  250MOL0     H33713   5.959  11.098   3.899  2.6597 -0.3414  0.9277
  250MOL0     H33714   6.198  11.049   3.845  1.3192  1.0180  0.0274
  250MOL0     H33715   6.169  11.044   4.018  2.8733 -2.1152  2.5989
  250MOL0     H33716   6.403  11.003   3.959 -0.7394  0.2650  0.5542
  250MOL0     H33717   6.335  10.870   4.053 -1.5538  2.1270  0.8998
  250MOL0     H33718   6.325  10.729   3.853  1.9213 -1.1512  0.0134
  250MOL0     H33719   6.337  10.875   3.753 -0.4513  2.8275  1.5127
  250MOL0     H33720   6.554  10.737   3.916 -1.6571 -1.3665 -0.6030
  250MOL0     H33721   6.578  10.903   3.847 -0.0845  0.3598 -0.8498
  250MOL0     H33722   6.536  10.812   3.619  0.7576  1.4307  1.6544
  250MOL0     H33723   6.511  10.654   3.674  0.6993 -0.9060 -0.8825
  250MOL0     H33724   6.760  10.814   3.677 -0.6146 -0.1240  0.2147
  250MOL0     H33725   6.745  10.653   3.768  0.3206 -1.9053 -2.0578
  250MOL0     H33726   6.698  10.660   3.475  0.1611 -1.4554 -0.1706
  250MOL0     H33727   6.699  10.529   3.583 -2.6949  1.9479  2.8744
  250MOL0     H33728   6.950  10.580   3.633  0.4110 -0.9714 -0.7381
  250MOL0     H33729   6.923  10.518   3.476 -0.4141 -0.6155  0.2427
  250MOL0     H33730   5.927  10.680   3.943 -1.3525 -0.0407 -1.1481
  250MOL0     H33731   5.666  10.703   3.912 -1.0665  0.2565 -2.5846
  250MOL0     H33732   5.339  11.031   4.279  0.1065  0.7427  0.4471
  250MOL0     H33733   5.111  11.046   4.315 -0.0779  0.3353  0.7617
  250MOL0     H33734   3.191  10.828   3.820  0.6279 -1.2666 -0.5275
  250MOL0     H33735   2.947  10.833   3.827 -1.0272  3.0089  1.6540
  250MOL0     H33736   2.574  10.798   3.664 -3.0154 -2.4024  0.0213
  250MOL0     H33737   2.336  10.777   3.627 -0.2658  0.1752  0.8734
  250MOL0     H33738   2.150  11.131   3.446 -1.1315  0.6466 -0.0702
  250MOL0     H33739   2.072  11.168   3.601  1.6965  0.4926 -0.8937
  250MOL0     H33740   1.988  10.939   3.428 -0.6527 -0.3151 -0.1528
  250MOL0     H33741   1.935  11.103   3.394  0.1659 -0.9617 -1.6962
  250MOL0     H33742   1.820  11.123   3.622 -1.1715  1.1306 -2.1031
  250MOL0     H33743   1.891  10.973   3.668 -1.0663  1.9152  1.4048
  250MOL0     H33744   1.772  10.854   3.472 -1.6683 -0.4505 -0.1973
  250MOL0     H33745   1.680  10.912   3.611 -2.8395  1.1162 -1.6137
  250MOL0     H33746   1.549  11.141   3.270  0.3971  4.2863  3.0282
  250MOL0     H33747   2.294  11.200   3.636 -0.3352  0.0771 -0.0580
  250MOL0     H33748   2.468  11.350   3.618 -0.8794 -1.0527 -0.3246
  250MOL0     H33749   2.528  11.302   3.778  1.7157  0.6469 -0.0490
  250MOL0     H33750   2.625  11.286   3.631 -1.1035 -0.9803 -1.6189
  251MOL0     O33751   9.988   6.316   5.007 -0.0852  0.0363 -0.1671
  251MOL0     C33752   9.879   6.282   5.043 -0.7716  0.7707  0.5088
  251MOL0     O33753   9.847   6.275   5.173  0.6326 -0.3414 -0.5482
  251MOL0     C33754   9.937   6.278   5.273 -0.4996  0.0215  0.1421
  251MOL0     C33755   9.949   6.396   5.353 -0.3394  0.9327  0.2537
  251MOL0     C33756  10.054   6.414   5.444 -0.2825  0.5375 -0.6178
  251MOL0     C33757  10.150   6.311   5.456  0.5836 -0.3073 -1.0712
  251MOL0     O33758  10.249   6.334   5.547 -0.7172 -0.0957 -0.0121
  251MOL0     C33759  10.259   6.232   5.651 -0.0339 -0.6522 -0.1354
  251MOL0     C33760  10.362   6.271   5.754  0.0386 -0.1451 -0.7848
  251MOL0     C33761  10.431   6.157   5.826  0.5932 -0.4239 -1.1050
  251MOL0     C33762  10.559   6.212   5.900  0.4101 -0.1730 -0.3032
  251MOL0     C33763  10.639   6.118   5.988  0.5182 -0.6577  0.8147
  251MOL0     C33764  10.786   6.149   5.997 -0.2675 -0.4201 -0.6490
  251MOL0     C33765  10.812   6.285   6.064 -0.3990  0.0213  0.6106
  251MOL0     C33766  10.948   6.307   6.116 -0.2061  0.6932  0.1450
  251MOL0     N33767  10.999   6.232   6.239 -0.2521 -0.2985 -0.2640
  251MOL0     C33768  11.020   6.090   6.232 -0.2691  0.0379 -1.3622
  251MOL0     C33769  11.091   6.075   6.340 -0.3683  0.0642  0.0051
  251MOL0     C33770  11.130   5.936   6.387  0.7325 -0.5153 -0.5039
  251MOL0     C33771  11.293   5.932   6.383  1.1309 -0.3997  0.0880
  251MOL0     C33772  11.318   5.861   6.248 -0.4111 -0.9030  0.0428
  251MOL0     C33773  11.466   5.849   6.222  0.3557  0.2676  0.2383
  251MOL0     O33774  11.501   5.731   6.301  0.3771  0.1620  0.3575
  251MOL0     C33775  11.620   5.665   6.266 -0.1336 -0.0696 -0.3321
  251MOL0     C33776  11.696   5.694   6.154  0.1963 -0.1720 -1.1557
  251MOL0     C33777  11.832   5.640   6.151  0.7918 -0.2805  0.9979
  251MOL0     C33778  11.882   5.557   6.247 -0.5599  1.3363 -1.1373
  251MOL0     C33779  12.014   5.498   6.233 -0.8233 -1.0735 -0.3877
  251MOL0     O33780  12.061   5.418   6.334 -0.3186 -0.2689 -0.3364
  251MOL0     C33781  12.196   5.392   6.360 -0.1158 -0.4710  1.0114
  251MOL0     C33782  12.285   5.352   6.262 -0.0209  0.4401  0.1530
  251MOL0     C33783  12.418   5.332   6.296 -0.4917  0.1983  0.0123
  251MOL0     C33784  12.463   5.330   6.423 -0.1678  0.6205  0.4495
  251MOL0     O33785  12.588   5.295   6.465  0.6878 -0.7718  0.7418
  251MOL0     C33786  12.710   5.310   6.390 -0.2024  0.2874 -0.6798
  251MOL0     C33787  12.811   5.253   6.492 -0.5939 -0.5923  0.0209
  251MOL0     C33788  12.959   5.258   6.446  0.4109  0.0852  0.2905
  251MOL0     C33789  13.052   5.202   6.552 -0.0242  0.3417 -0.3027
  251MOL0     C33790  13.198   5.198   6.503  1.0669  0.3556  0.3954
  251MOL0     C33791  13.250   5.329   6.447  0.6805 -0.2446  0.5847
  251MOL0     C33792  13.402   5.329   6.430 -0.1827 -0.8517  0.1551
  251MOL0     C33793  13.469   5.462   6.417  0.1337  0.0632 -0.3926
  251MOL0    Cl33794  13.621   5.449   6.321  0.0165 -0.0463 -0.1039
  251MOL0     C33795  12.377   5.370   6.524  0.7148  0.0146  0.9402
  251MOL0     C33796  12.240   5.398   6.489 -0.0604 -0.5690 -0.3041
  251MOL0     O33797  12.072   5.526   6.128 -0.0483 -0.2701 -0.1208
  251MOL0     C33798  11.796   5.528   6.357 -0.2865  0.5239  0.0069
  251MOL0     C33799  11.673   5.575   6.361  1.2478 -0.3884  0.3462
  251MOL0     N33800  11.118   6.196   6.411 -0.3088  0.4840  0.1202
  251MOL0     N33801  11.063   6.295   6.339 -0.7260  0.6795 -0.3128
  251MOL0     C33802  10.141   6.190   5.385 -0.7930 -0.0696  0.1587
  251MOL0     C33803  10.035   6.178   5.286  0.1163 -0.1806  0.4453
  251MOL0     C33804   9.772   6.250   4.936 -0.1026 -0.6955 -0.2892
  251MOL0     C33805   9.641   6.231   4.989  1.5796 -0.2709 -0.2861
  251MOL0     C33806   9.524   6.233   4.904 -0.2945  0.2164 -1.1217
  251MOL0     C33807   9.541   6.228   4.767 -0.0032  0.4234 -0.5196
  251MOL0     O33808   9.426   6.226   4.701 -0.8744  0.1774 -0.9205
  251MOL0     C33809   9.393   6.365   4.665 -0.0841 -0.2851  0.6040
  251MOL0     C33810   9.271   6.355   4.579 -0.1793  1.2153 -0.0716
  251MOL0     C33811   9.282   6.271   4.461 -0.0712  0.2940 -0.3710
  251MOL0     C33812   9.143   6.244   4.395 -0.9723 -0.2043  0.4555
  251MOL0     C33813   9.072   6.375   4.368  0.0632 -0.2814  0.2802
  251MOL0     C33814   9.023   6.490   4.358  0.2683 -0.4543  0.3921
  251MOL0     C33815   9.666   6.248   4.708  0.3178  0.4317 -0.2859
  251MOL0     C33816   9.781   6.253   4.792  0.2545 -1.0395 -0.8447
  251MOL0     C33817   9.908   6.281   4.729  0.6186 -0.4534 -0.8964
  251MOL0     H33818   9.879   6.479   5.351 -0.3866  0.9032  0.5856
  251MOL0     H33819  10.053   6.509   5.496 -1.5328 -0.3052  0.9886
  251MOL0     H33820  10.161   6.207   5.694 -0.0924  3.1955  2.4139
  251MOL0     H33821  10.300   6.141   5.605  2.4061  0.7321 -0.8216
  251MOL0     H33822  10.319   6.336   5.832 -1.0376  0.5705 -1.9421
  251MOL0     H33823  10.433   6.332   5.697 -1.6298 -0.2228 -3.0766
  251MOL0     H33824  10.462   6.077   5.758  0.8063 -1.9232  0.6842
  251MOL0     H33825  10.359   6.112   5.894  0.8019  0.4617 -0.2816
  251MOL0     H33826  10.630   6.258   5.830 -1.2853  3.7357  0.2747
  251MOL0     H33827  10.539   6.302   5.958  0.2729  0.4529 -1.3010
  251MOL0     H33828  10.599   6.120   6.090  0.4068 -0.0832  0.7688
  251MOL0     H33829  10.616   6.014   5.966 -0.0653 -0.7787  1.8980
  251MOL0     H33830  10.838   6.064   6.040  0.4909 -0.6755 -2.0021
  251MOL0     H33831  10.815   6.155   5.891  1.4163 -2.7551 -0.3916
  251MOL0     H33832  10.746   6.307   6.148  0.0234  1.9229  0.5004
  251MOL0     H33833  10.793   6.357   5.984  0.7859  1.9590  1.9968
  251MOL0     H33834  11.029   6.269   6.053  2.1399 -1.9933  4.3368
  251MOL0     H33835  10.953   6.415   6.134 -0.5014  0.9984 -1.4412
  251MOL0     H33836  10.998   6.003   6.171  0.0371 -1.0507  0.0335
  251MOL0     H33837  11.093   5.929   6.489  1.4459 -0.6445 -0.2504
  251MOL0     H33838  11.083   5.861   6.322 -2.4608  0.0338  0.9574
  251MOL0     H33839  11.336   6.033   6.380  3.8694 -1.0803  5.1725
  251MOL0     H33840  11.338   5.879   6.467  0.3172  1.2323  1.6245
  251MOL0     H33841  11.278   5.926   6.170  1.8085  0.9211  0.3122
  251MOL0     H33842  11.269   5.764   6.237  1.8518 -2.1212  0.2268
  251MOL0     H33843  11.527   5.939   6.231 -1.4757  1.5634  0.3915
  251MOL0     H33844  11.476   5.829   6.115 -0.9041  1.3223 -0.1103
  251MOL0     H33845  11.658   5.770   6.086 -0.6785  0.2323 -0.2266
  251MOL0     H33846  11.884   5.675   6.063  1.3508  0.2190  1.5178
  251MOL0     H33847  12.256   5.329   6.160 -1.2669  0.1478  0.5537
  251MOL0     H33848  12.497   5.308   6.226  0.8478  0.8244  1.2482
  251MOL0     H33849  12.707   5.266   6.290 -3.5852  0.9919 -1.0132
  251MOL0     H33850  12.735   5.413   6.363  1.3213  1.1518  3.3746
  251MOL0     H33851  12.801   5.324   6.574 -1.9197  3.1297 -3.0519
  251MOL0     H33852  12.793   5.146   6.509 -0.2648 -1.2047 -2.9223
  251MOL0     H33853  12.967   5.207   6.350 -1.0761 -1.4009  0.9108
  251MOL0     H33854  12.983   5.364   6.432 -0.9472  0.7953  2.7946
  251MOL0     H33855  13.022   5.100   6.579  1.2427 -0.2355 -0.9522
  251MOL0     H33856  13.049   5.273   6.636 -0.6452  1.4567 -1.2450
  251MOL0     H33857  13.222   5.117   6.434  0.6432 -0.1267  0.8057
  251MOL0     H33858  13.251   5.169   6.595 -1.1692  0.0781  1.6823
  251MOL0     H33859  13.209   5.345   6.347  0.8413  0.0720  0.5683
  251MOL0     H33860  13.215   5.416   6.504  2.6107 -0.1168  1.6556
  251MOL0     H33861  13.431   5.275   6.340  1.4297  2.4519 -1.4964
  251MOL0     H33862  13.445   5.282   6.519  1.9781 -1.2508 -1.0414
  251MOL0     H33863  13.409   5.527   6.352 -4.0717 -1.0809  2.0150
  251MOL0     H33864  13.484   5.500   6.518  2.6723  1.7166 -1.2738
  251MOL0     H33865  12.405   5.399   6.625  0.4785 -1.2002  1.3632
  251MOL0     H33866  12.167   5.439   6.559 -2.6846 -0.0526 -3.1025
  251MOL0     H33867  11.823   5.461   6.438 -1.4665 -2.8826 -2.1905
  251MOL0     H33868  11.612   5.552   6.448  0.6996  1.5119  0.5158
  251MOL0     H33869  10.211   6.111   5.408 -0.6187 -0.3967 -1.3626
  251MOL0     H33870  10.025   6.085   5.230 -0.1569 -0.1397  0.4247
  251MOL0     H33871   9.622   6.215   5.094 -2.4291 -0.1357 -0.8352
  251MOL0     H33872   9.430   6.227   4.958  0.5507 -2.9173  0.2684
  251MOL0     H33873   9.459   6.427   4.604 -1.0206 -0.5320 -0.7002
  251MOL0     H33874   9.361   6.420   4.754 -1.6109  0.7719 -0.5459
  251MOL0     H33875   9.259   6.459   4.548  0.4626  1.0247 -1.0166
  251MOL0     H33876   9.186   6.329   4.643  0.0095  1.4444  0.2794
  251MOL0     H33877   9.324   6.175   4.490 -0.8536  0.3975  1.2273
  251MOL0     H33878   9.352   6.322   4.393  0.2023 -1.1917 -1.2322
  251MOL0     H33879   9.159   6.195   4.299  0.5595 -0.3979  0.7776
  251MOL0     H33880   9.085   6.179   4.462  0.6662 -0.2442  1.9254
  251MOL0     H33881   8.971   6.584   4.350 -0.6095 -0.9173  0.5156
  251MOL0     H33882   9.679   6.227   4.602  0.4583 -0.6897 -0.0564
  251MOL0     H33883   9.987   6.232   4.786  0.0088 -0.3727  0.0346
  251MOL0     H33884   9.907   6.252   4.623 -4.3799 -0.5701 -1.0454
  251MOL0     H33885   9.923   6.389   4.728 -4.9085  0.5999  0.3675
  252MOL0     O33886   7.253   3.154   7.705  0.2163  0.1398  0.8422
  252MOL0     C33887   7.268   3.276   7.728  0.7212  0.6606  0.2617
  252MOL0     O33888   7.176   3.374   7.692  0.4945  0.4417  0.1166
  252MOL0     C33889   7.052   3.343   7.631 -0.2199 -0.5666  0.5728
  252MOL0     C33890   7.005   3.436   7.538 -0.6370  0.4571 -0.0589
  252MOL0     C33891   6.877   3.418   7.479 -0.4565 -0.3844 -0.2571
  252MOL0     C33892   6.796   3.314   7.508  0.2871 -0.4113 -0.0054
  252MOL0     O33893   6.672   3.308   7.452  0.4090 -0.0580 -0.1831
  252MOL0     C33894   6.641   3.184   7.391 -0.7474  0.4477 -0.8442
  252MOL0     C33895   6.744   3.132   7.284  1.2716  0.2387  0.4879
  252MOL0     C33896   6.769   3.230   7.161 -0.3106 -0.1752 -0.1754
  252MOL0     C33897   6.882   3.203   7.064 -0.1320  0.0288  0.5401
  252MOL0     C33898   6.909   3.328   6.976 -0.6355 -0.0576  0.0242
  252MOL0     C33899   7.015   3.299   6.867 -0.1928 -0.2202 -0.0815
  252MOL0     C33900   6.994   3.385   6.744  0.1681 -0.7865  0.5083
  252MOL0     C33901   6.984   3.537   6.764 -0.4675 -1.3371 -0.6555
  252MOL0     N33902   7.101   3.594   6.838 -0.8466  0.4342  0.3200
  252MOL0     C33903   7.221   3.624   6.768 -0.5850  0.1358 -0.9060
  252MOL0     C33904   7.308   3.646   6.875  0.1020  0.2067 -0.1005
  252MOL0     C33905   7.457   3.679   6.879 -0.3020 -0.3611  0.2157
  252MOL0     C33906   7.553   3.564   6.866  0.1704  0.5965  0.2282
  252MOL0     C33907   7.695   3.633   6.859 -0.8709 -0.7053  0.0720
  252MOL0     C33908   7.802   3.531   6.833 -0.0602  0.8471  0.8745
  252MOL0     O33909   7.927   3.594   6.839 -0.2779  0.0438  0.0478
  252MOL0     C33910   8.040   3.515   6.815 -0.5606  0.0540 -0.9609
  252MOL0     C33911   8.157   3.585   6.785  0.2167 -0.3655  0.0578
  252MOL0     C33912   8.277   3.519   6.766 -0.5075  0.3086 -0.2190
  252MOL0     C33913   8.292   3.383   6.776 -0.1239 -0.0194  0.1658
  252MOL0     C33914   8.422   3.324   6.756 -0.4134  0.2467  0.7951
  252MOL0     O33915   8.525   3.416   6.715  0.6146 -0.1043 -0.5836
  252MOL0     C33916   8.655   3.377   6.690  0.1238  0.8058  0.1683
  252MOL0     C33917   8.720   3.433   6.585 -0.7872  0.2599 -0.4305
  252MOL0     C33918   8.854   3.390   6.546  0.5032 -0.2871 -0.1784
  252MOL0     C33919   8.921   3.300   6.625 -0.2283  0.2590 -1.0614
  252MOL0     O33920   9.051   3.279   6.609 -0.2263  0.2697  0.4651
  252MOL0     C33921   9.130   3.186   6.701  0.0989 -0.3327 -0.3112
  252MOL0     C33922   9.258   3.159   6.631 -0.3782 -0.2509 -1.0437
  252MOL0     C33923   9.237   3.056   6.524 -0.4776  0.3241  0.5200
  252MOL0     C33924   9.384   3.014   6.483 -0.3076  0.3633 -0.5524
  252MOL0     C33925   9.385   2.923   6.354  0.0257  0.0668  0.0568
  252MOL0     C33926   9.523   2.898   6.286  0.0923 -0.9443  0.2391
  252MOL0     C33927   9.510   2.820   6.155  0.2764 -0.2832  0.6337
  252MOL0     C33928   9.462   2.673   6.167 -0.8570 -0.1434 -0.0885
  252MOL0    Cl33929   9.450   2.570   6.019 -0.0045  0.5451  0.0321
  252MOL0     C33930   8.851   3.235   6.728  0.0553  0.0062 -0.4675
  252MOL0     C33931   8.722   3.267   6.760  0.2212 -0.5334 -0.3174
  252MOL0     O33932   8.431   3.202   6.755  0.2958  0.7070 -0.3421
  252MOL0     C33933   8.173   3.314   6.805  0.6965  0.1952  0.0121
  252MOL0     C33934   8.049   3.374   6.820  0.1295  0.9902 -0.0640
  252MOL0     N33935   7.232   3.629   6.992  0.1056 -0.4342  0.5970
  252MOL0     N33936   7.115   3.589   6.970  0.8792 -0.1539  0.3770
  252MOL0     C33937   6.838   3.217   7.599  0.4921 -0.0450  1.2847
  252MOL0     C33938   6.963   3.232   7.654  0.0900 -0.5037  0.0946
  252MOL0     C33939   7.404   3.306   7.773  0.2119  1.0377 -0.7532
  252MOL0     C33940   7.453   3.438   7.754 -0.2549 -0.2094 -0.0518
  252MOL0     C33941   7.577   3.469   7.783  0.2932 -0.4625 -0.8049
  252MOL0     C33942   7.668   3.384   7.840 -0.5289  0.5132 -0.2307
  252MOL0     O33943   7.802   3.403   7.832 -0.6010 -0.5105  0.7541
  252MOL0     C33944   7.846   3.521   7.896 -0.6245  0.0577 -0.3457
  252MOL0     C33945   7.970   3.484   7.974 -0.0008  0.5150 -0.4202
  252MOL0     C33946   7.948   3.445   8.119  0.0732  0.3204  0.0885
  252MOL0     C33947   8.088   3.395   8.174  0.5974  0.3733  0.1071
  252MOL0     C33948   8.130   3.252   8.130 -0.0091 -0.5970  0.7567
  252MOL0     C33949   8.158   3.143   8.079  0.3967 -0.3745  0.2704
  252MOL0     C33950   7.625   3.254   7.866 -0.7687  0.1659 -0.1551
  252MOL0     C33951   7.497   3.216   7.838 -0.9117  0.7337 -0.2504
  252MOL0     C33952   7.460   3.071   7.884  0.3363 -0.5735  0.6166
  252MOL0     H33953   7.068   3.523   7.525  0.4281 -0.0679  1.3349
  252MOL0     H33954   6.853   3.494   7.406  0.7638  0.8693  0.5758
  252MOL0     H33955   6.625   3.110   7.470 -0.2603  1.1857 -0.0403
  252MOL0     H33956   6.551   3.203   7.332 -1.1608 -0.1274 -0.4050
  252MOL0     H33957   6.698   3.044   7.239  0.7099  0.0240  1.4628
  252MOL0     H33958   6.841   3.112   7.332  1.5487 -0.5071 -0.3413
  252MOL0     H33959   6.781   3.326   7.212  1.6205 -0.5259  0.0883
  252MOL0     H33960   6.681   3.242   7.097  0.8951  0.6329 -1.7201
  252MOL0     H33961   6.973   3.168   7.115 -1.2329  0.2625  2.7750
  252MOL0     H33962   6.841   3.122   7.003 -0.7632  0.0911  0.8783
  252MOL0     H33963   6.815   3.344   6.922 -0.2982 -1.9911 -1.2262
  252MOL0     H33964   6.933   3.418   7.034  3.3844 -0.7043 -0.3701
  252MOL0     H33965   7.117   3.314   6.904 -0.9589  2.5898  1.1939
  252MOL0     H33966   7.007   3.194   6.840 -1.5331  0.4901 -2.7099
  252MOL0     H33967   6.900   3.357   6.696  0.4571 -0.6439 -0.1554
  252MOL0     H33968   7.069   3.357   6.669  1.0562 -1.7999  1.7217
  252MOL0     H33969   6.981   3.586   6.666  0.6927 -0.6052 -0.3456
  252MOL0     H33970   6.890   3.573   6.806 -0.1910 -2.1107  0.6876
  252MOL0     H33971   7.236   3.624   6.660 -0.6607 -0.0531 -0.9162
  252MOL0     H33972   7.472   3.745   6.792 -0.3438 -0.3664  0.2044
  252MOL0     H33973   7.478   3.738   6.969 -3.1205  2.2362 -0.6076
  252MOL0     H33974   7.546   3.496   6.951  0.1849  0.1352 -0.1352
  252MOL0     H33975   7.532   3.511   6.772 -0.0915  3.0507 -1.1797
  252MOL0     H33976   7.719   3.678   6.956 -1.2232 -1.1009  0.3452
  252MOL0     H33977   7.695   3.707   6.779 -0.5164  0.4315  1.0919
  252MOL0     H33978   7.777   3.502   6.730 -3.5042  0.9471  1.5540
  252MOL0     H33979   7.803   3.444   6.900 -1.1962  0.8645  0.9359
  252MOL0     H33980   8.149   3.691   6.768 -0.4009 -0.4208 -0.0488
  252MOL0     H33981   8.368   3.577   6.750  0.5903 -1.2459  0.1639
  252MOL0     H33982   8.690   3.523   6.533  1.8475  1.9624  0.8005
  252MOL0     H33983   8.901   3.448   6.468 -0.0512  1.3460  0.6594
  252MOL0     H33984   9.142   3.234   6.799 -2.0163  1.7176 -0.9656
  252MOL0     H33985   9.087   3.090   6.731 -0.8973 -0.0952 -0.9239
  252MOL0     H33986   9.301   3.247   6.584  0.1622 -0.7729 -1.5446
  252MOL0     H33987   9.314   3.121   6.718 -0.2930  0.7073 -0.6656
  252MOL0     H33988   9.185   2.972   6.570  0.8398  0.6354  2.7259
  252MOL0     H33989   9.183   3.099   6.439  0.9907 -0.1232 -0.6845
  252MOL0     H33990   9.441   2.955   6.555  1.1102 -1.7951 -3.2694
  252MOL0     H33991   9.440   3.105   6.457 -2.9774  2.8829  1.7770
  252MOL0     H33992   9.326   2.973   6.276 -2.1970  0.5522  1.9356
  252MOL0     H33993   9.339   2.828   6.382  0.3351  0.8985  3.8082
  252MOL0     H33994   9.572   2.995   6.275  0.9970 -0.9073  3.5848
  252MOL0     H33995   9.595   2.858   6.358  2.3995 -0.4561 -1.6440
  252MOL0     H33996   9.614   2.826   6.120 -0.6369  1.4453 -2.0627
  252MOL0     H33997   9.449   2.869   6.079  1.7287 -0.5171 -0.7296
  252MOL0     H33998   9.532   2.621   6.233 -0.2812  0.6914 -0.0192
  252MOL0     H33999   9.360   2.685   6.206 -0.5633 -0.0052  0.6517
  252MOL0     H34000   8.894   3.149   6.778  0.4705 -2.2423 -4.3081
  252MOL0     H34001   8.668   3.215   6.838  0.1671  0.8861  0.6324
  252MOL0     H34002   8.179   3.206   6.812  1.6352  0.3018  1.0589
  252MOL0     H34003   7.965   3.309   6.842 -0.5863  2.0678  0.5194
  252MOL0     H34004   6.776   3.138   7.639 -0.1930  0.5683  1.4585
  252MOL0     H34005   7.006   3.159   7.722  0.1018 -0.8477 -0.2746
  252MOL0     H34006   7.394   3.516   7.707  0.7479  0.4158 -0.3059
  252MOL0     H34007   7.608   3.570   7.756  2.5373 -1.5099 -2.5143
  252MOL0     H34008   7.769   3.565   7.959  0.4250 -0.8151  1.6323
  252MOL0     H34009   7.879   3.579   7.810  0.1470 -1.8744 -1.4378
  252MOL0     H34010   8.040   3.567   7.965  1.2204 -0.5117 -0.5205
  252MOL0     H34011   8.025   3.405   7.923  3.3675  2.0357  0.6323
  252MOL0     H34012   7.868   3.372   8.129  1.2633 -1.1459 -0.6203
  252MOL0     H34013   7.905   3.535   8.164 -1.5864 -0.5268  0.2595
  252MOL0     H34014   8.165   3.467   8.143  0.8300 -0.6434 -1.8177
  252MOL0     H34015   8.080   3.399   8.283 -2.2763  0.1221 -0.0097
  252MOL0     H34016   8.189   3.052   8.034 -0.4153 -0.3070 -0.4590
  252MOL0     H34017   7.693   3.178   7.902 -1.6945 -0.2120  0.8483
  252MOL0     H34018   7.356   3.067   7.920 -0.0162 -2.0692 -0.4452
  252MOL0     H34019   7.472   2.995   7.806  3.1519 -0.3903  0.7802
  252MOL0     H34020   7.533   3.038   7.959  0.7975 -2.1102 -0.4571
  253MOL0     O34021   3.067   6.317   6.034 -0.1850  0.0021 -0.1003
  253MOL0     C34022   3.123   6.339   6.142  0.4893  0.3612 -0.1771
  253MOL0     O34023   3.237   6.280   6.179 -0.5099  0.4617 -0.0324
  253MOL0     C34024   3.318   6.228   6.074  0.3241 -0.1888 -0.8896
  253MOL0     C34025   3.373   6.307   5.977  0.5337 -0.4900 -0.2186
  253MOL0     C34026   3.425   6.254   5.862 -0.3696  0.4366  0.1536
  253MOL0     C34027   3.434   6.114   5.847 -0.2478  0.4638  0.4235
  253MOL0     O34028   3.491   6.049   5.739  0.0107  0.4448 -0.6723
  253MOL0     C34029   3.556   6.119   5.630  0.6627 -0.2183  0.6429
  253MOL0     C34030   3.693   6.151   5.674  0.4755  0.6286 -0.4954
  253MOL0     C34031   3.789   6.183   5.559  0.2670  0.3598 -0.0168
  253MOL0     C34032   3.922   6.233   5.626  0.0469 -0.2541  0.3615
  253MOL0     C34033   4.012   6.276   5.519 -0.4275  0.2150 -0.8074
  253MOL0     C34034   4.102   6.156   5.474  0.8876 -0.5244 -0.4674
  253MOL0     C34035   4.187   6.194   5.363 -0.0491  0.8910  0.5007
  253MOL0     C34036   4.239   6.070   5.281 -0.5295  0.8268  1.1317
  253MOL0     N34037   4.311   6.126   5.165 -0.1783  0.4835  0.1079
  253MOL0     C34038   4.275   6.104   5.036 -0.3835 -0.8037 -0.1749
  253MOL0     C34039   4.392   6.113   4.969 -0.0840 -0.0037 -0.9006
  253MOL0     C34040   4.415   6.072   4.830 -0.3135  0.6627 -0.5199
  253MOL0     C34041   4.314   6.125   4.730 -0.4779  0.2968 -0.1901
  253MOL0     C34042   4.324   6.274   4.708 -0.1669 -0.5109 -0.3207
  253MOL0     C34043   4.231   6.355   4.794  0.4711 -0.9077 -0.6730
  253MOL0     O34044   4.098   6.347   4.746 -0.4570 -0.1382  0.1808
  253MOL0     C34045   4.034   6.464   4.769 -0.6281  0.1420 -0.1429
  253MOL0     C34046   3.997   6.498   4.897 -0.4457 -0.9692  0.1229
  253MOL0     C34047   3.938   6.624   4.930 -0.4380  1.4091  0.4403
  253MOL0     C34048   3.903   6.704   4.817  0.3782 -0.2411  0.7875
  253MOL0     C34049   3.843   6.839   4.830 -0.2048 -0.9309 -0.0898
  253MOL0     O34050   3.758   6.884   4.731  0.4881  0.3618 -0.1994
  253MOL0     C34051   3.710   7.013   4.738 -0.6178 -0.0772  1.3499
  253MOL0     C34052   3.574   7.038   4.750 -0.6538  0.5198  0.6299
  253MOL0     C34053   3.520   7.164   4.759 -0.9546 -1.1750 -0.2815
  253MOL0     C34054   3.603   7.277   4.744 -0.6452 -0.3304  0.8472
  253MOL0     O34055   3.557   7.411   4.744  0.2698  0.2200 -0.8702
  253MOL0     C34056   3.436   7.443   4.810  1.0602 -0.7714 -0.2330
  253MOL0     C34057   3.398   7.588   4.764 -0.1054  0.7652 -0.3302
  253MOL0     C34058   3.247   7.637   4.794 -0.5483  0.4299 -0.5809
  253MOL0     C34059   3.218   7.671   4.944  0.1167  0.9702 -0.2476
  253MOL0     C34060   3.255   7.813   4.970  0.0968  0.3501 -0.5189
  253MOL0     C34061   3.137   7.908   4.967  0.2539  0.2855 -0.5078
  253MOL0     C34062   3.158   8.056   4.954 -0.5643  0.5951 -0.4730
  253MOL0     C34063   3.223   8.093   4.815 -0.2895 -0.3783  0.4171
  253MOL0    Cl34064   3.402   8.092   4.818  0.7083  0.0466  0.3316
  253MOL0     C34065   3.743   7.257   4.724  0.5926  0.0248 -0.1613
  253MOL0     C34066   3.792   7.129   4.731  0.2535 -0.4214 -1.0982
  253MOL0     O34067   3.864   6.899   4.930 -0.1925 -1.2938  0.3056
  253MOL0     C34068   3.932   6.664   4.682  0.0976  0.0669 -0.7873
  253MOL0     C34069   3.994   6.541   4.666  0.5588  0.2478  1.1268
  253MOL0     N34070   4.493   6.159   5.056  0.3195 -0.6365 -0.9589
  253MOL0     N34071   4.440   6.154   5.175 -0.0556 -0.1356  0.3216
  253MOL0     C34072   3.385   6.028   5.952  0.3363  1.5021 -0.5479
  253MOL0     C34073   3.318   6.089   6.067 -0.3903  0.1731 -0.2770
  253MOL0     C34074   3.041   6.410   6.246 -0.4059  0.9478  0.1852
  253MOL0     C34075   2.913   6.461   6.205  0.2340 -0.0829  0.2948
  253MOL0     C34076   2.835   6.537   6.293 -0.5270  1.3122  0.5261
  253MOL0     C34077   2.872   6.556   6.420 -0.5346 -0.5266 -0.8475
  253MOL0     O34078   2.797   6.631   6.509 -0.6262 -0.2295 -0.2426
  253MOL0     C34079   2.811   6.612   6.648  0.2731 -1.0742 -0.1269
  253MOL0     C34080   2.688   6.661   6.729 -0.2088  0.5669  0.1651
  253MOL0     C34081   2.700   6.613   6.868  0.5926 -0.7446  1.2053
  253MOL0     C34082   2.596   6.686   6.957 -0.3247  0.0149  0.6926
  253MOL0     C34083   2.587   6.613   7.078  0.1597 -0.5930 -0.2183
  253MOL0     C34084   2.566   6.570   7.186 -0.3063 -0.4092  0.5374
  253MOL0     C34085   3.002   6.508   6.465  0.0921  0.5871 -0.3716
  253MOL0     C34086   3.083   6.429   6.383 -0.0441 -0.0064 -0.4617
  253MOL0     C34087   3.214   6.389   6.446 -0.1890  0.8979 -0.4100
  253MOL0     H34088   3.362   6.414   5.986 -0.8575 -0.7013  1.0478
  253MOL0     H34089   3.474   6.327   5.799  0.5745 -0.4779 -0.1972
  253MOL0     H34090   3.553   6.056   5.540 -1.9405  0.3990  0.2301
  253MOL0     H34091   3.502   6.207   5.596  2.2625  0.0867 -1.3192
  253MOL0     H34092   3.734   6.062   5.721 -0.9066  0.7436  0.9686
  253MOL0     H34093   3.694   6.236   5.742 -1.2348 -0.1123  0.4828
  253MOL0     H34094   3.751   6.263   5.496 -2.2192 -0.1575  0.7163
  253MOL0     H34095   3.817   6.099   5.495  4.4368 -0.0315  1.9332
  253MOL0     H34096   3.895   6.322   5.684  0.1293 -0.0472  0.0855
  253MOL0     H34097   3.985   6.164   5.682  0.5207  1.1401  1.6078
  253MOL0     H34098   3.953   6.305   5.432 -1.1398 -0.7930 -0.6696
  253MOL0     H34099   4.081   6.352   5.556  0.5283 -0.2391 -1.5974
  253MOL0     H34100   4.165   6.122   5.557 -1.2708  0.4146  1.6651
  253MOL0     H34101   4.035   6.074   5.448 -0.5397  0.6843 -0.7120
  253MOL0     H34102   4.272   6.257   5.392  1.3437 -1.2339  1.3233
  253MOL0     H34103   4.127   6.253   5.294  0.3064  0.5779 -0.0950
  253MOL0     H34104   4.305   6.017   5.351  0.3684 -0.5046 -0.6416
  253MOL0     H34105   4.159   6.003   5.249  1.5021 -1.6481  0.8533
  253MOL0     H34106   4.184   6.065   4.990 -0.3129 -0.5907 -0.5021
  253MOL0     H34107   4.522   6.086   4.808  0.6294 -2.0515  1.6897
  253MOL0     H34108   4.416   5.963   4.829 -2.1376  0.5838  0.9688
  253MOL0     H34109   4.331   6.072   4.635 -0.1009 -0.6974  0.4204
  253MOL0     H34110   4.220   6.094   4.777  0.8471 -4.6647 -0.2293
  253MOL0     H34111   4.300   6.300   4.605 -2.5345  2.6742  0.8633
  253MOL0     H34112   4.425   6.307   4.733 -0.4450  1.0764 -1.1461
  253MOL0     H34113   4.269   6.456   4.812  1.2528 -1.5978  2.0331
  253MOL0     H34114   4.227   6.313   4.895  1.7632  1.6862  0.5440
  253MOL0     H34115   4.020   6.434   4.981 -0.5250  2.1812  2.7465
  253MOL0     H34116   3.909   6.657   5.030 -0.4473 -0.1429  0.9738
  253MOL0     H34117   3.514   6.948   4.754 -0.3428  0.3442  1.3116
  253MOL0     H34118   3.413   7.174   4.775 -0.7275 -2.2686  2.6455
  253MOL0     H34119   3.348   7.379   4.797 -1.9290  2.8580  0.3493
  253MOL0     H34120   3.452   7.455   4.918 -0.6241  0.6288 -0.0923
  253MOL0     H34121   3.464   7.655   4.820 -0.3898  1.1331 -0.4331
  253MOL0     H34122   3.436   7.589   4.661  2.0287  2.2555  0.3988
  253MOL0     H34123   3.222   7.719   4.726 -0.9366 -0.0298 -1.0032
  253MOL0     H34124   3.174   7.562   4.763 -1.9017  0.7196  1.6334
  253MOL0     H34125   3.289   7.613   5.004 -0.1737  3.1091  2.3681
  253MOL0     H34126   3.116   7.656   4.980 -0.1264 -1.0907 -1.6381
  253MOL0     H34127   3.330   7.848   4.898 -0.8548  3.2523 -0.2181
  253MOL0     H34128   3.292   7.821   5.072 -1.5557 -0.7584  0.2086
  253MOL0     H34129   3.068   7.878   4.888 -2.2357 -2.3840  2.3920
  253MOL0     H34130   3.090   7.881   5.062 -0.6198  1.0779 -0.6886
  253MOL0     H34131   3.229   8.077   5.035  0.8416 -0.3558 -1.4104
  253MOL0     H34132   3.055   8.090   4.969 -0.7962 -0.3303  0.0923
  253MOL0     H34133   3.181   8.031   4.735 -1.7713 -1.5094  2.0003
  253MOL0     H34134   3.188   8.193   4.787 -2.1601 -1.7298 -2.5310
  253MOL0     H34135   3.821   7.332   4.718  0.1065  0.5533 -0.0106
  253MOL0     H34136   3.898   7.105   4.731  0.2342 -0.8489  1.7097
  253MOL0     H34137   3.908   6.725   4.596 -1.3932  1.4373  0.5352
  253MOL0     H34138   4.008   6.498   4.567  0.0467  6.0004 -1.8551
  253MOL0     H34139   3.379   5.920   5.936 -1.1235  1.5455 -0.4414
  253MOL0     H34140   3.272   6.019   6.137 -1.8450  0.5159 -0.8429
  253MOL0     H34141   2.881   6.447   6.102 -1.0563 -0.5120  0.7365
  253MOL0     H34142   2.740   6.583   6.269 -0.8014  0.9741  0.9396
  253MOL0     H34143   2.899   6.659   6.693  1.5727 -2.7070 -0.8625
  253MOL0     H34144   2.822   6.505   6.669  0.0075 -1.0039  0.3899
  253MOL0     H34145   2.594   6.615   6.695 -1.2303  2.7922 -0.2186
  253MOL0     H34146   2.681   6.770   6.741 -0.0141  0.5032  0.9459
  253MOL0     H34147   2.801   6.637   6.903 -0.1329  2.2635  1.5414
  253MOL0     H34148   2.679   6.507   6.880 -1.4557 -0.3035  1.8893
  253MOL0     H34149   2.620   6.790   6.982 -1.7149 -0.1241  2.9000
  253MOL0     H34150   2.496   6.686   6.914 -0.6188 -0.7757  1.3424
  253MOL0     H34151   2.561   6.529   7.285 -0.1466 -1.4504  0.1364
  253MOL0     H34152   3.035   6.544   6.562 -1.6934 -1.1018  0.9402
  253MOL0     H34153   3.227   6.283   6.422 -3.4917  0.2566  0.1450
  253MOL0     H34154   3.302   6.434   6.399  0.1449  0.1334 -0.5451
  253MOL0     H34155   3.224   6.422   6.549 -0.5502 -1.1184  0.3204
  254MOL0     O34156  10.988   3.092  11.206 -0.4939 -0.1849 -0.2798
  254MOL0     C34157  10.887   3.158  11.183 -0.3054 -0.1833 -0.1927
  254MOL0     O34158  10.885   3.272  11.124 -0.0225 -0.4679  0.1222
  254MOL0     C34159  10.996   3.346  11.111  0.8350 -0.0592 -0.5321
  254MOL0     C34160  11.069   3.354  10.992 -0.0817 -0.3950 -0.4986
  254MOL0     C34161  11.181   3.428  10.984 -0.0428 -0.2198  0.4390
  254MOL0     C34162  11.233   3.504  11.090  0.3599  0.4140  0.3172
  254MOL0     O34163  11.339   3.578  11.063  0.3465  0.8915  0.2824
  254MOL0     C34164  11.437   3.601  11.154 -0.9021 -0.3503 -0.0623
  254MOL0     C34165  11.531   3.482  11.182  0.0216 -0.5421 -0.0177
  254MOL0     C34166  11.662   3.542  11.238 -0.3116  0.5447  0.2027
  254MOL0     C34167  11.760   3.576  11.123  0.0339 -0.2504  0.5228
  254MOL0     C34168  11.892   3.646  11.184 -0.2453  0.1723  0.1186
  254MOL0     C34169  11.959   3.547  11.285  0.4169  0.5863  0.7766
  254MOL0     C34170  12.096   3.574  11.339  0.0968 -0.2659  0.6528
  254MOL0     C34171  12.151   3.474  11.437  0.3090  0.0558 -0.2595
  254MOL0     N34172  12.277   3.514  11.506  0.2006 -0.1939  0.2852
  254MOL0     C34173  12.410   3.488  11.468  0.5314 -0.3889  0.4081
  254MOL0     C34174  12.491   3.529  11.568  0.7688 -0.4482  0.0913
  254MOL0     C34175  12.634   3.539  11.584  0.2761  0.2193  0.0359
  254MOL0     C34176  12.720   3.548  11.460  0.1951 -0.2298  0.4778
  254MOL0     C34177  12.857   3.620  11.494  0.1711  0.1724 -0.8156
  254MOL0     C34178  12.943   3.537  11.584  0.4341 -0.2152 -0.4292
  254MOL0     O34179  13.072   3.600  11.618  0.4678  0.9781 -0.0104
  254MOL0     C34180  13.186   3.541  11.569 -0.2924 -0.8056  0.6115
  254MOL0     C34181  13.308   3.587  11.628 -0.6553  0.0541 -0.0353
  254MOL0     C34182  13.430   3.524  11.588  1.0604 -0.6928  0.3058
  254MOL0     C34183  13.434   3.412  11.511 -0.1663 -0.0517  0.7473
  254MOL0     C34184  13.562   3.347  11.492 -0.4332  0.4386  0.3918
  254MOL0     O34185  13.548   3.212  11.446 -0.5430  0.1840 -0.7576
  254MOL0     C34186  13.658   3.131  11.416  0.3743  0.2610  0.1673
  254MOL0     C34187  13.760   3.107  11.510 -0.0793 -0.9421  0.5506
  254MOL0     C34188  13.876   3.042  11.473 -0.3634  0.5743  0.1008
  254MOL0     C34189  13.889   3.015  11.335 -1.4371 -0.3591 -0.2384
  254MOL0     O34190  14.007   2.944  11.301  0.4613  0.2596 -0.6465
  254MOL0     C34191  14.061   2.968  11.174  0.2001  0.2572 -0.0332
  254MOL0     C34192  14.210   2.940  11.186  0.8209  0.0039  0.2204
  254MOL0     C34193  14.237   2.802  11.247  0.1258 -0.0044  0.3337
  254MOL0     C34194  14.382   2.776  11.266 -0.4982  0.4200  0.0442
  254MOL0     C34195  14.472   2.782  11.138 -0.3170  0.3784 -0.0042
  254MOL0     C34196  14.625   2.781  11.175  0.2154  0.3882  0.2665
  254MOL0     C34197  14.676   2.644  11.227  0.1480  0.1092  1.1275
  254MOL0     C34198  14.674   2.528  11.123  1.5306  0.6927 -0.1234
  254MOL0    Cl34199  14.803   2.553  11.004 -0.1125 -1.0497  0.2684
  254MOL0     C34200  13.790   3.040  11.243  0.2760  0.4712  0.7430
  254MOL0     C34201  13.679   3.108  11.275 -0.8204 -0.2207  1.0514
  254MOL0     O34202  13.666   3.409  11.510 -0.7091  0.3934  0.2278
  254MOL0     C34203  13.316   3.357  11.465  0.0139 -0.3493 -0.1670
  254MOL0     C34204  13.196   3.429  11.475 -0.6407 -0.5233 -0.1486
  254MOL0     N34205  12.399   3.557  11.676 -0.1741 -0.3993 -0.4323
  254MOL0     N34206  12.277   3.555  11.639  0.4884  0.4149  0.8001
  254MOL0     C34207  11.170   3.496  11.211 -0.5503  0.5669 -0.8772
  254MOL0     C34208  11.049   3.417  11.228 -0.1261  0.3903  0.6211
  254MOL0     C34209  10.753   3.090  11.206 -0.0019  0.4634  0.2406
  254MOL0     C34210  10.748   2.999  11.318  0.1209 -0.5137 -0.2789
  254MOL0     C34211  10.631   2.941  11.359 -0.2331  0.1741 -0.5277
  254MOL0     C34212  10.509   2.971  11.297 -0.7548 -1.4426 -0.0573
  254MOL0     O34213  10.405   2.913  11.350  0.8154  0.2565 -0.1298
  254MOL0     C34214  10.279   2.919  11.289 -0.0518  0.1387 -0.3036
  254MOL0     C34215  10.157   2.879  11.369  0.8756 -0.4557 -0.3917
  254MOL0     C34216  10.139   2.730  11.394 -0.8790  0.3635  1.3643
  254MOL0     C34217  10.033   2.686  11.500 -0.3739 -1.0504  1.2553
  254MOL0     C34218   9.998   2.543  11.487 -0.4628 -0.6467 -0.4366
  254MOL0     C34219   9.985   2.425  11.480  0.3284  0.7909  0.4571
  254MOL0     C34220  10.515   3.065  11.188 -0.4887 -0.6298  0.6833
  254MOL0     C34221  10.635   3.123  11.142 -0.0033  0.4979  0.4171
  254MOL0     C34222  10.619   3.216  11.015 -0.0274  0.1266  0.0194
  254MOL0     H34223  11.032   3.304  10.903  1.6510 -0.0915 -1.4481
  254MOL0     H34224  11.239   3.424  10.892 -0.3258 -1.3692  0.2911
  254MOL0     H34225  11.498   3.679  11.108  0.4717 -0.7662  1.0222
  254MOL0     H34226  11.386   3.631  11.246  0.9465 -0.6727  1.1030
  254MOL0     H34227  11.553   3.440  11.083  0.8041 -0.0568 -0.0644
  254MOL0     H34228  11.487   3.413  11.255 -0.5249  1.3441  1.5208
  254MOL0     H34229  11.705   3.457  11.292  0.7909 -1.5529 -3.5986
  254MOL0     H34230  11.641   3.624  11.307 -0.0492 -0.9503  2.1645
  254MOL0     H34231  11.802   3.485  11.078  1.5114  1.8398 -2.6951
  254MOL0     H34232  11.712   3.639  11.047 -2.3108 -1.7695  0.6086
  254MOL0     H34233  11.953   3.679  11.099 -1.6402  2.0611 -0.2391
  254MOL0     H34234  11.851   3.730  11.241 -2.8354  0.6050 -2.1580
  254MOL0     H34235  11.896   3.548  11.375 -0.3728 -0.7617  0.2640
  254MOL0     H34236  11.966   3.456  11.226  2.4918  1.0344  0.2628
  254MOL0     H34237  12.100   3.671  11.389 -4.5420 -0.3701  1.6274
  254MOL0     H34238  12.140   3.568  11.239 -0.9567  0.2182  0.1474
  254MOL0     H34239  12.081   3.450  11.516  0.1176 -0.0392 -0.4576
  254MOL0     H34240  12.163   3.380  11.383 -0.2426 -1.2800  1.8324
  254MOL0     H34241  12.444   3.445  11.375  0.4616 -0.5835  0.4724
  254MOL0     H34242  12.635   3.633  11.640  1.4158  0.1561  0.1526
  254MOL0     H34243  12.677   3.458  11.644 -0.1372 -2.1334 -2.6489
  254MOL0     H34244  12.737   3.445  11.427 -0.6624  0.3405 -1.9084
  254MOL0     H34245  12.680   3.611  11.380  1.9500 -0.4158 -0.5988
  254MOL0     H34246  12.847   3.718  11.540 -0.6215 -0.1369 -0.2976
  254MOL0     H34247  12.910   3.632  11.400  0.0299  1.8333 -0.7041
  254MOL0     H34248  12.949   3.432  11.554  1.5944 -0.9022  1.9665
  254MOL0     H34249  12.891   3.546  11.680  0.1874  1.9370 -0.7010
  254MOL0     H34250  13.306   3.664  11.705 -2.2575 -2.1592  2.2767
  254MOL0     H34251  13.517   3.559  11.643  0.3276  0.0728  1.0094
  254MOL0     H34252  13.732   3.140  11.609 -0.9254  2.6710 -0.7311
  254MOL0     H34253  13.951   3.005  11.542 -1.2630 -1.4075  0.0695
  254MOL0     H34254  14.012   2.900  11.105 -1.5575  2.1946 -0.7822
  254MOL0     H34255  14.033   3.067  11.138 -0.4964 -0.0143 -0.2391
  254MOL0     H34256  14.248   2.940  11.083  1.1975 -2.6559  0.2701
  254MOL0     H34257  14.255   3.018  11.248  1.9299  0.6537 -1.3309
  254MOL0     H34258  14.181   2.788  11.340 -1.6887  0.0046 -0.6891
  254MOL0     H34259  14.199   2.728  11.175  1.4689 -0.6202  0.2242
  254MOL0     H34260  14.402   2.683  11.318  2.6629  1.5034  0.9726
  254MOL0     H34261  14.422   2.855  11.330 -3.3934  2.5592 -0.5774
  254MOL0     H34262  14.451   2.874  11.083 -0.0223 -0.9622 -2.4768
  254MOL0     H34263  14.432   2.702  11.076 -1.5901  0.2116  0.9858
  254MOL0     H34264  14.680   2.800  11.082 -1.1088 -0.0421 -0.6255
  254MOL0     H34265  14.653   2.870  11.234 -0.8463  0.2198  1.0580
  254MOL0     H34266  14.611   2.625  11.313 -2.7498  0.7550 -0.7531
  254MOL0     H34267  14.774   2.656  11.274  0.1073  0.1253  1.2095
  254MOL0     H34268  14.678   2.432  11.174  0.1882  0.0580 -1.1457
  254MOL0     H34269  14.578   2.535  11.071 -0.1781 -1.3475  2.4802
  254MOL0     H34270  13.791   3.005  11.140  0.7218 -0.3360  1.0120
  254MOL0     H34271  13.600   3.126  11.203  0.5771 -0.2813 -0.5390
  254MOL0     H34272  13.319   3.271  11.400  1.1768 -1.4669  1.2840
  254MOL0     H34273  13.116   3.388  11.414  1.2771 -0.4135 -2.9880
  254MOL0     H34274  11.207   3.541  11.302 -3.3612  1.2815  0.0343
  254MOL0     H34275  10.992   3.419  11.320  1.0729  2.3181  1.3860
  254MOL0     H34276  10.837   2.981  11.376 -1.3959 -0.1869  2.3251
  254MOL0     H34277  10.623   2.882  11.450 -0.6628  1.0819  0.0368
  254MOL0     H34278  10.271   2.876  11.189 -1.3630  0.7031 -0.4599
  254MOL0     H34279  10.267   3.026  11.268  0.9834  0.3200 -0.0085
  254MOL0     H34280  10.070   2.911  11.310  1.4277 -0.9155 -1.4854
  254MOL0     H34281  10.161   2.933  11.464 -2.2942  1.1420 -1.0006
  254MOL0     H34282  10.234   2.677  11.405 -3.2720 -4.8966  0.1606
  254MOL0     H34283  10.110   2.697  11.294  1.2352  2.3078  0.0014
  254MOL0     H34284  10.073   2.701  11.600 -3.0982  1.6278  2.0910
  254MOL0     H34285   9.938   2.736  11.478  2.0012  2.9792 -1.0132
  254MOL0     H34286   9.971   2.321  11.460 -1.4852  0.9586  0.6363
  254MOL0     H34287  10.421   3.089  11.141  0.2627  0.0071 -0.5441
  254MOL0     H34288  10.717   3.247  10.979  0.9157 -0.5763  1.8681
  254MOL0     H34289  10.558   3.174  10.935  0.0630  0.0703 -0.0198
  254MOL0     H34290  10.561   3.307  11.038 -0.5478  0.2303 -1.5583
  255MOL0     O34291   5.602   8.013   2.905 -0.6180 -0.4018  0.8033
  255MOL0     C34292   5.639   7.943   2.813 -0.1639  0.1190  0.0209
  255MOL0     O34293   5.747   7.859   2.819 -0.1060 -0.8002 -0.1839
  255MOL0     C34294   5.854   7.889   2.898  0.8231  0.2013 -0.0821
  255MOL0     C34295   5.905   8.017   2.897 -0.1999 -0.4938 -0.4792
  255MOL0     C34296   5.994   8.057   3.002  0.1119 -0.0879  0.1599
  255MOL0     C34297   6.040   7.969   3.095 -0.6308 -0.0977  0.1159
  255MOL0     O34298   6.120   8.001   3.201  0.0641 -0.1351  0.8567
  255MOL0     C34299   6.056   8.114   3.270 -0.8459  0.0962  0.0261
  255MOL0     C34300   6.149   8.153   3.393  0.1807 -0.5932  0.2894
  255MOL0     C34301   6.161   8.034   3.480 -0.1935  0.0788  0.5772
  255MOL0     C34302   6.252   8.047   3.601 -0.8354 -0.1061  0.1386
  255MOL0     C34303   6.221   7.953   3.724  0.2090 -0.3089 -0.5289
  255MOL0     C34304   6.275   8.001   3.855 -0.5455  0.4614 -0.0741
  255MOL0     C34305   6.406   7.940   3.893 -0.0033  0.0244 -0.5296
  255MOL0     C34306   6.423   7.787   3.896  0.2800 -0.1474 -0.3669
  255MOL0     N34307   6.547   7.748   3.949  0.3534 -0.4217  0.2364
  255MOL0     C34308   6.670   7.749   3.888  0.6116 -0.6229  1.2580
  255MOL0     C34309   6.753   7.728   3.993 -0.3007  0.5439  0.0838
  255MOL0     C34310   6.896   7.745   3.978  0.3998 -0.2043 -0.4171
  255MOL0     C34311   6.974   7.727   3.839 -0.3875 -0.4399 -0.8646
  255MOL0     C34312   7.120   7.684   3.857  0.0710 -0.0099  0.4298
  255MOL0     C34313   7.176   7.630   3.723 -0.3841  0.2656  0.0592
  255MOL0     O34314   7.161   7.723   3.612 -0.1543  0.0545  0.1997
  255MOL0     C34315   7.260   7.812   3.590  0.0321  0.2494 -0.4857
  255MOL0     C34316   7.242   7.878   3.467 -0.1233 -0.3322 -0.4730
  255MOL0     C34317   7.352   7.946   3.408 -0.4524 -0.6751 -0.2709
  255MOL0     C34318   7.474   7.965   3.479  0.7421 -0.2297  0.5041
  255MOL0     C34319   7.578   8.046   3.426 -0.7574  0.6913 -0.4724
  255MOL0     O34320   7.545   8.142   3.332 -0.5683  0.7076 -0.3820
  255MOL0     C34321   7.652   8.216   3.286  0.5800 -0.6646  0.5334
  255MOL0     C34322   7.726   8.188   3.168  0.1929  0.1644  0.4449
  255MOL0     C34323   7.822   8.275   3.120  0.0075  0.3143  0.3320
  255MOL0     C34324   7.854   8.384   3.187 -0.2601 -0.4476 -0.1884
  255MOL0     O34325   7.952   8.463   3.126 -0.3741  0.2341  0.3329
  255MOL0     C34326   7.969   8.603   3.144  0.2102 -0.0327 -0.0084
  255MOL0     C34327   8.037   8.687   3.032 -0.5347  0.4718  0.1085
  255MOL0     C34328   8.152   8.624   2.953 -0.2434  0.8084  0.0425
  255MOL0     C34329   8.288   8.606   3.025 -0.0185 -0.4281  0.1441
  255MOL0     C34330   8.404   8.584   2.914 -0.1636 -0.2971 -0.6843
  255MOL0     C34331   8.539   8.581   2.995  0.1059  0.1494 -0.3039
  255MOL0     C34332   8.660   8.615   2.911  1.4417  1.1065 -0.2525
  255MOL0     C34333   8.779   8.598   3.009  0.1704 -0.0717 -0.2077
  255MOL0    Cl34334   8.928   8.646   2.925  0.2359  0.1552 -0.2463
  255MOL0     C34335   7.790   8.416   3.307 -0.6087  0.5200  0.7569
  255MOL0     C34336   7.684   8.332   3.353  0.8063 -0.5029  0.2138
  255MOL0     O34337   7.697   8.014   3.461  0.3762  0.0166 -0.1655
  255MOL0     C34338   7.488   7.907   3.602  0.3656 -0.0548 -1.1754
  255MOL0     C34339   7.384   7.833   3.656 -0.2536 -0.1287 -0.3320
  255MOL0     N34340   6.685   7.698   4.106 -0.1240  0.7617  0.2062
  255MOL0     N34341   6.559   7.716   4.081 -0.3486  0.5665  0.1144
  255MOL0     C34342   6.004   7.842   3.081 -0.6091 -0.1302 -0.7295
  255MOL0     C34343   5.913   7.792   2.987  0.5175 -0.6650 -0.2742
  255MOL0     C34344   5.553   7.916   2.697 -0.5434  0.4987  0.4982
  255MOL0     C34345   5.559   7.784   2.645  0.3123  0.9000  0.2438
  255MOL0     C34346   5.473   7.738   2.538  0.5407  0.4111  0.5236
  255MOL0     C34347   5.396   7.839   2.471 -0.3697  1.0394  0.2219
  255MOL0     O34348   5.318   7.806   2.360 -0.0317 -0.7313  0.3392
  255MOL0     C34349   5.310   7.671   2.322  0.3134  0.7080  0.1455
  255MOL0     C34350   5.223   7.650   2.201 -0.9638 -0.1410  1.2122
  255MOL0     C34351   5.072   7.684   2.215  0.0843 -0.1833  0.8132
  255MOL0     C34352   5.005   7.728   2.088 -0.4100 -0.2249 -0.2891
  255MOL0     C34353   4.863   7.764   2.118 -0.1382 -0.6150  0.0492
  255MOL0     C34354   4.748   7.793   2.136  0.0780 -0.3611 -0.0041
  255MOL0     C34355   5.401   7.966   2.527  0.1948 -0.0700  0.1479
  255MOL0     C34356   5.469   8.007   2.637 -0.5543  0.9604  0.1281
  255MOL0     C34357   5.468   8.145   2.669 -0.1476 -0.6405  0.5237
  255MOL0     H34358   5.873   8.096   2.829 -2.5976 -0.4839  0.5397
  255MOL0     H34359   6.020   8.162   3.011 -2.1857  0.6703 -1.0816
  255MOL0     H34360   6.052   8.201   3.204 -0.6657  0.6281  0.7043
  255MOL0     H34361   5.962   8.079   3.315 -1.2623 -1.3283 -1.8134
  255MOL0     H34362   6.093   8.226   3.452 -0.2042  0.6876 -1.5666
  255MOL0     H34363   6.246   8.198   3.369  0.8773 -0.0117  3.7117
  255MOL0     H34364   6.201   7.951   3.422 -0.7168  0.6468 -0.6435
  255MOL0     H34365   6.060   8.005   3.510 -0.2540  0.2086  0.5036
  255MOL0     H34366   6.357   8.053   3.567 -0.5505  1.1057  1.1653
  255MOL0     H34367   6.255   8.154   3.623  0.1316  0.1163 -0.9538
  255MOL0     H34368   6.115   7.974   3.737  0.6481  1.0072  1.3352
  255MOL0     H34369   6.231   7.846   3.704 -2.8094 -1.1815  1.7987
  255MOL0     H34370   6.276   8.110   3.854 -0.6436  0.5046  1.3631
  255MOL0     H34371   6.200   7.967   3.927 -1.9965  0.5513 -1.5051
  255MOL0     H34372   6.431   7.987   3.988 -1.6584 -0.3589  0.1308
  255MOL0     H34373   6.480   7.972   3.819 -1.3750 -0.9886 -2.4116
  255MOL0     H34374   6.343   7.746   3.959 -0.2837 -2.6427 -2.5317
  255MOL0     H34375   6.399   7.748   3.796  1.7434 -2.7864  0.2350
  255MOL0     H34376   6.690   7.775   3.784 -2.8599 -0.6065  0.4959
  255MOL0     H34377   6.923   7.840   4.024 -1.5312 -0.6586  1.8101
  255MOL0     H34378   6.941   7.670   4.043 -1.9100 -0.3757  1.0943
  255MOL0     H34379   6.917   7.647   3.791  0.5931 -1.9857  0.4460
  255MOL0     H34380   6.977   7.818   3.778  2.8033  0.6844  0.7841
  255MOL0     H34381   7.127   7.615   3.942 -0.1567  0.7703  1.0873
  255MOL0     H34382   7.171   7.774   3.889 -1.2169  0.5715  0.9270
  255MOL0     H34383   7.135   7.530   3.705  2.7756 -1.9097  3.5341
  255MOL0     H34384   7.284   7.624   3.734 -0.5191 -1.4713  0.8111
  255MOL0     H34385   7.147   7.868   3.418 -2.2216 -1.1170  3.3532
  255MOL0     H34386   7.331   7.991   3.312 -1.0592  1.6714  0.8748
  255MOL0     H34387   7.706   8.088   3.130  0.4698 -0.5076  1.9764
  255MOL0     H34388   7.874   8.265   3.024  0.0936  0.1062  0.4000
  255MOL0     H34389   7.873   8.645   3.177 -0.0361 -1.8576  1.8180
  255MOL0     H34390   8.037   8.621   3.227  0.9697  0.4652 -0.7251
  255MOL0     H34391   7.962   8.701   2.952  0.0699 -1.5664 -0.8715
  255MOL0     H34392   8.064   8.787   3.068  1.0305  0.0752  0.0759
  255MOL0     H34393   8.122   8.524   2.920 -0.0518  1.0955 -1.0459
  255MOL0     H34394   8.177   8.695   2.873  2.0302  1.9839  1.6900
  255MOL0     H34395   8.290   8.526   3.099 -0.2121  0.1703  0.7953
  255MOL0     H34396   8.311   8.700   3.076  0.0759 -0.9549  1.0905
  255MOL0     H34397   8.395   8.670   2.847  0.9928  0.0381 -0.4300
  255MOL0     H34398   8.398   8.489   2.861  1.0236  0.2327 -1.8171
  255MOL0     H34399   8.525   8.642   3.085 -0.4609 -1.4234  0.6987
  255MOL0     H34400   8.561   8.482   3.034  2.4608  0.5261 -0.5064
  255MOL0     H34401   8.639   8.719   2.882 -0.9806  0.6072 -0.4562
  255MOL0     H34402   8.663   8.553   2.821 -1.4899  0.3939  0.0302
  255MOL0     H34403   8.757   8.661   3.096 -2.1640  0.5851 -1.1874
  255MOL0     H34404   8.786   8.494   3.043  2.0724  0.1277  0.0778
  255MOL0     H34405   7.809   8.511   3.356  0.8124  0.5382  0.2217
  255MOL0     H34406   7.617   8.357   3.434 -0.7414 -1.8893 -0.5808
  255MOL0     H34407   7.578   7.939   3.654  0.0446  1.9287 -1.7530
  255MOL0     H34408   7.391   7.797   3.758 -4.3501 -0.5457 -0.0295
  255MOL0     H34409   6.036   7.769   3.155 -1.4890 -3.3083 -3.2204
  255MOL0     H34410   5.876   7.690   2.986  1.4700 -1.1209  2.4486
  255MOL0     H34411   5.615   7.709   2.700  1.4638  2.1320  0.7978
  255MOL0     H34412   5.471   7.631   2.519 -0.9420  0.6886 -1.1691
  255MOL0     H34413   5.260   7.613   2.401  0.7681 -0.2317 -0.2387
  255MOL0     H34414   5.405   7.620   2.304 -0.6007 -0.5243 -1.4237
  255MOL0     H34415   5.223   7.543   2.179 -0.4585  0.2813 -1.1514
  255MOL0     H34416   5.259   7.709   2.116 -2.4557 -0.5004  0.2934
  255MOL0     H34417   5.043   7.756   2.292 -1.2763 -0.3263  0.4563
  255MOL0     H34418   5.023   7.592   2.248 -0.2114 -1.5570 -2.9339
  255MOL0     H34419   5.065   7.804   2.037  0.9348 -0.9155  0.2111
  255MOL0     H34420   5.007   7.647   2.014  0.7248  1.4587 -2.2123
  255MOL0     H34421   4.643   7.812   2.146  0.0159 -1.9597  4.5904
  255MOL0     H34422   5.336   8.031   2.471  0.2723 -1.3763 -1.5731
  255MOL0     H34423   5.447   8.206   2.581 -2.0568 -0.7110  0.8959
  255MOL0     H34424   5.398   8.173   2.748 -0.0114  0.8958  0.1374
  255MOL0     H34425   5.567   8.182   2.697  1.0291  0.2755 -4.1299
  256MOL0     O34426   4.986   3.292  11.033  0.6128  0.3591  0.0627
  256MOL0     C34427   4.919   3.272  10.929 -0.7203  0.4152 -0.4593
  256MOL0     O34428   4.969   3.299  10.804 -0.4156 -0.3211 -0.0433
  256MOL0     C34429   5.087   3.372  10.802 -0.0726  0.7838 -0.2696
  256MOL0     C34430   5.086   3.510  10.776  0.3395 -0.1812 -1.3268
  256MOL0     C34431   5.213   3.577  10.775  0.6632 -0.4087  0.6621
  256MOL0     C34432   5.334   3.510  10.791 -0.1722  0.2087 -0.4294
  256MOL0     O34433   5.444   3.583  10.757  0.5758 -0.6684 -0.3244
  256MOL0     C34434   5.577   3.529  10.794  0.1120 -0.4006 -0.3310
  256MOL0     C34435   5.589   3.550  10.947 -0.3820  0.4068 -0.5112
  256MOL0     C34436   5.735   3.547  11.014  0.7721  0.6634  0.3295
  256MOL0     C34437   5.803   3.410  10.998 -0.2353  0.4536  0.1503
  256MOL0     C34438   5.953   3.406  10.992 -0.3121 -0.7926 -0.5228
  256MOL0     C34439   6.015   3.453  11.122 -0.3023  1.7055  0.4172
  256MOL0     C34440   5.962   3.401  11.250  0.0092  1.4616  0.0143
  256MOL0     C34441   6.059   3.453  11.364 -0.2690 -0.3200  0.2236
  256MOL0     N34442   6.185   3.377  11.371 -0.8169 -0.3051 -0.1765
  256MOL0     C34443   6.301   3.410  11.309 -0.4696 -0.2271  0.4105
  256MOL0     C34444   6.377   3.299  11.324 -0.0860  0.4139 -0.4580
  256MOL0     C34445   6.510   3.287  11.262 -0.1701 -0.1186  0.0359
  256MOL0     C34446   6.613   3.396  11.299  0.0432 -0.3372  0.1837
  256MOL0     C34447   6.609   3.512  11.195 -0.3760  0.5377  0.2101
  256MOL0     C34448   6.688   3.636  11.234  1.0562  0.8389  0.1117
  256MOL0     O34449   6.824   3.608  11.267 -0.1725  0.1984 -1.0378
  256MOL0     C34450   6.911   3.713  11.288  0.2022  0.5871 -0.1981
  256MOL0     C34451   7.030   3.672  11.353  0.1003  0.6913  0.6397
  256MOL0     C34452   7.121   3.760  11.392 -0.6969  0.1095  0.1556
  256MOL0     C34453   7.099   3.899  11.368 -0.3621 -0.6739  0.3441
  256MOL0     C34454   7.195   3.994  11.416  0.5636 -0.8288 -0.5081
  256MOL0     O34455   7.154   4.120  11.407 -0.3921  0.1153 -0.4193
  256MOL0     C34456   7.210   4.204  11.488  0.2059  1.0179 -0.5632
  256MOL0     C34457   7.139   4.221  11.601  0.0781 -0.2168 -0.9091
  256MOL0     C34458   7.176   4.321  11.696 -0.8691  0.3938 -0.4525
  256MOL0     C34459   7.292   4.399  11.675  0.1862 -0.4143  0.1348
  256MOL0     O34460   7.339   4.502  11.755 -0.0449  0.1570  0.2108
  256MOL0     C34461   7.270   4.541  11.869  0.2797  0.1608 -0.7177
  256MOL0     C34462   7.322   4.469  11.990  0.4667 -1.1257 -0.0998
  256MOL0     C34463   7.471   4.484  12.003  0.4085 -0.4940  0.5288
  256MOL0     C34464   7.528   4.441  12.139 -0.1092  0.0784 -1.2634
  256MOL0     C34465   7.683   4.443  12.119  0.4182  0.2815  0.5960
  256MOL0     C34466   7.755   4.374  12.245 -0.6611  0.6822 -0.2034
  256MOL0     C34467   7.775   4.474  12.347  0.9786  0.5423 -0.4784
  256MOL0     C34468   7.826   4.415  12.484 -0.6866 -0.8269  0.0080
  256MOL0    Cl34469   7.824   4.570  12.580  0.0018  0.2030  0.3590
  256MOL0     C34470   7.366   4.379  11.556  0.4750  0.2659  0.3118
  256MOL0     C34471   7.314   4.286  11.458  0.5698  0.1218  0.0607
  256MOL0     O34472   7.299   3.957  11.477 -0.5813 -0.8431 -0.2674
  256MOL0     C34473   6.978   3.939  11.308 -0.2130 -0.1133  0.4344
  256MOL0     C34474   6.879   3.843  11.257 -0.9340 -0.3009 -0.3409
  256MOL0     N34475   6.312   3.212  11.410  0.0987  0.0856 -0.1867
  256MOL0     N34476   6.197   3.257  11.424  0.3724  0.1147 -0.0987
  256MOL0     C34477   5.334   3.374  10.825 -0.7827 -0.3110 -0.2658
  256MOL0     C34478   5.207   3.308  10.822 -0.6268  0.0697 -0.0577
  256MOL0     C34479   4.780   3.215  10.947 -0.0330  0.2394 -0.4081
  256MOL0     C34480   4.720   3.209  11.076  0.2352 -0.8465  0.2887
  256MOL0     C34481   4.599   3.154  11.113 -0.2280  0.1218 -0.1568
  256MOL0     C34482   4.534   3.105  11.000  1.0409  0.1637 -0.5648
  256MOL0     O34483   4.415   3.048  11.032  0.0804  0.1604 -0.0762
  256MOL0     C34484   4.296   3.120  10.986  0.6087  0.1602  0.2291
  256MOL0     C34485   4.264   3.252  11.052 -0.2883 -0.5962  0.3589
  256MOL0     C34486   4.213   3.221  11.193  0.2351  0.7149 -0.5350
  256MOL0     C34487   4.107   3.322  11.251 -0.5331 -0.4375 -1.0701
  256MOL0     C34488   3.986   3.348  11.158  0.5373  0.9531 -0.1741
  256MOL0     C34489   3.899   3.353  11.071 -0.2507  0.0698  0.3472
  256MOL0     C34490   4.582   3.106  10.871 -0.5101 -0.4955  0.4597
  256MOL0     C34491   4.709   3.158  10.842  0.6650 -0.0378  0.1645
  256MOL0     C34492   4.757   3.145  10.701 -0.1487  0.2810 -0.0601
  256MOL0     H34493   4.993   3.562  10.757  1.1425  2.1351  0.5555
  256MOL0     H34494   5.211   3.677  10.734 -0.3234 -1.1697 -1.2599
  256MOL0     H34495   5.589   3.427  10.757  3.8096  0.6380 -2.4380
  256MOL0     H34496   5.649   3.585  10.734  1.4532 -2.9966 -1.2749
  256MOL0     H34497   5.532   3.469  10.994  2.2496  0.0449  2.3569
  256MOL0     H34498   5.542   3.645  10.977 -2.5821 -1.0886  1.1248
  256MOL0     H34499   5.720   3.568  11.120  1.2868  1.5799  0.2301
  256MOL0     H34500   5.795   3.631  10.978  1.1100 -0.3546 -1.5771
  256MOL0     H34501   5.775   3.344  11.081 -0.8693 -1.1875 -1.3192
  256MOL0     H34502   5.768   3.358  10.909  2.3441 -0.9752 -0.1203
  256MOL0     H34503   5.994   3.304  10.991  2.1613  0.1207 -0.3512
  256MOL0     H34504   6.002   3.463  10.913 -0.2899  2.1747  1.4533
  256MOL0     H34505   6.122   3.433  11.112 -0.6862 -0.2331 -0.1973
  256MOL0     H34506   6.001   3.561  11.118 -2.0544  1.5926  2.0475
  256MOL0     H34507   5.962   3.292  11.258  2.0487  1.3471 -0.8339
  256MOL0     H34508   5.861   3.430  11.280 -1.4035 -1.3018 -1.6181
  256MOL0     H34509   6.080   3.559  11.347  0.1426  0.0938  2.9287
  256MOL0     H34510   6.010   3.452  11.462 -1.3427  0.5248 -0.2806
  256MOL0     H34511   6.328   3.503  11.261  0.6364 -0.1745  1.0978
  256MOL0     H34512   6.557   3.192  11.287  0.0130  0.7416  3.5808
  256MOL0     H34513   6.489   3.290  11.155  1.2821 -0.7635 -0.2911
  256MOL0     H34514   6.599   3.436  11.399  1.5521 -2.1465  1.1820
  256MOL0     H34515   6.709   3.343  11.302 -1.1074 -2.5123  0.1479
  256MOL0     H34516   6.506   3.542  11.173  0.3004  1.0432 -2.7047
  256MOL0     H34517   6.654   3.474  11.102  1.2257  0.0109  1.1617
  256MOL0     H34518   6.632   3.674  11.320 -2.2057  0.4080 -1.6613
  256MOL0     H34519   6.689   3.706  11.150  0.4914 -1.3954 -1.8544
  256MOL0     H34520   7.032   3.568  11.384 -1.7018  0.9131  1.6341
  256MOL0     H34521   7.208   3.722  11.444  0.4607  1.2872 -0.8549
  256MOL0     H34522   7.052   4.159  11.616  0.1269 -0.3887 -1.3202
  256MOL0     H34523   7.111   4.337  11.781  1.7285  2.2831  1.3583
  256MOL0     H34524   7.293   4.646  11.885 -0.2037  0.3755 -1.3861
  256MOL0     H34525   7.161   4.539  11.862  0.1224 -0.4490  1.1829
  256MOL0     H34526   7.277   4.527  12.070  0.6214 -3.2074  1.5743
  256MOL0     H34527   7.293   4.364  11.997 -1.4007 -0.6700 -0.5962
  256MOL0     H34528   7.512   4.421  11.923 -0.0038  1.0551 -0.9448
  256MOL0     H34529   7.499   4.587  11.980 -0.4386 -0.5023 -0.6238
  256MOL0     H34530   7.504   4.336  12.157  1.6072  0.1534  2.2517
  256MOL0     H34531   7.497   4.499  12.226 -0.0166  0.5590 -1.5440
  256MOL0     H34532   7.719   4.545  12.105  0.8910  0.2425  1.4519
  256MOL0     H34533   7.711   4.387  12.029 -2.3178 -2.9947  1.5801
  256MOL0     H34534   7.692   4.294  12.285  0.9224 -0.4997 -0.0116
  256MOL0     H34535   7.850   4.321  12.233 -0.5698  0.4949  1.1595
  256MOL0     H34536   7.677   4.518  12.365  1.8406  3.8211 -2.8383
  256MOL0     H34537   7.833   4.555  12.302 -3.4084  3.4838 -1.5111
  256MOL0     H34538   7.755   4.349  12.534 -2.7461  2.5877  1.9649
  256MOL0     H34539   7.932   4.388  12.484 -1.3423 -3.6843  0.2801
  256MOL0     H34540   7.450   4.447  11.545  0.0055  0.4151 -3.3118
  256MOL0     H34541   7.383   4.272  11.375  1.6671 -0.7762  1.0929
  256MOL0     H34542   6.957   4.045  11.297  0.9221 -0.0617 -1.6524
  256MOL0     H34543   6.784   3.883  11.226 -0.9377  0.9936  1.2592
  256MOL0     H34544   5.421   3.310  10.820  0.0422  0.8415 -1.0587
  256MOL0     H34545   5.211   3.202  10.848  0.4342  0.3010  0.7733
  256MOL0     H34546   4.783   3.233  11.161 -0.6817  0.8462  0.5183
  256MOL0     H34547   4.563   3.138  11.214  0.8780 -2.2497 -0.0715
  256MOL0     H34548   4.209   3.054  10.998  1.4661 -1.0513 -0.0072
  256MOL0     H34549   4.301   3.124  10.877  1.4627 -2.7581  0.0646
  256MOL0     H34550   4.190   3.299  10.986  2.0951  0.5872 -1.6312
  256MOL0     H34551   4.349   3.320  11.044 -1.1379  0.4176 -0.2255
  256MOL0     H34552   4.303   3.217  11.255  0.2440 -1.5785 -0.6368
  256MOL0     H34553   4.176   3.119  11.198 -0.2147  0.7014 -2.7542
  256MOL0     H34554   4.070   3.286  11.348 -0.8798 -0.2545 -1.1318
  256MOL0     H34555   4.158   3.418  11.248 -1.1661 -0.1021 -1.4939
  256MOL0     H34556   3.838   3.358  10.983 -2.2357  4.0969  1.6863
  256MOL0     H34557   4.518   3.070  10.791 -0.0096  1.5011 -0.9193
  256MOL0     H34558   4.778   3.239  10.651 -0.6587 -0.0358 -0.8877
  256MOL0     H34559   4.843   3.077  10.707  0.5175  1.2023  1.8675
  256MOL0     H34560   4.685   3.103  10.631  0.3176  0.9443 -0.9625
  257MOL0     O34561  11.334   7.515   3.436  0.0269 -0.2503 -0.0687
  257MOL0     C34562  11.330   7.590   3.335  0.2125 -0.0232 -0.0606
  257MOL0     O34563  11.434   7.648   3.272 -0.0614  0.0194  0.1879
  257MOL0     C34564  11.559   7.642   3.334  0.3603  0.0812  0.9878
  257MOL0     C34565  11.656   7.564   3.273 -0.0321  0.3034 -0.7550
  257MOL0     C34566  11.780   7.542   3.337 -1.0278  0.6278 -0.3800
  257MOL0     C34567  11.798   7.607   3.462  0.6661  0.8392  0.5252
  257MOL0     O34568  11.913   7.616   3.535  0.5742  0.2274  1.1578
  257MOL0     C34569  12.042   7.572   3.483 -0.1688  0.2400  0.2110
  257MOL0     C34570  12.122   7.514   3.596  0.4190  0.3578  1.1005
  257MOL0     C34571  12.255   7.454   3.550 -0.0999 -0.4495 -0.7685
  257MOL0     C34572  12.312   7.390   3.675 -0.1907 -0.1583  0.9709
  257MOL0     C34573  12.460   7.338   3.632  0.6054  0.2828 -0.3342
  257MOL0     C34574  12.507   7.217   3.716 -0.6495  0.5749  0.3859
  257MOL0     C34575  12.505   7.259   3.865 -0.2320  0.4818  0.0951
  257MOL0     C34576  12.608   7.171   3.941  0.0045 -0.3514  0.7852
  257MOL0     N34577  12.595   7.164   4.085 -0.6767  0.0351 -0.0495
  257MOL0     C34578  12.479   7.138   4.153 -0.5847 -0.6294 -0.8361
  257MOL0     C34579  12.513   7.137   4.286  0.5423 -0.1400  0.1678
  257MOL0     C34580  12.426   7.098   4.400  0.4610 -0.6019  0.2915
  257MOL0     C34581  12.302   7.030   4.347 -0.5058  0.4090  0.0049
  257MOL0     C34582  12.227   6.971   4.460  0.4307  0.2953 -0.1485
  257MOL0     C34583  12.123   6.863   4.423  0.5416 -0.2344  0.9072
  257MOL0     O34584  12.004   6.876   4.496 -0.2214  0.3911 -0.2149
  257MOL0     C34585  11.919   6.982   4.471  0.1370  0.0163 -0.4282
  257MOL0     C34586  11.937   7.095   4.388  0.3275 -0.5400 -0.2101
  257MOL0     C34587  11.851   7.197   4.391  0.1125  0.2038 -0.2916
  257MOL0     C34588  11.718   7.179   4.447  1.0378 -1.2105 -0.1315
  257MOL0     C34589  11.613   7.283   4.455 -0.0846 -0.3926 -0.8323
  257MOL0     O34590  11.488   7.249   4.512  0.1294  0.1881 -0.3462
  257MOL0     C34591  11.381   7.337   4.502 -0.5457  0.6744  0.3315
  257MOL0     C34592  11.271   7.307   4.421 -0.1781 -0.4721  0.1612
  257MOL0     C34593  11.139   7.366   4.447  0.1805  0.3467 -0.0886
  257MOL0     C34594  11.133   7.474   4.546 -0.5696  0.6944  0.1786
  257MOL0     O34595  11.023   7.547   4.585  0.4842  0.0483  0.4675
  257MOL0     C34596  10.891   7.509   4.532  0.1816 -0.0813  0.7884
  257MOL0     C34597  10.787   7.620   4.566  0.1786  0.4853  0.8030
  257MOL0     C34598  10.826   7.747   4.486 -0.1981  0.6547  0.5867
  257MOL0     C34599  10.738   7.864   4.528 -0.0507 -0.3173  0.7226
  257MOL0     C34600  10.578   7.833   4.525 -0.2672  0.1378 -0.1299
  257MOL0     C34601  10.534   7.796   4.386 -0.2336 -0.2295 -0.0166
  257MOL0     C34602  10.377   7.797   4.396 -0.0539  0.2510 -0.0953
  257MOL0     C34603  10.309   7.756   4.263 -0.7054  0.4273  0.3689
  257MOL0    Cl34604  10.335   7.875   4.135 -0.8099 -0.2564 -0.5595
  257MOL0     C34605  11.251   7.508   4.618 -0.7173  0.3789  0.2508
  257MOL0     C34606  11.374   7.437   4.598  0.5506  0.5517  0.3355
  257MOL0     O34607  11.648   7.393   4.416  0.1041  0.2590  0.1317
  257MOL0     C34608  11.683   7.057   4.502  0.1411 -0.4016 -1.2610
  257MOL0     C34609  11.786   6.962   4.518  0.2489  0.9931 -0.4556
  257MOL0     N34610  12.652   7.149   4.286 -0.2132  0.4571  0.3141
  257MOL0     N34611  12.697   7.167   4.171 -0.6898 -0.1955  0.7708
  257MOL0     C34612  11.695   7.687   3.515  0.2628 -0.8541 -0.3944
  257MOL0     C34613  11.581   7.710   3.449  0.1058 -1.1158  0.0403
  257MOL0     C34614  11.192   7.615   3.275 -0.4492  0.0992 -0.7086
  257MOL0     C34615  11.173   7.737   3.203  0.3165  0.2956  0.3150
  257MOL0     C34616  11.046   7.778   3.166  0.0000  0.1340 -1.5647
  257MOL0     C34617  10.941   7.690   3.185 -0.7031  1.0998 -0.5643
  257MOL0     O34618  10.809   7.705   3.153  0.2287  0.1148  0.4866
  257MOL0     C34619  10.759   7.815   3.076 -0.0843 -0.2184 -0.1455
  257MOL0     C34620  10.608   7.786   3.049 -0.1101  0.6949 -0.0988
  257MOL0     C34621  10.556   7.869   2.931 -1.2627 -0.4392 -0.4152
  257MOL0     C34622  10.400   7.868   2.929  0.1261  0.0679  0.4526
  257MOL0     C34623  10.358   7.730   2.898  0.3363 -0.7032 -0.3855
  257MOL0     C34624  10.333   7.616   2.877  0.0833 -0.2208  0.1121
  257MOL0     C34625  10.968   7.561   3.243  0.5643  0.6436 -0.7514
  257MOL0     C34626  11.091   7.518   3.285  0.6320  0.3681  0.2861
  257MOL0     C34627  11.092   7.376   3.322  0.0345 -0.1890 -0.4300
  257MOL0     H34628  11.637   7.526   3.173 -2.9562 -1.8564  0.4667
  257MOL0     H34629  11.863   7.487   3.292 -0.3596  0.5990  0.8242
  257MOL0     H34630  12.029   7.491   3.411 -0.8259 -0.9694  1.6333
  257MOL0     H34631  12.090   7.663   3.445  3.4517 -1.3723  0.5396
  257MOL0     H34632  12.055   7.451   3.655 -0.0490  1.1210  1.3887
  257MOL0     H34633  12.136   7.593   3.670  0.0929 -0.9270  2.5846
  257MOL0     H34634  12.317   7.537   3.516 -0.3533  0.5026  0.9670
  257MOL0     H34635  12.244   7.381   3.469 -0.2059 -1.0010 -0.2673
  257MOL0     H34636  12.319   7.462   3.758 -0.5923  0.3628  0.5622
  257MOL0     H34637  12.242   7.310   3.701 -1.5166  0.4286 -0.5733
  257MOL0     H34638  12.457   7.307   3.527 -2.8029 -3.4000  0.6092
  257MOL0     H34639  12.531   7.419   3.649 -0.2872  0.6582  1.8987
  257MOL0     H34640  12.461   7.120   3.696  0.5368 -0.1981  1.3333
  257MOL0     H34641  12.609   7.202   3.681 -0.3205 -1.8586  2.1282
  257MOL0     H34642  12.412   7.222   3.908  0.1543 -1.4647 -0.6066
  257MOL0     H34643  12.520   7.367   3.877 -0.9964  0.4677  1.2577
  257MOL0     H34644  12.601   7.067   3.907 -3.1004 -0.1520  0.4636
  257MOL0     H34645  12.708   7.211   3.925 -0.6252  0.2276 -2.4289
  257MOL0     H34646  12.381   7.122   4.110 -1.3400  1.7249 -0.1829
  257MOL0     H34647  12.481   7.041   4.474  0.5594 -0.0064  0.6889
  257MOL0     H34648  12.381   7.177   4.461 -2.4320 -3.0811  1.6248
  257MOL0     H34649  12.239   7.095   4.286  0.4975  1.1067 -0.3160
  257MOL0     H34650  12.323   6.944   4.283 -1.1301 -0.5217  1.0131
  257MOL0     H34651  12.173   7.054   4.506 -0.6224  0.0137 -0.8395
  257MOL0     H34652  12.293   6.920   4.532  1.5651  1.3112 -0.4473
  257MOL0     H34653  12.160   6.761   4.429  0.6817 -0.0965  2.7968
  257MOL0     H34654  12.095   6.876   4.318  1.8076  1.7262  0.7412
  257MOL0     H34655  12.019   7.118   4.321 -0.0672  0.6475 -0.3052
  257MOL0     H34656  11.879   7.295   4.354  0.2270  0.2662 -0.0399
  257MOL0     H34657  11.274   7.227   4.348 -1.4246  0.7116 -1.2463
  257MOL0     H34658  11.052   7.331   4.392 -1.1746  0.4051  1.9253
  257MOL0     H34659  10.907   7.494   4.425  0.1410 -1.2964  0.9400
  257MOL0     H34660  10.855   7.419   4.583  2.4957 -0.6058  1.6093
  257MOL0     H34661  10.695   7.572   4.534  1.3610 -0.3197 -1.6468
  257MOL0     H34662  10.782   7.631   4.675 -2.6776 -1.8257  1.0399
  257MOL0     H34663  10.931   7.770   4.505  0.3428  1.1633 -2.4344
  257MOL0     H34664  10.805   7.722   4.381 -0.5418 -1.8988  1.1969
  257MOL0     H34665  10.759   7.943   4.455 -1.5943  2.0524  2.6583
  257MOL0     H34666  10.767   7.907   4.624 -1.2352 -0.8289  1.3323
  257MOL0     H34667  10.524   7.921   4.562  0.7393  1.2994 -1.3394
  257MOL0     H34668  10.549   7.753   4.594  1.2267  0.3097  0.7248
  257MOL0     H34669  10.581   7.859   4.309 -3.0215  1.7042 -0.3220
  257MOL0     H34670  10.570   7.694   4.377 -2.0701 -1.0142  0.8858
  257MOL0     H34671  10.328   7.889   4.429  1.0405  0.1259  2.0027
  257MOL0     H34672  10.347   7.726   4.474 -1.4042  0.9069  0.0120
  257MOL0     H34673  10.345   7.656   4.234  0.2309  1.1064 -0.9076
  257MOL0     H34674  10.203   7.732   4.279 -1.0236  1.2973 -0.3807
  257MOL0     H34675  11.257   7.594   4.683  1.7544 -0.7612  1.6962
  257MOL0     H34676  11.455   7.454   4.668  0.7518 -0.4928  0.3710
  257MOL0     H34677  11.584   7.031   4.539 -0.4056  1.1545 -1.5491
  257MOL0     H34678  11.766   6.869   4.570  4.5683 -0.6540 -1.3626
  257MOL0     H34679  11.714   7.725   3.615 -0.8863 -0.6834 -0.2366
  257MOL0     H34680  11.503   7.771   3.492 -0.9395 -0.4747 -2.5593
  257MOL0     H34681  11.249   7.815   3.201 -1.8618  2.7277  2.6932
  257MOL0     H34682  11.032   7.879   3.131 -1.3458  0.9125  0.9813
  257MOL0     H34683  10.812   7.813   2.981  0.6674  2.5976  0.1021
  257MOL0     H34684  10.784   7.916   3.110  1.1138  1.3564 -4.9554
  257MOL0     H34685  10.551   7.812   3.139 -0.9353 -1.9290  0.2231
  257MOL0     H34686  10.589   7.680   3.033 -2.3169  0.0738  4.6894
  257MOL0     H34687  10.579   7.818   2.837 -0.2201 -0.8450  0.0503
  257MOL0     H34688  10.595   7.971   2.928 -1.1728 -0.3974  1.2697
  257MOL0     H34689  10.365   7.893   3.029 -2.4531 -0.6713 -0.1834
  257MOL0     H34690  10.348   7.935   2.860 -1.4435 -1.5298  0.0010
  257MOL0     H34691  10.303   7.513   2.871  1.4516 -0.7649  1.7464
  257MOL0     H34692  10.886   7.490   3.248  1.7539 -0.7596  3.1870
  257MOL0     H34693  11.044   7.364   3.420  1.3980  1.9444  0.5704
  257MOL0     H34694  11.036   7.331   3.238  0.0692  0.5856 -0.8767
  257MOL0     H34695  11.189   7.327   3.329  1.1420  1.5914 -2.3898
  258MOL0     O34696   0.112   9.540   8.154 -1.1051  0.0043 -0.7313
  258MOL0     C34697   0.081   9.609   8.254 -1.2875 -1.2588  0.6464
  258MOL0     O34698   0.165   9.654   8.353  0.7636  0.2003  0.3432
  258MOL0     C34699   0.297   9.648   8.327 -0.8696 -0.3657 -0.1527
  258MOL0     C34700   0.379   9.659   8.441 -0.2410 -0.1823 -0.5681
  258MOL0     C34701   0.518   9.656   8.430 -0.1643  0.8632 -0.1217
  258MOL0     C34702   0.573   9.653   8.300 -0.3351 -0.6274  0.3135
  258MOL0     O34703   0.715   9.660   8.285 -0.2077  0.2151  0.0042
  258MOL0     C34704   0.768   9.554   8.208 -0.7060 -1.1456 -0.2420
  258MOL0     C34705   0.928   9.552   8.209 -0.2911 -0.4215 -0.6535
  258MOL0     C34706   0.990   9.481   8.326  0.0451 -0.8072  0.1943
  258MOL0     C34707   1.138   9.497   8.330  0.1945 -0.0717  0.6463
  258MOL0     C34708   1.208   9.420   8.435  0.0887  0.8534  0.3336
  258MOL0     C34709   1.359   9.393   8.397  0.1670 -0.0224 -0.2037
  258MOL0     C34710   1.426   9.303   8.505 -0.0623  0.5850  0.1274
  258MOL0     C34711   1.441   9.383   8.632  0.1223 -0.2763 -0.2062
  258MOL0     N34712   1.547   9.315   8.713  0.4290 -0.5727  0.1278
  258MOL0     C34713   1.540   9.192   8.772  0.0734  0.1885  0.1817
  258MOL0     C34714   1.658   9.177   8.831 -0.0620  0.5056  0.3230
  258MOL0     C34715   1.705   9.049   8.906  0.8075 -0.9839 -0.7850
  258MOL0     C34716   1.814   8.968   8.834 -0.2965  0.6708  1.2389
  258MOL0     C34717   1.933   9.061   8.788 -0.4126  0.8421  0.4643
  258MOL0     C34718   1.993   9.140   8.897 -0.2209  0.0631  0.2142
  258MOL0     O34719   2.098   9.066   8.962  0.4106  0.6945  0.2725
  258MOL0     C34720   2.226   9.116   8.970 -0.2464 -0.4081  0.7411
  258MOL0     C34721   2.337   9.029   8.983  1.0375  0.7657 -0.6326
  258MOL0     C34722   2.464   9.071   8.983  0.0312 -0.4960 -0.5729
  258MOL0     C34723   2.486   9.207   8.975 -0.3246 -0.0925 -0.3929
  258MOL0     C34724   2.627   9.254   8.971 -1.0234 -0.6352  0.7211
  258MOL0     O34725   2.719   9.171   9.037  0.2088 -0.1235  0.5762
  258MOL0     C34726   2.853   9.207   9.042 -1.0940  0.6907 -0.5247
  258MOL0     C34727   2.926   9.267   8.934 -0.2079  0.6306 -0.4819
  258MOL0     C34728   3.057   9.311   8.960 -0.3143  0.8253 -1.4421
  258MOL0     C34729   3.118   9.298   9.091 -0.1987 -0.1232 -0.4231
  258MOL0     O34730   3.240   9.355   9.137  0.3523  0.1944 -0.0051
  258MOL0     C34731   3.336   9.407   9.038 -0.1073  0.3586  0.0741
  258MOL0     C34732   3.468   9.423   9.109 -0.7314 -0.4867  0.5428
  258MOL0     C34733   3.573   9.461   9.007  0.6176 -0.2710 -0.7923
  258MOL0     C34734   3.716   9.454   9.059 -0.3050 -0.4731  0.0637
  258MOL0     C34735   3.832   9.459   8.961 -0.4298  0.1933 -0.0270
  258MOL0     C34736   3.864   9.598   8.916 -0.3927  0.2409 -0.5196
  258MOL0     C34737   3.995   9.603   8.835 -0.8318  0.0112 -0.0772
  258MOL0     C34738   4.006   9.735   8.756 -0.0601  0.3366 -0.7574
  258MOL0    Cl34739   4.168   9.753   8.692  0.2622 -0.0037  0.0352
  258MOL0     C34740   3.042   9.232   9.193  0.3544 -0.0584  0.7818
  258MOL0     C34741   2.913   9.182   9.165  0.3388 -0.2122 -0.5298
  258MOL0     O34742   2.648   9.360   8.911 -1.1874 -0.0859 -0.0979
  258MOL0     C34743   2.385   9.303   8.965  1.0148 -0.8461 -0.3505
  258MOL0     C34744   2.256   9.254   8.960 -0.1998  0.1623 -0.5342
  258MOL0     N34745   1.733   9.288   8.794  0.2575 -0.0578 -0.1738
  258MOL0     N34746   1.658   9.374   8.745  0.0916 -0.4470  0.1626
  258MOL0     C34747   0.494   9.648   8.190 -1.0059 -0.1126  1.4377
  258MOL0     C34748   0.356   9.651   8.202 -0.4261  0.8219  0.0400
  258MOL0     C34749  -0.062   9.654   8.255  0.0756  0.2650  0.1274
  258MOL0     C34750  -0.121   9.696   8.374 -0.3988  0.5449 -0.6162
  258MOL0     C34751  -0.260   9.729   8.384 -0.2607  0.2037  0.5584
  258MOL0     C34752  -0.347   9.720   8.272 -1.0660  0.3358 -0.3907
  258MOL0     O34753  -0.487   9.741   8.291 -0.1675  0.1933 -0.1014
  258MOL0     C34754  -0.590   9.732   8.186 -0.9675  0.8624 -0.5161
  258MOL0     C34755  -0.596   9.850   8.093  0.5365  0.8131 -0.4081
  258MOL0     C34756  -0.654   9.982   8.146  0.0716 -0.3002 -0.9877
  258MOL0     C34757  -0.807   9.965   8.188  0.5982  0.1862  0.6599
  258MOL0     C34758  -0.833   9.931   8.326 -0.2398  0.3655  0.2877
  258MOL0     C34759  -0.848   9.910   8.446 -0.5928  0.3037 -0.0419
  258MOL0     C34760  -0.289   9.672   8.150 -0.1458 -0.2674 -0.0415
  258MOL0     C34761  -0.146   9.654   8.139 -0.1249 -0.1645  0.1697
  258MOL0     C34762  -0.095   9.643   8.000  0.1434  0.5795  0.2063
  258MOL0     H34763   0.340   9.651   8.542 -2.3430 -0.5325 -1.3654
  258MOL0     H34764   0.576   9.644   8.521 -1.1432 -1.6137  0.2530
  258MOL0     H34765   0.734   9.463   8.257 -1.6348  0.2447  1.8701
  258MOL0     H34766   0.731   9.554   8.105 -0.2276  1.8764 -0.5044
  258MOL0     H34767   0.966   9.654   8.201  0.7987 -0.8551 -1.1493
  258MOL0     H34768   0.950   9.492   8.121 -0.2521 -1.6008  0.1289
  258MOL0     H34769   0.961   9.376   8.322 -2.8210 -0.1021 -0.3831
  258MOL0     H34770   0.946   9.523   8.417 -2.3971  2.2241 -2.1180
  258MOL0     H34771   1.186   9.461   8.239 -0.2333  1.0396 -0.0472
  258MOL0     H34772   1.161   9.604   8.329  0.9348 -0.2318  0.5701
  258MOL0     H34773   1.193   9.475   8.528  1.6551  1.2179  0.3987
  258MOL0     H34774   1.173   9.317   8.435  2.5625 -0.0752  0.6462
  258MOL0     H34775   1.375   9.334   8.306  1.8021  0.4272 -0.2473
  258MOL0     H34776   1.402   9.489   8.368 -0.6712 -0.3123 -2.6594
  258MOL0     H34777   1.527   9.276   8.471 -0.2896 -0.7826  0.5097
  258MOL0     H34778   1.372   9.210   8.525 -0.5516  0.7421 -0.4158
  258MOL0     H34779   1.467   9.486   8.608 -3.0261  0.5293 -0.5813
  258MOL0     H34780   1.343   9.387   8.680  0.1555 -0.2957 -0.1366
  258MOL0     H34781   1.450   9.132   8.782 -1.5403  2.6137  1.2358
  258MOL0     H34782   1.741   9.087   9.002  3.3501 -4.6915 -0.0605
  258MOL0     H34783   1.626   8.983   8.942  1.4634 -0.3788  1.9797
  258MOL0     H34784   1.855   8.890   8.899 -1.0221 -0.3128  0.5463
  258MOL0     H34785   1.768   8.902   8.760 -0.4732 -0.9182  2.6985
  258MOL0     H34786   1.895   9.114   8.700 -1.0632 -0.9050 -0.3641
  258MOL0     H34787   2.014   9.004   8.741 -0.9807  2.3822 -2.6755
  258MOL0     H34788   1.918   9.182   8.965  0.3678 -0.4163  1.1901
  258MOL0     H34789   2.038   9.228   8.850  2.1308  0.8087  3.5243
  258MOL0     H34790   2.321   8.922   8.975 -0.8455  0.9133  0.6098
  258MOL0     H34791   2.545   8.999   8.987  0.5124  0.0638 -0.1603
  258MOL0     H34792   2.878   9.273   8.837  0.6566 -1.0713 -1.0567
  258MOL0     H34793   3.106   9.368   8.882 -1.3025  0.0638 -2.6781
  258MOL0     H34794   3.342   9.320   8.972 -1.0736 -2.6072  3.5291
  258MOL0     H34795   3.308   9.493   8.977 -3.1042 -2.2680 -2.6664
  258MOL0     H34796   3.475   9.498   9.189  0.9686 -1.6202  1.5387
  258MOL0     H34797   3.498   9.332   9.163  3.3623  1.3646  1.8381
  258MOL0     H34798   3.572   9.393   8.922 -1.6215 -0.7039 -0.4850
  258MOL0     H34799   3.553   9.564   8.976 -2.5272 -0.6604 -0.3773
  258MOL0     H34800   3.727   9.355   9.104 -1.4210 -0.6808 -0.0963
  258MOL0     H34801   3.732   9.538   9.128  0.1247 -0.3750 -0.1540
  258MOL0     H34802   3.803   9.398   8.875 -1.0863  2.1343 -1.2707
  258MOL0     H34803   3.919   9.424   9.017 -0.9267  0.8349  1.1767
  258MOL0     H34804   3.780   9.633   8.856 -0.3470  2.0675  0.4135
  258MOL0     H34805   3.876   9.658   9.006  2.5778  0.0323 -0.6526
  258MOL0     H34806   4.004   9.522   8.763  1.1283  2.9617 -3.4461
  258MOL0     H34807   4.077   9.600   8.907  1.1968 -2.1524 -2.3434
  258MOL0     H34808   3.927   9.740   8.680  0.2561  1.5976 -1.0169
  258MOL0     H34809   3.977   9.823   8.814 -1.2535 -1.6510  1.8491
  258MOL0     H34810   3.086   9.217   9.291 -0.8883 -0.7849  1.2500
  258MOL0     H34811   2.854   9.129   9.239 -0.2865  2.9500  1.4534
  258MOL0     H34812   2.417   9.406   8.966  1.7435 -1.0214 -2.1579
  258MOL0     H34813   2.186   9.336   8.947 -0.4454 -0.2070 -1.6568
  258MOL0     H34814   0.531   9.665   8.089  0.5049 -1.8634  1.6535
  258MOL0     H34815   0.288   9.658   8.118 -1.9683  1.7094  1.3043
  258MOL0     H34816  -0.056   9.709   8.460 -1.0228  0.6277 -0.1500
  258MOL0     H34817  -0.307   9.765   8.476 -2.8453  0.3014 -0.7121
  258MOL0     H34818  -0.686   9.697   8.228 -1.7396  0.8382 -2.2049
  258MOL0     H34819  -0.565   9.640   8.132  1.1664  0.2691  1.3110
  258MOL0     H34820  -0.661   9.832   8.007 -1.4797  1.0690  0.9844
  258MOL0     H34821  -0.503   9.873   8.041 -0.5696 -1.3097 -3.6158
  258MOL0     H34822  -0.647  10.053   8.063 -1.0821 -1.1784 -1.8688
  258MOL0     H34823  -0.594  10.020   8.229 -1.8212  0.9612 -0.1014
  258MOL0     H34824  -0.861  10.059   8.172  0.7729 -0.0777 -1.8613
  258MOL0     H34825  -0.843   9.885   8.122  1.3644  1.1774 -1.0390
  258MOL0     H34826  -0.860   9.889   8.550 -0.5035 -1.4386 -0.3551
  258MOL0     H34827  -0.354   9.672   8.064 -4.3789  0.9673  2.8137
  258MOL0     H34828  -0.052   9.544   7.983 -3.1558 -1.2635  1.8336
  258MOL0     H34829  -0.180   9.658   7.934  0.5947  3.3723  0.1300
  258MOL0     H34830  -0.018   9.722   8.003 -1.3458  2.0690  2.3446
  259MOL0     O34831   8.766  11.096   0.409  0.3087 -0.0411  0.3164
  259MOL0     C34832   8.776  11.194   0.486  0.5193 -0.1135  0.1761
  259MOL0     O34833   8.884  11.267   0.503 -0.1337  0.3531  0.2932
  259MOL0     C34834   9.004  11.211   0.456  0.5181 -0.0141  0.8896
  259MOL0     C34835   9.074  11.106   0.522  0.4180  0.8658  0.2783
  259MOL0     C34836   9.195  11.062   0.471 -1.0440  0.4131 -0.3397
  259MOL0     C34837   9.253  11.124   0.355 -0.4524 -0.3045  0.2618
  259MOL0     O34838   9.385  11.089   0.318  0.7198  0.1810 -0.3977
  259MOL0     C34839   9.408  11.068   0.177 -0.6123  0.3958 -0.2351
  259MOL0     C34840   9.525  10.968   0.158 -0.0513  0.1421 -0.5241
  259MOL0     C34841   9.667  11.023   0.205  0.6103 -0.3352  0.0864
  259MOL0     C34842   9.738  11.121   0.109 -0.2917 -0.7406 -0.2382
  259MOL0     C34843   9.879  11.149   0.149 -0.0442  0.4406 -0.3535
  259MOL0     C34844   9.916  11.171   0.299  0.3119 -0.2964  0.1752
  259MOL0     C34845   9.860  11.289   0.364 -0.3507  0.5949  0.3863
  259MOL0     C34846   9.800  11.273   0.505  0.1831 -0.8489  0.1159
  259MOL0     N34847   9.708  11.376   0.550  0.1802 -0.8363 -0.3847
  259MOL0     C34848   9.585  11.399   0.500  0.2946  0.6499  0.4266
  259MOL0     C34849   9.527  11.488   0.581  0.0086 -0.0196  0.3246
  259MOL0     C34850   9.388  11.530   0.551 -0.2600 -0.0827  0.5345
  259MOL0     C34851   9.313  11.588   0.679  0.0943  0.4551  0.5146
  259MOL0     C34852   9.185  11.656   0.637  0.2600 -0.4795  0.2680
  259MOL0     C34853   9.122  11.714   0.759  0.0049 -0.8056 -0.4492
  259MOL0     O34854   9.065  11.623   0.857 -0.1514  0.0191 -0.3847
  259MOL0     C34855   8.934  11.644   0.899 -1.0254 -0.5187  0.3389
  259MOL0     C34856   8.871  11.765   0.902  0.3256  0.3036  1.0276
  259MOL0     C34857   8.740  11.774   0.964 -0.5664 -0.3015  0.1839
  259MOL0     C34858   8.678  11.666   1.029 -0.7230  0.5739  0.4063
  259MOL0     C34859   8.543  11.674   1.087 -0.1446 -0.9750 -0.1381
  259MOL0     O34860   8.492  11.793   1.101  0.0762  0.5244 -0.4332
  259MOL0     C34861   8.360  11.810   1.139 -0.2255 -0.4986 -0.1557
  259MOL0     C34862   8.329  11.794   1.274 -0.3675  0.0262  0.3265
  259MOL0     C34863   8.203  11.819   1.326 -0.4514  0.3331  1.2860
  259MOL0     C34864   8.106  11.877   1.232  0.2576  0.0675 -0.8145
  259MOL0     O34865   7.977  11.916   1.262  0.3801  0.7587 -0.3771
  259MOL0     C34866   7.904  11.827   1.346 -0.3519 -0.5002 -0.0891
  259MOL0     C34867   7.752  11.838   1.314 -0.5514  1.2912 -0.0641
  259MOL0     C34868   7.676  11.734   1.381 -0.0044  0.0562  0.6246
  259MOL0     C34869   7.523  11.733   1.339  1.2162  0.7381 -0.1505
  259MOL0     C34870   7.448  11.630   1.420  1.2569 -1.2438 -0.0569
  259MOL0     C34871   7.303  11.657   1.403  0.0582 -0.3955  0.7785
  259MOL0     C34872   7.228  11.571   1.504 -0.0577 -0.3261 -0.7442
  259MOL0     C34873   7.076  11.600   1.508 -0.2087 -0.4840  0.4398
  259MOL0    Cl34874   7.043  11.762   1.554 -0.5049 -0.2768 -0.4886
  259MOL0     C34875   8.144  11.905   1.103 -0.0688 -0.1939  0.3001
  259MOL0     C34876   8.271  11.873   1.056 -0.2786 -0.1429 -0.1236
  259MOL0     O34877   8.480  11.571   1.108  0.8942 -0.5018  0.4209
  259MOL0     C34878   8.754  11.546   1.032  0.7476 -0.1126 -0.1817
  259MOL0     C34879   8.877  11.534   0.968 -0.8393 -0.4250  0.5084
  259MOL0     N34880   9.621  11.529   0.676  0.3041  0.1237  0.7796
  259MOL0     N34881   9.721  11.456   0.669 -0.1810  0.2213 -0.1402
  259MOL0     C34882   9.183  11.230   0.294  0.1333 -0.3079  0.6279
  259MOL0     C34883   9.059  11.268   0.337  0.1127  0.7651 -0.0452
  259MOL0     C34884   8.655  11.224   0.565  0.4873  0.6091 -0.3005
  259MOL0     C34885   8.545  11.140   0.559 -0.3015  0.1815  0.7324
  259MOL0     C34886   8.426  11.172   0.623  0.2246 -0.3154  0.3901
  259MOL0     C34887   8.410  11.276   0.703  0.0012 -0.3235 -0.3216
  259MOL0     O34888   8.286  11.285   0.771  0.5484  0.1615 -0.1244
  259MOL0     C34889   8.263  11.395   0.860  0.1767 -0.9022  0.2717
  259MOL0     C34890   8.142  11.387   0.944  0.2096 -0.6250  0.5281
  259MOL0     C34891   8.122  11.507   1.042 -0.2456 -0.3129  0.3366
  259MOL0     C34892   7.991  11.515   1.117  0.3145  0.0645  0.5458
  259MOL0     C34893   7.871  11.498   1.028 -1.4689 -0.2607 -1.0885
  259MOL0     C34894   7.776  11.501   0.956  0.0151  0.0654 -0.4686
  259MOL0     C34895   8.515  11.363   0.713 -0.2016  0.2812  0.2178
  259MOL0     C34896   8.643  11.333   0.658 -0.3865 -0.5614 -0.4707
  259MOL0     C34897   8.756  11.434   0.687 -0.9658  0.2806 -0.3172
  259MOL0     H34898   9.029  11.068   0.613 -1.8566  0.3107 -1.0116
  259MOL0     H34899   9.265  10.987   0.507 -0.4433  0.8591 -0.5580
  259MOL0     H34900   9.325  11.020   0.125 -0.1410 -1.8646  0.9563
  259MOL0     H34901   9.426  11.162   0.124  1.4008  0.1779  0.0014
  259MOL0     H34902   9.531  10.939   0.052  2.1138 -1.2421 -0.0848
  259MOL0     H34903   9.500  10.875   0.209 -2.1165 -0.5187 -2.5574
  259MOL0     H34904   9.733  10.936   0.210  0.8955 -0.0340  2.2397
  259MOL0     H34905   9.658  11.068   0.304 -1.1282 -0.0430 -0.1748
  259MOL0     H34906   9.750  11.076   0.010  1.9467  1.7374 -1.1985
  259MOL0     H34907   9.694  11.221   0.105 -0.1928 -0.6055 -5.5437
  259MOL0     H34908   9.927  11.060   0.109 -2.4802 -1.9556  1.6166
  259MOL0     H34909   9.917  11.238   0.098  0.3712  1.7893  2.1236
  259MOL0     H34910   9.881  11.085   0.356 -0.1274  1.0924  2.1003
  259MOL0     H34911  10.024  11.175   0.318  0.5833  0.2874 -1.3444
  259MOL0     H34912   9.783  11.332   0.299 -1.2556  1.4022  1.9254
  259MOL0     H34913   9.941  11.363   0.362  1.1768 -1.0215 -0.7864
  259MOL0     H34914   9.742  11.180   0.509 -1.2205 -0.0492 -0.7484
  259MOL0     H34915   9.888  11.275   0.570  0.8180  1.2344 -0.7349
  259MOL0     H34916   9.542  11.343   0.418  3.2396 -1.2672  0.0353
  259MOL0     H34917   9.401  11.605   0.472  1.6709 -1.0492 -0.1348
  259MOL0     H34918   9.329  11.458   0.494  1.9044  2.2813 -5.6213
  259MOL0     H34919   9.282  11.504   0.741 -0.5059 -0.6027 -1.1606
  259MOL0     H34920   9.390  11.646   0.731  0.0864  0.4683  0.5118
  259MOL0     H34921   9.115  11.590   0.585  0.6383 -0.0412 -0.8304
  259MOL0     H34922   9.200  11.736   0.565 -1.1996  0.7781  1.2905
  259MOL0     H34923   9.056  11.797   0.730  0.9909 -0.4980 -1.9034
  259MOL0     H34924   9.202  11.770   0.810  0.2332 -0.6490 -0.9660
  259MOL0     H34925   8.911  11.851   0.848 -2.1901 -0.4496 -2.4082
  259MOL0     H34926   8.705  11.875   0.984  0.8917  0.0506  1.1425
  259MOL0     H34927   8.395  11.744   1.343 -0.5035 -0.6342 -0.0133
  259MOL0     H34928   8.192  11.788   1.429  2.2310  0.4148  1.6599
  259MOL0     H34929   7.932  11.722   1.339  1.0574 -0.0562 -2.4037
  259MOL0     H34930   7.901  11.861   1.450 -3.4522  3.6661 -1.2676
  259MOL0     H34931   7.711  11.937   1.334  1.5770  2.4744 -1.1432
  259MOL0     H34932   7.738  11.819   1.207 -0.5468  1.2719 -0.0613
  259MOL0     H34933   7.720  11.635   1.363  2.0043  0.9924  0.0120
  259MOL0     H34934   7.696  11.759   1.485 -1.7191 -0.8104  1.1947
  259MOL0     H34935   7.518  11.710   1.232  0.1937  0.8367 -0.1278
  259MOL0     H34936   7.487  11.835   1.350  0.4829  0.4283  0.4331
  259MOL0     H34937   7.463  11.641   1.528  0.7859  2.8172 -0.2652
  259MOL0     H34938   7.461  11.530   1.377 -2.0047 -2.5589  1.6541
  259MOL0     H34939   7.291  11.763   1.428  0.2128 -0.7932  2.6861
  259MOL0     H34940   7.261  11.647   1.303  2.9473  1.0091 -0.6993
  259MOL0     H34941   7.261  11.598   1.605  0.0527  0.6025 -1.0247
  259MOL0     H34942   7.242  11.467   1.473  2.5829  0.2987 -1.8948
  259MOL0     H34943   7.031  11.584   1.409  0.1160 -0.8060  0.3373
  259MOL0     H34944   7.028  11.527   1.574  1.2321 -1.6555  0.2624
  259MOL0     H34945   8.074  11.950   1.033 -0.9111 -0.5479  0.8910
  259MOL0     H34946   8.305  11.883   0.954 -3.3171  2.7306 -1.0403
  259MOL0     H34947   8.712  11.459   1.082 -0.0976 -1.2113 -2.6346
  259MOL0     H34948   8.943  11.448   0.978  0.4662  0.4955  0.1204
  259MOL0     H34949   9.220  11.284   0.207 -4.8770  2.1662 -0.3443
  259MOL0     H34950   9.004  11.347   0.287  3.3713  1.2553 -3.2630
  259MOL0     H34951   8.539  11.049   0.500  0.0845 -0.4027  1.5654
  259MOL0     H34952   8.335  11.116   0.603  0.3202  0.1973 -1.8445
  259MOL0     H34953   8.251  11.491   0.808  5.0768  1.6225  3.1225
  259MOL0     H34954   8.352  11.407   0.921  1.0806  0.3495 -1.1957
  259MOL0     H34955   8.125  11.291   0.992 -2.3137 -2.2107 -3.0539
  259MOL0     H34956   8.056  11.395   0.876 -1.4207 -0.7978  2.4572
  259MOL0     H34957   8.142  11.595   0.980 -2.2729 -0.4429 -0.5645
  259MOL0     H34958   8.205  11.510   1.114 -0.4748 -0.3216  0.6038
  259MOL0     H34959   7.986  11.436   1.192 -2.0006 -0.5787 -0.2078
  259MOL0     H34960   7.982  11.614   1.162  0.5145 -0.8507  2.7148
  259MOL0     H34961   7.694  11.518   0.889  1.3212  0.4418 -2.0507
  259MOL0     H34962   8.512  11.449   0.779 -0.6247  0.4187  0.0263
  259MOL0     H34963   8.737  11.515   0.758  1.7604  0.4300  0.3494
  259MOL0     H34964   8.854  11.392   0.714 -0.8028  2.0292  2.1239
  259MOL0     H34965   8.785  11.504   0.608 -1.3770  1.9936  0.9911
  260MOL0     O34966   9.259   6.340   5.062  0.1087 -0.2232  0.1939
  260MOL0     C34967   9.228   6.427   5.146 -0.1151  0.4852 -0.0959
  260MOL0     O34968   9.323   6.518   5.205 -0.1095  0.2062  0.1260
  260MOL0     C34969   9.448   6.539   5.148  0.2924 -0.5378 -0.3450
  260MOL0     C34970   9.559   6.556   5.230  0.2363 -0.3931 -0.0080
  260MOL0     C34971   9.678   6.611   5.180 -0.0860  0.1431  0.2541
  260MOL0     C34972   9.687   6.642   5.048  0.2714 -0.1575  0.2142
  260MOL0     O34973   9.801   6.697   4.999  0.4249  0.0247 -0.3308
  260MOL0     C34974   9.844   6.672   4.870  0.2890  0.6988 -0.1831
  260MOL0     C34975   9.988   6.712   4.863 -0.3884  0.1733 -0.1260
  260MOL0     C34976  10.025   6.846   4.922 -0.2385  0.4041  0.1191
  260MOL0     C34977  10.143   6.911   4.845 -0.7048 -0.0152  0.1324
  260MOL0     C34978  10.227   7.024   4.923  0.0139  0.1946  0.1732
  260MOL0     C34979  10.135   7.139   4.974  1.0183  0.0766 -0.9129
  260MOL0     C34980  10.198   7.236   5.072 -0.0713  0.4814  1.1974
  260MOL0     C34981  10.341   7.268   5.036 -0.2635  0.3243 -0.1123
  260MOL0     N34982  10.406   7.382   5.098 -0.6626 -0.2383  0.1970
  260MOL0     C34983  10.511   7.459   5.052 -0.0376 -0.2627  0.0473
  260MOL0     C34984  10.546   7.536   5.156  0.1188 -0.4925  0.1679
  260MOL0     C34985  10.655   7.642   5.151 -0.2981  0.0649 -0.2718
  260MOL0     C34986  10.645   7.737   5.032 -0.0593  0.6704 -0.6530
  260MOL0     C34987  10.508   7.792   4.992  0.1764 -0.3442  0.0950
  260MOL0     C34988  10.447   7.871   5.106 -0.8627 -0.7142  0.2964
  260MOL0     O34989  10.324   7.934   5.069 -0.2428 -0.0607  0.2647
  260MOL0     C34990  10.206   7.861   5.096 -0.0059  0.3091 -0.8936
  260MOL0     C34991  10.198   7.724   5.132  0.3252  0.4612  0.2603
  260MOL0     C34992  10.075   7.664   5.163  0.2170 -0.4661 -0.3649
  260MOL0     C34993   9.955   7.740   5.146  0.1195 -0.6590  0.7375
  260MOL0     C34994   9.820   7.686   5.180 -0.7133 -0.1219 -0.1022
  260MOL0     O34995   9.804   7.547   5.170  0.4804  0.2298  0.2607
  260MOL0     C34996   9.673   7.506   5.167  1.1351  0.3966  0.1088
  260MOL0     C34997   9.583   7.526   5.274 -0.3363 -0.3724 -0.3523
  260MOL0     C34998   9.451   7.485   5.263  0.1629 -0.8984 -1.5387
  260MOL0     C34999   9.398   7.422   5.147 -0.2882  0.6370 -0.6012
  260MOL0     O35000   9.264   7.398   5.138 -0.2971 -0.3061  0.1230
  260MOL0     C35001   9.214   7.329   5.023  1.0369  0.0609 -0.6492
  260MOL0     C35002   9.065   7.310   5.029 -0.1741  0.5837  0.6832
  260MOL0     C35003   9.015   7.286   4.883 -0.3096  0.5945 -0.4355
  260MOL0     C35004   8.870   7.244   4.869  0.1110  0.3282  0.0369
  260MOL0     C35005   8.843   7.216   4.718 -0.3813 -0.3498 -0.1022
  260MOL0     C35006   8.755   7.102   4.695  0.2514  0.3024  0.2578
  260MOL0     C35007   8.613   7.125   4.730 -0.2501 -0.1914 -0.0979
  260MOL0     C35008   8.532   7.013   4.659  0.2454  0.3097 -0.0723
  260MOL0    Cl35009   8.366   7.082   4.676  0.1717  0.3131 -0.2454
  260MOL0     C35010   9.489   7.394   5.048  0.2163 -0.6203 -0.0558
  260MOL0     C35011   9.625   7.437   5.058 -0.2306 -0.4222 -0.3910
  260MOL0     O35012   9.736   7.771   5.211 -0.6060  0.8415 -0.4846
  260MOL0     C35013   9.957   7.876   5.104  0.7639  0.1777  0.5976
  260MOL0     C35014  10.081   7.934   5.085  0.8177 -0.6983 -0.2958
  260MOL0     N35015  10.455   7.512   5.263  0.1356 -0.2731 -0.0963
  260MOL0     N35016  10.379   7.415   5.231  0.5996 -0.2398 -0.1043
  260MOL0     C35017   9.587   6.609   4.962  1.2025  0.3528  0.5208
  260MOL0     C35018   9.461   6.568   5.016 -0.2157 -0.4956  0.3779
  260MOL0     C35019   9.091   6.424   5.188 -0.5633 -0.2110 -0.6390
  260MOL0     C35020   8.991   6.344   5.122 -0.4498  0.3100  0.0940
  260MOL0     C35021   8.860   6.334   5.166  0.3772  0.0653  0.7003
  260MOL0     C35022   8.811   6.398   5.281 -1.0307 -0.3606 -0.7727
  260MOL0     O35023   8.684   6.379   5.333  0.5513  0.0867 -0.5550
  260MOL0     C35024   8.625   6.258   5.290  0.3373 -0.0339 -0.3558
  260MOL0     C35025   8.492   6.217   5.374 -0.5319 -0.0152 -0.1169
  260MOL0     C35026   8.375   6.321   5.359 -1.0729 -0.3616 -0.6077
  260MOL0     C35027   8.248   6.272   5.434 -1.2108 -0.0908  0.7124
  260MOL0     C35028   8.170   6.175   5.353 -0.6606 -0.8252  0.7827
  260MOL0     C35029   8.127   6.077   5.290 -0.0716 -0.0649 -0.0777
  260MOL0     C35030   8.905   6.476   5.345  0.0754 -0.7608 -0.8195
  260MOL0     C35031   9.035   6.489   5.304 -0.4255  0.0744  1.4444
  260MOL0     C35032   9.118   6.589   5.379 -0.4896 -0.1237  0.1771
  260MOL0     H35033   9.543   6.532   5.334 -0.9130 -1.0320 -0.3229
  260MOL0     H35034   9.759   6.640   5.247 -1.2719  4.8376  0.0108
  260MOL0     H35035   9.831   6.567   4.844  0.8120 -0.8020  4.5739
  260MOL0     H35036   9.783   6.729   4.800 -1.1859 -0.3257  0.2324
  260MOL0     H35037  10.023   6.709   4.760  1.3989  1.2536  0.4127
  260MOL0     H35038  10.056   6.650   4.922 -0.6726 -1.0721 -1.0783
  260MOL0     H35039  10.051   6.841   5.028 -1.1637 -0.3329  0.3278
  260MOL0     H35040   9.942   6.917   4.916  0.1835  0.8927  0.0610
  260MOL0     H35041  10.218   6.836   4.817  0.6677  1.3238  0.0455
  260MOL0     H35042  10.110   6.958   4.752  0.7136  2.1825  0.6302
  260MOL0     H35043  10.275   6.974   5.007  2.9842  1.1067 -0.8396
  260MOL0     H35044  10.298   7.084   4.865  0.1916 -0.5086 -0.3448
  260MOL0     H35045  10.097   7.200   4.891 -0.1240 -0.2889 -0.6694
  260MOL0     H35046  10.054   7.093   5.031  1.7829 -0.4085 -0.2005
  260MOL0     H35047  10.203   7.178   5.165 -3.9039 -0.2898  1.0681
  260MOL0     H35048  10.143   7.329   5.090 -2.4626 -0.2253 -1.7891
  260MOL0     H35049  10.407   7.186   5.064 -1.9716 -0.1821  3.0093
  260MOL0     H35050  10.345   7.286   4.928 -2.6131 -1.0731 -0.5129
  260MOL0     H35051  10.545   7.459   4.949 -0.7038  1.1388 -0.1885
  260MOL0     H35052  10.649   7.701   5.243 -1.2383 -1.1202  0.4610
  260MOL0     H35053  10.753   7.594   5.146 -0.9445 -1.3405 -0.0601
  260MOL0     H35054  10.698   7.829   5.056 -2.0393  1.6440  0.2510
  260MOL0     H35055  10.680   7.696   4.937 -1.8165  1.6415 -1.7680
  260MOL0     H35056  10.447   7.711   4.951  0.3930  0.1620 -1.2676
  260MOL0     H35057  10.517   7.862   4.909  2.3469 -0.2186  0.3864
  260MOL0     H35058  10.527   7.937   5.139  2.4789 -2.4259 -3.5209
  260MOL0     H35059  10.440   7.806   5.194  1.0492 -0.4040  0.7246
  260MOL0     H35060  10.283   7.658   5.146  0.4341  0.9267  2.1423
  260MOL0     H35061  10.082   7.560   5.190 -3.0438 -1.9146 -4.0907
  260MOL0     H35062   9.612   7.578   5.365 -4.5800  1.3631  0.2254
  260MOL0     H35063   9.376   7.514   5.335  0.8240 -0.9483 -0.8264
  260MOL0     H35064   9.238   7.393   4.937 -1.6537  0.3800 -1.2534
  260MOL0     H35065   9.259   7.230   5.026  1.6538  0.3494 -0.1715
  260MOL0     H35066   9.037   7.227   5.095  3.4073 -0.0696  1.5958
  260MOL0     H35067   9.025   7.408   5.056  1.0242  0.7511  1.9759
  260MOL0     H35068   9.026   7.374   4.819  0.8082 -0.3819 -1.6545
  260MOL0     H35069   9.076   7.210   4.832  1.7651 -0.1267  2.8345
  260MOL0     H35070   8.794   7.319   4.894 -0.8724  0.4669 -2.9005
  260MOL0     H35071   8.855   7.151   4.923  2.6026 -0.2623 -0.1813
  260MOL0     H35072   8.931   7.183   4.662 -2.2513 -3.2982 -1.5501
  260MOL0     H35073   8.801   7.311   4.684  0.8360 -0.3589 -1.7921
  260MOL0     H35074   8.760   7.080   4.588  1.3818  3.0214 -0.3442
  260MOL0     H35075   8.795   7.011   4.741  0.8412  0.2110 -0.4146
  260MOL0     H35076   8.590   7.220   4.680  3.1964  0.7125 -0.2176
  260MOL0     H35077   8.598   7.127   4.838  0.5946 -2.5472  0.1084
  260MOL0     H35078   8.534   7.015   4.550 -2.5821 -0.6986 -0.2320
  260MOL0     H35079   8.547   6.911   4.694  0.3459  0.8173  1.4562
  260MOL0     H35080   9.461   7.354   4.951  1.5382  0.4810 -0.9335
  260MOL0     H35081   9.692   7.417   4.976  0.0449  0.7475 -0.4633
  260MOL0     H35082   9.861   7.923   5.087  0.1186 -0.8152  1.3676
  260MOL0     H35083  10.079   8.040   5.060  0.2084 -0.6371 -0.0180
  260MOL0     H35084   9.609   6.631   4.858 -0.1442  0.4714  0.2434
  260MOL0     H35085   9.378   6.562   4.946  0.5903  0.3301 -0.6928
  260MOL0     H35086   9.022   6.303   5.027  3.7097  4.3584 -0.6563
  260MOL0     H35087   8.806   6.283   5.087  1.3203  0.4971 -0.2479
  260MOL0     H35088   8.697   6.176   5.301  0.2563  0.2272  3.2983
  260MOL0     H35089   8.602   6.265   5.183  2.2726 -0.6021 -0.8444
  260MOL0     H35090   8.508   6.201   5.481 -1.4068  0.7112  0.1366
  260MOL0     H35091   8.460   6.122   5.330 -1.1527 -0.1572  0.6188
  260MOL0     H35092   8.358   6.332   5.251  0.0729  1.1596 -0.6660
  260MOL0     H35093   8.406   6.412   5.410 -1.3812 -2.0972  2.9922
  260MOL0     H35094   8.268   6.232   5.534  1.0425 -3.4647 -0.8981
  260MOL0     H35095   8.186   6.362   5.442  0.4305  1.0540  1.0291
  260MOL0     H35096   8.112   5.987   5.235  3.0043  0.4759 -2.0746
  260MOL0     H35097   8.874   6.528   5.435 -1.1706  2.2248 -2.8010
  260MOL0     H35098   9.154   6.667   5.312 -3.1556  1.2117  0.1781
  260MOL0     H35099   9.061   6.655   5.445  1.8808  1.1434  1.0802
  260MOL0     H35100   9.202   6.535   5.425  0.3151  0.6621 -0.3490
  261MOL0     O35101   4.970   9.242   6.584  0.1171 -0.1060 -0.1642
  261MOL0     C35102   4.903   9.344   6.601 -0.0477  0.6609 -0.1270
  261MOL0     O35103   4.937   9.466   6.556 -0.0470 -0.1809 -0.0378
  261MOL0     C35104   5.044   9.475   6.471  0.4019 -0.3914 -1.0580
  261MOL0     C35105   5.152   9.554   6.518 -0.2053  0.0923  0.2406
  261MOL0     C35106   5.278   9.553   6.448  0.3908  0.4390 -0.1203
  261MOL0     C35107   5.293   9.491   6.326  0.4665 -0.3780 -0.1731
  261MOL0     O35108   5.395   9.525   6.241  0.6510  0.6211 -0.4798
  261MOL0     C35109   5.480   9.407   6.245 -0.3165 -0.5734  0.5378
  261MOL0     C35110   5.595   9.439   6.148  0.0541 -0.1402 -0.5173
  261MOL0     C35111   5.701   9.336   6.167 -0.9448  0.1300  0.6623
  261MOL0     C35112   5.831   9.380   6.095  0.1261 -0.2202  0.1762
  261MOL0     C35113   5.818   9.332   5.950 -0.2865  0.1410  0.4421
  261MOL0     C35114   5.903   9.418   5.857  0.2114  0.4178  0.1427
  261MOL0     C35115   5.898   9.356   5.721 -0.9020  0.2004  1.1765
  261MOL0     C35116   5.952   9.441   5.604 -0.1667  1.0504 -0.2637
  261MOL0     N35117   6.082   9.494   5.644 -0.9648 -0.2355 -0.4869
  261MOL0     C35118   6.196   9.421   5.658 -0.1561  0.4066 -0.0321
  261MOL0     C35119   6.291   9.520   5.672  0.1083  0.4512 -0.5284
  261MOL0     C35120   6.435   9.491   5.706 -0.7644 -0.1240 -0.0129
  261MOL0     C35121   6.517   9.540   5.588 -1.5582  0.4542 -0.2847
  261MOL0     C35122   6.669   9.530   5.628  0.4588  0.8976 -0.6290
  261MOL0     C35123   6.760   9.617   5.547  0.3718  0.4863  1.2017
  261MOL0     O35124   6.880   9.624   5.612 -0.6690  0.2720  0.4607
  261MOL0     C35125   6.972   9.726   5.583  0.1613  0.5277  0.9781
  261MOL0     C35126   6.953   9.821   5.482  0.3048  0.7102 -0.2129
  261MOL0     C35127   7.049   9.920   5.460  0.1855 -0.3251  0.0966
  261MOL0     C35128   7.165   9.931   5.542 -0.7725  0.0655  1.2688
  261MOL0     C35129   7.266  10.035   5.520 -0.1641 -0.8434 -0.0724
  261MOL0     O35130   7.221  10.131   5.428  0.3297 -0.3128  0.8125
  261MOL0     C35131   7.327  10.210   5.384  0.5113  0.5978  0.5021
  261MOL0     C35132   7.395  10.176   5.274  0.5448  0.3103  0.5269
  261MOL0     C35133   7.508  10.243   5.232  0.3092 -0.3534  0.1891
  261MOL0     C35134   7.544  10.369   5.292  0.3129 -0.1222  0.7986
  261MOL0     O35135   7.642  10.444   5.257 -0.4455 -0.2885 -0.9557
  261MOL0     C35136   7.734  10.415   5.150 -0.3764 -0.2476 -0.2308
  261MOL0     C35137   7.816  10.543   5.131 -0.0919  0.3211  0.1316
  261MOL0     C35138   7.865  10.562   4.981 -0.4445  0.1081  0.9958
  261MOL0     C35139   7.955  10.445   4.931  0.4197 -0.1606  0.3949
  261MOL0     C35140   7.987  10.476   4.787  0.6715 -0.4549  0.2691
  261MOL0     C35141   7.871  10.430   4.691 -1.0435 -1.6020 -0.6729
  261MOL0     C35142   7.893  10.281   4.674 -1.3390  0.4847 -0.0239
  261MOL0     C35143   7.772  10.208   4.625 -0.5688  0.3056 -1.0989
  261MOL0    Cl35144   7.789  10.028   4.620 -0.4217  0.2650 -0.1264
  261MOL0     C35145   7.470  10.414   5.402  0.9233 -0.5484  0.4428
  261MOL0     C35146   7.374  10.323   5.456  0.6803 -0.2134  0.0617
  261MOL0     O35147   7.376  10.034   5.571  0.0198  0.0456  0.7508
  261MOL0     C35148   7.188   9.830   5.635 -0.6891  0.1827 -1.2749
  261MOL0     C35149   7.095   9.731   5.655  0.1802  0.6815  0.4446
  261MOL0     N35150   6.233   9.648   5.656 -0.4699 -0.0868  0.2274
  261MOL0     N35151   6.110   9.626   5.632 -0.0615  0.1638 -0.0298
  261MOL0     C35152   5.190   9.411   6.277  0.1872 -0.2224 -0.0083
  261MOL0     C35153   5.066   9.402   6.349 -0.2491  0.1944  0.4581
  261MOL0     C35154   4.766   9.330   6.654  0.0394 -0.4160 -0.5889
  261MOL0     C35155   4.671   9.404   6.586  0.7544  0.2592 -0.5357
  261MOL0     C35156   4.541   9.404   6.629 -0.0284  0.4234  0.2910
  261MOL0     C35157   4.508   9.339   6.752  0.1594  0.3871  0.3890
  261MOL0     O35158   4.374   9.334   6.791 -0.3021  0.1240 -0.8379
  261MOL0     C35159   4.307   9.463   6.802  0.6245  0.2171  0.2647
  261MOL0     C35160   4.288   9.521   6.939  0.2110 -0.1025  0.9418
  261MOL0     C35161   4.259   9.428   7.055  0.3163 -0.4801 -0.8967
  261MOL0     C35162   4.361   9.435   7.165  0.6114 -0.0422 -0.2422
  261MOL0     C35163   4.375   9.574   7.218  0.2836 -0.1129 -1.1403
  261MOL0     C35164   4.398   9.687   7.258 -0.6970  0.2840  0.4131
  261MOL0     C35165   4.601   9.267   6.824 -0.8931  0.3234  0.6112
  261MOL0     C35166   4.726   9.254   6.769  0.4743  0.0232 -0.7695
  261MOL0     C35167   4.824   9.162   6.847  0.7038 -1.1710  0.8763
  261MOL0     H35168   5.145   9.608   6.612  2.4215  0.0415  0.5450
  261MOL0     H35169   5.369   9.603   6.480  1.3519 -1.1954 -0.1830
  261MOL0     H35170   5.514   9.389   6.347  2.9577  4.2877  0.6264
  261MOL0     H35171   5.420   9.325   6.203 -0.8529 -0.0662  0.2993
  261MOL0     H35172   5.642   9.529   6.190 -0.0079 -1.9678  4.1182
  261MOL0     H35173   5.559   9.458   6.046 -0.5989  2.4381  0.1087
  261MOL0     H35174   5.676   9.240   6.119  1.4519  0.9555 -2.6608
  261MOL0     H35175   5.732   9.331   6.272  0.5584  1.7095  0.3438
  261MOL0     H35176   5.830   9.490   6.098 -1.5742 -0.2279  0.5242
  261MOL0     H35177   5.913   9.331   6.148  0.0659  0.3527  0.8157
  261MOL0     H35178   5.839   9.225   5.948 -3.9575 -0.7060 -0.3092
  261MOL0     H35179   5.718   9.343   5.905 -0.4169  3.8225  1.2970
  261MOL0     H35180   5.860   9.518   5.850 -1.4725 -0.1522  1.6076
  261MOL0     H35181   6.005   9.430   5.894 -0.4697 -0.7414  2.6808
  261MOL0     H35182   5.795   9.331   5.693 -1.0970  0.8792  1.2736
  261MOL0     H35183   5.959   9.265   5.720  0.2752  0.9761 -0.0125
  261MOL0     H35184   5.957   9.370   5.521  2.8427 -1.0529  1.4871
  261MOL0     H35185   5.879   9.518   5.580  0.2894  1.7411  0.5201
  261MOL0     H35186   6.195   9.315   5.679 -1.0352  0.9322  3.0855
  261MOL0     H35187   6.467   9.546   5.796  2.8337  1.1259 -1.8186
  261MOL0     H35188   6.440   9.384   5.727  1.4686 -0.0547  0.1230
  261MOL0     H35189   6.489   9.499   5.490 -0.5142  0.1740 -0.4761
  261MOL0     H35190   6.493   9.647   5.579  1.2111  1.3434  1.5271
  261MOL0     H35191   6.701   9.427   5.611  1.3597  0.7867  1.3817
  261MOL0     H35192   6.686   9.546   5.735 -0.6030  2.1030 -0.6226
  261MOL0     H35193   6.698   9.707   5.548 -1.8987 -0.8947 -1.8407
  261MOL0     H35194   6.775   9.587   5.443  0.7393 -0.4735  1.5235
  261MOL0     H35195   6.866   9.815   5.418 -0.3636 -2.2998  0.7866
  261MOL0     H35196   7.020   9.999   5.392 -0.4115  0.4687  1.2288
  261MOL0     H35197   7.362  10.079   5.238 -2.9766  1.1746  1.0064
  261MOL0     H35198   7.574  10.203   5.156 -1.3052 -1.6407 -0.5852
  261MOL0     H35199   7.805  10.337   5.178  0.3393  1.0562  1.8168
  261MOL0     H35200   7.682  10.393   5.056  0.3993 -0.2247 -0.6759
  261MOL0     H35201   7.758  10.634   5.150  1.2098  1.0008  0.9119
  261MOL0     H35202   7.896  10.542   5.205  1.5056  1.6628 -1.4849
  261MOL0     H35203   7.786  10.577   4.907  0.9472 -0.7129 -0.7612
  261MOL0     H35204   7.922  10.654   4.965  1.0774 -1.1003 -1.0558
  261MOL0     H35205   7.915  10.344   4.926  0.8712 -0.2977 -0.9000
  261MOL0     H35206   8.047  10.451   4.989 -0.2529 -1.1675  1.6144
  261MOL0     H35207   8.076  10.415   4.770  1.8713  0.4793  2.7547
  261MOL0     H35208   8.013  10.582   4.780 -0.4765 -0.0849  1.2308
  261MOL0     H35209   7.779  10.467   4.736  0.7948  2.9708 -0.1592
  261MOL0     H35210   7.889  10.481   4.596 -0.8623  2.6320  1.4237
  261MOL0     H35211   7.931  10.232   4.765 -2.5373  0.9928  0.7771
  261MOL0     H35212   7.975  10.274   4.602 -0.2219 -1.2752  1.3467
  261MOL0     H35213   7.685  10.238   4.685  0.9942 -0.7452  1.9443
  261MOL0     H35214   7.754  10.240   4.523  1.0322  0.4516 -1.3600
  261MOL0     H35215   7.484  10.503   5.462 -1.0251 -0.6811  1.1656
  261MOL0     H35216   7.317  10.351   5.544  2.2026  2.4119  0.3223
  261MOL0     H35217   7.271   9.833   5.705 -0.7543 -1.8788 -1.0484
  261MOL0     H35218   7.109   9.643   5.716 -0.4221 -1.1524 -1.9178
  261MOL0     H35219   5.195   9.355   6.184  1.6615 -0.4704  0.1884
  261MOL0     H35220   4.992   9.341   6.296  1.2477 -1.8007  0.5255
  261MOL0     H35221   4.687   9.476   6.507  0.1859  1.7416  0.6304
  261MOL0     H35222   4.463   9.458   6.577 -0.7903  0.5671  1.5468
  261MOL0     H35223   4.208   9.441   6.763 -0.1391  2.1118  1.0071
  261MOL0     H35224   4.353   9.541   6.740 -2.1661  3.4073  1.8669
  261MOL0     H35225   4.205   9.592   6.940 -0.0888 -0.4163 -0.2034
  261MOL0     H35226   4.377   9.582   6.960  0.3326 -0.3933  1.2930
  261MOL0     H35227   4.256   9.322   7.026  2.2231 -1.0800  0.8616
  261MOL0     H35228   4.168   9.459   7.107  0.9177  1.3603 -0.8752
  261MOL0     H35229   4.320   9.383   7.252 -4.4767  0.6341 -1.9078
  261MOL0     H35230   4.459   9.400   7.133  2.0072  4.0605 -1.0236
  261MOL0     H35231   4.420   9.788   7.287  2.1497  0.1272 -0.8730
  261MOL0     H35232   4.566   9.222   6.917 -0.5684  0.5415  0.8425
  261MOL0     H35233   4.846   9.075   6.786  1.4852 -0.0848 -0.4559
  261MOL0     H35234   4.917   9.220   6.854  1.5562 -2.3523 -0.2523
  261MOL0     H35235   4.789   9.133   6.947 -0.2326  0.4128  1.0448
  262MOL0     O35236   6.872   6.113   9.814  0.2434  0.7727  0.5303
  262MOL0     C35237   6.850   6.231   9.803  0.4369  0.5376  0.6705
  262MOL0     O35238   6.939   6.333   9.807 -0.0800  0.3595 -0.3761
  262MOL0     C35239   7.068   6.291   9.809 -0.0378  0.0473  0.0894
  262MOL0     C35240   7.142   6.327   9.928  0.0103 -0.0987 -0.2294
  262MOL0     C35241   7.276   6.287   9.944  0.1568  0.6705  1.1519
  262MOL0     C35242   7.343   6.220   9.835  0.2073 -0.6632  0.2943
  262MOL0     O35243   7.477   6.192   9.855  0.6221 -0.4563  0.4595
  262MOL0     C35244   7.570   6.242   9.757  0.0420  0.6393 -0.1974
  262MOL0     C35245   7.697   6.264   9.828 -0.1132 -0.0945 -0.0571
  262MOL0     C35246   7.759   6.147   9.893  1.4798  0.7643  0.1349
  262MOL0     C35247   7.879   6.167   9.995  0.3286 -0.5181  0.8115
  262MOL0     C35248   7.972   6.048   9.977  0.4010 -0.1139 -0.0602
  262MOL0     C35249   8.093   6.077  10.063 -0.1259 -0.0380  0.1228
  262MOL0     C35250   8.194   5.965  10.054  0.2443 -0.4020  0.3991
  262MOL0     C35251   8.311   5.994  10.153 -0.6537  0.4373  0.1117
  262MOL0     N35252   8.391   5.866  10.171  0.4627  0.6819 -0.6448
  262MOL0     C35253   8.405   5.810  10.298  0.1069 -0.2790 -0.2640
  262MOL0     C35254   8.524   5.746  10.297 -0.3652 -0.2407  0.5605
  262MOL0     C35255   8.598   5.683  10.416  0.9896  0.8003  0.8697
  262MOL0     C35256   8.715   5.772  10.452 -0.0412 -0.4658 -0.1650
  262MOL0     C35257   8.749   5.780  10.604  0.1584  0.4347 -0.6877
  262MOL0     C35258   8.893   5.830  10.628 -0.8533 -0.2894 -0.0790
  262MOL0     O35259   8.894   5.860  10.765  0.1454  0.3871  0.2284
  262MOL0     C35260   9.004   5.906  10.835  0.2909  0.1296 -0.0972
  262MOL0     C35261   9.113   5.973  10.776  0.6670  0.1570 -0.7671
  262MOL0     C35262   9.219   6.019  10.847 -0.5388 -0.5024 -0.4731
  262MOL0     C35263   9.210   6.018  10.991  1.1260  0.9240  0.6660
  262MOL0     C35264   9.304   6.092  11.075 -0.0904  0.2971  0.3078
  262MOL0     O35265   9.279   6.109  11.211  0.2235 -0.0214  0.4515
  262MOL0     C35266   9.367   6.177  11.284  0.1144 -0.7025 -0.2725
  262MOL0     C35267   9.428   6.302  11.253  0.0746  0.1647  0.7646
  262MOL0     C35268   9.518   6.359  11.344 -0.0033  0.2212  0.1351
  262MOL0     C35269   9.579   6.282  11.449 -0.5027 -0.1358 -0.4507
  262MOL0     O35270   9.680   6.345  11.530  0.4890 -0.3936 -0.0763
  262MOL0     C35271   9.690   6.288  11.667 -0.0078  0.3085  0.2584
  262MOL0     C35272   9.806   6.344  11.728 -0.4599  0.0578  0.6298
  262MOL0     C35273   9.943   6.302  11.668 -0.3379  0.0895  0.5620
  262MOL0     C35274  10.054   6.376  11.748  1.3936 -0.2788 -0.9177
  262MOL0     C35275  10.194   6.332  11.713 -0.1382 -0.5366 -0.2217
  262MOL0     C35276  10.306   6.402  11.797  0.6266  0.4877  0.8641
  262MOL0     C35277  10.444   6.361  11.736 -0.3463 -0.2126 -0.1234
  262MOL0     C35278  10.548   6.469  11.779  0.2403 -0.1583  0.4347
  262MOL0    Cl35279  10.713   6.423  11.734  0.1053  0.3424 -0.0607
  262MOL0     C35280   9.535   6.151  11.464 -0.4489  0.4292  0.3230
  262MOL0     C35281   9.426   6.109  11.387 -0.1622 -0.2866  0.5026
  262MOL0     O35282   9.410   6.119  11.018  0.7035 -0.4725 -0.0162
  262MOL0     C35283   9.101   5.957  11.050 -0.0041  0.3964  0.1730
  262MOL0     C35284   9.000   5.900  10.974 -0.2525  0.9602 -0.3838
  262MOL0     N35285   8.582   5.759  10.170  0.6300 -0.3292 -0.1434
  262MOL0     N35286   8.497   5.823  10.093  0.1415 -0.3900  0.0343
  262MOL0     C35287   7.270   6.193   9.715 -0.2714  0.3729  0.1069
  262MOL0     C35288   7.141   6.233   9.698  0.2451 -1.3490 -0.5629
  262MOL0     C35289   6.707   6.276   9.780  0.1902 -0.6252 -0.1318
  262MOL0     C35290   6.688   6.410   9.736  0.0831  0.7350 -0.0513
  262MOL0     C35291   6.559   6.468   9.729  0.4970  0.0349  0.8665
  262MOL0     C35292   6.450   6.382   9.756  0.8025 -0.7779 -0.2063
  262MOL0     O35293   6.327   6.417   9.721  0.9937  0.6159  0.2046
  262MOL0     C35294   6.281   6.544   9.702 -0.0741  0.4680  0.5891
  262MOL0     C35295   6.133   6.538   9.689  0.2353 -0.4538 -0.1367
  262MOL0     C35296   6.069   6.506   9.833  1.5048 -0.0835  0.0162
  262MOL0     C35297   5.988   6.375   9.802  1.6092  1.0394 -0.5367
  262MOL0     C35298   5.866   6.421   9.738 -1.0842  1.0439 -0.2521
  262MOL0     C35299   5.771   6.454   9.670  0.3203 -0.8708  1.1156
  262MOL0     C35300   6.471   6.259   9.801 -0.1734 -0.3552 -0.2271
  262MOL0     C35301   6.594   6.200   9.819  0.0947 -0.2647 -0.8970
  262MOL0     C35302   6.596   6.069   9.901  0.1228  0.3778 -0.3587
  262MOL0     H35303   7.086   6.374  10.008 -2.6322 -1.3343 -1.2188
  262MOL0     H35304   7.330   6.316  10.033  0.6066 -0.6970  1.3595
  262MOL0     H35305   7.595   6.166   9.682 -1.9816  1.9148 -2.3273
  262MOL0     H35306   7.538   6.331   9.702  1.4423  0.0540 -2.0738
  262MOL0     H35307   7.699   6.342   9.904  3.1582  1.9342 -1.9832
  262MOL0     H35308   7.754   6.308   9.746 -1.2663  1.2230 -0.1797
  262MOL0     H35309   7.782   6.086   9.804 -4.5555  0.8840 -1.9612
  262MOL0     H35310   7.680   6.089   9.941  1.8469 -0.5798 -0.8029
  262MOL0     H35311   7.938   6.251   9.958 -0.6748 -1.1963 -2.7413
  262MOL0     H35312   7.839   6.191  10.094 -1.5645 -1.9079  0.4460
  262MOL0     H35313   7.917   5.958  10.006  0.6400 -0.6707 -1.2967
  262MOL0     H35314   7.992   6.045   9.870 -0.5713  3.4070 -0.4755
  262MOL0     H35315   8.140   6.165  10.019  0.5112 -0.8614 -0.9157
  262MOL0     H35316   8.056   6.106  10.161  1.5168 -3.1994  1.8262
  262MOL0     H35317   8.227   5.963   9.950  2.6303  0.8714  1.0632
  262MOL0     H35318   8.151   5.865  10.069 -2.2317  0.7812  1.8472
  262MOL0     H35319   8.381   6.066  10.111  0.4966 -1.1528 -0.7887
  262MOL0     H35320   8.272   6.040  10.244 -1.0157 -3.4080  2.1182
  262MOL0     H35321   8.343   5.825  10.386 -1.2721 -0.5558 -1.1622
  262MOL0     H35322   8.529   5.692  10.500  0.4368 -2.6682  0.9309
  262MOL0     H35323   8.623   5.578  10.399  0.3025  0.9894 -1.6041
  262MOL0     H35324   8.804   5.727  10.408  1.4313  0.4707  1.7353
  262MOL0     H35325   8.696   5.875  10.419 -0.3443 -0.8937 -1.3876
  262MOL0     H35326   8.732   5.689  10.662 -0.9552  1.4838  0.6892
  262MOL0     H35327   8.670   5.845  10.643 -2.6615 -2.7411 -0.6374
  262MOL0     H35328   8.920   5.920  10.571  1.3763  0.7387  2.3606
  262MOL0     H35329   8.961   5.748  10.602 -2.1052 -0.6968 -2.2326
  262MOL0     H35330   9.098   6.000  10.672 -0.2298  0.1298 -0.6501
  262MOL0     H35331   9.304   6.076  10.811 -1.8077  2.0019  0.2989
  262MOL0     H35332   9.382   6.369  11.181 -0.3218 -0.5813  0.3206
  262MOL0     H35333   9.550   6.461  11.329 -0.3382  0.6844  2.2329
  262MOL0     H35334   9.606   6.323  11.728 -1.5340 -0.3258 -1.3849
  262MOL0     H35335   9.693   6.179  11.663 -0.3583  0.3131 -2.1975
  262MOL0     H35336   9.805   6.454  11.727 -1.6203  0.1011 -2.0726
  262MOL0     H35337   9.808   6.302  11.829 -2.0480  0.8764  1.0332
  262MOL0     H35338   9.969   6.196  11.666  0.4561  0.1830  2.9291
  262MOL0     H35339   9.950   6.345  11.567  0.2929 -0.2569  0.4476
  262MOL0     H35340  10.042   6.352  11.854  1.6213 -0.2857 -0.8915
  262MOL0     H35341  10.038   6.483  11.736  0.2764  0.0299  2.4760
  262MOL0     H35342  10.218   6.352  11.608 -0.5274  2.9212  0.2213
  262MOL0     H35343  10.198   6.224  11.728  1.0295 -0.3282  1.2116
  262MOL0     H35344  10.288   6.509  11.781  0.0236  0.2740  0.0158
  262MOL0     H35345  10.285   6.382  11.902 -1.5551  1.9641  0.7855
  262MOL0     H35346  10.431   6.368  11.628  0.7901  2.4256 -0.1609
  262MOL0     H35347  10.461   6.262  11.779  0.5176  0.5402  1.3886
  262MOL0     H35348  10.536   6.565  11.728  2.2558 -1.6119 -3.0982
  262MOL0     H35349  10.547   6.473  11.888  0.8404 -0.1632  0.4450
  262MOL0     H35350   9.566   6.075  11.534  3.2899 -0.4070 -1.9566
  262MOL0     H35351   9.389   6.010  11.411 -1.3075 -0.0623 -0.2320
  262MOL0     H35352   9.076   5.956  11.156  0.6013  1.5473  0.3315
  262MOL0     H35353   8.911   5.849  11.010 -0.5062  1.8482  0.2785
  262MOL0     H35354   7.333   6.146   9.641 -0.4129  2.3167 -1.3229
  262MOL0     H35355   7.086   6.208   9.607 -0.3047 -1.6669 -0.1488
  262MOL0     H35356   6.767   6.477   9.702  0.4578  1.3178  1.8574
  262MOL0     H35357   6.558   6.572   9.699 -1.0147 -0.8799 -2.7566
  262MOL0     H35358   6.317   6.594   9.612 -0.5864  0.2733  0.2724
  262MOL0     H35359   6.313   6.603   9.789  0.5263 -2.1040  2.2050
  262MOL0     H35360   6.115   6.458   9.617  0.6157 -0.4626 -0.2258
  262MOL0     H35361   6.102   6.628   9.635  2.7401 -0.2696 -1.4262
  262MOL0     H35362   5.990   6.574   9.866 -1.5931 -2.6884 -1.5089
  262MOL0     H35363   6.136   6.499   9.920 -1.0441  0.7974  2.1766
  262MOL0     H35364   6.042   6.308   9.735  0.9472  0.0880 -0.1472
  262MOL0     H35365   5.968   6.321   9.895  2.2515 -0.7224 -1.3713
  262MOL0     H35366   5.706   6.474   9.587  3.6398 -1.7389 -2.0147
  262MOL0     H35367   6.379   6.205   9.823 -1.7989  1.6721 -1.7675
  262MOL0     H35368   6.501   6.015   9.905  0.7943 -0.9058 -1.1027
  262MOL0     H35369   6.656   5.994   9.847  1.3060  0.7753  0.3739
  262MOL0     H35370   6.632   6.070  10.005 -0.7793 -2.4951  0.0933
  263MOL0     O35371   2.904   8.316   0.592  0.2221  0.1845 -0.8374
  263MOL0     C35372   2.954   8.234   0.674 -0.3550 -0.0400 -0.3294
  263MOL0     O35373   3.089   8.224   0.717  0.4577 -0.2330 -0.3210
  263MOL0     C35374   3.178   8.294   0.636  0.7828  0.5888 -0.3355
  263MOL0     C35375   3.284   8.356   0.706 -0.1020  0.0055 -0.8475
  263MOL0     C35376   3.378   8.427   0.631 -0.3885  0.0761  0.7902
  263MOL0     C35377   3.375   8.428   0.488  0.3342 -0.4601 -1.1083
  263MOL0     O35378   3.477   8.485   0.421  0.5612 -0.0091 -0.3962
  263MOL0     C35379   3.609   8.462   0.469 -0.1545 -0.0611 -0.7408
  263MOL0     C35380   3.698   8.425   0.352 -0.0609 -0.2753 -0.0492
  263MOL0     C35381   3.722   8.537   0.255  0.3230 -0.7719  0.2020
  263MOL0     C35382   3.776   8.473   0.130 -0.7559 -0.3141  0.4087
  263MOL0     C35383   3.788   8.582   0.025 -0.9526 -0.3530  0.5966
  263MOL0     C35384   3.911   8.682   0.041  0.6761 -0.1322 -0.3592
  263MOL0     C35385   3.923   8.755  -0.088  0.2693 -0.0463  0.1063
  263MOL0     C35386   3.792   8.822  -0.142  0.6273 -0.7870  0.3981
  263MOL0     N35387   3.816   8.873  -0.286  0.3743  0.8196 -0.7606
  263MOL0     C35388   3.905   8.968  -0.329 -0.4133  0.0579  0.8525
  263MOL0     C35389   3.890   8.961  -0.463 -0.2796 -0.2176 -0.4964
  263MOL0     C35390   3.964   9.053  -0.551  0.4005  0.2713  0.2418
  263MOL0     C35391   3.871   9.100  -0.660 -1.1381 -0.1798 -0.7002
  263MOL0     C35392   3.762   9.191  -0.602  0.5049 -0.0520  0.6622
  263MOL0     C35393   3.810   9.321  -0.529 -1.3905  0.8453 -0.3057
  263MOL0     O35394   3.861   9.405  -0.633  0.6451 -0.7170 -0.3655
  263MOL0     C35395   3.963   9.492  -0.590 -0.0312 -0.2474 -0.5680
  263MOL0     C35396   4.055   9.468  -0.484  0.5583 -0.1155 -0.2424
  263MOL0     C35397   4.141   9.574  -0.447  0.6781  0.7405  0.5786
  263MOL0     C35398   4.162   9.688  -0.522  0.1979 -0.0875  0.5052
  263MOL0     C35399   4.267   9.782  -0.472 -0.4807  0.4291  0.1890
  263MOL0     O35400   4.276   9.908  -0.520  0.2758  0.5639 -0.2022
  263MOL0     C35401   4.367   9.997  -0.463 -0.0628  0.4893 -0.1252
  263MOL0     C35402   4.353  10.025  -0.325 -0.3847  0.7764  0.3285
  263MOL0     C35403   4.416  10.145  -0.286  0.3039  0.3828 -0.5079
  263MOL0     C35404   4.484  10.229  -0.370  0.1619  0.0762  0.3078
  263MOL0     O35405   4.541  10.347  -0.319  0.3483 -0.2271  0.5292
  263MOL0     C35406   4.683  10.350  -0.320 -0.5608 -0.7943  0.9214
  263MOL0     C35407   4.721  10.492  -0.267  0.4983 -0.3446 -0.5079
  263MOL0     C35408   4.862  10.492  -0.191 -0.4939 -0.1191  0.5256
  263MOL0     C35409   4.913  10.635  -0.154 -0.9482  0.7916  0.2030
  263MOL0     C35410   5.068  10.625  -0.126 -0.3152  0.2816 -0.9986
  263MOL0     C35411   5.114  10.759  -0.065  0.0338  0.5126 -0.1769
  263MOL0     C35412   5.067  10.879  -0.148  0.2860 -0.3724 -0.1617
  263MOL0     C35413   5.151  11.005  -0.123  0.3912  0.5742 -0.2973
  263MOL0    Cl35414   5.142  11.035   0.046  0.0598  0.2045 -0.1292
  263MOL0     C35415   4.499  10.181  -0.498  0.2361 -0.1503 -1.0737
  263MOL0     C35416   4.433  10.076  -0.553 -1.2358  0.4657 -0.6245
  263MOL0     O35417   4.337   9.733  -0.382 -0.7544 -0.6184 -0.4401
  263MOL0     C35418   4.081   9.707  -0.636  1.0141 -0.4019 -0.4029
  263MOL0     C35419   3.985   9.605  -0.669  0.1961  0.5137 -0.4568
  263MOL0     N35420   3.801   8.862  -0.496 -0.4442  0.6069  1.1035
  263MOL0     N35421   3.748   8.817  -0.391  0.7946  0.4315  0.3390
  263MOL0     C35422   3.287   8.350   0.415  0.7687  0.3870 -0.7883
  263MOL0     C35423   3.180   8.280   0.493 -1.0244  0.0347  0.5896
  263MOL0     C35424   2.855   8.148   0.742 -0.1631  1.6745  0.0056
  263MOL0     C35425   2.868   8.127   0.881 -0.4332  0.0188  0.0207
  263MOL0     C35426   2.777   8.055   0.958 -0.4682  0.3055  0.5876
  263MOL0     C35427   2.683   7.980   0.899  0.2408 -0.4794  0.2419
  263MOL0     O35428   2.592   7.902   0.962 -0.2096  0.4208 -0.8761
  263MOL0     C35429   2.584   7.900   1.102 -0.6327 -0.1489 -0.5044
  263MOL0     C35430   2.474   7.795   1.136 -0.6777 -0.1652  0.3209
  263MOL0     C35431   2.416   7.814   1.274  0.4748  0.5994 -0.6816
  263MOL0     C35432   2.278   7.750   1.304  0.7728  0.6302  0.3900
  263MOL0     C35433   2.295   7.612   1.358  0.7504  0.6236  0.2359
  263MOL0     C35434   2.318   7.506   1.397  0.4677 -0.3908  0.3312
  263MOL0     C35435   2.672   7.988   0.759 -0.4359 -0.1613  0.7201
  263MOL0     C35436   2.756   8.064   0.679  0.0656 -0.9963 -0.3129
  263MOL0     C35437   2.740   8.065   0.528 -0.1511  0.3722 -0.0122
  263MOL0     H35438   3.283   8.348   0.815  4.4746  3.4288 -0.2646
  263MOL0     H35439   3.461   8.462   0.693 -1.2854  3.3554  0.3475
  263MOL0     H35440   3.643   8.553   0.520  1.6959 -1.1984  0.1457
  263MOL0     H35441   3.621   8.382   0.543  2.0310  2.5774  2.0323
  263MOL0     H35442   3.642   8.341   0.309  0.1158 -0.7210  0.5786
  263MOL0     H35443   3.792   8.391   0.395  0.1970 -0.4240 -0.7154
  263MOL0     H35444   3.787   8.611   0.303 -0.0510 -0.6946  0.5888
  263MOL0     H35445   3.623   8.581   0.243  1.0899  0.9457 -0.2427
  263MOL0     H35446   3.876   8.432   0.144 -0.8871 -0.4191  1.0627
  263MOL0     H35447   3.712   8.389   0.100  0.3970 -1.9886  2.3808
  263MOL0     H35448   3.801   8.541  -0.076 -0.4634  0.5780  0.2734
  263MOL0     H35449   3.690   8.629   0.028 -1.5127 -1.5550  1.9058
  263MOL0     H35450   3.894   8.752   0.123  0.9366  0.1724 -0.5650
  263MOL0     H35451   4.006   8.632   0.065  0.6685  0.4406  0.9568
  263MOL0     H35452   3.961   8.688  -0.166 -1.0679  1.7537 -2.2090
  263MOL0     H35453   3.998   8.835  -0.084  0.2843 -0.0926  1.0839
  263MOL0     H35454   3.712   8.748  -0.137 -0.4539  0.4066  1.7223
  263MOL0     H35455   3.751   8.901  -0.078  0.5857 -0.5710  0.1118
  263MOL0     H35456   3.969   9.032  -0.269 -0.7745  0.4254  0.8429
  263MOL0     H35457   4.014   9.135  -0.499 -0.7110  1.1232  0.0224
  263MOL0     H35458   4.046   8.995  -0.593 -0.0256 -2.4657  2.8720
  263MOL0     H35459   3.937   9.155  -0.728 -0.1666 -1.8235 -1.1176
  263MOL0     H35460   3.829   9.011  -0.708 -3.7412 -0.9619  2.6480
  263MOL0     H35461   3.695   9.129  -0.542 -1.0509  2.0013  1.1713
  263MOL0     H35462   3.698   9.226  -0.684  0.1803 -1.4072  0.3142
  263MOL0     H35463   3.885   9.278  -0.462 -1.1418  0.5352 -0.7794
  263MOL0     H35464   3.730   9.369  -0.471 -1.9747 -1.2628  0.7473
  263MOL0     H35465   4.065   9.375  -0.429 -1.1001 -0.7810 -0.9934
  263MOL0     H35466   4.202   9.572  -0.356 -0.1789  1.2227  1.1775
  263MOL0     H35467   4.295   9.968  -0.253  1.8647 -2.1812  0.0145
  263MOL0     H35468   4.389  10.180  -0.187 -2.0799  2.0357 -1.6675
  263MOL0     H35469   4.739  10.276  -0.261  2.2761  0.6265  0.1876
  263MOL0     H35470   4.715  10.336  -0.424  0.5777  0.9679  1.0021
  263MOL0     H35471   4.725  10.572  -0.341 -3.4099  0.9733  0.4475
  263MOL0     H35472   4.640  10.521  -0.198 -1.0442 -4.8489 -0.0670
  263MOL0     H35473   4.845  10.436  -0.099 -4.5360 -0.4193 -0.2185
  263MOL0     H35474   4.940  10.452  -0.257 -1.9431  1.5162 -2.4035
  263MOL0     H35475   4.860  10.675  -0.067 -0.4483  2.3720 -0.1741
  263MOL0     H35476   4.893  10.694  -0.245  3.3505  0.3777 -1.2338
  263MOL0     H35477   5.118  10.595  -0.218 -0.9607  0.7119 -1.5022
  263MOL0     H35478   5.080  10.540  -0.058  0.1465  0.4975 -0.8058
  263MOL0     H35479   5.077  10.756   0.038 -0.3894  0.2032 -0.3325
  263MOL0     H35480   5.223  10.749  -0.056  0.0120  0.8757  0.5306
  263MOL0     H35481   4.964  10.910  -0.128  0.4961 -0.3795  0.9865
  263MOL0     H35482   5.077  10.849  -0.253  0.5116 -1.0321  0.0410
  263MOL0     H35483   5.251  10.977  -0.157  0.5724 -2.4480  2.2641
  263MOL0     H35484   5.119  11.094  -0.179  3.3772  2.7305  1.2044
  263MOL0     H35485   4.557  10.239  -0.569 -1.5531  0.3893 -2.1630
  263MOL0     H35486   4.435  10.053  -0.659  0.9464  1.1622 -0.7834
  263MOL0     H35487   4.087   9.786  -0.709 -4.8477  1.3367  0.4840
  263MOL0     H35488   3.925   9.610  -0.759 -1.2148  0.1178  0.4259
  263MOL0     H35489   3.295   8.337   0.307  3.4424 -0.3706 -0.5679
  263MOL0     H35490   3.116   8.207   0.446  0.1041 -0.0504 -0.8998
  263MOL0     H35491   2.934   8.198   0.929 -0.4896 -0.6114  1.0679
  263MOL0     H35492   2.782   8.049   1.067  2.2642  4.8390  0.9921
  263MOL0     H35493   2.556   8.004   1.123  1.4835  0.3522  0.0783
  263MOL0     H35494   2.675   7.878   1.159  0.4316 -1.4364 -2.5743
  263MOL0     H35495   2.521   7.696   1.136 -2.4262 -1.1213 -2.4832
  263MOL0     H35496   2.387   7.803   1.069 -0.4702  0.9498  0.1651
  263MOL0     H35497   2.411   7.921   1.294 -2.6401  0.5071 -0.5799
  263MOL0     H35498   2.486   7.777   1.350  3.5909  2.5567 -2.3870
  263MOL0     H35499   2.240   7.816   1.383  0.6099 -0.8176  1.5658
  263MOL0     H35500   2.215   7.757   1.214 -1.8507  1.7910  2.1742
  263MOL0     H35501   2.350   7.407   1.422 -0.2315 -0.5029  0.8256
  263MOL0     H35502   2.600   7.920   0.716 -0.8080  0.9169 -0.4221
  263MOL0     H35503   2.667   8.145   0.511  0.9997  0.8986 -3.0636
  263MOL0     H35504   2.825   8.107   0.473 -1.8137  2.2985 -1.2849
  263MOL0     H35505   2.717   7.963   0.497  3.1390 -1.4791  2.8511
  264MOL0     O35506   4.537   2.261   7.108  0.1727 -0.4656 -0.5652
  264MOL0     C35507   4.432   2.288   7.046 -0.2786 -0.1044 -0.5281
  264MOL0     O35508   4.428   2.352   6.925 -0.5332 -0.6013 -0.0612
  264MOL0     C35509   4.545   2.351   6.854 -1.0808  1.3102  0.4523
  264MOL0     C35510   4.604   2.468   6.808 -0.1020  0.4059 -0.0589
  264MOL0     C35511   4.717   2.460   6.725 -0.4022 -0.1562 -0.0574
  264MOL0     C35512   4.763   2.335   6.681 -0.6796  0.2477 -0.2800
  264MOL0     O35513   4.867   2.312   6.589  0.4099 -0.0557 -0.5902
  264MOL0     C35514   4.906   2.414   6.508  0.4045 -0.9696  0.3354
  264MOL0     C35515   5.020   2.364   6.428  0.5705 -0.0611 -0.6457
  264MOL0     C35516   5.039   2.424   6.290 -0.2743 -0.0846  0.1223
  264MOL0     C35517   5.181   2.397   6.240 -0.0560  0.8772 -0.4618
  264MOL0     C35518   5.217   2.481   6.117 -0.9193 -0.1123 -0.5025
  264MOL0     C35519   5.352   2.428   6.055  0.0153 -0.7040  0.9883
  264MOL0     C35520   5.468   2.428   6.153 -0.4088  0.6416 -0.3612
  264MOL0     C35521   5.486   2.547   6.255 -0.7498 -0.9777  0.5085
  264MOL0     N35522   5.546   2.664   6.184 -0.2066 -0.7923 -0.3211
  264MOL0     C35523   5.678   2.677   6.161  0.3965 -0.2792  0.0210
  264MOL0     C35524   5.701   2.808   6.149  0.1041 -0.2389  0.3593
  264MOL0     C35525   5.834   2.880   6.135 -0.4113 -0.7363  0.4856
  264MOL0     C35526   5.929   2.823   6.250 -0.4366 -0.1828  0.3644
  264MOL0     C35527   5.873   2.862   6.380 -0.7287  0.0994 -0.2388
  264MOL0     C35528   5.971   2.816   6.491  0.2877 -0.0946  0.9860
  264MOL0     O35529   6.088   2.896   6.501 -0.6414 -0.3354 -0.4014
  264MOL0     C35530   6.110   2.995   6.597  0.2670  1.1059 -0.1312
  264MOL0     C35531   6.045   3.005   6.723  0.0859  0.2309 -0.3104
  264MOL0     C35532   6.088   3.091   6.826 -0.3234  0.4894  0.4193
  264MOL0     C35533   6.193   3.177   6.805  0.1428  0.0706  0.9686
  264MOL0     C35534   6.240   3.285   6.896  0.6078  0.1910 -0.0353
  264MOL0     O35535   6.155   3.318   6.998  0.0815  0.1421 -0.0108
  264MOL0     C35536   6.202   3.390   7.101  0.7647  0.4830 -0.7536
  264MOL0     C35537   6.128   3.493   7.164  0.1636  0.8476 -0.0018
  264MOL0     C35538   6.170   3.555   7.278 -0.7214 -0.0766  0.5792
  264MOL0     C35539   6.299   3.531   7.330 -1.0722 -0.3549  0.3250
  264MOL0     O35540   6.355   3.608   7.429  0.6509  0.1324 -0.1498
  264MOL0     C35541   6.487   3.576   7.479 -0.4141 -0.4395  2.1526
  264MOL0     C35542   6.518   3.665   7.603  0.5367  0.2685 -0.8296
  264MOL0     C35543   6.637   3.612   7.686 -0.2978 -0.0032 -0.4630
  264MOL0     C35544   6.666   3.686   7.823  0.8811  0.2494 -0.6921
  264MOL0     C35545   6.783   3.627   7.900 -0.3979  0.1460  0.1941
  264MOL0     C35546   6.901   3.631   7.816 -0.0705  0.6384  0.4771
  264MOL0     C35547   7.028   3.597   7.901  1.0035 -0.1447  0.3282
  264MOL0     C35548   7.145   3.671   7.846 -0.5185 -0.6250 -0.0431
  264MOL0    Cl35549   7.272   3.680   7.961  0.2899 -0.1706 -0.0388
  264MOL0     C35550   6.381   3.429   7.265  0.9888 -0.1522 -0.6753
  264MOL0     C35551   6.325   3.348   7.167  0.0679 -0.2176  0.0383
  264MOL0     O35552   6.348   3.341   6.877 -0.5088 -0.4028  0.7201
  264MOL0     C35553   6.256   3.177   6.678 -0.3734  0.9112  0.0290
  264MOL0     C35554   6.215   3.080   6.582 -1.0754 -0.4073 -0.1408
  264MOL0     N35555   5.588   2.878   6.167 -0.8520  0.4923  0.6093
  264MOL0     N35556   5.491   2.790   6.184 -0.0680 -0.4359 -0.6129
  264MOL0     C35557   4.698   2.218   6.719 -0.1364  0.0035  0.3023
  264MOL0     C35558   4.594   2.226   6.810  0.9614  0.0526 -0.0618
  264MOL0     C35559   4.296   2.260   7.110  1.1088  0.9307 -0.0223
  264MOL0     C35560   4.194   2.351   7.090  0.7851 -0.3120  0.0791
  264MOL0     C35561   4.067   2.346   7.147  0.1260  0.2577  0.1075
  264MOL0     C35562   4.036   2.239   7.214 -0.0162 -0.5994  0.2764
  264MOL0     O35563   3.912   2.235   7.272  0.4260 -0.2205 -0.3091
  264MOL0     C35564   3.879   2.130   7.367 -0.3314  0.6633 -0.1734
  264MOL0     C35565   3.751   2.163   7.433  0.0496 -0.0478  0.0350
  264MOL0     C35566   3.759   2.304   7.515 -1.2074  0.1311 -0.7097
  264MOL0     C35567   3.660   2.304   7.639 -0.2046 -0.1327 -0.8194
  264MOL0     C35568   3.541   2.353   7.587 -0.2344 -1.2355  0.1628
  264MOL0     C35569   3.460   2.405   7.514  0.1785  0.3755 -0.7872
  264MOL0     C35570   4.134   2.129   7.228  0.0238 -0.5642  0.5732
  264MOL0     C35571   4.261   2.140   7.170 -0.1969 -0.0494 -1.5306
  264MOL0     C35572   4.358   2.031   7.182  1.3024 -0.3041  0.4610
  264MOL0     H35573   4.554   2.555   6.849 -0.0692 -0.7738  2.7217
  264MOL0     H35574   4.765   2.543   6.673  0.3241 -1.3411 -1.3485
  264MOL0     H35575   4.824   2.448   6.444  0.5052 -1.6731 -0.1780
  264MOL0     H35576   4.941   2.499   6.567 -1.4400  1.0861 -1.3183
  264MOL0     H35577   5.004   2.256   6.418  1.3055 -0.0964 -1.6784
  264MOL0     H35578   5.107   2.381   6.492  1.3590 -1.6545 -1.2220
  264MOL0     H35579   5.041   2.533   6.293 -1.9008  0.0089 -1.1235
  264MOL0     H35580   4.964   2.384   6.222 -0.1704 -0.4556  0.2202
  264MOL0     H35581   5.259   2.416   6.315  0.0773 -0.3388 -0.2618
  264MOL0     H35582   5.187   2.290   6.216  4.6042  0.7325  0.3160
  264MOL0     H35583   5.136   2.468   6.044 -0.8573 -1.5371 -0.3473
  264MOL0     H35584   5.220   2.586   6.148 -2.4566  0.2370 -1.3981
  264MOL0     H35585   5.350   2.328   6.010 -1.4023 -0.4273  0.3684
  264MOL0     H35586   5.371   2.507   5.982  1.6828 -0.6611  1.4346
  264MOL0     H35587   5.564   2.412   6.102  1.0220  2.8029  1.3953
  264MOL0     H35588   5.457   2.336   6.210 -0.3489 -0.3669 -1.9254
  264MOL0     H35589   5.391   2.581   6.298 -1.8355 -1.6216 -1.2318
  264MOL0     H35590   5.558   2.514   6.330 -0.1867 -0.9039  0.0133
  264MOL0     H35591   5.751   2.597   6.158  0.4588 -0.2700  1.0323
  264MOL0     H35592   5.880   2.873   6.036  0.9909  0.3677  1.0200
  264MOL0     H35593   5.831   2.988   6.146  2.0005 -0.4538 -1.0039
  264MOL0     H35594   5.929   2.714   6.239 -1.9802 -0.1854  0.1915
  264MOL0     H35595   6.028   2.865   6.235  0.0133 -0.4188  2.3729
  264MOL0     H35596   5.778   2.812   6.401  0.5142 -1.4475  2.1613
  264MOL0     H35597   5.872   2.971   6.385  1.1960  0.0882  1.3099
  264MOL0     H35598   5.989   2.710   6.470  1.5138  0.0092  1.4370
  264MOL0     H35599   5.916   2.815   6.586 -4.9376  1.2477 -1.6369
  264MOL0     H35600   5.965   2.938   6.752  1.7390 -1.0798  1.5227
  264MOL0     H35601   6.042   3.083   6.924  0.3277  0.2028  0.7117
  264MOL0     H35602   6.028   3.515   7.127 -0.7763 -2.1363  0.5007
  264MOL0     H35603   6.115   3.636   7.325 -0.5625  1.0266 -1.0290
  264MOL0     H35604   6.501   3.471   7.506  1.0800 -0.5515  1.0672
  264MOL0     H35605   6.565   3.592   7.404 -1.0073  1.0543  1.8233
  264MOL0     H35606   6.532   3.770   7.577 -1.1807  1.3542  2.1260
  264MOL0     H35607   6.436   3.662   7.675  0.2387  0.0902 -1.1747
  264MOL0     H35608   6.615   3.508   7.708 -3.8371  0.0224 -2.9570
  264MOL0     H35609   6.722   3.623   7.618  0.2327 -1.0495  0.0124
  264MOL0     H35610   6.584   3.682   7.895 -0.9421  0.0491 -2.6596
  264MOL0     H35611   6.684   3.791   7.798  1.6727  0.3186  0.1141
  264MOL0     H35612   6.763   3.523   7.925  1.7232 -0.6149 -1.0076
  264MOL0     H35613   6.797   3.691   7.987 -1.4070 -1.4961  1.6322
  264MOL0     H35614   6.895   3.557   7.736 -1.9405  0.6629  0.5678
  264MOL0     H35615   6.920   3.725   7.764 -1.3169 -0.8342 -2.8842
  264MOL0     H35616   7.042   3.489   7.893  1.5247 -0.0425 -0.2181
  264MOL0     H35617   7.005   3.630   8.002 -1.7807  2.9517 -1.1078
  264MOL0     H35618   7.171   3.617   7.755  0.2840 -0.0698 -0.1487
  264MOL0     H35619   7.109   3.770   7.819 -0.9393  0.0039  2.5017
  264MOL0     H35620   6.480   3.399   7.297  1.0775  1.8203  1.1245
  264MOL0     H35621   6.389   3.263   7.145 -1.6626 -1.4472 -0.4098
  264MOL0     H35622   6.340   3.239   6.650 -1.1990  0.7370 -3.2753
  264MOL0     H35623   6.283   3.093   6.498  0.3691 -2.0132  0.7040
  264MOL0     H35624   4.731   2.119   6.690 -0.0008 -0.1713  1.0340
  264MOL0     H35625   4.543   2.140   6.853 -3.3887  1.8714 -1.0490
  264MOL0     H35626   4.214   2.438   7.028  0.8868 -1.6254 -1.8174
  264MOL0     H35627   3.999   2.430   7.149 -1.9818 -1.2954 -1.3541
  264MOL0     H35628   3.960   2.120   7.440 -0.2899 -0.1155 -0.3224
  264MOL0     H35629   3.877   2.031   7.321 -0.4838  0.6484 -0.1355
  264MOL0     H35630   3.713   2.086   7.500 -1.8966 -0.7200 -1.7341
  264MOL0     H35631   3.682   2.167   7.348  0.0882  0.2236  0.0157
  264MOL0     H35632   3.730   2.382   7.444 -0.6818 -1.1531 -2.4173
  264MOL0     H35633   3.859   2.321   7.557 -0.2243 -2.0155 -2.0119
  264MOL0     H35634   3.648   2.211   7.694 -3.5798  1.4948  1.5097
  264MOL0     H35635   3.681   2.383   7.712 -3.8079  1.1538 -0.9576
  264MOL0     H35636   3.381   2.445   7.453 -0.3643 -0.2030 -0.4753
  264MOL0     H35637   4.111   2.038   7.282 -1.7816  0.6064  1.9216
  264MOL0     H35638   4.396   2.010   7.081 -0.9267  0.9081 -0.6951
  264MOL0     H35639   4.443   2.057   7.246  2.4670 -1.3444 -0.5984
  264MOL0     H35640   4.311   1.942   7.226 -1.1522 -0.5136 -2.2541
  265MOL0     O35641   9.831   4.973   6.673 -0.0108  0.3745 -0.0781
  265MOL0     C35642   9.758   4.946   6.578 -0.7838 -0.5188  0.4199
  265MOL0     O35643   9.775   4.850   6.482 -0.5616  0.9930  0.1250
  265MOL0     C35644   9.884   4.762   6.477 -0.1767 -1.2268 -0.5665
  265MOL0     C35645   9.891   4.696   6.357  0.4435  0.2292 -0.7518
  265MOL0     C35646   9.977   4.589   6.347  0.6156  1.0166  0.7524
  265MOL0     C35647  10.079   4.574   6.435  0.3882 -0.2911  0.4214
  265MOL0     O35648  10.160   4.471   6.423  0.0811  0.3691  0.2869
  265MOL0     C35649  10.282   4.457   6.499 -0.4663 -0.3521  0.4615
  265MOL0     C35650  10.368   4.580   6.462 -0.3806 -0.6087 -0.4481
  265MOL0     C35651  10.477   4.540   6.370  0.4752 -0.6975 -0.4899
  265MOL0     C35652  10.571   4.660   6.350  0.1754  0.4123  0.1787
  265MOL0     C35653  10.661   4.637   6.223  0.1712 -0.2657 -0.1200
  265MOL0     C35654  10.753   4.760   6.206  0.3106 -0.3220  0.4227
  265MOL0     C35655  10.856   4.761   6.098  0.4620  0.0696 -0.3691
  265MOL0     C35656  10.806   4.725   5.958  0.2948  0.3217  0.1988
  265MOL0     N35657  10.913   4.653   5.892  0.2262  0.2179 -0.2284
  265MOL0     C35658  10.899   4.535   5.842 -0.4039  0.4188 -0.0357
  265MOL0     C35659  11.013   4.523   5.767  1.2141  0.0935  0.7257
  265MOL0     C35660  11.048   4.398   5.685 -0.0916 -0.1999  0.1879
  265MOL0     C35661  11.189   4.401   5.628  0.3858  0.5218  0.0201
  265MOL0     C35662  11.247   4.262   5.602 -0.8163  0.6137  0.0996
  265MOL0     C35663  11.381   4.285   5.519 -0.1523  0.0532  0.7554
  265MOL0     O35664  11.412   4.164   5.450  0.1481 -0.3219 -0.3534
  265MOL0     C35665  11.535   4.156   5.400 -0.3943  0.0129 -0.1916
  265MOL0     C35666  11.587   4.027   5.375  0.4398 -0.1699 -0.7781
  265MOL0     C35667  11.711   4.003   5.333 -0.3700  0.5555  0.2866
  265MOL0     C35668  11.804   4.103   5.325 -0.1772 -0.9506 -0.4368
  265MOL0     C35669  11.939   4.076   5.290  0.0937  0.1712 -0.4741
  265MOL0     O35670  12.027   4.177   5.327  0.1846  0.5020 -0.7248
  265MOL0     C35671  12.160   4.165   5.310  0.8595  1.0078  0.0626
  265MOL0     C35672  12.231   4.283   5.307  0.1199  0.4807 -1.2338
  265MOL0     C35673  12.369   4.284   5.302  0.3754  0.1044 -0.2901
  265MOL0     C35674  12.436   4.156   5.288 -0.6536 -0.9688 -0.2914
  265MOL0     O35675  12.572   4.150   5.281 -0.4782 -0.2965  0.0692
  265MOL0     C35676  12.657   4.050   5.338 -0.1841  0.9499 -0.0474
  265MOL0     C35677  12.783   4.111   5.402  0.0770 -0.5554  0.0945
  265MOL0     C35678  12.870   3.992   5.452 -0.0047  0.0028  0.3742
  265MOL0     C35679  13.008   4.029   5.521  1.1821 -0.4489 -0.8918
  265MOL0     C35680  13.063   3.908   5.593 -0.0417  0.1332 -0.6718
  265MOL0     C35681  13.177   3.955   5.680  0.2628  0.5848  0.0570
  265MOL0     C35682  13.302   3.957   5.596 -0.4618 -1.0174 -0.4684
  265MOL0     C35683  13.412   4.043   5.674  0.1722 -0.2814 -0.8821
  265MOL0    Cl35684  13.362   4.221   5.704  0.2366 -0.3742  0.5962
  265MOL0     C35685  12.365   4.037   5.306  0.1711  0.1644  0.1678
  265MOL0     C35686  12.225   4.042   5.316 -0.0877  0.0481 -0.1783
  265MOL0     O35687  11.964   3.973   5.222  0.4629  0.5408  1.0057
  265MOL0     C35688  11.749   4.240   5.328 -0.1871 -0.2637 -0.3756
  265MOL0     C35689  11.617   4.262   5.374 -0.5757 -0.0825 -0.0085
  265MOL0     N35690  11.091   4.637   5.774  0.4726  0.0493 -0.0134
  265MOL0     N35691  11.028   4.712   5.860  0.8593 -0.6774  0.3725
  265MOL0     C35692  10.084   4.664   6.545 -0.8804 -1.0199  0.0449
  265MOL0     C35693   9.983   4.756   6.572 -0.4569  0.6112 -0.5815
  265MOL0     C35694   9.627   5.029   6.571 -0.4521  0.1757 -0.1907
  265MOL0     C35695   9.542   5.026   6.458  0.0563  0.7948 -0.0124
  265MOL0     C35696   9.418   5.093   6.455 -0.1919  0.7795 -0.7840
  265MOL0     C35697   9.365   5.153   6.569 -1.2722 -0.4244 -0.4087
  265MOL0     O35698   9.234   5.194   6.554  0.0533  0.5895 -0.0646
  265MOL0     C35699   9.181   5.270   6.667 -0.2544  0.0671  0.1093
  265MOL0     C35700   9.122   5.172   6.770 -0.7197 -1.3029 -0.5842
  265MOL0     C35701   9.001   5.081   6.724 -0.9412 -0.2398 -0.5861
  265MOL0     C35702   8.979   4.970   6.820  0.5152  0.4419  0.0702
  265MOL0     C35703   8.850   4.902   6.781  0.9850  0.1857 -0.1698
  265MOL0     C35704   8.746   4.846   6.743  0.4101 -0.0285 -0.7352
  265MOL0     C35705   9.452   5.159   6.678  0.5671  1.1801 -0.0280
  265MOL0     C35706   9.578   5.105   6.681  0.5351 -0.9356  0.6265
  265MOL0     C35707   9.666   5.143   6.802  0.1105 -0.9459 -0.3705
  265MOL0     H35708   9.814   4.723   6.286 -0.8057 -0.6384  0.2145
  265MOL0     H35709   9.972   4.520   6.263 -0.4789  0.1955  1.4522
  265MOL0     H35710  10.265   4.459   6.607 -1.3784  1.2402  0.3259
  265MOL0     H35711  10.318   4.359   6.467 -0.2964  0.0509 -0.6078
  265MOL0     H35712  10.413   4.609   6.557  1.1111 -3.0870 -0.3063
  265MOL0     H35713  10.315   4.669   6.427  1.6133  0.9962  0.3790
  265MOL0     H35714  10.426   4.510   6.278 -1.9028  1.0572  0.1844
  265MOL0     H35715  10.534   4.457   6.413 -0.5555 -2.3948 -2.2404
  265MOL0     H35716  10.504   4.744   6.326 -2.8444 -1.3482  1.7809
  265MOL0     H35717  10.626   4.684   6.441 -1.7309  2.8040  0.8171
  265MOL0     H35718  10.720   4.546   6.237  1.6855  0.6343 -0.3526
  265MOL0     H35719  10.590   4.622   6.141 -2.8834 -3.9953  2.8167
  265MOL0     H35720  10.676   4.835   6.185  0.0292 -0.8936 -0.6359
  265MOL0     H35721  10.800   4.782   6.302  1.6953 -0.7358 -0.1296
  265MOL0     H35722  10.936   4.693   6.130  0.6967  0.4290 -0.1942
  265MOL0     H35723  10.900   4.859   6.080  0.4127  0.2246  0.3183
  265MOL0     H35724  10.718   4.660   5.959  1.0815 -0.7795  0.4920
  265MOL0     H35725  10.767   4.813   5.906  2.7848  0.2668 -2.0033
  265MOL0     H35726  10.818   4.463   5.852 -0.2935  0.3766  0.5986
  265MOL0     H35727  11.047   4.308   5.748 -0.6623  0.0975  0.6096
  265MOL0     H35728  10.974   4.388   5.605 -1.9076 -1.2012  1.9019
  265MOL0     H35729  11.182   4.466   5.540  2.0104  2.9608  1.5702
  265MOL0     H35730  11.256   4.451   5.699  2.5028 -2.9010  0.6236
  265MOL0     H35731  11.176   4.202   5.544 -0.4732  1.2565 -1.0220
  265MOL0     H35732  11.266   4.206   5.693 -0.4166  0.0274 -0.3385
  265MOL0     H35733  11.457   4.319   5.590 -0.0289  0.1829  0.5573
  265MOL0     H35734  11.357   4.350   5.434 -0.1985 -1.2443 -0.2504
  265MOL0     H35735  11.521   3.946   5.405  1.9309 -0.1914  3.0005
  265MOL0     H35736  11.745   3.900   5.327  0.2170  0.8235 -2.3879
  265MOL0     H35737  12.177   4.377   5.313 -2.9498 -1.1459 -1.0422
  265MOL0     H35738  12.432   4.372   5.299  2.1889 -0.7214  4.3303
  265MOL0     H35739  12.601   3.985   5.406 -1.4727  1.2691 -0.7762
  265MOL0     H35740  12.682   3.977   5.260 -2.5520 -1.3865  1.2545
  265MOL0     H35741  12.842   4.174   5.335  0.0835 -1.5244 -0.8161
  265MOL0     H35742  12.757   4.177   5.486 -2.5353 -0.5149 -0.6622
  265MOL0     H35743  12.808   3.923   5.511 -2.1080 -1.0294 -2.7389
  265MOL0     H35744  12.900   3.931   5.366  1.3456  1.1942 -0.0213
  265MOL0     H35745  12.989   4.110   5.592  1.0049 -0.1580 -1.2664
  265MOL0     H35746  13.073   4.060   5.438  2.3671 -2.6368 -0.8539
  265MOL0     H35747  13.112   3.838   5.523  0.3217 -3.8386  3.0855
  265MOL0     H35748  12.990   3.844   5.643  0.2862  0.3617  0.1138
  265MOL0     H35749  13.155   4.052   5.726  0.4270  2.6664 -3.7988
  265MOL0     H35750  13.182   3.872   5.751 -1.7038  0.6639  0.3499
  265MOL0     H35751  13.295   4.000   5.496 -0.7237 -0.1125 -0.0749
  265MOL0     H35752  13.337   3.855   5.585 -0.1792 -1.1288  1.1663
  265MOL0     H35753  13.429   4.004   5.774 -1.2211 -1.7127 -1.1545
  265MOL0     H35754  13.506   4.039   5.617 -1.2163  0.3050 -3.3866
  265MOL0     H35755  12.417   3.943   5.293 -0.5931 -0.5920  2.1165
  265MOL0     H35756  12.173   3.948   5.328 -0.7675  0.5664  1.2453
  265MOL0     H35757  11.816   4.322   5.307  2.9868 -2.5720 -0.0261
  265MOL0     H35758  11.580   4.364   5.374 -2.7878 -0.8218  0.4789
  265MOL0     H35759  10.165   4.672   6.616  0.2294  4.1658 -1.4245
  265MOL0     H35760   9.983   4.817   6.662 -0.2846  2.0147 -1.5073
  265MOL0     H35761   9.567   4.958   6.377 -1.2633 -0.0712  0.2894
  265MOL0     H35762   9.364   5.091   6.361  0.1219 -0.4607 -0.9488
  265MOL0     H35763   9.104   5.326   6.613  0.4212  0.2484 -0.6862
  265MOL0     H35764   9.241   5.338   6.728 -0.4578 -2.2124  3.0679
  265MOL0     H35765   9.084   5.232   6.854  0.9363 -2.3972  1.0290
  265MOL0     H35766   9.207   5.116   6.812 -1.5810  0.0130  3.3630
  265MOL0     H35767   9.026   5.030   6.630  0.5216  0.5884 -0.6723
  265MOL0     H35768   8.905   5.131   6.709 -2.7443 -2.5632  2.1980
  265MOL0     H35769   9.051   4.888   6.826 -1.4538 -1.3267  1.0180
  265MOL0     H35770   8.966   5.019   6.917  1.5199 -0.0923  0.4919
  265MOL0     H35771   8.663   4.794   6.699 -1.5435  2.9279 -0.8243
  265MOL0     H35772   9.414   5.186   6.776  0.8140  0.4643  0.2710
  265MOL0     H35773   9.605   5.190   6.879 -1.1384 -0.9349 -1.3283
  265MOL0     H35774   9.708   5.058   6.856 -0.5012 -0.5860  0.7041
  265MOL0     H35775   9.750   5.204   6.767  0.2456 -1.5048 -1.0354
  266MOL0     O35776   1.589   5.959   6.464  0.2301 -0.4208  1.1652
  266MOL0     C35777   1.678   6.045   6.474 -0.6598  0.7751  0.5778
  266MOL0     O35778   1.661   6.175   6.493 -0.3956 -0.8079  0.6338
  266MOL0     C35779   1.539   6.231   6.511  1.1446  0.0017 -0.0886
  266MOL0     C35780   1.468   6.294   6.407 -0.0258 -0.7845  0.3962
  266MOL0     C35781   1.344   6.357   6.433 -0.5209 -0.1437  0.0990
  266MOL0     C35782   1.298   6.370   6.563 -0.8626 -0.4653  0.6156
  266MOL0     O35783   1.183   6.428   6.611  1.0114 -0.0770  0.4617
  266MOL0     C35784   1.116   6.530   6.534 -0.1647 -0.4898  1.2019
  266MOL0     C35785   1.000   6.472   6.450 -0.6422  0.2526 -0.1787
  266MOL0     C35786   0.893   6.411   6.549 -0.4385 -0.0968  0.7426
  266MOL0     C35787   0.771   6.345   6.477  0.3089  0.8334  0.0446
  266MOL0     C35788   0.712   6.424   6.367  0.3016 -0.6918 -0.0574
  266MOL0     C35789   0.622   6.533   6.429  0.1334  0.3035  0.2305
  266MOL0     C35790   0.598   6.658   6.339 -0.9339  0.6260  0.4923
  266MOL0     C35791   0.724   6.731   6.301  0.1390 -0.0303  0.8190
  266MOL0     N35792   0.700   6.864   6.256  0.1654  0.4275 -0.9327
  266MOL0     C35793   0.700   6.967   6.334 -0.6153  0.2266 -0.8696
  266MOL0     C35794   0.710   7.073   6.257 -0.0566  0.0672  0.3596
  266MOL0     C35795   0.723   7.211   6.317  0.1359 -0.4833  0.4108
  266MOL0     C35796   0.599   7.255   6.389  0.8027  0.5366  0.1735
  266MOL0     C35797   0.593   7.405   6.418 -0.0104 -0.4100 -0.1558
  266MOL0     C35798   0.715   7.460   6.479 -0.5127 -0.2632 -0.0441
  266MOL0     O35799   0.805   7.489   6.368  0.0608 -0.6049  0.2723
  266MOL0     C35800   0.932   7.533   6.401  0.0737 -0.1925  0.4613
  266MOL0     C35801   1.022   7.561   6.294  0.3211 -0.7975  0.2778
  266MOL0     C35802   1.151   7.601   6.318  0.1153  0.6139 -0.1185
  266MOL0     C35803   1.206   7.596   6.441 -0.2910 -0.0547 -0.0974
  266MOL0     C35804   1.355   7.610   6.441  0.0760  0.2231  0.5167
  266MOL0     O35805   1.430   7.608   6.322  0.2131 -0.4890 -0.5662
  266MOL0     C35806   1.555   7.653   6.346  0.0260 -0.0192  0.0753
  266MOL0     C35807   1.658   7.563   6.350  0.8999  0.0470 -0.1027
  266MOL0     C35808   1.778   7.591   6.398 -0.2547 -0.0759 -0.5248
  266MOL0     C35809   1.813   7.730   6.422 -0.2321  0.2118 -0.0485
  266MOL0     O35810   1.947   7.760   6.464 -0.4005  0.9602 -0.3231
  266MOL0     C35811   1.957   7.890   6.501 -0.6227 -0.4098  0.0914
  266MOL0     C35812   2.097   7.924   6.546  1.3308 -0.3277 -0.6327
  266MOL0     C35813   2.160   7.839   6.661 -0.0499  0.3347  1.0273
  266MOL0     C35814   2.307   7.846   6.654 -0.3589  0.0476 -0.3450
  266MOL0     C35815   2.378   7.793   6.776 -0.3880  0.1567 -0.3655
  266MOL0     C35816   2.531   7.825   6.759  1.1936  0.3898  1.2080
  266MOL0     C35817   2.599   7.802   6.894 -0.2136  0.7777  0.1982
  266MOL0     C35818   2.744   7.754   6.865  0.1496  0.6588  0.0653
  266MOL0    Cl35819   2.837   7.893   6.791 -0.1823 -0.4957 -0.3467
  266MOL0     C35820   1.712   7.823   6.409  0.4692 -1.1594 -1.0631
  266MOL0     C35821   1.582   7.784   6.373  0.1441 -0.5103 -0.1733
  266MOL0     O35822   1.393   7.624   6.555 -0.6254 -0.3357 -0.5041
  266MOL0     C35823   1.126   7.572   6.551 -0.8588 -0.5754 -0.6704
  266MOL0     C35824   0.993   7.538   6.529 -0.0132 -0.0289 -0.1450
  266MOL0     N35825   0.693   7.040   6.130  0.6696 -0.6423  1.0395
  266MOL0     N35826   0.687   6.912   6.129  0.0440 -0.0708 -0.5889
  266MOL0     C35827   1.372   6.316   6.670  0.4815 -0.2604 -0.3439
  266MOL0     C35828   1.489   6.245   6.644 -0.5426 -0.4025 -0.1330
  266MOL0     C35829   1.819   5.992   6.464 -0.5121  0.3385 -1.0275
  266MOL0     C35830   1.903   6.070   6.384 -0.2135  0.6985 -0.5425
  266MOL0     C35831   2.042   6.030   6.359  0.0032 -0.7445 -0.1438
  266MOL0     C35832   2.093   5.919   6.419 -0.8045  1.5657 -0.6247
  266MOL0     O35833   2.217   5.870   6.402 -0.1759 -0.6520  0.4371
  266MOL0     C35834   2.324   5.964   6.379 -0.1908 -0.2753  0.4020
  266MOL0     C35835   2.462   5.892   6.379  0.0651 -0.8762  0.5760
  266MOL0     C35836   2.474   5.798   6.252 -0.5106 -0.2788 -0.6524
  266MOL0     C35837   2.610   5.713   6.256  0.7519 -0.1336  0.1153
  266MOL0     C35838   2.599   5.576   6.199  0.1221  0.4415  0.0516
  266MOL0     C35839   2.613   5.472   6.143  1.0648 -0.6318  0.5089
  266MOL0     C35840   2.008   5.839   6.488 -0.0714  0.1598 -0.2834
  266MOL0     C35841   1.868   5.869   6.517  0.1474 -0.3511  0.2927
  266MOL0     C35842   1.794   5.780   6.614 -0.2039  1.0459  0.3955
  266MOL0     H35843   1.496   6.287   6.302 -1.5065 -0.4565 -0.0469
  266MOL0     H35844   1.288   6.387   6.344 -0.4110  0.5778  0.2617
  266MOL0     H35845   1.077   6.608   6.600  2.1639  2.8193 -1.0359
  266MOL0     H35846   1.187   6.586   6.473 -2.0938  0.6731 -0.0736
  266MOL0     H35847   1.041   6.392   6.387  1.0637  0.7879  0.2235
  266MOL0     H35848   0.960   6.550   6.385  2.0013 -0.5061 -2.8981
  266MOL0     H35849   0.863   6.495   6.613  0.1906 -0.9249  2.1751
  266MOL0     H35850   0.944   6.340   6.615  0.0115  0.2037  0.7220
  266MOL0     H35851   0.787   6.243   6.441  3.6114  1.0797  0.4473
  266MOL0     H35852   0.688   6.341   6.548 -1.6136 -0.8001 -2.1372
  266MOL0     H35853   0.783   6.469   6.296 -2.2333  0.6219 -1.9099
  266MOL0     H35854   0.667   6.353   6.297  0.6137 -1.1104  0.1563
  266MOL0     H35855   0.523   6.489   6.446  1.3338 -2.6537  0.1359
  266MOL0     H35856   0.660   6.559   6.528 -0.3687  0.1424  0.4691
  266MOL0     H35857   0.518   6.706   6.396 -0.7028  1.1433  0.3911
  266MOL0     H35858   0.555   6.630   6.243  5.2399 -1.9792 -2.0254
  266MOL0     H35859   0.788   6.731   6.389  1.2202  1.0407  0.0677
  266MOL0     H35860   0.781   6.686   6.219 -0.8331 -1.2543  0.7701
  266MOL0     H35861   0.713   6.961   6.441  0.4265 -0.4137 -1.0200
  266MOL0     H35862   0.802   7.226   6.392  1.4528  1.4825 -1.2463
  266MOL0     H35863   0.760   7.279   6.240 -1.6851  1.2601  0.9949
  266MOL0     H35864   0.517   7.225   6.322  1.0499 -0.3354  0.2443
  266MOL0     H35865   0.569   7.200   6.479 -0.7490  0.1536 -0.5405
  266MOL0     H35866   0.509   7.408   6.488  1.8720 -2.6116  2.3833
  266MOL0     H35867   0.566   7.462   6.328 -0.4306  2.7726  1.8263
  266MOL0     H35868   0.757   7.390   6.552  4.5145  0.9000 -1.4420
  266MOL0     H35869   0.690   7.542   6.547  0.4588 -0.0045  0.0165
  266MOL0     H35870   0.981   7.559   6.194 -2.3287  2.4301  1.1079
  266MOL0     H35871   1.213   7.629   6.233  0.7858  0.9205  0.4627
  266MOL0     H35872   1.626   7.459   6.341  0.2142  0.1439  0.9349
  266MOL0     H35873   1.853   7.519   6.428 -0.3006  0.4959  1.1180
  266MOL0     H35874   1.933   7.948   6.411 -0.1990 -0.4959 -0.0792
  266MOL0     H35875   1.889   7.918   6.581 -1.0461  0.1561 -0.4584
  266MOL0     H35876   2.169   7.925   6.463  0.5527 -1.6665 -1.3620
  266MOL0     H35877   2.091   8.028   6.578 -1.4224 -0.9151  1.1005
  266MOL0     H35878   2.133   7.877   6.760 -1.1545  0.0058  0.8590
  266MOL0     H35879   2.124   7.739   6.638 -1.0358  1.1931 -1.4964
  266MOL0     H35880   2.337   7.949   6.632 -1.0741  0.4816  0.6239
  266MOL0     H35881   2.336   7.784   6.568  2.1014  0.5664  0.0430
  266MOL0     H35882   2.355   7.686   6.783  2.0144 -0.4040 -0.4002
  266MOL0     H35883   2.344   7.834   6.872  0.2857 -0.2029  0.0332
  266MOL0     H35884   2.573   7.766   6.677 -2.2880 -0.2298 -0.3200
  266MOL0     H35885   2.529   7.932   6.739 -1.3915  0.2433  0.3044
  266MOL0     H35886   2.549   7.725   6.954 -2.2817  1.5727 -0.4049
  266MOL0     H35887   2.600   7.890   6.959  2.2165  0.9401  0.0143
  266MOL0     H35888   2.792   7.726   6.959  0.5559  2.8976  0.5783
  266MOL0     H35889   2.748   7.666   6.800 -0.8371  1.0522 -0.5578
  266MOL0     H35890   1.716   7.930   6.426  0.3240 -0.8305 -2.9065
  266MOL0     H35891   1.499   7.852   6.360  1.2683  0.9189 -0.1743
  266MOL0     H35892   1.169   7.592   6.648  0.1819  1.1145 -1.4325
  266MOL0     H35893   0.929   7.530   6.616 -1.8088 -0.1158 -1.4042
  266MOL0     H35894   1.336   6.338   6.770  1.6037  3.1583 -0.5619
  266MOL0     H35895   1.560   6.220   6.721 -2.6675  0.9671  2.4272
  266MOL0     H35896   1.846   6.149   6.336  0.2000 -0.5762 -3.3091
  266MOL0     H35897   2.100   6.105   6.306  0.6741  0.8254  2.6131
  266MOL0     H35898   2.317   6.033   6.464  0.7803 -0.2997  0.5103
  266MOL0     H35899   2.315   6.026   6.290 -1.1065  2.3704  2.1999
  266MOL0     H35900   2.462   5.838   6.475 -2.0031 -2.9689 -0.5036
  266MOL0     H35901   2.541   5.968   6.381 -0.3578 -0.3831 -0.9397
  266MOL0     H35902   2.469   5.854   6.158  1.7640 -0.0044 -0.6766
  266MOL0     H35903   2.392   5.726   6.261  0.5433 -2.0158 -3.3180
  266MOL0     H35904   2.679   5.765   6.190  2.2155 -0.0020  1.6755
  266MOL0     H35905   2.664   5.719   6.351  0.2924  1.5327  0.2974
  266MOL0     H35906   2.626   5.386   6.081  1.0790 -1.3677  1.5075
  266MOL0     H35907   2.042   5.738   6.509 -1.5052 -1.5420 -4.8748
  266MOL0     H35908   1.810   5.812   6.717 -1.8191  2.1446  0.3425
  266MOL0     H35909   1.687   5.779   6.591  0.1136 -0.5328 -1.2577
  266MOL0     H35910   1.828   5.677   6.598  0.5552  1.7978 -4.3289
  267MOL0     O35911   3.901   6.369   8.529 -0.8101 -0.1165 -0.5376
  267MOL0     C35912   3.940   6.393   8.645  0.3798  0.3414 -0.1615
  267MOL0     O35913   4.067   6.410   8.676 -0.3363  0.6080  0.3614
  267MOL0     C35914   4.171   6.427   8.584  0.1573  0.2161  0.0498
  267MOL0     C35915   4.176   6.429   8.437 -0.0349  0.7843 -0.6335
  267MOL0     C35916   4.301   6.458   8.367 -1.0977 -0.0107 -0.4061
  267MOL0     C35917   4.417   6.477   8.426  0.2577  0.5874 -0.0219
  267MOL0     O35918   4.529   6.494   8.346  0.0283  0.2453 -0.2901
  267MOL0     C35919   4.628   6.591   8.395  0.3252  0.2925  1.0980
  267MOL0     C35920   4.757   6.593   8.310 -0.1163 -0.2531  0.0898
  267MOL0     C35921   4.823   6.468   8.256 -0.1851  0.0094 -1.2057
  267MOL0     C35922   4.930   6.478   8.150 -0.2160  0.5124  1.0579
  267MOL0     C35923   5.056   6.534   8.215 -0.1894 -0.0611 -0.8558
  267MOL0     C35924   5.137   6.593   8.102 -0.0382  0.2235 -0.5653
  267MOL0     C35925   5.273   6.629   8.158  1.1116 -0.2034 -0.0030
  267MOL0     C35926   5.338   6.737   8.071 -0.2874 -1.1154 -0.4464
  267MOL0     N35927   5.438   6.820   8.137 -0.4310  0.4110 -0.5402
  267MOL0     C35928   5.412   6.920   8.222  0.2683 -0.9870  0.1398
  267MOL0     C35929   5.535   6.957   8.250  0.1179  0.1644 -0.0914
  267MOL0     C35930   5.561   7.061   8.351 -1.2741 -0.1612 -0.8392
  267MOL0     C35931   5.608   7.010   8.489 -0.0220 -0.4244  0.2006
  267MOL0     C35932   5.621   7.136   8.591 -0.1752  0.8161 -0.4655
  267MOL0     C35933   5.751   7.226   8.587 -0.1325 -1.4937  0.5241
  267MOL0     O35934   5.863   7.157   8.638 -0.0074 -0.2654  0.2591
  267MOL0     C35935   5.984   7.224   8.640 -0.2391 -0.4849 -0.2422
  267MOL0     C35936   6.028   7.350   8.580 -0.0581 -0.5368  0.5163
  267MOL0     C35937   6.154   7.406   8.607  0.1874 -0.2472 -0.0838
  267MOL0     C35938   6.243   7.344   8.690 -0.0685 -0.1032 -0.3515
  267MOL0     C35939   6.367   7.410   8.721 -0.0368  0.5598  0.5905
  267MOL0     O35940   6.411   7.503   8.625  0.3084 -0.1157 -0.2956
  267MOL0     C35941   6.546   7.538   8.616  0.8249 -0.4451  0.2276
  267MOL0     C35942   6.576   7.672   8.590  0.9007  0.3253  0.2634
  267MOL0     C35943   6.707   7.716   8.566 -0.1003  0.1881 -0.6833
  267MOL0     C35944   6.809   7.629   8.565 -0.6508  0.7288  0.0670
  267MOL0     O35945   6.932   7.674   8.537  0.9871 -0.5545  0.8846
  267MOL0     C35946   7.049   7.603   8.508  0.1367 -1.0545  0.0535
  267MOL0     C35947   7.161   7.692   8.443  0.2834  0.0878  0.6586
  267MOL0     C35948   7.107   7.734   8.301 -0.4555  1.0867 -1.0327
  267MOL0     C35949   7.225   7.788   8.222 -0.0974  0.0309 -0.2921
  267MOL0     C35950   7.283   7.679   8.134  0.5108 -0.6296  0.1272
  267MOL0     C35951   7.391   7.729   8.038 -0.7096 -0.2238  0.4856
  267MOL0     C35952   7.458   7.622   7.945 -0.1343 -0.0389 -0.0241
  267MOL0     C35953   7.543   7.518   8.029 -0.5724 -0.9421  0.2827
  267MOL0    Cl35954   7.629   7.406   7.922  0.1773 -0.2158  0.7550
  267MOL0     C35955   6.781   7.493   8.597  0.6461 -0.4838 -0.0312
  267MOL0     C35956   6.650   7.443   8.625  0.2245 -0.2963  0.5397
  267MOL0     O35957   6.444   7.364   8.806  0.5695 -0.2237  0.1792
  267MOL0     C35958   6.205   7.221   8.747  0.3150  0.6509 -0.2864
  267MOL0     C35959   6.082   7.166   8.725 -0.7168 -0.0511  0.6135
  267MOL0     N35960   5.633   6.888   8.174  0.4101  0.2047 -0.1387
  267MOL0     N35961   5.571   6.792   8.114  0.0604 -0.0322  0.1732
  267MOL0     C35962   4.415   6.465   8.569 -0.8446 -0.1287  0.2412
  267MOL0     C35963   4.295   6.454   8.640 -0.3967 -0.2784 -0.8474
  267MOL0     C35964   3.845   6.377   8.755  0.0604  0.5129  0.4579
  267MOL0     C35965   3.901   6.391   8.882 -0.1680 -0.8008 -0.2550
  267MOL0     C35966   3.820   6.366   8.995  0.1910 -0.5750  0.3820
  267MOL0     C35967   3.687   6.329   8.992 -0.9148  0.5522  0.3945
  267MOL0     O35968   3.611   6.302   9.100  0.0918 -0.3732 -0.1077
  267MOL0     C35969   3.618   6.395   9.206 -0.4246 -0.1407 -0.5130
  267MOL0     C35970   3.527   6.368   9.327  0.5955 -0.1779 -0.0508
  267MOL0     C35971   3.385   6.403   9.298  0.0031  0.1311  0.0900
  267MOL0     C35972   3.284   6.393   9.418 -0.8452 -0.1988  0.9411
  267MOL0     C35973   3.150   6.424   9.369  1.1746 -0.1229  0.0660
  267MOL0     C35974   3.045   6.475   9.315  0.2751  0.1197  0.3068
  267MOL0     C35975   3.625   6.335   8.861  0.5691  0.5374  0.1899
  267MOL0     C35976   3.702   6.362   8.746  0.1605  0.0760  0.1703
  267MOL0     C35977   3.627   6.365   8.615  0.0819  0.5338 -0.1989
  267MOL0     H35978   4.085   6.415   8.378  0.6512 -2.9251 -1.0353
  267MOL0     H35979   4.307   6.447   8.260  0.4054 -1.4666 -0.2204
  267MOL0     H35980   4.584   6.691   8.384 -2.1386 -0.7107  1.0416
  267MOL0     H35981   4.653   6.572   8.499  0.4529  1.8677  1.3804
  267MOL0     H35982   4.829   6.654   8.365 -0.2709 -0.7436  0.8410
  267MOL0     H35983   4.723   6.634   8.214 -2.3102 -4.2553 -1.0637
  267MOL0     H35984   4.732   6.420   8.219 -1.1115  0.9948 -0.2604
  267MOL0     H35985   4.866   6.409   8.337  0.9948  1.0675 -1.0389
  267MOL0     H35986   4.945   6.382   8.101 -0.3828  0.9931  0.0519
  267MOL0     H35987   4.904   6.550   8.072  0.8962  1.8564  1.8698
  267MOL0     H35988   5.040   6.609   8.294  0.1800  0.3117 -1.1269
  267MOL0     H35989   5.107   6.457   8.272 -2.2023  0.2791  1.5482
  267MOL0     H35990   5.146   6.527   8.016  2.5465  0.4945 -0.5581
  267MOL0     H35991   5.079   6.679   8.066  0.5510  1.8127  2.0007
  267MOL0     H35992   5.335   6.539   8.162  0.4219 -0.7408 -1.0518
  267MOL0     H35993   5.262   6.671   8.258  2.8204  0.6192 -0.1170
  267MOL0     H35994   5.367   6.691   7.976 -1.4724  0.8687 -1.8529
  267MOL0     H35995   5.262   6.808   8.039  0.3205 -1.0546 -1.8561
  267MOL0     H35996   5.318   6.945   8.271  0.2824 -0.3745 -0.1435
  267MOL0     H35997   5.636   7.131   8.312 -3.1254  2.8178  0.6225
  267MOL0     H35998   5.473   7.124   8.364 -2.1468 -1.1982 -1.5366
  267MOL0     H35999   5.524   6.944   8.513 -1.4666  0.8489 -1.1635
  267MOL0     H36000   5.694   6.942   8.482 -1.0083 -1.5795 -1.2265
  267MOL0     H36001   5.613   7.097   8.693  0.5533 -0.6370 -0.9324
  267MOL0     H36002   5.535   7.202   8.576  0.5036  1.7343 -0.4203
  267MOL0     H36003   5.743   7.317   8.647 -1.7255 -0.2456 -1.4484
  267MOL0     H36004   5.766   7.253   8.482  1.4056  1.0674  1.3173
  267MOL0     H36005   5.957   7.395   8.512  0.5436 -2.5991 -1.6452
  267MOL0     H36006   6.172   7.503   8.563  2.6474 -0.3410  0.5413
  267MOL0     H36007   6.490   7.736   8.569 -0.5229 -1.5459  0.1288
  267MOL0     H36008   6.724   7.822   8.553 -0.1605  0.3026  0.1227
  267MOL0     H36009   7.092   7.553   8.595 -2.4842 -6.0821 -1.1523
  267MOL0     H36010   7.021   7.523   8.439 -2.4451 -0.2401  0.0778
  267MOL0     H36011   7.175   7.780   8.506  0.8692 -1.1101  2.2973
  267MOL0     H36012   7.254   7.636   8.429  1.4584  2.3872 -1.4091
  267MOL0     H36013   7.068   7.647   8.247 -1.9406  0.5114  0.8534
  267MOL0     H36014   7.024   7.804   8.312 -1.0437  0.2687 -0.1188
  267MOL0     H36015   7.285   7.839   8.298 -1.1752  0.3330  0.3785
  267MOL0     H36016   7.205   7.871   8.153  1.0298 -0.1503 -0.8421
  267MOL0     H36017   7.207   7.615   8.087 -0.3338 -0.2370  0.9265
  267MOL0     H36018   7.332   7.608   8.200 -0.7089 -0.6562  1.0341
  267MOL0     H36019   7.336   7.796   7.972 -0.1405 -1.7625 -1.6568
  267MOL0     H36020   7.472   7.786   8.084 -1.4002 -0.7859  2.5177
  267MOL0     H36021   7.523   7.676   7.876 -1.2420 -0.4007 -1.4056
  267MOL0     H36022   7.385   7.577   7.877 -0.1582 -2.3390  1.4278
  267MOL0     H36023   7.618   7.569   8.091 -0.5578  0.4538 -0.8212
  267MOL0     H36024   7.480   7.458   8.094 -0.8988 -1.6466 -0.6699
  267MOL0     H36025   6.859   7.419   8.609 -3.9603 -6.0213  0.4498
  267MOL0     H36026   6.623   7.341   8.651 -1.1970  0.1906  1.0586
  267MOL0     H36027   6.258   7.163   8.821 -2.7562  0.0538  1.6318
  267MOL0     H36028   6.051   7.070   8.766  2.9786 -1.3647  0.6417
  267MOL0     H36029   4.503   6.486   8.629 -1.8446  1.3860  1.2441
  267MOL0     H36030   4.297   6.457   8.748  1.7335  1.0699 -0.8646
  267MOL0     H36031   4.004   6.422   8.896  0.5641 -2.4541 -1.5993
  267MOL0     H36032   3.876   6.375   9.088  0.8152  5.1302 -0.1716
  267MOL0     H36033   3.615   6.500   9.177  2.4986  0.9558  2.4996
  267MOL0     H36034   3.714   6.377   9.255 -0.8241 -0.6857  0.0943
  267MOL0     H36035   3.553   6.413   9.423 -4.4571 -0.5510  1.7467
  267MOL0     H36036   3.535   6.260   9.342 -1.1964 -0.3396 -0.1465
  267MOL0     H36037   3.336   6.333   9.230 -1.4356 -1.4297  2.5741
  267MOL0     H36038   3.373   6.500   9.249  1.9810  1.6338  2.3447
  267MOL0     H36039   3.278   6.292   9.460 -2.8712 -0.6384 -0.2522
  267MOL0     H36040   3.310   6.460   9.500  1.7183 -1.1267  0.9548
  267MOL0     H36041   2.958   6.508   9.263 -0.6381 -1.2483  0.9030
  267MOL0     H36042   3.518   6.328   8.845  0.4758 -0.7995  1.2326
  267MOL0     H36043   3.645   6.263   8.579 -1.2662  0.8881 -1.9812
  267MOL0     H36044   3.521   6.380   8.638  0.5942  2.0697  1.4885
  267MOL0     H36045   3.663   6.439   8.544  0.1059  0.5375 -0.1826
  268MOL0     O36046   1.161   7.540  10.253 -0.1910  0.7819  0.1423
  268MOL0     C36047   1.102   7.484  10.347  0.5511 -0.9099 -0.5119
  268MOL0     O36048   1.101   7.350  10.365  0.0107  0.0688 -0.0795
  268MOL0     C36049   1.161   7.273  10.276  0.5730  0.2409  0.0791
  268MOL0     C36050   1.292   7.291  10.243 -0.3222 -0.5593 -0.0374
  268MOL0     C36051   1.351   7.201  10.155  0.3177  0.0628  0.5035
  268MOL0     C36052   1.277   7.093  10.104 -0.8749 -0.3628 -0.1827
  268MOL0     O36053   1.327   6.990  10.026  0.1965  0.2039  0.0354
  268MOL0     C36054   1.297   6.990   9.883 -0.6584  0.2765  0.1238
  268MOL0     C36055   1.399   6.918   9.797 -0.9051 -0.2723  0.3658
  268MOL0     C36056   1.538   6.986   9.775 -0.8649  0.1044 -0.0467
  268MOL0     C36057   1.640   6.903   9.684 -0.4061  0.6882  0.1047
  268MOL0     C36058   1.766   6.987   9.663  0.2176 -0.0168 -0.0598
  268MOL0     C36059   1.859   6.998   9.782  0.3807 -0.5412 -0.6964
  268MOL0     C36060   1.970   7.095   9.741 -0.2465  0.1307  0.1383
  268MOL0     C36061   2.088   7.006   9.682  0.4693  0.1324 -0.0589
  268MOL0     N36062   2.185   7.101   9.647 -0.3110 -0.5956 -0.2749
  268MOL0     C36063   2.212   7.144   9.525  0.3726  0.0887 -0.0206
  268MOL0     C36064   2.316   7.226   9.532  0.6046 -0.5744 -0.2944
  268MOL0     C36065   2.380   7.320   9.425 -0.2713  0.7309  0.1942
  268MOL0     C36066   2.516   7.257   9.393  0.4162 -0.2725 -0.1405
  268MOL0     C36067   2.632   7.345   9.342  0.4238 -0.5072  0.4034
  268MOL0     C36068   2.593   7.414   9.207 -0.1738  0.0038  0.8377
  268MOL0     O36069   2.722   7.453   9.166 -0.1727  0.3296  0.8751
  268MOL0     C36070   2.747   7.539   9.062  0.0350 -0.5451 -0.3066
  268MOL0     C36071   2.645   7.629   9.008 -0.4744  0.5438 -0.2829
  268MOL0     C36072   2.675   7.722   8.913  0.6589  0.4247  0.2321
  268MOL0     C36073   2.807   7.716   8.862 -0.8074 -0.0227  1.1338
  268MOL0     C36074   2.850   7.802   8.747  0.0304 -0.0483 -0.8334
  268MOL0     O36075   2.991   7.810   8.729  0.1746  0.8854 -0.2452
  268MOL0     C36076   3.038   7.900   8.639  0.9865 -0.5947  1.0452
  268MOL0     C36077   3.172   7.932   8.654 -0.4194  0.0765  0.0188
  268MOL0     C36078   3.244   8.028   8.570  0.0028 -0.0471  1.2402
  268MOL0     C36079   3.181   8.081   8.464 -0.0406 -0.5222  0.2609
  268MOL0     O36080   3.248   8.178   8.390 -0.1413 -0.7740 -0.2924
  268MOL0     C36081   3.170   8.287   8.323  0.4843  0.7871  0.0867
  268MOL0     C36082   3.128   8.385   8.429  0.2841 -0.3902  0.2877
  268MOL0     C36083   3.239   8.482   8.472 -0.2642  0.4337  0.3606
  268MOL0     C36084   3.186   8.591   8.564  0.5743  0.0886 -0.2230
  268MOL0     C36085   3.291   8.663   8.651 -0.8379 -0.2307  0.0585
  268MOL0     C36086   3.422   8.693   8.568 -0.1356  0.2685  0.0447
  268MOL0     C36087   3.529   8.766   8.644 -0.2090  0.3219 -0.9666
  268MOL0     C36088   3.636   8.829   8.546 -0.3115  0.2920 -0.8144
  268MOL0    Cl36089   3.779   8.884   8.631  0.1705  0.1298  0.0596
  268MOL0     C36090   3.048   8.035   8.443 -0.1903 -0.1170  1.0856
  268MOL0     C36091   2.971   7.951   8.522 -0.3562 -0.1612  0.5120
  268MOL0     O36092   2.766   7.874   8.696 -0.2366  0.2468  0.3599
  268MOL0     C36093   2.912   7.624   8.908  0.8170 -0.1830 -0.9412
  268MOL0     C36094   2.873   7.550   9.026 -0.5211 -0.1390  0.7605
  268MOL0     N36095   2.362   7.240   9.658 -0.5101 -0.7992 -0.0089
  268MOL0     N36096   2.282   7.160   9.727  0.2441 -0.5823 -0.3945
  268MOL0     C36097   1.145   7.074  10.146  0.4587  0.0279 -0.3124
  268MOL0     C36098   1.086   7.164  10.231  0.2060 -0.2829  0.3081
  268MOL0     C36099   1.045   7.563  10.454  0.6907 -0.4263 -0.3066
  268MOL0     C36100   1.024   7.496  10.582 -0.9053  0.1692 -0.9753
  268MOL0     C36101   0.976   7.579  10.689  0.4187  0.0345  0.6685
  268MOL0     C36102   0.938   7.708  10.675  0.2377 -0.0686  0.4087
  268MOL0     O36103   0.901   7.777  10.790  0.6485 -0.4685 -0.1033
  268MOL0     C36104   0.952   7.913  10.801  0.3076 -0.3139  0.0751
  268MOL0     C36105   0.991   7.948  10.951  0.7893  0.3029 -1.1225
  268MOL0     C36106   0.978   8.094  10.985  0.8536  0.5716 -0.2469
  268MOL0     C36107   1.017   8.143  11.125  0.2018  0.2774  0.3396
  268MOL0     C36108   0.898   8.178  11.211 -0.2023  0.5862 -0.5653
  268MOL0     C36109   0.793   8.203  11.274 -0.3432  0.2535  0.4694
  268MOL0     C36110   0.955   7.761  10.551 -0.1681 -0.0223 -0.7490
  268MOL0     C36111   1.008   7.697  10.442 -0.4314  0.6390 -0.6834
  268MOL0     C36112   1.001   7.766  10.305  0.6126  0.9545 -0.0098
  268MOL0     H36113   1.345   7.367  10.299  0.8937 -1.0642 -0.4566
  268MOL0     H36114   1.457   7.212  10.134  0.6308 -1.2610  1.2508
  268MOL0     H36115   1.193   6.959   9.873  0.3123 -3.6552  0.7512
  268MOL0     H36116   1.305   7.093   9.845 -0.3238  0.1135 -0.2570
  268MOL0     H36117   1.353   6.908   9.698  0.9792 -0.2695 -0.5600
  268MOL0     H36118   1.404   6.819   9.845  0.6704  0.5636  2.0412
  268MOL0     H36119   1.578   7.004   9.875  1.0867  1.4143 -1.0014
  268MOL0     H36120   1.524   7.085   9.732 -1.7317  0.0769  0.1651
  268MOL0     H36121   1.662   6.809   9.735  1.2568  0.5349 -0.8343
  268MOL0     H36122   1.606   6.878   9.584 -0.8562 -0.2325  0.4769
  268MOL0     H36123   1.825   6.948   9.580 -0.7048  0.7293 -1.0938
  268MOL0     H36124   1.733   7.089   9.640 -2.2243 -0.9844 -1.2260
  268MOL0     H36125   1.798   7.039   9.863 -4.1289 -0.4412 -3.8142
  268MOL0     H36126   1.906   6.908   9.824  4.8816  2.2134  0.9114
  268MOL0     H36127   2.015   7.151   9.824 -1.0790  2.3062 -0.7807
  268MOL0     H36128   1.936   7.174   9.673 -1.1477 -0.0723  0.3309
  268MOL0     H36129   2.136   6.937   9.753  0.1076 -0.0155  0.0423
  268MOL0     H36130   2.056   6.944   9.598  3.3085 -1.4234 -0.1209
  268MOL0     H36131   2.148   7.144   9.438 -0.6736  1.4710  0.7142
  268MOL0     H36132   2.327   7.318   9.329  1.1644 -2.7158 -0.7169
  268MOL0     H36133   2.385   7.422   9.464 -2.0428  0.9136 -0.0050
  268MOL0     H36134   2.550   7.213   9.488  1.1308 -1.8942 -1.1077
  268MOL0     H36135   2.509   7.171   9.326  0.9742 -0.2350 -0.2542
  268MOL0     H36136   2.724   7.286   9.338  0.5591 -0.4760  2.1093
  268MOL0     H36137   2.661   7.422   9.415  0.6878 -0.7151  0.5206
  268MOL0     H36138   2.520   7.491   9.232 -0.3500 -0.2955  1.2480
  268MOL0     H36139   2.544   7.355   9.129 -0.0784 -0.9744  1.4945
  268MOL0     H36140   2.548   7.617   9.056 -0.9819 -2.1072 -1.7330
  268MOL0     H36141   2.595   7.784   8.875 -0.6643  0.8461  3.3316
  268MOL0     H36142   3.237   7.897   8.733  1.3952  2.7975 -0.1090
  268MOL0     H36143   3.345   8.064   8.581  0.0985  0.5512 -1.0775
  268MOL0     H36144   3.226   8.335   8.243 -0.8481  2.3519  0.0402
  268MOL0     H36145   3.083   8.243   8.273  0.7597  1.5355 -1.0852
  268MOL0     H36146   3.050   8.451   8.388  1.9698 -0.3847 -3.2518
  268MOL0     H36147   3.084   8.341   8.518 -0.5415 -2.1891 -0.9562
  268MOL0     H36148   3.307   8.425   8.536  1.5500  1.7170 -0.3327
  268MOL0     H36149   3.304   8.529   8.397  1.3696 -0.7153  0.9858
  268MOL0     H36150   3.104   8.553   8.624 -0.0288  1.1795 -0.3254
  268MOL0     H36151   3.143   8.665   8.496 -0.9021 -1.3101 -0.8545
  268MOL0     H36152   3.313   8.606   8.741  0.2721  1.1659  0.7023
  268MOL0     H36153   3.238   8.750   8.691  0.6657  0.3488  0.9063
  268MOL0     H36154   3.471   8.603   8.529  2.2079  0.7552  1.6465
  268MOL0     H36155   3.399   8.759   8.483 -2.2672 -1.0188 -0.4651
  268MOL0     H36156   3.565   8.699   8.723  0.5396  0.8301 -0.8566
  268MOL0     H36157   3.474   8.848   8.691 -1.5969 -1.0801 -0.0762
  268MOL0     H36158   3.668   8.760   8.467 -0.0326 -1.4492  0.7332
  268MOL0     H36159   3.591   8.914   8.494  0.0587 -1.0509 -3.5215
  268MOL0     H36160   2.998   8.086   8.362 -1.0769  1.5084  2.5849
  268MOL0     H36161   2.865   7.936   8.504 -0.2056 -0.2278 -0.3507
  268MOL0     H36162   3.016   7.634   8.877  1.3909 -1.4074  0.5013
  268MOL0     H36163   2.953   7.492   9.071  0.2214 -0.5406 -0.9773
  268MOL0     H36164   1.083   6.997  10.101 -0.7289  0.2085  0.9473
  268MOL0     H36165   0.982   7.152  10.256  0.4037  1.0964  1.9598
  268MOL0     H36166   1.042   7.389  10.591  2.0129  0.4876 -1.9899
  268MOL0     H36167   0.966   7.529  10.785  2.9276  0.5930  1.2874
  268MOL0     H36168   0.868   7.980  10.776 -1.2349 -1.7185  1.2389
  268MOL0     H36169   1.037   7.937  10.737  1.4409 -0.0791  1.6193
  268MOL0     H36170   1.099   7.933  10.956  1.2039  2.6087 -1.9240
  268MOL0     H36171   0.926   7.894  11.020  0.5197  0.7774 -0.9978
  268MOL0     H36172   0.872   8.113  10.964  0.6054 -0.8547 -0.3792
  268MOL0     H36173   1.038   8.155  10.916 -0.1358  2.3485  0.3795
  268MOL0     H36174   1.078   8.067  11.174  2.9173  2.2431  0.2597
  268MOL0     H36175   1.081   8.231  11.112  1.2503 -0.3906  0.8748
  268MOL0     H36176   0.716   8.247  11.333  0.8484 -0.6699  2.8415
  268MOL0     H36177   0.928   7.866  10.551 -1.4738 -0.2431  2.2893
  268MOL0     H36178   1.099   7.762  10.256  0.8013 -2.2884  0.4329
  268MOL0     H36179   0.945   7.713  10.228  0.7374 -0.1325  0.6291
  268MOL0     H36180   0.969   7.870  10.322  1.3451  1.4216 -1.3386
  269MOL0     O36181   8.270   8.724   6.800 -0.1312 -0.1789  0.0650
  269MOL0     C36182   8.341   8.674   6.715 -0.4033 -1.0921  1.2383
  269MOL0     O36183   8.306   8.618   6.595 -0.3427 -0.4671  0.4721
  269MOL0     C36184   8.167   8.598   6.582 -0.0223  0.0689  0.4071
  269MOL0     C36185   8.124   8.472   6.600 -0.0157  0.5050 -0.4859
  269MOL0     C36186   7.996   8.431   6.560  0.4384  0.0019  0.2090
  269MOL0     C36187   7.910   8.523   6.498  0.2872 -0.5898 -1.2036
  269MOL0     O36188   7.783   8.468   6.453 -0.4732 -0.1976 -0.8299
  269MOL0     C36189   7.734   8.520   6.326  0.6090 -0.1003  0.1184
  269MOL0     C36190   7.593   8.460   6.304 -0.1579  0.0150  0.0254
  269MOL0     C36191   7.496   8.508   6.411 -0.8026 -0.8913 -0.2501
  269MOL0     C36192   7.353   8.466   6.385 -0.1788 -0.0955 -0.5653
  269MOL0     C36193   7.276   8.460   6.513 -1.0919  0.2503  0.1206
  269MOL0     C36194   7.262   8.312   6.561  0.0069  0.4074 -0.3222
  269MOL0     C36195   7.161   8.225   6.485  0.6398  0.8993 -0.1071
  269MOL0     C36196   7.018   8.267   6.499  0.2025 -0.2833  0.1022
  269MOL0     N36197   6.937   8.233   6.383  0.4317 -0.5103  0.3303
  269MOL0     C36198   6.937   8.299   6.261 -0.0481 -1.1645  0.1902
  269MOL0     C36199   6.829   8.239   6.205  1.1053 -0.3011  0.2282
  269MOL0     C36200   6.777   8.279   6.066 -0.2700  0.4172  0.2068
  269MOL0     C36201   6.623   8.247   6.045 -0.1677  0.4994  0.1516
  269MOL0     C36202   6.548   8.313   6.149 -0.2596 -0.1476 -0.1895
  269MOL0     C36203   6.421   8.247   6.178 -0.7396  0.0051 -0.1948
  269MOL0     O36204   6.313   8.335   6.224 -0.0404  0.3249 -0.5794
  269MOL0     C36205   6.191   8.287   6.251  0.5142  0.4711  0.1393
  269MOL0     C36206   6.086   8.363   6.220  0.3066 -0.5264 -0.2982
  269MOL0     C36207   5.959   8.314   6.251  0.5998 -0.6442 -0.5504
  269MOL0     C36208   5.940   8.202   6.328 -0.9766  0.0700  0.0929
  269MOL0     C36209   5.811   8.171   6.379  0.4802 -0.1359 -0.2081
  269MOL0     O36210   5.706   8.254   6.353  0.1038  0.4932  0.2465
  269MOL0     C36211   5.585   8.218   6.400 -0.5365 -0.0761  0.0571
  269MOL0     C36212   5.549   8.199   6.533 -1.0358  0.9152  0.0119
  269MOL0     C36213   5.424   8.150   6.577 -0.0856  0.3683  0.2030
  269MOL0     C36214   5.327   8.120   6.483 -0.7169  0.6477  0.4709
  269MOL0     O36215   5.210   8.069   6.543 -0.4558  0.5948  0.5134
  269MOL0     C36216   5.099   8.059   6.450  1.1466  0.3494 -0.0808
  269MOL0     C36217   4.969   8.043   6.527 -0.3385 -0.3485  0.3884
  269MOL0     C36218   4.860   8.104   6.440  0.0081 -0.4291  0.6332
  269MOL0     C36219   4.733   8.116   6.522 -0.5077 -0.3986  0.4407
  269MOL0     C36220   4.740   8.232   6.622  0.4189 -0.1331 -0.6695
  269MOL0     C36221   4.602   8.279   6.658  0.4312 -0.3396  0.2967
  269MOL0     C36222   4.512   8.358   6.557 -0.8355 -0.2133  0.7646
  269MOL0     C36223   4.373   8.336   6.613  0.5169 -0.2257 -0.0500
  269MOL0    Cl36224   4.255   8.410   6.495 -0.5941  0.2186 -0.8637
  269MOL0     C36225   5.353   8.141   6.349  1.1456 -0.1887 -0.8427
  269MOL0     C36226   5.481   8.189   6.311  0.2820  0.2372  0.0048
  269MOL0     O36227   5.810   8.068   6.450 -0.4106  0.4875 -0.2659
  269MOL0     C36228   6.052   8.130   6.371 -0.1671 -0.1435  0.4265
  269MOL0     C36229   6.177   8.174   6.332 -0.4893  0.4102  0.1338
  269MOL0     N36230   6.782   8.132   6.276  0.6596  0.3544  0.2869
  269MOL0     N36231   6.842   8.128   6.384  0.1970 -0.0220 -0.7924
  269MOL0     C36232   7.947   8.659   6.481  0.0341 -0.6381 -0.0340
  269MOL0     C36233   8.077   8.695   6.525  0.0741  0.2578 -0.1070
  269MOL0     C36234   8.480   8.658   6.748  0.5848 -0.1733 -0.5533
  269MOL0     C36235   8.511   8.546   6.831  0.3850 -1.6956 -0.2882
  269MOL0     C36236   8.645   8.537   6.879  0.0212 -0.3256 -0.6388
  269MOL0     C36237   8.745   8.625   6.843  0.1044  0.8021 -0.6314
  269MOL0     O36238   8.878   8.613   6.870  0.5657 -0.8519 -0.1528
  269MOL0     C36239   8.902   8.564   7.006  0.1510  0.2262 -0.0663
  269MOL0     C36240   9.042   8.606   7.046  0.3971 -0.1339  0.4614
  269MOL0     C36241   9.041   8.749   7.110 -0.4210  0.4578 -0.1021
  269MOL0     C36242   9.177   8.781   7.161  0.4672 -0.5584 -0.3520
  269MOL0     C36243   9.289   8.764   7.070  0.5454  0.8368 -1.1012
  269MOL0     C36244   9.368   8.746   6.984  0.5282 -0.3729  0.3461
  269MOL0     C36245   8.708   8.727   6.764  0.1604 -0.7875 -1.0436
  269MOL0     C36246   8.582   8.745   6.715 -0.3570  0.2570  0.5427
  269MOL0     C36247   8.560   8.866   6.621 -0.0466  0.0221 -0.2500
  269MOL0     H36248   8.200   8.400   6.631 -1.2567 -0.1650  1.1862
  269MOL0     H36249   7.969   8.326   6.563  1.4483 -0.3204  4.0501
  269MOL0     H36250   7.733   8.629   6.323 -0.2421 -0.1192 -2.0760
  269MOL0     H36251   7.804   8.470   6.259  0.1613 -1.3820  0.5826
  269MOL0     H36252   7.601   8.351   6.300  2.1076  0.0210  1.8385
  269MOL0     H36253   7.562   8.501   6.208 -2.9117  0.6728  1.0800
  269MOL0     H36254   7.498   8.617   6.414  3.6428 -0.8154  0.9858
  269MOL0     H36255   7.527   8.455   6.502  0.2229 -1.7265 -1.0491
  269MOL0     H36256   7.298   8.542   6.328 -1.5603 -1.4084 -1.0456
  269MOL0     H36257   7.342   8.374   6.327 -4.2419  0.2676 -0.6509
  269MOL0     H36258   7.317   8.519   6.596  0.2982 -1.1533  0.4789
  269MOL0     H36259   7.172   8.493   6.504 -0.6919  1.5240 -0.0207
  269MOL0     H36260   7.361   8.266   6.553  0.6273  1.1682  2.1962
  269MOL0     H36261   7.233   8.317   6.666 -3.1685 -0.1875 -1.0769
  269MOL0     H36262   7.179   8.121   6.515 -1.4373  0.6309  0.4043
  269MOL0     H36263   7.184   8.206   6.380 -1.5283 -2.1927 -0.1744
  269MOL0     H36264   6.986   8.201   6.580 -0.4887  1.0630  0.9528
  269MOL0     H36265   7.010   8.372   6.529  1.4967  0.0723 -0.7190
  269MOL0     H36266   7.004   8.371   6.216 -1.4287 -0.5838 -0.9839
  269MOL0     H36267   6.803   8.385   6.053  4.6005 -0.1688  2.5934
  269MOL0     H36268   6.830   8.213   5.997 -1.1401 -0.6705  0.5580
  269MOL0     H36269   6.591   8.276   5.945  3.9062  1.1269 -1.1551
  269MOL0     H36270   6.615   8.138   6.050  1.5503  0.3299 -0.2144
  269MOL0     H36271   6.531   8.417   6.119 -0.5980 -0.1718 -0.0915
  269MOL0     H36272   6.605   8.318   6.242 -1.6405  1.6068  0.6310
  269MOL0     H36273   6.438   8.173   6.257 -0.1881  2.7452  2.4164
  269MOL0     H36274   6.382   8.190   6.093 -1.4416 -3.1011  2.0065
  269MOL0     H36275   6.098   8.467   6.190 -0.5039 -0.1058  0.7327
  269MOL0     H36276   5.871   8.366   6.215  2.4035  0.6553 -3.5172
  269MOL0     H36277   5.624   8.236   6.601  1.3185 -1.8966 -0.8675
  269MOL0     H36278   5.414   8.129   6.683  1.1343 -0.1883  0.2240
  269MOL0     H36279   5.099   8.156   6.400  1.0526  1.0250  1.1866
  269MOL0     H36280   5.099   7.974   6.381  0.3694 -0.5419  0.9656
  269MOL0     H36281   4.962   7.936   6.548  1.5554 -0.8862 -1.3498
  269MOL0     H36282   4.979   8.086   6.627 -0.0290  3.1450 -1.0199
  269MOL0     H36283   4.891   8.204   6.407  2.1931 -1.1484  0.4037
  269MOL0     H36284   4.841   8.042   6.352 -0.2364  0.0668  0.3292
  269MOL0     H36285   4.721   8.018   6.568  1.0331 -1.7680 -1.8571
  269MOL0     H36286   4.643   8.123   6.460 -1.4540  1.5285  1.9112
  269MOL0     H36287   4.804   8.313   6.585  1.8214 -0.3454  1.1339
  269MOL0     H36288   4.790   8.197   6.713  0.5142  0.3350 -0.5363
  269MOL0     H36289   4.540   8.202   6.705 -0.8685  0.4478 -0.0756
  269MOL0     H36290   4.619   8.348   6.741 -0.0516  2.3375 -1.6792
  269MOL0     H36291   4.530   8.328   6.453  2.2683  1.2216  0.7691
  269MOL0     H36292   4.541   8.463   6.570 -1.5907  0.0327  0.4822
  269MOL0     H36293   4.350   8.229   6.621 -0.8640  0.0767  0.1911
  269MOL0     H36294   4.360   8.393   6.706 -0.8950  4.8112 -2.9547
  269MOL0     H36295   5.280   8.122   6.271  0.9627 -0.7026 -0.5513
  269MOL0     H36296   5.500   8.206   6.205 -1.3118 -0.0875 -0.3627
  269MOL0     H36297   6.053   8.043   6.436  4.5631  0.3715  1.4511
  269MOL0     H36298   6.266   8.125   6.371 -1.0250 -0.9691 -0.3084
  269MOL0     H36299   7.883   8.736   6.440 -1.9605 -2.5240 -0.6681
  269MOL0     H36300   8.107   8.799   6.520  1.1762  0.0680  1.6938
  269MOL0     H36301   8.423   8.488   6.857 -0.8318 -0.0025 -0.4860
  269MOL0     H36302   8.683   8.456   6.941  2.3313  0.3823 -1.0090
  269MOL0     H36303   8.882   8.457   7.013 -4.6861  0.9599  1.2298
  269MOL0     H36304   8.831   8.602   7.081  1.7913  1.9831  0.6830
  269MOL0     H36305   9.100   8.613   6.954  0.8098  0.8600  0.7900
  269MOL0     H36306   9.083   8.537   7.121  1.5033  0.0737  0.0651
  269MOL0     H36307   8.970   8.753   7.194  0.0749 -1.1641  0.4348
  269MOL0     H36308   9.005   8.822   7.037 -2.9953 -0.4638  0.1219
  269MOL0     H36309   9.185   8.886   7.192 -3.0535 -0.4352  0.5152
  269MOL0     H36310   9.186   8.727   7.256  0.0425  1.1399  0.6965
  269MOL0     H36311   9.438   8.740   6.903  0.7123  2.3232  0.2297
  269MOL0     H36312   8.792   8.779   6.720  1.3082 -1.2029  0.5579
  269MOL0     H36313   8.655   8.912   6.593  1.7506 -2.3259  1.6167
  269MOL0     H36314   8.499   8.836   6.535 -1.5575  2.5614 -0.1594
  269MOL0     H36315   8.503   8.945   6.671  1.3186  0.9706 -0.1539
  270MOL0     O36316  10.648  10.078   5.931  0.1595  0.1001 -0.0370
  270MOL0     C36317  10.563  10.157   5.907  0.2347 -0.6212  0.1847
  270MOL0     O36318  10.588  10.286   5.879 -0.7373  0.3209 -0.0121
  270MOL0     C36319  10.722  10.323   5.888 -0.3030  0.9844 -1.0344
  270MOL0     C36320  10.772  10.380   6.012 -0.2983  0.3223  0.6659
  270MOL0     C36321  10.909  10.414   6.010  0.9273  0.9165 -0.7924
  270MOL0     C36322  10.999  10.381   5.907 -0.4168  0.5132  0.2899
  270MOL0     O36323  11.123  10.429   5.929 -0.6697 -0.5250  0.1353
  270MOL0     C36324  11.218  10.452   5.822  0.3138  0.7901 -1.2050
  270MOL0     C36325  11.353  10.488   5.883  0.6281 -0.4130 -0.2090
  270MOL0     C36326  11.433  10.379   5.955 -0.0115 -0.0709  0.0656
  270MOL0     C36327  11.570  10.417   5.996 -0.0742 -1.2370 -0.2879
  270MOL0     C36328  11.661  10.305   6.001  0.0364 -0.8971 -0.0044
  270MOL0     C36329  11.771  10.318   6.110  0.0362  0.3044 -0.1508
  270MOL0     C36330  11.831  10.182   6.136 -0.4158 -0.4719 -0.4291
  270MOL0     C36331  11.901  10.107   6.022  0.6955 -0.4852  0.4951
  270MOL0     N36332  12.022  10.172   5.957  0.3090 -0.0828  0.5300
  270MOL0     C36333  12.009  10.265   5.852  0.7454  0.7539  0.5692
  270MOL0     C36334  12.127  10.326   5.849  0.3498 -0.2038  0.2751
  270MOL0     C36335  12.165  10.439   5.757 -0.2339 -0.4823 -0.0910
  270MOL0     C36336  12.207  10.562   5.843 -0.0305 -0.6749 -0.7270
  270MOL0     C36337  12.207  10.683   5.748 -0.9556  1.2222 -0.1078
  270MOL0     C36338  12.347  10.736   5.746  0.1079  0.5809 -0.9243
  270MOL0     O36339  12.385  10.779   5.871  0.3193  0.1159 -0.0669
  270MOL0     C36340  12.513  10.842   5.883  0.0420  0.1716  0.1563
  270MOL0     C36341  12.594  10.876   5.777 -0.0904  0.0395  0.2945
  270MOL0     C36342  12.716  10.949   5.795 -0.1190 -0.3815  0.2417
  270MOL0     C36343  12.753  10.983   5.917 -1.1077 -0.0888 -0.2770
  270MOL0     C36344  12.873  11.076   5.940 -0.6214 -0.4019  1.1813
  270MOL0     O36345  12.931  11.129   5.828 -0.2689  0.5441  0.2206
  270MOL0     C36346  13.028  11.221   5.864  0.1500  0.7990 -0.7346
  270MOL0     C36347  13.006  11.356   5.851 -0.5391 -0.5942 -0.1396
  270MOL0     C36348  13.117  11.440   5.840  1.4523  0.2307 -0.3672
  270MOL0     C36349  13.245  11.397   5.861  0.2977 -0.3179 -0.7177
  270MOL0     O36350  13.362  11.478   5.850  0.5122 -0.0961  0.7081
  270MOL0     C36351  13.340  11.574   5.743  0.2223 -0.8017  0.0002
  270MOL0     C36352  13.470  11.654   5.710  0.2872 -0.0548 -0.6878
  270MOL0     C36353  13.528  11.619   5.568  0.2383 -0.2620  0.0022
  270MOL0     C36354  13.627  11.724   5.519 -1.0628 -0.0151  0.0526
  270MOL0     C36355  13.656  11.712   5.369 -0.1948 -0.1756 -0.3809
  270MOL0     C36356  13.739  11.825   5.323 -0.3066  0.2659  0.0144
  270MOL0     C36357  13.740  11.840   5.171 -0.1960 -0.2137 -1.1045
  270MOL0     C36358  13.813  11.962   5.116  0.5566  0.2460  0.0224
  270MOL0    Cl36359  13.770  12.122   5.203 -0.2490  0.2525 -0.1005
  270MOL0     C36360  13.261  11.261   5.887  0.3952 -0.0943 -0.1676
  270MOL0     C36361  13.156  11.172   5.891 -0.4501 -0.3940 -0.1454
  270MOL0     O36362  12.906  11.098   6.056 -0.2464 -0.9687  0.2058
  270MOL0     C36363  12.676  10.950   6.027  0.7670  0.3606  0.3919
  270MOL0     C36364  12.551  10.875   6.011 -0.6476 -0.1181  0.5928
  270MOL0     N36365  12.211  10.274   5.942 -0.1684 -0.2288 -0.1443
  270MOL0     N36366  12.141  10.186   6.016 -0.3907  0.4589 -0.3004
  270MOL0     C36367  10.950  10.325   5.793  0.4230 -0.4190 -0.3007
  270MOL0     C36368  10.813  10.293   5.781 -0.3970  0.1519 -1.2664
  270MOL0     C36369  10.428  10.115   5.923  0.0656  0.8393  0.4089
  270MOL0     C36370  10.337  10.183   5.834  0.1219 -0.5802 -0.0381
  270MOL0     C36371  10.201  10.160   5.844  0.1177  0.3621 -0.1288
  270MOL0     C36372  10.159  10.059   5.927  1.2283 -0.4543 -1.3089
  270MOL0     O36373  10.022  10.024   5.946 -0.4170  0.0284 -0.1069
  270MOL0     C36374   9.917  10.108   5.891  0.5389  0.5830  0.4347
  270MOL0     C36375   9.792  10.100   5.971  0.1078 -0.8287  0.5398
  270MOL0     C36376   9.684  10.182   5.905 -0.1055 -0.1236  0.1345
  270MOL0     C36377   9.546  10.163   5.984 -0.7474  0.2457  0.0888
  270MOL0     C36378   9.425  10.216   5.923  0.5284  0.2433  0.8102
  270MOL0     C36379   9.317  10.254   5.880  0.5161 -0.2325  0.5265
  270MOL0     C36380  10.246   9.985   6.007 -0.9288 -0.3604 -0.0668
  270MOL0     C36381  10.376  10.009   6.010 -0.3628  0.2859 -0.0884
  270MOL0     C36382  10.462   9.919   6.112 -0.1206 -0.3058  0.2370
  270MOL0     H36383  10.714  10.394   6.103 -0.9066 -1.6197  0.6276
  270MOL0     H36384  10.950  10.457   6.101 -0.4215 -0.4533  0.5229
  270MOL0     H36385  11.222  10.356   5.770 -2.2220 -0.2989  0.4738
  270MOL0     H36386  11.177  10.531   5.758 -2.4693  0.3365 -0.1160
  270MOL0     H36387  11.343  10.571   5.954 -0.5588 -0.3722 -0.3974
  270MOL0     H36388  11.410  10.509   5.792  0.4620 -1.8452 -0.6737
  270MOL0     H36389  11.432  10.291   5.890 -0.9388  0.3734 -0.5490
  270MOL0     H36390  11.365  10.352   6.036  0.4326  1.1758  0.8814
  270MOL0     H36391  11.619  10.503   5.949 -1.9768 -1.3758 -2.6654
  270MOL0     H36392  11.562  10.456   6.098  0.5826  2.1051 -1.3861
  270MOL0     H36393  11.606  10.223   6.046 -1.3829  0.7850  1.5003
  270MOL0     H36394  11.704  10.274   5.905 -0.9761 -3.4347  0.2946
  270MOL0     H36395  11.846  10.393   6.084  0.6961 -0.4681 -0.5387
  270MOL0     H36396  11.727  10.346   6.206 -1.0363 -1.2231 -0.1553
  270MOL0     H36397  11.751  10.122   6.177  1.6834 -2.9502  0.2849
  270MOL0     H36398  11.902  10.190   6.218 -1.9987 -1.6908  1.1300
  270MOL0     H36399  11.927  10.005   6.052 -0.3758 -2.5949 -4.7013
  270MOL0     H36400  11.823  10.100   5.945  1.1722 -2.1272  0.1220
  270MOL0     H36401  11.921  10.287   5.793  0.8279 -2.0781 -0.7758
  270MOL0     H36402  12.237  10.397   5.686  0.9069  2.1936 -0.6624
  270MOL0     H36403  12.072  10.463   5.704 -2.0333 -0.4077  2.8956
  270MOL0     H36404  12.130  10.583   5.917 -0.6652 -2.1808 -0.9199
  270MOL0     H36405  12.300  10.545   5.899 -1.8481 -3.1490  1.8197
  270MOL0     H36406  12.134  10.758   5.778  0.3077  1.1486  3.5951
  270MOL0     H36407  12.180  10.653   5.646  1.6699  3.5905 -1.6511
  270MOL0     H36408  12.339  10.821   5.677 -3.5470  0.9513 -0.2614
  270MOL0     H36409  12.420  10.670   5.698 -1.2990  1.1773 -4.2310
  270MOL0     H36410  12.576  10.833   5.679  1.9204 -0.5650  0.1347
  270MOL0     H36411  12.787  10.967   5.715  2.1982  2.5187  2.7088
  270MOL0     H36412  12.909  11.399   5.826 -0.8313 -1.3580 -0.3580
  270MOL0     H36413  13.090  11.542   5.813 -1.1066 -0.2933 -0.0149
  270MOL0     H36414  13.308  11.525   5.650  2.0420 -1.8681 -0.1258
  270MOL0     H36415  13.267  11.651   5.768  0.6071 -0.3432 -0.2718
  270MOL0     H36416  13.445  11.760   5.706  2.5791  0.5597 -0.5195
  270MOL0     H36417  13.544  11.633   5.789  0.7164  2.2480 -0.4185
  270MOL0     H36418  13.573  11.519   5.573  0.6396 -0.0190  2.6766
  270MOL0     H36419  13.442  11.603   5.503 -1.4080 -0.3560  2.0983
  270MOL0     H36420  13.722  11.720   5.572 -2.3934 -0.1300  2.5661
  270MOL0     H36421  13.586  11.821   5.550 -0.4116 -1.4310  6.6441
  270MOL0     H36422  13.560  11.710   5.317  0.0430  2.5120 -1.0996
  270MOL0     H36423  13.703  11.616   5.349  0.3281 -0.7477  2.9654
  270MOL0     H36424  13.705  11.919   5.367  1.1358  1.5200 -1.4535
  270MOL0     H36425  13.840  11.803   5.357  0.2759  0.9621 -1.2042
  270MOL0     H36426  13.639  11.855   5.132 -1.1555  1.6652  1.8021
  270MOL0     H36427  13.777  11.746   5.129 -1.5262 -1.0659 -0.4642
  270MOL0     H36428  13.922  11.949   5.115  0.5910  0.2921 -2.5295
  270MOL0     H36429  13.781  11.972   5.012  1.6601 -1.3802 -0.5160
  270MOL0     H36430  13.352  11.221   5.932  0.0513  1.3523  1.9956
  270MOL0     H36431  13.177  11.070   5.920  0.2208 -1.5476 -4.0345
  270MOL0     H36432  12.698  10.981   6.128 -0.6021 -1.6453  1.3785
  270MOL0     H36433  12.494  10.846   6.098 -2.1674  1.6049  0.2363
  270MOL0     H36434  11.008  10.305   5.703 -1.6752  0.7535 -1.9823
  270MOL0     H36435  10.778  10.240   5.693 -0.3376  0.7047 -1.6274
  270MOL0     H36436  10.369  10.266   5.771  0.4007  1.1407  2.2444
  270MOL0     H36437  10.132  10.217   5.783  0.6376  0.3023 -0.7861
  270MOL0     H36438   9.906  10.090   5.784  1.4021 -0.4776  0.5105
  270MOL0     H36439   9.947  10.214   5.888  1.8243  0.2219 -2.1670
  270MOL0     H36440   9.808  10.145   6.069 -1.7993 -1.0693  0.9938
  270MOL0     H36441   9.772   9.992   5.973  0.2683 -1.1917 -4.4872
  270MOL0     H36442   9.679  10.152   5.800 -1.4359  0.9742 -0.1450
  270MOL0     H36443   9.703  10.289   5.915 -1.7132 -0.0214  4.1035
  270MOL0     H36444   9.529  10.055   5.987 -1.6273  0.3766  0.2989
  270MOL0     H36445   9.550  10.203   6.086  1.0992  0.2268  0.0497
  270MOL0     H36446   9.224  10.274   5.830  1.1267 -0.8747 -0.9244
  270MOL0     H36447  10.201   9.911   6.072 -0.9520  1.2087  1.7902
  270MOL0     H36448  10.550   9.971   6.151 -0.6436  0.7808  0.0093
  270MOL0     H36449  10.405   9.888   6.200 -0.6375  0.8284  0.3135
  270MOL0     H36450  10.498   9.830   6.060  2.1808  0.6837 -0.0037
  271MOL0     O36451   9.873   5.957   8.173  0.3637 -0.0827 -0.0360
  271MOL0     C36452   9.843   6.020   8.069 -0.2814  0.3190 -0.2086
  271MOL0     O36453   9.939   6.088   7.994 -0.0555 -0.1633 -0.1985
  271MOL0     C36454  10.070   6.077   8.016  0.1797 -0.7044 -0.4945
  271MOL0     C36455  10.155   6.102   7.912  0.1728 -0.6501 -0.5923
  271MOL0     C36456  10.287   6.118   7.929  0.0432  0.0245  0.0177
  271MOL0     C36457  10.349   6.112   8.050 -0.1245 -0.5805 -0.4659
  271MOL0     O36458  10.481   6.145   8.040  0.5624 -0.0715 -0.0053
  271MOL0     C36459  10.565   6.116   8.154  0.3628 -0.1204 -0.7955
  271MOL0     C36460  10.704   6.108   8.099 -1.4436  0.3574 -0.9826
  271MOL0     C36461  10.753   6.241   8.041 -1.0224 -0.1559  0.7631
  271MOL0     C36462  10.899   6.229   7.987 -0.0008  0.3545  0.0472
  271MOL0     C36463  10.955   6.356   7.919 -0.2649 -0.5969 -0.2539
  271MOL0     C36464  11.100   6.346   7.867 -0.5743  0.6487 -0.0541
  271MOL0     C36465  11.169   6.485   7.849 -0.3409  0.1692 -0.1065
  271MOL0     C36466  11.279   6.467   7.753 -0.4813  0.3856 -0.2649
  271MOL0     N36467  11.368   6.578   7.743  0.7101  0.2622 -0.8763
  271MOL0     C36468  11.478   6.591   7.823 -0.5267 -0.8902 -0.2051
  271MOL0     C36469  11.557   6.685   7.767  0.5470 -0.0546 -0.6511
  271MOL0     C36470  11.706   6.703   7.801  0.3040 -0.3419 -0.3756
  271MOL0     C36471  11.796   6.702   7.669  0.5870 -0.5489 -0.8266
  271MOL0     C36472  11.768   6.592   7.569 -0.8113  0.0277 -0.5692
  271MOL0     C36473  11.733   6.453   7.619  0.0927  0.2238 -0.2178
  271MOL0     O36474  11.727   6.370   7.505  0.2496 -0.1142 -0.1981
  271MOL0     C36475  11.595   6.326   7.466 -0.9567  1.2066 -0.0440
  271MOL0     C36476  11.502   6.416   7.421 -0.3707  0.2436 -0.0996
  271MOL0     C36477  11.376   6.368   7.381 -0.2777  0.3036 -0.5947
  271MOL0     C36478  11.333   6.235   7.401  0.7347 -0.0863  0.3781
  271MOL0     C36479  11.195   6.198   7.366 -0.3243  0.1511  0.1415
  271MOL0     O36480  11.129   6.268   7.272  0.5915  0.4667 -0.2505
  271MOL0     C36481  10.997   6.230   7.242  0.6077  0.1569  0.8923
  271MOL0     C36482  10.882   6.240   7.331 -0.0286  0.4368  0.0636
  271MOL0     C36483  10.754   6.235   7.273 -0.4255  0.4534 -0.1106
  271MOL0     C36484  10.736   6.213   7.136 -0.0142 -0.3280  0.6528
  271MOL0     O36485  10.610   6.231   7.091  0.1978 -0.3897  0.0680
  271MOL0     C36486  10.580   6.168   6.965  0.1983  0.1069 -0.5966
  271MOL0     C36487  10.439   6.180   6.910 -0.9576  0.0523  0.0877
  271MOL0     C36488  10.348   6.115   7.011  0.3578  0.0052 -0.5619
  271MOL0     C36489  10.208   6.149   6.988  0.0762  0.0843  0.5596
  271MOL0     C36490  10.175   6.298   6.982  0.7522 -0.0832 -0.6731
  271MOL0     C36491  10.021   6.320   7.008 -0.8094 -0.8921  0.3268
  271MOL0     C36492   9.972   6.469   7.004 -0.1908 -0.4328 -0.6440
  271MOL0     C36493   9.938   6.521   6.862  0.3885  0.3320  0.3179
  271MOL0    Cl36494  10.077   6.534   6.752 -0.2253  0.1012  0.1666
  271MOL0     C36495  10.848   6.183   7.056 -1.2701 -0.3597  0.1076
  271MOL0     C36496  10.974   6.193   7.113 -0.1206 -0.4522  0.1707
  271MOL0     O36497  11.146   6.107   7.436 -0.3531 -0.0586  0.1284
  271MOL0     C36498  11.424   6.146   7.452 -0.2850 -0.3997 -0.3921
  271MOL0     C36499  11.554   6.193   7.484 -1.1501  0.0440 -0.0554
  271MOL0     N36500  11.491   6.738   7.652 -0.5116  1.4052 -0.7886
  271MOL0     N36501  11.386   6.668   7.638  0.3165  0.1359  0.7274
  271MOL0     C36502  10.269   6.060   8.158  0.1027 -0.3793 -0.6241
  271MOL0     C36503  10.133   6.055   8.145 -0.1054  0.2715  0.1555
  271MOL0     C36504   9.697   6.015   8.032 -0.2052 -0.0012  0.8242
  271MOL0     C36505   9.599   5.976   8.120  0.7770 -0.2662 -0.4865
  271MOL0     C36506   9.462   5.972   8.087  0.4451 -0.0617 -0.3321
  271MOL0     C36507   9.419   6.018   7.966  0.5800  0.3276 -0.3928
  271MOL0     O36508   9.286   6.016   7.949  0.0847  0.2036 -0.0428
  271MOL0     C36509   9.255   5.901   7.872 -0.1455  0.0516 -0.2173
  271MOL0     C36510   9.160   5.811   7.951 -0.3713  0.5519 -1.1375
  271MOL0     C36511   9.111   5.694   7.885 -0.0442  0.1018 -0.2863
  271MOL0     C36512   9.008   5.620   7.973  0.3500  0.1722 -0.8816
  271MOL0     C36513   8.989   5.481   7.928  0.5436  0.3273  0.0412
  271MOL0     C36514   8.967   5.373   7.888  0.0732 -0.0275 -0.0900
  271MOL0     C36515   9.511   6.042   7.864 -0.0884 -0.0837 -0.3073
  271MOL0     C36516   9.652   6.046   7.898  0.1816  0.5925 -0.0478
  271MOL0     C36517   9.733   6.079   7.783 -0.3972  0.7672  0.2851
  271MOL0     H36518  10.103   6.121   7.819 -2.5597 -0.1977  0.9057
  271MOL0     H36519  10.352   6.128   7.843 -0.2508  0.8777 -0.1083
  271MOL0     H36520  10.545   6.188   8.235  0.4600 -4.0035  3.0820
  271MOL0     H36521  10.547   6.017   8.197  1.0284  0.3156  0.5523
  271MOL0     H36522  10.699   6.028   8.025  0.9451 -0.7150 -0.0862
  271MOL0     H36523  10.763   6.092   8.190 -3.0317  2.9413  0.6547
  271MOL0     H36524  10.757   6.315   8.122 -0.9814  2.5276 -1.5230
  271MOL0     H36525  10.685   6.274   7.962  0.0055  4.0483  1.3480
  271MOL0     H36526  10.957   6.204   8.077 -0.5314 -1.3604 -0.0513
  271MOL0     H36527  10.892   6.152   7.910  0.8918  0.4143 -0.1028
  271MOL0     H36528  10.891   6.388   7.837  0.2180 -0.2771 -0.5082
  271MOL0     H36529  10.952   6.436   7.993 -2.0456  0.5346 -1.4696
  271MOL0     H36530  11.161   6.287   7.935 -0.6900 -1.2260 -1.4706
  271MOL0     H36531  11.100   6.295   7.770 -0.8666  0.0940  0.2333
  271MOL0     H36532  11.208   6.514   7.947  1.2221 -1.4532 -0.1884
  271MOL0     H36533  11.092   6.562   7.841  0.9405  1.6367  0.9791
  271MOL0     H36534  11.329   6.376   7.788 -2.8911  0.6921  5.0490
  271MOL0     H36535  11.237   6.465   7.652  0.5641 -0.3172 -0.6981
  271MOL0     H36536  11.505   6.518   7.899 -1.6148 -0.4142  0.6622
  271MOL0     H36537  11.725   6.796   7.855  2.5923 -1.0829  0.2008
  271MOL0     H36538  11.735   6.613   7.858 -0.3915 -0.4178 -0.1347
  271MOL0     H36539  11.774   6.797   7.620 -3.1231  0.6939  2.6856
  271MOL0     H36540  11.903   6.702   7.689  1.2377  5.1300 -2.5696
  271MOL0     H36541  11.859   6.571   7.512 -0.8891 -6.3631  0.8960
  271MOL0     H36542  11.701   6.640   7.498 -0.8341 -0.0196 -0.5808
  271MOL0     H36543  11.642   6.445   7.679  1.1365  2.6919  1.8851
  271MOL0     H36544  11.804   6.410   7.690 -0.0826  1.1115  0.5205
  271MOL0     H36545  11.531   6.517   7.394 -2.1251  0.3445 -1.8393
  271MOL0     H36546  11.313   6.441   7.332  0.0503  1.3591  0.5038
  271MOL0     H36547  10.905   6.260   7.435  2.8090  3.5621 -0.9624
  271MOL0     H36548  10.669   6.255   7.338 -0.9036 -4.5131  1.2704
  271MOL0     H36549  10.648   6.205   6.888  1.6652 -2.9249 -0.9172
  271MOL0     H36550  10.611   6.063   6.975 -0.2191  0.0323 -0.0168
  271MOL0     H36551  10.414   6.285   6.893 -0.2313  0.3910  1.0449
  271MOL0     H36552  10.439   6.127   6.814  0.9945 -0.4967  0.3490
  271MOL0     H36553  10.369   6.008   7.001 -1.7534 -0.6975  1.6226
  271MOL0     H36554  10.370   6.143   7.114 -3.0859 -1.5694  0.7342
  271MOL0     H36555  10.159   6.106   7.076  0.0943 -3.1009 -0.8534
  271MOL0     H36556  10.169   6.101   6.898  0.9413  1.4308 -0.5797
  271MOL0     H36557  10.207   6.324   6.881 -1.6179 -0.9878 -1.7366
  271MOL0     H36558  10.229   6.352   7.060 -1.6361  0.9609  0.3578
  271MOL0     H36559   9.958   6.264   6.938 -0.3573  0.1950 -0.9843
  271MOL0     H36560   9.991   6.287   7.108 -0.3785 -1.2198  0.3514
  271MOL0     H36561  10.052   6.537   7.036 -0.4792  0.2242 -1.2970
  271MOL0     H36562   9.882   6.480   7.065  1.1598 -0.5398  1.5018
  271MOL0     H36563   9.878   6.446   6.809  0.0536  0.7940  0.0442
  271MOL0     H36564   9.885   6.616   6.864 -2.6739 -1.1753 -1.6146
  271MOL0     H36565  10.836   6.159   6.951 -1.7606 -0.6729  0.2328
  271MOL0     H36566  11.060   6.183   7.047  0.4744  1.6691  0.5487
  271MOL0     H36567  11.395   6.043   7.467 -5.8214  0.5572 -2.2645
  271MOL0     H36568  11.624   6.118   7.521 -1.2655  0.3002  0.7027
  271MOL0     H36569  10.315   6.055   8.256  0.2881  0.5980 -0.6522
  271MOL0     H36570  10.068   6.044   8.231 -0.0548 -1.6341 -0.0172
  271MOL0     H36571   9.631   5.935   8.216 -2.3425 -1.4353  0.1669
  271MOL0     H36572   9.393   5.927   8.157 -0.6400  1.9670  0.0087
  271MOL0     H36573   9.342   5.844   7.838  1.5728  1.7799  1.0634
  271MOL0     H36574   9.199   5.937   7.785  0.5356  1.8339  0.0331
  271MOL0     H36575   9.070   5.863   7.986 -0.0428  0.0803  0.4979
  271MOL0     H36576   9.213   5.782   8.042 -0.2105  0.0373 -1.3926
  271MOL0     H36577   9.195   5.626   7.871 -1.7249 -1.5800 -3.3320
  271MOL0     H36578   9.064   5.723   7.790 -1.2678  0.7622  0.4991
  271MOL0     H36579   9.045   5.623   8.076 -0.8929  1.5632 -0.4441
  271MOL0     H36580   8.914   5.676   7.974 -0.9164 -1.8753  0.6005
  271MOL0     H36581   8.934   5.272   7.870  1.9974 -0.0761 -4.8593
  271MOL0     H36582   9.478   6.061   7.763  0.4038 -2.3734 -0.9381
  271MOL0     H36583   9.678   6.055   7.691  0.3547 -0.8715  0.2277
  271MOL0     H36584   9.775   6.179   7.791  1.3470  0.1012 -0.1612
  271MOL0     H36585   9.822   6.015   7.782 -0.7190  0.2435 -1.8746
  272MOL0     O36586   7.005   2.157   7.739 -0.5965  0.4074  0.0663
  272MOL0     C36587   6.961   2.267   7.708  0.1923  0.4161 -0.2499
  272MOL0     O36588   7.030   2.343   7.605 -0.6652 -0.5977 -0.0221
  272MOL0     C36589   7.153   2.317   7.561 -0.1546  0.1035 -0.2200
  272MOL0     C36590   7.184   2.317   7.427 -0.3611 -0.3602  0.7262
  272MOL0     C36591   7.318   2.293   7.383  1.1243 -1.1693 -0.9038
  272MOL0     C36592   7.415   2.266   7.488 -0.4236  0.5446  0.7774
  272MOL0     O36593   7.547   2.243   7.465 -0.6704  0.0247  0.1338
  272MOL0     C36594   7.609   2.304   7.347 -0.2776  0.2350  0.2894
  272MOL0     C36595   7.755   2.318   7.377 -0.0036  0.1185 -0.2084
  272MOL0     C36596   7.826   2.370   7.247  0.0580  0.1244 -0.4658
  272MOL0     C36597   7.755   2.474   7.158  0.5750  1.0612  0.4197
  272MOL0     C36598   7.726   2.606   7.230  0.2093  0.1604 -0.1074
  272MOL0     C36599   7.692   2.732   7.148 -0.4997 -0.1773  1.1279
  272MOL0     C36600   7.630   2.851   7.231 -0.1323  0.1709 -0.4146
  272MOL0     C36601   7.717   2.894   7.353 -0.0014 -0.0280  1.3040
  272MOL0     N36602   7.856   2.915   7.315 -0.1128  0.7168 -0.9170
  272MOL0     C36603   7.912   3.006   7.219 -0.2554  0.2149  0.7919
  272MOL0     C36604   8.049   2.995   7.228  1.0960 -0.0978 -0.1590
  272MOL0     C36605   8.135   3.079   7.143 -0.2950  0.2174  0.0590
  272MOL0     C36606   8.275   3.085   7.195  0.1103 -1.1320  0.1534
  272MOL0     C36607   8.364   3.144   7.088 -1.0328  0.1326  0.0679
  272MOL0     C36608   8.508   3.108   7.138  0.0051  0.6304  0.2857
  272MOL0     O36609   8.558   3.203   7.237 -0.2253 -0.4008  0.4901
  272MOL0     C36610   8.692   3.206   7.277  0.0913  0.6869 -0.8636
  272MOL0     C36611   8.713   3.287   7.392  0.0255 -0.3675 -0.0893
  272MOL0     C36612   8.831   3.308   7.451  0.2341  0.3419  0.2488
  272MOL0     C36613   8.942   3.261   7.384 -0.5614  0.1954 -0.1983
  272MOL0     C36614   9.075   3.287   7.446 -0.3606  0.0819 -0.3015
  272MOL0     O36615   9.083   3.393   7.534  1.1281  0.9367 -0.3697
  272MOL0     C36616   9.208   3.424   7.576  0.0157 -0.7276  0.3347
  272MOL0     C36617   9.297   3.492   7.489 -0.3029  0.1039  0.5766
  272MOL0     C36618   9.430   3.524   7.525 -0.0627  0.4440  0.5450
  272MOL0     C36619   9.485   3.480   7.646  0.2109 -0.4827 -1.0747
  272MOL0     O36620   9.608   3.502   7.695  0.4200 -0.4149  0.8687
  272MOL0     C36621   9.691   3.595   7.617 -0.8493  0.5417 -0.0595
  272MOL0     C36622   9.829   3.594   7.690 -0.0736 -0.4912 -0.5970
  272MOL0     C36623   9.924   3.689   7.619  0.3065 -0.2456  0.2051
  272MOL0     C36624  10.056   3.715   7.695 -0.4805 -0.1435 -0.5681
  272MOL0     C36625  10.136   3.585   7.717  0.0180  0.4790 -0.8885
  272MOL0     C36626  10.175   3.511   7.586 -0.3667  0.5197  0.4814
  272MOL0     C36627  10.214   3.370   7.632 -0.1054  0.6085 -0.0440
  272MOL0     C36628  10.291   3.294   7.523 -0.5914  0.1919 -0.6106
  272MOL0    Cl36629  10.220   3.310   7.360 -0.1155  0.2464 -0.0718
  272MOL0     C36630   9.395   3.410   7.737  0.5593 -1.0684 -0.2595
  272MOL0     C36631   9.257   3.390   7.707  0.3887 -0.6667  0.2628
  272MOL0     O36632   9.171   3.218   7.413  0.6698 -0.6745  0.7341
  272MOL0     C36633   8.929   3.188   7.261 -0.6200  0.5952 -0.3857
  272MOL0     C36634   8.801   3.151   7.219 -0.2065 -0.6758  0.2722
  272MOL0     N36635   8.075   2.915   7.331  0.1877  0.1604  0.5330
  272MOL0     N36636   7.963   2.874   7.386 -0.4014  0.7722  0.4142
  272MOL0     C36637   7.377   2.256   7.628 -0.0664  0.5544 -0.2112
  272MOL0     C36638   7.243   2.286   7.661 -0.9452  0.0827 -0.7857
  272MOL0     C36639   6.838   2.324   7.758  0.9423 -0.2811  0.3452
  272MOL0     C36640   6.829   2.463   7.769 -0.4637  0.3883  0.5685
  272MOL0     C36641   6.716   2.527   7.804 -0.3170  0.8742  0.1206
  272MOL0     C36642   6.605   2.454   7.829 -1.4769  0.2622 -0.6009
  272MOL0     O36643   6.488   2.520   7.850 -1.1808  0.1634 -0.7340
  272MOL0     C36644   6.428   2.562   7.728 -0.7067 -0.3750 -1.1680
  272MOL0     C36645   6.303   2.477   7.711  0.5115 -0.2649  0.3350
  272MOL0     C36646   6.204   2.553   7.622  0.1939 -0.2268  0.1142
  272MOL0     C36647   6.070   2.485   7.614  0.9033 -0.0816 -0.1328
  272MOL0     C36648   5.991   2.532   7.506  0.0138  0.1812  0.3527
  272MOL0     C36649   5.918   2.569   7.417 -0.3135 -0.6501  1.1091
  272MOL0     C36650   6.610   2.317   7.837  0.1819  1.1069  0.5337
  272MOL0     C36651   6.724   2.245   7.792  0.0865 -0.5858 -0.3812
  272MOL0     C36652   6.703   2.095   7.758 -0.1275  0.2724 -0.3062
  272MOL0     H36653   7.103   2.333   7.357  1.1373  1.6260 -0.6697
  272MOL0     H36654   7.347   2.299   7.279  2.8106 -0.9488 -0.4598
  272MOL0     H36655   7.597   2.238   7.260 -3.0961  1.2066 -0.1599
  272MOL0     H36656   7.552   2.394   7.323 -1.4174 -0.3259  0.8589
  272MOL0     H36657   7.803   2.229   7.418 -1.1961 -0.3182  0.2974
  272MOL0     H36658   7.767   2.401   7.448  1.5005  0.7370 -1.1522
  272MOL0     H36659   7.861   2.288   7.184  2.7360  0.4008  0.5176
  272MOL0     H36660   7.908   2.432   7.286 -0.8990  0.5769  0.9250
  272MOL0     H36661   7.804   2.493   7.063 -0.8304  1.1628 -0.3143
  272MOL0     H36662   7.660   2.434   7.120 -0.8321  3.9932  0.5915
  272MOL0     H36663   7.635   2.583   7.285  0.2752  0.8596  0.3065
  272MOL0     H36664   7.810   2.625   7.298  0.2338 -0.5921  0.0774
  272MOL0     H36665   7.777   2.764   7.087 -1.9231  0.4341 -0.6334
  272MOL0     H36666   7.622   2.688   7.077  0.9090 -1.1126  0.2510
  272MOL0     H36667   7.542   2.814   7.284  2.1531 -2.0992  2.0322
  272MOL0     H36668   7.621   2.931   7.157  1.4626 -1.8817 -2.9805
  272MOL0     H36669   7.670   2.987   7.388 -0.2509  1.6052 -2.8073
  272MOL0     H36670   7.714   2.829   7.441  0.2711  1.1245  2.1862
  272MOL0     H36671   7.862   3.080   7.158  0.1971  0.7333  1.0332
  272MOL0     H36672   8.140   3.023   7.049  0.4386 -0.1483  0.3103
  272MOL0     H36673   8.088   3.175   7.119  0.6502  0.7106  0.1340
  272MOL0     H36674   8.270   3.160   7.275  1.0414  0.4860 -1.2534
  272MOL0     H36675   8.306   2.987   7.236  2.8667 -0.4817 -0.1606
  272MOL0     H36676   8.348   3.252   7.084  0.0398  0.2677 -1.4734
  272MOL0     H36677   8.343   3.095   6.993  1.9538 -3.3495  0.9677
  272MOL0     H36678   8.572   3.123   7.050 -1.7769 -1.0058 -1.3958
  272MOL0     H36679   8.514   3.002   7.166  0.9106  0.9897  1.5509
  272MOL0     H36680   8.622   3.327   7.435 -0.7031 -2.0568  0.0430
  272MOL0     H36681   8.824   3.387   7.525  1.0277  1.5806 -0.9419
  272MOL0     H36682   9.256   3.522   7.393 -0.1841  1.4115  0.9130
  272MOL0     H36683   9.488   3.575   7.449 -2.7068  0.1454 -1.8455
  272MOL0     H36684   9.708   3.569   7.512  0.2968 -0.3131  0.3159
  272MOL0     H36685   9.643   3.693   7.615  0.1295  1.2766  3.9368
  272MOL0     H36686   9.809   3.641   7.787  0.9615 -2.2098  0.5070
  272MOL0     H36687   9.868   3.492   7.689  2.2703  0.3584 -0.5242
  272MOL0     H36688   9.941   3.675   7.511 -0.6997  2.1282 -0.3222
  272MOL0     H36689   9.876   3.786   7.633  0.2775 -0.2088 -0.1364
  272MOL0     H36690  10.029   3.752   7.795 -1.7745 -2.9022  0.2074
  272MOL0     H36691  10.108   3.791   7.636  0.5178 -1.2081 -1.0990
  272MOL0     H36692  10.080   3.518   7.783 -0.3895 -0.0499 -1.7420
  272MOL0     H36693  10.229   3.614   7.766 -0.1090  0.8878 -0.8854
  272MOL0     H36694  10.086   3.507   7.523 -0.9801 -1.1787  1.3640
  272MOL0     H36695  10.260   3.551   7.531 -0.3796 -2.6909 -2.1805
  272MOL0     H36696  10.119   3.318   7.646 -0.8363  1.0889 -2.7504
  272MOL0     H36697  10.277   3.370   7.722 -2.0918  0.0837  1.4168
  272MOL0     H36698  10.394   3.330   7.509 -1.0620  1.9628  0.1294
  272MOL0     H36699  10.297   3.190   7.555  0.1706  1.7835  5.7621
  272MOL0     H36700   9.431   3.391   7.838  1.1323  0.4009 -0.1654
  272MOL0     H36701   9.200   3.346   7.788  3.6086  1.2439  3.8925
  272MOL0     H36702   9.019   3.166   7.204 -0.3347  2.1794 -0.5995
  272MOL0     H36703   8.784   3.074   7.144  0.5739 -0.8346  0.2483
  272MOL0     H36704   7.448   2.227   7.705  0.5280  1.0811 -0.5507
  272MOL0     H36705   7.212   2.272   7.764 -0.6332 -1.4528 -0.8771
  272MOL0     H36706   6.917   2.521   7.745  0.2218  0.1138  2.2451
  272MOL0     H36707   6.712   2.636   7.804 -0.8664  0.9064  2.2943
  272MOL0     H36708   6.498   2.576   7.645 -0.2859  1.8314 -0.4837
  272MOL0     H36709   6.382   2.657   7.757  0.8272 -0.5617  2.2867
  272MOL0     H36710   6.261   2.435   7.803  1.1338 -0.5513  0.4983
  272MOL0     H36711   6.333   2.385   7.660  2.0335  0.8797 -0.9438
  272MOL0     H36712   6.237   2.570   7.519  1.3740  1.3482  0.7171
  272MOL0     H36713   6.188   2.651   7.666  2.5458  2.5888 -4.4574
  272MOL0     H36714   6.100   2.379   7.611  1.0827 -0.0856  1.0325
  272MOL0     H36715   6.018   2.487   7.711 -2.2946  2.4312 -1.7443
  272MOL0     H36716   5.852   2.592   7.335 -0.2048 -2.3751  0.4976
  272MOL0     H36717   6.514   2.265   7.847  0.5776 -0.2355 -1.9256
  272MOL0     H36718   6.689   2.072   7.652  0.1977  1.7865 -0.6992
  272MOL0     H36719   6.781   2.034   7.803 -3.3830 -1.5454  3.5366
  272MOL0     H36720   6.615   2.062   7.815 -0.1997 -2.3760 -1.7868
  273MOL0     O36721   6.000   7.673   1.037  0.3392 -0.1194  1.2710
  273MOL0     C36722   5.949   7.744   0.953 -0.0395 -0.4397 -0.1209
  273MOL0     O36723   6.006   7.862   0.901  0.3692  0.9364  0.0899
  273MOL0     C36724   6.081   7.930   0.985 -0.3312  0.9123  0.0887
  273MOL0     C36725   6.028   8.033   1.064  0.5734  0.4346  0.2434
  273MOL0     C36726   6.111   8.114   1.143 -0.5674 -0.9684  0.1632
  273MOL0     C36727   6.247   8.100   1.157 -0.1800 -0.4031 -0.1702
  273MOL0     O36728   6.332   8.179   1.226 -0.5035  0.5027  0.2503
  273MOL0     C36729   6.277   8.254   1.338  0.3822  0.6223 -0.8037
  273MOL0     C36730   6.387   8.320   1.420 -0.3500  0.1448 -0.6308
  273MOL0     C36731   6.515   8.248   1.449  0.9518  0.3160  0.4731
  273MOL0     C36732   6.616   8.333   1.528  0.1386  0.9529  0.6044
  273MOL0     C36733   6.749   8.250   1.533  0.4948  0.5117 -0.2744
  273MOL0     C36734   6.864   8.320   1.597  1.0706 -0.2023  0.0550
  273MOL0     C36735   6.855   8.332   1.754 -0.7405 -0.9247 -0.9420
  273MOL0     C36736   6.978   8.378   1.838 -0.7345 -0.5553  0.0220
  273MOL0     N36737   7.107   8.318   1.809  0.0102  0.2771 -0.3133
  273MOL0     C36738   7.134   8.196   1.750  0.0986  1.6019 -0.2582
  273MOL0     C36739   7.266   8.185   1.743 -0.0365  0.4619 -0.0659
  273MOL0     C36740   7.337   8.068   1.674 -0.2412 -0.3266  0.4105
  273MOL0     C36741   7.321   8.078   1.519 -0.9005  0.2738  0.8707
  273MOL0     C36742   7.426   8.161   1.440 -0.1993  0.9953  0.3800
  273MOL0     C36743   7.370   8.300   1.391  0.5958  0.4728 -0.0037
  273MOL0     O36744   7.249   8.287   1.311 -0.0773 -0.9021  0.4173
  273MOL0     C36745   7.156   8.382   1.318 -0.0519 -0.9742 -0.6351
  273MOL0     C36746   7.034   8.353   1.252 -0.4853  0.2055  0.0999
  273MOL0     C36747   6.924   8.443   1.249 -0.0737  0.1616 -0.2698
  273MOL0     C36748   6.924   8.568   1.318 -0.2976  0.5300  0.4181
  273MOL0     C36749   6.810   8.657   1.314 -1.0063  0.8959 -0.2539
  273MOL0     O36750   6.721   8.633   1.213 -0.7388  0.3980  0.6913
  273MOL0     C36751   6.625   8.728   1.192 -0.2698  0.7535 -0.3920
  273MOL0     C36752   6.513   8.712   1.268  0.5266 -0.5098 -0.6305
  273MOL0     C36753   6.412   8.816   1.259  1.1266 -0.1511 -0.4920
  273MOL0     C36754   6.420   8.913   1.164 -0.7002 -0.5132  0.3589
  273MOL0     O36755   6.313   9.003   1.131 -0.2525  0.8025  0.2492
  273MOL0     C36756   6.193   8.927   1.085  0.8052 -0.5250  0.7539
  273MOL0     C36757   6.079   8.962   1.174 -0.2165  0.6150 -0.1157
  273MOL0     C36758   5.960   8.889   1.122  0.2771 -0.4218  0.4273
  273MOL0     C36759   5.825   8.925   1.194 -0.0380  0.3876 -0.0724
  273MOL0     C36760   5.734   8.808   1.195  0.6676 -0.5857  0.2339
  273MOL0     C36761   5.594   8.847   1.259  0.3275  0.2972  0.4009
  273MOL0     C36762   5.503   8.716   1.276  0.0550  0.1028  0.0146
  273MOL0     C36763   5.433   8.707   1.420 -0.7203  0.3129  0.6534
  273MOL0    Cl36764   5.548   8.743   1.554  0.1512 -0.2022  0.0422
  273MOL0     C36765   6.535   8.913   1.083 -0.2115  0.0031 -0.8548
  273MOL0     C36766   6.646   8.835   1.106  1.2678 -0.5446  0.1833
  273MOL0     O36767   6.811   8.744   1.397 -0.4640  0.0790  0.1270
  273MOL0     C36768   7.045   8.595   1.386  0.2123 -0.2418  0.1811
  273MOL0     C36769   7.156   8.508   1.386 -0.0127 -0.8519 -0.4699
  273MOL0     N36770   7.324   8.304   1.784  0.1817  0.8666 -0.0842
  273MOL0     N36771   7.234   8.373   1.837  0.4733  0.0057 -0.6655
  273MOL0     C36772   6.304   7.995   1.078 -0.4695  1.3040 -0.2634
  273MOL0     C36773   6.222   7.908   0.997 -0.4186  0.4362  0.3070
  273MOL0     C36774   5.825   7.697   0.885  0.4536 -0.4532  0.3232
  273MOL0     C36775   5.773   7.771   0.774 -0.1985 -0.4478 -0.4220
  273MOL0     C36776   5.654   7.740   0.714  1.0665 -0.2872  0.2539
  273MOL0     C36777   5.578   7.632   0.752  0.1948 -0.2327  0.3617
  273MOL0     O36778   5.465   7.617   0.690  0.3145 -0.2111 -0.8916
  273MOL0     C36779   5.423   7.484   0.671  0.4515  0.0384  0.1823
  273MOL0     C36780   5.326   7.494   0.556 -0.3412 -0.1050 -0.6023
  273MOL0     C36781   5.391   7.497   0.423 -0.5376  1.6875 -0.9793
  273MOL0     C36782   5.398   7.645   0.366 -0.7327 -0.1156 -0.1833
  273MOL0     C36783   5.473   7.643   0.244 -1.0476 -0.9728  0.6447
  273MOL0     C36784   5.544   7.636   0.143  0.5801  1.1503 -0.3583
  273MOL0     C36785   5.625   7.558   0.856  0.0472  0.5860  0.1097
  273MOL0     C36786   5.741   7.584   0.928 -0.9646  0.1140  0.4227
  273MOL0     C36787   5.781   7.492   1.043  0.5139 -0.6711  0.3885
  273MOL0     H36788   5.924   8.054   1.044  0.0397 -2.2473 -0.0892
  273MOL0     H36789   6.065   8.200   1.189  0.4563 -0.4732  0.2903
  273MOL0     H36790   6.197   8.319   1.302 -0.3649  1.2815  1.8244
  273MOL0     H36791   6.224   8.184   1.403  1.1999  0.3449 -0.4107
  273MOL0     H36792   6.333   8.350   1.511 -0.2944  0.7835 -0.8032
  273MOL0     H36793   6.412   8.410   1.363 -2.8536  0.9323 -0.6096
  273MOL0     H36794   6.561   8.217   1.354  0.8657  2.0443 -0.1646
  273MOL0     H36795   6.479   8.157   1.498 -0.5274 -0.3794 -1.7726
  273MOL0     H36796   6.620   8.428   1.476 -0.1584  0.7839  0.2724
  273MOL0     H36797   6.582   8.359   1.629  2.1485  0.5814  1.4400
  273MOL0     H36798   6.739   8.152   1.580 -0.2891  0.3808 -0.7050
  273MOL0     H36799   6.781   8.221   1.432  1.8041 -3.3157  1.0532
  273MOL0     H36800   6.964   8.283   1.571  0.9993  0.3652 -1.0911
  273MOL0     H36801   6.864   8.423   1.561  0.2595  0.1519  1.0453
  273MOL0     H36802   6.834   8.228   1.783 -0.2861 -1.5305 -2.6673
  273MOL0     H36803   6.774   8.399   1.784  0.4165  0.7025 -1.3724
  273MOL0     H36804   6.988   8.487   1.833  0.2603 -0.5375  1.6432
  273MOL0     H36805   6.955   8.358   1.944  3.7858 -3.5852  0.7142
  273MOL0     H36806   7.074   8.118   1.703  0.0363  0.7609  1.1696
  273MOL0     H36807   7.440   8.068   1.712 -0.1602 -4.2622  0.5855
  273MOL0     H36808   7.317   7.968   1.715  0.5451 -0.9623 -0.7053
  273MOL0     H36809   7.320   7.976   1.477 -1.6542 -0.0785  1.7078
  273MOL0     H36810   7.224   8.116   1.485  0.7500  2.9647 -1.2164
  273MOL0     H36811   7.461   8.098   1.357 -1.0806 -1.6360  1.8814
  273MOL0     H36812   7.514   8.182   1.501  0.8381  1.7439 -1.2822
  273MOL0     H36813   7.440   8.361   1.332  0.0765  0.2147 -0.9107
  273MOL0     H36814   7.343   8.363   1.476  0.1424 -0.8644  0.8769
  273MOL0     H36815   7.029   8.260   1.196  0.4321 -0.2524  0.7533
  273MOL0     H36816   6.837   8.411   1.193  0.1128 -0.1560 -0.3799
  273MOL0     H36817   6.515   8.630   1.340 -3.7982 -0.7392 -0.5018
  273MOL0     H36818   6.313   8.815   1.303  1.0663 -0.1513 -0.6263
  273MOL0     H36819   6.176   8.945   0.979  0.9342 -4.6424 -0.1291
  273MOL0     H36820   6.204   8.818   1.089 -0.5717 -0.7283 -0.4427
  273MOL0     H36821   6.106   8.922   1.273  2.9117 -0.2182 -1.2052
  273MOL0     H36822   6.076   9.070   1.191  0.6699  0.4961  0.9305
  273MOL0     H36823   5.947   8.912   1.016 -1.8973 -4.6683 -0.4374
  273MOL0     H36824   5.977   8.782   1.135  1.0650  0.1039  6.2589
  273MOL0     H36825   5.779   9.006   1.136 -2.1086  0.4575  1.5526
  273MOL0     H36826   5.841   8.969   1.293 -1.3908  1.2349 -0.2124
  273MOL0     H36827   5.781   8.729   1.254  1.2369 -0.8457 -0.5505
  273MOL0     H36828   5.711   8.781   1.092  0.3013  1.1163 -0.1541
  273MOL0     H36829   5.601   8.900   1.355 -1.5805 -0.0620  0.7784
  273MOL0     H36830   5.534   8.908   1.191 -3.0147 -3.0544  0.0361
  273MOL0     H36831   5.567   8.628   1.260 -1.1491 -0.1118 -6.0345
  273MOL0     H36832   5.424   8.720   1.200  1.9127 -0.0423 -2.0319
  273MOL0     H36833   5.354   8.783   1.423 -1.1719 -0.1535  3.0853
  273MOL0     H36834   5.393   8.607   1.432  1.0026 -0.5489 -0.3875
  273MOL0     H36835   6.533   8.976   0.995 -2.8662 -0.6758 -1.3733
  273MOL0     H36836   6.730   8.853   1.040 -0.8836  0.9743 -2.3279
  273MOL0     H36837   7.056   8.688   1.441  4.4908 -1.0198  1.0564
  273MOL0     H36838   7.251   8.532   1.432 -0.9940  1.8824  0.2788
  273MOL0     H36839   6.412   7.993   1.078 -0.4808  0.2365 -1.1755
  273MOL0     H36840   6.268   7.821   0.952  0.2133  1.0811 -0.3100
  273MOL0     H36841   5.835   7.845   0.726 -0.1064 -0.7459 -0.7710
  273MOL0     H36842   5.611   7.799   0.634  0.3326 -0.2020  0.7068
  273MOL0     H36843   5.374   7.446   0.762  0.1189 -0.8607 -0.3617
  273MOL0     H36844   5.504   7.414   0.649  0.0792  0.2658 -2.1925
  273MOL0     H36845   5.265   7.583   0.572  2.1754  1.9246 -1.6406
  273MOL0     H36846   5.261   7.406   0.554  0.2594 -0.5661 -2.2414
  273MOL0     H36847   5.331   7.430   0.361 -1.8808  1.0272  0.9173
  273MOL0     H36848   5.493   7.459   0.431 -0.9003  0.7845 -0.5234
  273MOL0     H36849   5.299   7.690   0.353 -0.1292  2.1241  2.0785
  273MOL0     H36850   5.454   7.711   0.433 -0.4329 -0.0034 -0.5442
  273MOL0     H36851   5.599   7.617   0.054 -0.2268 -1.7027 -0.3288
  273MOL0     H36852   5.563   7.471   0.873 -3.1070  1.5454 -4.4560
  273MOL0     H36853   5.878   7.446   1.020  2.9218  2.5590  3.0539
  273MOL0     H36854   5.779   7.544   1.139 -2.1262 -0.7257  0.4182
  273MOL0     H36855   5.701   7.419   1.059 -2.4028  2.6017  1.8291
  274MOL0     O36856   8.092   8.516   2.491 -0.0698  0.3245  0.6450
  274MOL0     C36857   8.103   8.627   2.529  0.7761  0.2477  0.1135
  274MOL0     O36858   8.209   8.706   2.515 -0.0933 -0.3396 -0.1916
  274MOL0     C36859   8.330   8.656   2.476 -0.8453 -0.4125  0.7325
  274MOL0     C36860   8.424   8.737   2.399  0.3400  0.2289  0.5931
  274MOL0     C36861   8.558   8.703   2.373  0.2770  0.2886  0.6330
  274MOL0     C36862   8.608   8.585   2.424  0.3780  0.6656 -0.7975
  274MOL0     O36863   8.740   8.566   2.386 -0.1435  0.3077 -0.4137
  274MOL0     C36864   8.819   8.501   2.486  0.6381  0.2044 -0.2428
  274MOL0     C36865   8.963   8.516   2.437  0.3485  0.3727  0.7686
  274MOL0     C36866   9.068   8.499   2.539 -0.1574  0.3869 -0.4564
  274MOL0     C36867   9.201   8.536   2.478  0.2125 -0.0180 -0.3359
  274MOL0     C36868   9.310   8.494   2.573 -0.8981 -0.9082 -1.3103
  274MOL0     C36869   9.437   8.461   2.504  0.3622 -0.3374 -0.8160
  274MOL0     C36870   9.563   8.454   2.598  1.1054  0.4707  0.5465
  274MOL0     C36871   9.695   8.433   2.524 -0.8138  0.0400 -0.2199
  274MOL0     N36872   9.808   8.458   2.623  0.5568 -0.4888  0.6586
  274MOL0     C36873   9.855   8.360   2.704  0.4693 -0.5402  0.3378
  274MOL0     C36874   9.956   8.428   2.776 -0.6247  0.8928  1.0463
  274MOL0     C36875  10.041   8.369   2.881  0.6695 -0.7217 -1.3861
  274MOL0     C36876  10.143   8.267   2.816  0.5176  0.5642 -0.6822
  274MOL0     C36877  10.274   8.259   2.892 -0.9312 -0.1414  0.1371
  274MOL0     C36878  10.353   8.390   2.867 -0.3120 -0.0674  0.0863
  274MOL0     O36879  10.446   8.407   2.976  0.3928 -0.4028 -0.0284
  274MOL0     C36880  10.562   8.330   2.982 -0.7672  0.2306  0.7126
  274MOL0     C36881  10.624   8.271   2.871  0.9725  0.2078  0.1456
  274MOL0     C36882  10.744   8.194   2.885 -1.7311 -1.8166 -0.6125
  274MOL0     C36883  10.804   8.188   3.006  1.0675 -0.1608 -0.4427
  274MOL0     C36884  10.938   8.121   3.016  0.0794 -0.0319  0.4683
  274MOL0     O36885  11.006   8.143   3.127  0.0783  1.1343 -0.6552
  274MOL0     C36886  11.140   8.102   3.152  0.4693 -0.8698  0.5991
  274MOL0     C36887  11.165   8.122   3.291  0.7324 -1.1267  0.1702
  274MOL0     C36888  11.300   8.126   3.335 -0.3257  0.3748 -0.0144
  274MOL0     C36889  11.405   8.100   3.240 -0.1762  0.4310 -0.6140
  274MOL0     O36890  11.526   8.106   3.295  0.1194  0.4737 -0.9055
  274MOL0     C36891  11.650   8.074   3.233 -0.5022  0.1721 -0.7218
  274MOL0     C36892  11.784   8.107   3.307 -0.1031  0.4411  0.4465
  274MOL0     C36893  11.904   8.061   3.230  0.9877 -0.7358  0.1501
  274MOL0     C36894  12.026   8.042   3.315  0.0382 -0.5307 -0.4934
  274MOL0     C36895  12.157   8.011   3.251  0.2661 -0.4697 -0.6862
  274MOL0     C36896  12.212   8.137   3.178  0.4606 -0.1476 -0.5946
  274MOL0     C36897  12.364   8.112   3.142  0.1044 -0.2915  0.7927
  274MOL0     C36898  12.404   8.226   3.042  0.4363  0.3684 -0.4505
  274MOL0    Cl36899  12.391   8.393   3.120 -0.1280  0.1444  0.2211
  274MOL0     C36900  11.378   8.069   3.110  0.3836 -0.5611  0.0646
  274MOL0     C36901  11.244   8.072   3.062  0.5556  0.5563 -0.0064
  274MOL0     O36902  10.983   8.058   2.919 -0.0695  0.4061  0.5848
  274MOL0     C36903  10.736   8.235   3.120  0.6054 -0.2532  0.1059
  274MOL0     C36904  10.611   8.305   3.105 -0.2686 -0.7715 -0.0754
  274MOL0     N36905   9.962   8.559   2.735 -0.8533  0.5830 -0.1551
  274MOL0     N36906   9.870   8.577   2.643  0.0345  0.4721  0.3149
  274MOL0     C36907   8.528   8.518   2.513  0.1462  0.1095  0.1640
  274MOL0     C36908   8.391   8.556   2.545 -0.3853  0.0238  0.0116
  274MOL0     C36909   7.971   8.686   2.574  0.5532  0.2976  0.7314
  274MOL0     C36910   7.935   8.817   2.521  0.1439  0.4548 -0.0508
  274MOL0     C36911   7.799   8.849   2.527 -0.1023 -0.1475 -0.1056
  274MOL0     C36912   7.700   8.778   2.593 -0.5178  0.2342 -0.7621
  274MOL0     O36913   7.570   8.824   2.581  0.6462 -0.1716 -0.0788
  274MOL0     C36914   7.467   8.764   2.660 -0.3140  0.7732 -0.5449
  274MOL0     C36915   7.343   8.847   2.661 -1.3924 -0.7745  0.4692
  274MOL0     C36916   7.243   8.795   2.763  0.2415 -1.2866  0.3246
  274MOL0     C36917   7.127   8.706   2.714 -0.4921  0.1751  0.1189
  274MOL0     C36918   7.169   8.572   2.677 -0.4951  0.1137 -0.3627
  274MOL0     C36919   7.191   8.457   2.665  0.0611  0.9110 -0.2222
  274MOL0     C36920   7.741   8.661   2.660 -0.0076 -0.0878  1.0179
  274MOL0     C36921   7.873   8.616   2.647  0.4267  0.1334 -0.3313
  274MOL0     C36922   7.904   8.487   2.709 -0.6816 -0.9017  0.6627
  274MOL0     H36923   8.390   8.828   2.351 -2.1238 -3.1006 -5.0074
  274MOL0     H36924   8.619   8.761   2.305  0.5269 -1.3960 -0.6502
  274MOL0     H36925   8.822   8.565   2.575  1.0681  0.3324 -0.3454
  274MOL0     H36926   8.799   8.398   2.517  2.1868  0.8917  3.5628
  274MOL0     H36927   8.978   8.618   2.400 -1.0466  1.0655  2.0363
  274MOL0     H36928   8.981   8.448   2.353  2.6279  0.0255  1.4752
  274MOL0     H36929   9.065   8.393   2.566 -0.2585  0.4086 -0.3799
  274MOL0     H36930   9.040   8.554   2.629  0.4182  1.1402 -0.7215
  274MOL0     H36931   9.225   8.476   2.390  3.9498  0.4591  0.1839
  274MOL0     H36932   9.216   8.643   2.458  2.7065  0.2457  2.2952
  274MOL0     H36933   9.323   8.583   2.636  3.4939 -3.7725  2.4023
  274MOL0     H36934   9.282   8.414   2.641  3.8155 -0.6273  1.4000
  274MOL0     H36935   9.418   8.366   2.454  0.5182 -0.5465 -0.4811
  274MOL0     H36936   9.451   8.543   2.432  0.8335  0.5508  0.2608
  274MOL0     H36937   9.559   8.375   2.673  2.0347 -0.0858  0.0411
  274MOL0     H36938   9.565   8.550   2.650 -1.4747  1.1594 -0.4834
  274MOL0     H36939   9.707   8.329   2.493 -2.5723 -1.3084  3.1458
  274MOL0     H36940   9.697   8.499   2.436 -1.1823  1.0821  0.5313
  274MOL0     H36941   9.819   8.258   2.710  1.2936 -0.7650  1.7552
  274MOL0     H36942  10.101   8.435   2.944 -0.6879 -0.7393 -0.0109
  274MOL0     H36943   9.977   8.313   2.949  1.7112  0.1873  0.4214
  274MOL0     H36944  10.092   8.171   2.827  3.2843 -0.9868 -0.1631
  274MOL0     H36945  10.156   8.292   2.711 -0.3319 -0.9322 -1.1654
  274MOL0     H36946  10.335   8.182   2.843 -0.4490  2.0246 -2.9636
  274MOL0     H36947  10.260   8.228   2.996 -0.1410 -2.0695 -0.2902
  274MOL0     H36948  10.289   8.478   2.873  0.4643  0.4055  2.2116
  274MOL0     H36949  10.407   8.390   2.772  0.9113  0.0039  0.7490
  274MOL0     H36950  10.588   8.297   2.772 -0.6264  0.0721  0.6690
  274MOL0     H36951  10.797   8.159   2.798 -1.0821 -0.2685 -0.8557
  274MOL0     H36952  11.088   8.161   3.356  1.9636  0.7505  0.5731
  274MOL0     H36953  11.325   8.142   3.439 -3.5541 -1.3075  1.1809
  274MOL0     H36954  11.650   7.967   3.209  2.0905 -0.3281  1.0471
  274MOL0     H36955  11.656   8.135   3.143  0.5240 -1.2224 -1.6492
  274MOL0     H36956  11.792   8.216   3.320  1.8116  0.4936 -0.7449
  274MOL0     H36957  11.776   8.061   3.405  1.0421  1.2875  0.9599
  274MOL0     H36958  11.885   7.963   3.183 -0.5160  1.4476 -4.3956
  274MOL0     H36959  11.915   8.131   3.147  1.5136  0.3073  1.0917
  274MOL0     H36960  11.999   7.972   3.395 -1.6163 -0.8248 -1.2629
  274MOL0     H36961  12.046   8.136   3.366  0.6986 -0.7404 -0.3546
  274MOL0     H36962  12.143   7.931   3.178  0.1075  1.4491 -2.8758
  274MOL0     H36963  12.223   7.964   3.325 -1.0741 -0.9086  0.2757
  274MOL0     H36964  12.154   8.156   3.088 -1.7525 -0.8343  0.6046
  274MOL0     H36965  12.210   8.224   3.243  0.8491 -0.2064 -0.5028
  274MOL0     H36966  12.372   8.016   3.089 -0.0786 -0.0465  0.3176
  274MOL0     H36967  12.431   8.093   3.227  2.1585 -2.2237 -1.1344
  274MOL0     H36968  12.512   8.216   3.029  0.2454 -2.5507 -0.4436
  274MOL0     H36969  12.339   8.214   2.955 -2.3108  0.7937  1.4003
  274MOL0     H36970  11.459   8.047   3.042  1.0086 -1.1074  0.9756
  274MOL0     H36971  11.234   8.059   2.954 -1.8267 -0.2122  0.2433
  274MOL0     H36972  10.778   8.229   3.220  1.7480  3.9142  0.0998
  274MOL0     H36973  10.552   8.338   3.190 -0.3903  1.0884 -0.8264
  274MOL0     H36974   8.556   8.427   2.565 -3.3637 -0.5593  1.1764
  274MOL0     H36975   8.331   8.492   2.609  0.3335  0.7255  1.4184
  274MOL0     H36976   8.017   8.880   2.489 -0.0000 -0.2800 -2.0391
  274MOL0     H36977   7.765   8.944   2.487 -0.5372 -0.0325  0.5235
  274MOL0     H36978   7.501   8.759   2.764  0.2882  2.3478 -0.6346
  274MOL0     H36979   7.426   8.668   2.630 -1.5716  0.5013  1.7827
  274MOL0     H36980   7.302   8.854   2.560 -0.8380  0.5465  0.3045
  274MOL0     H36981   7.377   8.948   2.688 -1.8642 -0.6549  0.6220
  274MOL0     H36982   7.198   8.880   2.814  2.1037  1.9840 -3.0138
  274MOL0     H36983   7.297   8.744   2.844  0.9893  0.6907  1.1301
  274MOL0     H36984   7.047   8.693   2.786 -1.1335 -2.2957 -0.9465
  274MOL0     H36985   7.074   8.755   2.631 -1.7829 -2.1654 -0.5274
  274MOL0     H36986   7.213   8.353   2.654 -2.4102  0.0813  1.6482
  274MOL0     H36987   7.664   8.619   2.724 -0.5650 -0.0775  0.3656
  274MOL0     H36988   8.002   8.464   2.752 -0.8929 -0.5477  1.3441
  274MOL0     H36989   7.835   8.488   2.794 -2.4649 -0.3580 -0.7425
  274MOL0     H36990   7.889   8.401   2.643 -0.1295 -1.8908  1.7848
  275MOL0     O36991   7.504   4.792   4.418 -0.6583 -0.2007 -0.0222
  275MOL0     C36992   7.457   4.857   4.513  0.4760  0.0417 -0.4445
  275MOL0     O36993   7.519   4.902   4.630 -0.5417  0.1502  0.9089
  275MOL0     C36994   7.651   4.878   4.650 -0.6535 -0.1259 -0.0714
  275MOL0     C36995   7.718   4.962   4.747  1.7396  0.7450  0.0482
  275MOL0     C36996   7.851   4.942   4.786 -0.1019  0.0283 -0.6386
  275MOL0     C36997   7.929   4.843   4.721  1.5342 -0.9537  0.1504
  275MOL0     O36998   8.063   4.826   4.730 -0.3193 -0.1465  0.0311
  275MOL0     C36999   8.149   4.927   4.782  0.0789 -0.9982 -0.0344
  275MOL0     C37000   8.291   4.884   4.761  0.3555 -0.2019 -0.1302
  275MOL0     C37001   8.332   4.895   4.621 -0.6216  0.6593  0.1963
  275MOL0     C37002   8.473   4.853   4.601  0.0520  0.5297  0.4115
  275MOL0     C37003   8.574   4.966   4.630  1.0663 -0.0609 -0.5051
  275MOL0     C37004   8.715   4.927   4.579  0.3971  0.6530 -0.3944
  275MOL0     C37005   8.799   5.055   4.563  0.1155  0.4079  0.3259
  275MOL0     C37006   8.952   5.019   4.595  0.2173  0.1316  0.4568
  275MOL0     N37007   9.004   4.915   4.513  0.0145 -0.2748 -0.4477
  275MOL0     C37008   9.004   4.905   4.377 -0.6581 -0.3402  0.5717
  275MOL0     C37009   9.104   4.822   4.337  0.4968 -0.7575 -0.2515
  275MOL0     C37010   9.139   4.800   4.189 -0.8029 -0.5567  0.8202
  275MOL0     C37011   9.256   4.880   4.144 -0.2291  0.1630  0.0135
  275MOL0     C37012   9.290   4.857   3.996  0.1374  0.1414  0.0491
  275MOL0     C37013   9.303   4.986   3.914 -0.2880 -0.4519  1.3487
  275MOL0     O37014   9.373   4.968   3.785  0.2972  0.0737  0.1937
  275MOL0     C37015   9.309   4.922   3.674  0.3113  0.0339 -0.5173
  275MOL0     C37016   9.392   4.907   3.572  0.0460  0.0832 -0.8132
  275MOL0     C37017   9.346   4.876   3.440 -0.0042 -0.3512 -0.7748
  275MOL0     C37018   9.200   4.861   3.429  0.5250 -0.9677  0.1945
  275MOL0     C37019   9.142   4.846   3.302 -0.4926  0.2116  0.3298
  275MOL0     O37020   9.008   4.850   3.290 -0.2932  0.1154 -0.2758
  275MOL0     C37021   8.940   4.851   3.166 -0.7618 -0.7629 -0.6870
  275MOL0     C37022   8.819   4.926   3.164 -0.6697  0.1940 -0.0598
  275MOL0     C37023   8.753   4.943   3.050  0.3292 -0.8392  0.2119
  275MOL0     C37024   8.800   4.894   2.936 -0.3588 -1.0591  0.1047
  275MOL0     O37025   8.738   4.925   2.811 -0.4255 -0.3122 -0.1341
  275MOL0     C37026   8.605   4.986   2.795 -0.4312  0.7197 -0.4033
  275MOL0     C37027   8.563   5.015   2.655 -0.9595 -0.5871  0.9864
  275MOL0     C37028   8.549   4.889   2.575 -1.2196  0.5245  0.4984
  275MOL0     C37029   8.497   4.910   2.429  0.6720 -0.1062 -0.6411
  275MOL0     C37030   8.612   4.948   2.343  0.8091 -0.5436  0.7242
  275MOL0     C37031   8.580   4.935   2.194  0.3321 -0.4572 -0.0605
  275MOL0     C37032   8.475   5.039   2.154  0.5920  0.1359  0.8854
  275MOL0     C37033   8.421   5.025   2.019 -0.1019 -0.1215 -0.8371
  275MOL0    Cl37034   8.315   5.153   1.954  0.5645 -0.1247  0.0998
  275MOL0     C37035   8.914   4.812   2.934 -0.7058  0.5710  0.1345
  275MOL0     C37036   8.982   4.790   3.048  0.8632 -0.1878 -0.2156
  275MOL0     O37037   9.220   4.840   3.205  0.2731 -0.9461 -0.6227
  275MOL0     C37038   9.110   4.890   3.536 -0.5772 -0.7882 -0.4025
  275MOL0     C37039   9.168   4.918   3.663  0.2977 -0.9826  0.4796
  275MOL0     N37040   9.170   4.781   4.452  0.1061 -0.1212 -0.0103
  275MOL0     N37041   9.100   4.830   4.553 -0.4728  0.2587  1.1293
  275MOL0     C37042   7.858   4.759   4.630 -0.1938 -0.5072 -1.0353
  275MOL0     C37043   7.723   4.770   4.604 -0.5365 -0.0855 -0.4075
  275MOL0     C37044   7.305   4.859   4.515  0.0377  1.0997  0.3111
  275MOL0     C37045   7.235   4.779   4.418 -0.3894  0.4194 -0.5401
  275MOL0     C37046   7.098   4.786   4.403 -0.1407 -0.0597 -1.2308
  275MOL0     C37047   7.021   4.862   4.496 -0.4541 -0.3780 -0.7432
  275MOL0     O37048   6.887   4.844   4.475  0.8093 -0.6589 -0.2790
  275MOL0     C37049   6.808   4.828   4.592  0.3936  0.2635 -0.1005
  275MOL0     C37050   6.755   4.683   4.599 -0.6928 -0.4692 -0.3801
  275MOL0     C37051   6.634   4.657   4.513  0.1819 -0.1371 -0.0481
  275MOL0     C37052   6.672   4.609   4.377 -0.0158  0.4055 -0.0966
  275MOL0     C37053   6.542   4.572   4.302  0.0223  0.4988 -1.0699
  275MOL0     C37054   6.437   4.547   4.248 -0.1492  0.3506 -0.3980
  275MOL0     C37055   7.089   4.919   4.599  0.2918  0.6564  0.5212
  275MOL0     C37056   7.224   4.924   4.608 -0.3042 -0.2521  0.2315
  275MOL0     C37057   7.276   5.006   4.729 -0.4904 -0.1710  0.1255
  275MOL0     H37058   7.664   5.048   4.785  1.0559 -0.1535  1.2035
  275MOL0     H37059   7.902   5.020   4.842 -0.2440  1.6682 -2.6874
  275MOL0     H37060   8.120   5.022   4.736  2.6748  0.0057  0.2765
  275MOL0     H37061   8.124   4.951   4.885  0.4278  3.8456 -0.8506
  275MOL0     H37062   8.305   4.783   4.801 -1.6457 -1.1344 -1.6250
  275MOL0     H37063   8.344   4.958   4.822 -3.2003 -0.6707  3.9994
  275MOL0     H37064   8.312   4.987   4.567  3.1580 -0.5330 -3.8117
  275MOL0     H37065   8.282   4.812   4.570  0.2909 -2.0262  3.2988
  275MOL0     H37066   8.490   4.759   4.656 -1.0459 -0.9851 -1.6972
  275MOL0     H37067   8.493   4.828   4.497 -0.4461  0.9684  0.2087
  275MOL0     H37068   8.548   5.053   4.569 -1.3315 -1.0919 -1.0582
  275MOL0     H37069   8.581   4.983   4.738  0.4147  0.4276 -0.5386
  275MOL0     H37070   8.764   4.853   4.643 -1.3578  1.1470  1.6309
  275MOL0     H37071   8.713   4.885   4.478  0.8791  2.0756 -1.0265
  275MOL0     H37072   8.761   5.129   4.634 -0.1690 -1.0770  1.7722
  275MOL0     H37073   8.786   5.102   4.465 -0.9186  0.8334  0.6510
  275MOL0     H37074   9.017   5.105   4.581 -2.4639  2.3773  0.9304
  275MOL0     H37075   8.958   4.995   4.702 -0.8497  4.7861  1.7592
  275MOL0     H37076   8.938   4.969   4.320 -1.2436 -0.5092  1.0481
  275MOL0     H37077   9.153   4.692   4.180  1.4804 -0.2704  0.4886
  275MOL0     H37078   9.054   4.821   4.122  0.7629  0.8066 -0.8412
  275MOL0     H37079   9.238   4.985   4.166 -0.9689  0.3248 -1.2928
  275MOL0     H37080   9.340   4.842   4.204  2.0445 -0.7155 -3.4067
  275MOL0     H37081   9.208   4.798   3.953  2.2313 -1.6479 -1.7827
  275MOL0     H37082   9.377   4.791   3.998  0.3309  0.2773 -1.7554
  275MOL0     H37083   9.366   5.054   3.972  0.8468 -0.5327  0.2707
  275MOL0     H37084   9.206   5.030   3.891  0.1739 -0.7182 -1.5549
  275MOL0     H37085   9.499   4.922   3.587 -0.0609  0.3839 -0.3382
  275MOL0     H37086   9.406   4.863   3.351  2.8416 -0.1088  1.0022
  275MOL0     H37087   8.781   4.997   3.237 -0.7456 -0.1485  0.2352
  275MOL0     H37088   8.667   5.009   3.056  0.6293 -0.5388  1.4705
  275MOL0     H37089   8.535   4.916   2.841  0.2104 -0.9369 -1.8277
  275MOL0     H37090   8.605   5.080   2.850  1.9249  0.8993 -0.5812
  275MOL0     H37091   8.479   5.085   2.665  1.0051  2.0673 -0.1046
  275MOL0     H37092   8.630   5.076   2.595  0.4314 -2.3605  0.6612
  275MOL0     H37093   8.640   4.829   2.582 -1.1928  0.4089 -0.6590
  275MOL0     H37094   8.462   4.843   2.623  1.0533  0.2974  4.9810
  275MOL0     H37095   8.425   4.991   2.439  0.2713 -0.6576  1.3849
  275MOL0     H37096   8.452   4.815   2.398  0.7046 -1.5845  3.2275
  275MOL0     H37097   8.701   4.889   2.366  0.5584 -0.9199  0.7422
  275MOL0     H37098   8.644   5.050   2.366  0.6104 -0.7898  2.1962
  275MOL0     H37099   8.665   4.960   2.130  0.3451  0.5663  0.3379
  275MOL0     H37100   8.546   4.834   2.170  3.7478 -1.8797  0.5414
  275MOL0     H37101   8.505   5.144   2.164 -3.3152  1.7199 -1.5411
  275MOL0     H37102   8.386   5.040   2.217 -0.3731 -0.9028 -0.3926
  275MOL0     H37103   8.509   5.002   1.959  0.8194 -2.4278  1.2468
  275MOL0     H37104   8.362   4.933   2.020 -0.0519 -0.1542 -0.9124
  275MOL0     H37105   8.944   4.766   2.841 -1.5494 -0.6042  0.4133
  275MOL0     H37106   9.066   4.723   3.065  2.1558  1.8275  2.1627
  275MOL0     H37107   9.002   4.891   3.527 -0.5075  0.3448 -1.4285
  275MOL0     H37108   9.096   4.921   3.744 -4.3143 -2.7943 -3.1302
  275MOL0     H37109   7.923   4.687   4.580 -0.3343 -0.1241 -1.7873
  275MOL0     H37110   7.684   4.682   4.555 -0.2343 -0.4042 -0.0884
  275MOL0     H37111   7.279   4.713   4.344 -0.8242 -0.1014 -0.3392
  275MOL0     H37112   7.067   4.725   4.319  0.2140 -0.3751 -1.1338
  275MOL0     H37113   6.730   4.903   4.609 -2.6079 -2.8488  1.0108
  275MOL0     H37114   6.866   4.824   4.685 -1.6573 -2.7794  1.2173
  275MOL0     H37115   6.712   4.672   4.699  0.9534  0.8400  0.5252
  275MOL0     H37116   6.830   4.604   4.587 -0.4755 -0.2717 -0.3381
  275MOL0     H37117   6.573   4.748   4.511  1.7361  1.0831  2.6492
  275MOL0     H37118   6.582   4.577   4.566  2.7251  0.1381  3.1687
  275MOL0     H37119   6.741   4.677   4.325  2.5312 -0.3912  2.0084
  275MOL0     H37120   6.732   4.520   4.394 -2.4606 -1.9017 -2.5268
  275MOL0     H37121   6.340   4.534   4.205  0.2975 -2.4747 -0.7463
  275MOL0     H37122   7.029   4.962   4.678  1.1134  2.9291 -0.0033
  275MOL0     H37123   7.312   4.942   4.811  0.6279  1.6060  1.0868
  275MOL0     H37124   7.365   5.068   4.719  1.8396 -3.0251  1.5669
  275MOL0     H37125   7.193   5.066   4.768 -1.0727 -0.4555 -0.6445
  276MOL0     O37126   6.726   7.346   4.555 -0.3320 -0.0973 -0.2990
  276MOL0     C37127   6.675   7.295   4.453  0.3195  0.5337 -0.8783
  276MOL0     O37128   6.744   7.271   4.340 -1.1063  0.8130 -0.6491
  276MOL0     C37129   6.873   7.324   4.331  0.0731  0.5117 -0.0339
  276MOL0     C37130   6.881   7.463   4.309  0.7422 -0.2828  0.3793
  276MOL0     C37131   7.005   7.517   4.289  0.6643 -0.2726 -0.1510
  276MOL0     C37132   7.123   7.446   4.304 -0.4433  0.0541 -0.8177
  276MOL0     O37133   7.246   7.506   4.283 -0.0531 -0.4583 -0.3558
  276MOL0     C37134   7.345   7.442   4.210 -0.2645 -0.4280  0.2362
  276MOL0     C37135   7.435   7.548   4.144 -0.6098  0.1318  0.2392
  276MOL0     C37136   7.508   7.630   4.248 -0.1467  0.2739 -0.6593
  276MOL0     C37137   7.622   7.717   4.195 -1.0055 -0.7286 -0.2313
  276MOL0     C37138   7.748   7.636   4.146  0.8845  0.7068  0.2427
  276MOL0     C37139   7.879   7.729   4.143  0.4971 -0.1029 -0.2565
  276MOL0     C37140   8.001   7.646   4.100 -0.0558 -0.8961  0.3423
  276MOL0     C37141   8.109   7.701   4.187  0.2972  0.4361 -0.0566
  276MOL0     N37142   8.243   7.674   4.135 -0.0297  0.2510 -0.9158
  276MOL0     C37143   8.328   7.764   4.080 -0.2961 -0.8605 -0.1093
  276MOL0     C37144   8.428   7.695   4.015  0.2746 -0.4795  0.0701
  276MOL0     C37145   8.573   7.740   3.966  0.4115 -0.0919 -0.2254
  276MOL0     C37146   8.683   7.657   4.033  0.4473 -0.4130 -0.2429
  276MOL0     C37147   8.722   7.694   4.171  0.1081  0.0235 -0.4302
  276MOL0     C37148   8.812   7.818   4.186 -0.5304 -0.1508 -0.6476
  276MOL0     O37149   8.953   7.781   4.201  0.6800  0.6895  0.5899
  276MOL0     C37150   9.053   7.880   4.217 -0.8264  0.3449  0.7458
  276MOL0     C37151   9.177   7.841   4.255 -0.0646  0.9344 -0.0126
  276MOL0     C37152   9.280   7.928   4.287  0.3591 -0.0544  0.0979
  276MOL0     C37153   9.255   8.067   4.296 -0.0214  0.5955 -0.6272
  276MOL0     C37154   9.365   8.164   4.333 -0.3569  1.1583  0.4473
  276MOL0     O37155   9.339   8.293   4.350  0.5062  0.5705 -0.1849
  276MOL0     C37156   9.441   8.378   4.372 -0.3068 -0.9668 -0.4740
  276MOL0     C37157   9.502   8.386   4.503 -0.4901 -0.2606  0.2356
  276MOL0     C37158   9.615   8.461   4.534 -0.4054 -0.6032  0.5595
  276MOL0     C37159   9.669   8.541   4.437 -0.0746 -0.1942  0.5546
  276MOL0     O37160   9.782   8.622   4.461  0.0543 -0.4110 -0.7345
  276MOL0     C37161   9.881   8.588   4.556  0.4176  0.8024 -1.1844
  276MOL0     C37162   9.975   8.713   4.579  0.0318 -0.4959  1.0132
  276MOL0     C37163  10.107   8.684   4.640  0.0459 -1.0533  0.2463
  276MOL0     C37164  10.192   8.807   4.641 -0.1306  0.0448  0.1768
  276MOL0     C37165  10.349   8.768   4.670  0.0175 -0.6395 -0.6924
  276MOL0     C37166  10.441   8.878   4.718 -1.0961 -0.1329  0.6207
  276MOL0     C37167  10.397   8.946   4.845 -0.1401  0.3829  0.4784
  276MOL0     C37168  10.463   8.867   4.962  0.1559 -0.5558  0.1278
  276MOL0    Cl37169  10.401   8.925   5.117  0.2047  0.1155 -0.1628
  276MOL0     C37170   9.609   8.542   4.309 -0.2311 -0.0076  0.2945
  276MOL0     C37171   9.505   8.454   4.269 -0.3758  0.7503 -1.6103
  276MOL0     O37172   9.473   8.110   4.355 -0.5837 -0.0368  0.3525
  276MOL0     C37173   9.124   8.102   4.270 -0.9638 -0.2371 -0.0934
  276MOL0     C37174   9.030   8.015   4.215 -0.0414  0.6104 -0.8660
  276MOL0     N37175   8.382   7.565   4.011 -0.1616  0.0911 -0.0535
  276MOL0     N37176   8.278   7.558   4.081  0.0439 -0.1903 -0.0471
  276MOL0     C37177   7.109   7.310   4.343  0.5054  0.8217 -0.4737
  276MOL0     C37178   6.984   7.246   4.355 -0.2210  0.2821 -0.7919
  276MOL0     C37179   6.529   7.262   4.453  0.1717 -0.2871 -0.4578
  276MOL0     C37180   6.453   7.266   4.334 -0.0705 -0.3733 -0.7568
  276MOL0     C37181   6.311   7.264   4.338 -0.7374  0.2898 -0.0172
  276MOL0     C37182   6.244   7.256   4.455  0.3877  0.7453 -1.0566
  276MOL0     O37183   6.105   7.258   4.449  0.0205 -0.4245 -0.4161
  276MOL0     C37184   6.033   7.263   4.574  0.6334 -0.0279 -0.1235
  276MOL0     C37185   5.882   7.305   4.537 -0.4103 -0.7830 -0.4028
  276MOL0     C37186   5.805   7.185   4.483  0.5431 -0.3266 -0.2633
  276MOL0     C37187   5.683   7.145   4.566  0.0333  0.6287  0.5806
  276MOL0     C37188   5.563   7.237   4.543 -0.5114 -0.0833 -0.3092
  276MOL0     C37189   5.469   7.309   4.528  0.2234  0.2423 -0.0328
  276MOL0     C37190   6.310   7.247   4.579 -0.0643 -0.1915  0.0895
  276MOL0     C37191   6.451   7.240   4.570 -0.0442 -0.6433  0.1911
  276MOL0     C37192   6.519   7.220   4.706  0.6799 -0.3696  0.2674
  276MOL0     H37193   6.791   7.521   4.289  1.1913  0.1024 -0.5844
  276MOL0     H37194   7.011   7.621   4.256 -0.5434  0.4580  1.7223
  276MOL0     H37195   7.402   7.375   4.275 -1.1455 -1.9568 -0.5066
  276MOL0     H37196   7.288   7.385   4.136 -1.2815 -2.3074  2.3716
  276MOL0     H37197   7.384   7.616   4.075 -1.6553 -1.8356 -1.0116
  276MOL0     H37198   7.508   7.494   4.084  1.1421  0.9685  1.5121
  276MOL0     H37199   7.556   7.565   4.322  4.0901  1.8949 -1.7055
  276MOL0     H37200   7.436   7.696   4.297  1.1503  1.0524  0.2636
  276MOL0     H37201   7.577   7.777   4.115 -2.3799 -0.4554  0.6952
  276MOL0     H37202   7.660   7.785   4.272 -1.9514 -0.1369 -0.2590
  276MOL0     H37203   7.751   7.553   4.217 -2.2341 -1.0579 -1.4387
  276MOL0     H37204   7.739   7.595   4.044  1.9001 -1.4456  0.9623
  276MOL0     H37205   7.871   7.815   4.076 -0.7562  0.1432  0.1762
  276MOL0     H37206   7.890   7.787   4.235 -1.3501  4.5496 -2.6518
  276MOL0     H37207   8.032   7.650   3.995  4.0770  1.9387  1.4104
  276MOL0     H37208   7.989   7.540   4.124 -0.7899 -2.0656 -4.2895
  276MOL0     H37209   8.089   7.809   4.183  0.3585  0.4145 -1.9559
  276MOL0     H37210   8.098   7.667   4.290  0.4913  2.8902  0.8410
  276MOL0     H37211   8.328   7.872   4.089  3.3331 -0.3069 -3.6706
  276MOL0     H37212   8.584   7.715   3.860  2.4936 -0.0988 -0.0557
  276MOL0     H37213   8.578   7.849   3.971 -4.2965  0.4376 -2.1369
  276MOL0     H37214   8.648   7.553   4.034 -0.0252 -0.2863  2.1887
  276MOL0     H37215   8.771   7.666   3.969 -1.1636 -0.7088 -2.6468
  276MOL0     H37216   8.770   7.609   4.221 -3.6736 -0.9608  1.8847
  276MOL0     H37217   8.628   7.704   4.226 -0.0714 -1.5018 -0.4197
  276MOL0     H37218   8.783   7.857   4.284 -2.4967  0.2287 -1.3527
  276MOL0     H37219   8.797   7.893   4.108  0.0302 -2.1877 -2.8558
  276MOL0     H37220   9.199   7.734   4.253  1.5857  1.2277  0.8769
  276MOL0     H37221   9.381   7.892   4.300  0.4368  0.9592  2.9778
  276MOL0     H37222   9.461   8.331   4.587  1.4384 -0.4519  1.1050
  276MOL0     H37223   9.656   8.464   4.635  2.9984  1.9046 -0.7295
  276MOL0     H37224   9.830   8.572   4.651 -1.4430 -0.8516 -2.3801
  276MOL0     H37225   9.928   8.491   4.538 -1.3548 -0.2733 -0.3621
  276MOL0     H37226   9.998   8.751   4.479 -1.0581 -1.8676  0.2057
  276MOL0     H37227   9.922   8.796   4.627 -0.6804 -1.7704  2.5123
  276MOL0     H37228  10.081   8.668   4.745 -2.5282  0.8964 -0.0085
  276MOL0     H37229  10.156   8.596   4.599  1.4565  0.1532 -0.7562
  276MOL0     H37230  10.158   8.893   4.699 -0.0997 -0.2199  0.5938
  276MOL0     H37231  10.188   8.836   4.536 -0.9578 -0.4450  0.0680
  276MOL0     H37232  10.402   8.732   4.582  1.7740 -1.8717  0.8084
  276MOL0     H37233  10.345   8.673   4.723 -0.1199 -1.3848 -2.0069
  276MOL0     H37234  10.542   8.838   4.733 -0.8414 -0.3525 -1.3824
  276MOL0     H37235  10.450   8.949   4.635 -3.2144 -2.4034 -1.7183
  276MOL0     H37236  10.289   8.952   4.855 -0.3465  1.3620 -1.6863
  276MOL0     H37237  10.431   9.049   4.857  2.0756 -0.3404  0.8806
  276MOL0     H37238  10.438   8.761   4.969  2.0229 -0.9391  3.7655
  276MOL0     H37239  10.572   8.873   4.961  0.2014 -1.2667 -1.0478
  276MOL0     H37240   9.651   8.619   4.245 -2.7857  0.0925 -1.3969
  276MOL0     H37241   9.460   8.462   4.171  1.1225  1.1094 -2.3056
  276MOL0     H37242   9.096   8.204   4.293  0.5442  0.1888 -0.0119
  276MOL0     H37243   8.933   8.044   4.177 -0.8173 -2.2002 -1.2333
  276MOL0     H37244   7.199   7.250   4.354 -0.3508 -0.7300 -1.5833
  276MOL0     H37245   6.976   7.141   4.384 -0.8361 -0.3108 -2.9536
  276MOL0     H37246   6.495   7.292   4.237 -2.2377 -2.8508 -2.5023
  276MOL0     H37247   6.248   7.278   4.251 -1.7320  0.7889  0.7659
  276MOL0     H37248   6.078   7.337   4.640 -1.2211  1.8834 -0.8730
  276MOL0     H37249   6.033   7.162   4.617 -2.0445  1.2660  3.4600
  276MOL0     H37250   5.886   7.386   4.464  1.6020 -0.2511  0.2175
  276MOL0     H37251   5.844   7.348   4.630  0.5070  1.6627 -1.0804
  276MOL0     H37252   5.866   7.095   4.472  0.4237 -0.6077  1.1985
  276MOL0     H37253   5.772   7.213   4.382  2.6283 -0.0346 -0.9195
  276MOL0     H37254   5.652   7.048   4.526  2.3270  0.2179 -0.3481
  276MOL0     H37255   5.699   7.120   4.671 -1.5322 -4.5816 -0.1483
  276MOL0     H37256   5.390   7.378   4.509  0.2368 -0.1393 -1.6278
  276MOL0     H37257   6.264   7.238   4.676  1.1161 -0.1584  0.6757
  276MOL0     H37258   6.452   7.156   4.764  0.7193 -0.8231 -0.1741
  276MOL0     H37259   6.620   7.177   4.700  1.6453  1.4773  2.1231
  276MOL0     H37260   6.520   7.310   4.767 -1.8000 -0.7190  0.8985
  277MOL0     O37261   0.622   4.448   6.976 -0.2151  0.5239 -0.0027
  277MOL0     C37262   0.583   4.352   6.925  0.2762  0.6110  0.0857
  277MOL0     O37263   0.662   4.245   6.895 -0.0526  0.1707 -0.0597
  277MOL0     C37264   0.780   4.212   6.960 -0.4492 -0.3365 -0.2433
  277MOL0     C37265   0.898   4.277   6.929  0.1209 -0.1550  0.1147
  277MOL0     C37266   1.006   4.268   7.009  0.6761  0.9705 -0.1618
  277MOL0     C37267   1.004   4.158   7.108 -0.5407 -0.8194  0.2652
  277MOL0     O37268   1.119   4.147   7.181  0.8982  0.7352 -0.0291
  277MOL0     C37269   1.131   4.023   7.258 -0.0565  1.2266 -0.0180
  277MOL0     C37270   1.261   4.026   7.341 -0.5093 -0.7750  0.4377
  277MOL0     C37271   1.383   4.026   7.252  0.3949 -0.0704  0.0444
  277MOL0     C37272   1.520   4.076   7.316  0.4107 -0.0325 -0.0301
  277MOL0     C37273   1.632   3.962   7.328 -0.5080 -0.0558 -0.5673
  277MOL0     C37274   1.594   3.850   7.427  0.3683 -0.6906 -0.2822
  277MOL0     C37275   1.718   3.770   7.480 -0.2244 -0.1010 -0.2977
  277MOL0     C37276   1.753   3.831   7.617 -0.6390 -0.7008  0.3832
  277MOL0     N37277   1.858   3.758   7.695 -0.1316 -0.0083 -0.0545
  277MOL0     C37278   1.968   3.695   7.646 -0.1504 -0.3727 -0.3462
  277MOL0     C37279   2.061   3.688   7.740  0.8154  0.4056  0.2028
  277MOL0     C37280   2.192   3.618   7.729  0.4488 -0.2118 -0.6675
  277MOL0     C37281   2.312   3.691   7.813 -0.0072 -0.3870 -0.2613
  277MOL0     C37282   2.446   3.612   7.825  0.0562  0.2366 -0.4863
  277MOL0     C37283   2.521   3.599   7.697 -0.2569 -0.0368 -1.4224
  277MOL0     O37284   2.559   3.727   7.644  0.6903 -0.3715 -0.1426
  277MOL0     C37285   2.678   3.777   7.682 -0.5729  0.2826  0.1556
  277MOL0     C37286   2.686   3.902   7.737  0.0049  0.2910  0.4087
  277MOL0     C37287   2.812   3.938   7.784  1.3470  0.3991  0.0877
  277MOL0     C37288   2.926   3.868   7.762  0.2473 -0.0067 -0.8934
  277MOL0     C37289   3.057   3.912   7.820 -0.1548 -0.3192  0.0758
  277MOL0     O37290   3.163   3.838   7.792  0.6506 -0.9031  0.1802
  277MOL0     C37291   3.290   3.879   7.830  0.2534 -1.6521 -0.3458
  277MOL0     C37292   3.354   4.011   7.826  0.1696  0.3439  0.1283
  277MOL0     C37293   3.482   4.028   7.869 -0.0242  0.7383  0.3270
  277MOL0     C37294   3.565   3.917   7.887 -0.2803 -0.1598  0.4684
  277MOL0     O37295   3.690   3.940   7.934  0.1444  0.1410  0.0620
  277MOL0     C37296   3.802   3.888   7.851 -0.3092  0.1267  0.0916
  277MOL0     C37297   3.936   3.927   7.896  0.0187  0.2785 -0.5394
  277MOL0     C37298   4.045   3.887   7.797  0.0121  0.5554  0.2893
  277MOL0     C37299   4.184   3.893   7.848  0.0830 -0.2228  0.1108
  277MOL0     C37300   4.300   3.843   7.762  0.1175 -0.7586  0.0856
  277MOL0     C37301   4.433   3.841   7.845 -0.1878  0.1251 -0.4319
  277MOL0     C37302   4.455   3.706   7.918  0.1406 -0.2046 -0.2762
  277MOL0     C37303   4.602   3.688   7.973 -0.2904 -0.6082 -0.2153
  277MOL0    Cl37304   4.628   3.801   8.113  0.1011  0.1540 -0.7360
  277MOL0     C37305   3.508   3.786   7.892 -0.5098 -0.2183  0.1793
  277MOL0     C37306   3.372   3.769   7.869 -0.6693  0.4290 -1.2263
  277MOL0     O37307   3.060   4.021   7.883  0.0561  0.9004 -0.5769
  277MOL0     C37308   2.913   3.744   7.702 -0.2022  0.2397 -0.5677
  277MOL0     C37309   2.792   3.704   7.655  0.1225 -0.5656 -0.4965
  277MOL0     N37310   2.003   3.743   7.851  0.2488 -0.4564 -0.3439
  277MOL0     N37311   1.887   3.788   7.823 -0.4315  1.0575 -0.1390
  277MOL0     C37312   0.891   4.085   7.126 -0.3155  0.3804  0.2423
  277MOL0     C37313   0.779   4.113   7.051  0.5179  0.2032  1.2962
  277MOL0     C37314   0.448   4.347   6.869 -0.2972 -0.3323  1.2081
  277MOL0     C37315   0.392   4.228   6.833  0.3449  0.9924 -0.9604
  277MOL0     C37316   0.275   4.222   6.763 -0.0846  0.4372  0.7794
  277MOL0     C37317   0.196   4.337   6.755  0.0183 -0.0446  0.6639
  277MOL0     O37318   0.081   4.349   6.682  0.1052 -0.4486 -0.5564
  277MOL0     C37319   0.007   4.233   6.646  0.2885 -0.5627 -0.2583
  277MOL0     C37320  -0.095   4.279   6.537  0.2421  0.2404 -0.6119
  277MOL0     C37321  -0.191   4.388   6.587 -0.0119  0.8103  0.6011
  277MOL0     C37322  -0.282   4.418   6.466  1.0304 -0.7062 -1.5301
  277MOL0     C37323  -0.385   4.507   6.511  0.5071  0.7075 -1.4246
  277MOL0     C37324  -0.473   4.581   6.550  0.1314  0.0774 -0.6493
  277MOL0     C37325   0.246   4.456   6.796 -0.4017  0.1038 -0.5265
  277MOL0     C37326   0.376   4.465   6.850  0.0128  0.0632  0.4828
  277MOL0     C37327   0.421   4.604   6.899  0.3667  0.0358  0.3527
  277MOL0     H37328   0.889   4.358   6.857 -1.1391  0.4535  0.9047
  277MOL0     H37329   1.092   4.332   6.996 -0.5719  2.4423 -1.5835
  277MOL0     H37330   1.045   4.024   7.326 -1.8191  1.5419 -2.1583
  277MOL0     H37331   1.140   3.935   7.194  0.8991  1.5042 -0.2740
  277MOL0     H37332   1.267   3.931   7.395 -0.1373 -1.2726 -0.4543
  277MOL0     H37333   1.257   4.110   7.411 -0.0530 -1.7444  1.6629
  277MOL0     H37334   1.359   4.074   7.156  1.5516  0.7489  0.1458
  277MOL0     H37335   1.393   3.923   7.219  0.1091 -0.2009  0.3625
  277MOL0     H37336   1.560   4.147   7.243 -1.2937  1.5291  0.4768
  277MOL0     H37337   1.510   4.128   7.412 -0.0232  0.7688 -0.4953
  277MOL0     H37338   1.651   3.898   7.241 -5.1476 -2.3500 -0.1955
  277MOL0     H37339   1.719   4.016   7.365 -1.3633 -0.6289  2.5311
  277MOL0     H37340   1.536   3.897   7.508  2.2324  0.4983  0.4266
  277MOL0     H37341   1.526   3.778   7.381 -0.3218 -0.0983 -0.2145
  277MOL0     H37342   1.804   3.770   7.413 -0.3174  0.3196 -0.4204
  277MOL0     H37343   1.688   3.666   7.490 -1.5081  0.1000 -1.7481
  277MOL0     H37344   1.786   3.932   7.593  1.8414 -1.9743 -2.1922
  277MOL0     H37345   1.660   3.841   7.673  0.0787 -0.9778  1.6777
  277MOL0     H37346   1.981   3.661   7.544 -3.8974  4.2218 -2.7721
  277MOL0     H37347   2.182   3.519   7.775  1.6942 -0.2123 -0.3615
  277MOL0     H37348   2.225   3.598   7.627  1.6133 -0.3943 -0.2786
  277MOL0     H37349   2.343   3.788   7.774  0.3617 -0.9587 -1.4289
  277MOL0     H37350   2.263   3.698   7.911 -2.4379 -0.5887 -1.3953
  277MOL0     H37351   2.425   3.511   7.860 -0.4026  0.7390  0.7213
  277MOL0     H37352   2.508   3.662   7.900 -0.1090  0.4790 -0.5113
  277MOL0     H37353   2.463   3.555   7.616 -0.9692  1.9009 -2.0070
  277MOL0     H37354   2.600   3.526   7.719 -2.8155 -2.2008  1.7083
  277MOL0     H37355   2.593   3.945   7.774  0.2551 -0.7918  2.4350
  277MOL0     H37356   2.817   4.029   7.844  2.2108  1.6135 -1.7334
  277MOL0     H37357   3.310   4.103   7.789 -0.9701 -0.7620 -1.3736
  277MOL0     H37358   3.531   4.124   7.879 -1.1754  1.1682  2.7096
  277MOL0     H37359   3.799   3.781   7.830  5.4710 -0.0481 -1.5088
  277MOL0     H37360   3.794   3.925   7.749 -1.6854 -2.0397 -0.6565
  277MOL0     H37361   3.958   4.033   7.912  1.0681 -0.2508  2.1639
  277MOL0     H37362   3.953   3.879   7.993  0.7613 -0.0124 -0.7996
  277MOL0     H37363   4.036   3.783   7.768  0.8444 -0.6489  3.7804
  277MOL0     H37364   4.029   3.958   7.715  1.2982 -0.4325 -0.8486
  277MOL0     H37365   4.185   3.833   7.939 -0.3940  0.1826  0.3888
  277MOL0     H37366   4.199   3.998   7.874  1.9207  0.2649 -2.5244
  277MOL0     H37367   4.327   3.909   7.679  2.3341 -2.3238 -0.5615
  277MOL0     H37368   4.283   3.746   7.713  1.9469 -0.3678 -1.4831
  277MOL0     H37369   4.522   3.849   7.781  0.8800  0.2446  1.0128
  277MOL0     H37370   4.437   3.918   7.921  0.0810  0.4283 -0.7508
  277MOL0     H37371   4.442   3.632   7.838 -0.2448  1.1162 -1.4602
  277MOL0     H37372   4.371   3.697   7.988 -0.1485 -1.4695 -0.7471
  277MOL0     H37373   4.635   3.589   8.005  1.2435 -0.0489 -0.0033
  277MOL0     H37374   4.662   3.724   7.888 -0.4521 -0.9797 -0.4906
  277MOL0     H37375   3.563   3.701   7.932  0.9998  1.4960  1.9044
  277MOL0     H37376   3.320   3.676   7.892  0.2715  0.1323 -0.2269
  277MOL0     H37377   3.007   3.692   7.692 -0.0051 -0.0768  2.1330
  277MOL0     H37378   2.790   3.607   7.605 -0.0561 -2.3452  2.7007
  277MOL0     H37379   0.897   4.008   7.202  1.6092 -0.3025 -0.5423
  277MOL0     H37380   0.691   4.057   7.080 -0.0150  0.9250  1.1138
  277MOL0     H37381   0.442   4.133   6.851 -2.2151 -0.0756  1.1858
  277MOL0     H37382   0.240   4.126   6.727 -0.8876  1.1235 -0.3230
  277MOL0     H37383  -0.055   4.184   6.721 -3.5200  0.3111 -2.5735
  277MOL0     H37384   0.077   4.158   6.608  3.6177  2.1325 -0.0250
  277MOL0     H37385  -0.153   4.191   6.507  3.3441 -3.0918  2.2144
  277MOL0     H37386  -0.048   4.320   6.447 -0.5842 -0.5672 -1.4362
  277MOL0     H37387  -0.138   4.481   6.610  2.3891 -0.3275  0.0965
  277MOL0     H37388  -0.234   4.348   6.679  1.3559 -2.4306 -0.0151
  277MOL0     H37389  -0.219   4.446   6.382  2.1173 -1.5425 -1.0204
  277MOL0     H37390  -0.346   4.347   6.412 -1.8735  0.6166 -0.0624
  277MOL0     H37391  -0.557   4.643   6.574 -1.4342 -2.1239 -0.1767
  277MOL0     H37392   0.173   4.536   6.799 -3.0494 -2.1714 -0.6279
  277MOL0     H37393   0.358   4.691   6.880  0.1143 -0.2003  0.0949
  277MOL0     H37394   0.434   4.599   7.008 -0.8075 -1.7718  0.4613
  277MOL0     H37395   0.516   4.633   6.853 -0.3310 -1.0410 -1.8918
  278MOL0     O37396   0.253   3.742   0.801 -0.6740  0.3357  0.2064
  278MOL0     C37397   0.282   3.630   0.776  0.0386 -0.1852  0.2345
  278MOL0     O37398   0.250   3.564   0.662  0.2247 -0.2561  0.3153
  278MOL0     C37399   0.177   3.627   0.561  1.4739 -0.1012 -0.0827
  278MOL0     C37400   0.131   3.545   0.458 -0.4706 -0.1793 -0.5989
  278MOL0     C37401   0.055   3.590   0.348 -0.0792  0.2911  0.5496
  278MOL0     C37402   0.015   3.725   0.335  0.2865  0.3720 -0.1937
  278MOL0     O37403  -0.072   3.779   0.241  0.4292  0.6183  0.1696
  278MOL0     C37404  -0.159   3.691   0.165 -0.3760 -0.3009  0.1305
  278MOL0     C37405  -0.277   3.764   0.095  1.0204 -0.8382 -0.6163
  278MOL0     C37406  -0.218   3.870   0.000  0.5961 -0.2984  1.2420
  278MOL0     C37407  -0.327   3.937  -0.081 -0.3827  1.3347 -0.2580
  278MOL0     C37408  -0.277   4.030  -0.186 -0.3876 -0.2260 -0.0117
  278MOL0     C37409  -0.221   3.954  -0.305 -0.2414 -0.2921 -0.0759
  278MOL0     C37410  -0.138   4.038  -0.407  0.2155 -0.6304  0.0932
  278MOL0     C37411  -0.211   4.146  -0.481 -0.7117 -0.0807 -0.5107
  278MOL0     N37412  -0.120   4.233  -0.550  0.3891 -0.1039  0.3800
  278MOL0     C37413  -0.016   4.304  -0.498  0.7321 -0.2111 -0.6116
  278MOL0     C37414   0.057   4.349  -0.604 -1.0301  0.7386  0.5052
  278MOL0     C37415   0.180   4.441  -0.595  0.6313  0.2961 -0.2421
  278MOL0     C37416   0.288   4.374  -0.506  0.0805  0.2621 -0.1743
  278MOL0     C37417   0.417   4.451  -0.496 -0.1929  0.7516  0.5326
  278MOL0     C37418   0.509   4.406  -0.387 -0.0655  1.1593  0.4059
  278MOL0     O37419   0.436   4.385  -0.264  0.5497  0.4128  0.3558
  278MOL0     C37420   0.501   4.347  -0.152  0.0118 -0.2283  0.5607
  278MOL0     C37421   0.421   4.314  -0.037  0.0546 -0.3012 -0.1908
  278MOL0     C37422   0.486   4.289   0.087  0.1375 -0.4384 -0.6147
  278MOL0     C37423   0.618   4.295   0.107 -0.2247  0.0324  0.4183
  278MOL0     C37424   0.680   4.265   0.239 -1.7715  0.3905 -0.2845
  278MOL0     O37425   0.817   4.284   0.235  0.9840  0.7807 -1.3906
  278MOL0     C37426   0.892   4.292   0.353 -0.1644  0.4924  0.3622
  278MOL0     C37427   0.867   4.205   0.460 -0.6502 -0.5718 -0.0081
  278MOL0     C37428   0.941   4.214   0.580  0.5229  0.2620 -0.0648
  278MOL0     C37429   1.055   4.297   0.588  0.0785 -0.7624 -0.6567
  278MOL0     O37430   1.143   4.311   0.694 -0.0962  0.4202 -0.0526
  278MOL0     C37431   1.090   4.298   0.831  0.2610 -0.6126  0.3351
  278MOL0     C37432   1.101   4.149   0.874 -0.5807 -0.0192 -1.2807
  278MOL0     C37433   1.018   4.112   0.992 -0.3180 -0.8304 -0.2180
  278MOL0     C37434   1.074   4.178   1.120 -0.1871 -0.0940 -0.6105
  278MOL0     C37435   1.036   4.121   1.256  0.8844  0.1903  0.1388
  278MOL0     C37436   1.097   4.176   1.387 -0.4445 -0.4976 -0.1965
  278MOL0     C37437   1.118   4.333   1.384 -0.3721 -0.3019 -0.0036
  278MOL0     C37438   1.195   4.390   1.501  0.5857  0.1153  0.2641
  278MOL0    Cl37439   1.211   4.562   1.485 -0.1581 -0.4291 -0.3271
  278MOL0     C37440   1.077   4.389   0.484 -0.0317  0.5377 -0.9069
  278MOL0     C37441   0.996   4.386   0.363 -0.9044 -0.0834  0.1276
  278MOL0     O37442   0.613   4.224   0.330 -0.0472  0.2195  0.7179
  278MOL0     C37443   0.696   4.316  -0.009 -0.0652 -0.1572 -1.2698
  278MOL0     C37444   0.642   4.346  -0.138 -0.6137  0.8889 -0.3141
  278MOL0     N37445   0.007   4.296  -0.724  0.5082 -0.5550 -0.3252
  278MOL0     N37446  -0.099   4.234  -0.689  0.5822  0.6577 -0.8061
  278MOL0     C37447   0.080   3.807   0.420  0.2712  0.2945 -1.1896
  278MOL0     C37448   0.156   3.763   0.531 -0.1717  0.3766  0.1304
  278MOL0     C37449   0.376   3.561   0.866 -0.1341 -0.1177 -0.1315
  278MOL0     C37450   0.463   3.638   0.948 -0.1829 -0.2082  0.3784
  278MOL0     C37451   0.555   3.589   1.034 -0.3326 -0.1936 -0.2913
  278MOL0     C37452   0.578   3.448   1.049  0.0862 -0.4473  0.2273
  278MOL0     O37453   0.675   3.378   1.112  0.0826 -0.0855  0.0509
  278MOL0     C37454   0.761   3.468   1.189 -0.6572  0.3294  0.6204
  278MOL0     C37455   0.872   3.535   1.109  0.0920  0.0443  0.9327
  278MOL0     C37456   0.998   3.458   1.101  0.4343 -0.2679  0.1738
  278MOL0     C37457   1.104   3.487   1.214  0.1166 -0.2606 -0.5434
  278MOL0     C37458   1.073   3.413   1.345 -0.1591  0.7915  0.5382
  278MOL0     C37459   1.042   3.358   1.446  0.0179  0.7410 -0.6201
  278MOL0     C37460   0.495   3.373   0.969 -0.1925 -0.1394 -1.4758
  278MOL0     C37461   0.397   3.423   0.877 -0.7078  0.5459 -0.0937
  278MOL0     C37462   0.306   3.315   0.822  1.3867  0.2068  0.1048
  278MOL0     H37463   0.157   3.440   0.473 -1.8409 -0.5266 -0.5797
  278MOL0     H37464   0.025   3.511   0.279  4.0207  0.6184 -1.9293
  278MOL0     H37465  -0.093   3.640   0.095  0.9192 -2.2439  2.5749
  278MOL0     H37466  -0.210   3.618   0.230 -0.2008  0.9142  1.6853
  278MOL0     H37467  -0.341   3.807   0.172 -0.3059 -0.1884 -2.0254
  278MOL0     H37468  -0.344   3.704   0.033  2.1103 -0.8908 -1.7999
  278MOL0     H37469  -0.141   3.822  -0.061  0.7030  1.3460  0.0146
  278MOL0     H37470  -0.174   3.947   0.064 -0.8360 -0.2143  2.1750
  278MOL0     H37471  -0.395   3.864  -0.126 -1.0042  3.6289 -3.3815
  278MOL0     H37472  -0.392   3.996  -0.015 -2.5903 -2.5831  1.4052
  278MOL0     H37473  -0.357   4.096  -0.220 -1.0874 -0.6152  0.8544
  278MOL0     H37474  -0.199   4.091  -0.139  0.2567 -1.1821  0.1922
  278MOL0     H37475  -0.154   3.878  -0.264  3.5731  1.8521 -1.8946
  278MOL0     H37476  -0.310   3.907  -0.348 -2.2807  4.5167 -1.7347
  278MOL0     H37477  -0.122   3.969  -0.490 -2.8970 -1.7775  0.3057
  278MOL0     H37478  -0.042   4.080  -0.376  0.7091  0.7854 -2.9748
  278MOL0     H37479  -0.281   4.102  -0.552 -0.3370  0.3514 -1.1604
  278MOL0     H37480  -0.270   4.203  -0.408  0.6717 -0.2542  0.8108
  278MOL0     H37481  -0.001   4.336  -0.395  0.5472 -0.8105 -0.3928
  278MOL0     H37482   0.220   4.442  -0.697 -1.4661 -0.7808 -1.1237
  278MOL0     H37483   0.160   4.541  -0.556  0.9454  0.2643  0.0131
  278MOL0     H37484   0.251   4.373  -0.403 -0.0672  0.9773 -0.2182
  278MOL0     H37485   0.307   4.276  -0.551  0.3608  0.2347 -0.0004
  278MOL0     H37486   0.387   4.552  -0.469  0.0064  0.7926  0.6051
  278MOL0     H37487   0.471   4.463  -0.590 -1.8204  3.6449 -0.1517
  278MOL0     H37488   0.599   4.467  -0.374  1.2360 -1.0519  2.6044
  278MOL0     H37489   0.553   4.308  -0.412 -2.1207 -0.3212  2.2417
  278MOL0     H37490   0.313   4.309  -0.039  0.0690 -0.5507 -0.4009
  278MOL0     H37491   0.422   4.265   0.171 -1.0094 -0.4854 -1.4764
  278MOL0     H37492   0.793   4.125   0.465 -0.9151 -0.3844 -0.8145
  278MOL0     H37493   0.918   4.144   0.660  1.4249  1.2740  1.1221
  278MOL0     H37494   1.144   4.360   0.903 -0.6898  2.0994 -1.1374
  278MOL0     H37495   0.986   4.332   0.839  0.7167  0.5724  1.5412
  278MOL0     H37496   1.071   4.082   0.793  0.4662 -2.0142 -0.0933
  278MOL0     H37497   1.205   4.139   0.907 -0.9673 -1.4420 -0.4123
  278MOL0     H37498   0.914   4.144   0.977  0.1799 -0.2662 -3.2444
  278MOL0     H37499   1.021   4.003   0.999  2.4223 -0.7191  4.8491
  278MOL0     H37500   1.053   4.285   1.119 -0.7661 -0.2016 -0.3713
  278MOL0     H37501   1.183   4.165   1.124 -0.2472 -0.3311  0.6266
  278MOL0     H37502   1.057   4.014   1.243  1.3885  0.4838 -1.7526
  278MOL0     H37503   0.930   4.149   1.258  1.0179  1.0585 -2.0100
  278MOL0     H37504   1.033   4.161   1.475 -0.8116  2.4086  0.1333
  278MOL0     H37505   1.195   4.128   1.395  1.4870  2.7607 -2.0459
  278MOL0     H37506   1.027   4.393   1.380  0.7867  1.5502 -0.0057
  278MOL0     H37507   1.187   4.355   1.302  0.7602 -5.4724 -0.7791
  278MOL0     H37508   1.152   4.354   1.595  0.4022  0.7365  0.4205
  278MOL0     H37509   1.299   4.357   1.506  0.4598 -0.1379  1.5570
  278MOL0     H37510   1.157   4.461   0.499 -0.7752  1.4136 -1.0496
  278MOL0     H37511   1.015   4.455   0.282 -1.3912  1.9337  1.6544
  278MOL0     H37512   0.803   4.301  -0.001 -0.1037  0.1486  0.0846
  278MOL0     H37513   0.711   4.381  -0.214  0.2331 -1.3996 -0.7041
  278MOL0     H37514   0.053   3.912   0.418  4.6724  1.7057  0.2377
  278MOL0     H37515   0.201   3.836   0.598 -1.7776 -0.2107  1.9516
  278MOL0     H37516   0.442   3.744   0.941 -4.0825 -0.8135  0.7634
  278MOL0     H37517   0.625   3.665   1.067  0.1048 -0.1575 -1.2621
  278MOL0     H37518   0.804   3.406   1.268 -0.1645 -1.2588 -0.8162
  278MOL0     H37519   0.697   3.546   1.232 -2.3571  0.2817 -1.6062
  278MOL0     H37520   0.901   3.623   1.167 -2.8526  1.2491  0.7795
  278MOL0     H37521   0.840   3.568   1.010  0.7673 -0.1347  0.6554
  278MOL0     H37522   1.052   3.491   1.012 -1.3424  2.5260 -0.0053
  278MOL0     H37523   0.969   3.354   1.084 -3.8264  0.4576  1.7167
  278MOL0     H37524   1.202   3.454   1.177  0.0981 -0.6133 -0.2881
  278MOL0     H37525   1.104   3.594   1.235  1.8302 -0.5576  1.2466
  278MOL0     H37526   1.036   3.309   1.541 -1.6218  0.0572 -1.0455
  278MOL0     H37527   0.506   3.265   0.975 -0.6153 -0.1195  0.0013
  278MOL0     H37528   0.285   3.247   0.905  2.5256 -1.1025 -0.6326
  278MOL0     H37529   0.208   3.359   0.799  2.1782  1.2676 -1.4457
  278MOL0     H37530   0.354   3.268   0.736  2.9606 -1.0330  1.5924
  279MOL0     O37531   6.366   9.332  11.285  0.2563 -0.1864 -0.2516
  279MOL0     C37532   6.339   9.270  11.187  1.2654 -0.1355  0.0858
  279MOL0     O37533   6.433   9.217  11.098 -0.3679  0.3897 -0.1405
  279MOL0     C37534   6.568   9.241  11.114 -0.5050 -0.7315 -0.1902
  279MOL0     C37535   6.642   9.276  11.003 -0.2934 -0.3161  0.0358
  279MOL0     C37536   6.778   9.278  11.008  0.3581 -0.5963 -0.6274
  279MOL0     C37537   6.846   9.260  11.129  0.6251  0.0937  0.4048
  279MOL0     O37538   6.986   9.269  11.128  0.9249 -0.4069  0.0782
  279MOL0     C37539   7.049   9.219  11.242 -0.2399  0.6727  0.0957
  279MOL0     C37540   7.205   9.208  11.220  1.3668 -0.1347  0.2034
  279MOL0     C37541   7.275   9.346  11.205 -1.1387 -0.4605 -0.3269
  279MOL0     C37542   7.427   9.322  11.214  0.4923  0.2000 -0.3718
  279MOL0     C37543   7.501   9.451  11.187 -0.8286 -0.3507  0.1148
  279MOL0     C37544   7.650   9.431  11.198 -0.3962 -1.4543 -0.1511
  279MOL0     C37545   7.755   9.551  11.177  0.3959 -0.1154 -0.2498
  279MOL0     C37546   7.754   9.658  11.291  1.0545  0.0409  0.3188
  279MOL0     N37547   7.821   9.596  11.407  0.4896 -0.1021  0.1523
  279MOL0     C37548   7.958   9.558  11.410 -1.0580 -0.3504  0.8289
  279MOL0     C37549   7.975   9.500  11.534  0.3254 -0.6010  0.6539
  279MOL0     C37550   8.105   9.467  11.598  0.8646 -0.5136  0.3462
  279MOL0     C37551   8.151   9.327  11.543  0.6062  0.5043 -0.1433
  279MOL0     C37552   8.057   9.207  11.570  0.6920  0.9282  0.4672
  279MOL0     C37553   8.006   9.199  11.720  0.2300  0.8038  0.8388
  279MOL0     O37554   7.950   9.064  11.732  0.1921 -1.4215 -0.4043
  279MOL0     C37555   7.810   9.056  11.716  0.3413 -0.4702  0.4508
  279MOL0     C37556   7.743   8.974  11.813 -0.6057  0.4101 -1.0023
  279MOL0     C37557   7.604   8.950  11.795  0.4826 -0.1102 -1.1161
  279MOL0     C37558   7.523   9.021  11.704 -0.7621 -0.6659 -0.1399
  279MOL0     C37559   7.382   8.994  11.682  0.0454 -0.1305 -0.0761
  279MOL0     O37560   7.330   9.063  11.586  0.2758 -0.1795  0.5777
  279MOL0     C37561   7.194   9.051  11.567  1.9499 -0.2953 -0.3201
  279MOL0     C37562   7.134   8.944  11.499  0.4870 -0.1455 -0.2312
  279MOL0     C37563   6.998   8.933  11.490  0.5191  0.5076 -0.6963
  279MOL0     C37564   6.911   9.026  11.553  0.2103 -0.2382  0.1843
  279MOL0     O37565   6.777   9.008  11.569 -0.3774  0.6538 -0.1890
  279MOL0     C37566   6.707   8.929  11.471 -0.8755 -0.1640 -0.1582
  279MOL0     C37567   6.561   8.927  11.500 -0.5984  0.4437 -0.4782
  279MOL0     C37568   6.470   8.834  11.413  1.2968 -0.5091 -0.0396
  279MOL0     C37569   6.478   8.680  11.420 -0.2454  0.2439 -0.6638
  279MOL0     C37570   6.377   8.622  11.321 -1.2950  0.4618 -0.2941
  279MOL0     C37571   6.234   8.667  11.357 -0.2247  0.4180  0.5275
  279MOL0     C37572   6.118   8.579  11.296  0.2938 -0.1600 -0.5869
  279MOL0     C37573   5.984   8.579  11.358 -0.1146 -1.1500 -0.3408
  279MOL0    Cl37574   5.938   8.741  11.407  0.0929  0.0905  0.2530
  279MOL0     C37575   6.968   9.141  11.619 -0.2527  1.2314 -0.3661
  279MOL0     C37576   7.110   9.156  11.621  0.4227 -0.4069 -0.0325
  279MOL0     O37577   7.328   8.912  11.754  0.1788 -0.1610 -0.1886
  279MOL0     C37578   7.593   9.106  11.618 -0.2846 -0.2898  0.0319
  279MOL0     C37579   7.731   9.119  11.621 -0.8772 -0.0066 -1.2441
  279MOL0     N37580   7.849   9.472  11.590 -0.7936  0.3781  1.1016
  279MOL0     N37581   7.765   9.517  11.506 -0.6865  0.9944  0.8270
  279MOL0     C37582   6.769   9.232  11.250 -0.4274  0.0224  0.8605
  279MOL0     C37583   6.637   9.218  11.233 -0.0751  0.8303  0.5254
  279MOL0     C37584   6.202   9.221  11.178  0.5896 -0.6346 -0.7045
  279MOL0     C37585   6.104   9.302  11.248  0.0176  0.0178  0.5868
  279MOL0     C37586   5.968   9.270  11.230 -0.2067 -0.9350 -0.0659
  279MOL0     C37587   5.933   9.169  11.143 -0.4007  0.2668  0.9893
  279MOL0     O37588   5.798   9.157  11.128 -0.0884  0.3057  0.2699
  279MOL0     C37589   5.738   9.032  11.156  0.0215 -0.9919  0.7515
  279MOL0     C37590   5.595   9.058  11.204  0.6690 -0.0706  0.1736
  279MOL0     C37591   5.575   9.036  11.356  0.2995 -0.7041 -0.4771
  279MOL0     C37592   5.441   9.096  11.414  0.7317  0.6054 -0.6542
  279MOL0     C37593   5.328   9.019  11.364  0.2614  1.2510  0.0293
  279MOL0     C37594   5.230   8.971  11.298  0.0765 -0.3007  0.0524
  279MOL0     C37595   6.034   9.095  11.071  0.2434  0.5250  0.1665
  279MOL0     C37596   6.165   9.112  11.095 -0.3357 -0.4849  0.3554
  279MOL0     C37597   6.255   9.017  11.020 -0.6000 -0.4156  0.2834
  279MOL0     H37598   6.601   9.302  10.905  0.6205 -3.4330 -1.2918
  279MOL0     H37599   6.831   9.299  10.916  0.7301  0.9239 -0.1001
  279MOL0     H37600   7.028   9.276  11.333 -0.9274 -1.9550  1.6754
  279MOL0     H37601   7.006   9.119  11.252  0.5772  0.1847 -1.0951
  279MOL0     H37602   7.211   9.138  11.136  1.4210 -3.6352  2.8497
  279MOL0     H37603   7.244   9.146  11.302  0.8898 -1.0694 -0.2595
  279MOL0     H37604   7.241   9.416  11.282  2.4907  0.2259  0.8349
  279MOL0     H37605   7.245   9.382  11.106  0.8210 -2.0425 -1.5639
  279MOL0     H37606   7.460   9.288  11.312 -2.0237 -0.2469  0.3889
  279MOL0     H37607   7.460   9.251  11.137  1.4516 -2.5921  2.4242
  279MOL0     H37608   7.470   9.493  11.091 -1.2217 -1.2465 -0.1659
  279MOL0     H37609   7.456   9.525  11.254 -1.5386  0.3730 -1.1166
  279MOL0     H37610   7.659   9.393  11.300 -2.3724 -3.6360 -0.7166
  279MOL0     H37611   7.684   9.350  11.133  2.6102  0.2709 -0.9530
  279MOL0     H37612   7.723   9.592  11.081  0.0904 -2.4312 -1.2167
  279MOL0     H37613   7.852   9.504  11.159  1.8433  3.1793 -1.9332
  279MOL0     H37614   7.805   9.750  11.261  0.6869 -0.3098 -1.4415
  279MOL0     H37615   7.650   9.680  11.315  0.9853 -1.3355  1.4104
  279MOL0     H37616   8.030   9.568  11.329  0.3602 -1.3098  1.9220
  279MOL0     H37617   8.176   9.548  11.583 -0.1366  0.4227  0.5590
  279MOL0     H37618   8.093   9.470  11.707  0.6797 -2.9585  0.4571
  279MOL0     H37619   8.179   9.315  11.438  1.1051 -2.2963  0.2438
  279MOL0     H37620   8.243   9.294  11.593 -0.0704 -0.6775  0.3573
  279MOL0     H37621   8.121   9.122  11.546  2.3263  1.8896  1.2503
  279MOL0     H37622   7.972   9.197  11.502 -0.1855  3.7533  1.0361
  279MOL0     H37623   7.928   9.275  11.735 -0.8331 -0.2877  0.9857
  279MOL0     H37624   8.080   9.215  11.798  0.2701  1.3795  0.6899
  279MOL0     H37625   7.801   8.915  11.883 -1.8767 -1.3695 -1.3947
  279MOL0     H37626   7.559   8.879  11.864 -1.9913  0.7602 -1.7457
  279MOL0     H37627   7.196   8.866  11.457 -0.5766 -0.1237 -1.8897
  279MOL0     H37628   6.958   8.836  11.464 -0.6875  0.6415  0.4971
  279MOL0     H37629   6.732   8.970  11.373 -1.9535  0.0446 -0.3630
  279MOL0     H37630   6.748   8.828  11.470  2.0779  0.8682  2.1990
  279MOL0     H37631   6.545   8.885  11.600 -1.5863  1.2935 -0.2655
  279MOL0     H37632   6.527   9.031  11.499 -1.7974  0.1974  2.8819
  279MOL0     H37633   6.370   8.878  11.421  1.3788  0.5168 -3.1789
  279MOL0     H37634   6.494   8.860  11.310  0.1844  0.3706 -0.0979
  279MOL0     H37635   6.447   8.655  11.521  0.6652  0.8833 -0.2192
  279MOL0     H37636   6.582   8.652  11.401 -0.0865 -0.1354  0.6848
  279MOL0     H37637   6.379   8.513  11.324 -3.1756  0.4055  0.4005
  279MOL0     H37638   6.401   8.651  11.218 -1.1219  1.3788 -0.0068
  279MOL0     H37639   6.226   8.670  11.466  1.0613  0.6676  0.6321
  279MOL0     H37640   6.233   8.773  11.328  2.9326  1.2108  2.6707
  279MOL0     H37641   6.147   8.473  11.300 -1.9760 -0.9391 -2.2886
  279MOL0     H37642   6.096   8.612  11.194  1.6023 -0.7885 -1.0965
  279MOL0     H37643   5.911   8.540  11.288 -2.8621  1.2381  0.9871
  279MOL0     H37644   5.989   8.518  11.448 -1.9148  0.2553  0.7905
  279MOL0     H37645   6.905   9.219  11.661  0.5197  1.6957 -0.0508
  279MOL0     H37646   7.145   9.244  11.674  0.3336  1.3674 -2.6939
  279MOL0     H37647   7.539   9.145  11.532 -0.7469 -2.0583 -0.5259
  279MOL0     H37648   7.777   9.184  11.547 -0.0942  0.2199 -0.5768
  279MOL0     H37649   6.817   9.211  11.345  0.6889 -0.6216  0.1739
  279MOL0     H37650   6.585   9.196  11.325 -0.4604 -2.5415 -0.3712
  279MOL0     H37651   6.127   9.393  11.304 -2.3718  0.8107  0.3881
  279MOL0     H37652   5.891   9.329  11.279  0.0178  0.9932 -1.9002
  279MOL0     H37653   5.792   8.966  11.225  0.1045 -3.4740 -1.5070
  279MOL0     H37654   5.729   8.969  11.067 -2.6252 -0.8491  0.8604
  279MOL0     H37655   5.524   9.005  11.139 -0.1439  2.8936 -1.5429
  279MOL0     H37656   5.569   9.159  11.171  0.9380 -0.5760 -1.6407
  279MOL0     H37657   5.651   9.104  11.397  0.0671 -0.0465 -1.1148
  279MOL0     H37658   5.595   8.935  11.394  1.4923  0.8197  3.5139
  279MOL0     H37659   5.441   9.085  11.523  1.0345 -0.4975 -0.7519
  279MOL0     H37660   5.431   9.203  11.394  0.5954  1.2417  2.3234
  279MOL0     H37661   5.137   8.951  11.249  0.1452  1.0517 -0.6859
  279MOL0     H37662   5.997   9.028  10.994  1.7786  2.1460 -2.1453
  279MOL0     H37663   6.296   9.056  10.926  1.5810  1.1181  1.7767
  279MOL0     H37664   6.340   8.983  11.079  1.2471  0.4131 -1.7615
  279MOL0     H37665   6.200   8.929  10.987 -0.0531 -0.4133 -0.6588
  280MOL0     O37666   4.258   1.592   1.836 -0.2020 -0.8448 -0.2344
  280MOL0     C37667   4.173   1.631   1.919  0.1153  0.7311  1.0528
  280MOL0     O37668   4.199   1.701   2.039  0.0035  0.6315 -0.2171
  280MOL0     C37669   4.323   1.752   2.051  1.0769 -0.8607  0.6740
  280MOL0     C37670   4.431   1.676   2.097  0.1101 -0.2531 -0.0380
  280MOL0     C37671   4.553   1.741   2.124 -0.3244  0.4495  0.0867
  280MOL0     C37672   4.567   1.875   2.106 -0.1432  0.2590  0.6341
  280MOL0     O37673   4.685   1.947   2.122 -0.5588  0.4322 -0.1299
  280MOL0     C37674   4.809   1.871   2.105  0.8438  0.1700  0.4451
  280MOL0     C37675   4.935   1.965   2.105  0.7817 -0.0221  0.5104
  280MOL0     C37676   4.952   2.033   1.975 -0.8442 -0.0111 -0.6094
  280MOL0     C37677   4.887   2.165   1.979  0.4690 -0.6285  0.2871
  280MOL0     C37678   4.910   2.257   1.862 -0.0879  0.8620 -0.3571
  280MOL0     C37679   4.848   2.390   1.851  0.5122 -0.3744 -0.3371
  280MOL0     C37680   4.852   2.447   1.711  0.2699  0.6048 -0.3864
  280MOL0     C37681   4.865   2.600   1.713 -0.0468 -0.6822  0.3900
  280MOL0     N37682   5.002   2.649   1.735 -0.0751 -0.0095  0.6924
  280MOL0     C37683   5.095   2.663   1.629 -0.6045 -0.5649  0.0185
  280MOL0     C37684   5.205   2.726   1.686  0.4620  0.2208  0.5084
  280MOL0     C37685   5.331   2.790   1.619  0.5199 -0.6249  0.2553
  280MOL0     C37686   5.421   2.686   1.558 -0.5423 -0.1875 -0.4871
  280MOL0     C37687   5.504   2.611   1.673  0.1588 -0.4048  0.0651
  280MOL0     C37688   5.625   2.680   1.737 -1.0173 -1.3857 -0.7491
  280MOL0     O37689   5.723   2.729   1.644  0.4137  0.0771 -0.2010
  280MOL0     C37690   5.836   2.788   1.695 -0.2188 -0.0526 -0.2369
  280MOL0     C37691   5.838   2.875   1.805 -0.5800 -0.0852  0.2105
  280MOL0     C37692   5.959   2.945   1.826  0.8003 -0.4868  0.3008
  280MOL0     C37693   6.073   2.938   1.744 -0.2078  0.2923 -0.3316
  280MOL0     C37694   6.195   3.004   1.770  0.3789  0.1381  0.4455
  280MOL0     O37695   6.285   3.018   1.667  0.1619 -0.0793 -0.4828
  280MOL0     C37696   6.411   3.051   1.708  1.0393 -0.6234 -0.3577
  280MOL0     C37697   6.444   3.169   1.784 -0.4546 -0.6308 -0.4885
  280MOL0     C37698   6.572   3.194   1.831  0.3942 -0.4317 -0.5635
  280MOL0     C37699   6.676   3.110   1.790 -0.3160  0.1792  0.2723
  280MOL0     O37700   6.803   3.138   1.831 -1.0384 -0.7360 -0.3166
  280MOL0     C37701   6.915   3.125   1.736 -0.2697 -0.2903  0.6095
  280MOL0     C37702   7.026   3.217   1.792 -0.2637  0.2439 -0.1869
  280MOL0     C37703   7.090   3.173   1.922  0.4110  1.0396 -0.9737
  280MOL0     C37704   7.212   3.254   1.956  0.2954 -0.0009 -0.4978
  280MOL0     C37705   7.248   3.249   2.111  0.4523 -0.3227 -0.7471
  280MOL0     C37706   7.221   3.108   2.173 -0.1942 -0.2345  0.0132
  280MOL0     C37707   7.320   3.077   2.281 -0.8520  0.2411  0.7600
  280MOL0     C37708   7.307   3.178   2.400  0.3393  0.7280 -0.3750
  280MOL0    Cl37709   7.413   3.113   2.538  0.2321  0.4109  0.1122
  280MOL0     C37710   6.645   3.009   1.698  0.6328 -0.0659  0.8793
  280MOL0     C37711   6.513   2.977   1.664 -0.4292  0.7197 -0.1547
  280MOL0     O37712   6.205   3.053   1.888  0.2714  0.2095 -0.1089
  280MOL0     C37713   6.073   2.860   1.633 -0.3450 -0.1472  0.6203
  280MOL0     C37714   5.950   2.788   1.618  0.7333  0.5413  0.1451
  280MOL0     N37715   5.168   2.741   1.818 -0.0169  0.3705 -0.5416
  280MOL0     N37716   5.051   2.692   1.848 -0.9314  0.4314 -0.3711
  280MOL0     C37717   4.457   1.938   2.051 -0.6547  0.7736 -0.1109
  280MOL0     C37718   4.335   1.881   2.024 -0.1293  0.0019  0.0075
  280MOL0     C37719   4.038   1.591   1.897  0.4420  0.3948 -0.2151
  280MOL0     C37720   3.960   1.544   2.003 -0.6537 -0.4898 -1.3733
  280MOL0     C37721   3.826   1.503   1.993  0.0064 -0.4125  0.9054
  280MOL0     C37722   3.757   1.507   1.873 -0.5356 -0.7058 -0.7131
  280MOL0     O37723   3.622   1.510   1.857 -0.0166 -0.0444 -0.7598
  280MOL0     C37724   3.531   1.406   1.915 -0.3475 -0.6500 -0.4075
  280MOL0     C37725   3.389   1.461   1.953 -0.9176  0.0894 -0.2352
  280MOL0     C37726   3.318   1.496   1.827 -0.0159 -0.4821  1.4848
  280MOL0     C37727   3.212   1.618   1.845 -0.8221  0.8252 -0.6207
  280MOL0     C37728   3.101   1.581   1.937  0.2854 -0.1655  0.4538
  280MOL0     C37729   3.003   1.549   2.004 -0.2287 -0.0623 -0.6742
  280MOL0     C37730   3.839   1.544   1.761  0.8124 -0.7981 -0.1389
  280MOL0     C37731   3.975   1.591   1.766  1.4956  1.5855 -0.4770
  280MOL0     C37732   4.036   1.637   1.633  0.6174  0.2026 -1.1064
  280MOL0     H37733   4.416   1.575   2.133  0.9918 -0.7447 -0.9927
  280MOL0     H37734   4.643   1.689   2.157  1.7725  3.3853 -0.5631
  280MOL0     H37735   4.825   1.799   2.186  1.4147 -0.3086 -0.0791
  280MOL0     H37736   4.812   1.818   2.009  0.3126  0.4822  0.2515
  280MOL0     H37737   5.024   1.902   2.113  0.3548 -0.4549  2.2166
  280MOL0     H37738   4.921   2.024   2.196 -0.8685 -0.6302  0.6771
  280MOL0     H37739   4.904   1.987   1.887 -1.4261  0.9380 -0.7964
  280MOL0     H37740   5.057   2.051   1.950 -0.7181 -0.0921 -0.1530
  280MOL0     H37741   4.779   2.152   1.990  0.0490 -1.0789 -3.3677
  280MOL0     H37742   4.940   2.220   2.058 -1.0343  1.9826 -0.3900
  280MOL0     H37743   5.018   2.266   1.847  0.4801 -1.8490  1.2908
  280MOL0     H37744   4.860   2.199   1.784 -4.1453  0.7340  2.0532
  280MOL0     H37745   4.739   2.380   1.864  0.6334  0.0956  1.2705
  280MOL0     H37746   4.886   2.454   1.931  1.1075 -2.9422  1.5691
  280MOL0     H37747   4.767   2.418   1.650  1.3604 -3.2959 -0.2971
  280MOL0     H37748   4.930   2.398   1.652 -1.6029 -0.9153 -1.6884
  280MOL0     H37749   4.825   2.628   1.615  0.1159  1.4074  0.8748
  280MOL0     H37750   4.800   2.651   1.785  0.7113 -1.5380  1.7208
  280MOL0     H37751   5.090   2.653   1.521  1.7660 -1.6440 -0.0567
  280MOL0     H37752   5.300   2.857   1.538 -1.1796 -1.0419  0.5333
  280MOL0     H37753   5.393   2.853   1.685  0.9411  0.1365 -0.8451
  280MOL0     H37754   5.359   2.616   1.501  2.6751 -2.6593 -1.2541
  280MOL0     H37755   5.500   2.728   1.497  1.9411 -1.2953  1.7597
  280MOL0     H37756   5.546   2.524   1.620 -0.8343 -1.1441  0.4641
  280MOL0     H37757   5.432   2.572   1.746  1.0262  1.5140  2.0468
  280MOL0     H37758   5.663   2.614   1.815 -4.4708 -2.2334  0.3907
  280MOL0     H37759   5.584   2.769   1.786  1.2630 -0.3348 -0.6234
  280MOL0     H37760   5.750   2.902   1.863 -1.2774  0.8045 -1.2053
  280MOL0     H37761   5.957   3.014   1.909 -0.3283  1.2265 -1.0838
  280MOL0     H37762   6.366   3.238   1.814 -1.8157 -2.7406  1.1666
  280MOL0     H37763   6.588   3.264   1.913 -0.9199 -0.4289 -0.2826
  280MOL0     H37764   6.944   3.020   1.731 -0.7201 -0.3750 -0.5533
  280MOL0     H37765   6.890   3.166   1.637  5.1909  0.9299 -0.6223
  280MOL0     H37766   7.100   3.214   1.711 -0.6377 -0.0297 -0.5243
  280MOL0     H37767   6.988   3.318   1.811 -1.3270 -0.4278  1.4219
  280MOL0     H37768   7.013   3.191   1.998 -0.1789  0.8067 -1.5040
  280MOL0     H37769   7.112   3.066   1.919 -0.6470  0.8243 -1.3768
  280MOL0     H37770   7.196   3.359   1.930  1.3400  0.3082  0.0455
  280MOL0     H37771   7.302   3.207   1.914  1.7533  0.3014  2.1005
  280MOL0     H37772   7.180   3.312   2.169 -1.4036 -3.7956  1.1893
  280MOL0     H37773   7.350   3.284   2.130  0.3981 -0.3890 -0.3072
  280MOL0     H37774   7.128   3.115   2.230  1.7898  1.4364  3.2925
  280MOL0     H37775   7.222   3.030   2.095 -1.6052 -0.1807 -0.0968
  280MOL0     H37776   7.420   3.085   2.237 -0.8718  0.2851  0.7229
  280MOL0     H37777   7.297   2.978   2.321 -0.3490  0.4408  1.5571
  280MOL0     H37778   7.354   3.273   2.375  0.4493  1.6639  2.8949
  280MOL0     H37779   7.210   3.201   2.445  1.7607  2.4717  1.9856
  280MOL0     H37780   6.716   2.937   1.660 -2.7149 -3.0509 -0.3254
  280MOL0     H37781   6.496   2.883   1.611  2.7384 -1.4109  2.2698
  280MOL0     H37782   6.144   2.848   1.552 -1.3140 -0.5097 -0.1872
  280MOL0     H37783   5.948   2.734   1.524 -0.6999  1.4880 -0.3951
  280MOL0     H37784   4.471   2.042   2.024  2.5884  0.8186  1.2025
  280MOL0     H37785   4.251   1.941   1.991  2.1198  3.1234 -0.4617
  280MOL0     H37786   4.021   1.534   2.093  1.4217 -4.3957 -2.9512
  280MOL0     H37787   3.779   1.452   2.077  1.7582 -2.4983  0.7137
  280MOL0     H37788   3.573   1.361   2.005  0.3658 -1.8351 -1.3130
  280MOL0     H37789   3.520   1.329   1.838 -3.4697  2.9302 -4.0431
  280MOL0     H37790   3.406   1.549   2.016  0.6747 -0.5339  0.2740
  280MOL0     H37791   3.331   1.378   1.993 -1.2238 -0.4132 -1.6741
  280MOL0     H37792   3.272   1.407   1.783 -0.9601  0.4588  0.5022
  280MOL0     H37793   3.384   1.532   1.748  0.7695 -2.1758  1.3249
  280MOL0     H37794   3.259   1.714   1.866  0.0342  0.5966 -1.4040
  280MOL0     H37795   3.153   1.634   1.755  0.0769  1.1709 -1.1594
  280MOL0     H37796   2.917   1.532   2.066 -0.5391  0.8498 -0.8399
  280MOL0     H37797   3.780   1.563   1.671  0.1296 -0.6534  0.3318
  280MOL0     H37798   4.136   1.592   1.625  0.1959 -0.7041 -1.4176
  280MOL0     H37799   3.974   1.604   1.549  0.2449 -2.4410  0.0828
  280MOL0     H37800   4.050   1.744   1.617  0.1085  0.2543 -1.2139
  281MOL0     O37801   5.793   8.286   1.043  0.6010 -0.2233 -0.2727
  281MOL0     C37802   5.771   8.295   0.923  0.2331  0.7452 -0.4847
  281MOL0     O37803   5.837   8.376   0.843  0.4193  0.7170 -0.3487
  281MOL0     C37804   5.957   8.422   0.882  0.3563 -1.2542 -0.3446
  281MOL0     C37805   5.976   8.514   0.984 -0.1888  0.9123  0.0278
  281MOL0     C37806   6.106   8.561   1.011  0.3596 -0.8207  0.1630
  281MOL0     C37807   6.223   8.530   0.941  0.2719  0.1642  0.5431
  281MOL0     O37808   6.344   8.583   0.984 -0.4980 -0.3374 -0.2138
  281MOL0     C37809   6.458   8.498   0.978 -0.8277 -0.1484  0.1215
  281MOL0     C37810   6.551   8.541   0.855  0.9751  0.2376  0.0256
  281MOL0     C37811   6.643   8.428   0.823 -1.3998  0.1249 -0.0303
  281MOL0     C37812   6.714   8.458   0.688  1.0378 -0.3041 -0.5591
  281MOL0     C37813   6.825   8.353   0.666  0.9713  0.5886 -0.1996
  281MOL0     C37814   6.782   8.204   0.623  0.5669  0.7044 -0.1378
  281MOL0     C37815   6.907   8.113   0.589 -0.0241  0.2245 -1.1416
  281MOL0     C37816   6.883   7.976   0.528 -0.1800 -0.3481 -0.4655
  281MOL0     N37817   6.870   7.980   0.379  0.2134  0.1655  0.0400
  281MOL0     C37818   6.779   7.901   0.307  0.0501  0.4640 -0.0600
  281MOL0     C37819   6.796   7.923   0.174 -0.6043  0.3066 -0.1722
  281MOL0     C37820   6.735   7.839   0.065 -0.6553 -0.9205  0.0130
  281MOL0     C37821   6.650   7.924  -0.027 -0.0408 -0.2063 -0.0051
  281MOL0     C37822   6.720   8.037  -0.114 -0.2613  0.4588 -0.2467
  281MOL0     C37823   6.857   8.001  -0.176 -0.0078 -0.1712  0.6571
  281MOL0     O37824   6.885   8.091  -0.286  0.4448  0.4501 -0.1879
  281MOL0     C37825   6.986   8.180  -0.260 -0.3954 -0.5556  0.8041
  281MOL0     C37826   7.032   8.233  -0.379 -0.7732  0.4403  0.2305
  281MOL0     C37827   7.135   8.327  -0.374 -0.3383  0.7224  0.6959
  281MOL0     C37828   7.181   8.381  -0.246  0.4267  0.4612 -0.3991
  281MOL0     C37829   7.274   8.486  -0.244  0.0345 -0.5841  0.0216
  281MOL0     O37830   7.290   8.550  -0.123 -0.7835 -0.6537  0.1855
  281MOL0     C37831   7.389   8.643  -0.133 -0.1194  0.4304 -0.2915
  281MOL0     C37832   7.351   8.767  -0.165 -1.1659 -0.7480 -0.2349
  281MOL0     C37833   7.444   8.872  -0.159  0.4617  0.2214  0.8853
  281MOL0     C37834   7.576   8.858  -0.136 -0.4382 -0.0031 -0.2505
  281MOL0     O37835   7.668   8.961  -0.148  0.7267 -1.0351 -0.2778
  281MOL0     C37836   7.806   8.931  -0.146  0.5626  0.1781 -0.5909
  281MOL0     C37837   7.878   9.052  -0.205  0.2216 -0.4568 -0.1460
  281MOL0     C37838   8.030   9.055  -0.185  0.5743 -0.9593  0.1256
  281MOL0     C37839   8.099   9.191  -0.228 -0.5195  0.5556 -0.0880
  281MOL0     C37840   8.246   9.176  -0.189  0.0095  0.2027 -0.1229
  281MOL0     C37841   8.319   9.298  -0.249 -0.5174 -0.3738  0.4611
  281MOL0     C37842   8.470   9.307  -0.207  0.8964 -0.1505 -0.1320
  281MOL0     C37843   8.563   9.360  -0.313 -0.4213 -0.1395  0.2114
  281MOL0    Cl37844   8.537   9.522  -0.384 -0.0279  0.3309 -0.0268
  281MOL0     C37845   7.613   8.724  -0.112  0.7470  0.5098 -0.2354
  281MOL0     C37846   7.518   8.620  -0.112 -0.3939  0.3426 -0.7380
  281MOL0     O37847   7.349   8.489  -0.335 -0.4554  0.0393  0.1198
  281MOL0     C37848   7.133   8.326  -0.127 -0.0709 -0.2713  0.3309
  281MOL0     C37849   7.037   8.234  -0.137 -0.0169  0.0398 -0.4601
  281MOL0     N37850   6.911   8.000   0.168 -0.2696 -0.6687 -0.2861
  281MOL0     N37851   6.942   8.048   0.284  0.1815  1.2870  0.4613
  281MOL0     C37852   6.202   8.430   0.845 -0.2319 -0.0929  0.2689
  281MOL0     C37853   6.073   8.381   0.812 -1.2399 -0.7258  0.1081
  281MOL0     C37854   5.664   8.208   0.861 -0.6784 -0.2500 -0.1904
  281MOL0     C37855   5.632   8.087   0.923 -0.4859 -0.3771  0.8604
  281MOL0     C37856   5.527   7.999   0.877 -0.9084  0.5227  0.1734
  281MOL0     C37857   5.461   8.031   0.765  0.2929  0.0322 -0.6577
  281MOL0     O37858   5.356   7.948   0.732  0.7769 -0.9753  0.1447
  281MOL0     C37859   5.266   7.991   0.640  0.6894 -0.3452 -0.3026
  281MOL0     C37860   5.135   7.921   0.641  1.0320  0.0906 -0.4543
  281MOL0     C37861   5.033   7.986   0.550 -0.0046  0.4651  0.3306
  281MOL0     C37862   4.905   7.888   0.544  0.0215  0.0025 -0.1927
  281MOL0     C37863   4.812   7.927   0.444  0.0209  0.0453  0.3873
  281MOL0     C37864   4.734   7.959   0.356  0.2756 -0.2659  0.1009
  281MOL0     C37865   5.483   8.154   0.702  0.6480 -0.9535  0.4320
  281MOL0     C37866   5.582   8.242   0.749 -0.2447 -0.3692  0.5806
  281MOL0     C37867   5.581   8.383   0.696 -0.6732 -0.2252  0.1532
  281MOL0     H37868   5.897   8.533   1.055 -0.2067  0.6356  0.0810
  281MOL0     H37869   6.129   8.621   1.099  3.0449 -0.6720 -0.5634
  281MOL0     H37870   6.519   8.493   1.068 -1.0095 -1.7310  0.1806
  281MOL0     H37871   6.429   8.393   0.972  0.9911 -0.6454 -0.3745
  281MOL0     H37872   6.617   8.624   0.880  1.5542  0.5071 -2.1919
  281MOL0     H37873   6.487   8.575   0.773  1.6508  1.5917  0.0404
  281MOL0     H37874   6.583   8.338   0.805 -1.1592  0.5715 -3.8278
  281MOL0     H37875   6.716   8.409   0.903 -2.1611  2.3234  1.2640
  281MOL0     H37876   6.645   8.461   0.603 -0.8362 -1.3563  0.8484
  281MOL0     H37877   6.747   8.561   0.703  0.9303 -0.4153  0.5413
  281MOL0     H37878   6.907   8.396   0.608  1.9612  1.7732  1.9464
  281MOL0     H37879   6.867   8.335   0.765  0.9916 -0.4102 -0.3771
  281MOL0     H37880   6.720   8.167   0.705 -2.3980  4.4221 -0.3645
  281MOL0     H37881   6.722   8.207   0.531  1.1222 -2.0257 -0.6687
  281MOL0     H37882   6.950   8.092   0.688  0.5299 -0.6913 -1.5701
  281MOL0     H37883   6.982   8.168   0.531 -0.7802  0.3016 -2.0596
  281MOL0     H37884   6.980   7.928   0.544  0.4775  0.6233 -1.3940
  281MOL0     H37885   6.800   7.929   0.580 -0.8480  2.0490  0.7918
  281MOL0     H37886   6.708   7.830   0.348  1.1274 -2.6429 -3.0443
  281MOL0     H37887   6.812   7.788   0.006 -1.6901 -0.8735 -1.4214
  281MOL0     H37888   6.672   7.769   0.121  0.1962 -0.6202  1.3943
  281MOL0     H37889   6.581   7.864  -0.087  0.2565  2.2523 -3.1013
  281MOL0     H37890   6.585   7.984   0.038  1.4306 -0.7343  2.0346
  281MOL0     H37891   6.738   8.120  -0.045 -3.6179 -0.1861  1.6145
  281MOL0     H37892   6.659   8.069  -0.199  2.8147 -0.0593 -2.8516
  281MOL0     H37893   6.854   7.903  -0.224  0.1018  1.6560 -3.4141
  281MOL0     H37894   6.941   7.993  -0.105  1.7762  2.6986 -0.9214
  281MOL0     H37895   7.004   8.189  -0.474  0.0355 -1.1827  0.7174
  281MOL0     H37896   7.184   8.346  -0.469 -0.1864  0.7736  0.7840
  281MOL0     H37897   7.248   8.788  -0.189 -1.3774 -2.9188 -1.4455
  281MOL0     H37898   7.411   8.972  -0.183 -0.0489 -0.5799 -2.0920
  281MOL0     H37899   7.839   8.904  -0.046  0.6203  1.3316 -0.2841
  281MOL0     H37900   7.820   8.840  -0.206  1.7311 -0.8283  1.1357
  281MOL0     H37901   7.854   9.046  -0.312 -1.5496 -0.7186  0.2229
  281MOL0     H37902   7.846   9.144  -0.155 -1.9957 -0.0980 -2.0237
  281MOL0     H37903   8.044   9.035  -0.079 -3.1439 -1.1435  0.7282
  281MOL0     H37904   8.085   8.975  -0.236  0.9480 -2.3182  2.5053
  281MOL0     H37905   8.050   9.267  -0.166  1.0147 -0.6358  2.7948
  281MOL0     H37906   8.089   9.207  -0.336  0.0405  2.4074  0.1022
  281MOL0     H37907   8.302   9.089  -0.222 -0.4541 -0.6604  1.2716
  281MOL0     H37908   8.246   9.153  -0.082 -1.8308 -3.8428 -0.8341
  281MOL0     H37909   8.304   9.297  -0.357 -1.2591  1.4600  0.5207
  281MOL0     H37910   8.264   9.391  -0.231 -1.6360 -0.5859 -1.5779
  281MOL0     H37911   8.504   9.210  -0.171 -1.0357  0.3991  3.7244
  281MOL0     H37912   8.472   9.374  -0.120 -0.0805 -0.2936  0.0199
  281MOL0     H37913   8.659   9.362  -0.261  0.5568  3.1197 -1.4663
  281MOL0     H37914   8.573   9.287  -0.394 -0.1083  0.7184 -0.5285
  281MOL0     H37915   7.715   8.706  -0.079  0.2751  0.2744  1.1214
  281MOL0     H37916   7.553   8.525  -0.072 -0.0602  1.1514  1.0157
  281MOL0     H37917   7.164   8.372  -0.033  1.0844  0.0338 -0.1875
  281MOL0     H37918   7.009   8.197  -0.039 -1.7441  1.8178 -0.2162
  281MOL0     H37919   6.294   8.393   0.801 -1.2180 -2.7499  0.3072
  281MOL0     H37920   6.065   8.309   0.731 -1.0673 -0.1697 -0.4062
  281MOL0     H37921   5.682   8.082   1.019 -2.4558  0.9228  2.0360
  281MOL0     H37922   5.514   7.914   0.942  1.2893  0.2122  0.2752
  281MOL0     H37923   5.300   7.992   0.536 -2.1209  0.1095 -1.2820
  281MOL0     H37924   5.238   8.094   0.663  3.0250  0.7205 -1.8176
  281MOL0     H37925   5.109   7.918   0.747  2.7711 -0.9730 -0.0145
  281MOL0     H37926   5.152   7.817   0.612  0.5036 -0.0166 -0.3854
  281MOL0     H37927   5.068   7.994   0.447 -1.9044  0.1796 -0.3785
  281MOL0     H37928   4.995   8.084   0.580 -0.2784  0.3488  0.3713
  281MOL0     H37929   4.933   7.783   0.533  0.9685 -0.1619  2.8103
  281MOL0     H37930   4.856   7.895   0.641 -1.3357 -2.4757 -0.6262
  281MOL0     H37931   4.662   7.988   0.283  1.1637  2.3382  0.1680
  281MOL0     H37932   5.417   8.188   0.622 -1.7390  0.4804  2.8474
  281MOL0     H37933   5.573   8.452   0.780  0.3217 -0.4984  0.4872
  281MOL0     H37934   5.672   8.411   0.643 -1.8493  0.2677 -1.7167
  281MOL0     H37935   5.505   8.405   0.620 -1.0362 -1.0328  0.2712
  282MOL0     O37936   5.004   1.252  10.314  0.3339 -0.6506  0.3955
  282MOL0     C37937   5.048   1.334  10.239 -0.0039  0.9482  0.3230
  282MOL0     O37938   5.001   1.352  10.112 -0.3507 -0.7394  0.1904
  282MOL0     C37939   4.878   1.311  10.084  0.3369 -0.5650  0.3536
  282MOL0     C37940   4.786   1.419  10.097  0.5168  1.3473 -0.2515
  282MOL0     C37941   4.654   1.393  10.067 -0.1819 -0.9955 -0.0415
  282MOL0     C37942   4.606   1.262  10.033 -0.6994 -0.1409 -1.0756
  282MOL0     O37943   4.476   1.234  10.000  0.1047 -0.3188  0.2681
  282MOL0     C37944   4.374   1.291  10.080  0.1632  0.5131  0.2514
  282MOL0     C37945   4.247   1.182  10.089 -0.2083  0.2497 -0.1157
  282MOL0     C37946   4.294   1.038  10.101  0.5501 -0.1040  0.2500
  282MOL0     C37947   4.386   1.014  10.220  0.4377 -0.2500  0.1327
  282MOL0     C37948   4.411   0.864  10.233 -0.0676  0.6851  0.9226
  282MOL0     C37949   4.498   0.810  10.119 -0.0312 -0.0454  0.0168
  282MOL0     C37950   4.644   0.818  10.139 -0.2312  0.2058 -0.2446
  282MOL0     C37951   4.688   0.710  10.246  0.1319 -1.4040 -0.4683
  282MOL0     N37952   4.672   0.577  10.188  0.5050 -0.0737 -0.6108
  282MOL0     C37953   4.752   0.520  10.093  0.1362 -0.3411  0.3793
  282MOL0     C37954   4.706   0.392  10.072  0.0029 -0.8285 -0.3531
  282MOL0     C37955   4.758   0.292   9.973 -0.1915  0.0016  0.4869
  282MOL0     C37956   4.896   0.238  10.005 -0.2605 -0.5673 -1.2041
  282MOL0     C37957   4.908   0.110   9.928 -0.5435  0.9079 -0.0487
  282MOL0     C37958   5.047   0.041   9.951 -0.2943 -0.7473 -0.4102
  282MOL0     O37959   5.073  -0.056   9.850  0.4666  0.5110  0.1921
  282MOL0     C37960   5.179  -0.142   9.862 -0.2045 -0.4395 -0.4357
  282MOL0     C37961   5.215  -0.221   9.748  0.4617 -0.8001  0.2921
  282MOL0     C37962   5.331  -0.298   9.742 -0.6859  0.9760  0.5561
  282MOL0     C37963   5.409  -0.310   9.864 -0.2282 -0.1226 -0.4514
  282MOL0     C37964   5.529  -0.396   9.883  0.3310 -0.1426  0.6057
  282MOL0     O37965   5.611  -0.371   9.987 -0.0852 -0.5770  0.6048
  282MOL0     C37966   5.739  -0.423   9.985  0.5231  0.5904 -0.0472
  282MOL0     C37967   5.792  -0.471  10.103 -0.2882  0.0548  0.2808
  282MOL0     C37968   5.930  -0.508  10.121  0.3365  0.0273 -0.0403
  282MOL0     C37969   6.016  -0.498  10.013  0.0783 -0.1159  0.5095
  282MOL0     O37970   6.152  -0.503  10.030  0.0646 -0.4535 -0.2220
  282MOL0     C37971   6.196  -0.572  10.148 -0.1679 -0.5568 -0.2209
  282MOL0     C37972   6.348  -0.600  10.139 -0.7064 -0.4900  0.6424
  282MOL0     C37973   6.421  -0.476  10.188  0.1145  0.5950 -0.1709
  282MOL0     C37974   6.570  -0.489  10.167 -0.5234  0.1645 -1.2516
  282MOL0     C37975   6.639  -0.407  10.271 -1.0861 -0.2399 -0.2765
  282MOL0     C37976   6.790  -0.442  10.287 -0.0866  0.0130  0.7892
  282MOL0     C37977   6.870  -0.431  10.156  0.1313 -0.4178 -0.2447
  282MOL0     C37978   7.012  -0.471  10.175  0.0353 -0.4771 -0.9365
  282MOL0    Cl37979   7.088  -0.585  10.049  0.0359 -0.4082  0.1132
  282MOL0     C37980   5.961  -0.459   9.890 -0.0850 -0.0773 -0.1082
  282MOL0     C37981   5.825  -0.423   9.873  0.4372  0.0454  0.2289
  282MOL0     O37982   5.545  -0.494   9.802  0.7659  0.6970  0.2182
  282MOL0     C37983   5.379  -0.235   9.973 -0.1777 -0.3158 -0.4656
  282MOL0     C37984   5.266  -0.153   9.978 -0.3495  0.5217  0.1076
  282MOL0     N37985   4.619   0.363  10.179 -0.5425  0.0389 -0.1229
  282MOL0     N37986   4.593   0.475  10.240  0.1655 -0.0979  0.3150
  282MOL0     C37987   4.700   1.161  10.008 -0.0071  0.3391 -0.2630
  282MOL0     C37988   4.837   1.188  10.024 -0.2037  0.7774 -0.7349
  282MOL0     C37989   5.162   1.429  10.283 -1.4775  0.3497 -0.5960
  282MOL0     C37990   5.218   1.521  10.193 -0.1522 -0.1223 -0.4289
  282MOL0     C37991   5.337   1.594  10.231  0.8090  0.8857  0.0346
  282MOL0     C37992   5.408   1.575  10.348  0.3020  0.1041  0.1862
  282MOL0     O37993   5.530   1.634  10.364  0.3897  0.5520  0.5604
  282MOL0     C37994   5.594   1.640  10.489  0.9716 -0.1207 -0.0640
  282MOL0     C37995   5.663   1.500  10.538  0.9040 -0.7197  0.8552
  282MOL0     C37996   5.764   1.529  10.646  0.7890  0.3722 -0.9119
  282MOL0     C37997   5.808   1.406  10.715  0.6418  0.5545  0.4694
  282MOL0     C37998   5.887   1.322  10.627 -0.1602 -0.6231  0.0859
  282MOL0     C37999   5.967   1.263  10.561 -0.4962  1.5109  0.4789
  282MOL0     C38000   5.335   1.502  10.444 -0.1412 -0.2481  0.4633
  282MOL0     C38001   5.222   1.426  10.417  0.4054 -0.0051 -0.2871
  282MOL0     C38002   5.162   1.340  10.523  0.3218  0.1247 -0.1277
  282MOL0     H38003   4.807   1.519  10.136  1.6030  1.9398 -2.2571
  282MOL0     H38004   4.577   1.467  10.086 -0.6222 -1.2661 -0.7092
  282MOL0     H38005   4.406   1.302  10.184  2.4450 -1.7219 -0.1247
  282MOL0     H38006   4.332   1.377  10.028  1.5278  0.1042 -1.6321
  282MOL0     H38007   4.184   1.197  10.001 -3.0664  0.6594  1.8734
  282MOL0     H38008   4.181   1.210  10.172 -1.5495 -0.9577 -0.7419
  282MOL0     H38009   4.355   1.015  10.013  1.7375  2.7009  0.2318
  282MOL0     H38010   4.205   0.975  10.088  0.7294 -0.7475  1.8653
  282MOL0     H38011   4.481   1.068  10.228  0.3851 -0.2278  0.6788
  282MOL0     H38012   4.331   1.046  10.309  1.0362  0.7013  0.1718
  282MOL0     H38013   4.448   0.842  10.333  0.0822  0.4358  0.8111
  282MOL0     H38014   4.312   0.820  10.218  0.3850  0.4174 -1.8195
  282MOL0     H38015   4.469   0.708  10.093  2.2304 -0.5529 -0.6823
  282MOL0     H38016   4.487   0.865  10.025  2.0943  0.3520 -0.0341
  282MOL0     H38017   4.663   0.918  10.181 -0.6422  0.2747 -0.2204
  282MOL0     H38018   4.705   0.820  10.048 -1.1108 -0.2715 -0.8588
  282MOL0     H38019   4.792   0.731  10.274 -0.9473  0.4871  2.6761
  282MOL0     H38020   4.626   0.716  10.336  0.8385 -1.0222 -0.0001
  282MOL0     H38021   4.832   0.567  10.035 -0.0027 -1.3677 -0.6936
  282MOL0     H38022   4.690   0.206   9.970  1.8732 -1.7324  0.6442
  282MOL0     H38023   4.753   0.337   9.874  0.1504  3.8342  2.0499
  282MOL0     H38024   4.970   0.313   9.976 -0.6181  1.3709  2.3629
  282MOL0     H38025   4.907   0.206  10.109  1.4123  2.1059 -0.4589
  282MOL0     H38026   4.893   0.129   9.821 -0.6248 -1.0606 -0.4128
  282MOL0     H38027   4.831   0.038   9.956 -1.0094  0.8700 -1.3711
  282MOL0     H38028   5.055   0.007  10.055 -1.2351 -1.7794 -0.6655
  282MOL0     H38029   5.117   0.123   9.929  0.3593 -0.9544  0.7873
  282MOL0     H38030   5.146  -0.217   9.664  1.6594  1.7781 -0.6666
  282MOL0     H38031   5.338  -0.367   9.659 -3.7901  1.4773 -0.2541
  282MOL0     H38032   5.720  -0.469  10.184 -0.6853  0.8709 -0.0885
  282MOL0     H38033   5.957  -0.545  10.219  1.2281  1.1636  0.1585
  282MOL0     H38034   6.166  -0.521  10.240  0.8282 -1.0516  0.4054
  282MOL0     H38035   6.147  -0.669  10.156  1.6004 -1.3436  2.4316
  282MOL0     H38036   6.369  -0.686  10.203 -0.9159 -1.2575 -0.2924
  282MOL0     H38037   6.372  -0.625  10.035 -0.4034 -0.1320  0.6253
  282MOL0     H38038   6.381  -0.385  10.142 -0.3492  1.0310  1.0630
  282MOL0     H38039   6.406  -0.475  10.296  2.4770  0.1546  0.2236
  282MOL0     H38040   6.598  -0.460  10.065 -0.1523  0.3141 -1.1084
  282MOL0     H38041   6.606  -0.592  10.179 -0.0299  0.4792  0.1168
  282MOL0     H38042   6.597  -0.414  10.372  1.5847  0.5238  0.9735
  282MOL0     H38043   6.634  -0.302  10.240 -0.2290 -0.2280 -0.3882
  282MOL0     H38044   6.832  -0.366  10.354  0.3590  0.8425 -0.4117
  282MOL0     H38045   6.795  -0.543  10.330 -1.5462  0.5631  2.3993
  282MOL0     H38046   6.856  -0.336  10.103 -1.6870 -0.4523  0.1181
  282MOL0     H38047   6.836  -0.511  10.090 -1.1317 -0.1462  0.0564
  282MOL0     H38048   7.076  -0.382  10.173 -0.4381 -0.1366 -1.2551
  282MOL0     H38049   7.025  -0.528  10.268  1.8472  1.6077  0.1876
  282MOL0     H38050   6.027  -0.426   9.810  1.4224  0.5243  1.3118
  282MOL0     H38051   5.786  -0.396   9.775  2.2755  1.6028 -0.1288
  282MOL0     H38052   5.427  -0.240  10.070  0.3589  0.4203 -0.6863
  282MOL0     H38053   5.259  -0.085  10.063 -4.0535 -2.5294  2.5734
  282MOL0     H38054   4.656   1.064   9.987 -2.0076  1.5681 -2.1862
  282MOL0     H38055   4.913   1.111  10.009 -0.5156 -0.1218  1.7538
  282MOL0     H38056   5.187   1.532  10.089 -0.8117  1.2729 -0.1017
  282MOL0     H38057   5.369   1.658  10.149 -0.9399  1.3863 -0.2992
  282MOL0     H38058   5.528   1.682  10.566 -0.7361 -1.6793 -0.5898
  282MOL0     H38059   5.673   1.711  10.465  2.3541 -1.9148 -1.0905
  282MOL0     H38060   5.711   1.464  10.447  3.0985 -0.4309  1.8360
  282MOL0     H38061   5.589   1.422  10.554 -0.6532  0.3725 -0.6014
  282MOL0     H38062   5.719   1.592  10.722 -0.6874 -1.9385  0.2603
  282MOL0     H38063   5.847   1.583  10.599  1.1758  0.9134  0.3373
  282MOL0     H38064   5.849   1.439  10.812 -0.9448  1.9206  0.7275
  282MOL0     H38065   5.716   1.354  10.742 -0.3063  0.7448 -2.1817
  282MOL0     H38066   6.042   1.212  10.504 -2.5241  3.0660 -4.1068
  282MOL0     H38067   5.381   1.493  10.542  0.4138  1.4648  0.4022
  282MOL0     H38068   5.168   1.233  10.503 -4.2352 -0.6880  1.5262
  282MOL0     H38069   5.213   1.355  10.618  2.6571 -3.3645 -0.6673
  282MOL0     H38070   5.059   1.377  10.529  0.2672  0.3217 -1.7259
  283MOL0     O38071   5.867   7.297   2.783 -0.1952 -0.9452 -0.2200
  283MOL0     C38072   5.770   7.222   2.800  0.0373  0.3808  0.1791
  283MOL0     O38073   5.780   7.082   2.801 -0.0605 -0.6435  0.5827
  283MOL0     C38074   5.899   7.012   2.824 -0.3489 -0.6802  0.5780
  283MOL0     C38075   6.020   7.059   2.880  0.1801  0.4905 -0.3036
  283MOL0     C38076   6.133   6.978   2.888 -0.9017  0.2127  0.1459
  283MOL0     C38077   6.126   6.846   2.841  0.9080 -0.4792  0.0973
  283MOL0     O38078   6.229   6.760   2.839  0.4336  0.1149 -0.5932
  283MOL0     C38079   6.355   6.785   2.901  0.1750 -0.0495 -0.6312
  283MOL0     C38080   6.461   6.665   2.897  0.0476  0.2240 -0.0398
  283MOL0     C38081   6.528   6.675   2.759  0.0224  0.4504 -0.0837
  283MOL0     C38082   6.675   6.649   2.800  0.4514  0.1887  0.0904
  283MOL0     C38083   6.754   6.639   2.673 -0.0198  0.6615  0.4680
  283MOL0     C38084   6.893   6.572   2.679 -0.6956 -0.4521  0.1026
  283MOL0     C38085   6.994   6.650   2.752  0.3542  0.8763 -0.0352
  283MOL0     C38086   7.103   6.557   2.806  0.4353 -0.4225  1.5252
  283MOL0     N38087   7.223   6.621   2.857 -0.4415 -0.2078  0.6157
  283MOL0     C38088   7.328   6.658   2.768  0.9784  0.6790 -0.1345
  283MOL0     C38089   7.430   6.689   2.846 -0.8896  0.5906  0.0771
  283MOL0     C38090   7.565   6.751   2.798  0.2931 -0.0668 -0.1940
  283MOL0     C38091   7.661   6.785   2.911  0.2699 -0.0677 -0.0113
  283MOL0     C38092   7.771   6.878   2.866  0.8212  0.2597  1.1423
  283MOL0     C38093   7.874   6.897   2.970 -0.7405 -0.2314 -0.2989
  283MOL0     O38094   7.986   6.976   2.930 -0.3494  1.2090 -0.8441
  283MOL0     C38095   8.082   7.010   3.026  0.5510 -0.8268  1.2730
  283MOL0     C38096   8.200   7.069   2.970  0.8536  0.0244 -0.9346
  283MOL0     C38097   8.304   7.113   3.054  0.2393 -0.9338 -0.1076
  283MOL0     C38098   8.309   7.074   3.191 -0.7367 -0.2542  0.3286
  283MOL0     C38099   8.430   7.088   3.271 -0.3183 -0.1083 -0.6234
  283MOL0     O38100   8.532   7.149   3.207  0.2739  0.6710  0.2485
  283MOL0     C38101   8.665   7.142   3.252 -0.3443  0.5275  0.7677
  283MOL0     C38102   8.722   7.019   3.243 -0.1939 -0.0101 -0.5610
  283MOL0     C38103   8.851   6.992   3.284 -0.1713 -0.6291  0.5331
  283MOL0     C38104   8.929   7.093   3.334 -0.7074 -0.3110  0.0346
  283MOL0     O38105   9.052   7.051   3.371 -0.5515  0.5990  0.7506
  283MOL0     C38106   9.150   7.145   3.425  0.8616 -0.2067  0.0280
  283MOL0     C38107   9.250   7.056   3.505  0.8250 -1.2671  0.2369
  283MOL0     C38108   9.340   7.148   3.590 -0.4799  0.3251 -0.5811
  283MOL0     C38109   9.435   7.056   3.669  0.7619 -0.5498  0.6048
  283MOL0     C38110   9.485   7.129   3.795  0.8829 -0.3221  1.0567
  283MOL0     C38111   9.393   7.122   3.921 -0.0676 -0.0132  0.2884
  283MOL0     C38112   9.371   6.970   3.955 -0.0137 -0.6501 -0.1780
  283MOL0     C38113   9.325   6.963   4.105 -0.3835 -0.3397  0.4243
  283MOL0    Cl38114   9.477   7.007   4.209  0.4776  0.0453  0.0874
  283MOL0     C38115   8.880   7.221   3.334 -1.4070 -0.3100 -0.9657
  283MOL0     C38116   8.751   7.248   3.290 -0.3721  0.3458  0.0180
  283MOL0     O38117   8.441   7.054   3.384  0.5348 -0.1510 -0.3751
  283MOL0     C38118   8.198   7.000   3.244 -0.5081 -0.9984  0.1586
  283MOL0     C38119   8.085   6.985   3.167  0.0079  0.4602 -0.5918
  283MOL0     N38120   7.401   6.659   2.976  0.3832  0.8300 -0.1176
  283MOL0     N38121   7.276   6.623   2.979  0.3811 -0.0100  0.3367
  283MOL0     C38122   6.009   6.805   2.793 -0.8702 -0.2709  0.6732
  283MOL0     C38123   5.900   6.881   2.779 -0.0355  0.4866  0.2545
  283MOL0     C38124   5.625   7.274   2.789  0.6753 -0.5418 -0.4879
  283MOL0     C38125   5.526   7.189   2.742 -0.0996 -0.0198 -0.4052
  283MOL0     C38126   5.390   7.234   2.732 -0.0442  0.3953  0.4115
  283MOL0     C38127   5.357   7.365   2.764  0.5123  0.1570 -0.0262
  283MOL0     O38128   5.229   7.399   2.725 -0.1215 -0.4264 -0.0051
  283MOL0     C38129   5.205   7.542   2.711 -0.1993 -0.3147  0.0966
  283MOL0     C38130   5.060   7.565   2.667  0.7939 -0.5773  0.2261
  283MOL0     C38131   5.042   7.703   2.591 -0.5913 -0.1028  0.1909
  283MOL0     C38132   4.894   7.727   2.561 -0.0272  0.3186  0.7041
  283MOL0     C38133   4.833   7.619   2.477  0.9775 -0.3218 -0.2651
  283MOL0     C38134   4.780   7.539   2.409  0.5306  0.9453 -0.0980
  283MOL0     C38135   5.460   7.447   2.812  0.4581 -0.0150  0.0356
  283MOL0     C38136   5.591   7.400   2.838  1.0189 -0.7244 -0.0498
  283MOL0     C38137   5.692   7.496   2.893  0.0130 -0.8028  0.1251
  283MOL0     H38138   6.018   7.162   2.916 -1.6905 -0.5130  2.9375
  283MOL0     H38139   6.219   7.025   2.935 -0.1376 -0.5028 -0.5071
  283MOL0     H38140   6.392   6.878   2.858 -0.5299  0.2471 -0.6181
  283MOL0     H38141   6.327   6.801   3.006  1.8662  0.6962 -0.2693
  283MOL0     H38142   6.407   6.573   2.920 -0.1000  0.7582  1.9887
  283MOL0     H38143   6.523   6.677   2.987 -1.1619 -0.0552  0.8635
  283MOL0     H38144   6.516   6.773   2.711 -0.9881  0.6272  0.5020
  283MOL0     H38145   6.501   6.602   2.683 -0.1428  0.3547  0.0675
  283MOL0     H38146   6.715   6.728   2.864  0.5786  0.4679 -0.3317
  283MOL0     H38147   6.687   6.548   2.842 -2.0367 -1.1211 -2.0226
  283MOL0     H38148   6.696   6.589   2.595  2.4013 -0.2528 -0.8506
  283MOL0     H38149   6.757   6.739   2.629  1.6806 -0.1472 -1.4117
  283MOL0     H38150   6.895   6.477   2.734  1.1249 -1.1941 -1.1418
  283MOL0     H38151   6.920   6.564   2.574 -1.3524 -2.8180  0.0627
  283MOL0     H38152   6.939   6.697   2.835 -1.9221  2.0366 -2.0762
  283MOL0     H38153   7.050   6.723   2.694  0.9908 -0.3316 -0.9761
  283MOL0     H38154   7.059   6.497   2.886 -0.9645 -0.6785  0.5837
  283MOL0     H38155   7.126   6.487   2.726 -0.0326 -0.4958  1.4571
  283MOL0     H38156   7.315   6.667   2.661  1.2586  3.6380 -0.0031
  283MOL0     H38157   7.614   6.678   2.733  1.9354  0.1503  0.7392
  283MOL0     H38158   7.555   6.836   2.731  1.7128 -0.0595 -0.4406
  283MOL0     H38159   7.612   6.836   2.994  0.7083 -0.0651  0.2460
  283MOL0     H38160   7.712   6.693   2.941  0.8240  0.4446  0.6415
  283MOL0     H38161   7.724   6.971   2.832  0.8437 -0.0249  0.2937
  283MOL0     H38162   7.819   6.832   2.779  1.9815  2.7628  0.3663
  283MOL0     H38163   7.910   6.796   2.989 -1.7909 -0.0350  3.4398
  283MOL0     H38164   7.844   6.938   3.067 -1.0357  1.2415 -0.9712
  283MOL0     H38165   8.205   7.087   2.863  0.8435  1.5184 -0.6956
  283MOL0     H38166   8.391   7.159   3.009 -0.0724 -0.7455 -0.5339
  283MOL0     H38167   8.659   6.945   3.195  0.3778  0.5220 -2.1866
  283MOL0     H38168   8.896   6.894   3.274  0.9386 -0.0083 -1.0670
  283MOL0     H38169   9.183   7.205   3.340 -0.0363 -1.4101 -1.2074
  283MOL0     H38170   9.097   7.211   3.494 -1.9061  0.5942 -2.6772
  283MOL0     H38171   9.188   6.995   3.572  1.5805  1.2902  3.5792
  283MOL0     H38172   9.311   6.996   3.438  1.3308 -0.2418 -0.2560
  283MOL0     H38173   9.397   7.223   3.536 -2.6486  2.0986 -0.5688
  283MOL0     H38174   9.275   7.208   3.655  1.0325  0.6367  0.7125
  283MOL0     H38175   9.521   7.032   3.605 -0.7492 -0.4603 -1.5705
  283MOL0     H38176   9.377   6.969   3.702  0.4874  0.1181  1.9700
  283MOL0     H38177   9.522   7.229   3.772 -0.2538 -0.3369 -1.1299
  283MOL0     H38178   9.573   7.072   3.827  0.7461 -1.8319 -1.0273
  283MOL0     H38179   9.445   7.176   4.001 -1.5294  1.8841  0.0436
  283MOL0     H38180   9.294   7.168   3.907  0.0789  0.0472 -0.6038
  283MOL0     H38181   9.463   6.913   3.940  0.0293 -0.3697 -0.9981
  283MOL0     H38182   9.295   6.927   3.890 -2.9556  4.3652 -0.5385
  283MOL0     H38183   9.240   7.027   4.131 -1.1514 -1.5929  1.0916
  283MOL0     H38184   9.298   6.860   4.128 -1.3920 -0.3530 -0.7207
  283MOL0     H38185   8.942   7.306   3.360 -0.0689 -1.7914  0.9515
  283MOL0     H38186   8.729   7.353   3.301  2.8484  1.2760 -1.3229
  283MOL0     H38187   8.211   6.953   3.341  0.0656 -2.6039 -0.6537
  283MOL0     H38188   8.012   6.932   3.227  0.8560  0.2337  0.2578
  283MOL0     H38189   6.012   6.704   2.754 -2.3617  0.5719 -1.8794
  283MOL0     H38190   5.809   6.849   2.728 -2.4599  0.0138  4.4101
  283MOL0     H38191   5.559   7.088   2.720  2.8377  0.5876  0.6872
  283MOL0     H38192   5.321   7.170   2.679 -0.4050  1.3247 -0.2681
  283MOL0     H38193   5.275   7.571   2.633 -2.1355 -1.1526 -2.0541
  283MOL0     H38194   5.236   7.596   2.801 -0.1957  0.1769 -0.1979
  283MOL0     H38195   4.993   7.564   2.753 -0.3637  0.2829 -0.6364
  283MOL0     H38196   5.027   7.477   2.612  0.0413 -0.6284  0.7480
  283MOL0     H38197   5.106   7.701   2.502 -2.0649 -1.5866 -0.8920
  283MOL0     H38198   5.079   7.778   2.662  2.2832 -0.9501 -0.2513
  283MOL0     H38199   4.847   7.727   2.660 -0.3658  0.4899  0.5470
  283MOL0     H38200   4.899   7.822   2.508  0.9765 -0.7970 -1.3062
  283MOL0     H38201   4.733   7.487   2.328  2.7315  2.3224 -2.4192
  283MOL0     H38202   5.450   7.552   2.839  0.1404 -0.3071  1.0824
  283MOL0     H38203   5.743   7.542   2.808  2.4581 -0.7489  1.5256
  283MOL0     H38204   5.639   7.580   2.941  1.1268 -0.4326  0.7279
  283MOL0     H38205   5.762   7.450   2.964  0.7529  1.7160  1.1520
  284MOL0     O38206   8.067   5.807   8.800 -0.2413  0.0671 -0.2806
  284MOL0     C38207   7.978   5.808   8.726  0.3484 -0.3143 -0.5454
  284MOL0     O38208   7.964   5.900   8.622  0.2501 -0.0233 -0.5005
  284MOL0     C38209   8.067   5.985   8.594  0.1173 -1.0171  0.0148
  284MOL0     C38210   8.159   5.948   8.496  0.4618 -0.4989  0.2815
  284MOL0     C38211   8.264   6.037   8.459  1.2013  0.6023  0.3590
  284MOL0     C38212   8.269   6.163   8.520 -0.0194 -0.0580 -0.1061
  284MOL0     O38213   8.373   6.252   8.501  0.3339 -0.0860  0.1043
  284MOL0     C38214   8.492   6.210   8.435  0.8067  0.4368 -0.7989
  284MOL0     C38215   8.579   6.330   8.434  0.1951 -0.2670 -0.4309
  284MOL0     C38216   8.718   6.294   8.381  0.8089 -0.7513 -0.1809
  284MOL0     C38217   8.819   6.255   8.491 -0.5395 -0.3247 -0.0203
  284MOL0     C38218   8.955   6.252   8.438  0.1159  0.9398  0.0806
  284MOL0     C38219   9.069   6.241   8.538  0.0820 -0.0442 -0.3521
  284MOL0     C38220   9.200   6.199   8.469  0.3084 -0.4367 -0.1994
  284MOL0     C38221   9.249   6.052   8.483  0.9331 -0.9007 -0.4565
  284MOL0     N38222   9.150   5.960   8.423 -0.3968  1.1854 -1.3899
  284MOL0     C38223   9.048   5.903   8.492 -0.6572 -0.1403  0.0910
  284MOL0     C38224   9.000   5.807   8.411  1.0492 -0.2474 -0.1051
  284MOL0     C38225   8.871   5.739   8.426 -0.1024  0.1573 -0.1635
  284MOL0     C38226   8.843   5.627   8.324  0.4570  0.2184 -0.1008
  284MOL0     C38227   8.745   5.519   8.366 -0.1202 -0.3779  0.1918
  284MOL0     C38228   8.710   5.413   8.260 -0.3043 -0.2197 -0.4479
  284MOL0     O38229   8.595   5.340   8.316 -0.5684  0.2681  0.0622
  284MOL0     C38230   8.466   5.381   8.300 -0.5384  0.4142  0.1443
  284MOL0     C38231   8.377   5.285   8.351  0.2008  0.1131 -0.7135
  284MOL0     C38232   8.241   5.305   8.363  0.1467 -1.2365 -1.0799
  284MOL0     C38233   8.183   5.424   8.324  0.6516 -0.5578 -0.5523
  284MOL0     C38234   8.034   5.444   8.322 -0.2339 -0.3992 -0.0136
  284MOL0     O38235   7.962   5.325   8.336 -0.3218 -0.1170  0.2819
  284MOL0     C38236   7.825   5.338   8.323  0.2487 -0.1586  0.7213
  284MOL0     C38237   7.764   5.354   8.200  0.2865 -0.3767  0.4311
  284MOL0     C38238   7.626   5.360   8.182 -0.3804  0.3937 -0.4192
  284MOL0     C38239   7.534   5.335   8.291 -0.6222  0.4858  0.5098
  284MOL0     O38240   7.393   5.333   8.270 -0.6419 -0.3759 -0.2175
  284MOL0     C38241   7.312   5.317   8.385  0.2992 -0.6068 -0.3179
  284MOL0     C38242   7.162   5.300   8.356 -0.0275  0.0679  0.3715
  284MOL0     C38243   7.069   5.262   8.475  0.3036 -0.4985  0.4926
  284MOL0     C38244   6.923   5.272   8.443  0.8710 -0.1534 -1.3510
  284MOL0     C38245   6.830   5.237   8.564  0.0562 -0.3824  0.5729
  284MOL0     C38246   6.690   5.259   8.530  0.2181  0.1687 -0.5580
  284MOL0     C38247   6.609   5.276   8.663  0.6478  0.7252  0.1919
  284MOL0     C38248   6.617   5.168   8.770 -0.3476  0.1629 -0.7519
  284MOL0    Cl38249   6.547   5.021   8.701 -0.0485  0.1232  0.2362
  284MOL0     C38250   7.595   5.323   8.420 -1.3741 -0.4596  0.4708
  284MOL0     C38251   7.736   5.330   8.430 -0.3961 -0.1056  0.6322
  284MOL0     O38252   7.999   5.560   8.296  0.5266  0.0306  0.4500
  284MOL0     C38253   8.267   5.522   8.273 -0.2995 -0.5329  0.4120
  284MOL0     C38254   8.409   5.505   8.259  0.2071  0.1654 -0.6746
  284MOL0     N38255   9.073   5.796   8.296 -0.0008  0.2854 -0.4728
  284MOL0     N38256   9.161   5.887   8.306  0.0929 -0.4122  0.5766
  284MOL0     C38257   8.186   6.193   8.622 -0.1139  0.3216 -0.7289
  284MOL0     C38258   8.087   6.103   8.663 -0.0732  0.3336 -0.1596
  284MOL0     C38259   7.864   5.709   8.738  0.4551  0.1484 -0.4444
  284MOL0     C38260   7.878   5.583   8.802 -1.2136 -0.7084 -0.3900
  284MOL0     C38261   7.773   5.506   8.839 -0.2803  0.3789  0.6981
  284MOL0     C38262   7.649   5.528   8.788  0.8198  0.3901 -0.3965
  284MOL0     O38263   7.552   5.429   8.807 -0.2055  0.6168  0.4831
  284MOL0     C38264   7.413   5.467   8.822 -0.9519 -0.2193  0.7784
  284MOL0     C38265   7.322   5.340   8.846 -0.3336 -0.5511  0.1989
  284MOL0     C38266   7.184   5.378   8.893  0.4557 -0.5552 -0.4488
  284MOL0     C38267   7.091   5.257   8.909 -0.1278  0.2414  0.4416
  284MOL0     C38268   6.952   5.297   8.946 -0.0268  0.0497  0.2147
  284MOL0     C38269   6.839   5.336   8.978  0.2209  0.4345 -0.5572
  284MOL0     C38270   7.625   5.642   8.713  0.2771  0.0203 -0.7146
  284MOL0     C38271   7.731   5.734   8.691  1.0478 -1.4214 -0.5364
  284MOL0     C38272   7.689   5.861   8.630  0.0309  0.5519 -0.8038
  284MOL0     H38273   8.147   5.856   8.440 -0.9336 -0.9455  1.2715
  284MOL0     H38274   8.329   6.010   8.376 -2.2862  3.9088 -3.9575
  284MOL0     H38275   8.543   6.130   8.489  2.4759  2.3415  0.5755
  284MOL0     H38276   8.477   6.182   8.330 -2.0003 -1.3905  0.0020
  284MOL0     H38277   8.585   6.367   8.537 -0.5762  0.3027 -0.5815
  284MOL0     H38278   8.528   6.400   8.368 -1.6893 -2.6778 -1.7293
  284MOL0     H38279   8.745   6.391   8.337 -0.1644  0.1346  1.1090
  284MOL0     H38280   8.712   6.224   8.297  2.8323 -0.8691 -0.2891
  284MOL0     H38281   8.820   6.323   8.577  1.0761 -0.9395  0.4795
  284MOL0     H38282   8.793   6.156   8.531 -0.7585 -0.8001 -1.2883
  284MOL0     H38283   8.968   6.177   8.359  1.4801  1.2148  0.0159
  284MOL0     H38284   8.969   6.346   8.383 -1.9635  1.9394  1.1522
  284MOL0     H38285   9.085   6.340   8.581  1.9569 -1.0783  1.4945
  284MOL0     H38286   9.051   6.168   8.618  0.0666  0.7934  0.4181
  284MOL0     H38287   9.280   6.253   8.520 -0.0555 -0.3158  0.2475
  284MOL0     H38288   9.201   6.215   8.361  2.1020  2.4608  0.1497
  284MOL0     H38289   9.348   6.049   8.436  1.9957  1.0221  1.5202
  284MOL0     H38290   9.251   6.023   8.588 -1.6556 -0.7127 -0.2954
  284MOL0     H38291   9.016   5.938   8.589  2.5694  2.9853  0.2293
  284MOL0     H38292   8.868   5.699   8.527 -2.4383  0.2985 -0.1326
  284MOL0     H38293   8.789   5.806   8.399 -1.9125 -2.5291 -1.7529
  284MOL0     H38294   8.807   5.663   8.227 -0.6257 -2.1486 -0.6402
  284MOL0     H38295   8.935   5.569   8.311  0.6685 -0.4024  3.2755
  284MOL0     H38296   8.656   5.570   8.403  0.0756 -0.1998  0.4250
  284MOL0     H38297   8.797   5.481   8.455 -2.4350  0.9419  2.2416
  284MOL0     H38298   8.796   5.345   8.255 -0.5003 -0.8129  2.3803
  284MOL0     H38299   8.691   5.452   8.160 -0.7900 -2.0253 -1.0987
  284MOL0     H38300   8.416   5.189   8.383 -3.4731 -1.6736 -1.0293
  284MOL0     H38301   8.184   5.220   8.400 -1.5104  0.1989 -0.1801
  284MOL0     H38302   7.817   5.348   8.105  0.6519  0.1783  0.5917
  284MOL0     H38303   7.587   5.373   8.082 -2.3433 -2.3712 -0.1413
  284MOL0     H38304   7.345   5.224   8.433 -2.0562 -0.1672  2.4647
  284MOL0     H38305   7.322   5.404   8.452  0.0555 -0.6979 -0.1609
  284MOL0     H38306   7.136   5.401   8.322  0.6040  0.8877  2.2093
  284MOL0     H38307   7.169   5.225   8.276  1.0635  0.0731  0.4463
  284MOL0     H38308   7.087   5.158   8.503 -0.0771 -0.9931 -0.9822
  284MOL0     H38309   7.096   5.318   8.565  0.2243 -0.0697  0.2558
  284MOL0     H38310   6.891   5.212   8.358 -1.4384  1.1289 -1.4688
  284MOL0     H38311   6.901   5.379   8.432 -0.7264 -0.2182  0.6555
  284MOL0     H38312   6.859   5.305   8.644  3.2978  1.0794 -1.6604
  284MOL0     H38313   6.847   5.131   8.583  1.3663 -0.4102 -0.6006
  284MOL0     H38314   6.674   5.352   8.474  1.1024  0.8790  0.3142
  284MOL0     H38315   6.657   5.176   8.468  2.4518  0.9681 -3.0162
  284MOL0     H38316   6.502   5.289   8.644  0.0116  3.9087  4.3251
  284MOL0     H38317   6.634   5.374   8.705 -1.0654  0.9735  0.7252
  284MOL0     H38318   6.715   5.132   8.803 -0.0610  1.3820 -0.2134
  284MOL0     H38319   6.559   5.203   8.856  1.5245 -1.2434  1.1846
  284MOL0     H38320   7.542   5.327   8.515 -0.3148 -0.0416  1.0604
  284MOL0     H38321   7.786   5.332   8.526  1.2908 -3.0204 -0.0732
  284MOL0     H38322   8.220   5.609   8.229 -1.0034 -0.9913  0.2405
  284MOL0     H38323   8.474   5.585   8.223  0.3864 -0.2075 -1.1877
  284MOL0     H38324   8.195   6.288   8.673 -0.5908  0.2050 -0.4154
  284MOL0     H38325   8.018   6.124   8.744  0.8187  2.1050  0.1848
  284MOL0     H38326   7.977   5.549   8.834 -1.9017 -1.5189  0.9921
  284MOL0     H38327   7.802   5.417   8.895  1.6876  0.9199  0.6237
  284MOL0     H38328   7.371   5.517   8.734 -2.0660 -1.5585  0.5213
  284MOL0     H38329   7.400   5.530   8.911  2.2346  3.3845 -0.9688
  284MOL0     H38330   7.373   5.269   8.912 -2.0206 -1.2735  0.8125
  284MOL0     H38331   7.301   5.293   8.750 -1.9118 -0.2941  0.3873
  284MOL0     H38332   7.137   5.454   8.829 -0.3576  0.5854  1.4208
  284MOL0     H38333   7.191   5.426   8.991  3.0457 -0.9755 -0.3742
  284MOL0     H38334   7.078   5.205   8.814 -0.0737 -1.2054  1.2091
  284MOL0     H38335   7.133   5.191   8.985 -1.7398  1.1642  2.2188
  284MOL0     H38336   6.742   5.375   9.003 -0.2448 -0.6270 -0.6721
  284MOL0     H38337   7.522   5.671   8.695 -0.4683 -2.5341 -0.9101
  284MOL0     H38338   7.727   5.949   8.683 -1.6046  1.0488 -0.4143
  284MOL0     H38339   7.731   5.852   8.529  0.5090 -3.8532 -0.4098
  284MOL0     H38340   7.580   5.854   8.633  0.1281 -5.7823 -0.1215
  285MOL0     O38341   1.312   0.278   9.371  0.0887  0.1493 -0.6649
  285MOL0     C38342   1.331   0.388   9.418 -0.8493 -0.2166  0.4023
  285MOL0     O38343   1.460   0.450   9.435 -0.1190 -0.3090  0.5728
  285MOL0     C38344   1.561   0.377   9.383 -0.0545  0.4159  0.0670
  285MOL0     C38345   1.582   0.398   9.247 -1.0324  0.5939  0.0149
  285MOL0     C38346   1.693   0.323   9.199  0.6364  0.4125  0.0002
  285MOL0     C38347   1.771   0.234   9.271 -0.2697  0.0757 -0.0395
  285MOL0     O38348   1.874   0.165   9.212  0.5107  0.3901 -0.0446
  285MOL0     C38349   1.998   0.174   9.273 -0.2941 -0.1767  0.2199
  285MOL0     C38350   2.092   0.118   9.159  0.6787 -1.0190  0.0929
  285MOL0     C38351   2.239   0.080   9.200  0.8528  1.0688  0.0395
  285MOL0     C38352   2.330   0.188   9.247  1.1913  0.3053  0.3686
  285MOL0     C38353   2.460   0.136   9.304  0.5350  0.4015 -0.5709
  285MOL0     C38354   2.537   0.047   9.207 -0.7542 -0.2872 -0.0894
  285MOL0     C38355   2.668  -0.005   9.272 -0.8154  0.0451  0.1161
  285MOL0     C38356   2.723  -0.141   9.213 -0.5033 -0.6254  0.1125
  285MOL0     N38357   2.644  -0.251   9.274  0.3072 -0.2078  0.1546
  285MOL0     C38358   2.704  -0.345   9.357 -1.1480  0.1082 -0.7469
  285MOL0     C38359   2.604  -0.428   9.391 -0.8364 -0.4368  0.4341
  285MOL0     C38360   2.617  -0.558   9.472  0.6811  0.4883 -0.0014
  285MOL0     C38361   2.651  -0.511   9.607  0.8532 -0.2493 -0.7367
  285MOL0     C38362   2.655  -0.611   9.732 -0.4337 -0.1287  0.0580
  285MOL0     C38363   2.712  -0.758   9.695  0.3921 -0.2990  1.0398
  285MOL0     O38364   2.713  -0.837   9.813  0.1962  0.3980  1.4711
  285MOL0     C38365   2.833  -0.829   9.887  0.2561  0.1850 -0.3143
  285MOL0     C38366   2.935  -0.735   9.873  0.1588  0.1580  0.8128
  285MOL0     C38367   3.059  -0.750   9.932  0.2350  0.1315  0.3211
  285MOL0     C38368   3.075  -0.858  10.025 -0.7266 -0.9990  1.2170
  285MOL0     C38369   3.204  -0.869  10.091  0.0638 -0.6676 -1.5639
  285MOL0     O38370   3.210  -0.922  10.217 -0.3077  0.5902 -0.6152
  285MOL0     C38371   3.335  -0.915  10.280  0.2064 -0.8523  0.5285
  285MOL0     C38372   3.378  -0.800  10.346  0.4126 -0.4494  0.0234
  285MOL0     C38373   3.504  -0.790  10.395 -0.8548  0.2389  0.0615
  285MOL0     C38374   3.598  -0.899  10.398 -0.1742 -0.5997 -0.2074
  285MOL0     O38375   3.719  -0.867  10.457  0.6802  0.2032  0.4875
  285MOL0     C38376   3.832  -0.950  10.434  0.3239 -0.4590 -0.1628
  285MOL0     C38377   3.944  -0.895  10.520  0.1097  0.4416  0.7258
  285MOL0     C38378   4.080  -0.961  10.484 -0.6913  0.8012  0.7399
  285MOL0     C38379   4.186  -0.911  10.587  0.5748  0.2690  0.3218
  285MOL0     C38380   4.300  -1.008  10.599 -0.0503 -0.5070  0.1612
  285MOL0     C38381   4.365  -1.040  10.461 -0.2227  0.4465 -0.5692
  285MOL0     C38382   4.510  -1.093  10.486  0.6680  0.3780  0.1520
  285MOL0     C38383   4.563  -1.161  10.361  0.2356 -0.3789 -0.4169
  285MOL0    Cl38384   4.472  -1.310  10.314  0.0438 -0.4305 -0.2897
  285MOL0     C38385   3.558  -1.021  10.339  0.4301  0.0002  0.4407
  285MOL0     C38386   3.428  -1.023  10.280 -0.5335 -0.1742 -0.8195
  285MOL0     O38387   3.303  -0.820  10.030 -0.0363  0.2280  0.0693
  285MOL0     C38388   2.971  -0.939  10.051 -0.4725 -0.1438  0.4346
  285MOL0     C38389   2.855  -0.938   9.969  0.6025  0.6888 -1.1039
  285MOL0     N38390   2.491  -0.393   9.322  0.3275 -0.0171  0.4821
  285MOL0     N38391   2.507  -0.281   9.260 -0.8703  0.3905 -0.8538
  285MOL0     C38392   1.723   0.206   9.402  0.2469 -0.7459  0.1503
  285MOL0     C38393   1.617   0.280   9.458 -1.4235  1.6823 -0.1435
  285MOL0     C38394   1.211   0.458   9.465 -0.1833  0.4679 -0.7224
  285MOL0     C38395   1.215   0.553   9.579  0.1359  0.1612 -0.0996
  285MOL0     C38396   1.103   0.617   9.633  0.2729  0.4227  0.5559
  285MOL0     C38397   0.976   0.590   9.585  0.6519  0.6662 -0.4333
  285MOL0     O38398   0.871   0.661   9.638 -0.3709 -0.3435 -0.4710
  285MOL0     C38399   0.743   0.594   9.651  0.4465 -0.1057 -0.7559
  285MOL0     C38400   0.631   0.670   9.586  0.7880  0.2286  0.3321
  285MOL0     C38401   0.624   0.819   9.643  0.0630  0.5386  0.9318
  285MOL0     C38402   0.488   0.895   9.629 -0.2507 -0.0808  0.0834
  285MOL0     C38403   0.444   0.896   9.486 -0.4173  0.7603  0.1535
  285MOL0     C38404   0.409   0.883   9.370 -0.6259 -0.5931  0.0304
  285MOL0     C38405   0.974   0.507   9.469  0.7646  0.3858 -0.7889
  285MOL0     C38406   1.086   0.445   9.408  0.2508 -0.0330  1.0615
  285MOL0     C38407   1.051   0.356   9.297 -0.0495  0.8439  1.1717
  285MOL0     H38408   1.526   0.470   9.188 -0.3100 -0.1367 -1.6509
  285MOL0     H38409   1.722   0.349   9.097  2.6884 -0.2019  0.3691
  285MOL0     H38410   2.039   0.273   9.295  1.8961  0.0123 -3.7070
  285MOL0     H38411   2.021   0.103   9.353  2.0925  1.4153  1.0679
  285MOL0     H38412   2.097   0.187   9.075 -0.0018 -1.4285 -0.3004
  285MOL0     H38413   2.056   0.021   9.124 -0.7358 -1.0142  1.4285
  285MOL0     H38414   2.290   0.025   9.121  3.1765  1.2588  1.3115
  285MOL0     H38415   2.230   0.009   9.283  1.0095 -1.8882 -2.3456
  285MOL0     H38416   2.353   0.253   9.163 -0.8063  0.2819 -0.2358
  285MOL0     H38417   2.269   0.240   9.322  0.3724  0.0474 -0.1048
  285MOL0     H38418   2.522   0.216   9.346  1.8137 -1.1406  0.6393
  285MOL0     H38419   2.430   0.063   9.381  1.3751 -2.5349 -2.8328
  285MOL0     H38420   2.482  -0.044   9.182 -1.8529 -0.5370  2.8514
  285MOL0     H38421   2.560   0.095   9.111  1.9190 -1.5314 -0.1671
  285MOL0     H38422   2.655  -0.001   9.380 -0.3062  2.7348  0.1356
  285MOL0     H38423   2.747   0.066   9.247  1.7667 -1.6370  2.8574
  285MOL0     H38424   2.720  -0.157   9.105  2.6494 -2.2553  0.1435
  285MOL0     H38425   2.828  -0.149   9.242 -0.6778 -1.0386  0.6490
  285MOL0     H38426   2.811  -0.356   9.376 -0.8653 -2.1016 -3.1371
  285MOL0     H38427   2.516  -0.600   9.475  0.8172 -0.0980 -2.0002
  285MOL0     H38428   2.687  -0.631   9.430 -0.1705  1.8316 -4.2581
  285MOL0     H38429   2.751  -0.464   9.606  1.4741 -1.5439 -1.6389
  285MOL0     H38430   2.585  -0.428   9.635  1.3992  1.2126 -3.4126
  285MOL0     H38431   2.557  -0.631   9.775  0.8701 -0.2146  3.3256
  285MOL0     H38432   2.715  -0.564   9.811 -1.2225  0.4971  0.2994
  285MOL0     H38433   2.809  -0.748   9.647  0.8050 -1.6196  1.5563
  285MOL0     H38434   2.646  -0.812   9.626  0.6840 -0.5548  0.9609
  285MOL0     H38435   2.923  -0.645   9.814  2.8917  1.2981  1.8478
  285MOL0     H38436   3.141  -0.680   9.920 -0.0407  0.3661 -0.2311
  285MOL0     H38437   3.305  -0.720  10.350 -0.2073 -0.8941 -1.5994
  285MOL0     H38438   3.530  -0.698  10.446 -2.0845  1.3717 -1.2783
  285MOL0     H38439   3.814  -1.056  10.453  1.5137 -0.2760  2.3918
  285MOL0     H38440   3.864  -0.942  10.330 -5.6736  1.3179 -2.3109
  285MOL0     H38441   3.948  -0.789  10.496 -0.2036 -0.0513 -1.7524
  285MOL0     H38442   3.916  -0.920  10.623 -1.5129 -0.0418  0.2032
  285MOL0     H38443   4.067  -1.069  10.496 -2.2783  1.0786  1.8661
  285MOL0     H38444   4.115  -0.947  10.381  0.0349 -2.5024  0.4175
  285MOL0     H38445   4.142  -0.884  10.683  0.6126  0.7760  0.1983
  285MOL0     H38446   4.232  -0.823  10.541 -0.3640  0.4327 -0.3375
  285MOL0     H38447   4.256  -1.095  10.649 -3.2658  1.7393  1.6042
  285MOL0     H38448   4.376  -0.963  10.663  0.9857 -2.2189  0.2072
  285MOL0     H38449   4.298  -1.111  10.413 -0.8777 -0.1104  1.1068
  285MOL0     H38450   4.393  -0.957  10.395 -0.2305 -0.5577 -1.8566
  285MOL0     H38451   4.504  -1.154  10.577  0.1078  0.7259  0.3553
  285MOL0     H38452   4.580  -1.012  10.510 -0.0560  0.7817  0.9220
  285MOL0     H38453   4.562  -1.089  10.279 -2.4615  1.1324  0.7924
  285MOL0     H38454   4.666  -1.184  10.391 -0.0633 -1.9785 -0.5006
  285MOL0     H38455   3.621  -1.106  10.315 -0.8971 -0.8987  0.0215
  285MOL0     H38456   3.405  -1.117  10.232 -1.0630 -0.1752 -0.5772
  285MOL0     H38457   2.976  -1.026  10.116  0.2916 -0.3545  0.0983
  285MOL0     H38458   2.774  -1.009   9.986  0.5855  1.1100  0.8843
  285MOL0     H38459   1.775   0.129   9.458 -1.5664 -3.1257 -1.2665
  285MOL0     H38460   1.580   0.264   9.559 -1.3245  1.6503 -0.1112
  285MOL0     H38461   1.316   0.563   9.615  0.6455 -1.5508 -0.9604
  285MOL0     H38462   1.115   0.681   9.720  0.9892  1.0449  0.0167
  285MOL0     H38463   0.725   0.586   9.759  1.9318  1.1651 -0.3770
  285MOL0     H38464   0.740   0.494   9.608 -1.8818 -0.0605 -0.8441
  285MOL0     H38465   0.535   0.620   9.599  0.6047  1.2554  4.1775
  285MOL0     H38466   0.656   0.687   9.481  3.2353  0.7167  0.9077
  285MOL0     H38467   0.692   0.870   9.574 -2.8376  1.2302 -1.6356
  285MOL0     H38468   0.651   0.822   9.749 -2.2698 -2.4150  1.7558
  285MOL0     H38469   0.422   0.855   9.706  2.1335  0.8781  2.8275
  285MOL0     H38470   0.500   1.004   9.641 -1.0500  0.3406 -2.4264
  285MOL0     H38471   0.383   0.870   9.267  1.0756 -1.6044 -0.3232
  285MOL0     H38472   0.877   0.486   9.424  0.5340 -0.1992 -0.0370
  285MOL0     H38473   0.950   0.372   9.259  0.0223  1.1770  1.1146
  285MOL0     H38474   1.113   0.362   9.206 -2.0159 -0.5328 -0.3432
  285MOL0     H38475   1.055   0.252   9.331  1.6657  0.4083 -0.1766
  286MOL0     O38476   2.511   4.554   1.887 -0.1385 -0.0516  0.4308
  286MOL0     C38477   2.610   4.484   1.891  0.5102  0.2858 -0.6627
  286MOL0     O38478   2.738   4.521   1.858 -0.0823 -1.1666 -0.3693
  286MOL0     C38479   2.761   4.650   1.824  0.2520 -0.3259 -0.3928
  286MOL0     C38480   2.694   4.769   1.866 -0.6347 -0.0048  0.1280
  286MOL0     C38481   2.721   4.887   1.807 -0.2997 -0.0960  0.6438
  286MOL0     C38482   2.828   4.904   1.716  1.3268 -0.5410  0.3939
  286MOL0     O38483   2.858   5.022   1.656 -0.4905 -0.4330 -0.1607
  286MOL0     C38484   2.753   5.125   1.660 -0.1253 -0.4190 -0.1190
  286MOL0     C38485   2.803   5.240   1.583 -0.1575 -0.8652  0.0183
  286MOL0     C38486   2.830   5.215   1.429 -1.0449  0.2200 -0.9724
  286MOL0     C38487   2.888   5.337   1.354 -0.3839 -0.4106 -0.1570
  286MOL0     C38488   2.890   5.325   1.207  0.4454  0.6945  0.4684
  286MOL0     C38489   2.951   5.449   1.134  0.7364  0.4388  0.2341
  286MOL0     C38490   2.949   5.424   0.985 -0.0309 -0.2929  0.0585
  286MOL0     C38491   2.978   5.554   0.914 -1.2709  0.2609 -0.0467
  286MOL0     N38492   3.124   5.585   0.933  0.8357 -0.1153 -0.8104
  286MOL0     C38493   3.227   5.504   0.893  0.6655 -0.5112  0.1072
  286MOL0     C38494   3.333   5.581   0.906 -0.7566 -0.2046  0.0984
  286MOL0     C38495   3.467   5.531   0.874  0.6794  0.0182 -0.4100
  286MOL0     C38496   3.573   5.635   0.927 -0.1590  0.4140 -0.8981
  286MOL0     C38497   3.714   5.584   0.893  0.4390 -0.7050 -0.7274
  286MOL0     C38498   3.828   5.670   0.948  0.3196 -0.5126 -0.1112
  286MOL0     O38499   3.836   5.690   1.091 -0.0314  0.1259  0.2048
  286MOL0     C38500   3.921   5.789   1.132  0.6950  0.1129  0.3879
  286MOL0     C38501   3.921   5.824   1.263 -0.1509  0.3035  0.4699
  286MOL0     C38502   4.002   5.933   1.304 -0.0677 -0.5077 -0.5103
  286MOL0     C38503   4.064   6.020   1.209 -0.2585  0.3125 -0.3067
  286MOL0     C38504   4.139   6.143   1.255 -0.8128 -0.6782  0.9706
  286MOL0     O38505   4.193   6.225   1.158  0.1116  0.5808 -0.6000
  286MOL0     C38506   4.293   6.317   1.193  0.4871 -0.2124  0.4123
  286MOL0     C38507   4.406   6.319   1.112  0.0755  0.0139  0.2779
  286MOL0     C38508   4.518   6.405   1.151  0.1769  0.0492 -0.1756
  286MOL0     C38509   4.509   6.483   1.261  0.7038  1.1156 -0.0133
  286MOL0     O38510   4.611   6.572   1.275 -0.4591 -0.3277  0.4201
  286MOL0     C38511   4.649   6.615   1.407  0.1359 -0.1736 -0.4708
  286MOL0     C38512   4.590   6.758   1.434 -0.1895  0.1050  0.5293
  286MOL0     C38513   4.653   6.878   1.355 -0.0119  0.7210  0.4845
  286MOL0     C38514   4.803   6.882   1.353 -0.1644 -0.0814  0.3661
  286MOL0     C38515   4.867   7.011   1.306  0.2450  0.2870  0.6411
  286MOL0     C38516   4.843   7.134   1.392 -0.2593 -0.0080 -1.1619
  286MOL0     C38517   4.922   7.263   1.336 -0.0728  0.0837  0.3273
  286MOL0     C38518   5.070   7.282   1.391  1.0327 -0.1105 -0.1008
  286MOL0    Cl38519   5.173   7.153   1.321  0.0773  0.3802 -0.3898
  286MOL0     C38520   4.398   6.489   1.343  0.4346  0.5274  0.3756
  286MOL0     C38521   4.295   6.408   1.311  0.7913 -0.0416  0.7550
  286MOL0     O38522   4.167   6.148   1.378  0.7091  0.0411  0.2384
  286MOL0     C38523   4.072   5.967   1.076 -0.0635  0.0250 -0.0145
  286MOL0     C38524   4.010   5.849   1.036 -0.4577  0.1749 -0.2850
  286MOL0     N38525   3.299   5.701   0.956  0.3707 -0.2304  0.1299
  286MOL0     N38526   3.173   5.698   0.984  0.8456  0.0656  0.6511
  286MOL0     C38527   2.891   4.783   1.670 -0.2705 -0.0367  0.2014
  286MOL0     C38528   2.859   4.663   1.724 -0.3354  0.7404  0.0197
  286MOL0     C38529   2.591   4.336   1.917 -0.3765 -0.7221 -0.0243
  286MOL0     C38530   2.692   4.259   1.854 -0.3056  0.6768  0.3134
  286MOL0     C38531   2.688   4.120   1.870 -0.9449 -0.2917  1.6222
  286MOL0     C38532   2.612   4.057   1.953 -0.0351  1.0287  0.1371
  286MOL0     O38533   2.643   3.922   1.969 -0.0725  0.4215 -0.2950
  286MOL0     C38534   2.571   3.823   2.056  0.0041 -0.0742  0.3550
  286MOL0     C38535   2.652   3.831   2.185  1.0737 -0.5611 -0.5448
  286MOL0     C38536   2.601   3.722   2.281 -0.4706 -0.0586 -0.3346
  286MOL0     C38537   2.470   3.763   2.347 -0.4919 -0.6408 -0.2322
  286MOL0     C38538   2.405   3.658   2.427 -0.5746  0.1612 -0.0524
  286MOL0     C38539   2.346   3.574   2.493 -0.3512  0.3445 -0.9997
  286MOL0     C38540   2.510   4.129   2.019  0.0391  1.0367  0.6102
  286MOL0     C38541   2.491   4.269   1.993 -0.3671 -0.2566  0.1364
  286MOL0     C38542   2.372   4.338   2.067  0.4107 -0.4190  0.6292
  286MOL0     H38543   2.611   4.757   1.935 -2.1841 -2.6119 -1.9881
  286MOL0     H38544   2.660   4.972   1.837 -0.9344  0.6950 -2.5985
  286MOL0     H38545   2.670   5.083   1.603 -0.5510  1.2197 -0.7587
  286MOL0     H38546   2.721   5.159   1.760  0.0739 -0.7302  0.0522
  286MOL0     H38547   2.902   5.268   1.620 -0.0560  0.7943 -1.3649
  286MOL0     H38548   2.726   5.318   1.591  2.1205  1.4886  0.4386
  286MOL0     H38549   2.742   5.201   1.366  1.0783 -1.1070 -3.8642
  286MOL0     H38550   2.905   5.136   1.421 -0.5735  0.0163  3.1752
  286MOL0     H38551   2.831   5.426   1.383  1.0638  1.0861 -1.6718
  286MOL0     H38552   2.991   5.360   1.382 -0.0164 -0.2435 -1.5510
  286MOL0     H38553   2.942   5.233   1.180 -1.7233 -1.0095  1.7043
  286MOL0     H38554   2.786   5.304   1.178  0.5599 -2.9020  2.1473
  286MOL0     H38555   2.878   5.530   1.144 -1.3055 -0.9519 -2.1919
  286MOL0     H38556   3.052   5.473   1.169  1.1711  1.9232 -1.8462
  286MOL0     H38557   2.855   5.384   0.947 -0.0394 -1.6049  1.3766
  286MOL0     H38558   3.022   5.353   0.946  0.2656  1.0673 -2.0065
  286MOL0     H38559   2.949   5.547   0.809 -1.8294 -3.6603  0.2398
  286MOL0     H38560   2.925   5.642   0.954  1.5302  1.4892  1.2372
  286MOL0     H38561   3.236   5.411   0.837  4.3752 -0.8144  0.9182
  286MOL0     H38562   3.475   5.431   0.917 -3.9587 -0.6343 -0.6157
  286MOL0     H38563   3.470   5.519   0.766 -2.8680 -3.0044 -0.3682
  286MOL0     H38564   3.551   5.733   0.885 -1.5418  0.3078 -0.4648
  286MOL0     H38565   3.561   5.645   1.035  0.3578  0.4449 -0.8427
  286MOL0     H38566   3.728   5.561   0.787  2.2399 -0.3024 -0.6088
  286MOL0     H38567   3.726   5.492   0.951  2.9563 -0.0867 -0.1579
  286MOL0     H38568   3.802   5.762   0.895  1.4192  0.8432  1.5810
  286MOL0     H38569   3.917   5.622   0.908 -0.4378 -1.3164 -0.8976
  286MOL0     H38570   3.854   5.773   1.332 -2.5694 -0.2810 -2.1109
  286MOL0     H38571   3.997   5.967   1.407  0.5423  2.7162 -1.4225
  286MOL0     H38572   4.421   6.265   1.019 -1.7508  0.8134 -0.5137
  286MOL0     H38573   4.614   6.408   1.101  0.3777  1.9525  0.2734
  286MOL0     H38574   4.614   6.548   1.487  2.4443 -1.4704 -0.4455
  286MOL0     H38575   4.757   6.626   1.417  0.0523  1.3558 -1.0684
  286MOL0     H38576   4.484   6.756   1.406  0.2812 -3.2384 -1.4698
  286MOL0     H38577   4.584   6.788   1.540 -1.3364 -1.5362  0.9636
  286MOL0     H38578   4.615   6.866   1.253  0.3274 -1.9579  0.6039
  286MOL0     H38579   4.602   6.968   1.390 -4.2889 -1.2188 -0.1777
  286MOL0     H38580   4.843   6.806   1.285  2.6131  1.5420  0.0464
  286MOL0     H38581   4.843   6.857   1.452  1.5004  2.0971  0.3311
  286MOL0     H38582   4.824   7.038   1.209  0.0702  0.9231  0.8896
  286MOL0     H38583   4.972   6.983   1.292 -1.1690 -5.1096 -1.6700
  286MOL0     H38584   4.737   7.158   1.395 -0.4909 -1.0139 -0.7789
  286MOL0     H38585   4.867   7.102   1.494  1.0264 -0.3755 -1.5621
  286MOL0     H38586   4.855   7.348   1.352 -1.6253 -0.6808 -1.7273
  286MOL0     H38587   4.931   7.251   1.228 -0.2195 -1.6054  0.4804
  286MOL0     H38588   5.113   7.379   1.367  1.3901 -0.3106 -0.2701
  286MOL0     H38589   5.081   7.277   1.500  0.3570 -0.8239 -0.0568
  286MOL0     H38590   4.393   6.557   1.426  0.4741  0.6060  0.3135
  286MOL0     H38591   4.216   6.406   1.385 -1.6130 -4.8498 -1.4917
  286MOL0     H38592   4.124   6.022   0.998 -0.3054 -0.8916 -0.8452
  286MOL0     H38593   4.017   5.832   0.929 -0.8215 -0.4904 -0.2121
  286MOL0     H38594   2.961   4.787   1.588 -0.8438 -0.4522 -0.3224
  286MOL0     H38595   2.907   4.573   1.690  2.8543  1.9190  1.0118
  286MOL0     H38596   2.768   4.290   1.782 -1.2505 -0.4294 -1.2374
  286MOL0     H38597   2.764   4.062   1.820 -0.8329 -0.6180  2.1592
  286MOL0     H38598   2.581   3.721   2.017 -1.6522 -1.2809  2.8176
  286MOL0     H38599   2.465   3.847   2.059 -0.3758  0.0304 -5.0682
  286MOL0     H38600   2.636   3.935   2.215 -2.4862 -0.4336 -2.3388
  286MOL0     H38601   2.755   3.818   2.149  1.9574  2.8069  0.4160
  286MOL0     H38602   2.667   3.704   2.367  0.4395  0.3260 -0.9395
  286MOL0     H38603   2.590   3.627   2.229 -1.3767  0.6788 -1.5448
  286MOL0     H38604   2.496   3.838   2.422 -2.2582 -1.1285  0.9404
  286MOL0     H38605   2.397   3.801   2.276 -1.7275  1.0109  1.7884
  286MOL0     H38606   2.289   3.502   2.548  0.5369  0.8516  0.6494
  286MOL0     H38607   2.448   4.086   2.097  2.6225 -1.7894  1.2989
  286MOL0     H38608   2.409   4.432   2.108  1.3838 -0.5300  0.0353
  286MOL0     H38609   2.286   4.367   2.006  0.2255  0.9919  1.4959
  286MOL0     H38610   2.333   4.273   2.146 -2.2069 -1.2031 -1.1901
  287MOL0     O38611   4.062   1.078  10.989  0.1064 -0.1991  0.5696
  287MOL0     C38612   4.126   1.019  11.073  0.2255 -0.2462 -0.4577
  287MOL0     O38613   4.261   1.028  11.095  0.3129  0.2355 -0.0919
  287MOL0     C38614   4.355   1.111  11.033 -0.2053 -0.0811  0.3255
  287MOL0     C38615   4.490   1.095  11.062 -0.2624 -0.2534  0.6734
  287MOL0     C38616   4.592   1.180  11.011  0.3900  0.4786  0.5054
  287MOL0     C38617   4.557   1.270  10.911 -0.6609 -0.4163 -0.0705
  287MOL0     O38618   4.637   1.353  10.837  0.5510 -0.6474  0.2256
  287MOL0     C38619   4.743   1.403  10.904  0.0610 -1.0082 -0.3840
  287MOL0     C38620   4.820   1.502  10.823  0.2875 -0.4647 -0.5512
  287MOL0     C38621   4.937   1.555  10.903 -0.4692 -0.2056  0.6757
  287MOL0     C38622   5.048   1.601  10.800 -0.1347 -0.0798 -0.2586
  287MOL0     C38623   5.166   1.637  10.888  0.3232 -0.1377  0.8334
  287MOL0     C38624   5.273   1.685  10.799 -0.2154 -0.4524  0.0568
  287MOL0     C38625   5.394   1.736  10.881  0.2458 -0.9866 -0.3798
  287MOL0     C38626   5.453   1.649  10.987  0.8904  0.1089  0.3614
  287MOL0     N38627   5.573   1.711  11.051  0.1641  0.1291 -0.0208
  287MOL0     C38628   5.707   1.712  11.021  0.4836  0.3716  0.9170
  287MOL0     C38629   5.772   1.796  11.103 -1.1302 -0.6214 -0.1134
  287MOL0     C38630   5.921   1.834  11.116 -0.3147  0.6316  0.4244
  287MOL0     C38631   5.967   1.959  11.203  0.7659  0.3933 -0.4841
  287MOL0     C38632   6.125   1.959  11.223 -0.3498 -0.1675  0.1301
  287MOL0     C38633   6.212   1.943  11.092  1.3298  0.0841 -0.8086
  287MOL0     O38634   6.241   1.805  11.066 -0.9537 -0.2196 -0.1934
  287MOL0     C38635   6.362   1.762  11.109  0.7042  0.0119 -0.5434
  287MOL0     C38636   6.472   1.753  11.028  0.2313  0.4434 -0.1378
  287MOL0     C38637   6.590   1.694  11.063  0.0481 -0.2244 -0.4368
  287MOL0     C38638   6.598   1.641  11.194  0.7768 -0.1915  0.5390
  287MOL0     C38639   6.727   1.584  11.240  0.6850  0.1853 -0.0910
  287MOL0     O38640   6.722   1.526  11.367 -0.2260  0.4012 -0.0542
  287MOL0     C38641   6.827   1.462  11.424 -1.0753 -0.0183 -1.2026
  287MOL0     C38642   6.965   1.485  11.400  0.1504  0.3346  0.2229
  287MOL0     C38643   7.060   1.419  11.481  0.0005 -0.3516  0.6660
  287MOL0     C38644   7.022   1.318  11.576  0.2673 -0.3418 -0.4055
  287MOL0     O38645   7.110   1.255  11.656 -0.4176  1.2359 -0.0939
  287MOL0     C38646   7.251   1.275  11.634 -0.0135  0.6859  0.1112
  287MOL0     C38647   7.332   1.196  11.737  0.2287 -0.3571  0.6064
  287MOL0     C38648   7.301   1.051  11.745  0.2745  0.4244 -0.0942
  287MOL0     C38649   7.400   0.983  11.845  0.0682 -0.1077 -0.1542
  287MOL0     C38650   7.542   0.971  11.793  0.2554  0.4559  0.4229
  287MOL0     C38651   7.623   0.876  11.881 -0.7562  0.2432  0.3311
  287MOL0     C38652   7.763   0.856  11.819  0.0814 -0.6809 -0.2564
  287MOL0     C38653   7.832   0.747  11.902 -0.7518  0.7101 -0.3193
  287MOL0    Cl38654   7.852   0.790  12.076 -0.1947  0.4112  0.4045
  287MOL0     C38655   6.888   1.286  11.587 -0.0530 -0.1514 -0.2874
  287MOL0     C38656   6.793   1.361  11.521  0.4960 -0.5207 -0.4460
  287MOL0     O38657   6.810   1.568  11.158 -0.5761 -0.0302  0.1552
  287MOL0     C38658   6.486   1.642  11.285 -0.0174 -0.3093  0.1266
  287MOL0     C38659   6.364   1.699  11.241  0.1708  0.7880  1.0647
  287MOL0     N38660   5.676   1.838  11.196  0.4120  0.8600 -0.2459
  287MOL0     N38661   5.564   1.785  11.165 -0.1556  1.0336  0.2070
  287MOL0     C38662   4.423   1.279  10.865 -0.5487 -0.8582 -0.3529
  287MOL0     C38663   4.325   1.203  10.930 -0.5745  0.8516 -0.4670
  287MOL0     C38664   4.058   0.926  11.160 -0.2963  0.6896 -0.6927
  287MOL0     C38665   4.131   0.819  11.216  0.4320  1.6630 -0.0598
  287MOL0     C38666   4.071   0.724  11.300 -0.6070 -0.1602  1.2727
  287MOL0     C38667   3.940   0.728  11.333 -0.7487 -0.7771 -0.6718
  287MOL0     O38668   3.884   0.637  11.418  0.3260  0.0904 -0.1830
  287MOL0     C38669   3.742   0.607  11.407  0.0448  0.1028 -0.2187
  287MOL0     C38670   3.691   0.684  11.528 -0.1163 -0.4605 -0.0332
  287MOL0     C38671   3.541   0.692  11.535 -0.4755 -0.1573  0.1662
  287MOL0     C38672   3.483   0.828  11.545 -0.1035 -0.4052 -0.3835
  287MOL0     C38673   3.511   0.886  11.681 -0.1707  0.1129  0.4691
  287MOL0     C38674   3.535   0.931  11.794 -0.0389 -0.1434 -0.4190
  287MOL0     C38675   3.863   0.832  11.275 -0.8390 -0.3084 -1.0465
  287MOL0     C38676   3.919   0.936  11.195  0.2006  0.4757  0.4522
  287MOL0     C38677   3.843   1.050  11.149 -0.1435  0.7387 -0.2646
  287MOL0     H38678   4.534   1.029  11.136  1.6598 -0.0565 -0.2192
  287MOL0     H38679   4.695   1.154  11.034  0.4277  0.5771  0.4483
  287MOL0     H38680   4.717   1.445  11.002  3.1711  0.8302 -0.2041
  287MOL0     H38681   4.817   1.329  10.936  1.6777  1.6805  2.7808
  287MOL0     H38682   4.743   1.580  10.818  1.3774  0.8775  2.0951
  287MOL0     H38683   4.840   1.454  10.727  3.0928  2.1417 -1.4439
  287MOL0     H38684   4.976   1.484  10.976  0.4253 -1.2952 -0.7920
  287MOL0     H38685   4.904   1.637  10.967 -1.7568  1.1332 -1.5579
  287MOL0     H38686   5.068   1.524  10.725 -0.9675 -0.1972 -0.3770
  287MOL0     H38687   5.011   1.692  10.751 -0.0018  0.3029  0.3370
  287MOL0     H38688   5.137   1.724  10.949 -1.0827 -0.6902  0.9933
  287MOL0     H38689   5.192   1.545  10.939  0.4624 -2.5941 -3.2451
  287MOL0     H38690   5.296   1.601  10.733 -2.8837 -2.3403  1.3824
  287MOL0     H38691   5.233   1.771  10.743 -0.9954  0.6614  2.2063
  287MOL0     H38692   5.362   1.829  10.928  0.9285 -0.8781 -0.1217
  287MOL0     H38693   5.473   1.765  10.811  2.0520 -2.9144  0.7533
  287MOL0     H38694   5.380   1.608  11.057  2.2248 -3.8928 -0.3059
  287MOL0     H38695   5.490   1.560  10.935  1.8935  1.1290 -0.7413
  287MOL0     H38696   5.771   1.655  10.954 -1.5941  0.5345 -1.3531
  287MOL0     H38697   5.971   1.748  11.161  1.6159  2.1541  1.3653
  287MOL0     H38698   5.968   1.857  11.020  0.9971 -0.5044  0.7626
  287MOL0     H38699   5.920   2.046  11.158 -3.3664 -1.3564  0.0321
  287MOL0     H38700   5.923   1.956  11.303  2.9219 -0.1743  0.5080
  287MOL0     H38701   6.147   1.881  11.296 -0.1556 -1.5693 -1.3561
  287MOL0     H38702   6.141   2.052  11.279 -1.3257  0.8321 -1.1732
  287MOL0     H38703   6.303   2.002  11.105  0.6512  0.7527  1.3441
  287MOL0     H38704   6.148   1.983  11.013 -0.5320 -3.9652 -1.6063
  287MOL0     H38705   6.470   1.788  10.925  1.9804  0.4475 -0.1982
  287MOL0     H38706   6.678   1.697  11.000  1.5530  2.5909  1.5575
  287MOL0     H38707   6.992   1.570  11.338  0.8384 -0.1052 -0.0880
  287MOL0     H38708   7.163   1.451  11.465  0.0490 -0.5008  0.6790
  287MOL0     H38709   7.283   1.236  11.537  0.8893  4.1104 -1.1086
  287MOL0     H38710   7.279   1.381  11.635 -1.1629  1.0070  0.5887
  287MOL0     H38711   7.439   1.207  11.721  0.2919  1.5991  2.0587
  287MOL0     H38712   7.323   1.246  11.833 -2.0974  1.3936 -0.4115
  287MOL0     H38713   7.199   1.027  11.775  0.8251  0.4162  1.9049
  287MOL0     H38714   7.324   1.017  11.644  2.7751  1.2287  0.1330
  287MOL0     H38715   7.368   0.879  11.850  1.5150 -0.6084 -0.8103
  287MOL0     H38716   7.398   1.024  11.947 -1.7174  2.1646 -1.0237
  287MOL0     H38717   7.595   1.067  11.790  3.2545 -1.0246 -4.5542
  287MOL0     H38718   7.538   0.930  11.692 -0.6016  0.5630  0.4032
  287MOL0     H38719   7.628   0.927  11.977  0.0839  0.1555  0.3432
  287MOL0     H38720   7.569   0.781  11.891 -0.9045  0.0325 -1.9378
  287MOL0     H38721   7.832   0.941  11.810  1.4154 -1.6509  0.4199
  287MOL0     H38722   7.754   0.825  11.714  3.0101  1.3836 -1.2883
  287MOL0     H38723   7.770   0.658  11.889  1.2554 -0.6947 -0.8946
  287MOL0     H38724   7.930   0.720  11.861 -0.8464 -1.1354  0.5822
  287MOL0     H38725   6.869   1.216  11.667  2.5326 -0.0456  0.4992
  287MOL0     H38726   6.688   1.346  11.544  0.1571  0.2069 -1.4709
  287MOL0     H38727   6.499   1.606  11.386  1.2190 -0.6887 -0.1430
  287MOL0     H38728   6.271   1.661  11.284 -0.5480 -0.7401 -1.5919
  287MOL0     H38729   4.391   1.349  10.789  0.5404 -2.7706 -2.6808
  287MOL0     H38730   4.223   1.208  10.893 -0.4977 -0.5663 -0.9443
  287MOL0     H38731   4.239   0.813  11.215  0.3927 -0.2909  1.5540
  287MOL0     H38732   4.129   0.637  11.331  1.5683  0.0583 -1.6954
  287MOL0     H38733   3.723   0.499  11.406  0.2923  0.0605 -0.7829
  287MOL0     H38734   3.704   0.642  11.310  0.3536 -0.0548 -0.3989
  287MOL0     H38735   3.737   0.783  11.535 -1.9561  0.5488 -1.1470
  287MOL0     H38736   3.726   0.623  11.612  0.9805 -1.0984 -0.9295
  287MOL0     H38737   3.503   0.624  11.611  0.2926 -2.5803 -1.4909
  287MOL0     H38738   3.504   0.661  11.437  1.4604 -2.7640  0.1653
  287MOL0     H38739   3.526   0.898  11.473 -1.3149  4.1116  2.8930
  287MOL0     H38740   3.377   0.813  11.524 -0.0156 -3.7210  0.9016
  287MOL0     H38741   3.564   0.973  11.889  1.1195 -2.3066  0.2616
  287MOL0     H38742   3.763   0.856  11.311 -1.6028  0.3613 -3.4584
  287MOL0     H38743   3.821   1.046  11.042  0.4895  4.9997 -0.7123
  287MOL0     H38744   3.759   1.072  11.215  0.3356  0.6103  0.3955
  287MOL0     H38745   3.898   1.143  11.166 -1.0077  0.9791  1.3391
  288MOL0     O38746   3.577   0.912   3.674  0.3876  0.3098 -0.1130
  288MOL0     C38747   3.536   0.827   3.597 -0.0771  0.0503  0.8638
  288MOL0     O38748   3.616   0.740   3.526 -0.2229 -0.0388  0.4864
  288MOL0     C38749   3.753   0.762   3.525  0.1024  0.3691  0.2790
  288MOL0     C38750   3.817   0.881   3.487  0.2921  1.1209 -0.0008
  288MOL0     C38751   3.956   0.892   3.504  0.3976 -0.9761 -0.3002
  288MOL0     C38752   4.036   0.781   3.536  0.2638 -0.8088 -0.6360
  288MOL0     O38753   4.179   0.796   3.532 -0.3291  0.3211  0.1013
  288MOL0     C38754   4.239   0.919   3.562  0.4450 -0.0315  0.5684
  288MOL0     C38755   4.390   0.903   3.569  0.0870 -0.3107 -0.0368
  288MOL0     C38756   4.461   1.012   3.494 -0.1049 -0.4348 -0.2550
  288MOL0     C38757   4.610   0.991   3.504 -0.4411  0.9788 -0.0750
  288MOL0     C38758   4.700   1.096   3.442 -0.1026 -0.2047 -0.2445
  288MOL0     C38759   4.842   1.042   3.413 -0.5440 -0.4323 -0.4907
  288MOL0     C38760   4.946   1.147   3.353  0.2534  0.7745 -0.6188
  288MOL0     C38761   5.076   1.075   3.326  0.0051 -0.6312  0.1749
  288MOL0     N38762   5.188   1.171   3.352 -0.2258 -0.3038 -0.4599
  288MOL0     C38763   5.232   1.223   3.470  0.3507 -0.3429 -0.1439
  288MOL0     C38764   5.344   1.297   3.432  0.5292 -0.8471 -0.2488
  288MOL0     C38765   5.451   1.360   3.520 -0.1901 -0.3712  0.0398
  288MOL0     C38766   5.407   1.401   3.663 -0.0535 -0.1443  0.5114
  288MOL0     C38767   5.517   1.460   3.754  0.0156 -0.6768 -0.2048
  288MOL0     C38768   5.650   1.387   3.756  0.2121 -0.7315  1.2793
  288MOL0     O38769   5.752   1.480   3.800 -0.6518  0.2782 -0.1599
  288MOL0     C38770   5.883   1.430   3.818 -0.1530 -0.3739  1.1863
  288MOL0     C38771   5.932   1.298   3.849 -0.7161  0.1082  0.8568
  288MOL0     C38772   6.069   1.266   3.863  0.3697 -0.3769 -0.0844
  288MOL0     C38773   6.163   1.377   3.858  0.5298  0.0111 -1.4515
  288MOL0     C38774   6.300   1.360   3.890 -0.4445  0.4704  0.1211
  288MOL0     O38775   6.375   1.470   3.873  0.1116 -0.5085  0.2818
  288MOL0     C38776   6.515   1.476   3.893 -0.7159  0.9590 -0.3451
  288MOL0     C38777   6.573   1.604   3.909 -0.8027  0.0382  0.7370
  288MOL0     C38778   6.714   1.620   3.934 -0.9363  1.0462  0.9447
  288MOL0     C38779   6.802   1.509   3.945 -0.7015  0.8731  0.5094
  288MOL0     O38780   6.938   1.529   3.980 -0.6366 -0.5617 -0.5662
  288MOL0     C38781   6.984   1.664   3.992  0.2001 -0.2318 -0.3172
  288MOL0     C38782   7.125   1.661   4.049 -0.0208  0.0802  0.4316
  288MOL0     C38783   7.209   1.790   4.016  0.6060 -0.0072 -0.3446
  288MOL0     C38784   7.354   1.774   4.052  0.0744 -0.0863 -0.4698
  288MOL0     C38785   7.420   1.896   3.991  0.0549  0.4841  0.4082
  288MOL0     C38786   7.573   1.900   4.023  0.1635  0.3411  0.2731
  288MOL0     C38787   7.642   1.827   3.910  0.6408  0.1547  0.2276
  288MOL0     C38788   7.796   1.816   3.929  0.1326  0.8100  0.2702
  288MOL0    Cl38789   7.832   1.698   4.057  0.1949  0.3040  0.0140
  288MOL0     C38790   6.746   1.379   3.943 -0.4521  0.5866 -0.3140
  288MOL0     C38791   6.608   1.369   3.926 -0.5838  0.0286  0.1826
  288MOL0     O38792   6.339   1.247   3.920 -0.8328  0.6422  0.2518
  288MOL0     C38793   6.117   1.506   3.818 -0.2092  0.5829 -0.6473
  288MOL0     C38794   5.981   1.535   3.800 -0.0906  0.2696  0.5892
  288MOL0     N38795   5.360   1.280   3.294 -0.0362 -0.4028 -0.0267
  288MOL0     N38796   5.269   1.212   3.253  0.2737 -0.6831 -0.3485
  288MOL0     C38797   3.976   0.663   3.558  0.1607 -0.4278 -0.3054
  288MOL0     C38798   3.837   0.655   3.557  0.6349 -0.9773  0.3926
  288MOL0     C38799   3.391   0.816   3.576 -0.0741  0.0129  0.2076
  288MOL0     C38800   3.307   0.858   3.677  0.3996  0.4424 -0.5060
  288MOL0     C38801   3.171   0.845   3.660 -0.9179 -0.4291 -0.4974
  288MOL0     C38802   3.108   0.803   3.542 -0.4029  0.6004 -0.9263
  288MOL0     O38803   2.983   0.788   3.521 -0.2332 -0.3703 -0.4357
  288MOL0     C38804   2.901   0.758   3.635 -0.0096 -0.1034 -0.3559
  288MOL0     C38805   2.750   0.758   3.603  0.4012 -0.1684  0.6606
  288MOL0     C38806   2.724   0.645   3.495  0.0691  0.1162 -0.5596
  288MOL0     C38807   2.575   0.637   3.445 -0.6975  0.2264 -0.6315
  288MOL0     C38808   2.489   0.574   3.548  0.6353  0.3846 -0.0372
  288MOL0     C38809   2.416   0.519   3.633  0.6033  0.9687  0.2216
  288MOL0     C38810   3.195   0.784   3.431  0.6394 -0.4714 -0.4400
  288MOL0     C38811   3.334   0.782   3.443 -0.6466  0.1005 -0.3367
  288MOL0     C38812   3.410   0.749   3.322 -1.0537 -0.0484 -0.1921
  288MOL0     H38813   3.762   0.974   3.480 -0.2988  0.7107 -1.2355
  288MOL0     H38814   4.000   0.989   3.483 -0.3768  0.4312  3.7023
  288MOL0     H38815   4.209   0.980   3.476 -0.9443 -1.7287 -0.2048
  288MOL0     H38816   4.199   0.954   3.658  1.1160 -0.6519  1.0904
  288MOL0     H38817   4.410   0.805   3.523 -0.2734 -1.1247  1.4701
  288MOL0     H38818   4.437   0.886   3.667 -1.1440 -0.4124  0.5571
  288MOL0     H38819   4.436   1.111   3.533 -2.1818 -0.8666 -0.3706
  288MOL0     H38820   4.431   1.017   3.389  2.4172 -1.3297 -1.1051
  288MOL0     H38821   4.640   0.979   3.609 -4.4156 -0.2315  1.0774
  288MOL0     H38822   4.632   0.898   3.450 -0.0110  2.2963 -2.2855
  288MOL0     H38823   4.659   1.120   3.343  2.5831 -1.1318 -1.6864
  288MOL0     H38824   4.697   1.188   3.501 -0.7257  0.4393 -1.2487
  288MOL0     H38825   4.891   1.003   3.503 -0.2373 -0.2272 -0.5698
  288MOL0     H38826   4.807   0.959   3.351 -2.7707 -0.0507  0.1624
  288MOL0     H38827   4.958   1.231   3.422  3.9886  1.6657 -2.1044
  288MOL0     H38828   4.895   1.188   3.266 -1.0059  3.7045  1.3149
  288MOL0     H38829   5.106   0.995   3.395  2.4774  0.4481  0.4620
  288MOL0     H38830   5.076   1.046   3.221 -1.9717  2.0721 -0.6741
  288MOL0     H38831   5.197   1.208   3.571 -3.5855 -0.4451 -1.3385
  288MOL0     H38832   5.525   1.279   3.530  0.3012 -0.6148 -3.8238
  288MOL0     H38833   5.491   1.446   3.466 -1.2193  0.3357  0.3943
  288MOL0     H38834   5.316   1.462   3.661  0.7486  1.0724 -0.3893
  288MOL0     H38835   5.370   1.313   3.716  1.6874 -2.2728 -1.5997
  288MOL0     H38836   5.479   1.463   3.857 -0.4168 -3.0090 -0.2375
  288MOL0     H38837   5.534   1.565   3.729  1.4166 -0.5699  1.0737
  288MOL0     H38838   5.678   1.354   3.656 -2.1449 -2.6299  1.1455
  288MOL0     H38839   5.640   1.295   3.815  1.3422 -0.3496  2.0889
  288MOL0     H38840   5.854   1.223   3.857  1.5220 -2.3111  1.7681
  288MOL0     H38841   6.087   1.160   3.878 -1.8361 -0.6520  0.9394
  288MOL0     H38842   6.503   1.687   3.901  1.1057  1.6027 -0.5698
  288MOL0     H38843   6.749   1.723   3.937  2.6909  0.0138 -0.6149
  288MOL0     H38844   6.984   1.703   3.890 -0.4692  0.3749 -0.0989
  288MOL0     H38845   6.917   1.720   4.058 -0.0787 -0.4827 -0.3877
  288MOL0     H38846   7.114   1.662   4.157 -3.6199 -0.1497  0.1866
  288MOL0     H38847   7.185   1.579   4.007  1.3152  1.0596  0.3573
  288MOL0     H38848   7.199   1.816   3.911  2.5200 -0.1670 -0.6181
  288MOL0     H38849   7.164   1.871   4.074  0.4647  0.7572 -1.5059
  288MOL0     H38850   7.400   1.683   4.012 -0.2602 -0.5922  0.2777
  288MOL0     H38851   7.367   1.773   4.160 -1.0125 -0.6987 -0.3361
  288MOL0     H38852   7.375   1.989   4.026  0.8198  0.4552  1.5315
  288MOL0     H38853   7.407   1.892   3.883 -0.7114  0.3552  0.5031
  288MOL0     H38854   7.611   2.001   4.041 -2.5421  1.3535  0.9118
  288MOL0     H38855   7.603   1.847   4.114  0.4685 -1.0164 -0.5913
  288MOL0     H38856   7.618   1.878   3.816 -2.0685 -0.4264  0.5131
  288MOL0     H38857   7.611   1.723   3.892  2.0005 -0.4067  0.9313
  288MOL0     H38858   7.834   1.775   3.835 -2.2246  2.8713 -1.7442
  288MOL0     H38859   7.854   1.905   3.952  2.6295 -1.3318  2.9181
  288MOL0     H38860   6.810   1.293   3.957  0.3066  0.7046 -2.5925
  288MOL0     H38861   6.565   1.272   3.900 -1.2254 -0.0300  1.4117
  288MOL0     H38862   6.181   1.592   3.801  2.9322 -1.3751  0.4134
  288MOL0     H38863   5.942   1.634   3.779 -0.8212  0.2423  1.7104
  288MOL0     H38864   4.035   0.574   3.576 -0.9950 -0.9717  0.9230
  288MOL0     H38865   3.779   0.567   3.583  1.9046 -1.4398  1.8356
  288MOL0     H38866   3.345   0.883   3.776 -1.3566 -2.8700  1.1625
  288MOL0     H38867   3.123   0.864   3.755  1.2431  1.3464  0.3063
  288MOL0     H38868   2.920   0.833   3.713 -2.4291  0.4025 -0.1597
  288MOL0     H38869   2.931   0.667   3.686  1.8666 -1.0859 -3.0216
  288MOL0     H38870   2.729   0.856   3.559 -2.2827  0.3621  2.7966
  288MOL0     H38871   2.682   0.752   3.689 -1.8557  1.7629 -0.8474
  288MOL0     H38872   2.749   0.544   3.527  0.8142  0.9550  1.7214
  288MOL0     H38873   2.777   0.676   3.404  0.4351  0.2367 -0.3109
  288MOL0     H38874   2.552   0.741   3.418 -1.6786  0.1149 -0.2719
  288MOL0     H38875   2.571   0.565   3.363  0.7475 -3.5900  2.3796
  288MOL0     H38876   2.347   0.486   3.708  2.0304 -1.7171  0.4370
  288MOL0     H38877   3.145   0.755   3.339  0.0482 -0.8288 -0.0063
  288MOL0     H38878   3.345   0.715   3.241 -0.6060 -1.5344  0.0410
  288MOL0     H38879   3.471   0.835   3.293  0.0101 -0.5992  0.3589
  288MOL0     H38880   3.480   0.669   3.347  1.8248  2.3780  0.1590
  289MOL0     O38881   4.310  10.130   6.339  0.4113  0.4571 -0.1770
  289MOL0     C38882   4.274  10.211   6.250  0.0051  0.0163 -0.4600
  289MOL0     O38883   4.347  10.245   6.145 -0.8388 -0.6145  0.8421
  289MOL0     C38884   4.478  10.217   6.112  0.3335 -0.0154 -0.2385
  289MOL0     C38885   4.574  10.141   6.190 -0.4169  0.6141  0.4839
  289MOL0     C38886   4.700  10.122   6.149 -0.3324 -0.2607  0.1094
  289MOL0     C38887   4.735  10.162   6.019 -0.9582 -0.6558 -0.5605
  289MOL0     O38888   4.862  10.129   5.969  0.4742 -0.1209  0.6429
  289MOL0     C38889   4.912  10.225   5.875 -0.9523  0.6830  0.0359
  289MOL0     C38890   5.065  10.201   5.854  0.1381 -0.6232 -0.2885
  289MOL0     C38891   5.090  10.142   5.717 -0.3677 -0.1526  0.0874
  289MOL0     C38892   5.036   9.995   5.702 -0.3878  0.0476 -0.6802
  289MOL0     C38893   5.105   9.916   5.584  0.9361  0.2394 -0.8278
  289MOL0     C38894   5.076   9.764   5.584  0.4483  0.2544  0.6192
  289MOL0     C38895   5.139   9.704   5.464  0.6812  0.5865 -0.3176
  289MOL0     C38896   5.130   9.541   5.479  0.4393 -1.0761  0.4078
  289MOL0     N38897   4.994   9.492   5.500  0.9771  0.6016  0.4457
  289MOL0     C38898   4.882   9.513   5.423 -0.3344  0.1857  0.6166
  289MOL0     C38899   4.792   9.429   5.471 -0.2032 -0.4408  0.6934
  289MOL0     C38900   4.665   9.378   5.412 -0.5761 -0.8294 -0.1169
  289MOL0     C38901   4.542   9.468   5.456 -0.7859  0.1186 -0.3516
  289MOL0     C38902   4.552   9.617   5.419 -0.2011 -0.6607  0.1577
  289MOL0     C38903   4.552   9.653   5.260 -0.5777  0.3115 -1.0369
  289MOL0     O38904   4.469   9.560   5.191  0.3490 -0.3809 -0.4984
  289MOL0     C38905   4.339   9.591   5.180  0.2102 -0.3496  0.3994
  289MOL0     C38906   4.269   9.539   5.069 -0.3676  0.8670 -0.1631
  289MOL0     C38907   4.135   9.559   5.047 -0.0668 -0.3628 -0.7947
  289MOL0     C38908   4.054   9.629   5.148 -1.1246  0.3261 -0.2245
  289MOL0     C38909   3.913   9.641   5.131  0.1821 -0.3936  0.1380
  289MOL0     O38910   3.840   9.547   5.067 -0.3054  1.1263 -0.1542
  289MOL0     C38911   3.707   9.556   5.042 -0.1644  0.8268 -0.5965
  289MOL0     C38912   3.637   9.440   5.075  0.1225  1.0795  1.1120
  289MOL0     C38913   3.502   9.432   5.043 -0.7035 -0.6715  1.6309
  289MOL0     C38914   3.432   9.533   4.973  0.0387 -0.6346  0.1666
  289MOL0     O38915   3.291   9.506   4.955 -0.1958  0.2288  0.5036
  289MOL0     C38916   3.226   9.596   4.863 -0.7230 -0.4290 -0.2002
  289MOL0     C38917   3.119   9.530   4.790  0.2916  0.7771  0.5508
  289MOL0     C38918   3.172   9.425   4.688  0.1277  0.3137 -0.3888
  289MOL0     C38919   3.084   9.381   4.578 -0.3335  0.3102 -0.0265
  289MOL0     C38920   3.073   9.500   4.470  0.7000  0.4105  0.3797
  289MOL0     C38921   2.948   9.499   4.379 -0.0974 -0.3066  0.4028
  289MOL0     C38922   2.824   9.536   4.469 -0.0559  0.2032  0.0683
  289MOL0     C38923   2.695   9.490   4.411  0.0585 -0.0768  0.1176
  289MOL0    Cl38924   2.666   9.311   4.438 -0.0645 -0.0673  0.1991
  289MOL0     C38925   3.509   9.654   4.946 -0.2972 -0.4524 -0.6526
  289MOL0     C38926   3.640   9.667   4.983  0.3117  0.3642 -0.6497
  289MOL0     O38927   3.866   9.736   5.183  0.0232  0.2351  0.2496
  289MOL0     C38928   4.128   9.701   5.245  0.0943  0.2031  0.1447
  289MOL0     C38929   4.263   9.672   5.270 -0.1024 -0.5137  0.5275
  289MOL0     N38930   4.854   9.361   5.576  0.5648 -0.0282 -0.4787
  289MOL0     N38931   4.972   9.391   5.593  0.1956 -0.4935  0.9939
  289MOL0     C38932   4.643  10.227   5.937 -0.6432  0.0645  0.6853
  289MOL0     C38933   4.518  10.259   5.983 -0.6370  0.3863  1.2911
  289MOL0     C38934   4.132  10.251   6.249 -0.4916 -0.5928  0.8472
  289MOL0     C38935   4.076  10.298   6.131  0.3846  0.4904  0.6839
  289MOL0     C38936   3.936  10.338   6.121 -0.2856  0.2312  0.2293
  289MOL0     C38937   3.870  10.351   6.240  0.0124  1.3310 -0.3726
  289MOL0     O38938   3.743  10.402   6.256 -0.3177  0.4677  0.6068
  289MOL0     C38939   3.707  10.517   6.175  0.0908 -0.4298  0.5249
  289MOL0     C38940   3.576  10.481   6.106 -0.2687 -0.1738  0.4569
  289MOL0     C38941   3.537  10.608   6.028  0.0615 -1.0243  0.5201
  289MOL0     C38942   3.432  10.589   5.911  0.6001  0.1697  0.5263
  289MOL0     C38943   3.296  10.556   5.959  0.0759  0.2052 -0.0397
  289MOL0     C38944   3.182  10.521   5.995 -0.8013  0.2564  0.7816
  289MOL0     C38945   3.926  10.310   6.357 -0.3709 -0.3520 -0.1520
  289MOL0     C38946   4.052  10.250   6.364  0.7952 -0.0267 -0.2640
  289MOL0     C38947   4.100  10.206   6.501  0.4079  0.0195 -0.3624
  289MOL0     H38948   4.548  10.086   6.280 -1.9720 -1.7739 -1.3042
  289MOL0     H38949   4.765  10.060   6.211 -0.3663  0.2269  0.6369
  289MOL0     H38950   4.866  10.221   5.775 -0.7686  0.2496 -0.0298
  289MOL0     H38951   4.906  10.325   5.919 -0.4823  0.8158 -0.1937
  289MOL0     H38952   5.110  10.140   5.933  0.5234  1.3211  1.0696
  289MOL0     H38953   5.112  10.299   5.864  0.2335 -0.7645  0.7995
  289MOL0     H38954   5.198  10.140   5.702 -0.4043 -1.3202 -0.1343
  289MOL0     H38955   5.054  10.209   5.639 -0.7121  1.3473  1.4617
  289MOL0     H38956   5.070   9.945   5.793 -3.5616 -3.3428 -1.1369
  289MOL0     H38957   4.927   9.984   5.706 -0.2564 -1.2338 -0.2911
  289MOL0     H38958   5.074   9.962   5.490 -2.4897  1.1693  0.5980
  289MOL0     H38959   5.212   9.939   5.592  0.2801  3.2994  0.7108
  289MOL0     H38960   5.130   9.730   5.673  1.8694 -0.3128 -0.4267
  289MOL0     H38961   4.970   9.738   5.587  0.6162 -0.6621 -0.5263
  289MOL0     H38962   5.243   9.736   5.452  0.6405  0.5087 -0.9229
  289MOL0     H38963   5.085   9.732   5.374 -1.6815  2.1609  1.4819
  289MOL0     H38964   5.175   9.498   5.389  0.1002 -1.0900  0.2433
  289MOL0     H38965   5.194   9.519   5.564  0.4581  2.3361  1.4209
  289MOL0     H38966   4.870   9.572   5.333 -1.2750 -0.7553  0.1085
  289MOL0     H38967   4.668   9.357   5.305 -1.2944 -2.8298  0.2257
  289MOL0     H38968   4.640   9.282   5.458  1.6819 -1.2838  0.2981
  289MOL0     H38969   4.450   9.417   5.425 -1.2314  0.9100 -0.3577
  289MOL0     H38970   4.551   9.464   5.565  2.6589 -2.8442 -0.5450
  289MOL0     H38971   4.632   9.665   5.476 -0.7078  1.1658 -0.5976
  289MOL0     H38972   4.465   9.669   5.460 -0.6274 -0.1773 -1.2773
  289MOL0     H38973   4.654   9.665   5.221  0.8923  3.1709  2.9594
  289MOL0     H38974   4.514   9.753   5.240  0.6397  0.3286 -3.6236
  289MOL0     H38975   4.330   9.476   5.004 -1.5779 -0.5134 -0.0254
  289MOL0     H38976   4.094   9.523   4.953  1.4862 -1.8971 -0.9502
  289MOL0     H38977   3.694   9.360   5.122  2.4622  1.0377 -1.5748
  289MOL0     H38978   3.444   9.340   5.054 -1.2445 -0.5449  0.1454
  289MOL0     H38979   3.191   9.679   4.926  0.9136 -0.1235  0.3567
  289MOL0     H38980   3.294   9.627   4.784 -1.1869  0.3517 -0.3068
  289MOL0     H38981   3.043   9.490   4.859  0.5595  0.3763  0.6151
  289MOL0     H38982   3.070   9.600   4.722  2.2555 -0.7079 -2.6215
  289MOL0     H38983   3.265   9.466   4.648 -0.9220  2.1401 -1.0773
  289MOL0     H38984   3.185   9.340   4.756 -1.1753 -0.1849 -0.7486
  289MOL0     H38985   2.990   9.344   4.621  0.0158  0.2262  0.6805
  289MOL0     H38986   3.135   9.296   4.532 -1.9102 -1.8623  1.9853
  289MOL0     H38987   3.163   9.496   4.407  0.3555  2.6531 -0.3402
  289MOL0     H38988   3.076   9.598   4.519  0.6373  1.6741 -1.9681
  289MOL0     H38989   2.955   9.578   4.303 -1.7374  2.4776  2.8991
  289MOL0     H38990   2.944   9.401   4.331  1.0204  0.3410 -1.0969
  289MOL0     H38991   2.811   9.645   4.468 -1.2927  0.0744  0.3900
  289MOL0     H38992   2.836   9.509   4.574 -1.0322  0.2258  0.1969
  289MOL0     H38993   2.623   9.548   4.470  1.5994 -0.0853  2.0996
  289MOL0     H38994   2.700   9.523   4.307 -0.5879 -0.6234 -0.0956
  289MOL0     H38995   3.458   9.733   4.893  0.0305 -1.6370 -2.8564
  289MOL0     H38996   3.701   9.752   4.955 -0.0337  0.8251 -0.0446
  289MOL0     H38997   4.082   9.770   5.315 -1.5811 -1.0661  0.3358
  289MOL0     H38998   4.302   9.734   5.350  2.0897 -2.4946  1.1283
  289MOL0     H38999   4.646  10.253   5.832 -3.3359  0.1582  0.5444
  289MOL0     H39000   4.450  10.319   5.924 -0.3517 -1.9680 -1.6689
  289MOL0     H39001   4.121  10.277   6.034  0.9302 -2.6694  1.5204
  289MOL0     H39002   3.884  10.363   6.029 -1.2674  3.3204  1.4987
  289MOL0     H39003   3.778  10.551   6.100 -1.7763  5.2979  0.8738
  289MOL0     H39004   3.698  10.608   6.235  1.8550  0.3371 -0.3135
  289MOL0     H39005   3.496  10.439   6.168 -2.1933  1.3561 -0.8767
  289MOL0     H39006   3.599  10.409   6.027  0.1817  0.4551  0.0151
  289MOL0     H39007   3.628  10.642   5.978 -0.7156  1.0087  0.3989
  289MOL0     H39008   3.498  10.689   6.090  0.1208  1.4515 -2.4353
  289MOL0     H39009   3.426  10.676   5.846  1.3052 -0.3887 -0.2954
  289MOL0     H39010   3.466  10.500   5.857 -0.1720  0.8364 -1.1201
  289MOL0     H39011   3.091  10.504   6.049 -0.6283 -3.3769  0.1834
  289MOL0     H39012   3.876  10.323   6.453  0.1445 -0.6842  0.1670
  289MOL0     H39013   4.184  10.263   6.542 -0.8267  1.6353  0.0352
  289MOL0     H39014   4.023  10.220   6.578  1.4047 -0.2680  0.7073
  289MOL0     H39015   4.125  10.100   6.502 -0.5689 -0.2526 -1.6375
  290MOL0     O39016   0.063   3.438  10.009  0.1531  0.0457 -0.3492
  290MOL0     C39017  -0.009   3.385  10.093 -0.6731  0.0954 -0.1060
  290MOL0     O39018   0.039   3.313  10.202 -0.1289  0.0564 -0.0144
  290MOL0     C39019   0.169   3.277  10.208 -0.1539  0.9047 -0.6848
  290MOL0     C39020   0.261   3.361  10.261 -0.2313  0.1779 -0.3919
  290MOL0     C39021   0.395   3.321  10.271 -0.3803  0.0864  0.5566
  290MOL0     C39022   0.434   3.196  10.239 -0.3885  0.7558 -0.8025
  290MOL0     O39023   0.559   3.145  10.269  0.2123  0.1426 -0.1191
  290MOL0     C39024   0.633   3.099  10.150 -0.2760  0.1963  0.8930
  290MOL0     C39025   0.778   3.055  10.198  0.8281 -0.3254 -0.1491
  290MOL0     C39026   0.884   3.166  10.186  0.4683 -0.4654 -0.5353
  290MOL0     C39027   1.028   3.104  10.212  0.0363 -0.2390 -0.2352
  290MOL0     C39028   1.131   3.224  10.180 -0.2378  0.1054  0.2814
  290MOL0     C39029   1.171   3.235  10.028 -0.5081 -0.1367  0.0976
  290MOL0     C39030   1.276   3.352  10.018 -0.5537 -0.5517 -0.1709
  290MOL0     C39031   1.303   3.403   9.879  0.7973  0.0707  0.0593
  290MOL0     N39032   1.402   3.505   9.881 -0.6189  0.5144 -0.2457
  290MOL0     C39033   1.388   3.638   9.902  0.6061  0.5875  0.5228
  290MOL0     C39034   1.509   3.687   9.918  0.4669 -0.6890  0.6111
  290MOL0     C39035   1.559   3.833   9.912 -0.3473  0.4184  0.1621
  290MOL0     C39036   1.708   3.853   9.894 -0.5394  0.0206  0.2812
  290MOL0     C39037   1.764   3.995   9.912 -0.0489 -0.2353 -0.9259
  290MOL0     C39038   1.919   3.992   9.951  0.0427 -0.2413 -0.2240
  290MOL0     O39039   1.990   4.118   9.944  0.3024 -0.8177  0.8026
  290MOL0     C39040   2.122   4.120   9.960 -0.0792  0.2899  0.4275
  290MOL0     C39041   2.181   4.233   9.911  0.3638 -1.0543  0.6098
  290MOL0     C39042   2.318   4.236   9.900 -0.3074 -1.6050 -0.3382
  290MOL0     C39043   2.398   4.136   9.950  0.2411 -0.0366 -0.0610
  290MOL0     C39044   2.548   4.149   9.938  0.4527 -0.8052  0.1157
  290MOL0     O39045   2.627   4.037   9.920  0.5440  0.1280  0.6941
  290MOL0     C39046   2.765   4.041   9.895  0.2314  0.2612 -0.0677
  290MOL0     C39047   2.841   3.955   9.987 -0.5628  0.5587  0.5062
  290MOL0     C39048   2.981   3.951   9.972 -0.7453 -0.2728  0.3413
  290MOL0     C39049   3.045   4.025   9.867  0.0952  0.2465  0.0443
  290MOL0     O39050   3.178   4.028   9.833  0.0884  1.0353 -0.2970
  290MOL0     C39051   3.273   3.968   9.926  0.1222  0.3580 -0.1726
  290MOL0     C39052   3.425   3.978   9.879  0.8066  0.7624  0.0389
  290MOL0     C39053   3.530   3.911   9.968 -0.1430 -0.6242  0.4039
  290MOL0     C39054   3.646   3.858   9.882  0.1382  0.8442 -0.2831
  290MOL0     C39055   3.770   3.803   9.949 -1.0242  0.2555 -0.2115
  290MOL0     C39056   3.736   3.677  10.028 -0.3075 -0.7240  0.5420
  290MOL0     C39057   3.861   3.598  10.073 -0.0736 -0.4831  0.0559
  290MOL0     C39058   3.822   3.482  10.176 -0.1381 -0.2688  0.2104
  290MOL0    Cl39059   3.831   3.526  10.342 -0.0373 -0.0431  0.4201
  290MOL0     C39060   2.964   4.105   9.784  0.1777  0.2293  0.1108
  290MOL0     C39061   2.825   4.133   9.800 -0.8921 -1.0194 -0.1978
  290MOL0     O39062   2.594   4.258   9.941 -0.2334 -0.6435  0.0391
  290MOL0     C39063   2.334   4.029  10.009  0.1303 -1.1180  0.4806
  290MOL0     C39064   2.194   4.010  10.013 -0.0455 -0.9450 -0.1629
  290MOL0     N39065   1.594   3.576   9.928 -0.7906 -0.1872  0.4519
  290MOL0     N39066   1.532   3.468   9.902  0.3032 -0.0994  1.0479
  290MOL0     C39067   0.332   3.109  10.189  0.7265  0.5273  0.2946
  290MOL0     C39068   0.205   3.147  10.166 -0.0149 -0.5439 -0.7174
  290MOL0     C39069  -0.152   3.411  10.111 -0.0304  0.0460  0.5697
  290MOL0     C39070  -0.203   3.417  10.240 -0.2259  0.5617  1.2682
  290MOL0     C39071  -0.332   3.465  10.264  0.3060 -0.4977 -0.9027
  290MOL0     C39072  -0.414   3.497  10.159 -0.0147 -0.0376 -0.0176
  290MOL0     O39073  -0.545   3.527  10.176  0.4286  0.0321 -0.4584
  290MOL0     C39074  -0.581   3.648  10.247  1.1809 -0.7423  0.4188
  290MOL0     C39075  -0.712   3.693  10.179  0.3118 -0.1079  0.0843
  290MOL0     C39076  -0.840   3.618  10.205  0.5426  0.5442  0.5096
  290MOL0     C39077  -0.908   3.643  10.342 -1.1987 -0.0923  1.1908
  290MOL0     C39078  -0.947   3.780  10.370 -0.6453 -0.2618  0.5751
  290MOL0     C39079  -0.975   3.892  10.410  0.2696  0.5117  0.0842
  290MOL0     C39080  -0.375   3.479  10.026  0.1268 -0.7152 -0.0317
  290MOL0     C39081  -0.244   3.438  10.005 -0.7300  0.7818  0.2380
  290MOL0     C39082  -0.201   3.437   9.864  0.2477 -0.3600 -0.4705
  290MOL0     H39083   0.234   3.460  10.296 -1.1156 -0.6538  1.4024
  290MOL0     H39084   0.452   3.401  10.318 -0.9820  1.2292 -0.5745
  290MOL0     H39085   0.578   3.016  10.107 -0.8102  0.0004  1.9278
  290MOL0     H39086   0.638   3.178  10.074  1.4583 -0.6327  0.0790
  290MOL0     H39087   0.807   2.963  10.146 -0.4997 -0.1476 -1.2470
  290MOL0     H39088   0.770   3.031  10.304  1.1742 -1.8396 -0.4360
  290MOL0     H39089   0.866   3.244  10.260  1.2304 -0.8029  0.0131
  290MOL0     H39090   0.873   3.207  10.085 -1.7652  0.6290  0.0903
  290MOL0     H39091   1.039   3.067  10.315  0.2238 -0.5611 -0.3679
  290MOL0     H39092   1.052   3.020  10.147 -0.8356 -2.3653  2.0135
  290MOL0     H39093   1.093   3.324  10.205 -1.1000 -0.3717  0.9458
  290MOL0     H39094   1.217   3.201  10.243  1.1283 -0.2817 -1.6488
  290MOL0     H39095   1.221   3.140  10.007 -1.0995 -1.2126  3.0387
  290MOL0     H39096   1.083   3.251   9.966  0.0298 -1.0595 -0.9256
  290MOL0     H39097   1.367   3.304  10.054 -0.4261 -1.1473 -1.2231
  290MOL0     H39098   1.253   3.436  10.084  0.8260  2.0075 -2.7201
  290MOL0     H39099   1.338   3.326   9.809 -0.6095 -1.8902  1.4127
  290MOL0     H39100   1.208   3.433   9.835  0.0435 -3.3730 -0.9830
  290MOL0     H39101   1.293   3.689   9.892 -1.1663 -2.7247 -1.0359
  290MOL0     H39102   1.514   3.880   9.824  0.6570 -1.2888 -1.3347
  290MOL0     H39103   1.526   3.888  10.001 -2.5303  1.5480 -1.2582
  290MOL0     H39104   1.772   3.787   9.953  3.0794  2.4996 -0.5609
  290MOL0     H39105   1.742   3.833   9.792  3.0303 -4.4977  2.0092
  290MOL0     H39106   1.704   4.056   9.981 -0.2281 -0.3431 -0.9863
  290MOL0     H39107   1.762   4.054   9.820  1.3314 -0.8730 -1.3947
  290MOL0     H39108   1.965   3.933   9.871  1.3864  3.0522 -2.1023
  290MOL0     H39109   1.917   3.964  10.057  0.6278  0.6785  0.0454
  290MOL0     H39110   2.133   4.316   9.859  0.7047 -0.8988  0.5346
  290MOL0     H39111   2.368   4.320   9.853  0.3585 -0.3985  2.3281
  290MOL0     H39112   2.792   3.896  10.064  0.6274 -2.9899 -1.1969
  290MOL0     H39113   3.047   3.910  10.048  0.6989  2.2051  0.5401
  290MOL0     H39114   3.267   4.012  10.027 -1.0989  1.5005 -0.7180
  290MOL0     H39115   3.247   3.862   9.925  0.1293  0.3527 -1.5637
  290MOL0     H39116   3.426   3.937   9.778  0.4876 -1.7134  0.9597
  290MOL0     H39117   3.447   4.085   9.869 -2.0997  1.4525  0.1351
  290MOL0     H39118   3.570   3.985  10.038  1.3200 -1.5195  0.5570
  290MOL0     H39119   3.474   3.836  10.025  0.1244 -0.6867  0.5840
  290MOL0     H39120   3.683   3.930   9.808  0.0508  1.0939 -0.0843
  290MOL0     H39121   3.608   3.774   9.822  1.8797  0.0785 -0.3835
  290MOL0     H39122   3.793   3.885  10.017  0.3704  0.2744 -0.6917
  290MOL0     H39123   3.856   3.794   9.883 -1.2093 -0.3764 -0.3762
  290MOL0     H39124   3.670   3.703  10.112  0.7972  0.5234  1.0561
  290MOL0     H39125   3.674   3.615   9.962 -0.1570  0.4982 -0.7771
  290MOL0     H39126   3.933   3.664  10.122 -1.6553  1.1907  0.2305
  290MOL0     H39127   3.907   3.558   9.981 -0.6379 -1.8967  0.3609
  290MOL0     H39128   3.719   3.453  10.151  0.0343 -1.2092  0.5495
  290MOL0     H39129   3.896   3.406  10.149  0.7075  1.3815 -2.5005
  290MOL0     H39130   3.003   4.160   9.699 -2.0711 -0.7540 -1.6560
  290MOL0     H39131   2.771   4.196   9.729 -0.8692 -0.6372  0.1206
  290MOL0     H39132   2.403   3.959  10.056 -0.6371 -0.8068  2.1284
  290MOL0     H39133   2.146   3.921  10.052  0.4934 -1.2639 -0.2198
  290MOL0     H39134   0.367   3.012  10.153  0.3677  0.1316  0.9973
  290MOL0     H39135   0.136   3.087  10.107  1.3637 -2.7221 -0.1925
  290MOL0     H39136  -0.143   3.396  10.328 -1.7743  0.6014  2.3737
  290MOL0     H39137  -0.371   3.473  10.365 -0.2669 -0.9422 -1.0813
  290MOL0     H39138  -0.503   3.723  10.238  0.8660 -0.4094  0.4398
  290MOL0     H39139  -0.599   3.632  10.353  0.5743  0.2061  0.4730
  290MOL0     H39140  -0.687   3.691  10.072  3.4245 -0.8073  0.7114
  290MOL0     H39141  -0.726   3.798  10.204  0.3066  0.0559 -0.5873
  290MOL0     H39142  -0.824   3.511  10.189 -1.3275  0.4556 -1.2051
  290MOL0     H39143  -0.910   3.653  10.128  1.1522  3.1495  1.0417
  290MOL0     H39144  -0.998   3.581  10.352 -1.4294  0.0984  0.3326
  290MOL0     H39145  -0.850   3.614  10.430 -1.2817  0.2631  1.3657
  290MOL0     H39146  -0.986   3.991  10.450  0.3990 -0.6539  3.2390
  290MOL0     H39147  -0.446   3.507   9.949 -2.1069  1.9843  2.7373
  290MOL0     H39148  -0.117   3.368   9.855 -0.1140 -1.1394  1.6154
  290MOL0     H39149  -0.284   3.423   9.793 -0.4492 -0.7494  0.3980
  290MOL0     H39150  -0.150   3.530   9.841  1.7110 -1.8701 -4.0633
  291MOL0     O39151   5.242   6.486   6.891  0.4598  0.7748  0.1377
  291MOL0     C39152   5.204   6.415   6.801 -0.2071  0.5273 -0.8925
  291MOL0     O39153   5.286   6.363   6.704  0.0038  0.1781 -0.0925
  291MOL0     C39154   5.427   6.402   6.696  0.9156  0.1119  0.1464
  291MOL0     C39155   5.458   6.531   6.724  0.3644 -0.0563  0.6799
  291MOL0     C39156   5.585   6.578   6.703 -0.0694  0.8917 -0.3975
  291MOL0     C39157   5.683   6.493   6.639 -0.7301 -0.2788  0.4825
  291MOL0     O39158   5.803   6.549   6.616 -0.6805 -0.0878  0.0036
  291MOL0     C39159   5.922   6.468   6.595  1.0573  0.1040 -1.0603
  291MOL0     C39160   6.041   6.562   6.594 -0.4545 -1.2295 -0.2908
  291MOL0     C39161   6.157   6.488   6.524  0.0923 -1.0379  0.4065
  291MOL0     C39162   6.277   6.589   6.492 -0.2354 -0.2735  0.8901
  291MOL0     C39163   6.411   6.525   6.475  0.4835  0.0205 -0.5348
  291MOL0     C39164   6.523   6.632   6.477  0.6834  0.5875 -0.4027
  291MOL0     C39165   6.505   6.734   6.369  0.2268 -0.6383  0.8649
  291MOL0     C39166   6.618   6.846   6.389 -0.0471 -0.1790  0.4209
  291MOL0     N39167   6.754   6.802   6.424  0.4303  0.1108  0.2443
  291MOL0     C39168   6.828   6.710   6.347  0.3200 -0.5633 -0.4788
  291MOL0     C39169   6.934   6.679   6.430  0.2709 -0.3349  0.0174
  291MOL0     C39170   7.045   6.581   6.406 -0.9170 -0.4099 -0.3401
  291MOL0     C39171   7.052   6.469   6.503  0.6255 -1.3208 -0.7338
  291MOL0     C39172   7.185   6.400   6.509 -1.1740 -0.0233 -0.0782
  291MOL0     C39173   7.217   6.340   6.376 -0.2718 -0.3589 -0.8497
  291MOL0     O39174   7.349   6.270   6.385  0.2769 -0.0394  0.8455
  291MOL0     C39175   7.465   6.315   6.334  0.7568 -0.8811  1.0080
  291MOL0     C39176   7.569   6.224   6.303  0.1622  0.4770 -0.2104
  291MOL0     C39177   7.704   6.264   6.282  0.3714  0.0736 -0.4514
  291MOL0     C39178   7.740   6.401   6.277  0.1257 -0.4982  0.4142
  291MOL0     C39179   7.876   6.434   6.234 -1.3104 -0.3717 -1.0738
  291MOL0     O39180   7.957   6.344   6.170 -0.4841 -0.0189  0.0416
  291MOL0     C39181   8.086   6.349   6.208 -0.1619  0.6888 -0.2508
  291MOL0     C39182   8.130   6.269   6.316 -0.4510  0.3325  0.3481
  291MOL0     C39183   8.262   6.274   6.358  1.2036  0.6994 -0.2637
  291MOL0     C39184   8.350   6.354   6.295 -0.3695 -0.1638  0.3653
  291MOL0     O39185   8.484   6.361   6.330 -0.0237 -1.0455 -0.1134
  291MOL0     C39186   8.517   6.320   6.460 -0.7471 -0.0892 -0.5543
  291MOL0     C39187   8.654   6.375   6.491  0.8255 -0.3361  0.5313
  291MOL0     C39188   8.693   6.376   6.639  0.2777  0.4896 -0.7339
  291MOL0     C39189   8.827   6.461   6.648  0.9355  0.6284  0.5219
  291MOL0     C39190   8.857   6.478   6.790  0.0115 -0.0040  0.6091
  291MOL0     C39191   8.996   6.543   6.809  0.0660  0.6039 -0.0569
  291MOL0     C39192   9.017   6.581   6.954 -0.4429 -0.0554 -0.2034
  291MOL0     C39193   9.127   6.511   7.019 -0.2591 -0.6897 -0.2868
  291MOL0    Cl39194   9.073   6.339   7.045  0.4041 -0.2569  0.2535
  291MOL0     C39195   8.309   6.435   6.187  0.2842 -0.4774 -0.0190
  291MOL0     C39196   8.173   6.437   6.145  0.2970  0.0095 -0.2297
  291MOL0     O39197   7.915   6.555   6.251 -0.2665 -0.2324  0.2060
  291MOL0     C39198   7.633   6.494   6.305 -0.4922  0.3910  0.3076
  291MOL0     C39199   7.501   6.450   6.337  0.2612  0.0386  0.4048
  291MOL0     N39200   6.923   6.749   6.545 -0.5448 -0.0709  0.6573
  291MOL0     N39201   6.815   6.818   6.539 -0.1081  0.4867 -0.1339
  291MOL0     C39202   5.659   6.358   6.621  0.2076 -0.0860  0.4972
  291MOL0     C39203   5.525   6.306   6.653 -0.5858 -0.9223  0.7577
  291MOL0     C39204   5.062   6.362   6.815 -0.2215  0.3170 -0.5374
  291MOL0     C39205   4.976   6.444   6.896  0.7709 -0.0915  0.4304
  291MOL0     C39206   4.844   6.399   6.917  0.1216 -0.2986  0.6432
  291MOL0     C39207   4.799   6.277   6.865  0.7672  0.3678  0.4419
  291MOL0     O39208   4.673   6.240   6.904  0.1223 -0.8667  0.1686
  291MOL0     C39209   4.584   6.283   6.795  0.3298  0.3623  0.0417
  291MOL0     C39210   4.441   6.234   6.816  0.1962  0.1479  0.1279
  291MOL0     C39211   4.427   6.080   6.826  0.6728  0.4518  0.3970
  291MOL0     C39212   4.464   5.999   6.693  0.3579 -0.2436 -0.6363
  291MOL0     C39213   4.536   5.882   6.734 -0.2904 -0.0732 -0.4465
  291MOL0     C39214   4.602   5.791   6.763  0.0388 -0.2587  0.4299
  291MOL0     C39215   4.884   6.196   6.788 -0.2801 -0.6479 -0.5613
  291MOL0     C39216   5.011   6.236   6.762 -0.5207  0.5856  0.2335
  291MOL0     C39217   5.096   6.139   6.689 -1.1583 -0.4023 -0.4498
  291MOL0     H39218   5.393   6.612   6.755  1.4690  2.1754 -2.3222
  291MOL0     H39219   5.592   6.686   6.716 -1.6767  1.2249 -1.9400
  291MOL0     H39220   5.928   6.390   6.671 -1.0682 -1.2364 -2.1642
  291MOL0     H39221   5.909   6.426   6.494 -1.9947 -2.4414  0.2094
  291MOL0     H39222   6.068   6.587   6.697 -0.9530  0.7570 -0.6134
  291MOL0     H39223   6.018   6.650   6.534 -3.0665 -1.0641  0.8427
  291MOL0     H39224   6.136   6.441   6.428 -1.1571  1.2524 -0.5192
  291MOL0     H39225   6.200   6.413   6.591 -3.7461 -0.0138  4.5323
  291MOL0     H39226   6.244   6.645   6.403 -2.4507 -0.3714  1.5897
  291MOL0     H39227   6.297   6.641   6.586  0.1822  1.6671 -0.2056
  291MOL0     H39228   6.428   6.467   6.565 -0.4052 -1.1773 -1.1038
  291MOL0     H39229   6.415   6.467   6.382 -0.0872 -1.1579  0.1567
  291MOL0     H39230   6.529   6.686   6.572  0.5049  0.2942 -0.2227
  291MOL0     H39231   6.618   6.579   6.470  1.0873  1.3738 -1.1069
  291MOL0     H39232   6.407   6.782   6.376 -0.2416 -1.1496 -1.5586
  291MOL0     H39233   6.515   6.695   6.268  0.2896  1.3973  0.0475
  291MOL0     H39234   6.637   6.908   6.300  2.2567 -0.3708  0.7102
  291MOL0     H39235   6.569   6.912   6.461 -2.2462 -2.1758  0.8816
  291MOL0     H39236   6.821   6.676   6.244 -0.2677 -2.2868  0.0997
  291MOL0     H39237   7.057   6.552   6.301  4.2623  0.0541 -0.1340
  291MOL0     H39238   7.141   6.633   6.408 -1.8363  1.4914 -1.9060
  291MOL0     H39239   7.034   6.496   6.608  0.2761 -0.9033 -0.8980
  291MOL0     H39240   6.967   6.401   6.496 -1.6946  1.2971  0.0868
  291MOL0     H39241   7.176   6.333   6.594 -2.3549 -0.3102 -0.4123
  291MOL0     H39242   7.263   6.470   6.543 -0.4456 -0.5769 -0.5877
  291MOL0     H39243   7.204   6.408   6.291 -0.9565 -2.5272 -2.5623
  291MOL0     H39244   7.146   6.258   6.362 -0.5958 -0.4107  0.8836
  291MOL0     H39245   7.537   6.121   6.308  2.9249 -0.4746 -0.6163
  291MOL0     H39246   7.778   6.186   6.271 -0.3387 -0.7936  0.6718
  291MOL0     H39247   8.050   6.207   6.354 -1.1914  0.8415 -0.3491
  291MOL0     H39248   8.290   6.219   6.447 -0.2119  0.5874  0.1333
  291MOL0     H39249   8.455   6.360   6.541 -0.2704  0.8922 -0.6554
  291MOL0     H39250   8.524   6.211   6.466 -0.4714 -0.0831 -0.7257
  291MOL0     H39251   8.736   6.319   6.446  1.2827  0.1301  0.7689
  291MOL0     H39252   8.645   6.474   6.446 -1.2242 -1.0215 -0.6795
  291MOL0     H39253   8.622   6.420   6.710 -0.1995 -2.6835  0.9600
  291MOL0     H39254   8.713   6.273   6.670 -1.8628  0.0855 -0.5463
  291MOL0     H39255   8.813   6.563   6.612  1.1508  1.1115  1.7426
  291MOL0     H39256   8.905   6.412   6.589 -0.6735 -0.4616 -0.7896
  291MOL0     H39257   8.854   6.382   6.841  0.3512  0.4159  1.4355
  291MOL0     H39258   8.780   6.543   6.833  0.3146  0.4585  0.4664
  291MOL0     H39259   9.068   6.462   6.791  0.1545  0.0396  2.4542
  291MOL0     H39260   9.027   6.626   6.746  1.3246 -0.3347 -0.7301
  291MOL0     H39261   8.933   6.574   7.023 -0.3506  1.5227  0.0972
  291MOL0     H39262   9.036   6.689   6.956  3.1594 -0.5648  1.6785
  291MOL0     H39263   9.223   6.524   6.969  0.0773 -2.9323 -0.3212
  291MOL0     H39264   9.136   6.557   7.118  0.0936  1.9975 -1.4896
  291MOL0     H39265   8.385   6.498   6.142 -0.2761 -1.4031 -2.3700
  291MOL0     H39266   8.146   6.490   6.054 -1.7838 -2.2219 -1.0114
  291MOL0     H39267   7.663   6.598   6.304 -3.1642  1.2352  0.0676
  291MOL0     H39268   7.435   6.527   6.375 -1.3462 -0.9204 -0.3303
  291MOL0     H39269   5.727   6.287   6.577  0.4384  1.7369 -2.3068
  291MOL0     H39270   5.504   6.203   6.627  1.9852 -0.8941 -1.8759
  291MOL0     H39271   5.003   6.539   6.941  0.9007  0.1068 -0.0515
  291MOL0     H39272   4.772   6.452   6.977 -1.5784  1.5848 -2.7499
  291MOL0     H39273   4.631   6.254   6.701  1.1343 -0.9911  0.8264
  291MOL0     H39274   4.579   6.392   6.794 -1.4682  0.3173  0.3798
  291MOL0     H39275   4.379   6.248   6.726 -0.6300 -4.0040 -0.1826
  291MOL0     H39276   4.398   6.294   6.897  1.2600 -0.3774  1.1042
  291MOL0     H39277   4.324   6.051   6.851  0.9073  0.0111  0.8531
  291MOL0     H39278   4.487   6.039   6.907  0.6086 -1.6696 -0.5745
  291MOL0     H39279   4.379   5.951   6.644  1.0627 -3.3054  0.8529
  291MOL0     H39280   4.518   6.064   6.624  4.4148 -1.0171  1.5219
  291MOL0     H39281   4.662   5.705   6.786 -1.2801 -0.8472  1.8410
  291MOL0     H39282   4.855   6.102   6.741  1.7953 -1.1476 -0.9464
  291MOL0     H39283   5.096   6.174   6.585  2.5168 -3.1081 -1.5637
  291MOL0     H39284   5.201   6.142   6.718 -1.1373  2.3536 -0.5832
  291MOL0     H39285   5.063   6.034   6.692  2.2935 -1.6242 -0.9327
  292MOL0     O39286   4.797   0.428   9.103 -0.0574 -0.0071 -0.0911
  292MOL0     C39287   4.872   0.331   9.098 -0.9390 -0.7877 -0.2792
  292MOL0     O39288   4.846   0.215   9.036  0.0839 -0.1000 -0.0942
  292MOL0     C39289   4.719   0.203   8.989 -0.2927  0.0322  0.6976
  292MOL0     C39290   4.680   0.275   8.875  0.0072 -0.2836 -0.5519
  292MOL0     C39291   4.552   0.264   8.825  0.3633  0.4736 -0.9100
  292MOL0     C39292   4.454   0.189   8.900  0.1501 -0.4982  0.0526
  292MOL0     O39293   4.316   0.180   8.868 -1.4460 -0.0247 -0.8663
  292MOL0     C39294   4.257   0.245   8.754  0.1109  0.1596  0.1075
  292MOL0     C39295   4.104   0.221   8.759  0.1102  0.2347  0.4463
  292MOL0     C39296   4.026   0.218   8.632  0.1365 -0.1502  0.0826
  292MOL0     C39297   4.035   0.351   8.548  0.1728  0.5216  0.9406
  292MOL0     C39298   3.906   0.362   8.447 -0.2850 -0.1665 -0.1417
  292MOL0     C39299   3.919   0.260   8.334  0.0098  0.3783 -0.0181
  292MOL0     C39300   3.786   0.256   8.258  0.8365  0.3613 -0.0626
  292MOL0     C39301   3.688   0.150   8.319 -0.7787 -0.6681  0.2202
  292MOL0     N39302   3.748   0.016   8.311 -0.5879 -0.0779  0.5969
  292MOL0     C39303   3.804  -0.049   8.204  0.0522 -0.4541 -0.3944
  292MOL0     C39304   3.850  -0.168   8.249  1.0676 -0.2806 -1.5055
  292MOL0     C39305   3.938  -0.262   8.174 -0.1307  0.1086  0.4573
  292MOL0     C39306   4.090  -0.240   8.195 -1.0575 -0.5144 -1.0442
  292MOL0     C39307   4.143  -0.148   8.086  0.3899  1.0927  0.1050
  292MOL0     C39308   4.288  -0.113   8.110 -0.0617  0.2873 -0.0002
  292MOL0     O39309   4.300  -0.038   8.226 -0.3960 -0.1743 -0.8912
  292MOL0     C39310   4.418   0.013   8.265 -0.9723  0.2744  0.2753
  292MOL0     C39311   4.545  -0.002   8.207  0.5200  0.5874  0.0913
  292MOL0     C39312   4.655   0.054   8.270 -0.1309  0.0489 -0.7336
  292MOL0     C39313   4.638   0.147   8.372 -0.7413 -0.5775  0.1426
  292MOL0     C39314   4.752   0.222   8.435  0.1835 -0.0793 -0.2919
  292MOL0     O39315   4.849   0.265   8.350 -0.2472 -0.1540  0.3380
  292MOL0     C39316   4.941   0.359   8.402 -0.1369 -0.0247  0.0301
  292MOL0     C39317   5.044   0.313   8.481  0.5954 -0.5762 -1.1002
  292MOL0     C39318   5.137   0.400   8.543 -1.0049  0.0340 -0.6909
  292MOL0     C39319   5.123   0.537   8.525 -0.1335  0.7348 -0.1974
  292MOL0     O39320   5.202   0.631   8.586  0.3923  0.2497 -1.0151
  292MOL0     C39321   5.337   0.598   8.616  0.1606 -0.3892 -0.4217
  292MOL0     C39322   5.404   0.722   8.686  0.4369  0.1186  0.9835
  292MOL0     C39323   5.320   0.804   8.786 -0.1778 -1.1729 -0.2099
  292MOL0     C39324   5.405   0.936   8.823  0.2465 -0.0879  0.5281
  292MOL0     C39325   5.364   0.998   8.955 -0.2462  1.0128 -0.0659
  292MOL0     C39326   5.455   1.119   8.975  0.5858  0.2563 -1.2756
  292MOL0     C39327   5.441   1.159   9.125 -0.4486 -0.8444  0.7476
  292MOL0     C39328   5.540   1.087   9.216 -0.0172  0.3046 -0.4334
  292MOL0    Cl39329   5.707   1.149   9.197 -0.4452 -0.1197  0.3191
  292MOL0     C39330   5.015   0.581   8.449  0.4513 -1.2881  0.7307
  292MOL0     C39331   4.923   0.498   8.389  0.7767 -0.9365  0.7362
  292MOL0     O39332   4.728   0.261   8.551  0.1356 -0.1941  0.2437
  292MOL0     C39333   4.511   0.171   8.418  1.1339 -0.0922  0.9311
  292MOL0     C39334   4.397   0.113   8.370 -0.0937 -0.1859  0.4963
  292MOL0     N39335   3.819  -0.170   8.384 -0.6162 -0.3163  0.6315
  292MOL0     N39336   3.754  -0.066   8.421 -0.0746 -0.0570 -0.2484
  292MOL0     C39337   4.486   0.118   9.012  0.0713 -0.8965  0.6337
  292MOL0     C39338   4.620   0.124   9.055  0.3465 -0.4694 -0.1635
  292MOL0     C39339   5.008   0.355   9.149  0.0464 -0.4074  0.4671
  292MOL0     C39340   5.041   0.332   9.289  0.8926 -0.7091 -0.0268
  292MOL0     C39341   5.180   0.343   9.324  0.0988 -0.0119 -0.3592
  292MOL0     C39342   5.272   0.380   9.237 -0.5957  0.5384  0.1053
  292MOL0     O39343   5.394   0.393   9.291 -0.0469  0.3958 -0.2867
  292MOL0     C39344   5.507   0.450   9.222 -0.7876 -0.6010 -0.3617
  292MOL0     C39345   5.486   0.603   9.216  0.1112  0.1342 -0.1375
  292MOL0     C39346   5.600   0.671   9.134 -0.3049 -0.3161 -0.4147
  292MOL0     C39347   5.725   0.708   9.225  0.5302  0.2722  0.8760
  292MOL0     C39348   5.823   0.775   9.142 -0.3286 -0.5302  0.2670
  292MOL0     C39349   5.897   0.829   9.062  0.0860 -0.4559  0.3454
  292MOL0     C39350   5.244   0.397   9.102  0.6923  0.4345  0.5837
  292MOL0     C39351   5.109   0.385   9.049  0.4057  0.9146 -0.9892
  292MOL0     C39352   5.080   0.429   8.904  0.7982  0.0352  0.1284
  292MOL0     H39353   4.758   0.327   8.820  0.2872  0.3688  0.4334
  292MOL0     H39354   4.532   0.328   8.739 -0.8841  2.3426  0.6983
  292MOL0     H39355   4.275   0.353   8.747 -0.3025  0.4960  2.9641
  292MOL0     H39356   4.291   0.189   8.666 -1.3086  2.6125 -2.1572
  292MOL0     H39357   4.061   0.276   8.842  1.3053  1.2286  0.4299
  292MOL0     H39358   4.093   0.118   8.795  0.9844 -1.2066 -2.9221
  292MOL0     H39359   3.920   0.199   8.651  0.0206 -3.3044 -2.6093
  292MOL0     H39360   4.057   0.130   8.575 -2.9295 -1.5895  0.4467
  292MOL0     H39361   4.038   0.433   8.620  2.2650  0.0568  1.4496
  292MOL0     H39362   4.134   0.353   8.503 -0.6405  1.2942 -0.8849
  292MOL0     H39363   3.809   0.346   8.496 -1.3833 -0.8738 -2.3653
  292MOL0     H39364   3.900   0.465   8.409 -1.6840 -0.5999 -1.1891
  292MOL0     H39365   3.992   0.297   8.261 -0.5033 -1.6916 -1.7020
  292MOL0     H39366   3.956   0.166   8.375  0.2903  1.1019  1.4450
  292MOL0     H39367   3.812   0.249   8.152  2.0235 -1.1486  0.3005
  292MOL0     H39368   3.741   0.355   8.269  0.7656  0.5225 -1.5598
  292MOL0     H39369   3.686   0.187   8.422 -1.2705  3.6242 -1.1201
  292MOL0     H39370   3.583   0.167   8.295 -0.2650  2.5347 -0.1872
  292MOL0     H39371   3.812  -0.001   8.107 -0.8594 -3.6596 -2.2213
  292MOL0     H39372   3.917  -0.365   8.202  0.0601 -0.5660 -1.6893
  292MOL0     H39373   3.913  -0.265   8.067 -1.2534  0.5941  0.6945
  292MOL0     H39374   4.105  -0.194   8.293 -0.1109  2.1508 -2.3283
  292MOL0     H39375   4.136  -0.339   8.186 -1.3249 -0.5171 -2.7994
  292MOL0     H39376   4.087  -0.054   8.087 -0.0053  1.1244  5.4859
  292MOL0     H39377   4.141  -0.211   7.996 -4.6407 -0.9461  1.3057
  292MOL0     H39378   4.320  -0.064   8.017  0.0012 -0.2755 -0.2794
  292MOL0     H39379   4.348  -0.204   8.109 -1.8468 -1.0099  1.6204
  292MOL0     H39380   4.557  -0.064   8.118  2.1975  2.4326 -1.0480
  292MOL0     H39381   4.756   0.027   8.244 -0.9134 -1.2647 -2.6120
  292MOL0     H39382   5.025   0.209   8.505 -2.4845 -0.3900 -2.2556
  292MOL0     H39383   5.212   0.351   8.604 -1.3557 -0.4948 -0.6782
  292MOL0     H39384   5.344   0.525   8.698 -0.4230  2.6631  2.5592
  292MOL0     H39385   5.387   0.564   8.525  2.1403  1.5263 -0.1459
  292MOL0     H39386   5.493   0.689   8.739 -0.8808 -0.8504  2.6834
  292MOL0     H39387   5.430   0.795   8.608 -2.1008  0.2661  0.1921
  292MOL0     H39388   5.222   0.828   8.744 -0.5230 -0.3802  0.9945
  292MOL0     H39389   5.301   0.748   8.878  1.3980  1.2173  1.6969
  292MOL0     H39390   5.383   1.012   8.748  3.2079  0.7050  0.3041
  292MOL0     H39391   5.512   0.912   8.821  0.5378  1.0398  1.3428
  292MOL0     H39392   5.377   0.916   9.026 -4.0053 -1.1643 -1.5693
  292MOL0     H39393   5.260   1.032   8.954 -0.3946  0.5723 -1.0921
  292MOL0     H39394   5.556   1.080   8.976  1.0545  1.4119 -0.3087
  292MOL0     H39395   5.429   1.207   8.914 -1.1277  2.4040  2.2172
  292MOL0     H39396   5.340   1.129   9.155 -0.0666 -1.4440  1.4624
  292MOL0     H39397   5.455   1.267   9.135  1.5371 -0.8752 -1.0070
  292MOL0     H39398   5.525   1.091   9.324  2.0165 -2.0559  0.0492
  292MOL0     H39399   5.531   0.980   9.195 -0.6584  0.4082 -0.7091
  292MOL0     H39400   4.997   0.688   8.448 -3.4317 -1.7725 -0.2864
  292MOL0     H39401   4.838   0.529   8.328  0.9143 -0.1844  0.9132
  292MOL0     H39402   4.495   0.241   8.500 -0.8917  2.2237 -1.2434
  292MOL0     H39403   4.298   0.144   8.403  0.0072 -0.2941  0.9118
  292MOL0     H39404   4.407   0.071   9.070 -0.8047 -4.0048 -2.7515
  292MOL0     H39405   4.660   0.077   9.145 -2.2655  0.7796  1.8019
  292MOL0     H39406   4.962   0.324   9.363  2.2767  0.8948  1.7416
  292MOL0     H39407   5.207   0.319   9.426  0.0267 -3.3685 -0.9990
  292MOL0     H39408   5.514   0.420   9.117 -0.4124 -1.5137 -0.0815
  292MOL0     H39409   5.600   0.443   9.279  0.0126  3.2498 -0.9367
  292MOL0     H39410   5.474   0.633   9.320 -0.7678 -0.1621 -0.1386
  292MOL0     H39411   5.389   0.637   9.176  0.4065 -2.4168 -3.5237
  292MOL0     H39412   5.559   0.759   9.084 -1.5086 -1.0263 -0.7017
  292MOL0     H39413   5.650   0.609   9.059 -0.0425 -1.0593  0.3502
  292MOL0     H39414   5.690   0.767   9.310 -0.2566  0.7474  0.2347
  292MOL0     H39415   5.757   0.611   9.264 -2.8826 -1.4134 -0.0924
  292MOL0     H39416   5.962   0.895   9.007 -0.2030 -0.2579  0.2369
  292MOL0     H39417   5.317   0.427   9.027 -0.7343 -1.5299 -1.7381
  292MOL0     H39418   4.998   0.501   8.904 -0.0452 -0.8804  1.3026
  292MOL0     H39419   5.165   0.484   8.865  1.4181 -0.6909  0.4255
  292MOL0     H39420   5.069   0.344   8.836  2.6872 -0.8404  0.8463
  293MOL0     O39421  10.092   8.864   6.389  0.1878  0.0927 -0.4891
  293MOL0     C39422   9.995   8.823   6.328  0.9900 -0.0288 -0.5841
  293MOL0     O39423   9.990   8.796   6.198  0.3017  0.0655 -0.7280
  293MOL0     C39424  10.107   8.735   6.152  1.1901  0.0239 -0.2899
  293MOL0     C39425  10.160   8.795   6.040 -0.2514 -0.2225  0.5966
  293MOL0     C39426  10.268   8.730   5.967 -0.4339 -0.1090 -0.1597
  293MOL0     C39427  10.314   8.605   6.019  0.5968  0.4702 -0.3092
  293MOL0     O39428  10.422   8.538   5.970 -0.5786  1.0976  0.1608
  293MOL0     C39429  10.490   8.597   5.857  0.0764  0.9745  0.8292
  293MOL0     C39430  10.604   8.511   5.820 -1.0104  1.4400 -0.2198
  293MOL0     C39431  10.574   8.390   5.725  0.6433 -0.4109  0.6922
  293MOL0     C39432  10.665   8.266   5.773  0.4218  0.5391  0.0621
  293MOL0     C39433  10.808   8.272   5.735  0.4767  0.7966  0.5428
  293MOL0     C39434  10.823   8.253   5.581 -0.3695  1.1214  0.2499
  293MOL0     C39435  10.971   8.232   5.531 -0.7232 -0.2710 -1.2894
  293MOL0     C39436  11.050   8.343   5.596  0.2284  0.2782 -0.3482
  293MOL0     N39437  11.186   8.335   5.540  0.8189  1.1724 -0.0182
  293MOL0     C39438  11.297   8.373   5.608  0.4215 -0.8777  0.5414
  293MOL0     C39439  11.398   8.322   5.539  0.2136  0.4347 -0.3396
  293MOL0     C39440  11.542   8.347   5.565  0.5580 -0.2831 -0.1096
  293MOL0     C39441  11.640   8.230   5.547 -0.3863 -0.0093  0.4420
  293MOL0     C39442  11.785   8.274   5.580 -0.2339 -0.1437  0.2912
  293MOL0     C39443  11.879   8.142   5.570 -0.2099 -1.1253 -0.0161
  293MOL0     O39444  12.013   8.187   5.589  0.1484  0.4381 -0.2058
  293MOL0     C39445  12.112   8.098   5.621 -0.7089  0.4251  0.5529
  293MOL0     C39446  12.093   7.965   5.656  0.4029 -0.6790 -0.0560
  293MOL0     C39447  12.202   7.882   5.695 -0.8068 -0.0164 -0.1539
  293MOL0     C39448  12.333   7.937   5.695  0.4333 -0.0837  0.8123
  293MOL0     C39449  12.448   7.863   5.735  0.1402 -0.5240 -0.5312
  293MOL0     O39450  12.415   7.738   5.789  0.4015 -0.0472 -0.0195
  293MOL0     C39451  12.517   7.649   5.813  1.3844  0.2335  0.6944
  293MOL0     C39452  12.603   7.656   5.927  0.1453 -0.3730  0.7683
  293MOL0     C39453  12.703   7.556   5.955  0.4160 -0.1556 -0.4179
  293MOL0     C39454  12.723   7.453   5.857 -0.7049 -0.6720 -0.0876
  293MOL0     O39455  12.836   7.372   5.879 -0.0983  0.0096 -0.2282
  293MOL0     C39456  12.853   7.246   5.805  0.0001  1.1406 -0.4196
  293MOL0     C39457  12.991   7.184   5.843 -0.1650 -0.2284 -0.1645
  293MOL0     C39458  13.116   7.270   5.829  0.0454 -0.7494 -0.1796
  293MOL0     C39459  13.240   7.182   5.814  0.2194 -0.5099 -0.0609
  293MOL0     C39460  13.368   7.269   5.788  0.6140  0.0769  0.1817
  293MOL0     C39461  13.415   7.337   5.919  0.7911  0.6438  0.1753
  293MOL0     C39462  13.550   7.415   5.892 -0.0573  0.4083 -0.0988
  293MOL0     C39463  13.614   7.454   6.025  0.0739  0.2015  0.8465
  293MOL0    Cl39464  13.765   7.539   6.003  0.2450  0.2046 -0.0259
  293MOL0     C39465  12.641   7.441   5.747  0.5308  0.0877  0.3614
  293MOL0     C39466  12.530   7.534   5.731 -0.1152  0.0406 -0.5190
  293MOL0     O39467  12.560   7.901   5.713  0.3704  0.6562 -0.1790
  293MOL0     C39468  12.347   8.069   5.652  0.3466  0.5589  0.3856
  293MOL0     C39469  12.242   8.144   5.606 -0.3596 -0.2669 -0.7716
  293MOL0     N39470  11.342   8.258   5.431 -0.5043  0.7144 -0.3687
  293MOL0     N39471  11.217   8.248   5.439 -0.4018 -0.2059  1.1275
  293MOL0     C39472  10.256   8.551   6.135 -0.5076 -0.1246  0.7602
  293MOL0     C39473  10.150   8.611   6.197 -0.6667 -0.7217 -0.3665
  293MOL0     C39474   9.854   8.820   6.393  0.1420 -0.5335  0.0617
  293MOL0     C39475   9.749   8.756   6.320  0.0273 -0.6715 -0.1229
  293MOL0     C39476   9.621   8.756   6.363 -0.2577  0.3593  0.1242
  293MOL0     C39477   9.590   8.804   6.491  0.3927 -0.6944 -0.4179
  293MOL0     O39478   9.466   8.785   6.557 -0.6522 -0.8093  0.4168
  293MOL0     C39479   9.362   8.708   6.479  0.5269  0.0253 -0.1156
  293MOL0     C39480   9.252   8.681   6.589 -0.3909  0.1837  0.0978
  293MOL0     C39481   9.209   8.815   6.654  1.1025  0.0397 -0.9268
  293MOL0     C39482   9.112   8.911   6.571 -0.3510  0.5785 -0.5604
  293MOL0     C39483   8.999   8.836   6.510 -0.8086 -0.0948 -0.1419
  293MOL0     C39484   8.909   8.769   6.468  0.1820  0.0729  0.1631
  293MOL0     C39485   9.697   8.863   6.565 -0.4874  0.5288  0.3148
  293MOL0     C39486   9.817   8.884   6.515 -0.0148  0.1329  0.1778
  293MOL0     C39487   9.924   8.947   6.604 -0.1353  0.2640 -0.1294
  293MOL0     H39488  10.111   8.884   6.000 -0.4996  0.4892  2.3972
  293MOL0     H39489  10.309   8.781   5.880 -1.6326  1.1667 -0.0133
  293MOL0     H39490  10.416   8.615   5.779 -0.9976  1.1378  1.8473
  293MOL0     H39491  10.542   8.688   5.889  2.6114 -0.1199  0.1099
  293MOL0     H39492  10.640   8.479   5.919 -3.0853  0.9070  0.4111
  293MOL0     H39493  10.692   8.565   5.783 -0.1991 -1.0462 -2.2245
  293MOL0     H39494  10.600   8.408   5.620  2.0973 -1.2624  0.8765
  293MOL0     H39495  10.472   8.353   5.733  0.3411 -0.1135 -1.2169
  293MOL0     H39496  10.656   8.247   5.880  0.1171 -0.8122 -0.1807
  293MOL0     H39497  10.622   8.178   5.725  2.9532  0.1347 -1.6617
  293MOL0     H39498  10.854   8.365   5.770 -3.3081  1.5364  4.5069
  293MOL0     H39499  10.853   8.188   5.789 -2.0824 -0.4796  0.8503
  293MOL0     H39500  10.778   8.159   5.547  0.8957  0.4882  0.2496
  293MOL0     H39501  10.779   8.333   5.522 -4.6664  0.5332  2.2995
  293MOL0     H39502  10.983   8.250   5.424 -2.0080 -2.4918 -1.8797
  293MOL0     H39503  11.005   8.134   5.567 -2.4436 -0.0785  1.0622
  293MOL0     H39504  11.005   8.440   5.572 -3.2757 -1.5835 -2.0772
  293MOL0     H39505  11.060   8.330   5.704 -3.3635 -2.6989 -0.1778
  293MOL0     H39506  11.288   8.432   5.699 -1.2326  0.6916 -0.5760
  293MOL0     H39507  11.567   8.442   5.517 -1.4493  0.6709  0.6299
  293MOL0     H39508  11.557   8.371   5.670 -0.9604  0.8835 -0.1297
  293MOL0     H39509  11.618   8.149   5.617 -2.5002  0.0039 -0.1550
  293MOL0     H39510  11.637   8.184   5.448 -0.0401 -1.7526  1.1998
  293MOL0     H39511  11.796   8.318   5.679 -2.3013 -3.5305  2.2291
  293MOL0     H39512  11.816   8.341   5.499  2.0891  0.1595  1.3642
  293MOL0     H39513  11.865   8.081   5.481 -0.2753  0.2019 -0.9504
  293MOL0     H39514  11.859   8.084   5.660 -1.1380  1.2090  1.3945
  293MOL0     H39515  11.994   7.923   5.668  0.2507 -0.3384 -0.0890
  293MOL0     H39516  12.183   7.780   5.727 -1.8110 -0.8169 -3.0054
  293MOL0     H39517  12.576   7.724   6.007  0.5298  2.4349 -1.3421
  293MOL0     H39518  12.762   7.564   6.046  0.6196  1.2024 -0.6484
  293MOL0     H39519  12.769   7.177   5.817 -0.3625  1.3512 -1.6668
  293MOL0     H39520  12.852   7.255   5.696 -3.3788  2.9494 -0.3842
  293MOL0     H39521  12.983   7.157   5.949  2.8976  0.5733  0.3530
  293MOL0     H39522  13.002   7.094   5.783  0.5241 -0.8755  0.9091
  293MOL0     H39523  13.111   7.335   5.741 -2.0074  1.9712  1.7728
  293MOL0     H39524  13.127   7.327   5.921  2.2118 -1.4616  0.0505
  293MOL0     H39525  13.225   7.120   5.725 -1.4275  0.0917 -0.2362
  293MOL0     H39526  13.259   7.118   5.901 -2.8176  0.9674  1.8880
  293MOL0     H39527  13.351   7.347   5.713 -0.8329  0.2210  0.6260
  293MOL0     H39528  13.446   7.202   5.751 -1.2942 -1.1628 -1.8430
  293MOL0     H39529  13.334   7.401   5.956 -0.0308  0.4331 -1.2045
  293MOL0     H39530  13.441   7.262   5.995 -0.3953  1.1916  1.1696
  293MOL0     H39531  13.536   7.496   5.819  2.5905  0.0341 -1.1347
  293MOL0     H39532  13.623   7.350   5.842  1.2977  2.2044 -0.5450
  293MOL0     H39533  13.544   7.515   6.084 -1.6411 -1.3526  0.5315
  293MOL0     H39534  13.628   7.362   6.083  3.6669  0.4014  0.4732
  293MOL0     H39535  12.650   7.362   5.673  1.3163  2.5957 -2.4181
  293MOL0     H39536  12.462   7.517   5.649  0.1774 -2.6930 -0.2830
  293MOL0     H39537  12.441   8.122   5.663 -0.5968  2.4059 -0.0527
  293MOL0     H39538  12.263   8.248   5.580  0.7099  0.1684  1.5569
  293MOL0     H39539  10.299   8.458   6.173  0.2299 -0.6517 -1.2279
  293MOL0     H39540  10.123   8.572   6.294  0.1134  1.5899  0.8682
  293MOL0     H39541   9.771   8.695   6.233 -0.1161 -3.4939  1.6803
  293MOL0     H39542   9.545   8.708   6.302  0.7460 -0.5467 -0.4517
  293MOL0     H39543   9.401   8.612   6.443 -2.6526  0.2027 -4.9857
  293MOL0     H39544   9.321   8.761   6.393  2.4225  2.7822  0.5472
  293MOL0     H39545   9.292   8.609   6.662  2.7566  2.2591  0.6158
  293MOL0     H39546   9.166   8.631   6.543 -1.6015 -0.0103  2.3638
  293MOL0     H39547   9.299   8.873   6.675  1.5183 -0.8774 -0.1244
  293MOL0     H39548   9.157   8.798   6.749  1.4640 -0.1010 -0.7532
  293MOL0     H39549   9.088   8.997   6.634 -1.7768 -0.6949  0.7085
  293MOL0     H39550   9.174   8.953   6.491 -0.8055  1.3429 -0.5220
  293MOL0     H39551   8.826   8.714   6.429  0.3098 -1.0221  1.3406
  293MOL0     H39552   9.673   8.905   6.662  0.0520  0.3729  0.5177
  293MOL0     H39553   9.877   8.979   6.698  3.1428  2.6229  0.8584
  293MOL0     H39554   9.996   8.872   6.635 -1.1000 -0.9956 -0.7921
  293MOL0     H39555   9.968   9.034   6.555  3.0458 -1.5971 -0.8473
  294MOL0     O39556   3.690   2.178   5.451  0.4694  0.0227 -0.4637
  294MOL0     C39557   3.591   2.237   5.416  0.5159 -0.6789 -0.5303
  294MOL0     O39558   3.573   2.298   5.289  0.1607  0.5467 -0.4611
  294MOL0     C39559   3.673   2.277   5.201  1.0760  0.2995 -0.1575
  294MOL0     C39560   3.790   2.363   5.211  0.8258 -0.0049 -0.1735
  294MOL0     C39561   3.888   2.366   5.119 -0.1267  0.0328 -0.4143
  294MOL0     C39562   3.894   2.262   5.024 -0.7361 -0.0557  0.9991
  294MOL0     O39563   4.001   2.233   4.934 -0.0659 -0.2113  0.3875
  294MOL0     C39564   4.116   2.309   4.959 -0.0551  0.3300 -0.1756
  294MOL0     C39565   4.237   2.254   4.888 -0.5512  0.3991  0.4018
  294MOL0     C39566   4.205   2.259   4.738 -0.7785 -0.0403  0.1328
  294MOL0     C39567   4.326   2.200   4.666 -0.0898  0.2446  0.9734
  294MOL0     C39568   4.448   2.284   4.639 -0.5328 -0.5201  0.0496
  294MOL0     C39569   4.556   2.205   4.571 -0.1271  0.2973  0.0931
  294MOL0     C39570   4.681   2.294   4.541  0.1663 -0.4957 -0.0251
  294MOL0     C39571   4.738   2.360   4.665 -0.5207 -0.2864 -0.4514
  294MOL0     N39572   4.860   2.428   4.625  0.1205 -0.7020  0.5429
  294MOL0     C39573   4.863   2.560   4.594 -0.1070 -0.0310  0.8058
  294MOL0     C39574   4.989   2.590   4.553  0.3260 -0.5225  0.0657
  294MOL0     C39575   5.046   2.725   4.503  0.2715 -0.2572 -0.2778
  294MOL0     C39576   5.164   2.686   4.418  1.6581 -0.7661  0.7936
  294MOL0     C39577   5.225   2.813   4.362  0.3910  0.6305 -0.1249
  294MOL0     C39578   5.373   2.809   4.384  0.5901 -0.8037  0.3512
  294MOL0     O39579   5.429   2.918   4.309 -1.1745  0.0005  0.1765
  294MOL0     C39580   5.574   2.929   4.305 -0.0896 -0.0537  0.2299
  294MOL0     C39581   5.622   3.050   4.260 -0.3044  0.2382 -0.2685
  294MOL0     C39582   5.756   3.084   4.263  0.0930 -0.1032  0.4757
  294MOL0     C39583   5.849   2.982   4.304  0.2161 -0.5558 -0.1931
  294MOL0     C39584   5.994   3.008   4.314  0.6496  0.4003 -0.0918
  294MOL0     O39585   6.088   2.902   4.302 -0.4532  0.0120 -0.4074
  294MOL0     C39586   6.221   2.908   4.340 -0.0534 -0.5973  0.3118
  294MOL0     C39587   6.277   2.801   4.411  0.4190  0.0911  0.3024
  294MOL0     C39588   6.415   2.794   4.434 -0.4606  0.8052 -0.3484
  294MOL0     C39589   6.501   2.894   4.403 -1.1265  0.2921  0.3281
  294MOL0     O39590   6.644   2.869   4.420 -0.7835 -0.4420  0.4635
  294MOL0     C39591   6.714   2.989   4.467  0.7575  0.0283  0.7071
  294MOL0     C39592   6.852   2.934   4.485 -0.9441 -0.2532  0.1855
  294MOL0     C39593   6.946   3.028   4.564 -0.2206  0.3818 -0.3788
  294MOL0     C39594   7.058   2.954   4.636 -0.3678 -0.0312  1.0169
  294MOL0     C39595   7.157   3.057   4.683  0.0266 -0.1632 -0.8884
  294MOL0     C39596   7.244   2.974   4.780  0.2109  0.6304  0.3468
  294MOL0     C39597   7.357   3.054   4.844 -0.3405  0.4103 -0.2540
  294MOL0     C39598   7.462   2.966   4.909  0.0356 -0.5660  0.3028
  294MOL0    Cl39599   7.576   3.090   4.966  0.2730  0.1171  0.3111
  294MOL0     C39600   6.446   3.016   4.346  0.0981  0.1265 -0.7832
  294MOL0     C39601   6.308   3.018   4.316  0.5024  0.0117 -0.3128
  294MOL0     O39602   6.025   3.120   4.345 -0.4552  0.3084 -0.5285
  294MOL0     C39603   5.801   2.853   4.337  0.9089  0.5845  0.6242
  294MOL0     C39604   5.666   2.827   4.333  0.5397  0.9345 -0.4175
  294MOL0     N39605   5.058   2.471   4.556 -0.1598  0.8826  0.7233
  294MOL0     N39606   4.979   2.375   4.594  0.1879 -0.0921 -0.7829
  294MOL0     C39607   3.787   2.173   5.014  0.7193 -0.1828 -0.7737
  294MOL0     C39608   3.667   2.190   5.092 -0.8323 -0.6155 -0.6043
  294MOL0     C39609   3.467   2.222   5.508 -0.2122  1.3041  0.4376
  294MOL0     C39610   3.344   2.236   5.447  0.4402  0.0942 -0.1216
  294MOL0     C39611   3.226   2.204   5.519  0.0409 -0.1646 -0.5833
  294MOL0     C39612   3.227   2.172   5.661 -0.5040 -0.3731  0.3507
  294MOL0     O39613   3.123   2.155   5.746  0.6533 -0.5513 -0.2265
  294MOL0     C39614   3.005   2.241   5.748 -0.2148  0.1809 -0.9398
  294MOL0     C39615   3.042   2.370   5.810 -0.2099 -1.2914 -0.6585
  294MOL0     C39616   3.105   2.359   5.955  0.0161 -0.2715  1.0532
  294MOL0     C39617   3.035   2.259   6.055  0.2360 -0.2984  0.3430
  294MOL0     C39618   2.917   2.333   6.082  0.3357 -0.1871  0.4905
  294MOL0     C39619   2.804   2.381   6.098  0.5897  0.1082 -0.3040
  294MOL0     C39620   3.356   2.174   5.721  1.4534  1.0614 -0.8473
  294MOL0     C39621   3.474   2.196   5.649  0.3380  0.9389 -0.7511
  294MOL0     C39622   3.607   2.211   5.730  0.1457  0.1165 -0.1109
  294MOL0     H39623   3.785   2.432   5.295 -0.2973 -0.5924  0.2688
  294MOL0     H39624   3.953   2.453   5.122 -0.4196  0.5877 -4.8149
  294MOL0     H39625   4.100   2.412   4.927 -2.0432  0.6194  1.5333
  294MOL0     H39626   4.141   2.321   5.064 -3.5963 -0.5399  0.9061
  294MOL0     H39627   4.278   2.161   4.928  3.6810  2.2062  0.7741
  294MOL0     H39628   4.314   2.331   4.899  0.0908 -0.3883  1.5666
  294MOL0     H39629   4.188   2.359   4.699  1.6776 -0.8555 -3.6193
  294MOL0     H39630   4.130   2.180   4.725  0.0850 -0.7535 -0.6447
  294MOL0     H39631   4.337   2.097   4.700 -1.9755  0.1179  1.3142
  294MOL0     H39632   4.288   2.174   4.567  3.4711  0.2749 -0.5376
  294MOL0     H39633   4.413   2.366   4.576  1.4416  0.5119  0.2242
  294MOL0     H39634   4.486   2.320   4.736 -2.5473 -0.6513  0.9447
  294MOL0     H39635   4.589   2.128   4.641 -2.9907 -1.5588 -0.4405
  294MOL0     H39636   4.524   2.158   4.477 -1.2573 -0.5375  0.8720
  294MOL0     H39637   4.649   2.369   4.468 -1.0458 -0.9350  0.0467
  294MOL0     H39638   4.765   2.242   4.492 -0.8561 -0.4355 -1.9500
  294MOL0     H39639   4.664   2.429   4.707 -0.6045 -0.8031  0.2749
  294MOL0     H39640   4.756   2.282   4.740  0.9512 -0.9113 -1.4151
  294MOL0     H39641   4.784   2.634   4.598 -0.8556 -0.7462 -0.1975
  294MOL0     H39642   4.975   2.777   4.437 -0.9050 -0.0626  1.0818
  294MOL0     H39643   5.060   2.796   4.586  0.8220  1.1405 -1.5164
  294MOL0     H39644   5.233   2.632   4.483  0.7953 -2.4593  0.3905
  294MOL0     H39645   5.132   2.623   4.334  2.0516 -0.4735  0.4228
  294MOL0     H39646   5.184   2.906   4.404 -0.6975 -0.7449  2.0091
  294MOL0     H39647   5.199   2.818   4.256  0.8486 -1.3100 -0.3677
  294MOL0     H39648   5.405   2.714   4.341  0.2283 -0.5797 -0.4336
  294MOL0     H39649   5.401   2.823   4.488 -1.3564 -1.6160  1.0385
  294MOL0     H39650   5.559   3.132   4.229  1.1041  1.0073 -1.1932
  294MOL0     H39651   5.793   3.186   4.250 -0.4571 -0.1245 -1.8331
  294MOL0     H39652   6.215   2.717   4.443  0.1983  0.2224  0.2212
  294MOL0     H39653   6.466   2.707   4.473 -3.0443 -0.3248  0.7518
  294MOL0     H39654   6.719   3.066   4.390 -2.7210 -0.3446 -0.0449
  294MOL0     H39655   6.668   3.034   4.555  0.4049  0.1284  0.4712
  294MOL0     H39656   6.835   2.833   4.524 -3.7195 -0.6446 -1.7154
  294MOL0     H39657   6.900   2.913   4.390 -1.5869  3.1339 -1.0213
  294MOL0     H39658   6.994   3.106   4.504  0.9105  1.0264  1.2808
  294MOL0     H39659   6.882   3.069   4.643  0.4798  0.2168  0.2819
  294MOL0     H39660   7.100   2.878   4.570 -0.0618  0.7677  0.2614
  294MOL0     H39661   7.018   2.902   4.723 -0.0518 -0.0530  1.1496
  294MOL0     H39662   7.101   3.132   4.739 -1.1261 -2.3983  1.1291
  294MOL0     H39663   7.207   3.105   4.598 -1.2446  0.8101 -1.1246
  294MOL0     H39664   7.179   2.942   4.862  0.9795 -0.7960  0.4215
  294MOL0     H39665   7.285   2.888   4.726  1.1443  1.9900 -1.1971
  294MOL0     H39666   7.317   3.120   4.922  0.7123  1.5602 -0.6374
  294MOL0     H39667   7.401   3.125   4.773  2.6368  1.1729  2.1469
  294MOL0     H39668   7.439   2.909   4.999 -0.9100 -0.3627  0.1917
  294MOL0     H39669   7.516   2.903   4.838  0.1316  0.0725 -0.1987
  294MOL0     H39670   6.511   3.102   4.354  1.6146 -0.8498 -1.9944
  294MOL0     H39671   6.280   3.113   4.273 -1.9873  0.0033  1.1218
  294MOL0     H39672   5.873   2.780   4.373 -0.6930 -0.6530  1.4638
  294MOL0     H39673   5.626   2.735   4.374  0.8006  1.4176  1.0074
  294MOL0     H39674   3.790   2.096   4.937 -0.0664  0.1517 -1.1529
  294MOL0     H39675   3.582   2.123   5.082 -1.1166 -0.6033  1.4005
  294MOL0     H39676   3.331   2.254   5.341  1.9103  0.0955 -0.3215
  294MOL0     H39677   3.126   2.201   5.475  0.8724  0.3231 -2.6029
  294MOL0     H39678   2.928   2.187   5.803  1.6657 -2.3013 -0.5915
  294MOL0     H39679   2.970   2.254   5.645  1.1125  0.1736 -1.4056
  294MOL0     H39680   2.956   2.437   5.814  2.1623  2.0192  2.9149
  294MOL0     H39681   3.105   2.414   5.732 -0.5311 -0.1917 -0.3062
  294MOL0     H39682   3.122   2.460   5.992 -2.4115 -0.5546  3.2660
  294MOL0     H39683   3.211   2.340   5.934  0.4538  2.9215 -0.2080
  294MOL0     H39684   3.007   2.162   6.011 -6.3754 -0.2327  3.2252
  294MOL0     H39685   3.087   2.251   6.151 -2.9791  3.3793  2.6799
  294MOL0     H39686   2.704   2.420   6.096  0.7275  0.5830  0.8469
  294MOL0     H39687   3.342   2.150   5.826 -2.4969 -0.4300 -1.5294
  294MOL0     H39688   3.673   2.124   5.719  2.1316  1.2933  1.8251
  294MOL0     H39689   3.653   2.304   5.697  1.4631  1.0108  3.6759
  294MOL0     H39690   3.582   2.218   5.836 -0.9575  0.0179 -0.3485
  295MOL0     O39691   7.774   2.268   8.237  0.5990 -0.1479  0.3253
  295MOL0     C39692   7.709   2.361   8.192 -0.4152 -0.4596  1.0173
  295MOL0     O39693   7.738   2.422   8.076  0.4114  0.2731 -0.2069
  295MOL0     C39694   7.818   2.362   7.978 -0.1774 -0.9824 -0.3777
  295MOL0     C39695   7.759   2.336   7.859  0.0892  0.7033  0.2286
  295MOL0     C39696   7.830   2.283   7.741 -0.6146  0.1349 -0.6771
  295MOL0     C39697   7.962   2.265   7.756  0.5167 -0.5248  0.6143
  295MOL0     O39698   8.032   2.208   7.653 -0.0332 -0.1688  0.7450
  295MOL0     C39699   8.162   2.256   7.627 -0.4835  0.0850 -0.4237
  295MOL0     C39700   8.213   2.190   7.497  0.1418 -0.1759  0.2457
  295MOL0     C39701   8.373   2.172   7.481  0.2003  0.0824 -0.4653
  295MOL0     C39702   8.450   2.105   7.599  0.5948 -0.2553 -0.4140
  295MOL0     C39703   8.605   2.100   7.579  0.6566 -0.7055  0.0307
  295MOL0     C39704   8.656   2.005   7.464 -0.8585  0.4237  0.2058
  295MOL0     C39705   8.801   2.022   7.438 -0.7274 -0.3858  0.3791
  295MOL0     C39706   8.841   2.132   7.340  0.3074  0.7923 -0.0627
  295MOL0     N39707   8.990   2.139   7.341  0.6521  0.6487  0.5185
  295MOL0     C39708   9.061   2.050   7.265 -0.6984 -0.2085 -0.5743
  295MOL0     C39709   9.184   2.106   7.261  0.1408 -0.2751 -0.0811
  295MOL0     C39710   9.321   2.046   7.226 -0.0356 -0.8553  0.2241
  295MOL0     C39711   9.403   2.151   7.141 -0.2357  0.1706 -0.2305
  295MOL0     C39712   9.532   2.079   7.091 -1.0251  0.3961 -0.2307
  295MOL0     C39713   9.597   2.172   6.991 -0.1470 -0.2675  0.1026
  295MOL0     O39714   9.739   2.155   6.987  0.3538  0.0989  0.5770
  295MOL0     C39715   9.811   2.231   6.898 -0.4249  0.1116 -0.0665
  295MOL0     C39716   9.780   2.366   6.850 -0.5609 -0.5447  1.2394
  295MOL0     C39717   9.873   2.441   6.777  0.8819 -0.5790 -0.4839
  295MOL0     C39718   9.995   2.379   6.753 -0.2937 -0.2720  0.0469
  295MOL0     C39719  10.084   2.443   6.654  0.8490  0.0183  0.7706
  295MOL0     O39720  10.170   2.366   6.587 -0.0521 -0.1278  0.0182
  295MOL0     C39721  10.259   2.439   6.506 -0.5248 -0.0823 -0.9366
  295MOL0     C39722  10.369   2.508   6.558 -0.3783 -0.7433  0.2233
  295MOL0     C39723  10.454   2.595   6.484  0.0909 -0.5497  1.0013
  295MOL0     C39724  10.420   2.620   6.348 -0.3271  0.4579  0.7948
  295MOL0     O39725  10.502   2.704   6.275  0.0643  0.2130  0.5280
  295MOL0     C39726  10.478   2.721   6.132 -0.1274 -0.3627  0.0845
  295MOL0     C39727  10.594   2.794   6.067  0.4873  0.4304  0.2633
  295MOL0     C39728  10.710   2.690   6.069 -0.7867 -0.5352  0.1584
  295MOL0     C39729  10.823   2.751   5.996 -0.7423  0.0180  0.2494
  295MOL0     C39730  10.945   2.657   6.002  0.0476 -0.0439  1.7996
  295MOL0     C39731  11.064   2.715   5.930  0.5628  0.3296  0.1497
  295MOL0     C39732  11.194   2.643   5.976  0.4950 -0.3730  0.2261
  295MOL0     C39733  11.313   2.729   5.966 -0.1004  0.1565  0.3513
  295MOL0    Cl39734  11.449   2.616   6.002  0.2862  0.1037  0.6821
  295MOL0     C39735  10.306   2.544   6.294  0.4200  0.0617  0.1225
  295MOL0     C39736  10.229   2.460   6.372 -0.6366  0.1060 -0.2135
  295MOL0     O39737  10.091   2.565   6.643  0.1912  0.3163 -0.4088
  295MOL0     C39738  10.028   2.254   6.804  0.0546  0.1331  0.3438
  295MOL0     C39739   9.941   2.178   6.873 -0.4243 -0.2763  0.5630
  295MOL0     N39740   9.192   2.230   7.331 -0.1148 -0.4930 -0.1587
  295MOL0     N39741   9.072   2.249   7.370  0.3249  0.2452  0.0723
  295MOL0     C39742   8.024   2.294   7.877 -0.2948  0.0005  0.6556
  295MOL0     C39743   7.953   2.344   7.992 -0.7299  0.2774  0.3479
  295MOL0     C39744   7.596   2.418   8.280 -0.8092  0.0238 -0.5474
  295MOL0     C39745   7.586   2.367   8.412 -0.2295 -0.4163  0.5928
  295MOL0     C39746   7.505   2.425   8.512  0.4731 -0.2819 -0.1892
  295MOL0     C39747   7.422   2.529   8.475  0.5961 -0.0837 -0.3008
  295MOL0     O39748   7.353   2.591   8.574  0.5131 -0.1665 -0.5461
  295MOL0     C39749   7.229   2.512   8.602  0.4302 -0.4826 -0.0815
  295MOL0     C39750   7.110   2.609   8.623  0.1266  0.3282 -0.0718
  295MOL0     C39751   6.982   2.525   8.632 -0.9219 -0.7137  0.6962
  295MOL0     C39752   6.866   2.616   8.665 -0.0249  0.0457  0.3673
  295MOL0     C39753   6.737   2.550   8.646 -0.6192  0.2085 -0.1145
  295MOL0     C39754   6.627   2.505   8.630 -0.2353  1.0747 -0.6696
  295MOL0     C39755   7.422   2.566   8.339  0.0722 -1.2894 -0.0365
  295MOL0     C39756   7.508   2.517   8.248  0.2071  0.2087  0.8629
  295MOL0     C39757   7.500   2.576   8.106 -1.4038 -0.2068  0.0446
  295MOL0     H39758   7.651   2.349   7.853 -0.2974 -2.2492 -2.6475
  295MOL0     H39759   7.784   2.270   7.644  2.3603 -5.0669 -1.7493
  295MOL0     H39760   8.164   2.365   7.623  0.4647  0.1463  0.9762
  295MOL0     H39761   8.229   2.230   7.710  0.3662 -0.9423 -1.3921
  295MOL0     H39762   8.174   2.245   7.411  1.0863 -2.7972 -2.0211
  295MOL0     H39763   8.166   2.091   7.492 -0.5726  0.2227 -1.9418
  295MOL0     H39764   8.413   2.269   7.453 -0.8213  0.7192  0.1878
  295MOL0     H39765   8.397   2.116   7.390  0.0444  2.5647 -2.1203
  295MOL0     H39766   8.440   2.158   7.694  4.3937 -1.1355  0.6358
  295MOL0     H39767   8.425   1.999   7.607 -0.3606  0.0468  0.9592
  295MOL0     H39768   8.634   2.204   7.562 -1.3418  0.0310  0.8299
  295MOL0     H39769   8.653   2.061   7.669 -0.6906 -2.1720  0.1531
  295MOL0     H39770   8.633   1.902   7.495 -2.0299 -0.1512 -2.3492
  295MOL0     H39771   8.599   2.018   7.372  0.5721  0.0725 -0.7657
  295MOL0     H39772   8.836   1.923   7.407  0.0206 -0.0971  0.2935
  295MOL0     H39773   8.854   2.032   7.533  1.3414  0.0765 -0.7754
  295MOL0     H39774   8.799   2.118   7.241  1.3978  2.9378 -0.8944
  295MOL0     H39775   8.803   2.220   7.392  0.0961 -0.3430  1.7985
  295MOL0     H39776   9.033   1.953   7.227 -1.2821  1.2407 -4.2173
  295MOL0     H39777   9.390   2.037   7.310  0.5795  2.1883  0.1839
  295MOL0     H39778   9.309   1.954   7.169 -1.8950 -0.8813  0.6077
  295MOL0     H39779   9.338   2.182   7.059 -0.4837 -2.2302 -1.0049
  295MOL0     H39780   9.432   2.241   7.197 -0.7726  1.9113 -2.5929
  295MOL0     H39781   9.516   1.981   7.046  0.3135 -0.7773  1.7105
  295MOL0     H39782   9.600   2.070   7.177 -1.3441 -1.9627 -0.1454
  295MOL0     H39783   9.570   2.274   7.021  0.5475 -0.0400 -0.0264
  295MOL0     H39784   9.550   2.147   6.896  1.1664 -2.4334 -0.0387
  295MOL0     H39785   9.681   2.410   6.865 -0.7812 -0.5119 -0.1571
  295MOL0     H39786   9.857   2.538   6.731 -2.2487 -1.2056 -0.8971
  295MOL0     H39787  10.376   2.507   6.666  2.7809  3.7867  0.3057
  295MOL0     H39788  10.533   2.656   6.528  1.7103 -2.6304  1.1861
  295MOL0     H39789  10.471   2.624   6.082 -0.2292  0.9679 -2.6180
  295MOL0     H39790  10.383   2.772   6.117 -0.4202 -0.5044  1.3072
  295MOL0     H39791  10.563   2.807   5.963  4.0078  0.2148 -0.9340
  295MOL0     H39792  10.622   2.886   6.119  0.7509  0.5071 -0.0101
  295MOL0     H39793  10.729   2.644   6.167  0.0380 -2.7339 -0.9768
  295MOL0     H39794  10.683   2.599   6.015  0.8273 -0.9294 -0.0262
  295MOL0     H39795  10.850   2.846   6.044  3.0010 -0.3491 -0.8392
  295MOL0     H39796  10.803   2.779   5.892  2.5181 -1.4673 -0.9179
  295MOL0     H39797  10.924   2.559   5.957  1.3657  0.1848  0.6125
  295MOL0     H39798  10.975   2.641   6.106  0.1385 -1.5437  1.5694
  295MOL0     H39799  11.053   2.709   5.821  1.3686 -0.9335  0.1078
  295MOL0     H39800  11.084   2.818   5.960  0.5469  1.1510 -2.4296
  295MOL0     H39801  11.206   2.558   5.908  0.5157  0.8666 -1.3822
  295MOL0     H39802  11.203   2.610   6.080  0.4367 -1.3860 -0.0781
  295MOL0     H39803  11.316   2.760   5.861 -0.9752  2.1591  0.8713
  295MOL0     H39804  11.314   2.814   6.034 -2.4579  0.4428  0.1080
  295MOL0     H39805  10.279   2.554   6.189  0.3399 -2.3151 -0.1326
  295MOL0     H39806  10.157   2.411   6.307  2.7122 -0.2731 -4.0260
  295MOL0     H39807  10.127   2.213   6.788  1.2877  3.3746 -1.0406
  295MOL0     H39808   9.971   2.085   6.920 -0.8352 -1.5351 -1.5505
  295MOL0     H39809   8.130   2.271   7.886 -0.2459 -0.5026 -0.9012
  295MOL0     H39810   8.000   2.362   8.088  0.6365 -2.7502  0.3647
  295MOL0     H39811   7.654   2.295   8.457  0.8422  0.5326  0.5541
  295MOL0     H39812   7.510   2.398   8.617  0.7243 -0.3992 -0.2314
  295MOL0     H39813   7.245   2.445   8.687  1.2056 -1.5608 -1.0393
  295MOL0     H39814   7.205   2.446   8.518  1.7679  1.2798 -1.9530
  295MOL0     H39815   7.097   2.683   8.543  0.9583  1.6993  1.0147
  295MOL0     H39816   7.124   2.664   8.717  0.1487  1.7694 -0.8840
  295MOL0     H39817   6.990   2.466   8.723 -0.0204  0.2575  1.2762
  295MOL0     H39818   6.969   2.455   8.549 -0.7109  1.0010 -0.8643
  295MOL0     H39819   6.882   2.641   8.770  1.3226  2.8187 -0.3904
  295MOL0     H39820   6.870   2.707   8.604  2.3395 -1.1508 -1.4084
  295MOL0     H39821   6.536   2.453   8.606  0.1761  0.2038 -0.3679
  295MOL0     H39822   7.359   2.653   8.320 -0.4913 -1.3978  1.2145
  295MOL0     H39823   7.596   2.605   8.061 -3.1446  2.0645 -2.5677
  295MOL0     H39824   7.447   2.506   8.041 -2.7774  0.4636  0.3937
  295MOL0     H39825   7.444   2.670   8.112  1.8875  2.0370 -1.4713
  296MOL0     O39826   6.610   8.339   0.163  0.4256 -0.3340  0.0383
  296MOL0     C39827   6.588   8.385   0.270 -0.0753  1.1899  0.9812
  296MOL0     O39828   6.674   8.477   0.338  0.4725  0.7833 -0.1229
  296MOL0     C39829   6.811   8.489   0.328  0.7764  0.7249  0.0036
  296MOL0     C39830   6.888   8.610   0.359  0.2914 -0.0582  0.0422
  296MOL0     C39831   7.025   8.618   0.342  0.4742 -0.3479  0.0576
  296MOL0     C39832   7.094   8.505   0.302 -0.7370  0.4152 -0.1301
  296MOL0     O39833   7.236   8.494   0.280  0.4697 -0.1098  0.4137
  296MOL0     C39834   7.295   8.605   0.214 -0.3436  0.0603 -0.2272
  296MOL0     C39835   7.435   8.657   0.272  0.3062  0.8275  0.4729
  296MOL0     C39836   7.542   8.549   0.253  0.8792 -1.0393 -0.2844
  296MOL0     C39837   7.665   8.595   0.329 -0.1142 -0.4069  0.9688
  296MOL0     C39838   7.774   8.490   0.319 -0.0723  0.8149  0.2583
  296MOL0     C39839   7.891   8.504   0.421 -0.2271  0.2722 -0.0593
  296MOL0     C39840   8.014   8.421   0.389  0.6239 -0.1839 -0.3864
  296MOL0     C39841   8.115   8.435   0.496  0.1049  0.6835  0.3188
  296MOL0     N39842   8.247   8.388   0.446  0.4090  0.2585 -0.6485
  296MOL0     C39843   8.347   8.475   0.402 -0.6075  0.1173 -0.0116
  296MOL0     C39844   8.440   8.396   0.342  0.2551 -0.6047 -0.5251
  296MOL0     C39845   8.556   8.428   0.248  0.6260 -0.1711  0.0143
  296MOL0     C39846   8.663   8.510   0.325 -0.0448  0.7040 -0.6142
  296MOL0     C39847   8.799   8.519   0.248  0.7308  0.3586 -0.3231
  296MOL0     C39848   8.914   8.577   0.332 -0.1461 -0.0395 -0.2617
  296MOL0     O39849   8.879   8.699   0.397 -0.3116  0.5790  0.7640
  296MOL0     C39850   8.969   8.761   0.477  0.6813  0.5424 -0.0490
  296MOL0     C39851   9.102   8.725   0.489  0.3647 -0.2771  0.2362
  296MOL0     C39852   9.188   8.810   0.562 -0.3131  0.5811 -0.0540
  296MOL0     C39853   9.146   8.918   0.638  0.1272  0.9452  1.2125
  296MOL0     C39854   9.239   8.990   0.727  0.1347 -0.0970 -0.0450
  296MOL0     O39855   9.356   8.918   0.752  0.8197  0.0613 -0.2729
  296MOL0     C39856   9.461   8.961   0.829  0.5060  0.6787  0.5837
  296MOL0     C39857   9.583   8.892   0.818  0.8573 -0.3854  0.3115
  296MOL0     C39858   9.703   8.943   0.877  1.5192 -0.4688 -0.6105
  296MOL0     C39859   9.699   9.051   0.955 -0.1642  0.0699  0.1944
  296MOL0     O39860   9.818   9.097   1.010 -0.2336  0.2722  0.1421
  296MOL0     C39861   9.823   9.235   1.038 -0.2855 -0.9006  0.2417
  296MOL0     C39862   9.968   9.285   1.029  0.0674 -0.3733 -1.0229
  296MOL0     C39863  10.054   9.241   1.149  0.4714 -0.9864  0.3516
  296MOL0     C39864  10.110   9.104   1.142  0.5362 -0.8536 -0.0082
  296MOL0     C39865  10.199   9.081   1.265  0.1675  0.4369 -0.7908
  296MOL0     C39866  10.254   8.930   1.268 -0.3144  0.1568 -0.3843
  296MOL0     C39867  10.352   8.890   1.386  0.4709 -0.0145  0.0766
  296MOL0     C39868  10.449   8.774   1.343  0.2265 -0.1760 -0.1843
  296MOL0    Cl39869  10.435   8.638   1.452  0.2579  0.2852  0.3214
  296MOL0     C39870   9.582   9.125   0.970  0.1944  0.4775 -0.1527
  296MOL0     C39871   9.462   9.083   0.914  0.3699  0.0132  0.4237
  296MOL0     O39872   9.220   9.106   0.768  0.2397 -0.4731 -0.3731
  296MOL0     C39873   9.010   8.950   0.624  0.2363  0.4048 -0.6537
  296MOL0     C39874   8.921   8.872   0.548 -0.6184  0.3115  0.3376
  296MOL0     N39875   8.398   8.265   0.366  0.2660  0.0962  0.1995
  296MOL0     N39876   8.285   8.258   0.428 -0.3798 -0.8630  1.3062
  296MOL0     C39877   7.022   8.385   0.295 -0.0335  0.0584  1.7233
  296MOL0     C39878   6.883   8.376   0.303 -0.1610 -0.7738  0.5364
  296MOL0     C39879   6.454   8.347   0.331 -0.1420 -0.4684  0.5976
  296MOL0     C39880   6.372   8.458   0.365 -0.7565  0.2525 -0.3848
  296MOL0     C39881   6.251   8.430   0.419 -0.3621 -0.2263 -0.1610
  296MOL0     C39882   6.199   8.301   0.426 -0.1955 -0.5137 -0.5881
  296MOL0     O39883   6.061   8.271   0.452 -0.5276 -0.0830  0.0464
  296MOL0     C39884   5.973   8.382   0.486  0.0290  0.1373 -0.4156
  296MOL0     C39885   5.933   8.457   0.358 -0.4806 -0.0599 -0.3305
  296MOL0     C39886   5.801   8.537   0.362 -1.1994  0.3864 -0.0483
  296MOL0     C39887   5.806   8.649   0.466  0.2177  0.3572 -0.3321
  296MOL0     C39888   5.924   8.732   0.479 -0.2470 -0.5224  0.8954
  296MOL0     C39889   6.029   8.794   0.491  0.7001 -0.4825 -0.5631
  296MOL0     C39890   6.282   8.195   0.388  0.7682 -0.2118 -0.5132
  296MOL0     C39891   6.400   8.216   0.335 -0.7202  0.6776  0.8563
  296MOL0     C39892   6.497   8.093   0.316  0.3430 -0.1523  0.1745
  296MOL0     H39893   6.817   8.689   0.382 -0.1339  0.3937 -2.5148
  296MOL0     H39894   7.082   8.708   0.362 -0.6245  0.6731 -1.2067
  296MOL0     H39895   7.306   8.567   0.112  0.1381 -0.6241  0.0726
  296MOL0     H39896   7.233   8.695   0.212 -1.2646 -0.5093  0.9437
  296MOL0     H39897   7.426   8.667   0.380 -1.8567  0.3330  0.3737
  296MOL0     H39898   7.481   8.740   0.218  3.2908 -1.0767 -0.1871
  296MOL0     H39899   7.570   8.532   0.148  0.8620 -2.5737 -0.0715
  296MOL0     H39900   7.498   8.457   0.292 -0.5813  0.0213  0.6426
  296MOL0     H39901   7.710   8.680   0.277  2.3606 -1.0527  1.9113
  296MOL0     H39902   7.641   8.620   0.432 -0.7737  1.1177  0.4746
  296MOL0     H39903   7.724   8.396   0.346  1.9048 -0.1833  0.6555
  296MOL0     H39904   7.805   8.481   0.215 -1.1564 -1.2161  0.0577
  296MOL0     H39905   7.929   8.606   0.411  1.6808 -0.5362 -1.7916
  296MOL0     H39906   7.862   8.494   0.526 -5.5335  0.4681 -1.2057
  296MOL0     H39907   8.048   8.451   0.289  0.3734 -0.2694 -0.4987
  296MOL0     H39908   7.982   8.317   0.376 -0.5554  0.2530 -1.1265
  296MOL0     H39909   8.119   8.539   0.530  0.9100  0.1704  1.8802
  296MOL0     H39910   8.084   8.376   0.582  1.0143  1.2989  1.0882
  296MOL0     H39911   8.343   8.583   0.401 -1.1222  0.1016 -0.1358
  296MOL0     H39912   8.592   8.340   0.194  0.7720  0.8706 -1.6362
  296MOL0     H39913   8.522   8.488   0.164  1.7741 -0.2004 -0.4902
  296MOL0     H39914   8.636   8.615   0.344  2.2297  1.1578  0.5322
  296MOL0     H39915   8.675   8.462   0.423 -2.0332 -0.3769 -0.8609
  296MOL0     H39916   8.784   8.582   0.160  0.3177  1.3118  0.4151
  296MOL0     H39917   8.820   8.417   0.215 -1.3789 -1.1024  2.3875
  296MOL0     H39918   8.997   8.597   0.263 -0.5210 -0.7278 -0.9269
  296MOL0     H39919   8.950   8.500   0.401  1.7417  1.4305  0.5042
  296MOL0     H39920   9.152   8.644   0.438  1.3106  1.2617 -1.4037
  296MOL0     H39921   9.293   8.785   0.566  0.5653  3.4991 -1.6217
  296MOL0     H39922   9.591   8.800   0.761  3.7583 -1.4367  2.1841
  296MOL0     H39923   9.792   8.889   0.849  2.0434 -2.2770  3.7146
  296MOL0     H39924   9.763   9.295   0.968  2.2094  2.4377  0.7046
  296MOL0     H39925   9.781   9.238   1.139  0.9867 -0.5604  0.7708
  296MOL0     H39926  10.016   9.274   0.932  1.0488  1.9899 -0.8804
  296MOL0     H39927   9.968   9.394   1.038 -1.6990 -0.4655  0.6657
  296MOL0     H39928  10.140   9.308   1.155  1.2702 -1.8287 -1.2760
  296MOL0     H39929  10.005   9.255   1.246 -0.8038  1.0399 -0.4962
  296MOL0     H39930  10.159   9.088   1.045 -2.3218 -0.3196 -1.6552
  296MOL0     H39931  10.030   9.030   1.146 -0.2427 -0.0692 -0.7919
  296MOL0     H39932  10.146   9.106   1.358  1.2875  1.4238 -0.3897
  296MOL0     H39933  10.285   9.149   1.268  1.4127 -1.0605  2.7116
  296MOL0     H39934  10.164   8.868   1.278  0.8509 -1.9087 -1.9268
  296MOL0     H39935  10.297   8.900   1.172 -1.5343  0.6609 -1.1038
  296MOL0     H39936  10.295   8.860   1.474  1.8126 -0.1641  0.9361
  296MOL0     H39937  10.410   8.978   1.418  2.5300 -1.7014  1.2434
  296MOL0     H39938  10.426   8.737   1.243  0.3804  1.4832 -0.8800
  296MOL0     H39939  10.547   8.823   1.348 -1.4712  3.4507  2.2001
  296MOL0     H39940   9.569   9.211   1.035 -1.5968  0.6164 -0.6387
  296MOL0     H39941   9.370   9.136   0.933  0.1244 -0.0413 -0.5740
  296MOL0     H39942   8.967   9.029   0.685 -0.3381  0.1948 -0.7738
  296MOL0     H39943   8.816   8.900   0.546 -1.0113 -1.0492  1.1201
  296MOL0     H39944   7.073   8.291   0.278  0.5313  0.7662 -0.9768
  296MOL0     H39945   6.837   8.279   0.288 -2.1818  0.3277 -0.9981
  296MOL0     H39946   6.402   8.562   0.379  1.4456 -0.1695 -1.4671
  296MOL0     H39947   6.191   8.507   0.468 -1.5652 -0.9631 -0.4184
  296MOL0     H39948   6.017   8.448   0.561  0.6003 -2.9543  2.1865
  296MOL0     H39949   5.888   8.334   0.536  1.0729  0.4804  1.8047
  296MOL0     H39950   5.910   8.378   0.286 -3.4066 -1.1926  1.6304
  296MOL0     H39951   6.005   8.530   0.322 -1.4822  0.9974 -0.2553
  296MOL0     H39952   5.712   8.479   0.386 -1.0981  0.1445 -0.2465
  296MOL0     H39953   5.786   8.574   0.261  1.7946 -1.5262 -1.3311
  296MOL0     H39954   5.719   8.715   0.457  0.6264  1.0893  0.8866
  296MOL0     H39955   5.781   8.600   0.561 -0.3567 -0.8234 -1.0673
  296MOL0     H39956   6.116   8.853   0.513 -0.4199  1.3376 -0.7806
  296MOL0     H39957   6.241   8.095   0.382  0.2531 -0.0010 -0.5105
  296MOL0     H39958   6.462   8.025   0.238  3.4922  0.0477 -1.5686
  296MOL0     H39959   6.598   8.120   0.285  0.3636 -1.0950 -0.6510
  296MOL0     H39960   6.496   8.038   0.410 -1.1812 -3.9523 -1.8327
  297MOL0     O39961   7.512   7.403  10.479  0.0879 -0.0899 -0.0585
  297MOL0     C39962   7.490   7.518  10.533  0.6420  0.2664 -0.3801
  297MOL0     O39963   7.581   7.619  10.558 -0.0629  0.1862  0.7342
  297MOL0     C39964   7.718   7.616  10.540 -0.7369 -0.4609 -0.6270
  297MOL0     C39965   7.793   7.736  10.571 -0.1979 -0.6085  1.4923
  297MOL0     C39966   7.925   7.756  10.539 -0.3017  0.0238 -0.5065
  297MOL0     C39967   8.002   7.644  10.496  0.0975 -0.3203 -0.3656
  297MOL0     O39968   8.139   7.643  10.480  0.1638 -0.2395 -0.1980
  297MOL0     C39969   8.206   7.665  10.609  1.2788  0.6286 -0.1090
  297MOL0     C39970   8.346   7.599  10.616  0.2499  0.0986  0.4590
  297MOL0     C39971   8.432   7.695  10.530  0.2210  0.8965 -1.0748
  297MOL0     C39972   8.576   7.661  10.561 -0.2175 -0.1209  0.1537
  297MOL0     C39973   8.653   7.761  10.466 -0.5577  0.3939  0.2510
  297MOL0     C39974   8.800   7.749  10.515  0.8302  0.7306 -0.1262
  297MOL0     C39975   8.889   7.851  10.453 -0.4119  0.0543 -0.0642
  297MOL0     C39976   9.020   7.866  10.524 -0.6516 -0.0999  0.1477
  297MOL0     N39977   9.094   7.989  10.478 -0.3655 -0.5606 -0.1134
  297MOL0     C39978   9.182   8.065  10.562  0.7740  0.4456 -0.1669
  297MOL0     C39979   9.209   8.168  10.477 -1.3542  0.8586  1.2037
  297MOL0     C39980   9.299   8.282  10.495  0.1542 -0.7482 -0.3150
  297MOL0     C39981   9.396   8.302  10.379  0.1413 -0.4584 -0.0692
  297MOL0     C39982   9.491   8.411  10.411 -1.1206  1.2792  0.0077
  297MOL0     C39983   9.564   8.462  10.281  0.0339 -0.4687 -0.5311
  297MOL0     O39984   9.626   8.587  10.316 -0.2417 -0.5331 -0.7839
  297MOL0     C39985   9.749   8.584  10.381  0.3558  0.8411  0.6884
  297MOL0     C39986   9.776   8.681  10.474  0.3734  0.1252  0.1622
  297MOL0     C39987   9.901   8.697  10.535  1.3473  0.1804 -0.2900
  297MOL0     C39988   9.995   8.603  10.511  1.0107 -0.4852 -0.7229
  297MOL0     C39989  10.133   8.621  10.549  0.1678  0.5093 -0.6075
  297MOL0     O39990  10.161   8.728  10.622  0.0366  0.6611 -0.9555
  297MOL0     C39991  10.288   8.766  10.637  0.5595  0.1337  0.0937
  297MOL0     C39992  10.342   8.775  10.769 -0.0682 -0.3537 -0.3307
  297MOL0     C39993  10.466   8.834  10.794 -0.9732  0.6238  0.0098
  297MOL0     C39994  10.550   8.878  10.692 -1.2815 -0.0680  0.2324
  297MOL0     O39995  10.680   8.922  10.729  0.1409  0.4174  0.5994
  297MOL0     C39996  10.686   9.033  10.823 -0.1399  0.3938 -0.2963
  297MOL0     C39997  10.834   9.066  10.843 -0.0069  0.2623  0.0111
  297MOL0     C39998  10.884   9.105  10.700 -0.3600 -0.1276  0.4327
  297MOL0     C39999  11.011   9.188  10.701 -0.2562 -0.3520  0.1495
  297MOL0     C40000  11.081   9.184  10.559 -0.7728 -0.8604 -0.5668
  297MOL0     C40001  11.172   9.305  10.546  0.2384  0.5948  0.2253
  297MOL0     C40002  11.208   9.331  10.405 -0.2964 -0.0863 -0.1509
  297MOL0     C40003  11.281   9.223  10.328 -0.0279  0.3707 -0.0999
  297MOL0    Cl40004  11.465   9.225  10.375  0.6165 -0.1101  0.2085
  297MOL0     C40005  10.494   8.879  10.559  0.3432 -1.0987 -0.2405
  297MOL0     C40006  10.366   8.824  10.536 -0.7920  0.3819  0.0941
  297MOL0     O40007  10.220   8.542  10.504  0.4159 -0.1825 -0.3387
  297MOL0     C40008   9.959   8.493  10.422 -0.6258 -0.3375 -0.3746
  297MOL0     C40009   9.844   8.490  10.361  0.4789  0.4400 -0.4886
  297MOL0     N40010   9.129   8.166  10.361  0.0623  0.2647 -0.4079
  297MOL0     N40011   9.066   8.056  10.367  0.7424  0.4984 -0.1920
  297MOL0     C40012   7.936   7.520  10.477 -0.4050  0.7958  0.1948
  297MOL0     C40013   7.794   7.506  10.492 -0.3191  0.3602  0.5180
  297MOL0     C40014   7.354   7.530  10.599 -0.0516 -0.0120  0.0579
  297MOL0     C40015   7.279   7.420  10.627  0.4925  0.6009 -0.6013
  297MOL0     C40016   7.153   7.416  10.680  0.0634  0.7659 -0.4457
  297MOL0     C40017   7.090   7.540  10.712  0.2862 -0.6480  0.2259
  297MOL0     O40018   6.956   7.555  10.756 -0.1281  0.0050  0.1237
  297MOL0     C40019   6.864   7.617  10.664 -1.0411 -0.3062 -0.3005
  297MOL0     C40020   6.797   7.725  10.746  0.1339 -0.3728 -0.5321
  297MOL0     C40021   6.681   7.792  10.673 -0.1913  0.1716 -0.3564
  297MOL0     C40022   6.639   7.923  10.740  0.2001 -0.4533 -0.2669
  297MOL0     C40023   6.581   7.907  10.868  0.0269  0.6629  0.0944
  297MOL0     C40024   6.542   7.916  10.978  0.2423 -0.2167 -0.0772
  297MOL0     C40025   7.168   7.660  10.692  0.1125  0.2159  0.3751
  297MOL0     C40026   7.301   7.658  10.640 -0.9990  0.1266  0.8795
  297MOL0     C40027   7.371   7.797  10.627  0.4493  0.1539  0.1775
  297MOL0     H40028   7.745   7.821  10.618 -0.6360 -2.0901  3.8777
  297MOL0     H40029   7.975   7.850  10.559 -1.6583  0.5707  0.4700
  297MOL0     H40030   8.218   7.772  10.628  0.7832  0.8014 -0.7324
  297MOL0     H40031   8.146   7.619  10.688 -0.0434 -3.1567 -3.0209
  297MOL0     H40032   8.346   7.497  10.576  0.5936  0.4669 -0.5216
  297MOL0     H40033   8.373   7.595  10.722  0.7082  0.2798  0.3527
  297MOL0     H40034   8.412   7.797  10.565 -0.3561  0.2335  0.5958
  297MOL0     H40035   8.416   7.681  10.422  0.2272 -1.3770 -0.8317
  297MOL0     H40036   8.597   7.684  10.665 -1.5974  1.6569  0.0919
  297MOL0     H40037   8.596   7.556  10.540  1.3454  0.4335 -1.4626
  297MOL0     H40038   8.634   7.732  10.362 -1.8768  2.8058 -0.2450
  297MOL0     H40039   8.618   7.864  10.475 -0.5652  0.8042 -3.2317
  297MOL0     H40040   8.793   7.776  10.621  0.0938  2.0260 -0.4772
  297MOL0     H40041   8.835   7.647  10.495 -0.7668  0.0988  0.1143
  297MOL0     H40042   8.840   7.949  10.458 -1.2517 -0.4219  2.0613
  297MOL0     H40043   8.914   7.829  10.349  1.5313  0.5293  0.2608
  297MOL0     H40044   9.009   7.877  10.633  2.4386 -0.2423  0.5499
  297MOL0     H40045   9.080   7.776  10.509  0.2068  0.4091  0.4345
  297MOL0     H40046   9.229   8.044  10.658  0.9760 -0.2394 -0.4165
  297MOL0     H40047   9.239   8.373  10.505 -0.5350 -1.4048  1.9101
  297MOL0     H40048   9.356   8.275  10.588  0.8984  0.8740 -0.6178
  297MOL0     H40049   9.463   8.217  10.361  5.1167  2.6948  1.4476
  297MOL0     H40050   9.342   8.310  10.284  0.3665 -1.4678 -0.3037
  297MOL0     H40051   9.564   8.376  10.485  1.1700 -0.6065 -2.8927
  297MOL0     H40052   9.429   8.488  10.457 -2.2399 -0.3827  1.4080
  297MOL0     H40053   9.476   8.479  10.218 -0.3492  0.7352  0.2909
  297MOL0     H40054   9.626   8.389  10.229 -0.3895 -0.7176 -0.6969
  297MOL0     H40055   9.701   8.755  10.499  0.2924 -0.3562  1.4084
  297MOL0     H40056   9.918   8.786  10.593  4.2593  0.1337 -0.9615
  297MOL0     H40057  10.276   8.754  10.852 -2.9751  2.5100 -1.7113
  297MOL0     H40058  10.503   8.833  10.896  3.5801 -1.3836 -1.4321
  297MOL0     H40059  10.634   9.121  10.784 -2.6474 -0.7969  0.1621
  297MOL0     H40060  10.641   9.008  10.919  0.0658 -1.6361 -0.6760
  297MOL0     H40061  10.834   9.159  10.900 -0.8338 -0.6513  1.5694
  297MOL0     H40062  10.895   8.987  10.888 -0.2986  0.2273  0.3515
  297MOL0     H40063  10.924   9.010  10.664  0.0217 -0.1207  0.8297
  297MOL0     H40064  10.810   9.153  10.635  1.9540 -1.0441 -3.1788
  297MOL0     H40065  11.091   9.166  10.772  2.0083 -0.3751 -2.2399
  297MOL0     H40066  10.983   9.292  10.717  0.9901  0.4946 -2.5798
  297MOL0     H40067  10.996   9.190  10.492 -0.8235  0.4419 -0.4128
  297MOL0     H40068  11.131   9.088  10.539  0.5062  0.1881 -2.7170
  297MOL0     H40069  11.134   9.396  10.593  1.7956  1.6154 -0.4318
  297MOL0     H40070  11.268   9.295  10.597  0.5926  3.4017  0.2824
  297MOL0     H40071  11.273   9.420  10.399  0.9682 -0.9966 -0.2895
  297MOL0     H40072  11.110   9.331  10.357 -0.2854  1.1808 -0.2313
  297MOL0     H40073  11.241   9.125  10.356  2.4958 -0.7284 -0.0255
  297MOL0     H40074  11.258   9.231  10.221 -0.1089 -1.6541 -0.2831
  297MOL0     H40075  10.561   8.927  10.488  0.5021 -0.4820  0.3129
  297MOL0     H40076  10.335   8.827  10.432  1.1967  1.9181 -0.5255
  297MOL0     H40077  10.030   8.417  10.391 -0.9185 -2.3281  3.3292
  297MOL0     H40078   9.839   8.417  10.281 -0.0089 -0.6656  0.5213
  297MOL0     H40079   7.997   7.440  10.437 -3.7177 -0.8948 -1.9235
  297MOL0     H40080   7.743   7.414  10.466  2.5863 -1.5674  1.2111
  297MOL0     H40081   7.310   7.318  10.608 -1.2328  0.1186 -1.0285
  297MOL0     H40082   7.090   7.329  10.694  1.6120 -0.3539 -0.1861
  297MOL0     H40083   6.789   7.549  10.621 -1.1940  1.5247 -3.1432
  297MOL0     H40084   6.917   7.670  10.585 -0.0061  0.5582  0.9303
  297MOL0     H40085   6.860   7.806  10.784 -1.2970  1.9068 -2.7412
  297MOL0     H40086   6.760   7.680  10.839 -0.6155  3.3550  1.1529
  297MOL0     H40087   6.597   7.722  10.678 -1.3144  1.4541 -0.7073
  297MOL0     H40088   6.710   7.808  10.569 -0.0855  2.0509 -0.0629
  297MOL0     H40089   6.722   7.992  10.750 -0.4400  0.2631  0.2087
  297MOL0     H40090   6.563   7.963  10.672  1.0151 -0.0057 -0.9368
  297MOL0     H40091   6.498   7.924  11.076  0.9549 -1.3101  0.3582
  297MOL0     H40092   7.113   7.749  10.718  0.5577 -0.2922  3.3387
  297MOL0     H40093   7.404   7.822  10.526 -1.0463  0.0945 -0.3489
  297MOL0     H40094   7.301   7.873  10.663  3.2411  1.7405  2.6941
  297MOL0     H40095   7.453   7.794  10.699  0.8906 -1.5066 -0.3388
  298MOL0     O40096   9.566   1.670   3.576  1.0835 -0.8822 -0.1259
  298MOL0     C40097   9.585   1.591   3.663  0.7039 -0.2229 -0.3290
  298MOL0     O40098   9.705   1.513   3.666 -0.4404 -0.6194 -0.5532
  298MOL0     C40099   9.810   1.549   3.593 -0.0635  0.1652  0.5448
  298MOL0     C40100   9.863   1.677   3.580  0.0790  0.1230 -0.1645
  298MOL0     C40101   9.989   1.703   3.517  0.5766 -0.8857  0.9560
  298MOL0     C40102  10.058   1.590   3.467  0.5998 -1.1089  0.4442
  298MOL0     O40103  10.190   1.626   3.421 -0.1445 -0.4645 -1.2908
  298MOL0     C40104  10.295   1.530   3.405  0.2378  0.4387 -0.1820
  298MOL0     C40105  10.428   1.575   3.352  0.2614 -0.5595  0.1042
  298MOL0     C40106  10.505   1.673   3.444 -0.1634 -0.5112 -0.0171
  298MOL0     C40107  10.594   1.755   3.347  0.4937  0.0351  0.6946
  298MOL0     C40108  10.659   1.877   3.423 -0.3030  0.6101 -0.0890
  298MOL0     C40109  10.785   1.850   3.506 -0.6796 -0.2873 -0.1358
  298MOL0     C40110  10.863   1.983   3.517  0.4348  0.4388  0.1730
  298MOL0     C40111  11.010   1.961   3.581  0.4564 -1.1488  1.4570
  298MOL0     N40112  11.108   1.873   3.503  0.8625 -0.0491 -0.3773
  298MOL0     C40113  11.215   1.803   3.548 -0.7349  0.0367 -0.6672
  298MOL0     C40114  11.280   1.754   3.434 -0.8419  0.8505  1.4067
  298MOL0     C40115  11.400   1.663   3.450  0.3433  0.6624 -0.7617
  298MOL0     C40116  11.519   1.715   3.379  0.2614  0.3101  0.0687
  298MOL0     C40117  11.582   1.826   3.454  0.7523  0.1147  0.3697
  298MOL0     C40118  11.700   1.874   3.363  0.1913  0.4227 -0.3737
  298MOL0     O40119  11.810   1.773   3.369  0.4597 -0.2247 -0.4888
  298MOL0     C40120  11.942   1.809   3.367 -0.0212 -1.2448  0.4368
  298MOL0     C40121  12.019   1.701   3.346  0.7813 -0.6882  0.1926
  298MOL0     C40122  12.158   1.716   3.338 -0.2434 -0.2983 -0.8182
  298MOL0     C40123  12.225   1.843   3.336  0.2876 -0.3003  0.3095
  298MOL0     C40124  12.366   1.852   3.314 -0.2910  0.7697  0.1739
  298MOL0     O40125  12.414   1.980   3.307 -0.1608  0.9874  0.0171
  298MOL0     C40126  12.539   1.992   3.269 -0.0105 -0.2352 -0.0431
  298MOL0     C40127  12.625   2.064   3.354 -0.5493 -0.3084  0.1769
  298MOL0     C40128  12.755   2.099   3.313  0.5175  0.2067 -0.4476
  298MOL0     C40129  12.803   2.054   3.179  0.3448 -0.0838  0.3057
  298MOL0     O40130  12.933   2.094   3.147 -0.1226  0.1196 -0.2784
  298MOL0     C40131  13.001   2.055   3.036  1.3691  0.2147 -0.4731
  298MOL0     C40132  13.125   2.139   3.038 -0.8286 -0.3353  1.0276
  298MOL0     C40133  13.228   2.086   2.932 -0.0800  0.0551 -0.7626
  298MOL0     C40134  13.369   2.150   2.946  0.0653 -1.0659  0.2371
  298MOL0     C40135  13.483   2.085   2.857 -0.4912 -0.4318  0.3690
  298MOL0     C40136  13.602   2.162   2.902  0.0051 -0.3760 -0.0374
  298MOL0     C40137  13.740   2.123   2.831  0.6352  0.1582 -0.5245
  298MOL0     C40138  13.855   2.215   2.876  0.2478  0.3221 -0.4685
  298MOL0    Cl40139  14.005   2.131   2.838  0.1468 -0.0953  0.0822
  298MOL0     C40140  12.722   1.965   3.101  1.0557 -0.4240  0.8733
  298MOL0     C40141  12.583   1.951   3.143 -1.2246  0.1382 -0.1737
  298MOL0     O40142  12.430   1.747   3.318 -0.8859 -0.0258  0.6113
  298MOL0     C40143  12.138   1.958   3.347 -0.3658  0.2304  0.6755
  298MOL0     C40144  12.000   1.941   3.362 -0.2172  0.2980 -0.1148
  298MOL0     N40145  11.210   1.798   3.323  0.4214 -0.0079 -0.7731
  298MOL0     N40146  11.108   1.873   3.366 -0.0612 -0.2401  0.1992
  298MOL0     C40147  10.011   1.463   3.484 -0.2806 -0.2119 -0.3856
  298MOL0     C40148   9.889   1.449   3.543 -0.3061  0.0158  0.7824
  298MOL0     C40149   9.478   1.555   3.758  0.5914  0.1842 -0.0127
  298MOL0     C40150   9.502   1.461   3.861  0.1490  0.6844 -0.0051
  298MOL0     C40151   9.415   1.424   3.957 -0.3552 -0.6776  0.5488
  298MOL0     C40152   9.283   1.479   3.958 -1.5571 -0.4055  0.4067
  298MOL0     O40153   9.194   1.429   4.040 -0.0649 -1.0949 -0.4414
  298MOL0     C40154   9.092   1.515   4.093  0.1800 -0.4316  0.8735
  298MOL0     C40155   8.980   1.422   4.149  0.4660 -0.2014 -0.2888
  298MOL0     C40156   9.024   1.322   4.254 -0.0787 -0.2222 -0.0235
  298MOL0     C40157   8.960   1.352   4.390  0.7526 -0.1566 -0.4527
  298MOL0     C40158   8.817   1.346   4.385  0.4784 -0.7356  0.7632
  298MOL0     C40159   8.690   1.335   4.384 -0.1125 -1.0410  0.5825
  298MOL0     C40160   9.260   1.572   3.861 -0.0113 -0.1689  0.1016
  298MOL0     C40161   9.350   1.617   3.761  0.1416  0.2977 -0.3774
  298MOL0     C40162   9.306   1.725   3.656 -0.8139 -0.2454 -1.2623
  298MOL0     H40163   9.802   1.756   3.622 -0.9383 -1.0818  0.7049
  298MOL0     H40164  10.039   1.798   3.501  0.9218 -0.8043  2.3856
  298MOL0     H40165  10.312   1.482   3.502 -0.0426  0.1617 -0.2712
  298MOL0     H40166  10.255   1.454   3.337 -1.1135 -1.0577  2.1483
  298MOL0     H40167  10.397   1.614   3.255 -0.6993 -2.5017 -0.4228
  298MOL0     H40168  10.484   1.481   3.338  2.9122  1.0132 -0.6451
  298MOL0     H40169  10.564   1.620   3.519 -0.0432 -1.2480 -0.6114
  298MOL0     H40170  10.430   1.739   3.489 -0.1300 -0.7166  0.3406
  298MOL0     H40171  10.671   1.692   3.302  0.9876  1.0091  0.1452
  298MOL0     H40172  10.529   1.787   3.265 -1.7274 -2.4553  1.3420
  298MOL0     H40173  10.694   1.947   3.346  1.9110  0.2169  0.4915
  298MOL0     H40174  10.587   1.927   3.488 -1.3369  1.5493 -1.8777
  298MOL0     H40175  10.761   1.806   3.604 -0.6031 -1.1613 -0.5011
  298MOL0     H40176  10.843   1.774   3.453 -1.2287 -1.6377  1.1095
  298MOL0     H40177  10.798   2.037   3.585  0.3041 -1.5579  1.7176
  298MOL0     H40178  10.877   2.034   3.421  2.6454 -0.5202 -0.0790
  298MOL0     H40179  11.056   2.060   3.586 -0.1208 -0.6171 -1.5448
  298MOL0     H40180  10.980   1.906   3.671 -0.7833 -2.7645  0.1090
  298MOL0     H40181  11.243   1.776   3.649  0.4098 -0.9691 -1.2330
  298MOL0     H40182  11.421   1.654   3.557 -2.3248 -1.9420 -0.3090
  298MOL0     H40183  11.368   1.565   3.412  0.7197  1.4508 -3.2462
  298MOL0     H40184  11.598   1.641   3.365 -0.0511  0.4313 -2.8120
  298MOL0     H40185  11.485   1.739   3.278  0.2110 -1.9850 -0.5336
  298MOL0     H40186  11.615   1.796   3.553 -0.7809  0.2296  0.9414
  298MOL0     H40187  11.505   1.903   3.466  1.6684  1.0267  0.5656
  298MOL0     H40188  11.725   1.973   3.399 -0.9934  1.0385 -1.1516
  298MOL0     H40189  11.659   1.890   3.262 -2.6250 -2.3679  0.1506
  298MOL0     H40190  11.961   1.612   3.324 -0.9745 -0.4599  3.2913
  298MOL0     H40191  12.223   1.629   3.341  3.1487  1.9553  3.5913
  298MOL0     H40192  12.585   2.094   3.450  1.0523 -1.3544  1.2304
  298MOL0     H40193  12.816   2.165   3.374  1.6330 -1.3377  0.1772
  298MOL0     H40194  13.030   1.950   3.047  1.0880  0.0434 -1.3070
  298MOL0     H40195  12.931   2.085   2.958 -3.6954  0.2672  3.5557
  298MOL0     H40196  13.101   2.240   3.001 -1.7081 -1.3321 -1.3532
  298MOL0     H40197  13.167   2.130   3.138 -1.1130 -0.0420  1.1749
  298MOL0     H40198  13.235   1.980   2.956 -4.3125 -0.3499 -0.5866
  298MOL0     H40199  13.183   2.101   2.834  0.9653  0.9156 -1.1329
  298MOL0     H40200  13.396   2.158   3.052 -2.1608  2.8313  0.6900
  298MOL0     H40201  13.357   2.258   2.933  1.7258 -1.0225 -1.3671
  298MOL0     H40202  13.457   2.125   2.759 -2.9149  2.8956  2.1662
  298MOL0     H40203  13.494   1.977   2.863 -0.7738 -0.6621 -2.1257
  298MOL0     H40204  13.576   2.266   2.883  2.2672 -0.2181 -2.9726
  298MOL0     H40205  13.610   2.136   3.008  0.9425  1.8988  0.5006
  298MOL0     H40206  13.739   2.125   2.722  1.5769  2.7871 -0.5691
  298MOL0     H40207  13.769   2.021   2.857  0.7322  0.1518 -0.6525
  298MOL0     H40208  13.845   2.317   2.838  2.1774  1.1543  1.1149
  298MOL0     H40209  13.863   2.220   2.985  3.9716  0.1327 -0.5976
  298MOL0     H40210  12.762   1.925   3.008 -0.9593 -1.5291  0.4216
  298MOL0     H40211  12.526   1.891   3.074 -3.4694  1.9233  0.0134
  298MOL0     H40212  12.173   2.061   3.346 -0.8310  0.3873  0.2249
  298MOL0     H40213  11.947   2.033   3.384 -1.6274 -0.8678  1.7339
  298MOL0     H40214  10.066   1.376   3.446  0.4600 -0.6846  1.6658
  298MOL0     H40215   9.872   1.343   3.560  3.5330 -1.8963 -4.5960
  298MOL0     H40216   9.602   1.422   3.869  0.2831  1.0698  0.2103
  298MOL0     H40217   9.452   1.364   4.039 -0.6618 -2.4304 -0.5315
  298MOL0     H40218   9.062   1.596   4.025  2.2947 -0.0028  0.3883
  298MOL0     H40219   9.128   1.567   4.183  0.1762  0.6898  0.2439
  298MOL0     H40220   8.933   1.366   4.068  0.5901 -1.2440  0.3406
  298MOL0     H40221   8.899   1.483   4.188  2.4201  1.3934  1.5125
  298MOL0     H40222   9.133   1.322   4.264 -0.0580 -0.8565 -0.2192
  298MOL0     H40223   8.997   1.222   4.218  3.2604 -1.2441  0.0003
  298MOL0     H40224   8.989   1.275   4.462 -0.2937  0.6266  0.8734
  298MOL0     H40225   8.993   1.444   4.440  0.0237 -0.1968  0.1377
  298MOL0     H40226   8.583   1.335   4.385 -0.1531  0.4512 -0.5801
  298MOL0     H40227   9.169   1.631   3.869  0.3496  0.2960  0.8074
  298MOL0     H40228   9.203   1.738   3.690 -0.5692 -1.5469  0.0868
  298MOL0     H40229   9.359   1.820   3.669 -1.8413 -0.0599  4.8742
  298MOL0     H40230   9.300   1.688   3.554 -0.0872 -0.2339 -1.3121
  299MOL0     O40231   6.117   6.166   1.510 -0.4290 -0.2104 -0.3267
  299MOL0     C40232   6.129   6.057   1.456 -0.0925  0.0911 -0.5189
  299MOL0     O40233   6.244   5.991   1.432 -0.0099  0.2513 -0.0554
  299MOL0     C40234   6.361   6.055   1.474 -1.2289  0.5730 -0.1522
  299MOL0     C40235   6.465   6.088   1.380 -0.6873  0.8740  0.0103
  299MOL0     C40236   6.578   6.152   1.418 -0.1770  0.1579  0.9356
  299MOL0     C40237   6.597   6.185   1.553 -0.7485 -0.6314 -0.4681
  299MOL0     O40238   6.708   6.263   1.591  0.4523  0.2146 -0.1393
  299MOL0     C40239   6.837   6.224   1.533  1.0581  0.6634 -0.0966
  299MOL0     C40240   6.955   6.299   1.604  0.3481  0.2924  0.5358
  299MOL0     C40241   7.086   6.239   1.562 -0.5793 -0.1433  0.1258
  299MOL0     C40242   7.203   6.287   1.645 -0.3182 -0.3890  0.5030
  299MOL0     C40243   7.330   6.255   1.574 -0.2547 -0.3775 -0.2612
  299MOL0     C40244   7.449   6.266   1.668  0.9833  0.4390 -0.3258
  299MOL0     C40245   7.552   6.167   1.625 -0.5589  0.8832  0.4366
  299MOL0     C40246   7.684   6.189   1.702  0.6737 -0.4555 -0.0060
  299MOL0     N40247   7.793   6.129   1.637  0.2772 -0.5328  0.6452
  299MOL0     C40248   7.796   5.997   1.594  0.7636  0.4875  0.4025
  299MOL0     C40249   7.897   5.995   1.510 -0.4831  0.3496 -0.2020
  299MOL0     C40250   7.956   5.860   1.456 -0.1128  0.8344 -0.6186
  299MOL0     C40251   8.107   5.853   1.471 -0.4349  0.1925 -0.3659
  299MOL0     C40252   8.162   5.895   1.610 -0.6051  0.0630 -0.3933
  299MOL0     C40253   8.258   5.792   1.679  0.2762  0.0012  0.4124
  299MOL0     O40254   8.294   5.819   1.815 -0.4548 -0.2464 -0.7926
  299MOL0     C40255   8.413   5.775   1.870 -0.4208 -0.3394  0.5018
  299MOL0     C40256   8.520   5.734   1.793  0.8476  0.0400 -0.4893
  299MOL0     C40257   8.639   5.699   1.848  0.9298  0.7361 -0.4339
  299MOL0     C40258   8.657   5.686   1.984 -0.4131 -0.9125 -0.4450
  299MOL0     C40259   8.780   5.628   2.045 -0.7032 -0.1472  0.4379
  299MOL0     O40260   8.815   5.659   2.173 -0.0722 -0.9099 -0.0215
  299MOL0     C40261   8.935   5.600   2.198 -0.0927 -0.0219  0.3580
  299MOL0     C40262   9.056   5.667   2.179  0.1883 -0.9967  0.0015
  299MOL0     C40263   9.175   5.608   2.206 -0.0429 -0.4747  0.2309
  299MOL0     C40264   9.185   5.476   2.253 -0.2278  1.3109  0.7816
  299MOL0     O40265   9.294   5.393   2.274  0.2643 -0.8596  0.3541
  299MOL0     C40266   9.428   5.448   2.297 -0.4175 -0.5574 -0.1339
  299MOL0     C40267   9.541   5.342   2.282 -0.2682 -0.4628  0.8123
  299MOL0     C40268   9.560   5.248   2.407 -0.1158 -0.1025 -0.0949
  299MOL0     C40269   9.703   5.222   2.451  0.9866  0.2250  0.3651
  299MOL0     C40270   9.739   5.351   2.536 -0.4789 -0.4100  0.2223
  299MOL0     C40271   9.890   5.364   2.573  0.7013 -0.1617 -0.3845
  299MOL0     C40272   9.975   5.390   2.447 -0.2246 -0.1016 -0.0047
  299MOL0     C40273  10.126   5.359   2.471  0.5284  0.0841 -0.9164
  299MOL0    Cl40274  10.190   5.436   2.620  0.2711 -0.4704  0.0120
  299MOL0     C40275   9.060   5.411   2.271  0.4358 -0.3715  0.3330
  299MOL0     C40276   8.941   5.471   2.247 -0.0476 -0.6267  0.3055
  299MOL0     O40277   8.850   5.567   1.964  0.1292 -0.2891  0.4244
  299MOL0     C40278   8.558   5.728   2.074 -0.1681 -0.0000  0.1685
  299MOL0     C40279   8.436   5.784   2.009  0.6615  0.0750 -0.8317
  299MOL0     N40280   7.952   6.124   1.491  0.7806  0.2482  0.7987
  299MOL0     N40281   7.897   6.194   1.576  1.0749  0.7250  0.7658
  299MOL0     C40282   6.510   6.150   1.647 -0.1965 -0.4577  0.4157
  299MOL0     C40283   6.386   6.091   1.612  0.1148  1.3463 -0.4893
  299MOL0     C40284   5.999   5.989   1.449  0.7689  0.2804 -0.0572
  299MOL0     C40285   5.916   5.969   1.559  0.5420 -0.7888 -0.2635
  299MOL0     C40286   5.811   5.883   1.564 -0.3866  0.3112  0.0073
  299MOL0     C40287   5.776   5.804   1.459  0.1040  0.0449 -0.6972
  299MOL0     O40288   5.672   5.721   1.487 -0.2864 -0.3755 -0.9088
  299MOL0     C40289   5.623   5.632   1.374 -0.0436 -0.2962  0.3063
  299MOL0     C40290   5.503   5.552   1.417 -0.3860 -0.1949  0.7892
  299MOL0     C40291   5.398   5.638   1.483 -0.3534  0.3296  1.0633
  299MOL0     C40292   5.270   5.572   1.535  0.3181 -0.1646  0.1181
  299MOL0     C40293   5.183   5.531   1.422  1.0454  0.1758  0.2206
  299MOL0     C40294   5.127   5.506   1.319  0.1291 -0.0209 -0.8143
  299MOL0     C40295   5.853   5.827   1.335  0.8929  0.0633 -0.7943
  299MOL0     C40296   5.959   5.919   1.330 -0.8459  0.4468 -0.1392
  299MOL0     C40297   6.033   5.922   1.205  0.0041 -0.5925 -0.7275
  299MOL0     H40298   6.449   6.057   1.277  0.7026  1.1978 -0.3246
  299MOL0     H40299   6.653   6.167   1.341  0.0829 -0.3912  1.0783
  299MOL0     H40300   6.850   6.120   1.564  0.4009  0.8766  0.9485
  299MOL0     H40301   6.840   6.234   1.424 -4.6601  0.1777 -0.6314
  299MOL0     H40302   6.944   6.296   1.713  1.8125 -0.0478  0.6841
  299MOL0     H40303   6.940   6.400   1.564  1.2810  0.0767 -0.4079
  299MOL0     H40304   7.109   6.262   1.458 -1.1357 -2.2872 -0.5258
  299MOL0     H40305   7.090   6.130   1.551  5.2148 -0.0489 -1.4298
  299MOL0     H40306   7.189   6.395   1.646  0.7109 -0.2435  1.9162
  299MOL0     H40307   7.202   6.248   1.747 -0.5678 -3.8696 -0.7004
  299MOL0     H40308   7.319   6.151   1.543  1.0629 -0.1080 -1.7867
  299MOL0     H40309   7.343   6.299   1.475 -0.7861 -1.9708 -1.0768
  299MOL0     H40310   7.463   6.375   1.662 -4.6941  1.4194 -1.7692
  299MOL0     H40311   7.422   6.241   1.771 -1.8848  0.2796 -1.0269
  299MOL0     H40312   7.570   6.179   1.517 -1.8487 -2.3414 -0.2489
  299MOL0     H40313   7.510   6.066   1.632 -0.3630  0.5039 -2.4831
  299MOL0     H40314   7.705   6.295   1.720 -1.0302 -0.0924 -0.0128
  299MOL0     H40315   7.684   6.140   1.800 -1.1161 -1.1476 -0.3073
  299MOL0     H40316   7.738   5.911   1.625 -2.0130  1.3549 -1.9218
  299MOL0     H40317   7.918   5.774   1.512  1.1183  1.5031  1.3889
  299MOL0     H40318   7.928   5.845   1.352 -1.4214  0.1982 -0.1986
  299MOL0     H40319   8.131   5.750   1.445  3.8826  1.4287 -2.1997
  299MOL0     H40320   8.153   5.924   1.402 -2.5080 -0.9487 -3.0991
  299MOL0     H40321   8.080   5.909   1.682  0.2760 -1.6842  1.0455
  299MOL0     H40322   8.223   5.985   1.603  0.2373 -0.4683 -0.0380
  299MOL0     H40323   8.334   5.774   1.603  0.3334 -0.1904  0.5127
  299MOL0     H40324   8.208   5.695   1.670  3.6248 -1.7159 -1.0579
  299MOL0     H40325   8.515   5.747   1.685  0.5836  2.7507 -0.2248
  299MOL0     H40326   8.722   5.669   1.785  0.6762 -0.1696 -0.3576
  299MOL0     H40327   9.067   5.764   2.131  1.3715 -1.8079 -1.4819
  299MOL0     H40328   9.261   5.673   2.190 -0.6887 -0.0288 -1.6817
  299MOL0     H40329   9.440   5.535   2.231 -3.4418  1.3048  1.5342
  299MOL0     H40330   9.432   5.482   2.401 -1.6646  0.2282 -0.3286
  299MOL0     H40331   9.508   5.278   2.199 -2.1604 -0.2141  1.3336
  299MOL0     H40332   9.631   5.402   2.267 -0.0104 -0.4262  2.4191
  299MOL0     H40333   9.496   5.295   2.481 -0.7193  0.5097 -0.9783
  299MOL0     H40334   9.508   5.158   2.374  1.2491 -0.3117 -1.8843
  299MOL0     H40335   9.766   5.204   2.363  0.0210  1.1932 -0.5544
  299MOL0     H40336   9.719   5.128   2.504  2.4342  0.4305  0.3224
  299MOL0     H40337   9.689   5.343   2.633 -1.3336 -0.3014 -0.1995
  299MOL0     H40338   9.709   5.446   2.492 -0.2930 -0.4212  0.0707
  299MOL0     H40339   9.892   5.457   2.629 -4.6571  0.1644 -0.1730
  299MOL0     H40340   9.921   5.278   2.633 -2.0252 -1.1467 -0.2432
  299MOL0     H40341   9.968   5.498   2.430  2.0352  0.9102  4.1031
  299MOL0     H40342   9.942   5.339   2.356  0.2537  0.2564 -0.3853
  299MOL0     H40343  10.133   5.253   2.497  1.0187  0.7141  1.9752
  299MOL0     H40344  10.193   5.387   2.389  2.8162 -0.6449  0.5899
  299MOL0     H40345   9.056   5.306   2.298 -1.3347 -0.7653 -1.2605
  299MOL0     H40346   8.854   5.410   2.269  0.5248 -2.3647 -1.8853
  299MOL0     H40347   8.564   5.722   2.182  1.0913  2.0010  0.2595
  299MOL0     H40348   8.356   5.827   2.070 -0.0078 -1.1592 -0.8073
  299MOL0     H40349   6.531   6.152   1.753 -3.6919  1.9257  1.2381
  299MOL0     H40350   6.319   6.047   1.685 -0.1028  0.2808 -1.2995
  299MOL0     H40351   5.942   6.021   1.651 -1.5459  1.1943 -0.6832
  299MOL0     H40352   5.740   5.873   1.645 -1.2967 -1.9138 -0.9804
  299MOL0     H40353   5.691   5.556   1.333 -0.7951 -0.1387 -1.2879
  299MOL0     H40354   5.605   5.694   1.286 -0.6449 -1.8138 -0.6694
  299MOL0     H40355   5.534   5.470   1.482  0.2542 -2.2629 -1.9200
  299MOL0     H40356   5.463   5.510   1.324 -0.9224 -0.6996  1.2349
  299MOL0     H40357   5.370   5.725   1.424 -0.3450  0.6020  1.4540
  299MOL0     H40358   5.449   5.674   1.573 -1.3333 -0.7287  2.0864
  299MOL0     H40359   5.295   5.480   1.590  1.3189 -1.1939 -1.9287
  299MOL0     H40360   5.204   5.642   1.586 -2.1795 -0.6402 -2.2110
  299MOL0     H40361   5.078   5.462   1.235  0.0187 -1.2064 -0.1500
  299MOL0     H40362   5.820   5.765   1.252 -3.2835 -2.6055  2.4787
  299MOL0     H40363   6.078   5.823   1.196  1.9741 -0.0682  2.2200
  299MOL0     H40364   5.958   5.941   1.127 -0.7029 -2.0507 -0.4364
  299MOL0     H40365   6.115   5.994   1.199 -0.5121 -0.0043 -0.9271
  300MOL0     O40366   2.355   9.952   9.408 -0.1576 -0.1158 -0.2744
  300MOL0     C40367   2.354   9.937   9.533  0.7280 -0.1505 -0.7802
  300MOL0     O40368   2.244   9.907   9.614  0.5901 -0.2499 -0.0115
  300MOL0     C40369   2.121   9.898   9.544 -0.5613  0.5107 -0.2963
  300MOL0     C40370   2.093   9.816   9.439 -0.2152  0.1314  0.8672
  300MOL0     C40371   1.964   9.820   9.387  1.3315  0.2217  0.8613
  300MOL0     C40372   1.859   9.897   9.432 -0.0443 -1.2885 -0.8470
  300MOL0     O40373   1.741   9.879   9.376  0.1953  0.3271 -1.3105
  300MOL0     C40374   1.621   9.889   9.450 -0.3441  0.1958  0.4538
  300MOL0     C40375   1.567  10.022   9.421  1.1902 -0.6356  0.4272
  300MOL0     C40376   1.416  10.038   9.461  0.0263 -0.5838  1.6380
  300MOL0     C40377   1.410  10.095   9.600 -0.0605  0.0385  0.7987
  300MOL0     C40378   1.397  10.247   9.601  0.5662 -0.6363  0.2426
  300MOL0     C40379   1.391  10.311   9.735  0.6191 -0.0252  0.2608
  300MOL0     C40380   1.257  10.368   9.770 -0.3351  0.0750 -0.6019
  300MOL0     C40381   1.128  10.272   9.764 -0.2233 -0.5272  0.0334
  300MOL0     N40382   1.035  10.296   9.877  0.3102  0.9670 -0.1677
  300MOL0     C40383   0.943  10.399   9.899  0.6769  0.4777  0.0839
  300MOL0     C40384   0.904  10.378  10.024  0.4882 -0.1780 -0.6083
  300MOL0     C40385   0.812  10.470  10.100 -0.6322  0.8490 -0.7786
  300MOL0     C40386   0.868  10.497  10.242 -0.2256 -0.0847  0.0607
  300MOL0     C40387   0.773  10.589  10.324 -0.0120  0.6183 -0.3922
  300MOL0     C40388   0.859  10.648  10.436  0.1580 -0.3850  0.2502
  300MOL0     O40389   0.926  10.771  10.375  0.2898 -0.0038 -0.4711
  300MOL0     C40390   1.012  10.842  10.453  0.6202 -0.1011  0.6663
  300MOL0     C40391   1.032  10.833  10.589  0.0401  0.7861 -0.2103
  300MOL0     C40392   1.133  10.895  10.661  0.1879 -0.2120 -0.6876
  300MOL0     C40393   1.217  10.987  10.597 -1.2951  0.3458  0.4473
  300MOL0     C40394   1.313  11.075  10.670  0.3320 -0.2332 -0.4021
  300MOL0     O40395   1.319  11.081  10.807 -0.2837 -0.0491  0.0880
  300MOL0     C40396   1.435  11.142  10.863  0.0942  0.5528  0.6220
  300MOL0     C40397   1.547  11.059  10.874  0.3270  0.7912  0.3634
  300MOL0     C40398   1.652  11.111  10.934 -0.0395  0.6419 -0.2503
  300MOL0     C40399   1.671  11.244  10.973 -1.0218 -0.2383  0.5170
  300MOL0     O40400   1.790  11.298  11.036  0.6210 -0.2437  0.7761
  300MOL0     C40401   1.909  11.219  11.032  0.0919 -1.1156 -0.8167
  300MOL0     C40402   2.018  11.317  11.099 -0.0415  0.2198  0.3568
  300MOL0     C40403   2.157  11.250  11.106 -0.5710  1.2240 -0.0348
  300MOL0     C40404   2.177  11.129  11.193  0.4266  0.5430 -0.2522
  300MOL0     C40405   2.312  11.057  11.143  0.5258  0.4806  0.4976
  300MOL0     C40406   2.336  10.916  11.195  0.1929  0.9708  0.0529
  300MOL0     C40407   2.461  10.860  11.133 -0.1774  0.7903 -0.1109
  300MOL0     C40408   2.477  10.704  11.153  0.1449 -0.3442 -0.0639
  300MOL0    Cl40409   2.646  10.665  11.100  0.3090 -0.1310  0.3311
  300MOL0     C40410   1.566  11.330  10.949  0.3175  0.3145 -0.3524
  300MOL0     C40411   1.443  11.280  10.894 -0.5526 -1.1319 -0.4525
  300MOL0     O40412   1.397  11.116  10.595 -0.2094  0.1416 -0.0407
  300MOL0     C40413   1.201  10.993  10.452 -0.8708  1.1188  0.0925
  300MOL0     C40414   1.104  10.917  10.391  0.1298  0.7931  0.6980
  300MOL0     N40415   0.964  10.263  10.074 -0.6597  0.3250 -0.1973
  300MOL0     N40416   1.050  10.226   9.992  0.0684  0.2659  0.4143
  300MOL0     C40417   1.890   9.986   9.536  0.1920 -0.6461 -0.0432
  300MOL0     C40418   2.021   9.982   9.591 -0.7016 -0.6134 -0.1361
  300MOL0     C40419   2.484   9.959   9.601  0.1501 -1.0024  0.2170
  300MOL0     C40420   2.598   9.957   9.524 -1.1041  0.2987 -0.6826
  300MOL0     C40421   2.730   9.985   9.581  0.5755 -0.1324  1.1012
  300MOL0     C40422   2.742  10.031   9.710  0.2540  0.6511 -0.2039
  300MOL0     O40423   2.850  10.087   9.760 -0.1155  0.2769 -0.5008
  300MOL0     C40424   2.983  10.057   9.706 -0.4303  0.5865  0.2878
  300MOL0     C40425   3.081  10.131   9.795 -0.0780  0.3183 -0.0673
  300MOL0     C40426   3.221  10.063   9.794 -0.0383 -1.1849  0.3075
  300MOL0     C40427   3.336  10.136   9.870  0.2598  0.6228 -0.0559
  300MOL0     C40428   3.464  10.084   9.817 -0.2755 -0.6234  0.0097
  300MOL0     C40429   3.558  10.034   9.760 -0.1566  0.5305 -0.5243
  300MOL0     C40430   2.620  10.042   9.780 -1.3336 -0.1156 -1.0422
  300MOL0     C40431   2.490  10.009   9.733 -0.4057  0.8767  0.2553
  300MOL0     C40432   2.360  10.036   9.823 -0.2987 -0.6104  0.2212
  300MOL0     H40433   2.155   9.742   9.390 -1.5872 -0.8901  0.6044
  300MOL0     H40434   1.939   9.763   9.299 -0.9211  0.5190  1.2515
  300MOL0     H40435   1.554   9.813   9.409  0.2420  0.0656 -0.2783
  300MOL0     H40436   1.641   9.862   9.554 -0.4595  0.0736  0.4439
  300MOL0     H40437   1.577  10.030   9.312 -0.4576  0.1751  0.3042
  300MOL0     H40438   1.626  10.105   9.461  0.1474  0.6009 -0.5011
  300MOL0     H40439   1.365   9.942   9.457 -1.3617  0.1400  1.4992
  300MOL0     H40440   1.364  10.108   9.396 -0.3395 -0.7221  1.7817
  300MOL0     H40441   1.321  10.053   9.647 -0.2623 -0.6934 -0.2056
  300MOL0     H40442   1.501  10.075   9.658  2.2645  3.3135 -1.3457
  300MOL0     H40443   1.483  10.293   9.552 -0.2375 -0.2337 -0.8392
  300MOL0     H40444   1.315  10.287   9.541  2.4104  2.3819 -0.4442
  300MOL0     H40445   1.413  10.236   9.811  0.0828 -1.1374 -0.6417
  300MOL0     H40446   1.476  10.379   9.739 -0.1733  1.0520 -0.5677
  300MOL0     H40447   1.228  10.454   9.709  0.7647  3.3942  3.1488
  300MOL0     H40448   1.262  10.405   9.873 -0.2559 -2.1004  0.2415
  300MOL0     H40449   1.078  10.294   9.669 -0.5103  2.2798  0.7352
  300MOL0     H40450   1.174  10.174   9.774  2.3413  0.5711 -0.1582
  300MOL0     H40451   0.897  10.478   9.840  0.4013  3.4902  3.9533
  300MOL0     H40452   0.813  10.568  10.051  0.3408  1.3411  0.1856
  300MOL0     H40453   0.709  10.433  10.112 -0.1278  0.1662  2.7487
  300MOL0     H40454   0.888  10.405  10.297 -0.7199 -1.5986 -2.1336
  300MOL0     H40455   0.958  10.554  10.217 -0.3467 -0.3014 -0.9033
  300MOL0     H40456   0.685  10.528  10.346 -1.2452  1.5092 -2.5010
  300MOL0     H40457   0.732  10.670  10.262 -0.2175 -0.9098 -2.3456
  300MOL0     H40458   0.932  10.583  10.484 -1.7598 -0.4892  3.2463
  300MOL0     H40459   0.795  10.691  10.513  2.5328 -1.0859  2.7738
  300MOL0     H40460   0.971  10.770  10.653  2.4159 -1.8666 -0.3429
  300MOL0     H40461   1.138  10.878  10.768  1.3954  2.6708 -0.1870
  300MOL0     H40462   1.539  10.957  10.840  1.6743 -0.4318  3.3683
  300MOL0     H40463   1.731  11.039  10.957 -0.2174  0.0802 -1.3107
  300MOL0     H40464   1.905  11.124  11.086 -0.8492 -2.9399 -3.8460
  300MOL0     H40465   1.932  11.189  10.930  2.2384 -0.0226 -0.7041
  300MOL0     H40466   2.025  11.412  11.045 -0.3039 -0.7632 -1.4796
  300MOL0     H40467   1.976  11.332  11.199 -0.7036 -5.1501  1.1568
  300MOL0     H40468   2.181  11.225  11.002 -1.0716  0.6279 -0.0156
  300MOL0     H40469   2.232  11.326  11.131 -2.8470  2.9055  2.1932
  300MOL0     H40470   2.086  11.068  11.193  0.4124  0.5237  1.2244
  300MOL0     H40471   2.188  11.150  11.300 -0.8893 -2.8885  0.6905
  300MOL0     H40472   2.401  11.118  11.162  0.7698 -0.0103  0.9805
  300MOL0     H40473   2.296  11.048  11.035 -2.1381 -1.6160  0.9531
  300MOL0     H40474   2.341  10.925  11.304  0.8097 -0.7324  0.1948
  300MOL0     H40475   2.257  10.844  11.174 -0.7256  1.6898  0.9799
  300MOL0     H40476   2.549  10.900  11.182 -0.1098 -0.6648  1.0263
  300MOL0     H40477   2.458  10.875  11.024  1.3061  1.1206 -0.1149
  300MOL0     H40478   2.456  10.670  11.255 -1.0860  1.0603  0.1874
  300MOL0     H40479   2.402  10.655  11.091 -3.1526  1.3498  2.2815
  300MOL0     H40480   1.575  11.436  10.974  1.0484 -0.1760  1.6409
  300MOL0     H40481   1.357  11.345  10.877 -1.4375 -2.4277 -1.1429
  300MOL0     H40482   1.259  11.071  10.406  1.7463 -0.4131  0.6098
  300MOL0     H40483   1.085  10.919  10.284  2.0665 -2.2438  0.1910
  300MOL0     H40484   1.811  10.047   9.578 -2.1493 -2.2400 -1.8336
  300MOL0     H40485   2.043  10.058   9.666  1.8253 -2.4987  1.1738
  300MOL0     H40486   2.601   9.913   9.425 -0.3243 -1.8103  0.1985
  300MOL0     H40487   2.817   9.983   9.517  0.0577  1.4049  0.3240
  300MOL0     H40488   2.998  10.091   9.603 -0.5965  0.0121  0.0694
  300MOL0     H40489   3.014   9.952   9.707 -0.7019  0.4982 -0.2216
  300MOL0     H40490   3.058  10.130   9.902  3.1158 -0.7851  0.7415
  300MOL0     H40491   3.073  10.234   9.760 -2.6727 -0.0571 -0.8035
  300MOL0     H40492   3.250  10.064   9.689 -0.7715  1.2180  0.0696
  300MOL0     H40493   3.212   9.958   9.825 -0.4176 -0.6220  2.2656
  300MOL0     H40494   3.321  10.241   9.841 -3.2815  0.4222  0.6363
  300MOL0     H40495   3.339  10.129   9.979 -0.4230 -1.0633 -0.1161
  300MOL0     H40496   3.635   9.994   9.698  0.4926  0.9806 -0.0217
  300MOL0     H40497   2.628  10.097   9.873  0.8784 -1.2403 -0.5019
  300MOL0     H40498   2.395  10.076   9.919 -0.3676  0.5005 -0.2058
  300MOL0     H40499   2.299  10.117   9.781  2.1445 -0.5481 -3.7019
  300MOL0     H40500   2.299   9.946   9.839 -1.0243  0.0503  1.3042
  301MOL0     O40501   5.993  11.320   8.937  0.6989 -0.5235  0.6017
  301MOL0     C40502   6.091  11.382   8.905  1.1763  0.7906  0.2145
  301MOL0     O40503   6.093  11.468   8.800 -0.2239  0.1335  0.2469
  301MOL0     C40504   5.978  11.490   8.728 -0.4387  0.6033  0.2164
  301MOL0     C40505   5.891  11.390   8.676 -0.7966 -0.1729 -0.0270
  301MOL0     C40506   5.771  11.432   8.606 -1.3001 -0.7143  0.3562
  301MOL0     C40507   5.737  11.571   8.589  0.3774  0.5848  0.2076
  301MOL0     O40508   5.610  11.596   8.528  0.3844  0.1869  0.5593
  301MOL0     C40509   5.578  11.725   8.483 -0.1964  0.5179 -0.7154
  301MOL0     C40510   5.672  11.772   8.367 -0.4661  0.0090  0.5341
  301MOL0     C40511   5.647  11.683   8.244 -0.4352 -0.0110 -0.2617
  301MOL0     C40512   5.776  11.697   8.161  0.0424 -0.0685 -0.7445
  301MOL0     C40513   5.815  11.834   8.099 -0.2249 -0.1478  0.0917
  301MOL0     C40514   5.696  11.905   8.024 -0.4977 -0.8797 -0.2807
  301MOL0     C40515   5.751  12.035   7.954  0.3519 -0.5628 -0.1220
  301MOL0     C40516   5.649  12.102   7.885 -0.4707 -0.1243 -0.0598
  301MOL0     N40517   5.704  12.223   7.825  0.6819  0.1430 -0.3827
  301MOL0     C40518   5.701  12.249   7.689 -0.5324  0.1523 -0.1783
  301MOL0     C40519   5.733  12.381   7.678 -0.1150  0.0916 -0.2987
  301MOL0     C40520   5.742  12.459   7.548  0.1937 -0.1694  0.6739
  301MOL0     C40521   5.632  12.454   7.449  0.0816 -0.5849 -0.0628
  301MOL0     C40522   5.654  12.538   7.327  1.0653 -0.0268 -0.6614
  301MOL0     C40523   5.582  12.488   7.201 -0.1295  0.1334 -0.0249
  301MOL0     O40524   5.595  12.567   7.080  0.1998  0.4175 -0.2315
  301MOL0     C40525   5.723  12.605   7.038  0.4424 -0.3664  0.2773
  301MOL0     C40526   5.733  12.715   6.947  1.6735  0.7331  0.5558
  301MOL0     C40527   5.851  12.742   6.871 -0.2858 -0.5496 -0.5613
  301MOL0     C40528   5.964  12.662   6.887  0.5176 -0.6435  0.2633
  301MOL0     C40529   6.079  12.680   6.793  0.1953 -0.7999 -0.6800
  301MOL0     O40530   6.173  12.583   6.794 -0.0902 -0.0761  0.1231
  301MOL0     C40531   6.267  12.584   6.693  0.2698 -1.0894 -0.1449
  301MOL0     C40532   6.363  12.681   6.676  0.1234  0.5476 -0.1534
  301MOL0     C40533   6.462  12.667   6.579  0.5455  0.8928  0.6000
  301MOL0     C40534   6.465  12.561   6.486 -0.3434  0.2456  0.1547
  301MOL0     O40535   6.557  12.547   6.383 -0.0282 -0.0946 -0.4150
  301MOL0     C40536   6.545  12.430   6.298  0.6937  0.1399  0.8202
  301MOL0     C40537   6.609  12.462   6.163 -0.0134 -0.0473 -0.5135
  301MOL0     C40538   6.765  12.438   6.167  0.2656 -0.3116  0.2454
  301MOL0     C40539   6.835  12.562   6.231 -0.6604 -0.0256  0.1634
  301MOL0     C40540   6.986  12.541   6.221  0.1972 -0.2788 -0.6817
  301MOL0     C40541   7.051  12.496   6.089 -0.0088  0.3351  0.1427
  301MOL0     C40542   7.191  12.552   6.087  0.4186 -0.2133  0.7841
  301MOL0     C40543   7.257  12.508   5.961  0.3435  0.0932  0.2086
  301MOL0    Cl40544   7.435  12.548   5.979  0.6513 -0.1254 -0.1068
  301MOL0     C40545   6.373  12.458   6.519  0.3726  0.0938 -0.1541
  301MOL0     C40546   6.281  12.468   6.618  1.0460  0.6323 -0.5750
  301MOL0     O40547   6.076  12.783   6.723 -0.4649  0.3982 -0.0482
  301MOL0     C40548   5.955  12.550   6.974  0.5601 -0.0682  0.8784
  301MOL0     C40549   5.833  12.522   7.045 -0.0844  0.5574 -0.8545
  301MOL0     N40550   5.721  12.439   7.808  0.5001 -0.6315  0.1719
  301MOL0     N40551   5.707  12.338   7.891  0.3058  0.1361  0.0695
  301MOL0     C40552   5.826  11.665   8.639  0.1942  0.1633  0.8125
  301MOL0     C40553   5.944  11.630   8.710 -0.1914  0.4584  0.2873
  301MOL0     C40554   6.207  11.367   9.000 -0.4163 -0.0615 -0.5004
  301MOL0     C40555   6.193  11.285   9.119 -0.5211  0.1908 -0.1029
  301MOL0     C40556   6.298  11.271   9.215 -0.8308 -0.5061 -0.7811
  301MOL0     C40557   6.415  11.344   9.192 -0.8079  0.6131  0.6938
  301MOL0     O40558   6.516  11.358   9.287  0.2928 -0.9894  0.6292
  301MOL0     C40559   6.578  11.252   9.354  0.9551  0.6011  0.0876
  301MOL0     C40560   6.730  11.253   9.328 -0.4626  1.0388  0.5824
  301MOL0     C40561   6.767  11.250   9.182 -0.3701  0.8391  0.1186
  301MOL0     C40562   6.918  11.233   9.153 -0.7661 -0.5250 -0.7388
  301MOL0     C40563   6.955  11.286   9.022 -0.3138 -0.1589  0.7706
  301MOL0     C40564   6.994  11.324   8.909  0.0721 -1.0669  0.0225
  301MOL0     C40565   6.436  11.415   9.075  0.5845 -0.0383 -0.0186
  301MOL0     C40566   6.334  11.422   8.976  0.0882  0.2413 -0.5565
  301MOL0     C40567   6.377  11.497   8.849 -0.4886 -0.1341 -0.1552
  301MOL0     H40568   5.907  11.284   8.693  0.0279  0.1676  1.4547
  301MOL0     H40569   5.706  11.355   8.567 -3.5278  0.2557  1.9292
  301MOL0     H40570   5.480  11.719   8.436  0.4173 -0.6548 -1.9133
  301MOL0     H40571   5.570  11.791   8.570  0.3202 -0.0377 -0.2390
  301MOL0     H40572   5.778  11.790   8.386  0.2465 -3.1182  0.0687
  301MOL0     H40573   5.626  11.869   8.347  1.2161  1.0764  1.6382
  301MOL0     H40574   5.553  11.702   8.192 -1.1498 -0.2875  0.9012
  301MOL0     H40575   5.641  11.579   8.279 -0.8817  0.2253  0.3637
  301MOL0     H40576   5.863  11.656   8.212 -0.1722 -1.6856 -1.6315
  301MOL0     H40577   5.763  11.625   8.081 -0.8507  0.2384 -0.8882
  301MOL0     H40578   5.863  11.898   8.173  5.1794 -0.0330 -2.9901
  301MOL0     H40579   5.893  11.815   8.025 -2.4942  0.9569 -2.7996
  301MOL0     H40580   5.647  11.829   7.962 -0.0351 -1.0015 -0.5035
  301MOL0     H40581   5.630  11.925   8.108  1.5290 -0.0363  1.1905
  301MOL0     H40582   5.827  12.005   7.882 -1.7994 -4.0483 -1.1720
  301MOL0     H40583   5.799  12.102   8.026  0.6485 -0.3843 -0.4821
  301MOL0     H40584   5.610  12.033   7.809 -0.0805 -1.9992  1.3719
  301MOL0     H40585   5.576  12.132   7.961  1.9601  2.4977  1.4099
  301MOL0     H40586   5.723  12.176   7.611 -0.3962  0.6124 -0.5727
  301MOL0     H40587   5.752  12.565   7.572 -0.5623 -0.0744  0.5922
  301MOL0     H40588   5.832  12.427   7.494 -0.3967 -4.0814  1.7062
  301MOL0     H40589   5.621  12.347   7.430 -0.1824 -0.2671 -1.8785
  301MOL0     H40590   5.545  12.497   7.500  0.8024  0.2792  0.4794
  301MOL0     H40591   5.759  12.540   7.296  1.4285 -1.4497  0.3757
  301MOL0     H40592   5.627  12.643   7.340 -1.1289 -0.1029 -3.7928
  301MOL0     H40593   5.475  12.489   7.223  0.0660 -0.2139  1.0092
  301MOL0     H40594   5.621  12.387   7.181 -0.1327  0.6398 -3.0508
  301MOL0     H40595   5.643  12.776   6.937  0.6594 -0.4305  2.0882
  301MOL0     H40596   5.850  12.821   6.797  0.7509 -0.6552 -0.7101
  301MOL0     H40597   6.362  12.770   6.738 -0.3668 -0.0782  0.7574
  301MOL0     H40598   6.547  12.734   6.565  2.4913 -1.8938 -2.4745
  301MOL0     H40599   6.586  12.348   6.357 -2.2717  0.4505  3.5904
  301MOL0     H40600   6.439  12.406   6.281  0.7926  0.0137  0.3736
  301MOL0     H40601   6.566  12.376   6.110  2.1479 -1.2967 -0.3638
  301MOL0     H40602   6.572  12.558   6.127  2.7577  0.7286 -1.5163
  301MOL0     H40603   6.789  12.350   6.228 -0.5300 -2.0413 -1.7942
  301MOL0     H40604   6.804  12.426   6.066 -1.3717  0.6618 -0.5318
  301MOL0     H40605   6.793  12.576   6.331  0.4896  1.7138  0.4514
  301MOL0     H40606   6.817  12.657   6.181 -0.0764  0.4326  0.8065
  301MOL0     H40607   7.011  12.472   6.302 -4.8330  1.2025  2.5330
  301MOL0     H40608   7.028  12.641   6.236  2.2685 -1.0888 -0.6807
  301MOL0     H40609   7.048  12.387   6.087  0.5233  0.3251 -0.4390
  301MOL0     H40610   6.994  12.540   6.006  2.7683  5.5571  0.5611
  301MOL0     H40611   7.244  12.501   6.169 -0.0809 -0.1752  1.1359
  301MOL0     H40612   7.194  12.659   6.105 -0.0452  0.1740 -1.2040
  301MOL0     H40613   7.232  12.403   5.943  1.2165 -0.5261  2.3599
  301MOL0     H40614   7.214  12.567   5.879  1.2606 -0.7704 -0.9136
  301MOL0     H40615   6.375  12.358   6.478  1.2523 -0.4284  1.0906
  301MOL0     H40616   6.225  12.379   6.648  1.4204  1.1216  1.7875
  301MOL0     H40617   6.038  12.479   6.974  2.8006  2.4170  0.4174
  301MOL0     H40618   5.836  12.437   7.112 -1.3914 -0.2205 -1.7284
  301MOL0     H40619   5.802  11.767   8.612 -0.8631 -0.6948 -1.7476
  301MOL0     H40620   6.007  11.709   8.750  1.6253 -1.1109  0.6562
  301MOL0     H40621   6.103  11.225   9.135  1.5204 -3.4073 -0.9715
  301MOL0     H40622   6.280  11.213   9.305 -1.9466  1.2826  0.2200
  301MOL0     H40623   6.526  11.162   9.321  2.7977 -1.5927  2.6063
  301MOL0     H40624   6.559  11.255   9.462  2.8579 -1.4304  0.5558
  301MOL0     H40625   6.768  11.167   9.384  0.6795  2.3882  1.9375
  301MOL0     H40626   6.781  11.343   9.363  2.0526  0.3386 -0.9931
  301MOL0     H40627   6.733  11.338   9.126  3.5738  1.3393 -1.8531
  301MOL0     H40628   6.723  11.168   9.124  4.2026  1.4618 -4.9536
  301MOL0     H40629   6.968  11.289   9.233  1.0677 -0.7344 -1.6854
  301MOL0     H40630   6.956  11.131   9.157 -0.2629 -0.3247 -0.1636
  301MOL0     H40631   7.019  11.364   8.813  3.0111  0.9760  1.4729
  301MOL0     H40632   6.530  11.465   9.056 -0.8316  2.8830  0.0910
  301MOL0     H40633   6.487  11.495   8.847 -0.4818 -0.1210  0.1837
  301MOL0     H40634   6.331  11.444   8.766 -2.9991 -0.5224  1.3914
  301MOL0     H40635   6.334  11.597   8.853 -0.7802 -0.2189  4.5964
  302MOL0     O40636   6.377   8.687  10.154  0.0151  0.4886  0.3622
  302MOL0     C40637   6.352   8.596  10.224 -0.0687  0.3621 -0.0060
  302MOL0     O40638   6.442   8.534  10.306 -0.4773 -0.5572 -0.4922
  302MOL0     C40639   6.576   8.580  10.283  0.4880 -0.0293 -0.5057
  302MOL0     C40640   6.650   8.552  10.167 -0.3110 -0.2989  0.0366
  302MOL0     C40641   6.781   8.596  10.163 -0.1956  0.4845  1.0802
  302MOL0     C40642   6.851   8.660  10.272  0.9655 -0.9643 -0.1070
  302MOL0     O40643   6.984   8.707  10.267 -0.0741 -0.3224 -0.5112
  302MOL0     C40644   7.075   8.656  10.173 -1.3191 -1.3966 -0.0354
  302MOL0     C40645   7.215   8.723  10.187  0.1767 -0.5603  0.5558
  302MOL0     C40646   7.209   8.864  10.132 -0.3327 -0.0551 -0.4196
  302MOL0     C40647   7.336   8.956  10.141  0.2211  0.1946  0.3019
  302MOL0     C40648   7.307   9.090  10.075 -0.7964  0.2118 -0.5799
  302MOL0     C40649   7.433   9.175  10.080 -0.2607  0.3444  0.4795
  302MOL0     C40650   7.568   9.135  10.010 -0.3130 -0.3358  0.5400
  302MOL0     C40651   7.668   9.254  10.017  0.5638  0.7224  0.1539
  302MOL0     N40652   7.798   9.218   9.958 -0.6131 -0.2442 -0.2698
  302MOL0     C40653   7.821   9.173   9.834 -0.6749 -0.2740  0.4339
  302MOL0     C40654   7.958   9.174   9.829 -0.4204 -0.2126 -0.7217
  302MOL0     C40655   8.031   9.142   9.707  0.3807  0.0102 -0.6488
  302MOL0     C40656   8.174   9.191   9.697 -0.1873 -0.4164 -0.7134
  302MOL0     C40657   8.281   9.081   9.707 -0.4883  0.1705  0.6466
  302MOL0     C40658   8.420   9.122   9.728  0.8405 -0.3149 -0.9135
  302MOL0     O40659   8.502   9.014   9.683 -0.0412  0.3652  0.5021
  302MOL0     C40660   8.633   9.046   9.653  0.2993 -0.7132 -0.8792
  302MOL0     C40661   8.702   9.164   9.680  0.1355 -0.5551 -0.4097
  302MOL0     C40662   8.838   9.177   9.645 -0.2675 -0.2032 -0.1473
  302MOL0     C40663   8.902   9.082   9.567  0.2982 -0.1102 -0.2784
  302MOL0     C40664   9.046   9.101   9.546 -0.3065 -0.7165 -0.5654
  302MOL0     O40665   9.109   8.980   9.518 -0.1254 -0.7926  0.4089
  302MOL0     C40666   9.249   8.983   9.518 -0.4240 -0.3715 -0.4978
  302MOL0     C40667   9.331   9.051   9.432  0.3931 -0.3401  0.3702
  302MOL0     C40668   9.475   9.027   9.433 -0.3569  0.2221 -1.1196
  302MOL0     C40669   9.532   8.937   9.530  0.0214 -0.3012 -0.5972
  302MOL0     O40670   9.671   8.921   9.535  0.2028 -0.3771 -0.5459
  302MOL0     C40671   9.736   8.978   9.647  0.1346 -0.1129  0.1388
  302MOL0     C40672   9.877   8.931   9.655 -0.0951 -0.0243  0.4228
  302MOL0     C40673   9.968   8.964   9.536  0.6003 -0.1567  0.6869
  302MOL0     C40674  10.104   8.892   9.560  1.0706 -0.3549 -0.7068
  302MOL0     C40675  10.121   8.743   9.528  0.3369  0.5187  0.3572
  302MOL0     C40676  10.272   8.699   9.541 -0.3890  0.6244 -0.1528
  302MOL0     C40677  10.316   8.627   9.421 -0.1447 -0.4115 -0.8135
  302MOL0     C40678  10.459   8.578   9.424  0.7135 -0.7989  0.0099
  302MOL0    Cl40679  10.473   8.424   9.503 -0.7226  0.0956 -0.1545
  302MOL0     C40680   9.442   8.877   9.613 -0.3544  0.7740  0.3399
  302MOL0     C40681   9.305   8.896   9.611  0.4127 -0.4897 -0.0700
  302MOL0     O40682   9.110   9.205   9.567  0.2359 -0.4871  0.0963
  302MOL0     C40683   8.829   8.965   9.532 -0.0463 -0.3261  0.0943
  302MOL0     C40684   8.702   8.944   9.577 -0.2848 -0.1527  0.3528
  302MOL0     N40685   8.013   9.218   9.946  0.0446  0.1644  0.2164
  302MOL0     N40686   7.916   9.234  10.026  0.8567 -0.3437  0.0290
  302MOL0     C40687   6.774   8.671  10.384 -0.1047 -0.5223  0.3419
  302MOL0     C40688   6.639   8.639  10.389  0.7462 -0.3152 -1.3233
  302MOL0     C40689   6.213   8.540  10.227 -0.0062 -0.6678 -0.2016
  302MOL0     C40690   6.158   8.503  10.351  0.7695 -0.1478  0.8697
  302MOL0     C40691   6.026   8.450  10.362  0.1639 -0.6573 -0.0697
  302MOL0     C40692   5.943   8.446  10.244 -0.0502  0.5038 -0.6619
  302MOL0     O40693   5.822   8.380  10.235 -0.4663  0.3266  0.4482
  302MOL0     C40694   5.748   8.346  10.349  0.9726 -0.4826  0.8368
  302MOL0     C40695   5.593   8.343  10.332 -0.3712  0.2764  0.4799
  302MOL0     C40696   5.554   8.210  10.263  0.6392 -0.2311 -0.4691
  302MOL0     C40697   5.404   8.194  10.221  0.1798  0.2999 -0.3379
  302MOL0     C40698   5.342   8.322  10.178 -0.9003 -0.8354  0.6454
  302MOL0     C40699   5.298   8.430  10.145  0.3640  0.6918 -0.0752
  302MOL0     C40700   5.995   8.479  10.119  0.0852  0.3101  0.8649
  302MOL0     C40701   6.126   8.535  10.107 -0.2079 -0.1385 -0.1327
  302MOL0     C40702   6.179   8.568   9.966  0.3502  0.1472 -0.3242
  302MOL0     H40703   6.598   8.499  10.087  1.8602  0.8317 -2.2307
  302MOL0     H40704   6.834   8.553  10.079 -0.2427  0.7558  0.9134
  302MOL0     H40705   7.108   8.556  10.202  1.3187 -0.2321  1.3823
  302MOL0     H40706   7.035   8.659  10.071  0.8466  0.3311 -0.9405
  302MOL0     H40707   7.298   8.665  10.143  2.8102  2.9398  0.4673
  302MOL0     H40708   7.233   8.734  10.294  2.2563 -1.4492  0.3647
  302MOL0     H40709   7.127   8.908  10.189 -1.3784 -0.1793 -1.7957
  302MOL0     H40710   7.175   8.870  10.029  3.5850  2.9667 -1.7747
  302MOL0     H40711   7.372   8.972  10.243  1.3813  2.5286 -0.4135
  302MOL0     H40712   7.422   8.911  10.092  0.3386  0.8939 -0.1473
  302MOL0     H40713   7.266   9.087   9.974 -3.0336 -0.0809  0.2823
  302MOL0     H40714   7.237   9.144  10.138  0.2281 -1.5527  2.2669
  302MOL0     H40715   7.399   9.270  10.035 -0.8469 -0.6787 -1.3437
  302MOL0     H40716   7.468   9.185  10.183  2.7012 -2.0037 -0.1783
  302MOL0     H40717   7.547   9.092   9.912 -2.2516  0.8041  0.4059
  302MOL0     H40718   7.621   9.050  10.055  0.9294  0.3327  0.3970
  302MOL0     H40719   7.630   9.342   9.964  0.3469  1.2556  1.1749
  302MOL0     H40720   7.681   9.284  10.121  0.5199 -1.7016  0.9288
  302MOL0     H40721   7.746   9.134   9.766 -0.5329 -0.3126  0.2988
  302MOL0     H40722   8.036   9.033   9.702 -1.0317 -0.1123 -0.0321
  302MOL0     H40723   7.976   9.184   9.622  1.0174  1.8718 -0.2077
  302MOL0     H40724   8.191   9.232   9.597  0.0612 -5.4961 -3.0355
  302MOL0     H40725   8.196   9.266   9.774  3.5375 -0.2079 -1.7588
  302MOL0     H40726   8.272   9.014   9.621  1.0633 -0.9240  1.3138
  302MOL0     H40727   8.258   9.021   9.795 -3.1244 -0.2004 -0.2145
  302MOL0     H40728   8.437   9.123   9.836 -1.9092  0.0019 -0.4139
  302MOL0     H40729   8.444   9.225   9.696 -3.0232  0.7681 -0.8789
  302MOL0     H40730   8.659   9.237   9.748  2.2641  0.6600 -0.2967
  302MOL0     H40731   8.880   9.268   9.686  0.2661 -0.8207  0.7269
  302MOL0     H40732   9.295   9.113   9.351 -0.7823  0.2498  1.3158
  302MOL0     H40733   9.533   9.073   9.353  0.0274  1.3764 -0.2115
  302MOL0     H40734   9.750   9.086   9.642  1.5181 -0.2210  1.1990
  302MOL0     H40735   9.693   8.953   9.745  1.1170 -1.3139  0.2826
  302MOL0     H40736   9.910   8.986   9.744 -5.1611 -0.8441  3.1797
  302MOL0     H40737   9.867   8.824   9.673  0.3820 -0.2599 -0.6717
  302MOL0     H40738   9.927   8.946   9.437  1.6618  2.7199 -0.3725
  302MOL0     H40739   9.977   9.073   9.541  2.6328 -0.2566 -0.0312
  302MOL0     H40740  10.145   8.920   9.658 -1.2817  4.5200 -0.7961
  302MOL0     H40741  10.179   8.945   9.501  1.5991  1.7700  1.6905
  302MOL0     H40742  10.077   8.726   9.429  0.7579  1.1858  0.0500
  302MOL0     H40743  10.066   8.684   9.602  1.0625 -1.8052 -0.8454
  302MOL0     H40744  10.337   8.785   9.559  0.0721  0.3651 -0.5697
  302MOL0     H40745  10.281   8.631   9.625 -0.5018 -1.0574 -1.4496
  302MOL0     H40746  10.301   8.694   9.335  1.8469 -1.3723 -1.9794
  302MOL0     H40747  10.272   8.528   9.404  0.7762 -1.4374  2.1956
  302MOL0     H40748  10.494   8.578   9.321  0.4544  2.7914 -0.1984
  302MOL0     H40749  10.520   8.650   9.480 -2.5564  0.5800  2.1240
  302MOL0     H40750   9.478   8.810   9.690 -2.4250 -0.0070  0.7024
  302MOL0     H40751   9.242   8.837   9.678  0.0227 -2.4438 -2.0553
  302MOL0     H40752   8.875   8.883   9.476 -0.3874  0.1530 -0.9086
  302MOL0     H40753   8.654   8.849   9.558 -2.8507  1.1810 -0.2440
  302MOL0     H40754   6.817   8.713  10.474 -2.1751  0.4573  0.9333
  302MOL0     H40755   6.590   8.655  10.484  0.3481 -0.7344 -1.4568
  302MOL0     H40756   6.224   8.512  10.436  1.4650  1.7068  0.1902
  302MOL0     H40757   5.991   8.417  10.459  0.3755  0.2046  0.3118
  302MOL0     H40758   5.763   8.411  10.436 -0.0020  1.0049 -0.0571
  302MOL0     H40759   5.787   8.248  10.378  1.4804 -0.4195  0.3706
  302MOL0     H40760   5.566   8.425  10.265  2.8726  1.4398  0.3891
  302MOL0     H40761   5.534   8.350  10.423  0.7806  0.5018  1.2265
  302MOL0     H40762   5.590   8.119  10.314 -0.3649 -1.0833 -1.2363
  302MOL0     H40763   5.607   8.217  10.168  0.8284 -0.1710 -0.3615
  302MOL0     H40764   5.406   8.105  10.158 -3.6878 -1.4985  1.7444
  302MOL0     H40765   5.348   8.164  10.310  1.7458 -0.6339  0.3710
  302MOL0     H40766   5.253   8.526  10.128  0.5128  0.6559 -0.6906
  302MOL0     H40767   5.931   8.454  10.035 -0.4985  2.5968  0.5646
  302MOL0     H40768   6.112   8.527   9.890 -2.1549  0.2768  1.6811
  302MOL0     H40769   6.187   8.676   9.954 -1.9976  0.1475 -2.9729
  302MOL0     H40770   6.270   8.509   9.950  0.9952  0.8793  0.4969
  303MOL0     O40771   3.936   6.540   9.396  0.0910 -0.2686  0.5962
  303MOL0     C40772   4.049   6.590   9.388 -0.1698 -0.4749  0.1863
  303MOL0     O40773   4.130   6.607   9.494 -0.5627  0.3903 -0.0483
  303MOL0     C40774   4.099   6.551   9.613  0.6094  0.3522  0.2513
  303MOL0     C40775   4.186   6.454   9.640  0.4884 -0.0485 -0.2478
  303MOL0     C40776   4.177   6.378   9.755 -0.8699 -0.3242 -0.7235
  303MOL0     C40777   4.070   6.396   9.844 -0.2574  1.1286  1.4605
  303MOL0     O40778   4.069   6.315   9.958  0.4879  0.4666 -0.6397
  303MOL0     C40779   3.984   6.342  10.072  1.1574 -0.3698 -0.1072
  303MOL0     C40780   4.013   6.473  10.148  0.2837  0.1349 -0.5037
  303MOL0     C40781   4.159   6.461  10.203  0.5325  0.2174  0.5815
  303MOL0     C40782   4.235   6.589  10.204  0.4784 -0.8025  0.2470
  303MOL0     C40783   4.297   6.630  10.074  0.0774 -0.2518 -0.6634
  303MOL0     C40784   4.368   6.767  10.086  0.6335  0.2514 -0.3111
  303MOL0     C40785   4.452   6.806   9.965  0.4972  0.1987 -0.1693
  303MOL0     C40786   4.397   6.775   9.829 -0.7157  0.9111 -0.0298
  303MOL0     N40787   4.487   6.849   9.732 -0.0992  0.0319 -0.1449
  303MOL0     C40788   4.443   6.914   9.620 -0.9189 -0.5911  0.2153
  303MOL0     C40789   4.560   6.947   9.553 -0.7424  0.2227  0.3882
  303MOL0     C40790   4.570   7.031   9.437 -0.5050 -0.0907 -0.5166
  303MOL0     C40791   4.474   6.989   9.323  0.3005 -0.3276 -0.0327
  303MOL0     C40792   4.480   7.089   9.210  1.1171 -0.5017  0.0770
  303MOL0     C40793   4.397   7.039   9.091  0.6400 -0.1804  0.1753
  303MOL0     O40794   4.473   6.940   9.018  0.4914 -0.3652  0.7102
  303MOL0     C40795   4.539   6.980   8.898  0.3223  0.0958 -0.3410
  303MOL0     C40796   4.604   7.100   8.884  0.2473 -0.0239 -0.6434
  303MOL0     C40797   4.672   7.134   8.760  0.8412 -0.4009 -0.8696
  303MOL0     C40798   4.673   7.041   8.657 -0.3027 -0.7682  0.0659
  303MOL0     C40799   4.772   7.045   8.547  0.0486 -0.4618 -0.2676
  303MOL0     O40800   4.780   6.927   8.467 -0.5037  0.0233 -0.3347
  303MOL0     C40801   4.826   6.954   8.341 -0.1940 -0.1420  0.5093
  303MOL0     C40802   4.751   7.021   8.245  0.9028  0.3002  1.1498
  303MOL0     C40803   4.809   7.069   8.120 -0.1109  0.6658  0.4281
  303MOL0     C40804   4.939   7.037   8.099 -0.4542 -0.8391 -0.2654
  303MOL0     O40805   5.021   7.083   7.996 -0.5263  0.4629 -0.5694
  303MOL0     C40806   4.998   7.219   7.959  0.2605  0.4225 -0.3801
  303MOL0     C40807   5.083   7.264   7.841  0.0726  0.2333  0.2766
  303MOL0     C40808   5.044   7.202   7.703  0.5986 -0.0287 -0.4766
  303MOL0     C40809   4.891   7.219   7.675  0.6533  1.0410 -0.2299
  303MOL0     C40810   4.854   7.177   7.515  0.4569  0.0892  0.3067
  303MOL0     C40811   4.708   7.227   7.502  0.3211 -0.3481  0.6645
  303MOL0     C40812   4.663   7.242   7.358  0.1573  0.7045 -1.0022
  303MOL0     C40813   4.523   7.303   7.349 -0.3409 -0.5439  1.6250
  303MOL0    Cl40814   4.409   7.214   7.459  0.4714  0.0539 -0.8890
  303MOL0     C40815   5.018   6.953   8.193  0.1590  0.6625 -0.3304
  303MOL0     C40816   4.955   6.911   8.311  0.1985 -1.0196  0.0024
  303MOL0     O40817   4.830   7.148   8.531  1.0268 -0.2686  0.0975
  303MOL0     C40818   4.605   6.922   8.675  0.6687 -0.7141 -0.4308
  303MOL0     C40819   4.533   6.889   8.794 -0.0800 -0.3210  0.2587
  303MOL0     N40820   4.671   6.901   9.625  0.1590  1.2921 -0.1846
  303MOL0     N40821   4.624   6.850   9.733 -0.0707  0.0701  0.7261
  303MOL0     C40822   3.973   6.498   9.809  0.4141 -0.3467 -0.7053
  303MOL0     C40823   3.983   6.570   9.688 -1.3767  0.5463  0.7811
  303MOL0     C40824   4.098   6.648   9.257 -0.8457  1.3627 -0.0748
  303MOL0     C40825   4.002   6.688   9.167  0.1171 -0.0874  0.4268
  303MOL0     C40826   4.030   6.739   9.040  0.1580 -0.5494 -1.4087
  303MOL0     C40827   4.163   6.745   8.999  0.1106 -0.2505 -0.6557
  303MOL0     O40828   4.205   6.787   8.870 -0.3069 -0.1039 -0.5667
  303MOL0     C40829   4.099   6.788   8.771 -0.1562  0.2402  0.9775
  303MOL0     C40830   4.176   6.772   8.637 -0.7944  0.0666  0.0052
  303MOL0     C40831   4.216   6.903   8.586 -0.1997 -0.4465 -0.2481
  303MOL0     C40832   4.271   6.890   8.446  0.3170 -0.0366 -0.5801
  303MOL0     C40833   4.365   7.003   8.403  0.3930  0.0556  0.2400
  303MOL0     C40834   4.425   7.100   8.367  0.1962  0.1990 -0.3289
  303MOL0     C40835   4.268   6.709   9.090 -0.3232  0.3263  0.2916
  303MOL0     C40836   4.237   6.666   9.220 -0.6839  0.6896  0.4282
  303MOL0     C40837   4.341   6.599   9.307 -0.5019  0.4641 -0.4331
  303MOL0     H40838   4.270   6.441   9.573  2.1761 -2.1095  2.0464
  303MOL0     H40839   4.263   6.316   9.781 -0.5047  1.0561  1.6292
  303MOL0     H40840   3.886   6.334  10.023  1.0598  0.4330 -0.0699
  303MOL0     H40841   3.997   6.260  10.143 -0.6256 -1.6587 -1.1835
  303MOL0     H40842   3.944   6.481  10.232  0.7676  2.2421 -0.2509
  303MOL0     H40843   3.993   6.548  10.070 -4.3260 -1.6881 -1.4311
  303MOL0     H40844   4.206   6.397  10.127 -1.0813  2.1230 -2.2370
  303MOL0     H40845   4.151   6.416  10.302 -1.5147  0.1490  0.4373
  303MOL0     H40846   4.168   6.670  10.236  0.9260 -0.2102 -0.2783
  303MOL0     H40847   4.310   6.579  10.283 -1.6494 -1.3811  2.3126
  303MOL0     H40848   4.371   6.556  10.038  0.1625  0.0762 -1.1758
  303MOL0     H40849   4.218   6.627   9.998 -1.2663 -0.0052  0.6838
  303MOL0     H40850   4.291   6.844  10.097 -0.2622 -0.7079  0.3027
  303MOL0     H40851   4.425   6.770  10.179  3.3509  3.3459 -1.8497
  303MOL0     H40852   4.550   6.760   9.981  0.9032  0.8265 -0.8080
  303MOL0     H40853   4.468   6.912   9.986  4.2216 -0.6022  1.9632
  303MOL0     H40854   4.391   6.667   9.812 -0.4272  0.8187  0.4193
  303MOL0     H40855   4.297   6.815   9.810 -0.6603  2.7824  2.9460
  303MOL0     H40856   4.341   6.940   9.595 -1.1827  0.2593  2.0199
  303MOL0     H40857   4.551   7.134   9.468  0.8109  0.2098 -0.6143
  303MOL0     H40858   4.670   7.035   9.393  0.2445 -0.4324  1.0879
  303MOL0     H40859   4.492   6.889   9.284  0.7324 -0.0582 -0.5384
  303MOL0     H40860   4.376   7.011   9.367  0.4511 -1.5729  0.9798
  303MOL0     H40861   4.584   7.106   9.180  1.7941 -2.5361  1.1160
  303MOL0     H40862   4.451   7.188   9.248  2.9618  0.2261 -0.2936
  303MOL0     H40863   4.361   7.118   9.024 -0.3581 -2.1296 -1.6912
  303MOL0     H40864   4.306   6.991   9.128  1.4915  0.6313  3.7240
  303MOL0     H40865   4.620   7.175   8.961 -5.2369 -0.7051  1.6164
  303MOL0     H40866   4.737   7.222   8.762  1.3046 -0.5963 -3.4884
  303MOL0     H40867   4.644   7.017   8.260 -0.0193 -3.0950 -3.9372
  303MOL0     H40868   4.759   7.133   8.048 -0.5382 -0.5722 -0.4057
  303MOL0     H40869   4.895   7.250   7.940 -0.2319 -1.1607 -0.4337
  303MOL0     H40870   5.023   7.282   8.045 -1.1981  2.9260 -1.7009
  303MOL0     H40871   5.068   7.370   7.820 -1.3788 -0.6954 -4.4933
  303MOL0     H40872   5.184   7.233   7.872 -1.1920 -2.2961  2.2342
  303MOL0     H40873   5.104   7.256   7.628 -0.6001  0.9011 -0.8035
  303MOL0     H40874   5.061   7.094   7.698  1.4562 -0.0038  1.3215
  303MOL0     H40875   4.864   7.325   7.685 -4.2910 -0.1996  2.6179
  303MOL0     H40876   4.835   7.153   7.741  1.6440 -1.7295 -2.0195
  303MOL0     H40877   4.858   7.071   7.490 -2.2601 -0.0152 -0.0088
  303MOL0     H40878   4.923   7.237   7.456  0.5011  0.0976  0.3672
  303MOL0     H40879   4.643   7.157   7.554  2.3656 -2.0411  1.0788
  303MOL0     H40880   4.692   7.323   7.551 -3.8899 -0.8651  0.5981
  303MOL0     H40881   4.664   7.138   7.324 -0.0609  0.3849 -0.0393
  303MOL0     H40882   4.735   7.291   7.291  0.8681  0.2271 -0.5995
  303MOL0     H40883   4.538   7.404   7.389 -1.1940  0.0233  0.5778
  303MOL0     H40884   4.492   7.303   7.244  2.4580  1.4726  0.6609
  303MOL0     H40885   5.119   6.929   8.162 -0.0727  0.3258 -0.8373
  303MOL0     H40886   5.006   6.846   8.382  0.8822  1.2130  1.6532
  303MOL0     H40887   4.610   6.845   8.598 -0.1300 -1.1727 -0.0342
  303MOL0     H40888   4.486   6.792   8.801 -0.6285 -0.0242  0.7190
  303MOL0     H40889   3.893   6.520   9.880  1.1150  0.1248 -0.0464
  303MOL0     H40890   3.910   6.643   9.657 -0.1143  3.2370  3.5824
  303MOL0     H40891   3.898   6.690   9.197  0.7334  4.3411  3.2105
  303MOL0     H40892   3.951   6.774   8.974 -1.4908  0.2549  0.8490
  303MOL0     H40893   4.046   6.883   8.769 -2.8909 -1.1689  1.7376
  303MOL0     H40894   4.030   6.703   8.777  0.7697 -0.4288  2.7988
  303MOL0     H40895   4.111   6.717   8.568  0.4241 -1.5756  0.1191
  303MOL0     H40896   4.267   6.712   8.644 -0.9454 -0.0823  0.6951
  303MOL0     H40897   4.295   6.954   8.641  0.0824  1.8716 -2.5990
  303MOL0     H40898   4.132   6.971   8.579  0.3150 -0.0004 -3.8797
  303MOL0     H40899   4.314   6.794   8.418 -1.4637 -0.5401 -1.7426
  303MOL0     H40900   4.191   6.895   8.372  0.5923 -0.0788 -0.8857
  303MOL0     H40901   4.475   7.190   8.341  1.1709  0.2812  1.6631
  303MOL0     H40902   4.373   6.696   9.065  0.1253 -1.9801  2.8219
  303MOL0     H40903   4.350   6.647   9.405 -3.1898  0.7013 -0.2154
  303MOL0     H40904   4.319   6.494   9.330 -1.0695  0.5353 -0.6328
  303MOL0     H40905   4.437   6.596   9.257 -1.2534 -1.6862 -1.8837
  304MOL0     O40906   4.727   3.840   9.013 -0.5331 -0.7892 -0.5860
  304MOL0     C40907   4.842   3.810   8.986  0.6858  0.1148  0.6816
  304MOL0     O40908   4.883   3.686   8.963  0.7080  0.0457 -0.6385
  304MOL0     C40909   4.797   3.575   8.943 -0.1292 -0.0403  0.5048
  304MOL0     C40910   4.852   3.455   8.971 -0.1626  0.5776  0.5919
  304MOL0     C40911   4.778   3.336   8.959  0.5308 -1.0984  0.5128
  304MOL0     C40912   4.644   3.336   8.919  0.5249 -0.0808 -0.4663
  304MOL0     O40913   4.578   3.224   8.889 -0.5415 -0.1622 -0.4715
  304MOL0     C40914   4.434   3.219   8.889 -0.9978  0.9741  0.2021
  304MOL0     C40915   4.373   3.081   8.914  0.9826  0.0098 -0.1111
  304MOL0     C40916   4.232   3.079   8.952 -0.3969 -0.0232 -0.4967
  304MOL0     C40917   4.154   3.167   8.844 -0.3497  0.4963 -1.1239
  304MOL0     C40918   4.015   3.112   8.865 -0.1642 -0.1079 -0.6087
  304MOL0     C40919   3.926   3.191   8.766  1.6799  0.4791 -0.1951
  304MOL0     C40920   3.787   3.135   8.767  0.6818 -0.2703  0.1972
  304MOL0     C40921   3.718   3.104   8.900 -0.0831 -0.1747  0.2127
  304MOL0     N40922   3.571   3.088   8.868 -0.1189 -0.7528 -0.4600
  304MOL0     C40923   3.483   3.187   8.834 -0.5350 -0.4273  0.7705
  304MOL0     C40924   3.367   3.135   8.847  0.4298  0.2160  1.2846
  304MOL0     C40925   3.230   3.195   8.832  0.0430  1.1134  0.3725
  304MOL0     C40926   3.151   3.186   8.961  0.4917  0.2168  0.5089
  304MOL0     C40927   3.182   3.292   9.058 -0.5293 -0.3052  0.3965
  304MOL0     C40928   3.139   3.284   9.201  0.2003  0.1281 -0.0997
  304MOL0     O40929   3.208   3.189   9.276  0.7062  0.0572 -0.4903
  304MOL0     C40930   3.346   3.173   9.277 -0.3998 -0.1817 -0.3229
  304MOL0     C40931   3.399   3.058   9.229 -0.6218  0.3963 -0.0031
  304MOL0     C40932   3.539   3.032   9.224 -0.1319  0.0890 -0.1840
  304MOL0     C40933   3.628   3.138   9.260  0.1425  0.5583 -0.7099
  304MOL0     C40934   3.769   3.122   9.258 -0.7939 -0.2927 -0.8113
  304MOL0     O40935   3.822   2.994   9.266  0.5970 -0.0589 -0.2023
  304MOL0     C40936   3.953   2.987   9.281 -0.0696  0.8785 -0.3857
  304MOL0     C40937   4.040   2.920   9.194  0.3019  0.4809 -0.0792
  304MOL0     C40938   4.166   2.871   9.237  0.0655  0.3046 -0.4223
  304MOL0     C40939   4.210   2.911   9.367  1.8788 -0.5793  0.4867
  304MOL0     O40940   4.327   2.864   9.412  0.2405  1.0665  0.6386
  304MOL0     C40941   4.447   2.912   9.355  0.2657 -0.1559  0.0082
  304MOL0     C40942   4.474   3.053   9.400 -0.5302  0.3929  0.0916
  304MOL0     C40943   4.602   3.107   9.333 -0.6946  0.6407 -1.1376
  304MOL0     C40944   4.640   3.235   9.396  0.2690 -0.5431 -0.0484
  304MOL0     C40945   4.674   3.336   9.287 -0.1967  0.0197  0.0226
  304MOL0     C40946   4.710   3.468   9.366  0.5183 -0.4474  0.7331
  304MOL0     C40947   4.764   3.589   9.275  0.0798 -0.0230 -0.0423
  304MOL0     C40948   4.766   3.719   9.360  0.2133  0.4125  0.9057
  304MOL0    Cl40949   4.875   3.698   9.499  0.7909  0.1971  0.7722
  304MOL0     C40950   4.124   2.983   9.448  0.0819  0.6420  0.1431
  304MOL0     C40951   4.005   3.021   9.408 -0.7529  0.0637  0.5626
  304MOL0     O40952   3.834   3.227   9.242  0.8618  0.5741 -0.3542
  304MOL0     C40953   3.571   3.265   9.311 -0.4089  0.0689 -0.4810
  304MOL0     C40954   3.428   3.279   9.321  0.6372 -0.2929 -0.2972
  304MOL0     N40955   3.371   3.006   8.884  0.8452  0.5736  0.2167
  304MOL0     N40956   3.494   2.976   8.896  0.2442  0.0834 -0.0108
  304MOL0     C40957   4.588   3.460   8.885 -0.8345  0.0162 -0.8811
  304MOL0     C40958   4.663   3.579   8.898  0.0956 -0.5412  0.1232
  304MOL0     C40959   4.947   3.910   8.993  0.1704 -0.5668  0.4421
  304MOL0     C40960   5.080   3.866   8.983  0.7871 -0.3694  0.0577
  304MOL0     C40961   5.193   3.948   8.973  0.0557 -0.2183  0.2202
  304MOL0     C40962   5.180   4.086   8.989  0.4438  0.4188  0.0161
  304MOL0     O40963   5.281   4.180   8.976 -0.4174 -0.1905 -0.7952
  304MOL0     C40964   5.421   4.148   8.989  0.8286 -0.5918  0.2061
  304MOL0     C40965   5.450   4.112   9.133  0.0338 -1.2414  0.2659
  304MOL0     C40966   5.597   4.160   9.168 -0.9113  0.3232  0.9520
  304MOL0     C40967   5.712   4.114   9.071  0.0331  0.0287  0.4208
  304MOL0     C40968   5.709   3.971   9.047  0.1333  0.5897 -0.7525
  304MOL0     C40969   5.695   3.860   9.034 -0.4043 -0.2190  0.1559
  304MOL0     C40970   5.048   4.126   9.018 -0.3834  0.2811 -0.8700
  304MOL0     C40971   4.931   4.047   9.014  0.3004  0.0423 -0.3944
  304MOL0     C40972   4.802   4.109   9.052 -0.1273 -0.0635  0.7987
  304MOL0     H40973   4.953   3.449   9.011 -0.2744 -1.7183  0.6945
  304MOL0     H40974   4.820   3.238   8.979 -1.6495 -1.6620  2.9584
  304MOL0     H40975   4.398   3.286   8.968 -3.7340 -1.3171  1.0721
  304MOL0     H40976   4.393   3.256   8.795 -3.3289  2.4070  1.6714
  304MOL0     H40977   4.433   3.033   8.992 -1.3277 -0.3546  1.5461
  304MOL0     H40978   4.386   3.023   8.822  1.8803  0.9396 -0.5956
  304MOL0     H40979   4.220   3.124   9.051 -1.6980  1.0778 -1.1339
  304MOL0     H40980   4.205   2.973   8.949  3.0745 -1.0696 -4.2157
  304MOL0     H40981   4.153   3.275   8.854 -1.8400  0.5263 -1.3305
  304MOL0     H40982   4.185   3.134   8.745  0.5197 -4.4783  0.4993
  304MOL0     H40983   4.027   3.005   8.850  3.5411  0.2770 -1.2791
  304MOL0     H40984   3.979   3.127   8.967  1.1266 -6.4774  1.1899
  304MOL0     H40985   3.914   3.293   8.802  2.4590 -0.2057  2.2032
  304MOL0     H40986   3.960   3.184   8.662  0.4322 -3.1971 -0.5172
  304MOL0     H40987   3.777   3.053   8.695  0.6893 -0.3240  0.2575
  304MOL0     H40988   3.732   3.222   8.729  1.2876 -0.9946 -2.5909
  304MOL0     H40989   3.767   3.014   8.937  1.7320  0.3761 -0.7277
  304MOL0     H40990   3.721   3.187   8.972  0.5644 -1.3811  1.6337
  304MOL0     H40991   3.503   3.292   8.819  1.7629 -1.1540 -1.9497
  304MOL0     H40992   3.244   3.300   8.806 -3.3562  1.3641 -0.9095
  304MOL0     H40993   3.182   3.144   8.748  2.7972  1.4559 -1.5210
  304MOL0     H40994   3.046   3.194   8.930  0.5432  1.0038  0.5217
  304MOL0     H40995   3.171   3.087   9.002  1.3876 -1.3882 -3.3435
  304MOL0     H40996   3.124   3.380   9.029  0.8374  1.6236  3.0815
  304MOL0     H40997   3.288   3.318   9.057 -0.8929  1.4294 -1.7466
  304MOL0     H40998   3.031   3.269   9.201 -0.0288  1.5549 -0.9880
  304MOL0     H40999   3.158   3.384   9.243  2.9266  0.7614 -2.5374
  304MOL0     H41000   3.331   2.977   9.203 -0.2137  0.8227 -2.6825
  304MOL0     H41001   3.588   2.941   9.192  0.7355  0.9885 -1.5231
  304MOL0     H41002   3.988   2.887   9.104 -0.3770 -1.9753  1.1270
  304MOL0     H41003   4.225   2.804   9.176  0.7319 -0.7613  1.3179
  304MOL0     H41004   4.531   2.850   9.385 -0.8777 -1.1464  1.3099
  304MOL0     H41005   4.436   2.908   9.246  0.6760  0.9024 -0.0776
  304MOL0     H41006   4.388   3.106   9.357  0.3377 -0.1978 -2.6219
  304MOL0     H41007   4.493   3.054   9.507  1.4549  1.3444 -0.2396
  304MOL0     H41008   4.687   3.038   9.339  1.1334  2.6338 -2.2010
  304MOL0     H41009   4.588   3.122   9.225 -3.0321  1.0278 -0.8352
  304MOL0     H41010   4.720   3.235   9.471 -1.7713 -0.0740  2.2643
  304MOL0     H41011   4.551   3.268   9.452  0.2630 -0.8118  0.1026
  304MOL0     H41012   4.592   3.356   9.218 -1.0570 -2.1398  0.3488
  304MOL0     H41013   4.752   3.293   9.224 -1.7464 -0.9280 -1.3137
  304MOL0     H41014   4.623   3.506   9.420  0.3988  1.2410 -0.5702
  304MOL0     H41015   4.789   3.446   9.438  0.3466 -0.6037  0.8752
  304MOL0     H41016   4.706   3.604   9.183 -0.7378 -0.5849  0.3736
  304MOL0     H41017   4.864   3.566   9.237  0.6184 -0.1896  1.4209
  304MOL0     H41018   4.798   3.795   9.288  0.7209 -2.2632 -1.9177
  304MOL0     H41019   4.672   3.748   9.407  1.7744  3.5920  2.3605
  304MOL0     H41020   4.156   3.016   9.546 -2.9970 -0.2001  1.5635
  304MOL0     H41021   3.946   3.071   9.485  0.5528  0.0548  1.6003
  304MOL0     H41022   3.631   3.351   9.338 -0.5408  0.1910 -0.5713
  304MOL0     H41023   3.390   3.364   9.377  0.6475 -0.0360 -0.6769
  304MOL0     H41024   4.487   3.461   8.847 -0.6389 -0.4043 -1.4131
  304MOL0     H41025   4.619   3.674   8.872 -1.0219 -0.3566  2.4539
  304MOL0     H41026   5.096   3.759   8.983  1.7640 -0.2324 -0.5555
  304MOL0     H41027   5.287   3.897   8.954  0.9411  1.5811 -0.4526
  304MOL0     H41028   5.474   4.240   8.962 -0.2368  0.0312  0.1882
  304MOL0     H41029   5.445   4.075   8.913  1.2063  0.1678 -0.4181
  304MOL0     H41030   5.450   4.002   9.136  0.5091 -1.2263  1.5790
  304MOL0     H41031   5.385   4.171   9.198 -0.5777  1.0197 -2.2137
  304MOL0     H41032   5.625   4.117   9.264  1.7829 -2.3997 -0.8921
  304MOL0     H41033   5.602   4.269   9.170  3.4652  0.4086 -1.7769
  304MOL0     H41034   5.712   4.166   8.975  0.6376  0.9009  0.8845
  304MOL0     H41035   5.810   4.142   9.111  0.2871  1.6012 -1.1499
  304MOL0     H41036   5.685   3.754   9.019  0.1822 -0.4184  1.1038
  304MOL0     H41037   5.043   4.233   9.038  3.4872  1.1090 -3.2320
  304MOL0     H41038   4.746   4.055   9.129  0.3618 -2.2287 -0.2778
  304MOL0     H41039   4.821   4.207   9.095  0.1402  1.1815 -1.9243
  304MOL0     H41040   4.735   4.122   8.966 -0.2074  1.0061  1.0085
  305MOL0     O41041  10.233   2.209   0.336  0.6238 -1.0276  0.1143
  305MOL0     C41042  10.308   2.298   0.300 -1.1188 -0.2416  0.8807
  305MOL0     O41043  10.355   2.321   0.169  0.2110  0.4262  0.3959
  305MOL0     C41044  10.332   2.218   0.074  0.1037 -0.6064 -0.6872
  305MOL0     C41045  10.399   2.094   0.090 -0.5475  0.3760  0.0403
  305MOL0     C41046  10.384   1.983   0.009  0.3034 -0.3150 -0.7784
  305MOL0     C41047  10.298   1.988  -0.095 -0.2026  0.0875 -0.5041
  305MOL0     O41048  10.278   1.884  -0.185 -0.9175  0.8822  0.3943
  305MOL0     C41049  10.307   1.744  -0.136  0.8640  0.6414  0.4376
  305MOL0     C41050  10.289   1.631  -0.244 -0.1171  1.0900 -0.0697
  305MOL0     C41051  10.155   1.586  -0.286 -0.6276 -0.8898  1.2946
  305MOL0     C41052  10.172   1.457  -0.373 -0.2684  0.5802 -0.5717
  305MOL0     C41053  10.052   1.439  -0.465  0.5875  0.0043 -0.1950
  305MOL0     C41054  10.077   1.308  -0.546 -0.2006  0.6106  0.0891
  305MOL0     C41055   9.947   1.278  -0.625 -0.1593  0.0437  0.0971
  305MOL0     C41056   9.926   1.359  -0.745  0.5508  0.0473  0.5167
  305MOL0     N41057   9.804   1.314  -0.813 -0.1945  0.2704 -0.0383
  305MOL0     C41058   9.674   1.352  -0.772 -0.0304 -0.5059  0.4280
  305MOL0     C41059   9.593   1.294  -0.855 -0.2525  0.2279  0.4836
  305MOL0     C41060   9.441   1.295  -0.852  0.2205  0.3923  0.6022
  305MOL0     C41061   9.376   1.180  -0.770  0.0778 -1.1082 -0.0376
  305MOL0     C41062   9.226   1.186  -0.741  0.6096  0.2330  0.6139
  305MOL0     C41063   9.188   1.299  -0.645 -0.3396 -0.2152  0.2040
  305MOL0     O41064   9.238   1.266  -0.504  0.0225 -0.4452  0.3595
  305MOL0     C41065   9.336   1.337  -0.443 -0.9188 -0.1901  0.0989
  305MOL0     C41066   9.385   1.464  -0.491  0.1116  0.0718  0.5581
  305MOL0     C41067   9.485   1.526  -0.414 -0.5584  0.5102  0.8540
  305MOL0     C41068   9.536   1.468  -0.300 -0.0053  0.0852  0.2400
  305MOL0     C41069   9.655   1.534  -0.241  0.6772 -0.3851 -0.5521
  305MOL0     O41070   9.649   1.674  -0.222  0.2830  0.8552 -0.4253
  305MOL0     C41071   9.736   1.724  -0.130 -0.4680 -0.3151  0.6773
  305MOL0     C41072   9.730   1.672   0.003  0.1292 -0.1389  0.8713
  305MOL0     C41073   9.817   1.720   0.088 -0.4499  0.6380  0.0397
  305MOL0     C41074   9.911   1.819   0.049  0.3066 -0.0151  0.1426
  305MOL0     O41075   9.998   1.838   0.149 -0.2111 -0.3856  0.3291
  305MOL0     C41076  10.032   1.977   0.177  0.7571  0.5567  0.0229
  305MOL0     C41077   9.921   2.056   0.257 -0.4253  0.6284  0.0973
  305MOL0     C41078   9.871   1.973   0.381  0.5285 -0.0911  0.1348
  305MOL0     C41079   9.980   1.954   0.486  0.3474 -0.0114 -0.5982
  305MOL0     C41080   9.922   1.911   0.620  0.2919  0.3246 -0.4954
  305MOL0     C41081  10.038   1.876   0.726 -0.5574  0.4678  0.4852
  305MOL0     C41082   9.995   1.800   0.853 -0.4043 -0.7050 -0.2220
  305MOL0     C41083   9.929   1.893   0.963 -0.6482 -0.6219  0.0955
  305MOL0    Cl41084   9.863   1.794   1.091 -0.1395 -0.2859 -0.5241
  305MOL0     C41085   9.910   1.879  -0.077 -0.3192  0.3116  0.1002
  305MOL0     C41086   9.818   1.826  -0.166  1.0891 -0.3771 -0.5122
  305MOL0     O41087   9.753   1.465  -0.206 -0.0215  1.1701  0.0948
  305MOL0     C41088   9.490   1.349  -0.254 -0.3331  0.0631  0.9224
  305MOL0     C41089   9.390   1.282  -0.328  0.3097  0.2157  0.0740
  305MOL0     N41090   9.676   1.218  -0.943 -0.0425  1.1834  0.1842
  305MOL0     N41091   9.800   1.236  -0.923 -0.2760  0.1350  0.3920
  305MOL0     C41092  10.228   2.112  -0.117  0.2355  0.4887  0.2511
  305MOL0     C41093  10.245   2.225  -0.032  0.7309 -0.1942  0.0475
  305MOL0     C41094  10.368   2.382   0.402 -0.1442 -1.1188  0.3323
  305MOL0     C41095  10.360   2.346   0.537  0.8391 -0.4300  0.4461
  305MOL0     C41096  10.416   2.416   0.641 -0.4139  0.0916 -1.2873
  305MOL0     C41097  10.474   2.541   0.615  0.6520  1.0103 -0.6772
  305MOL0     O41098  10.535   2.599   0.721 -0.8834  0.3922  0.1373
  305MOL0     C41099  10.551   2.740   0.741 -0.4671 -0.2351 -0.4472
  305MOL0     C41100  10.659   2.814   0.656  0.1365 -0.3748 -0.2938
  305MOL0     C41101  10.786   2.722   0.649 -0.0673 -0.2860 -1.0647
  305MOL0     C41102  10.889   2.791   0.562 -0.0172  0.3618  0.0129
  305MOL0     C41103  10.860   2.763   0.429 -0.9997  0.0654  0.2441
  305MOL0     C41104  10.850   2.732   0.312  0.3293  0.0908 -0.5798
  305MOL0     C41105  10.470   2.591   0.491  0.0835 -0.3204  0.1005
  305MOL0     C41106  10.413   2.521   0.382 -0.6065 -0.6695 -0.5967
  305MOL0     C41107  10.415   2.581   0.247  0.2330 -0.0692  0.5255
  305MOL0     H41108  10.473   2.099   0.169  0.8114  0.8193 -1.2239
  305MOL0     H41109  10.452   1.902   0.035  0.8335  0.7192  1.2917
  305MOL0     H41110  10.411   1.746  -0.101  1.3393  0.6925 -0.9176
  305MOL0     H41111  10.238   1.725  -0.054  0.9130 -1.5411  0.0269
  305MOL0     H41112  10.336   1.543  -0.199 -2.5067  1.4708  3.5645
  305MOL0     H41113  10.345   1.657  -0.335 -0.7191  1.2182 -0.4055
  305MOL0     H41114  10.112   1.671  -0.340 -0.1847 -0.9030  0.9125
  305MOL0     H41115  10.088   1.569  -0.202  0.8914 -2.0723  2.3247
  305MOL0     H41116  10.264   1.456  -0.432  0.2006  0.3987  0.1531
  305MOL0     H41117  10.178   1.373  -0.304 -0.4069 -0.3574 -1.6664
  305MOL0     H41118   9.957   1.433  -0.412 -1.0098  1.8769 -2.6175
  305MOL0     H41119  10.049   1.523  -0.536 -0.7288 -2.4054 -3.1927
  305MOL0     H41120  10.161   1.309  -0.616 -1.3996 -1.8877 -1.5445
  305MOL0     H41121  10.085   1.234  -0.466 -1.3287  1.4827  1.0498
  305MOL0     H41122   9.858   1.262  -0.564  1.7171  0.7141  3.2442
  305MOL0     H41123   9.951   1.179  -0.672 -0.4039  0.4811 -0.8803
  305MOL0     H41124   9.919   1.466  -0.723 -0.0710  0.4606 -1.4898
  305MOL0     H41125  10.005   1.337  -0.818 -0.5167  1.1283 -1.0160
  305MOL0     H41126   9.646   1.420  -0.692 -0.4218  0.7301 -0.7361
  305MOL0     H41127   9.402   1.385  -0.804 -0.8805  1.2953 -1.8450
  305MOL0     H41128   9.410   1.284  -0.956  3.0296 -3.3895 -0.0888
  305MOL0     H41129   9.404   1.089  -0.824 -1.2687 -4.0909  3.8040
  305MOL0     H41130   9.435   1.175  -0.679  1.3598 -0.7879 -0.8302
  305MOL0     H41131   9.191   1.094  -0.693 -1.6095  1.1841  0.9157
  305MOL0     H41132   9.177   1.182  -0.838  4.3782 -0.7176 -1.4697
  305MOL0     H41133   9.079   1.292  -0.642 -0.3245 -0.3684  2.1423
  305MOL0     H41134   9.220   1.399  -0.676  0.2048  0.1265  1.7665
  305MOL0     H41135   9.343   1.523  -0.571  1.5000  2.1007  1.2595
  305MOL0     H41136   9.514   1.624  -0.452 -0.2737  0.4050  0.7998
  305MOL0     H41137   9.660   1.595   0.033 -0.7502 -0.4934 -1.7957
  305MOL0     H41138   9.817   1.678   0.188  0.3219 -1.8776 -0.9181
  305MOL0     H41139  10.125   1.986   0.234 -0.6728  1.9080  2.3137
  305MOL0     H41140  10.058   2.026   0.082 -1.2407 -3.2923 -2.7631
  305MOL0     H41141   9.939   2.158   0.291  2.0261  0.6642 -1.0492
  305MOL0     H41142   9.841   2.080   0.187  1.1903  2.1477 -1.3313
  305MOL0     H41143   9.782   2.018   0.425 -2.2118 -0.4127 -4.3911
  305MOL0     H41144   9.847   1.872   0.346  1.4947  0.5740 -2.7326
  305MOL0     H41145  10.029   2.050   0.500  1.2074 -0.3791 -1.0335
  305MOL0     H41146  10.058   1.887   0.450 -0.0478  0.8872 -3.3207
  305MOL0     H41147   9.875   1.812   0.614  0.8027  0.0768 -0.4728
  305MOL0     H41148   9.856   1.988   0.659  0.8857  0.5678  0.0389
  305MOL0     H41149  10.104   1.801   0.680 -0.5503 -0.2765  1.6559
  305MOL0     H41150  10.098   1.965   0.744  2.9231 -1.9525  2.1552
  305MOL0     H41151  10.078   1.752   0.904  1.0573 -0.1907 -2.0027
  305MOL0     H41152   9.926   1.720   0.822 -0.3557 -0.9481  0.2898
  305MOL0     H41153  10.011   1.954   1.003  1.5160 -2.4840 -1.2797
  305MOL0     H41154   9.841   1.942   0.922 -3.1205 -4.3464  0.4456
  305MOL0     H41155   9.983   1.953  -0.107  0.9864 -1.1132 -0.3390
  305MOL0     H41156   9.814   1.868  -0.266  1.9063 -1.5974 -1.0897
  305MOL0     H41157   9.518   1.310  -0.157 -0.2975  1.2999  1.4204
  305MOL0     H41158   9.349   1.189  -0.292 -3.0397  2.3329  2.2862
  305MOL0     H41159  10.175   2.128  -0.210 -0.2554 -2.3541 -0.0449
  305MOL0     H41160  10.193   2.319  -0.042  1.2298  0.2009  1.0498
  305MOL0     H41161  10.313   2.250   0.554 -0.8543 -0.0349 -1.5799
  305MOL0     H41162  10.412   2.371   0.740 -0.2555 -1.3407 -1.9123
  305MOL0     H41163  10.571   2.756   0.847  0.8288 -1.3402 -0.5149
  305MOL0     H41164  10.452   2.782   0.718 -1.8629 -3.9375 -1.8879
  305MOL0     H41165  10.673   2.914   0.698 -0.7997  0.0039 -0.8371
  305MOL0     H41166  10.637   2.841   0.552  3.7322  3.2787 -0.3544
  305MOL0     H41167  10.756   2.630   0.598 -2.2375  0.9022 -2.0728
  305MOL0     H41168  10.825   2.707   0.751 -1.0494  1.8991 -0.3154
  305MOL0     H41169  10.922   2.895   0.576  1.2285 -0.0366  0.2087
  305MOL0     H41170  10.979   2.729   0.572 -1.2378 -1.7785 -1.6720
  305MOL0     H41171  10.846   2.715   0.207 -0.1575 -0.1622 -0.5245
  305MOL0     H41172  10.514   2.690   0.480  2.1256 -1.0513  1.1707
  305MOL0     H41173  10.441   2.686   0.263  0.1301 -0.3507  2.9297
  305MOL0     H41174  10.485   2.536   0.176  0.8798 -1.3285  1.8861
  305MOL0     H41175  10.317   2.593   0.201  0.5816 -0.7803 -0.4207
  306MOL0     O41176   3.904   4.125   4.386 -0.0312 -0.0201  0.2994
  306MOL0     C41177   3.852   4.016   4.407  0.2290 -0.4533  0.5305
  306MOL0     O41178   3.906   3.912   4.481 -0.0339 -1.1140  0.4085
  306MOL0     C41179   4.043   3.919   4.504 -0.5115 -0.8871 -0.1488
  306MOL0     C41180   4.078   3.900   4.643 -0.1680  0.6307  0.1444
  306MOL0     C41181   4.217   3.903   4.676  0.5038 -0.6224  0.2430
  306MOL0     C41182   4.311   3.926   4.581  0.6852 -0.3053  0.0637
  306MOL0     O41183   4.441   3.938   4.623 -0.4503  0.4560 -0.0857
  306MOL0     C41184   4.538   3.999   4.534 -0.5448 -0.4986 -0.2258
  306MOL0     C41185   4.678   3.973   4.602  0.4435  1.4648 -0.1894
  306MOL0     C41186   4.782   4.066   4.548  0.4991 -0.6397  0.2966
  306MOL0     C41187   4.756   4.215   4.574  0.5497 -0.6825 -1.1653
  306MOL0     C41188   4.867   4.320   4.530 -0.4505  0.3887  0.3797
  306MOL0     C41189   4.852   4.441   4.616  0.7521  0.2877  0.4718
  306MOL0     C41190   4.942   4.567   4.595 -1.0916 -0.2494  0.4271
  306MOL0     C41191   4.860   4.696   4.598 -0.6242  0.7223 -0.9235
  306MOL0     N41192   4.939   4.801   4.558 -0.2213  0.2460  0.5217
  306MOL0     C41193   4.963   4.832   4.428 -0.5469 -0.5584 -0.1744
  306MOL0     C41194   5.004   4.962   4.422  0.4192  0.7071  0.0366
  306MOL0     C41195   5.043   5.044   4.301  0.5648  0.6801  0.3896
  306MOL0     C41196   5.191   5.051   4.286  0.3538 -0.2457 -1.4407
  306MOL0     C41197   5.244   5.150   4.181 -0.7035  0.1195 -0.0398
  306MOL0     C41198   5.396   5.164   4.181 -0.0721  0.4117  0.5474
  306MOL0     O41199   5.460   5.037   4.176  0.7603  0.3713 -0.1662
  306MOL0     C41200   5.596   5.040   4.179  0.3743  0.1551 -0.1690
  306MOL0     C41201   5.671   5.136   4.108 -0.2667  0.7668  0.9897
  306MOL0     C41202   5.808   5.132   4.105 -0.3545 -0.6981 -0.1637
  306MOL0     C41203   5.872   5.028   4.165 -1.2244  0.3536  0.3228
  306MOL0     C41204   6.023   5.021   4.158  0.5435 -0.2426 -0.3974
  306MOL0     O41205   6.088   5.127   4.103  0.6331  0.0254  0.1587
  306MOL0     C41206   6.222   5.114   4.084  0.0885  0.2500  0.3015
  306MOL0     C41207   6.313   5.161   4.177  0.5356  0.4124  0.6085
  306MOL0     C41208   6.446   5.137   4.163 -0.1136 -0.7251  0.8538
  306MOL0     C41209   6.494   5.062   4.056 -0.2945  1.6110  0.0623
  306MOL0     O41210   6.629   5.022   4.031  0.6198  1.1996  0.6075
  306MOL0     C41211   6.721   5.070   4.132  0.9746  0.0798 -0.6664
  306MOL0     C41212   6.860   5.032   4.099 -0.3104 -0.1428  0.0206
  306MOL0     C41213   6.953   5.099   4.201 -0.0619  0.1088 -0.2076
  306MOL0     C41214   7.103   5.064   4.176 -0.2093  0.2413  0.1819
  306MOL0     C41215   7.201   5.136   4.270 -0.6815  0.0608  0.3177
  306MOL0     C41216   7.348   5.115   4.224 -0.3645  0.0181  0.6033
  306MOL0     C41217   7.449   5.172   4.339 -0.2761  0.8544  0.6192
  306MOL0     C41218   7.585   5.167   4.277 -0.1963 -0.8395 -0.2777
  306MOL0    Cl41219   7.711   5.227   4.394  0.2008  0.0187 -0.0549
  306MOL0     C41220   6.400   5.015   3.965 -0.3262  0.2364  0.1420
  306MOL0     C41221   6.268   5.039   3.983  0.9190 -0.1699  0.2216
  306MOL0     O41222   6.080   4.922   4.214 -0.0405 -0.1097  0.0452
  306MOL0     C41223   5.800   4.925   4.225  1.0444  0.3876  0.6096
  306MOL0     C41224   5.665   4.929   4.233  0.2336 -0.6756  0.8762
  306MOL0     N41225   5.018   5.003   4.555 -0.1343 -0.1007  0.7995
  306MOL0     N41226   4.978   4.908   4.630 -0.5756 -0.1672  0.4916
  306MOL0     C41227   4.265   3.933   4.446 -0.5459  0.1148  0.1296
  306MOL0     C41228   4.135   3.929   4.402 -0.4586 -0.4483 -1.0410
  306MOL0     C41229   3.710   4.016   4.364 -0.2115  0.0126  0.4084
  306MOL0     C41230   3.633   4.125   4.404 -0.1443 -0.4627  0.5594
  306MOL0     C41231   3.493   4.111   4.386 -0.4298 -0.5959  0.1881
  306MOL0     C41232   3.432   3.992   4.337 -0.3058  0.1407  0.1563
  306MOL0     O41233   3.296   3.994   4.312 -0.7524  0.2291 -0.0987
  306MOL0     C41234   3.228   3.870   4.304 -0.3448  0.1515 -0.1175
  306MOL0     C41235   3.237   3.785   4.435 -0.3747 -0.4982  0.4280
  306MOL0     C41236   3.146   3.658   4.429  0.0060  0.2127  0.2527
  306MOL0     C41237   3.000   3.689   4.471 -0.0924 -0.2904  0.1525
  306MOL0     C41238   3.000   3.745   4.607  1.3863 -0.4623  0.3941
  306MOL0     C41239   2.996   3.781   4.719 -0.6586 -0.8486 -0.6897
  306MOL0     C41240   3.523   3.898   4.276  0.1346 -0.8693 -0.9726
  306MOL0     C41241   3.662   3.906   4.303  0.0692  0.1605  0.4837
  306MOL0     C41242   3.752   3.800   4.250 -0.8779 -0.1455 -0.4432
  306MOL0     H41243   4.010   3.898   4.727  0.2684  1.1936  0.5230
  306MOL0     H41244   4.237   3.878   4.780  0.2764 -1.0043  0.1977
  306MOL0     H41245   4.539   3.953   4.435 -3.0715  0.0376 -0.5540
  306MOL0     H41246   4.516   4.105   4.518  0.4613 -0.0835  0.9614
  306MOL0     H41247   4.710   3.869   4.600 -1.0141  0.9023  1.9203
  306MOL0     H41248   4.672   3.987   4.711  0.4478  0.5144 -0.0641
  306MOL0     H41249   4.792   4.052   4.440 -0.3506 -0.8768  0.2407
  306MOL0     H41250   4.880   4.037   4.589 -0.0225 -3.1957 -0.1100
  306MOL0     H41251   4.667   4.253   4.523  2.2834  0.4004 -3.6134
  306MOL0     H41252   4.744   4.220   4.683 -3.4898  2.2782 -1.5042
  306MOL0     H41253   4.972   4.291   4.547 -0.1340  0.1811 -1.7196
  306MOL0     H41254   4.861   4.336   4.422 -1.2318  1.0464  0.5163
  306MOL0     H41255   4.745   4.465   4.617 -0.4931 -4.2775  0.0870
  306MOL0     H41256   4.867   4.406   4.718  1.4401  0.4220  0.4210
  306MOL0     H41257   4.969   4.552   4.490 -1.4363 -0.9063  0.4284
  306MOL0     H41258   5.040   4.562   4.642  0.3753 -1.1068 -2.4687
  306MOL0     H41259   4.773   4.678   4.534  0.4391 -1.6522 -1.8264
  306MOL0     H41260   4.826   4.708   4.701 -0.3476 -0.3692 -0.7001
  306MOL0     H41261   4.953   4.759   4.348  0.2233 -1.0736  0.1951
  306MOL0     H41262   4.991   5.002   4.214 -0.4234  0.9259  0.8494
  306MOL0     H41263   4.998   5.144   4.308 -1.3879 -0.1675  0.5019
  306MOL0     H41264   5.226   5.077   4.386  1.2061 -2.1194 -1.2228
  306MOL0     H41265   5.225   4.948   4.271  2.4310  0.3828 -1.3917
  306MOL0     H41266   5.198   5.247   4.203 -0.7598  0.0559  0.1225
  306MOL0     H41267   5.211   5.126   4.080  0.2121  0.4507 -0.4221
  306MOL0     H41268   5.430   5.226   4.265  3.4399 -0.0078 -0.4107
  306MOL0     H41269   5.426   5.222   4.094 -0.4221  0.3478  0.3802
  306MOL0     H41270   5.622   5.214   4.050 -0.4582 -0.0651  0.0110
  306MOL0     H41271   5.862   5.209   4.051 -3.1374  0.4480 -1.4673
  306MOL0     H41272   6.275   5.220   4.260  1.1609 -0.3697  1.4659
  306MOL0     H41273   6.519   5.169   4.237  0.3330 -0.3699  0.2680
  306MOL0     H41274   6.718   5.180   4.137 -0.8723  0.0292  3.1570
  306MOL0     H41275   6.702   5.022   4.228 -1.0350 -0.9792 -1.5261
  306MOL0     H41276   6.874   4.923   4.104 -0.5748 -0.1199  1.8233
  306MOL0     H41277   6.877   5.066   3.996 -1.3126 -0.1608 -0.1624
  306MOL0     H41278   6.949   5.209   4.201 -0.5495  0.1462  2.3691
  306MOL0     H41279   6.931   5.066   4.303  2.4938  1.8479  1.0329
  306MOL0     H41280   7.126   5.090   4.072  0.6680 -5.7297 -1.4824
  306MOL0     H41281   7.123   4.957   4.184 -0.5283  0.0796 -1.0578
  306MOL0     H41282   7.180   5.096   4.369  0.7526 -0.8680  0.2768
  306MOL0     H41283   7.178   5.243   4.277  1.1869  1.0088 -4.4292
  306MOL0     H41284   7.365   5.012   4.193  2.3228  0.3821  0.6011
  306MOL0     H41285   7.358   5.166   4.128 -2.0798 -3.2883 -1.5217
  306MOL0     H41286   7.450   5.095   4.417 -0.5993 -1.4301 -1.4886
  306MOL0     H41287   7.418   5.267   4.382 -0.9861 -0.5593  3.4893
  306MOL0     H41288   7.602   5.064   4.245 -1.6870 -1.5581  1.1273
  306MOL0     H41289   7.593   5.226   4.186  2.7179  1.6274  1.3842
  306MOL0     H41290   6.431   4.962   3.876  0.2345  0.6559  0.0795
  306MOL0     H41291   6.205   4.995   3.906  0.2392 -1.3219  1.3821
  306MOL0     H41292   5.857   4.844   4.270  4.0990  2.5501  1.0194
  306MOL0     H41293   5.608   4.851   4.285 -1.8461  0.5647  0.5796
  306MOL0     H41294   4.340   3.956   4.371  0.3851  1.9953  1.5752
  306MOL0     H41295   4.102   3.936   4.299 -6.7384  2.7533  0.6453
  306MOL0     H41296   3.674   4.213   4.452  0.4382 -1.1271  1.3089
  306MOL0     H41297   3.427   4.186   4.430  0.0479 -0.0802  0.0387
  306MOL0     H41298   3.273   3.811   4.224  0.5743  0.1744  0.3639
  306MOL0     H41299   3.123   3.877   4.275 -0.4932 -1.7735 -0.1901
  306MOL0     H41300   3.212   3.840   4.527  0.5707  0.3055  0.2128
  306MOL0     H41301   3.334   3.740   4.455 -0.2879  0.0813  1.3763
  306MOL0     H41302   3.189   3.586   4.499 -0.6553  0.5409  1.0165
  306MOL0     H41303   3.147   3.618   4.327  0.5593  2.5632 -0.7305
  306MOL0     H41304   2.964   3.772   4.409 -4.3283 -2.1053 -0.1262
  306MOL0     H41305   2.927   3.610   4.454  2.1250 -2.0177 -2.0206
  306MOL0     H41306   2.998   3.813   4.821 -1.3987  0.5541 -1.0848
  306MOL0     H41307   3.481   3.814   4.221  2.6082 -1.8706 -1.4786
  306MOL0     H41308   3.780   3.730   4.330 -1.1564  0.5655  0.2910
  306MOL0     H41309   3.698   3.745   4.172 -0.9385  0.5194 -0.8728
  306MOL0     H41310   3.836   3.850   4.201 -0.6457 -1.5159 -1.5005
  307MOL0     O41311   6.105   4.161   0.955  0.1251 -0.2123  0.0731
  307MOL0     C41312   6.076   4.094   1.049  0.8010  0.1157 -0.2103
  307MOL0     O41313   6.150   4.084   1.161 -0.1817 -0.9412  0.4758
  307MOL0     C41314   6.276   4.136   1.183  0.0888 -0.1721  0.0853
  307MOL0     C41315   6.352   4.073   1.287  0.1435  0.5706 -0.4109
  307MOL0     C41316   6.479   4.125   1.320 -0.9145  0.5046  0.4905
  307MOL0     C41317   6.526   4.247   1.259 -0.7597  0.2502  0.2066
  307MOL0     O41318   6.650   4.283   1.302  0.0053  0.3802  0.4569
  307MOL0     C41319   6.738   4.306   1.192 -0.0777 -0.7296  0.7034
  307MOL0     C41320   6.874   4.344   1.246  0.6274 -1.0250 -0.2616
  307MOL0     C41321   6.978   4.363   1.141  0.0542 -0.6505 -0.3912
  307MOL0     C41322   7.117   4.426   1.194 -0.3900  0.2788  0.1124
  307MOL0     C41323   7.196   4.331   1.285 -0.7415 -0.1881  0.3327
  307MOL0     C41324   7.337   4.397   1.298 -0.1895 -0.2829 -0.2120
  307MOL0     C41325   7.428   4.347   1.423  0.5556  0.5922  0.6089
  307MOL0     C41326   7.569   4.389   1.396 -1.1527  0.0668 -0.5069
  307MOL0     N41327   7.653   4.376   1.518 -0.5461 -0.5552  0.0904
  307MOL0     C41328   7.771   4.442   1.547  0.3157 -0.0227 -0.6817
  307MOL0     C41329   7.822   4.385   1.660  1.0908 -0.0996 -1.0942
  307MOL0     C41330   7.941   4.418   1.748  0.4700  0.0212 -0.0081
  307MOL0     C41331   8.049   4.503   1.685 -0.9375  0.0694 -0.3835
  307MOL0     C41332   8.014   4.654   1.688  0.6583 -0.1260  0.1464
  307MOL0     C41333   8.124   4.756   1.644 -0.1606  0.1610  0.1215
  307MOL0     O41334   8.245   4.713   1.711 -0.0044 -0.5528  0.2588
  307MOL0     C41335   8.357   4.724   1.637  0.4186  0.3483 -0.0669
  307MOL0     C41336   8.408   4.846   1.594  0.1975 -0.2226  0.4716
  307MOL0     C41337   8.542   4.849   1.540  0.3465  0.8926  0.0412
  307MOL0     C41338   8.622   4.728   1.527  0.4467 -0.9798  0.3606
  307MOL0     C41339   8.755   4.739   1.484 -0.0629 -0.1548 -0.2490
  307MOL0     O41340   8.804   4.855   1.438 -0.4069  0.6026  0.3106
  307MOL0     C41341   8.928   4.859   1.384  0.0223 -0.5654 -0.3817
  307MOL0     C41342   8.955   4.837   1.250 -0.0477  0.8566  0.1766
  307MOL0     C41343   9.082   4.825   1.196  0.2623  0.0699  0.5555
  307MOL0     C41344   9.195   4.857   1.274  0.1388  0.0922  0.0119
  307MOL0     O41345   9.320   4.826   1.229  0.1415 -0.0596 -0.5650
  307MOL0     C41346   9.353   4.696   1.200 -0.2839 -0.6318  0.0620
  307MOL0     C41347   9.496   4.682   1.146 -0.0390 -0.2279  0.1098
  307MOL0     C41348   9.510   4.748   1.006  0.4844 -0.2111  0.7718
  307MOL0     C41349   9.427   4.692   0.892  0.2253 -0.4346  0.8541
  307MOL0     C41350   9.422   4.787   0.775 -0.5643 -0.2627  0.3617
  307MOL0     C41351   9.365   4.730   0.642  0.5529  0.9870 -0.8652
  307MOL0     C41352   9.221   4.685   0.671  0.0469  0.0236  0.3302
  307MOL0     C41353   9.127   4.665   0.551  0.6602 -0.7236 -0.3402
  307MOL0    Cl41354   9.167   4.506   0.487 -0.1948 -0.2577 -0.3224
  307MOL0     C41355   9.170   4.873   1.418  0.2607  0.4011 -0.3269
  307MOL0     C41356   9.037   4.882   1.470  0.7530  0.5998  0.5886
  307MOL0     O41357   8.813   4.631   1.484  0.0655  0.0622  1.1562
  307MOL0     C41358   8.558   4.608   1.568  0.0904  0.8936  0.0536
  307MOL0     C41359   8.425   4.603   1.616 -0.5212  0.3557 -0.2078
  307MOL0     N41360   7.732   4.290   1.691 -0.7351 -0.1097  0.0225
  307MOL0     N41361   7.644   4.276   1.607 -0.3319 -0.1668  0.5569
  307MOL0     C41362   6.447   4.312   1.160  0.0415  0.0998 -0.4785
  307MOL0     C41363   6.328   4.253   1.119  0.2727 -0.1528 -0.6171
  307MOL0     C41364   5.945   4.019   1.052  0.4918  0.5963 -0.4208
  307MOL0     C41365   5.871   4.026   1.172  0.0222  0.5477 -0.5299
  307MOL0     C41366   5.752   3.966   1.188  0.3541  0.3093  1.2188
  307MOL0     C41367   5.693   3.909   1.079 -0.2652 -0.8550 -0.7215
  307MOL0     O41368   5.562   3.873   1.080 -0.3021  0.5664 -0.0320
  307MOL0     C41369   5.482   3.906   0.963 -0.2305  0.0885  1.3287
  307MOL0     C41370   5.338   3.930   1.007  0.4198  1.1525 -0.3884
  307MOL0     C41371   5.235   3.840   0.931 -1.0994 -0.3481 -0.3786
  307MOL0     C41372   5.093   3.864   0.974 -0.2924 -0.8903 -0.1170
  307MOL0     C41373   5.012   3.777   0.882  0.2532 -0.1805  0.4901
  307MOL0     C41374   4.963   3.703   0.804 -0.5764 -0.6418  0.1817
  307MOL0     C41375   5.775   3.880   0.974  0.2059 -0.3819  0.7309
  307MOL0     C41376   5.903   3.932   0.953 -0.5514  0.1934 -0.1317
  307MOL0     C41377   5.990   3.877   0.840 -0.3883  0.2769 -0.5439
  307MOL0     H41378   6.317   3.982   1.334 -1.3521  2.3194  2.0639
  307MOL0     H41379   6.547   4.077   1.390 -0.3840  0.6712  0.1040
  307MOL0     H41380   6.733   4.225   1.118 -0.6705 -0.7843  0.7980
  307MOL0     H41381   6.704   4.395   1.139 -1.2085 -1.6151 -0.1242
  307MOL0     H41382   6.905   4.272   1.322  0.5021 -0.9597 -0.1470
  307MOL0     H41383   6.856   4.433   1.308  0.6153 -0.7843 -0.6040
  307MOL0     H41384   6.941   4.443   1.076 -0.2445 -0.9400 -0.5745
  307MOL0     H41385   6.998   4.272   1.084 -1.9110  0.3578 -2.8722
  307MOL0     H41386   7.178   4.452   1.107  0.4777  1.1648  0.9612
  307MOL0     H41387   7.108   4.522   1.246 -0.4743  0.9235 -1.0534
  307MOL0     H41388   7.150   4.330   1.385  0.0264 -1.5116  0.6886
  307MOL0     H41389   7.204   4.233   1.239  0.6064 -0.8028  1.7931
  307MOL0     H41390   7.389   4.367   1.206 -2.9489 -3.3538 -0.9556
  307MOL0     H41391   7.332   4.506   1.305  1.4822 -0.2804  3.6799
  307MOL0     H41392   7.426   4.237   1.423  0.5735  0.5750 -0.8564
  307MOL0     H41393   7.398   4.391   1.519  0.0362 -0.9197  1.1717
  307MOL0     H41394   7.601   4.319   1.319 -3.8788 -3.4277  1.2455
  307MOL0     H41395   7.581   4.490   1.355  1.6795 -0.7198 -1.8401
  307MOL0     H41396   7.802   4.526   1.486 -0.1421 -2.0887 -4.0203
  307MOL0     H41397   7.891   4.471   1.829 -2.0176 -0.9943 -0.8034
  307MOL0     H41398   7.989   4.325   1.780 -0.5796 -0.9746 -1.2262
  307MOL0     H41399   8.142   4.479   1.738  0.6361  3.6014 -1.2179
  307MOL0     H41400   8.061   4.479   1.579  0.3299 -1.7446  0.1170
  307MOL0     H41401   7.990   4.690   1.788  1.8752  2.7299 -0.5073
  307MOL0     H41402   7.922   4.662   1.629  0.4143  3.9975  0.8592
  307MOL0     H41403   8.092   4.852   1.683  0.7304 -0.2316  1.9180
  307MOL0     H41404   8.139   4.755   1.535 -0.3369 -1.9498  0.0676
  307MOL0     H41405   8.362   4.943   1.612 -0.0233 -0.3938  0.8243
  307MOL0     H41406   8.594   4.945   1.539  2.9904 -0.4396 -0.8792
  307MOL0     H41407   8.867   4.827   1.187 -1.5224  1.9582  1.9623
  307MOL0     H41408   9.101   4.789   1.095 -2.1542  0.7963 -0.2126
  307MOL0     H41409   9.348   4.627   1.285 -0.2113 -0.5381  0.1429
  307MOL0     H41410   9.282   4.649   1.131 -0.8965  0.7768 -0.2884
  307MOL0     H41411   9.564   4.731   1.216 -0.3336 -0.5519  0.6251
  307MOL0     H41412   9.524   4.576   1.147 -0.6979 -0.4083  0.2702
  307MOL0     H41413   9.509   4.855   1.028 -1.7639 -0.1644  0.6966
  307MOL0     H41414   9.609   4.717   0.972  0.4622  0.7768 -0.2591
  307MOL0     H41415   9.322   4.690   0.922  0.5190  0.3106  2.0136
  307MOL0     H41416   9.465   4.595   0.859 -1.8000 -0.9208 -0.1940
  307MOL0     H41417   9.524   4.818   0.749 -0.0138 -2.6908 -0.6946
  307MOL0     H41418   9.383   4.884   0.805  0.0449  0.0801  0.0641
  307MOL0     H41419   9.368   4.801   0.558  1.2694  1.8347 -0.1408
  307MOL0     H41420   9.426   4.645   0.611  0.4125  0.0408  1.2644
  307MOL0     H41421   9.177   4.754   0.743  2.9096 -0.9270  3.2313
  307MOL0     H41422   9.236   4.594   0.729  3.7378  0.6801  0.6273
  307MOL0     H41423   9.028   4.670   0.597  1.7760  0.0897  2.1524
  307MOL0     H41424   9.139   4.749   0.482  0.7809 -0.9818 -0.6357
  307MOL0     H41425   9.249   4.893   1.489 -0.8034  0.5744  0.8596
  307MOL0     H41426   9.012   4.897   1.574 -0.1239  0.0503  0.4694
  307MOL0     H41427   8.619   4.521   1.550  1.2224  0.4554  4.6455
  307MOL0     H41428   8.364   4.515   1.635 -1.3067  1.0650  0.6898
  307MOL0     H41429   6.477   4.403   1.110 -2.2273  0.7461 -0.7507
  307MOL0     H41430   6.273   4.312   1.046  1.9849  0.3968 -1.5134
  307MOL0     H41431   5.911   4.072   1.261  4.4683 -0.3795 -1.7846
  307MOL0     H41432   5.689   3.952   1.275 -0.3011 -2.4503  0.3826
  307MOL0     H41433   5.488   3.825   0.889 -0.3630  0.9888  0.2957
  307MOL0     H41434   5.519   3.996   0.913 -1.7055  0.4894  0.9155
  307MOL0     H41435   5.311   4.032   0.977  0.6036  0.9099 -1.4238
  307MOL0     H41436   5.317   3.915   1.113 -1.8720  0.3315 -0.9029
  307MOL0     H41437   5.267   3.742   0.969  0.4830  1.2976  3.0126
  307MOL0     H41438   5.240   3.850   0.822  1.5062 -1.8669 -0.5001
  307MOL0     H41439   5.078   3.835   1.079  2.3789 -0.2499  0.5334
  307MOL0     H41440   5.078   3.972   0.984  0.3821 -0.4417 -2.9820
  307MOL0     H41441   4.920   3.640   0.729  2.0651  0.3764 -2.3997
  307MOL0     H41442   5.725   3.823   0.896  2.6401  0.8537 -1.8900
  307MOL0     H41443   6.039   3.963   0.794  0.7182 -0.8012 -1.4212
  307MOL0     H41444   6.055   3.801   0.884 -0.4537 -0.9147 -2.4290
  307MOL0     H41445   5.931   3.830   0.761 -0.2643 -1.4604  0.3507
  308MOL0     O41446   0.271   6.302   9.199  0.2126 -0.3617 -0.1097
  308MOL0     C41447   0.327   6.200   9.243  0.3674 -0.0830  0.6757
  308MOL0     O41448   0.465   6.180   9.242  0.1982 -0.3644  0.2185
  308MOL0     C41449   0.546   6.216   9.139 -0.6840  0.5007  0.4289
  308MOL0     C41450   0.593   6.348   9.131 -0.3423 -0.1509  0.4437
  308MOL0     C41451   0.673   6.383   9.015  0.5485  0.2359  0.1296
  308MOL0     C41452   0.689   6.295   8.908  0.7880  0.0079 -0.8057
  308MOL0     O41453   0.748   6.332   8.790 -0.5836 -0.2451  0.0648
  308MOL0     C41454   0.720   6.466   8.741 -0.9626  0.3194  0.6427
  308MOL0     C41455   0.827   6.516   8.647 -0.4011  0.5155  0.5085
  308MOL0     C41456   0.909   6.403   8.581 -0.0008  0.3130 -0.8764
  308MOL0     C41457   1.031   6.468   8.513 -0.8576 -0.0173  0.3581
  308MOL0     C41458   1.123   6.357   8.464  0.3657 -0.0306 -0.4572
  308MOL0     C41459   1.245   6.418   8.388  0.3176  0.0695 -0.5474
  308MOL0     C41460   1.221   6.481   8.246 -0.3132  0.7278  0.0219
  308MOL0     C41461   1.192   6.387   8.132 -0.1427  0.7371 -0.3229
  308MOL0     N41462   1.042   6.367   8.120  0.3640  0.4137  0.1084
  308MOL0     C41463   0.955   6.472   8.106 -0.5226  0.2505  0.2969
  308MOL0     C41464   0.839   6.412   8.114 -0.4105 -0.1439  0.9537
  308MOL0     C41465   0.707   6.484   8.115 -0.3806 -0.3721  0.5885
  308MOL0     C41466   0.695   6.509   8.266 -0.2767  0.0797 -1.2719
  308MOL0     C41467   0.594   6.408   8.337 -0.5016 -0.6577 -0.3864
  308MOL0     C41468   0.452   6.468   8.338 -0.0899  0.2445  1.2543
  308MOL0     O41469   0.399   6.504   8.208 -0.1210 -0.6223 -0.4217
  308MOL0     C41470   0.267   6.532   8.205 -0.2502 -0.1797  1.0739
  308MOL0     C41471   0.233   6.648   8.133  0.4025 -0.3837 -0.7599
  308MOL0     C41472   0.100   6.676   8.121  0.1164 -0.1284 -0.0882
  308MOL0     C41473  -0.000   6.603   8.183 -0.2399 -0.3789  0.1870
  308MOL0     C41474  -0.141   6.659   8.175  0.0316  0.2320  0.4342
  308MOL0     O41475  -0.246   6.584   8.231  0.6111  0.3222  0.4512
  308MOL0     C41476  -0.386   6.621   8.240 -0.2827 -0.8802 -0.0617
  308MOL0     C41477  -0.471   6.525   8.287 -0.2779  0.7156  0.1669
  308MOL0     C41478  -0.610   6.547   8.318  0.0550  0.2851 -0.1328
  308MOL0     C41479  -0.662   6.677   8.295 -0.0833 -1.0947 -0.1609
  308MOL0     O41480  -0.797   6.701   8.315 -0.0582  0.6619 -0.6206
  308MOL0     C41481  -0.831   6.705   8.458  0.2986 -0.1017 -0.8517
  308MOL0     C41482  -0.979   6.698   8.488  0.0762  0.3160 -0.1732
  308MOL0     C41483  -1.037   6.557   8.489 -0.2260  0.3873 -0.3189
  308MOL0     C41484  -1.186   6.549   8.467  0.1747 -1.6336 -0.1999
  308MOL0     C41485  -1.241   6.410   8.461 -0.1387  0.6709  0.3185
  308MOL0     C41486  -1.390   6.406   8.459  0.1995 -0.0852  0.0069
  308MOL0     C41487  -1.446   6.266   8.416  0.0271  0.1490  0.1248
  308MOL0     C41488  -1.597   6.267   8.445  0.3492  0.2055 -0.0319
  308MOL0    Cl41489  -1.700   6.131   8.388  0.1440  0.1072 -0.3474
  308MOL0     C41490  -0.584   6.777   8.239  0.1888  0.1694  0.6478
  308MOL0     C41491  -0.438   6.749   8.207 -0.3916  0.1271 -0.4742
  308MOL0     O41492  -0.156   6.761   8.111  0.0727 -0.0184 -0.6251
  308MOL0     C41493   0.032   6.489   8.254 -0.5015 -0.4963 -1.2719
  308MOL0     C41494   0.170   6.453   8.263 -0.3179  1.1421  0.0496
  308MOL0     N41495   0.854   6.273   8.124 -0.3083  0.3590  0.2514
  308MOL0     N41496   0.974   6.251   8.128  0.1915 -0.0448 -0.0367
  308MOL0     C41497   0.634   6.169   8.918 -0.1910  0.0691  0.5339
  308MOL0     C41498   0.564   6.125   9.029  0.1259 -0.2768 -0.5220
  308MOL0     C41499   0.248   6.075   9.272  0.5857  0.9261 -0.6718
  308MOL0     C41500   0.314   5.978   9.353  0.1847  0.5269  0.4579
  308MOL0     C41501   0.252   5.855   9.388 -0.3136  0.1696  0.2852
  308MOL0     C41502   0.119   5.829   9.342  0.1480 -0.4373 -1.1315
  308MOL0     O41503   0.055   5.716   9.385  0.0353  0.0396 -0.3164
  308MOL0     C41504  -0.056   5.742   9.464  0.5896 -0.2494 -0.1615
  308MOL0     C41505  -0.007   5.690   9.601 -0.1613  0.5216  0.1075
  308MOL0     C41506   0.053   5.789   9.693 -1.0277  0.1011  0.0732
  308MOL0     C41507   0.008   5.936   9.679 -1.1810  0.0162 -0.1427
  308MOL0     C41508   0.049   6.020   9.794 -0.0948 -0.1263 -0.2940
  308MOL0     C41509   0.076   6.079   9.893  0.2457 -0.8088 -0.4370
  308MOL0     C41510   0.047   5.929   9.268  0.0464  0.0828  0.3310
  308MOL0     C41511   0.110   6.054   9.236 -0.2565 -0.2436 -0.1573
  308MOL0     C41512   0.031   6.135   9.139  0.6791 -0.2531  0.6634
  308MOL0     H41513   0.571   6.432   9.195 -1.5202  2.3263 -2.9039
  308MOL0     H41514   0.727   6.477   9.016  1.2879 -0.1605  2.7122
  308MOL0     H41515   0.627   6.462   8.684 -1.4637  1.3699  1.3488
  308MOL0     H41516   0.700   6.543   8.816 -4.2058 -0.9394  1.2638
  308MOL0     H41517   0.886   6.586   8.708 -1.1381  0.3498  1.4284
  308MOL0     H41518   0.785   6.573   8.564  0.6133 -1.8110 -1.7308
  308MOL0     H41519   0.840   6.355   8.510 -0.5666 -2.5340  1.3898
  308MOL0     H41520   0.943   6.332   8.657 -1.1517  1.0396  0.3567
  308MOL0     H41521   1.014   6.523   8.420  1.3461  0.4922  0.2124
  308MOL0     H41522   1.081   6.525   8.591 -1.0739 -1.3004  1.4821
  308MOL0     H41523   1.160   6.293   8.545 -2.4675 -1.0912  0.0960
  308MOL0     H41524   1.065   6.283   8.408 -3.2967  1.2025  1.3535
  308MOL0     H41525   1.286   6.505   8.442  2.7944 -0.6983 -1.0400
  308MOL0     H41526   1.324   6.343   8.392  0.6718  0.3343 -2.0319
  308MOL0     H41527   1.310   6.534   8.209 -1.4629  0.8939 -2.7219
  308MOL0     H41528   1.155   6.567   8.248 -0.4358  0.6849 -1.3588
  308MOL0     H41529   1.218   6.422   8.032 -3.6393 -0.2023 -1.6964
  308MOL0     H41530   1.231   6.287   8.150 -1.6026  0.3179  0.6939
  308MOL0     H41531   0.982   6.576   8.090  2.1975 -0.4303 -0.1846
  308MOL0     H41532   0.703   6.574   8.053 -0.2739  0.0128  1.1350
  308MOL0     H41533   0.634   6.416   8.071  0.6103 -0.4164 -1.0716
  308MOL0     H41534   0.790   6.514   8.320 -0.7922 -0.7903 -0.2439
  308MOL0     H41535   0.649   6.607   8.282 -1.5298 -0.9072  1.8321
  308MOL0     H41536   0.624   6.379   8.438 -2.5670  3.4905  1.6857
  308MOL0     H41537   0.594   6.318   8.275 -0.7768 -0.4909 -0.6318
  308MOL0     H41538   0.462   6.546   8.414  4.3348  1.0457  0.0705
  308MOL0     H41539   0.390   6.386   8.377 -1.8977  1.2524  0.6118
  308MOL0     H41540   0.306   6.720   8.097 -1.5494  1.2776 -1.5898
  308MOL0     H41541   0.064   6.754   8.055 -1.3396  0.4621  1.3147
  308MOL0     H41542  -0.437   6.424   8.307 -1.9910  0.3172  1.2824
  308MOL0     H41543  -0.673   6.469   8.360 -0.9320  1.5276  0.7583
  308MOL0     H41544  -0.793   6.613   8.505  0.6971 -0.7964 -2.4562
  308MOL0     H41545  -0.781   6.791   8.503  1.1011  0.0234 -1.9276
  308MOL0     H41546  -0.993   6.750   8.583  0.6820 -0.3444  0.2837
  308MOL0     H41547  -1.033   6.764   8.419 -0.6495 -1.4093 -1.3252
  308MOL0     H41548  -0.982   6.498   8.414  3.6666  2.0332  0.9916
  308MOL0     H41549  -1.008   6.515   8.585  0.1362  0.2444 -0.4907
  308MOL0     H41550  -1.214   6.600   8.375 -0.5261 -1.4069  0.1322
  308MOL0     H41551  -1.237   6.606   8.545  1.9853 -1.0029  0.5869
  308MOL0     H41552  -1.203   6.354   8.547 -1.8328 -1.4977 -0.2558
  308MOL0     H41553  -1.199   6.357   8.374 -1.1470 -2.5220  1.6193
  308MOL0     H41554  -1.422   6.433   8.560  2.8333  0.6143  0.7194
  308MOL0     H41555  -1.430   6.487   8.398  2.6864  0.4408 -1.0191
  308MOL0     H41556  -1.383   6.203   8.480  2.3606  2.1629 -0.0586
  308MOL0     H41557  -1.431   6.238   8.311 -1.5350  1.9738 -0.6380
  308MOL0     H41558  -1.615   6.279   8.552 -1.6674 -3.4503  0.2006
  308MOL0     H41559  -1.635   6.360   8.401 -2.0942 -0.9583 -0.5579
  308MOL0     H41560  -0.623   6.877   8.223 -1.1171 -0.5757 -1.1637
  308MOL0     H41561  -0.381   6.828   8.159 -1.1868  1.7535  1.1190
  308MOL0     H41562  -0.045   6.424   8.297  0.2275  0.6437  2.1055
  308MOL0     H41563   0.210   6.366   8.314 -0.5143 -0.7303 -2.8196
  308MOL0     H41564   0.654   6.103   8.834  0.5734  1.1507 -0.1713
  308MOL0     H41565   0.511   6.031   9.021 -1.1620 -0.1376  3.6634
  308MOL0     H41566   0.416   5.999   9.386  1.0864 -0.7143 -1.3332
  308MOL0     H41567   0.308   5.784   9.447  1.0989 -1.6690 -2.9786
  308MOL0     H41568  -0.144   5.682   9.438 -0.0516  0.2371  0.8050
  308MOL0     H41569  -0.081   5.848   9.473  0.4178 -0.1563 -1.5647
  308MOL0     H41570   0.048   5.597   9.593 -3.4003 -1.4301 -1.7300
  308MOL0     H41571  -0.098   5.656   9.653  0.0168 -0.2388 -0.0725
  308MOL0     H41572   0.161   5.783   9.676 -1.1260  0.6678 -0.9006
  308MOL0     H41573   0.027   5.757   9.794  2.9977  2.9414  2.3307
  308MOL0     H41574   0.031   5.978   9.581 -0.8974  0.9800  0.3303
  308MOL0     H41575  -0.101   5.933   9.687 -1.1048 -1.2055  0.7529
  308MOL0     H41576   0.090   6.150   9.972  1.8227 -1.7890  0.2184
  308MOL0     H41577  -0.055   5.913   9.234  0.1874  0.6619 -0.3872
  308MOL0     H41578  -0.025   6.212   9.194  0.0830 -0.6103  0.5615
  308MOL0     H41579   0.102   6.171   9.064 -1.1743 -1.6252 -1.9155
  308MOL0     H41580  -0.041   6.077   9.080 -0.6115  3.0329 -1.2622
  309MOL0     O41581   6.801   0.179   0.083  1.1261 -0.4991  0.1324
  309MOL0     C41582   6.845   0.236   0.181 -0.2356  0.0570  0.3562
  309MOL0     O41583   6.975   0.208   0.239  0.2249  0.3011  0.9395
  309MOL0     C41584   7.082   0.151   0.162  0.9647 -0.6058  0.3329
  309MOL0     C41585   7.069   0.085   0.034 -0.5289  0.6943 -0.6351
  309MOL0     C41586   7.183   0.031  -0.020  0.4701  1.1758 -0.3280
  309MOL0     C41587   7.317   0.039   0.034  0.1817 -0.1027  0.8408
  309MOL0     O41588   7.421  -0.011  -0.030 -0.3555 -0.1430 -0.0231
  309MOL0     C41589   7.544  -0.002   0.039  0.5182  0.0385 -0.5079
  309MOL0     C41590   7.664  -0.048  -0.052 -0.1405  0.7452 -0.0450
  309MOL0     C41591   7.691   0.041  -0.181  0.0943 -0.0912 -0.2228
  309MOL0     C41592   7.828   0.013  -0.240 -0.5577  0.8492  0.2733
  309MOL0     C41593   7.882  -0.133  -0.254 -0.3205  0.1090  0.1006
  309MOL0     C41594   8.020  -0.160  -0.185  0.1835 -0.1936  0.3997
  309MOL0     C41595   8.135  -0.071  -0.224  1.4307 -0.2465  0.1170
  309MOL0     C41596   8.275  -0.126  -0.211  0.3378  0.8434  0.4504
  309MOL0     N41597   8.380  -0.053  -0.274  0.1170 -0.2938 -0.0079
  309MOL0     C41598   8.423   0.071  -0.224  0.2085  0.1312 -1.1135
  309MOL0     C41599   8.537   0.091  -0.296 -1.1286 -0.7527 -1.1655
  309MOL0     C41600   8.628   0.212  -0.290  0.3488 -0.3452  0.5329
  309MOL0     C41601   8.720   0.209  -0.175 -0.4556  0.5763 -0.4997
  309MOL0     C41602   8.822   0.323  -0.183  0.6016 -0.2418  0.1174
  309MOL0     C41603   8.782   0.476  -0.168 -0.8715  0.1476  0.1787
  309MOL0     O41604   8.700   0.523  -0.273  0.4306 -0.0933 -0.1476
  309MOL0     C41605   8.666   0.655  -0.283  0.1356 -1.2469 -0.0784
  309MOL0     C41606   8.572   0.695  -0.377 -0.0734  0.3859 -0.0304
  309MOL0     C41607   8.516   0.828  -0.380  0.3924  1.2794  0.1523
  309MOL0     C41608   8.569   0.929  -0.305 -0.0213  0.4368  0.5598
  309MOL0     C41609   8.518   1.066  -0.307  0.8570 -0.3153 -0.4827
  309MOL0     O41610   8.411   1.092  -0.391 -0.4965  0.5872 -0.3495
  309MOL0     C41611   8.319   1.189  -0.367 -0.0887 -0.4476 -0.6908
  309MOL0     C41612   8.324   1.302  -0.283 -0.4071  0.7731  0.0530
  309MOL0     C41613   8.221   1.391  -0.269 -0.2547 -0.9490  0.7937
  309MOL0     C41614   8.098   1.359  -0.331 -1.3367  0.0134 -0.0008
  309MOL0     O41615   8.008   1.456  -0.301 -0.2520 -0.0448 -0.1051
  309MOL0     C41616   7.868   1.411  -0.284 -0.6316  0.3181  0.2607
  309MOL0     C41617   7.781   1.533  -0.250  0.6460  0.2298 -0.6044
  309MOL0     C41618   7.628   1.502  -0.217 -0.7163  0.7889 -0.1899
  309MOL0     C41619   7.569   1.634  -0.179  0.3126 -0.4918 -0.1698
  309MOL0     C41620   7.426   1.614  -0.110 -0.7146 -0.1159 -0.1034
  309MOL0     C41621   7.394   1.751  -0.044  0.4463  0.5695 -0.3327
  309MOL0     C41622   7.256   1.746   0.038 -0.3681  0.5264 -0.8578
  309MOL0     C41623   7.225   1.884   0.101  0.3564  1.3145  0.7327
  309MOL0    Cl41624   7.072   1.883   0.196 -0.0187  0.2601 -0.5628
  309MOL0     C41625   8.092   1.262  -0.428  0.6868  0.6479 -1.6411
  309MOL0     C41626   8.203   1.172  -0.440  0.5964  0.3582 -0.6652
  309MOL0     O41627   8.580   1.149  -0.239  0.2370 -0.0010 -0.0137
  309MOL0     C41628   8.680   0.900  -0.223  0.6792 -0.4005  0.4328
  309MOL0     C41629   8.727   0.765  -0.214  0.2496 -0.7215 -0.0566
  309MOL0     N41630   8.540  -0.001  -0.403 -0.2979 -0.6351 -0.2196
  309MOL0     N41631   8.448  -0.089  -0.383 -0.4187 -0.3228  1.6852
  309MOL0     C41632   7.322   0.117   0.155  0.2925  0.4238  0.1868
  309MOL0     C41633   7.203   0.165   0.210 -0.5661 -0.2245 -0.7540
  309MOL0     C41634   6.757   0.338   0.245  1.0835 -0.1652  1.3084
  309MOL0     C41635   6.798   0.378   0.366 -0.5847 -0.0454 -0.7977
  309MOL0     C41636   6.735   0.467   0.448  0.0150 -0.0311 -0.0134
  309MOL0     C41637   6.615   0.530   0.409  0.0991  0.6437  0.0377
  309MOL0     O41638   6.541   0.617   0.489 -0.8477 -0.2669  0.9029
  309MOL0     C41639   6.610   0.701   0.587  0.3156  0.7515 -0.2341
  309MOL0     C41640   6.669   0.829   0.530  0.4883  0.3921  0.9511
  309MOL0     C41641   6.725   0.915   0.639  0.3340  0.1525 -0.4529
  309MOL0     C41642   6.743   1.064   0.583 -0.2033 -0.2697 -0.8900
  309MOL0     C41643   6.885   1.113   0.575  0.1638 -1.1748 -0.1190
  309MOL0     C41644   7.002   1.158   0.564 -0.0076 -0.0705 -0.4655
  309MOL0     C41645   6.571   0.496   0.276  0.3234 -0.1366 -0.6237
  309MOL0     C41646   6.649   0.412   0.193 -0.4757 -0.0985  0.0545
  309MOL0     C41647   6.589   0.392   0.053  0.3374 -1.1416 -0.3175
  309MOL0     H41648   6.972   0.057  -0.006 -2.3145 -0.3150  3.7799
  309MOL0     H41649   7.169  -0.007  -0.121 -0.9748  3.0810 -0.9118
  309MOL0     H41650   7.561   0.101   0.073 -1.0757  0.3185 -0.4663
  309MOL0     H41651   7.548  -0.063   0.130  1.9824 -2.9625 -2.4202
  309MOL0     H41652   7.647  -0.155  -0.069 -1.8578  0.7559  1.3298
  309MOL0     H41653   7.751  -0.051   0.015 -0.5809  1.0330  0.5446
  309MOL0     H41654   7.688   0.143  -0.141  3.4415  0.0382  0.0136
  309MOL0     H41655   7.607   0.027  -0.249 -1.7858 -1.0870  2.1775
  309MOL0     H41656   7.846   0.068  -0.333 -0.8919  4.2184  2.0368
  309MOL0     H41657   7.891   0.069  -0.171 -1.6192  1.5509  0.7056
  309MOL0     H41658   7.809  -0.203  -0.212 -1.3772 -1.1994 -3.5859
  309MOL0     H41659   7.894  -0.173  -0.355 -0.5494  3.1343 -1.2215
  309MOL0     H41660   8.016  -0.162  -0.076  4.2872 -0.3344  0.7024
  309MOL0     H41661   8.037  -0.261  -0.223 -0.1745 -1.6222  3.6566
  309MOL0     H41662   8.126   0.013  -0.155 -4.4722  0.7463 -1.3063
  309MOL0     H41663   8.128  -0.042  -0.329  1.1539  1.0273  0.4743
  309MOL0     H41664   8.306  -0.127  -0.106 -0.3753  2.4094  0.7134
  309MOL0     H41665   8.278  -0.230  -0.242 -1.3428  0.5068  1.3071
  309MOL0     H41666   8.377   0.128  -0.144 -3.2550 -3.3884 -0.3004
  309MOL0     H41667   8.691   0.220  -0.380  3.5946 -1.9721  2.4751
  309MOL0     H41668   8.565   0.301  -0.293  0.7367 -0.0568  0.8872
  309MOL0     H41669   8.658   0.216  -0.085  1.0849  1.9427  0.5109
  309MOL0     H41670   8.773   0.114  -0.171 -0.2092  0.7001 -0.8644
  309MOL0     H41671   8.863   0.308  -0.283 -1.6704  1.0991 -1.0952
  309MOL0     H41672   8.903   0.306  -0.111 -0.0990  0.6631  1.1409
  309MOL0     H41673   8.874   0.533  -0.183 -0.9607 -0.1350 -1.7546
  309MOL0     H41674   8.744   0.504  -0.070  3.3407  3.5117  1.1351
  309MOL0     H41675   8.526   0.612  -0.430  1.3966  0.4626 -1.4908
  309MOL0     H41676   8.431   0.849  -0.444 -1.0700 -0.9054  1.2430
  309MOL0     H41677   8.416   1.327  -0.231  0.7204 -0.9291 -1.0243
  309MOL0     H41678   8.238   1.481  -0.211  3.2544  1.0317 -2.7840
  309MOL0     H41679   7.837   1.354  -0.372 -1.1491 -0.4624  0.9341
  309MOL0     H41680   7.862   1.348  -0.194 -0.7310  0.2506  0.2067
  309MOL0     H41681   7.817   1.575  -0.155 -1.6647 -0.5587  0.7114
  309MOL0     H41682   7.784   1.608  -0.329  1.8797 -0.3645 -1.1481
  309MOL0     H41683   7.566   1.458  -0.295 -0.3455 -2.2723  1.0894
  309MOL0     H41684   7.621   1.426  -0.139  0.0504  2.1339  1.2318
  309MOL0     H41685   7.564   1.706  -0.261 -1.7013 -1.7651 -1.2709
  309MOL0     H41686   7.628   1.688  -0.105  1.3569 -3.3569  1.2798
  309MOL0     H41687   7.435   1.528  -0.043  0.0871 -2.1405 -2.6083
  309MOL0     H41688   7.369   1.579  -0.196  0.1308 -2.0666  0.0822
  309MOL0     H41689   7.477   1.764   0.026 -0.9079 -2.0254  1.9889
  309MOL0     H41690   7.385   1.827  -0.121 -2.8304 -1.1060 -1.7932
  309MOL0     H41691   7.266   1.676   0.122  3.2263  0.9363 -0.7719
  309MOL0     H41692   7.168   1.719  -0.021 -1.9678  0.7385  1.3083
  309MOL0     H41693   7.303   1.921   0.168  1.8361 -0.0989 -0.1379
  309MOL0     H41694   7.220   1.956   0.018  2.3931 -0.7288 -1.2985
  309MOL0     H41695   8.006   1.246  -0.492  0.9244  0.4444 -1.9098
  309MOL0     H41696   8.186   1.087  -0.505 -0.8763 -0.4703  0.7364
  309MOL0     H41697   8.733   0.982  -0.178  0.4259 -0.8675  1.6036
  309MOL0     H41698   8.797   0.736  -0.136 -0.3003 -0.8031  0.4137
  309MOL0     H41699   7.412   0.143   0.210  0.3253  1.5397 -0.3717
  309MOL0     H41700   7.199   0.216   0.305 -1.4159 -1.3272 -0.1849
  309MOL0     H41701   6.893   0.348   0.407 -1.2355  0.4695  1.2000
  309MOL0     H41702   6.785   0.486   0.543  0.6168  1.2850 -0.5690
  309MOL0     H41703   6.689   0.641   0.632 -1.2545 -1.6004 -0.4376
  309MOL0     H41704   6.544   0.731   0.669  0.0014 -0.8464  0.1194
  309MOL0     H41705   6.583   0.881   0.487 -0.8254  0.5991  3.5881
  309MOL0     H41706   6.748   0.798   0.463 -0.3358  0.1684  0.0619
  309MOL0     H41707   6.814   0.874   0.689  0.7492  1.3134 -0.2032
  309MOL0     H41708   6.649   0.922   0.718  1.7247 -2.2202  1.2234
  309MOL0     H41709   6.707   1.076   0.481  0.3517 -2.0856 -1.3427
  309MOL0     H41710   6.684   1.128   0.649 -0.5982 -0.7447 -0.7790
  309MOL0     H41711   7.102   1.198   0.570 -0.4302  1.0094 -0.4890
  309MOL0     H41712   6.482   0.534   0.227  0.5444  2.3995  0.7915
  309MOL0     H41713   6.670   0.370  -0.018 -0.7437  1.1114 -2.3550
  309MOL0     H41714   6.519   0.308   0.053 -0.8856 -0.1695 -1.8157
  309MOL0     H41715   6.537   0.476   0.009 -0.2889 -1.4998 -0.2679
  310MOL0     O41716   1.228   9.812   2.730 -0.3674 -0.2196  0.1204
  310MOL0     C41717   1.137   9.731   2.726 -0.0969  0.1693  0.2859
  310MOL0     O41718   1.124   9.616   2.800 -0.5538  0.1365 -1.0449
  310MOL0     C41719   1.222   9.603   2.891 -0.0350  0.1683 -0.6459
  310MOL0     C41720   1.326   9.512   2.868 -0.5507 -0.2331 -0.4799
  310MOL0     C41721   1.448   9.509   2.929 -0.0665 -0.9212 -0.9403
  310MOL0     C41722   1.465   9.604   3.040 -0.1916 -0.2601  0.2198
  310MOL0     O41723   1.593   9.609   3.093 -0.0276 -0.3614  0.7556
  310MOL0     C41724   1.595   9.676   3.221  0.4771 -0.0293 -0.1675
  310MOL0     C41725   1.734   9.687   3.271  0.2037  0.6679 -0.0599
  310MOL0     C41726   1.802   9.818   3.227 -0.0341 -0.5273 -0.1241
  310MOL0     C41727   1.933   9.837   3.292 -0.7529  0.2594  0.1447
  310MOL0     C41728   2.046   9.763   3.223 -0.1161 -0.7346  0.6962
  310MOL0     C41729   2.181   9.776   3.309  0.0204  0.3000 -0.1168
  310MOL0     C41730   2.298   9.707   3.225  0.0583  0.2495  0.4107
  310MOL0     C41731   2.420   9.693   3.309  0.1340  1.1965 -0.2048
  310MOL0     N41732   2.494   9.809   3.356  1.0316  0.0597  0.2059
  310MOL0     C41733   2.492   9.926   3.281 -0.0291 -0.7475  0.8530
  310MOL0     C41734   2.554  10.009   3.369 -0.5168 -0.2544 -0.3703
  310MOL0     C41735   2.573  10.155   3.359 -0.6222 -0.3179  0.7862
  310MOL0     C41736   2.702  10.171   3.272 -0.6958 -0.0760  0.0427
  310MOL0     C41737   2.830  10.148   3.359 -0.7437 -0.3235  0.1359
  310MOL0     C41738   2.958  10.158   3.271  0.8418 -0.0786 -0.0767
  310MOL0     O41739   2.999  10.285   3.241 -0.6697  0.6774  0.3455
  310MOL0     C41740   3.123  10.307   3.186  0.7553  0.1130  0.7210
  310MOL0     C41741   3.138  10.435   3.134 -0.8288 -0.3859 -0.6457
  310MOL0     C41742   3.253  10.486   3.071 -0.0140 -0.4211  0.4290
  310MOL0     C41743   3.364  10.402   3.063 -0.8062 -0.1486 -0.8042
  310MOL0     C41744   3.495  10.443   2.999  0.2249  0.2630  0.1656
  310MOL0     O41745   3.571  10.338   2.954 -0.3380  0.4463  0.3410
  310MOL0     C41746   3.700  10.373   2.912 -0.0136 -0.2543  0.7051
  310MOL0     C41747   3.798  10.388   3.009  0.3945 -0.4152  0.2495
  310MOL0     C41748   3.927  10.433   2.978 -0.0830 -0.3642  0.1097
  310MOL0     C41749   3.962  10.474   2.849  0.9125  0.2525  0.4149
  310MOL0     O41750   4.069  10.546   2.814 -0.6594  0.0810  0.1330
  310MOL0     C41751   4.157  10.600   2.909 -0.2001  0.4640  0.3092
  310MOL0     C41752   4.270  10.687   2.837  0.5094  0.1330  0.0794
  310MOL0     C41753   4.337  10.768   2.942 -0.7077  0.1396  0.0885
  310MOL0     C41754   4.429  10.882   2.892 -0.7590  1.0630 -0.0991
  310MOL0     C41755   4.495  10.959   3.005  0.4452 -0.6465 -0.2147
  310MOL0     C41756   4.596  11.052   2.942 -0.1228  0.2974 -0.1572
  310MOL0     C41757   4.654  11.153   3.043 -0.1779 -0.7359 -0.2434
  310MOL0     C41758   4.730  11.085   3.152 -0.5518  0.4156  0.0815
  310MOL0    Cl41759   4.803  11.222   3.247 -0.2412  0.0198 -0.1715
  310MOL0     C41760   3.870  10.455   2.745 -0.3282 -0.9896  0.1346
  310MOL0     C41761   3.743  10.404   2.775  0.7517 -0.4627  0.5840
  310MOL0     O41762   3.531  10.559   2.993  0.4148 -0.8167 -0.0488
  310MOL0     C41763   3.355  10.272   3.119  0.1428 -0.5910 -0.3971
  310MOL0     C41764   3.236  10.233   3.192 -0.8052  0.2655  0.4228
  310MOL0     N41765   2.586   9.942   3.487  0.9287 -0.1954 -0.1156
  310MOL0     N41766   2.551   9.819   3.475  0.0005  0.5238  0.2509
  310MOL0     C41767   1.356   9.686   3.075  0.5028  0.7255 -0.0103
  310MOL0     C41768   1.238   9.695   3.000 -0.2530  0.6216  0.2741
  310MOL0     C41769   1.022   9.762   2.643  1.2851 -0.5031  0.4362
  310MOL0     C41770   0.899   9.693   2.663 -0.0003  0.4644  0.5302
  310MOL0     C41771   0.783   9.725   2.594  0.5379  0.1461  0.1851
  310MOL0     C41772   0.770   9.825   2.507 -0.4405 -0.1530 -0.7008
  310MOL0     O41773   0.658   9.870   2.444  0.5750  0.0994 -0.1912
  310MOL0     C41774   0.601   9.979   2.523  0.5182  0.0599 -0.5558
  310MOL0     C41775   0.498   9.916   2.614 -0.7380  0.1682 -0.0515
  310MOL0     C41776   0.379   9.854   2.544  0.0312  0.3342  0.0495
  310MOL0     C41777   0.308   9.934   2.441  0.0194 -1.3172 -0.2935
  310MOL0     C41778   0.369   9.934   2.307  0.5231  0.1592 -0.0903
  310MOL0     C41779   0.423   9.931   2.198 -0.6508 -0.8236  0.2199
  310MOL0     C41780   0.884   9.890   2.479 -0.1761  0.4116 -0.2047
  310MOL0     C41781   1.014   9.863   2.540 -0.3867 -0.1534  0.3710
  310MOL0     C41782   1.133   9.944   2.500  0.4190  0.0714 -1.0049
  310MOL0     H41783   1.309   9.443   2.786 -0.2895 -0.3456 -0.4402
  310MOL0     H41784   1.538   9.466   2.886  1.1121  1.7604 -1.3367
  310MOL0     H41785   1.561   9.779   3.208  1.2388  0.7713  3.2201
  310MOL0     H41786   1.536   9.613   3.289  0.3556 -0.3308 -0.5473
  310MOL0     H41787   1.799   9.603   3.247  0.7298  1.0419  0.0452
  310MOL0     H41788   1.714   9.679   3.378 -2.0450 -1.6646 -0.5563
  310MOL0     H41789   1.739   9.906   3.247 -0.1044  0.2744 -3.3544
  310MOL0     H41790   1.800   9.825   3.118  2.1313  0.2433 -0.1639
  310MOL0     H41791   1.951   9.945   3.293  0.2300  0.1399  2.8349
  310MOL0     H41792   1.935   9.794   3.392  1.2359  0.0037  0.0467
  310MOL0     H41793   2.023   9.656   3.215 -0.5025 -0.5759 -0.4772
  310MOL0     H41794   2.063   9.814   3.128  1.3153  1.0690  1.8460
  310MOL0     H41795   2.211   9.879   3.334  1.3459  0.6859 -2.8981
  310MOL0     H41796   2.163   9.725   3.404 -0.9508 -1.6265 -1.2849
  310MOL0     H41797   2.310   9.762   3.131  1.3047 -0.4172  0.1522
  310MOL0     H41798   2.268   9.605   3.198 -2.0314  1.0762 -0.6193
  310MOL0     H41799   2.372   9.638   3.390 -0.1835 -2.4042 -2.6183
  310MOL0     H41800   2.493   9.628   3.259  0.4476  1.0117  0.4849
  310MOL0     H41801   2.441   9.949   3.188 -0.9431 -4.0702  0.3955
  310MOL0     H41802   2.486  10.193   3.305 -0.4809  0.7600  1.3002
  310MOL0     H41803   2.588  10.202   3.456 -0.0390  0.5312  0.3020
  310MOL0     H41804   2.703  10.099   3.189  1.4565  0.3788 -0.3931
  310MOL0     H41805   2.702  10.267   3.218 -2.9529  0.8626  1.5697
  310MOL0     H41806   2.812  10.055   3.413  1.2917 -0.0978  1.2906
  310MOL0     H41807   2.847  10.238   3.419  1.9116  0.8634 -2.1669
  310MOL0     H41808   2.957  10.101   3.177  1.7307 -0.2746  0.0234
  310MOL0     H41809   3.039  10.115   3.330  1.1376  1.1587  0.4493
  310MOL0     H41810   3.045  10.492   3.137 -0.6368  0.0251  3.1787
  310MOL0     H41811   3.249  10.591   3.043 -1.3854  0.4349  3.3462
  310MOL0     H41812   3.776  10.373   3.114 -0.4872  0.5335  0.2161
  310MOL0     H41813   4.002  10.433   3.057  1.7536 -0.0205 -1.5673
  310MOL0     H41814   4.100  10.664   2.977  1.9914 -0.1929  2.9350
  310MOL0     H41815   4.205  10.525   2.971 -0.2348  0.5836  0.4837
  310MOL0     H41816   4.333  10.613   2.787 -2.3693 -2.6019  0.1517
  310MOL0     H41817   4.214  10.753   2.770  0.9228  2.0301  1.5080
  310MOL0     H41818   4.262  10.815   3.005  1.0753  0.7895  1.8471
  310MOL0     H41819   4.386  10.702   3.015 -2.0224  1.3136  2.1342
  310MOL0     H41820   4.369  10.947   2.828 -2.1763 -1.2979 -1.3252
  310MOL0     H41821   4.507  10.851   2.822 -1.2921 -0.7606  0.0486
  310MOL0     H41822   4.550  10.893   3.072  2.6492  0.4853 -0.8242
  310MOL0     H41823   4.424  11.017   3.064  0.9738 -0.5626  0.3472
  310MOL0     H41824   4.681  10.991   2.911 -0.5375  0.5555 -1.9465
  310MOL0     H41825   4.546  11.095   2.854  0.6553  1.9194  0.1570
  310MOL0     H41826   4.577  11.211   3.096 -0.7728  1.1176 -2.8946
  310MOL0     H41827   4.720  11.230   3.003  0.8412 -1.4292  0.0726
  310MOL0     H41828   4.655  11.027   3.207 -0.9650 -2.0355 -2.8063
  310MOL0     H41829   4.803  11.010   3.120 -0.8509 -0.6088  1.6732
  310MOL0     H41830   3.890  10.484   2.642 -2.2775 -2.5447 -0.7505
  310MOL0     H41831   3.678  10.393   2.689  2.1218 -0.1449 -0.5291
  310MOL0     H41832   3.444  10.210   3.118  0.9847  0.5574  0.1040
  310MOL0     H41833   3.236  10.142   3.253  2.9506  0.2131  0.5840
  310MOL0     H41834   1.355   9.755   3.158 -0.1069  2.0334 -1.0778
  310MOL0     H41835   1.159   9.764   3.029  2.1688  2.5217  2.9062
  310MOL0     H41836   0.889   9.617   2.739  0.1978  0.1115  0.2047
  310MOL0     H41837   0.696   9.669   2.626 -0.9680  2.0004 -0.5258
  310MOL0     H41838   0.565  10.063   2.462  1.5803  1.1896  0.3062
  310MOL0     H41839   0.674  10.023   2.592  0.0206 -3.1917  2.2621
  310MOL0     H41840   0.463   9.995   2.682 -0.1649  0.7672 -0.4402
  310MOL0     H41841   0.556   9.844   2.672 -0.0249  1.0524  0.3472
  310MOL0     H41842   0.307   9.837   2.625 -0.4125  1.7922 -0.0172
  310MOL0     H41843   0.422   9.761   2.505 -0.1679 -0.4033  1.4981
  310MOL0     H41844   0.212   9.884   2.429  0.1450 -1.4969 -0.5612
  310MOL0     H41845   0.291  10.037   2.474  0.1125 -1.6015  0.6668
  310MOL0     H41846   0.467   9.920   2.101  0.6225 -3.8022  1.0047
  310MOL0     H41847   0.884   9.973   2.409  1.0912  1.2797  0.7788
  310MOL0     H41848   1.202   9.878   2.446  1.0788  0.9794 -1.2926
  310MOL0     H41849   1.095  10.026   2.438 -2.4269 -0.7552 -0.5146
  310MOL0     H41850   1.183   9.993   2.584 -1.6155 -2.0065  1.6078
  311MOL0     O41851   7.774   4.544   6.914 -0.0608  0.2636  0.4122
  311MOL0     C41852   7.736   4.479   6.814  0.7700  0.8990 -0.6316
  311MOL0     O41853   7.811   4.421   6.719  0.4133  0.5472 -0.4557
  311MOL0     C41854   7.948   4.418   6.730 -0.0436  0.2086  0.0043
  311MOL0     C41855   8.013   4.387   6.853  0.1537 -0.1697 -0.5461
  311MOL0     C41856   8.152   4.367   6.849  0.0515 -0.1282 -0.0845
  311MOL0     C41857   8.221   4.380   6.728 -1.6418  0.5340  0.5623
  311MOL0     O41858   8.363   4.373   6.728  0.2532 -0.0523  0.2102
  311MOL0     C41859   8.426   4.282   6.812 -0.6194  0.6419  0.2163
  311MOL0     C41860   8.567   4.259   6.758  0.7236 -0.2163  0.1344
  311MOL0     C41861   8.659   4.382   6.785  0.0267 -0.2906 -0.1017
  311MOL0     C41862   8.782   4.382   6.693 -0.7534 -0.2101 -0.6146
  311MOL0     C41863   8.877   4.260   6.714 -0.3660  0.2009 -0.2592
  311MOL0     C41864   9.015   4.276   6.638  0.4329  0.0768 -0.1813
  311MOL0     C41865   9.120   4.181   6.677  0.7233 -0.1613 -0.4010
  311MOL0     C41866   9.088   4.038   6.637  0.5552 -0.6674  0.1060
  311MOL0     N41867   9.209   3.954   6.616 -0.0925 -0.5576  0.6256
  311MOL0     C41868   9.314   3.990   6.539  0.0283  1.0050  0.5010
  311MOL0     C41869   9.401   3.887   6.539 -0.4275 -0.1686  0.7208
  311MOL0     C41870   9.524   3.893   6.461  0.3602 -0.4964 -0.6419
  311MOL0     C41871   9.510   3.923   6.311 -0.0709 -0.2066  0.6730
  311MOL0     C41872   9.630   3.900   6.216  0.1664 -0.2028  0.4726
  311MOL0     C41873   9.749   3.972   6.267 -0.8632  0.6160 -0.2745
  311MOL0     O41874   9.861   3.890   6.233  0.2674 -0.5121  0.0441
  311MOL0     C41875   9.984   3.951   6.235 -0.1720 -0.2123 -0.2375
  311MOL0     C41876  10.089   3.859   6.198  0.7274  0.2439 -0.4266
  311MOL0     C41877  10.223   3.900   6.203  0.5748  0.8173 -0.3200
  311MOL0     C41878  10.258   4.020   6.254  0.3521 -0.7983  0.4374
  311MOL0     C41879  10.395   4.053   6.287 -0.5133  0.1259 -0.0809
  311MOL0     O41880  10.497   3.975   6.244 -0.2030  0.1237  0.3259
  311MOL0     C41881  10.623   4.019   6.220  0.2087  0.0432  0.2389
  311MOL0     C41882  10.720   3.923   6.179 -0.1800 -0.7937  0.1287
  311MOL0     C41883  10.848   3.965   6.134 -1.1406 -0.0113 -0.5012
  311MOL0     C41884  10.887   4.097   6.134 -0.0230 -0.4034 -0.5335
  311MOL0     O41885  11.011   4.124   6.085 -0.1209 -1.4755  0.0874
  311MOL0     C41886  11.062   4.256   6.111  0.1566  0.1351 -0.5241
  311MOL0     C41887  11.198   4.277   6.047 -0.7214 -0.6998 -0.4112
  311MOL0     C41888  11.265   4.413   6.054  0.4032 -0.8807  0.2809
  311MOL0     C41889  11.397   4.427   5.986 -0.2672  1.6505  0.6734
  311MOL0     C41890  11.424   4.574   5.961  0.0401 -0.4540 -0.2280
  311MOL0     C41891  11.572   4.621   5.965 -0.4249  0.0662  0.1135
  311MOL0     C41892  11.593   4.753   5.889  0.1587 -0.3958 -0.3852
  311MOL0     C41893  11.703   4.840   5.949  1.5682  0.3394 -0.7707
  311MOL0    Cl41894  11.859   4.747   5.974  0.2787 -0.4664 -0.0185
  311MOL0     C41895  10.793   4.193   6.181  0.1531  0.0477  0.3387
  311MOL0     C41896  10.664   4.156   6.222 -0.0645  0.1694 -0.3389
  311MOL0     O41897  10.409   4.145   6.365 -0.3005  0.4094  0.2096
  311MOL0     C41898  10.156   4.111   6.290  0.5283  0.2339 -0.6015
  311MOL0     C41899  10.019   4.079   6.281 -0.2557  0.3654 -0.1939
  311MOL0     N41900   9.351   3.787   6.613  0.3691 -0.3293  0.1950
  311MOL0     N41901   9.230   3.824   6.660 -0.3931  0.2570  0.1228
  311MOL0     C41902   8.154   4.405   6.611  0.0874 -0.0357  0.5120
  311MOL0     C41903   8.015   4.419   6.609 -0.0745 -0.1758 -0.0315
  311MOL0     C41904   7.589   4.460   6.791 -0.4198 -0.0742  0.0476
  311MOL0     C41905   7.546   4.388   6.672  0.3735 -0.6971 -0.2540
  311MOL0     C41906   7.413   4.382   6.635 -0.8467  0.2745  0.5769
  311MOL0     C41907   7.312   4.439   6.710  0.6685  0.3091 -0.7139
  311MOL0     O41908   7.182   4.423   6.671  0.3236 -0.3851 -0.0204
  311MOL0     C41909   7.065   4.474   6.742 -0.2235 -0.2499  1.3414
  311MOL0     C41910   6.939   4.467   6.655  0.6747 -0.3440 -0.3958
  311MOL0     C41911   6.949   4.562   6.537 -0.1673  0.1437 -0.3471
  311MOL0     C41912   6.818   4.584   6.462  0.8660 -0.1543 -0.0703
  311MOL0     C41913   6.775   4.453   6.407 -0.1846 -0.3377 -0.1524
  311MOL0     C41914   6.749   4.345   6.369 -0.2094 -0.4528 -0.3153
  311MOL0     C41915   7.350   4.516   6.824 -0.6151  0.1246  0.7987
  311MOL0     C41916   7.486   4.511   6.869  0.1125  0.3415  0.3914
  311MOL0     C41917   7.516   4.590   6.991  0.7395  0.5112  1.1233
  311MOL0     H41918   7.955   4.370   6.943  1.4751  0.0540  0.3680
  311MOL0     H41919   8.205   4.345   6.941  0.0869 -0.6053 -0.2180
  311MOL0     H41920   8.431   4.334   6.909 -2.1749  0.0084  0.6637
  311MOL0     H41921   8.375   4.185   6.814  1.6011 -0.6923 -2.1102
  311MOL0     H41922   8.559   4.248   6.649 -1.2926  0.1418  0.2063
  311MOL0     H41923   8.613   4.167   6.796 -2.2574 -2.4687 -1.2410
  311MOL0     H41924   8.693   4.385   6.889 -2.3352  0.0812  0.7180
  311MOL0     H41925   8.602   4.473   6.766  0.3639  0.8481  3.5715
  311MOL0     H41926   8.750   4.387   6.588  1.0392 -1.8232 -1.3032
  311MOL0     H41927   8.832   4.477   6.713  2.4029 -2.0081  0.6616
  311MOL0     H41928   8.896   4.243   6.820  0.7630 -0.9004 -0.6148
  311MOL0     H41929   8.819   4.174   6.678 -0.4340 -0.9913  2.4566
  311MOL0     H41930   9.004   4.291   6.530  2.7871  3.0400 -0.1311
  311MOL0     H41931   9.054   4.372   6.672 -0.2597  0.8404 -1.4717
  311MOL0     H41932   9.128   4.184   6.786  0.0895  2.1638 -0.3661
  311MOL0     H41933   9.219   4.201   6.635  0.3548  2.2414 -0.2457
  311MOL0     H41934   9.027   4.005   6.722  0.3528  2.5875  1.3549
  311MOL0     H41935   9.029   4.046   6.546  0.9146  3.3503  0.0861
  311MOL0     H41936   9.312   4.083   6.482 -2.9095  0.4928 -0.3672
  311MOL0     H41937   9.586   3.967   6.512 -1.1758  0.8188 -0.5994
  311MOL0     H41938   9.578   3.798   6.453  0.6179 -0.4593  0.4869
  311MOL0     H41939   9.437   3.856   6.264 -0.2449 -0.2159  0.9542
  311MOL0     H41940   9.468   4.023   6.299  1.4429  0.2186 -1.8625
  311MOL0     H41941   9.609   3.927   6.112 -1.8389 -1.1625  0.5693
  311MOL0     H41942   9.644   3.792   6.203 -0.9532 -0.6316  2.3367
  311MOL0     H41943   9.744   3.985   6.375  1.4216 -1.1487  0.1461
  311MOL0     H41944   9.772   4.070   6.224  1.2645  0.5229  0.5265
  311MOL0     H41945  10.058   3.764   6.154  0.6678 -0.1571  0.4589
  311MOL0     H41946  10.296   3.825   6.174 -2.5405 -2.8813  0.5424
  311MOL0     H41947  10.693   3.819   6.165  0.0199 -1.3246  3.0017
  311MOL0     H41948  10.921   3.903   6.084  2.3378  2.2914  1.3536
  311MOL0     H41949  10.998   4.334   6.066 -1.6160  0.1613  1.8697
  311MOL0     H41950  11.071   4.280   6.217  0.4716  0.1042 -0.5419
  311MOL0     H41951  11.271   4.216   6.102 -0.6174 -0.1509  0.0730
  311MOL0     H41952  11.206   4.230   5.949  2.2646 -0.2297 -0.4849
  311MOL0     H41953  11.202   4.476   5.989  0.2514  0.6231  1.7985
  311MOL0     H41954  11.269   4.474   6.145  0.6689  0.1265 -0.3796
  311MOL0     H41955  11.384   4.374   5.892 -2.2547 -0.4437  2.0078
  311MOL0     H41956  11.484   4.388   6.039  0.0097 -1.8879 -2.0392
  311MOL0     H41957  11.367   4.634   6.034 -0.7016 -3.0792  1.5138
  311MOL0     H41958  11.387   4.589   5.860  0.3180  3.0911  0.0792
  311MOL0     H41959  11.600   4.637   6.070 -0.4674  2.8740 -0.2454
  311MOL0     H41960  11.633   4.538   5.927 -0.4809  0.7573 -1.5620
  311MOL0     H41961  11.494   4.799   5.891 -0.9027 -2.4836  2.6719
  311MOL0     H41962  11.627   4.716   5.792  1.5290  1.9573 -0.8762
  311MOL0     H41963  11.716   4.934   5.895  0.5143  2.3412  2.2239
  311MOL0     H41964  11.659   4.869   6.045  0.1074 -0.7924 -1.0713
  311MOL0     H41965  10.818   4.298   6.187 -3.6920  1.1193  0.0809
  311MOL0     H41966  10.595   4.234   6.251 -1.0534 -1.0563  0.7705
  311MOL0     H41967  10.186   4.209   6.323 -1.9283  0.3580  1.5810
  311MOL0     H41968   9.948   4.148   6.326 -0.2685 -1.0453  2.0803
  311MOL0     H41969   8.220   4.421   6.526  3.3957  5.1355  3.4912
  311MOL0     H41970   7.960   4.435   6.517 -1.8905  0.4950  1.1104
  311MOL0     H41971   7.618   4.340   6.606 -0.1204 -0.9135 -0.6446
  311MOL0     H41972   7.388   4.329   6.543  2.3241 -2.3641  1.0570
  311MOL0     H41973   7.077   4.576   6.778 -2.0811 -0.6450  3.3394
  311MOL0     H41974   7.055   4.418   6.836 -0.9876 -2.1597  0.1770
  311MOL0     H41975   6.848   4.486   6.713  2.0568 -1.0065  2.1177
  311MOL0     H41976   6.939   4.365   6.616 -0.4865 -2.1676  3.7872
  311MOL0     H41977   7.032   4.537   6.470  0.1903  3.7082 -1.4443
  311MOL0     H41978   6.985   4.657   6.577 -1.2268  0.5412 -0.3140
  311MOL0     H41979   6.740   4.607   6.535  2.6946  2.0943  1.3044
  311MOL0     H41980   6.837   4.669   6.396  0.7583  0.5150  0.7448
  311MOL0     H41981   6.742   4.247   6.326  1.3044 -0.2659 -1.0489
  311MOL0     H41982   7.277   4.578   6.874 -2.5296 -0.0721 -1.5737
  311MOL0     H41983   7.562   4.683   6.958  0.5342  0.6196  1.1386
  311MOL0     H41984   7.423   4.615   7.043 -0.6820  0.0032 -1.0371
  311MOL0     H41985   7.574   4.525   7.057  0.2661 -0.7448  0.3427
  312MOL0     O41986   2.676   3.404   3.405 -0.5913  0.0367  0.1633
  312MOL0     C41987   2.628   3.472   3.496 -0.6790  0.8232 -0.4423
  312MOL0     O41988   2.536   3.572   3.470 -0.3265 -0.2310  0.0223
  312MOL0     C41989   2.443   3.567   3.365  0.4891 -0.0085  0.8234
  312MOL0     C41990   2.425   3.471   3.253 -0.9050  0.6551 -0.1943
  312MOL0     C41991   2.340   3.492   3.151 -0.3868  0.6844 -0.3377
  312MOL0     C41992   2.246   3.599   3.145 -0.9619  0.2700 -0.4970
  312MOL0     O41993   2.156   3.608   3.037 -0.6090 -0.3339  0.5706
  312MOL0     C41994   2.079   3.732   3.034  1.0145 -0.3530  0.8570
  312MOL0     C41995   1.968   3.725   2.930 -0.0527  0.6851 -0.5229
  312MOL0     C41996   1.876   3.841   2.948 -1.0148 -0.0959  0.6371
  312MOL0     C41997   1.772   3.838   2.841 -0.0465  0.0305 -0.2060
  312MOL0     C41998   1.673   3.959   2.852  0.5748 -0.7912  0.2264
  312MOL0     C41999   1.734   4.097   2.855 -0.5712 -0.2456  0.7875
  312MOL0     C42000   1.831   4.128   2.733  0.0782  0.1453 -0.5509
  312MOL0     C42001   1.874   4.283   2.712  0.0377  0.4747  1.3404
  312MOL0     N42002   1.779   4.369   2.642 -0.2188 -0.6370  0.2047
  312MOL0     C42003   1.789   4.506   2.620  0.3499  0.0295  0.0804
  312MOL0     C42004   1.703   4.537   2.517  0.0467  0.1301  0.1595
  312MOL0     C42005   1.678   4.669   2.442 -0.3400 -0.1764 -0.5549
  312MOL0     C42006   1.807   4.725   2.390  0.3344  0.2434 -0.4747
  312MOL0     C42007   1.818   4.707   2.243  0.6959  0.0819 -0.6926
  312MOL0     C42008   1.903   4.821   2.182 -0.6558 -0.7139 -0.4071
  312MOL0     O42009   1.968   4.785   2.064  0.0676  0.6858 -0.3593
  312MOL0     C42010   2.049   4.879   2.009 -0.5327 -0.3932  1.0008
  312MOL0     C42011   2.017   5.014   1.994  0.1239 -0.5740  0.0596
  312MOL0     C42012   2.102   5.100   1.925  0.3329  0.3501  0.9810
  312MOL0     C42013   2.231   5.056   1.894 -0.0164 -1.1018  0.3444
  312MOL0     C42014   2.323   5.139   1.819  0.3151  0.3369 -0.0436
  312MOL0     O42015   2.269   5.226   1.729  0.5252 -0.5053  0.3314
  312MOL0     C42016   2.349   5.333   1.685 -1.0191  0.1313 -0.2880
  312MOL0     C42017   2.330   5.390   1.558  0.0737  0.2386 -1.0919
  312MOL0     C42018   2.402   5.493   1.499  0.4507  1.3281  0.1172
  312MOL0     C42019   2.505   5.533   1.575 -0.8680  0.1331  0.4409
  312MOL0     O42020   2.595   5.629   1.542 -0.4915 -0.4505 -0.4128
  312MOL0     C42021   2.611   5.666   1.404  0.1214  0.5203 -0.8381
  312MOL0     C42022   2.746   5.739   1.386  0.2161 -0.0281 -1.1166
  312MOL0     C42023   2.747   5.793   1.241  0.6492 -0.1368 -0.7546
  312MOL0     C42024   2.881   5.879   1.225 -0.1742 -0.7665 -0.8832
  312MOL0     C42025   2.890   5.947   1.091  0.0169 -1.2556  0.2821
  312MOL0     C42026   2.995   6.058   1.079  0.3332 -1.4465  0.6137
  312MOL0     C42027   3.016   6.109   0.945 -0.1023  0.3769 -0.0850
  312MOL0     C42028   3.106   6.022   0.857 -0.1051  0.6014  0.0465
  312MOL0    Cl42029   3.092   6.086   0.690 -0.7284 -0.2495  0.5737
  312MOL0     C42030   2.526   5.494   1.708  0.2623 -0.0914 -0.2952
  312MOL0     C42031   2.448   5.399   1.757  0.8017  0.2397 -0.4305
  312MOL0     O42032   2.443   5.119   1.825 -0.1313 -0.5176 -0.1088
  312MOL0     C42033   2.269   4.928   1.922 -0.3494 -0.5889 -0.2040
  312MOL0     C42034   2.182   4.837   1.976  0.2406 -0.1581  0.7966
  312MOL0     N42035   1.639   4.411   2.489 -0.4610 -0.3105  0.2067
  312MOL0     N42036   1.689   4.317   2.558 -0.1372  0.0246 -0.4267
  312MOL0     C42037   2.265   3.693   3.249 -0.0482  0.0876 -0.1949
  312MOL0     C42038   2.353   3.679   3.355 -0.2029  0.4835  0.2253
  312MOL0     C42039   2.688   3.453   3.630 -0.2978  0.1022  0.4119
  312MOL0     C42040   2.719   3.322   3.668 -0.2715 -0.0239 -0.0217
  312MOL0     C42041   2.766   3.283   3.789  0.5925 -0.1584  0.3776
  312MOL0     C42042   2.798   3.381   3.883  0.6341  0.3918  0.8107
  312MOL0     O42043   2.840   3.324   4.001  0.0005 -0.1188  0.5562
  312MOL0     C42044   2.889   3.417   4.097 -0.0937 -0.0068 -0.1416
  312MOL0     C42045   2.942   3.333   4.218  0.5576  0.1333 -0.7650
  312MOL0     C42046   3.049   3.224   4.188  1.1178  0.2128  0.1385
  312MOL0     C42047   3.124   3.169   4.309 -0.4594 -0.3713  1.5766
  312MOL0     C42048   3.233   3.255   4.356 -0.2808 -0.0782  0.3310
  312MOL0     C42049   3.318   3.332   4.389  0.7045 -0.4467 -0.2603
  312MOL0     C42050   2.792   3.521   3.840  1.4235 -0.2214  0.0280
  312MOL0     C42051   2.728   3.555   3.714  0.0540  1.1813  0.5279
  312MOL0     C42052   2.709   3.707   3.683 -0.7403  0.4017  0.5248
  312MOL0     H42053   2.481   3.378   3.254 -3.4885 -1.0227  1.7280
  312MOL0     H42054   2.338   3.420   3.070 -2.0473 -0.8848  1.0147
  312MOL0     H42055   2.033   3.740   3.133  1.6107 -2.1821  1.3117
  312MOL0     H42056   2.139   3.820   3.010 -1.2622  1.5302  1.6999
  312MOL0     H42057   1.910   3.633   2.943 -3.4867  1.9171 -4.7873
  312MOL0     H42058   2.016   3.726   2.832 -0.1668 -0.9202 -0.6245
  312MOL0     H42059   1.914   3.944   2.951 -2.7189  0.5918  0.1333
  312MOL0     H42060   1.821   3.824   3.042 -5.2223  0.0743 -1.5390
  312MOL0     H42061   1.808   3.829   2.738 -1.8102  0.3986 -0.8893
  312MOL0     H42062   1.720   3.745   2.864  0.3783  0.1839  1.4832
  312MOL0     H42063   1.598   3.957   2.772  1.8019 -0.3263 -0.9706
  312MOL0     H42064   1.621   3.947   2.947  1.3312  0.9552  0.9016
  312MOL0     H42065   1.663   4.180   2.849  1.3317  1.3644 -1.1245
  312MOL0     H42066   1.793   4.109   2.947 -0.1038  0.9165  0.3532
  312MOL0     H42067   1.789   4.091   2.639  0.5034 -2.7634  0.2904
  312MOL0     H42068   1.922   4.069   2.746 -1.0763 -1.8329 -0.8845
  312MOL0     H42069   1.878   4.312   2.817  0.1591 -0.0728  1.4905
  312MOL0     H42070   1.975   4.285   2.669  0.1669  3.0781  1.6014
  312MOL0     H42071   1.856   4.581   2.659 -0.6608  0.3730  1.2155
  312MOL0     H42072   1.605   4.643   2.365 -3.0656 -3.1943  2.6783
  312MOL0     H42073   1.640   4.735   2.521  1.1199  0.4513 -0.3580
  312MOL0     H42074   1.818   4.831   2.416  1.2088  0.9481 -3.3217
  312MOL0     H42075   1.892   4.677   2.440 -2.3426 -0.1839  4.2111
  312MOL0     H42076   1.716   4.702   2.204 -0.6925 -1.5219  2.7614
  312MOL0     H42077   1.868   4.612   2.224 -0.8451 -1.6289  2.8842
  312MOL0     H42078   1.977   4.849   2.258 -1.2377  1.6988 -0.6410
  312MOL0     H42079   1.842   4.911   2.179  0.6814  0.2677  0.5486
  312MOL0     H42080   1.924   5.058   2.030  0.6460  0.9961 -0.4710
  312MOL0     H42081   2.062   5.200   1.907 -0.9483  0.0905  2.2532
  312MOL0     H42082   2.242   5.343   1.514 -0.2756 -2.3357  1.9855
  312MOL0     H42083   2.380   5.519   1.396 -2.7096 -1.3254 -0.0471
  312MOL0     H42084   2.604   5.575   1.343 -3.6110  1.1460 -1.5438
  312MOL0     H42085   2.534   5.733   1.366 -0.8679 -1.3104 -2.1981
  312MOL0     H42086   2.750   5.831   1.446 -0.3508  0.0731 -1.2233
  312MOL0     H42087   2.831   5.680   1.421 -1.1821 -1.1625  0.5720
  312MOL0     H42088   2.769   5.719   1.164  1.4019 -1.1749  0.4215
  312MOL0     H42089   2.654   5.844   1.213 -1.0299 -3.0881 -0.9307
  312MOL0     H42090   2.969   5.818   1.246  0.0583 -1.2489 -3.0303
  312MOL0     H42091   2.872   5.962   1.296 -2.1925  0.7574 -2.7669
  312MOL0     H42092   2.797   6.000   1.073 -0.8011 -1.5216  3.2617
  312MOL0     H42093   2.907   5.874   1.010 -1.7106 -1.4941  0.1080
  312MOL0     H42094   2.950   6.139   1.137 -0.4900 -2.5643  1.5901
  312MOL0     H42095   3.092   6.030   1.120 -0.3994 -3.2310  1.2295
  312MOL0     H42096   3.071   6.203   0.951 -1.2920  1.0629  0.5385
  312MOL0     H42097   2.919   6.134   0.901 -0.3278 -0.3583 -0.0246
  312MOL0     H42098   3.209   6.017   0.895  0.1526 -1.8693 -0.8014
  312MOL0     H42099   3.071   5.918   0.860 -1.6403  1.1039  0.2466
  312MOL0     H42100   2.612   5.533   1.762 -0.1196 -0.9435  0.9827
  312MOL0     H42101   2.464   5.363   1.858  2.0628 -2.6738 -1.5493
  312MOL0     H42102   2.368   4.893   1.896  0.5717  2.1626 -0.6902
  312MOL0     H42103   2.209   4.732   1.976  0.8361 -0.1119 -2.2162
  312MOL0     H42104   2.206   3.784   3.254  2.6234  1.8710  1.0037
  312MOL0     H42105   2.350   3.757   3.431  0.7876  3.7801 -2.8148
  312MOL0     H42106   2.697   3.245   3.596  0.1983 -1.4161  1.2778
  312MOL0     H42107   2.783   3.180   3.820 -0.9342 -0.4762  0.2566
  312MOL0     H42108   2.818   3.487   4.141  0.3012 -0.2566  0.9512
  312MOL0     H42109   2.965   3.478   4.046 -1.5565 -1.0750 -3.9431
  312MOL0     H42110   2.858   3.285   4.268  0.5662  0.6944 -0.1863
  312MOL0     H42111   2.994   3.411   4.275 -0.3564  1.1244 -1.2535
  312MOL0     H42112   3.112   3.254   4.104  0.5069  1.0314 -0.0400
  312MOL0     H42113   3.002   3.134   4.146 -0.3257  1.3209 -0.7265
  312MOL0     H42114   3.053   3.175   4.392 -0.2004  3.4674  1.7220
  312MOL0     H42115   3.176   3.075   4.288 -0.5722  0.0593 -0.8425
  312MOL0     H42116   3.395   3.391   4.433  1.6883  0.4246 -2.9544
  312MOL0     H42117   2.812   3.607   3.903  1.4967  0.4274 -0.8469
  312MOL0     H42118   2.618   3.712   3.622  0.5096  2.8270 -1.3287
  312MOL0     H42119   2.696   3.756   3.780 -0.0224 -0.7027  1.1975
  312MOL0     H42120   2.793   3.758   3.636 -0.2223  0.9970  2.0384
  313MOL0     O42121   1.300   7.903  11.152  0.1457 -0.0450  0.5150
  313MOL0     C42122   1.356   7.796  11.186  0.7171  0.2777 -0.4089
  313MOL0     O42123   1.381   7.702  11.097 -0.1839 -0.1756  0.2456
  313MOL0     C42124   1.394   7.738  10.963  0.1964 -0.3122  0.4241
  313MOL0     C42125   1.468   7.845  10.922  0.5452 -0.2138  0.0538
  313MOL0     C42126   1.466   7.902  10.790 -0.2850 -0.5013 -0.4517
  313MOL0     C42127   1.404   7.819  10.695 -0.6107  0.0929 -0.2200
  313MOL0     O42128   1.422   7.864  10.570  0.7071 -0.3093  0.3586
  313MOL0     C42129   1.370   7.785  10.459 -0.4860 -0.4538  0.5111
  313MOL0     C42130   1.441   7.831  10.335  0.8156 -0.4545 -0.1333
  313MOL0     C42131   1.384   7.754  10.219 -1.0248 -0.2128  0.5153
  313MOL0     C42132   1.465   7.787  10.090  0.0916 -0.3286 -0.3106
  313MOL0     C42133   1.507   7.936  10.073  0.1743  1.1358  0.5859
  313MOL0     C42134   1.498   7.981   9.930 -0.2182  0.1005  0.3932
  313MOL0     C42135   1.534   8.127   9.906  0.0052  0.4553 -0.3564
  313MOL0     C42136   1.689   8.144   9.930  0.5652  0.9325  0.4889
  313MOL0     N42137   1.735   8.275   9.878  0.4069 -0.1872 -0.2824
  313MOL0     C42138   1.778   8.304   9.756  0.2561 -0.5702  0.0559
  313MOL0     C42139   1.808   8.440   9.754  1.0401 -0.4071  0.1100
  313MOL0     C42140   1.841   8.522   9.634  0.0990  0.1163  0.1560
  313MOL0     C42141   1.986   8.536   9.607 -0.3526  0.2293  0.6156
  313MOL0     C42142   2.034   8.658   9.531 -0.3635 -0.9451  0.2042
  313MOL0     C42143   2.192   8.668   9.522  0.6453  0.1162  0.1663
  313MOL0     O42144   2.244   8.639   9.658  0.1565 -0.4996  0.0281
  313MOL0     C42145   2.384   8.645   9.668  0.8939  1.3096 -0.0108
  313MOL0     C42146   2.462   8.704   9.574  0.3524  0.1616 -1.0706
  313MOL0     C42147   2.601   8.704   9.580 -0.3878 -0.8099  0.1949
  313MOL0     C42148   2.676   8.657   9.693  0.5183 -0.2844 -0.0644
  313MOL0     C42149   2.826   8.663   9.698  0.5959 -0.0556 -0.4810
  313MOL0     O42150   2.897   8.704   9.583 -0.9135  0.1595  0.3263
  313MOL0     C42151   3.031   8.681   9.576 -0.0750 -0.2380 -0.2809
  313MOL0     C42152   3.122   8.713   9.676 -0.1864 -0.5681 -0.9862
  313MOL0     C42153   3.261   8.708   9.664  0.0165  0.3108 -0.2818
  313MOL0     C42154   3.313   8.645   9.556 -1.0859  0.3930  0.7089
  313MOL0     O42155   3.452   8.645   9.537 -0.3523 -0.8568 -0.0302
  313MOL0     C42156   3.514   8.570   9.432 -0.2672  0.0002 -0.1080
  313MOL0     C42157   3.667   8.602   9.425 -0.1514  0.1237 -0.4091
  313MOL0     C42158   3.700   8.742   9.471 -0.4934 -0.7592  0.2283
  313MOL0     C42159   3.859   8.773   9.442 -0.6716 -0.5539 -0.6347
  313MOL0     C42160   3.901   8.922   9.467 -0.0001 -0.0708 -0.6624
  313MOL0     C42161   4.051   8.941   9.473  0.2430 -0.2505  0.8219
  313MOL0     C42162   4.130   8.917   9.337  0.0884  0.2875 -0.2490
  313MOL0     C42163   4.178   8.771   9.318  0.1886  0.7997 -0.3786
  313MOL0    Cl42164   4.317   8.776   9.204 -0.0854 -0.4828  0.1368
  313MOL0     C42165   3.223   8.598   9.450  0.2670 -0.8972 -0.3112
  313MOL0     C42166   3.081   8.628   9.459 -0.4057  0.0835  0.1659
  313MOL0     O42167   2.875   8.624   9.803  0.2397 -0.0741 -0.2404
  313MOL0     C42168   2.596   8.593   9.784  0.0579  0.2453 -0.6302
  313MOL0     C42169   2.453   8.583   9.777 -0.0454  0.2003  0.4898
  313MOL0     N42170   1.793   8.484   9.884  0.3812 -0.3706 -0.4817
  313MOL0     N42171   1.760   8.384   9.957 -0.4049  0.3475  0.5995
  313MOL0     C42172   1.324   7.710  10.732 -0.6697 -0.1314  0.2703
  313MOL0     C42173   1.320   7.668  10.865  0.0715 -0.1406  0.3839
  313MOL0     C42174   1.378   7.762  11.329 -0.2106  0.1745  0.3231
  313MOL0     C42175   1.464   7.648  11.345  0.3104  0.5487 -0.0039
  313MOL0     C42176   1.495   7.603  11.471  0.6886  0.4776 -0.5489
  313MOL0     C42177   1.446   7.669  11.582  0.1952 -0.2061  0.3145
  313MOL0     O42178   1.474   7.627  11.704  0.8597  0.3307  0.1052
  313MOL0     C42179   1.369   7.605  11.803  0.1450  0.3156  0.2217
  313MOL0     C42180   1.427   7.580  11.941 -1.1137 -0.2685  0.2331
  313MOL0     C42181   1.318   7.597  12.041 -0.6361  0.6266 -0.1231
  313MOL0     C42182   1.400   7.620  12.176  0.8744 -0.1840  0.0285
  313MOL0     C42183   1.450   7.756  12.195 -0.6773  0.3827  0.7939
  313MOL0     C42184   1.509   7.867  12.204 -0.2532 -0.5489  0.5108
  313MOL0     C42185   1.368   7.779  11.573  0.2441  1.1547  0.4279
  313MOL0     C42186   1.332   7.832  11.443 -0.2558  0.7683 -0.4307
  313MOL0     C42187   1.253   7.964  11.437 -1.1684  0.5253 -0.5008
  313MOL0     H42188   1.513   7.905  11.001  0.2784  2.7449 -1.8742
  313MOL0     H42189   1.519   7.993  10.764 -4.1765  1.9339 -0.7332
  313MOL0     H42190   1.393   7.678  10.473  0.1901 -0.4188 -0.2462
  313MOL0     H42191   1.267   7.805  10.429 -0.0568  1.0330 -0.0265
  313MOL0     H42192   1.550   7.829  10.345  0.9022  3.4434  1.4761
  313MOL0     H42193   1.424   7.938  10.322 -1.9612 -0.4367  2.4678
  313MOL0     H42194   1.279   7.771  10.193 -0.8836  0.3893  0.3195
  313MOL0     H42195   1.386   7.648  10.244 -1.2901 -0.8911 -2.0307
  313MOL0     H42196   1.547   7.715  10.091  0.7145  0.3623  0.3228
  313MOL0     H42197   1.401   7.760  10.006 -0.5802 -1.8894  0.6770
  313MOL0     H42198   1.431   7.991  10.128 -2.5643 -1.9718  0.2245
  313MOL0     H42199   1.607   7.941  10.118 -0.0187 -1.3764  1.4695
  313MOL0     H42200   1.571   7.920   9.877 -0.4184 -0.0002  0.2286
  313MOL0     H42201   1.399   7.962   9.885  0.6247  0.9801 -2.0054
  313MOL0     H42202   1.472   8.188   9.972  0.2443 -0.1650  0.4697
  313MOL0     H42203   1.512   8.163   9.805  2.1871 -0.1962 -1.1344
  313MOL0     H42204   1.696   8.127  10.038 -0.8620 -3.0091  0.1155
  313MOL0     H42205   1.742   8.069   9.871  4.9040  1.6625  3.0248
  313MOL0     H42206   1.784   8.242   9.666 -1.6524 -1.4792  0.5195
  313MOL0     H42207   1.790   8.474   9.551  2.3619 -1.7553 -0.2590
  313MOL0     H42208   1.803   8.622   9.657  2.6506  0.7470  2.2143
  313MOL0     H42209   2.038   8.529   9.704 -1.7870  0.0897  1.4013
  313MOL0     H42210   2.011   8.448   9.548  1.4948  2.3960 -2.0772
  313MOL0     H42211   1.990   8.745   9.581 -3.6289 -4.3167  3.8980
  313MOL0     H42212   2.002   8.659   9.426  1.7988  3.2983 -0.6488
  313MOL0     H42213   2.222   8.758   9.469  0.5529 -0.6281 -1.1980
  313MOL0     H42214   2.218   8.586   9.454 -1.7045  0.8032 -1.6907
  313MOL0     H42215   2.413   8.732   9.481 -4.0496 -3.1494 -0.0492
  313MOL0     H42216   2.653   8.764   9.506  2.2653 -1.1217  1.6624
  313MOL0     H42217   3.088   8.748   9.772 -0.6532 -0.8758 -1.0364
  313MOL0     H42218   3.336   8.734   9.737 -1.3822 -0.0973  1.3734
  313MOL0     H42219   3.514   8.463   9.456  0.9111  0.8935  5.0713
  313MOL0     H42220   3.472   8.592   9.334 -0.8932 -0.5854  0.0145
  313MOL0     H42221   3.719   8.521   9.477 -1.1528 -1.3810 -1.6298
  313MOL0     H42222   3.693   8.596   9.319  0.1619 -0.7111 -0.2933
  313MOL0     H42223   3.641   8.825   9.430  0.6154 -0.9340 -1.8561
  313MOL0     H42224   3.684   8.747   9.579 -0.3589 -2.4481  0.3486
  313MOL0     H42225   3.879   8.761   9.335  1.6583 -0.4206 -0.2638
  313MOL0     H42226   3.924   8.703   9.494  3.1304  0.4328 -3.5413
  313MOL0     H42227   3.868   8.957   9.565 -0.9014 -2.9198  0.1221
  313MOL0     H42228   3.846   8.986   9.397 -2.4433 -3.0563 -1.6572
  313MOL0     H42229   4.061   9.048   9.495  1.0676 -0.5103  1.7613
  313MOL0     H42230   4.090   8.878   9.553  0.2246  1.6743  2.4289
  313MOL0     H42231   4.217   8.982   9.329  0.9311 -0.6413  1.0098
  313MOL0     H42232   4.068   8.939   9.250  3.7326 -3.8963 -4.4807
  313MOL0     H42233   4.208   8.730   9.414  3.9476  0.6901 -1.4266
  313MOL0     H42234   4.098   8.705   9.282  0.8208 -0.6059  0.7247
  313MOL0     H42235   3.258   8.545   9.361 -1.3626 -0.0972 -1.4912
  313MOL0     H42236   3.019   8.595   9.376 -1.5175 -0.8351  1.3150
  313MOL0     H42237   2.628   8.556   9.881 -1.8339  1.9563  0.7361
  313MOL0     H42238   2.398   8.535   9.857 -1.2026  1.5395  0.5371
  313MOL0     H42239   1.271   7.648  10.660 -2.1296  0.9269  0.3975
  313MOL0     H42240   1.252   7.585  10.882  1.3290 -1.2510  0.0588
  313MOL0     H42241   1.514   7.598  11.262 -1.5557  1.3774 -1.7168
  313MOL0     H42242   1.540   7.506  11.488 -3.8688 -1.6141  0.9919
  313MOL0     H42243   1.315   7.512  11.783  2.3631 -0.7320 -1.3018
  313MOL0     H42244   1.291   7.682  11.807 -1.2614 -1.0714  0.9039
  313MOL0     H42245   1.492   7.665  11.964 -0.8561 -0.0322 -1.2821
  313MOL0     H42246   1.472   7.481  11.946 -1.9229 -0.6495  0.1374
  313MOL0     H42247   1.252   7.511  12.048  1.4635 -0.9882  0.9433
  313MOL0     H42248   1.256   7.683  12.016  0.3425  1.0956 -1.0564
  313MOL0     H42249   1.325   7.590  12.250  0.9878 -0.5248  0.0076
  313MOL0     H42250   1.477   7.542  12.185 -1.3312 -2.3108  1.9234
  313MOL0     H42251   1.571   7.954  12.200 -1.3968  0.2566 -1.3146
  313MOL0     H42252   1.322   7.818  11.664 -0.1804 -0.4009  0.9090
  313MOL0     H42253   1.190   7.962  11.348  0.1011 -2.1861 -1.4391
  313MOL0     H42254   1.188   7.964  11.526 -2.0158  2.3288 -1.0827
  313MOL0     H42255   1.322   8.047  11.451  1.1484 -1.6579  2.2900
  314MOL0     O42256   8.323   8.627   8.067 -0.5369 -0.1974  0.0792
  314MOL0     C42257   8.314   8.616   7.945 -0.1941  0.1908 -1.2520
  314MOL0     O42258   8.395   8.680   7.854  0.3366  0.2759  0.3589
  314MOL0     C42259   8.515   8.744   7.881  0.8929 -0.8077 -0.0042
  314MOL0     C42260   8.546   8.854   7.799  0.8493 -0.9427 -0.3652
  314MOL0     C42261   8.661   8.926   7.819  0.3396  0.3111  0.0687
  314MOL0     C42262   8.747   8.893   7.933 -0.3640  0.0213  0.1077
  314MOL0     O42263   8.863   8.963   7.957 -0.0562 -0.0110  0.6506
  314MOL0     C42264   8.939   9.032   7.845  0.4726 -0.0330 -0.7161
  314MOL0     C42265   9.077   9.072   7.886 -0.0432 -0.1169 -1.0786
  314MOL0     C42266   9.172   8.944   7.907  0.5374 -0.0913 -0.1230
  314MOL0     C42267   9.323   8.984   7.899  0.1932  0.4849 -0.2885
  314MOL0     C42268   9.362   9.109   7.976  0.8968 -0.2825 -0.7898
  314MOL0     C42269   9.510   9.131   8.007 -0.3864  0.2223 -0.3153
  314MOL0     C42270   9.530   9.246   8.106 -0.6660  0.4278 -0.0409
  314MOL0     C42271   9.525   9.386   8.036 -0.4304  0.1336  0.2225
  314MOL0     N42272   9.642   9.388   7.941 -0.0271 -0.5218 -0.5396
  314MOL0     C42273   9.769   9.355   7.974 -0.0999 -1.1367  0.3633
  314MOL0     C42274   9.845   9.389   7.867 -0.5515 -0.7896  0.2824
  314MOL0     C42275   9.997   9.364   7.863  0.4522  0.0170  0.3811
  314MOL0     C42276  10.042   9.380   7.724 -0.1169  0.1073 -0.3322
  314MOL0     C42277  10.187   9.340   7.719  0.8057 -0.1587 -0.6447
  314MOL0     C42278  10.245   9.311   7.584 -1.0989 -0.2473  0.0057
  314MOL0     O42279  10.240   9.435   7.509 -0.2500 -0.0756 -0.0168
  314MOL0     C42280  10.306   9.448   7.387  0.1177  0.3154  0.3402
  314MOL0     C42281  10.377   9.335   7.337 -0.2631 -0.3260  0.4265
  314MOL0     C42282  10.468   9.360   7.239 -1.4967 -0.8999 -0.1278
  314MOL0     C42283  10.485   9.485   7.181  0.1629  0.3045  0.6597
  314MOL0     C42284  10.576   9.495   7.065  0.9091  0.0493  0.6849
  314MOL0     O42285  10.606   9.382   6.997  0.0060 -0.2090  0.2830
  314MOL0     C42286  10.700   9.388   6.900  0.1482 -0.5687  0.4593
  314MOL0     C42287  10.683   9.299   6.798  0.8305  0.7519  0.4022
  314MOL0     C42288  10.770   9.294   6.687  0.2238  0.2110  0.7049
  314MOL0     C42289  10.877   9.385   6.689 -0.7743 -0.2314 -0.4842
  314MOL0     O42290  10.961   9.393   6.576  0.0442  0.1625  0.6811
  314MOL0     C42291  11.104   9.418   6.582  0.8771 -0.0902 -0.0657
  314MOL0     C42292  11.166   9.420   6.444 -0.3341  0.3556  0.6083
  314MOL0     C42293  11.321   9.402   6.433 -0.5084  0.5811 -0.6936
  314MOL0     C42294  11.400   9.523   6.470  0.3329 -0.6189  0.0025
  314MOL0     C42295  11.553   9.520   6.458 -0.6627  0.4564  0.4136
  314MOL0     C42296  11.610   9.385   6.518 -0.5195 -0.5996  0.2257
  314MOL0     C42297  11.767   9.383   6.498  0.1913 -0.4179 -0.7150
  314MOL0     C42298  11.841   9.472   6.604 -1.3524  0.8601  0.3489
  314MOL0    Cl42299  12.016   9.456   6.606 -0.2930 -0.0947 -0.1309
  314MOL0     C42300  10.907   9.467   6.800  0.4272  0.2624 -0.3302
  314MOL0     C42301  10.817   9.470   6.912  0.0872 -0.6151  0.2390
  314MOL0     O42302  10.598   9.614   7.032 -0.2508 -0.5287 -0.4857
  314MOL0     C42303  10.410   9.591   7.225  0.4340  0.2689  0.5549
  314MOL0     C42304  10.319   9.579   7.332 -0.2817  0.1860 -0.6425
  314MOL0     N42305   9.760   9.449   7.772  0.3859  0.5575 -0.4846
  314MOL0     N42306   9.638   9.439   7.818 -0.7594  0.0849 -0.2226
  314MOL0     C42307   8.711   8.790   8.019 -0.0674 -0.7452  0.4886
  314MOL0     C42308   8.592   8.717   7.995 -0.3501  0.3548  0.6921
  314MOL0     C42309   8.203   8.529   7.911 -0.1329 -0.9061  0.8298
  314MOL0     C42310   8.141   8.553   7.783 -0.7366 -0.6394  1.0564
  314MOL0     C42311   8.027   8.487   7.749 -0.1473 -0.3957 -0.2715
  314MOL0     C42312   7.970   8.392   7.830  0.6818  0.2119 -0.2048
  314MOL0     O42313   7.845   8.342   7.799  0.8696  0.2911  0.4130
  314MOL0     C42314   7.742   8.434   7.841 -0.6759  0.7569 -0.4603
  314MOL0     C42315   7.612   8.372   7.780 -0.0255  0.7096 -0.1449
  314MOL0     C42316   7.623   8.338   7.628 -1.2387  0.0154  0.2367
  314MOL0     C42317   7.660   8.461   7.543  0.7869  0.4959 -0.2515
  314MOL0     C42318   7.558   8.556   7.558 -0.0011 -0.3517 -0.5237
  314MOL0     C42319   7.462   8.629   7.564 -0.9142 -0.9262 -0.6200
  314MOL0     C42320   8.015   8.377   7.957  0.1788 -0.1957 -0.0519
  314MOL0     C42321   8.134   8.443   7.999 -0.1966 -0.3646  0.4454
  314MOL0     C42322   8.177   8.406   8.148 -0.1397  0.2259 -0.0573
  314MOL0     H42323   8.477   8.881   7.720 -0.4563  1.5405  1.4880
  314MOL0     H42324   8.697   9.001   7.749  2.9784 -1.0844 -0.2120
  314MOL0     H42325   8.947   8.966   7.758 -0.5332  0.9513 -1.5815
  314MOL0     H42326   8.880   9.115   7.804 -0.5767 -0.6195 -0.4312
  314MOL0     H42327   9.074   9.139   7.973 -1.0456  3.0292 -3.3760
  314MOL0     H42328   9.123   9.127   7.804 -0.2628  3.3672  0.9399
  314MOL0     H42329   9.160   8.870   7.827 -1.5664 -3.7305  3.1613
  314MOL0     H42330   9.150   8.896   8.003  0.1107 -1.6421 -0.9517
  314MOL0     H42331   9.387   8.910   7.948  0.3870  0.4219 -0.6313
  314MOL0     H42332   9.354   8.988   7.794  1.2620  2.1325  0.0653
  314MOL0     H42333   9.320   9.198   7.928  1.0908  0.0372 -0.3769
  314MOL0     H42334   9.312   9.097   8.072 -0.1474  1.2957 -1.1065
  314MOL0     H42335   9.546   9.042   8.059  0.7945 -0.6576 -2.4961
  314MOL0     H42336   9.572   9.154   7.919  0.0019  3.8501  0.7472
  314MOL0     H42337   9.621   9.230   8.163 -2.1668  0.3123  2.4759
  314MOL0     H42338   9.455   9.242   8.186  0.0461 -2.8823  0.6012
  314MOL0     H42339   9.425   9.401   7.995 -0.3356 -0.6756 -0.3407
  314MOL0     H42340   9.538   9.464   8.111 -3.8762 -1.5908  2.8497
  314MOL0     H42341   9.809   9.332   8.072  1.7226  2.9567  0.7985
  314MOL0     H42342  10.044   9.438   7.928  0.7425 -1.5776  2.0714
  314MOL0     H42343  10.018   9.260   7.891 -0.6684 -0.6188 -0.9929
  314MOL0     H42344   9.982   9.310   7.665 -2.8557  0.2061  2.1258
  314MOL0     H42345  10.021   9.481   7.688  2.3918  0.5898 -0.6525
  314MOL0     H42346  10.192   9.244   7.771  1.1027  1.2810  2.1822
  314MOL0     H42347  10.254   9.409   7.772  0.1594 -0.5027  0.6758
  314MOL0     H42348  10.181   9.238   7.534  0.7953 -1.7023 -0.4283
  314MOL0     H42349  10.349   9.282   7.602 -1.4635 -0.8526  1.1709
  314MOL0     H42350  10.376   9.238   7.386  1.7655  0.7728  2.8323
  314MOL0     H42351  10.530   9.275   7.209 -3.1084 -1.8789 -0.8009
  314MOL0     H42352  10.604   9.225   6.801  3.3613 -2.1382  0.1190
  314MOL0     H42353  10.750   9.224   6.607  0.5264  2.9421 -1.9230
  314MOL0     H42354  11.111   9.519   6.623 -3.6344 -0.1634  1.4207
  314MOL0     H42355  11.148   9.339   6.642 -0.0607 -1.2223 -0.8090
  314MOL0     H42356  11.127   9.338   6.384 -1.6552  2.7039 -1.9926
  314MOL0     H42357  11.138   9.514   6.396  1.9283  0.0209 -1.5294
  314MOL0     H42358  11.345   9.313   6.492 -2.9396  0.1775 -0.2109
  314MOL0     H42359  11.348   9.384   6.329  0.0680  0.7392 -0.5708
  314MOL0     H42360  11.373   9.560   6.569  3.3385 -0.4829  0.8955
  314MOL0     H42361  11.361   9.586   6.390  0.6286 -1.5856 -0.9303
  314MOL0     H42362  11.597   9.612   6.499 -0.7959  0.6531  0.1177
  314MOL0     H42363  11.592   9.523   6.356  2.0767 -4.1107  1.0596
  314MOL0     H42364  11.597   9.365   6.625 -1.2643  0.2690  0.3090
  314MOL0     H42365  11.573   9.302   6.457 -0.5737  0.7712 -1.6845
  314MOL0     H42366  11.792   9.417   6.397 -2.0490  2.3871 -0.4539
  314MOL0     H42367  11.804   9.282   6.514  1.4436 -0.2199 -2.1796
  314MOL0     H42368  11.817   9.577   6.586 -1.0082  0.6605 -1.4739
  314MOL0     H42369  11.804   9.442   6.703 -1.4210 -0.6313 -0.1090
  314MOL0     H42370  10.984   9.543   6.801  0.3002  0.4215  1.8730
  314MOL0     H42371  10.839   9.532   6.998 -0.2621 -4.0744  3.1052
  314MOL0     H42372  10.406   9.686   7.174 -0.4041  0.1081  0.2949
  314MOL0     H42373  10.273   9.669   7.369 -0.7172 -0.0617 -0.5830
  314MOL0     H42374   8.773   8.780   8.108  0.4650  2.5182  0.6107
  314MOL0     H42375   8.578   8.635   8.065 -0.2828 -0.4734 -0.2363
  314MOL0     H42376   8.187   8.629   7.720 -0.5449  0.2687  2.2541
  314MOL0     H42377   7.977   8.530   7.663  2.4193  2.0215 -0.6896
  314MOL0     H42378   7.757   8.536   7.806  2.4318 -0.0882 -1.9429
  314MOL0     H42379   7.742   8.431   7.950  2.6176  1.5556 -0.3418
  314MOL0     H42380   7.535   8.448   7.797  1.6652  1.8739  3.1435
  314MOL0     H42381   7.588   8.282   7.837 -0.0193  0.9227  0.2003
  314MOL0     H42382   7.537   8.292   7.580 -0.0728 -0.2571 -1.6834
  314MOL0     H42383   7.705   8.266   7.619 -2.3717 -1.2915  0.0895
  314MOL0     H42384   7.758   8.500   7.574  2.4144 -0.7798 -3.3823
  314MOL0     H42385   7.678   8.433   7.439  0.7422 -0.6144  0.0270
  314MOL0     H42386   7.379   8.697   7.561 -1.2529 -1.2321  0.9551
  314MOL0     H42387   7.968   8.310   8.028  1.3132 -0.3608  0.5607
  314MOL0     H42388   8.112   8.334   8.199  0.6508 -0.3550  0.1621
  314MOL0     H42389   8.272   8.354   8.159 -2.0875 -3.6866 -0.0137
  314MOL0     H42390   8.189   8.499   8.204 -0.6776  0.2836 -0.0277
  315MOL0     O42391   3.134   5.140   7.114  0.9196 -1.1916  0.1341
  315MOL0     C42392   3.038   5.132   7.194  0.5585 -0.4870 -0.2640
  315MOL0     O42393   3.050   5.135   7.331  0.0086 -0.3223  0.3059
  315MOL0     C42394   3.165   5.185   7.384 -0.3246 -0.4739  1.1392
  315MOL0     C42395   3.227   5.305   7.340 -0.0999 -0.1393  0.5213
  315MOL0     C42396   3.339   5.358   7.403 -0.1428 -0.5116  0.0248
  315MOL0     C42397   3.398   5.285   7.509 -0.5664  0.7147 -0.6635
  315MOL0     O42398   3.524   5.318   7.565 -0.7698  0.8306  0.1526
  315MOL0     C42399   3.592   5.438   7.541  0.8449  0.5414 -1.1243
  315MOL0     C42400   3.734   5.402   7.568  0.3699 -0.2084 -0.9789
  315MOL0     C42401   3.825   5.522   7.535 -0.7414  1.1327 -0.1428
  315MOL0     C42402   3.978   5.502   7.576  0.2107  0.3616  0.7796
  315MOL0     C42403   4.044   5.381   7.499 -0.2239 -0.7872  0.0257
  315MOL0     C42404   4.199   5.378   7.509  1.0449 -0.0941 -0.0729
  315MOL0     C42405   4.243   5.243   7.452 -0.4984  0.3036  0.3832
  315MOL0     C42406   4.396   5.243   7.456  0.1700  0.2906  0.1213
  315MOL0     N42407   4.436   5.244   7.592 -0.4256 -0.5597  0.0196
  315MOL0     C42408   4.409   5.156   7.688  0.8954 -0.6253 -0.3814
  315MOL0     C42409   4.463   5.205   7.801 -0.1521 -0.6371 -0.9352
  315MOL0     C42410   4.437   5.147   7.944  0.0791  0.0859 -0.2706
  315MOL0     C42411   4.493   5.004   7.971 -0.5376 -0.6114  0.2738
  315MOL0     C42412   4.642   4.982   7.953 -0.7792  0.5249  0.6935
  315MOL0     C42413   4.723   5.060   8.060  0.4305 -0.0546 -0.2259
  315MOL0     O42414   4.853   5.043   8.003  0.3163 -0.4690 -0.1215
  315MOL0     C42415   4.960   5.094   8.074 -0.3676  0.2087  0.0196
  315MOL0     C42416   5.085   5.057   8.021 -0.0873  0.2146 -0.1656
  315MOL0     C42417   5.209   5.105   8.073  0.0059 -1.0011  0.6106
  315MOL0     C42418   5.198   5.188   8.194  1.1002  0.8905  1.0785
  315MOL0     C42419   5.321   5.254   8.248 -0.4571 -0.9132 -0.2875
  315MOL0     O42420   5.307   5.350   8.342  0.1362  0.4239  0.0633
  315MOL0     C42421   5.414   5.406   8.417 -0.4910  0.9210  0.0208
  315MOL0     C42422   5.395   5.426   8.561 -0.4481 -0.3864  0.0390
  315MOL0     C42423   5.489   5.472   8.646 -0.3836  0.8455 -0.0681
  315MOL0     C42424   5.617   5.492   8.593 -0.3827 -0.2163  0.3243
  315MOL0     O42425   5.706   5.544   8.677 -0.4461 -0.6237  0.3166
  315MOL0     C42426   5.830   5.470   8.700 -0.0266 -0.2366 -0.1529
  315MOL0     C42427   5.924   5.555   8.792  0.2273  0.2549 -0.2210
  315MOL0     C42428   5.999   5.667   8.735  0.5126  0.0252 -0.2688
  315MOL0     C42429   6.076   5.737   8.847  0.3504  0.1945  0.0991
  315MOL0     C42430   6.152   5.856   8.792  0.5340 -0.1614 -0.2204
  315MOL0     C42431   6.248   5.925   8.890 -0.3223 -0.3426 -0.0124
  315MOL0     C42432   6.349   5.839   8.950  0.1275 -0.2770  0.4495
  315MOL0     C42433   6.464   5.920   9.005  0.1290 -0.3549  0.1619
  315MOL0    Cl42434   6.588   5.809   9.044  0.1840 -0.1089  0.2362
  315MOL0     C42435   5.647   5.482   8.450  0.8394  0.1164  0.4280
  315MOL0     C42436   5.536   5.451   8.363  0.2018  0.4929  0.5819
  315MOL0     O42437   5.430   5.215   8.204 -0.5592  0.6786  0.2425
  315MOL0     C42438   5.069   5.227   8.243 -0.2939  0.5346  0.3024
  315MOL0     C42439   4.946   5.172   8.189  0.4036 -0.4300 -0.5057
  315MOL0     N42440   4.552   5.309   7.759  0.5890 -0.1550  0.3421
  315MOL0     N42441   4.538   5.328   7.633 -0.6177  0.1917  0.5730
  315MOL0     C42442   3.333   5.176   7.558 -0.1445 -0.1452 -0.7047
  315MOL0     C42443   3.217   5.125   7.503 -0.5892  0.2150  0.0984
  315MOL0     C42444   2.896   5.110   7.146  0.6454 -0.4918  0.1287
  315MOL0     C42445   2.796   5.148   7.236 -0.7179 -0.9277 -0.2408
  315MOL0     C42446   2.668   5.136   7.205  0.0454 -1.3245  0.4132
  315MOL0     C42447   2.629   5.088   7.082  0.0443 -0.2923 -0.1211
  315MOL0     O42448   2.498   5.110   7.052 -0.2545 -0.3643 -0.1635
  315MOL0     C42449   2.439   5.031   6.951  0.6507 -0.2034 -0.0442
  315MOL0     C42450   2.282   5.059   6.956 -0.2693 -0.1807 -0.6838
  315MOL0     C42451   2.225   5.002   6.826  0.1594 -0.0553  0.4489
  315MOL0     C42452   2.204   5.111   6.711 -0.0231  0.2683  0.9410
  315MOL0     C42453   2.170   5.053   6.582  0.5600 -0.1627 -0.5856
  315MOL0     C42454   2.131   4.995   6.480  0.0855  0.0826 -0.5348
  315MOL0     C42455   2.720   5.045   6.989 -0.0732  0.7055 -0.0034
  315MOL0     C42456   2.853   5.059   7.019 -0.2237 -0.4178 -0.7411
  315MOL0     C42457   2.950   5.015   6.907  0.0424  0.1048 -0.2774
  315MOL0     H42458   3.192   5.356   7.251  0.4456  2.2946  1.6361
  315MOL0     H42459   3.383   5.450   7.366  1.3603 -1.0544  0.3721
  315MOL0     H42460   3.589   5.467   7.436  1.8745 -0.9974 -1.6169
  315MOL0     H42461   3.545   5.515   7.602  1.6144 -0.1105  0.3599
  315MOL0     H42462   3.762   5.307   7.522 -1.6043 -2.0460  1.2803
  315MOL0     H42463   3.737   5.388   7.677 -2.3791  0.5303 -0.7381
  315MOL0     H42464   3.794   5.599   7.606 -0.2908  2.2555 -1.1360
  315MOL0     H42465   3.808   5.552   7.431 -0.1408 -2.1471 -1.3264
  315MOL0     H42466   4.035   5.592   7.553  1.9405 -0.0943  2.9896
  315MOL0     H42467   3.978   5.494   7.685  0.5214  1.7379  0.8990
  315MOL0     H42468   4.010   5.286   7.541 -1.6315 -0.0209  0.6842
  315MOL0     H42469   4.022   5.375   7.392 -0.6981 -1.2651  0.1447
  315MOL0     H42470   4.251   5.464   7.464  1.8250 -0.8733 -0.7099
  315MOL0     H42471   4.220   5.383   7.616  2.0696  3.0725 -0.3060
  315MOL0     H42472   4.199   5.222   7.354  0.2744 -3.8294  0.7506
  315MOL0     H42473   4.208   5.157   7.510  0.6267 -0.5773 -0.2059
  315MOL0     H42474   4.439   5.156   7.405  0.0721  1.3786 -1.9180
  315MOL0     H42475   4.443   5.332   7.414  0.5038  0.1140  0.1188
  315MOL0     H42476   4.348   5.068   7.672  0.7390 -0.4675 -0.6661
  315MOL0     H42477   4.478   5.218   8.015 -0.2163  2.3035 -2.1858
  315MOL0     H42478   4.331   5.149   7.970  0.0002  0.6315 -0.6108
  315MOL0     H42479   4.459   4.948   8.059 -0.7344  1.2311  1.4241
  315MOL0     H42480   4.439   4.951   7.891 -0.7348  0.7994 -0.5617
  315MOL0     H42481   4.666   5.023   7.854  0.2353 -0.0152  0.7004
  315MOL0     H42482   4.658   4.875   7.961 -3.0576 -0.0207 -1.1499
  315MOL0     H42483   4.710   5.013   8.157  0.4581  0.3395 -0.0285
  315MOL0     H42484   4.696   5.166   8.067  0.9935 -0.0101  2.0265
  315MOL0     H42485   5.089   5.002   7.927  0.0487  1.7884 -1.1166
  315MOL0     H42486   5.307   5.098   8.026 -0.3648 -0.3296 -0.2938
  315MOL0     H42487   5.298   5.397   8.600 -0.3686 -1.7255 -0.6880
  315MOL0     H42488   5.464   5.486   8.750 -0.6172 -3.4820  0.6483
  315MOL0     H42489   5.806   5.380   8.757 -2.3783 -0.2005 -0.9859
  315MOL0     H42490   5.872   5.447   8.601  1.4414  0.7879  0.1894
  315MOL0     H42491   5.858   5.601   8.867  0.4141  0.7424 -0.3537
  315MOL0     H42492   5.986   5.486   8.849 -2.3744 -1.9150  0.2116
  315MOL0     H42493   6.070   5.641   8.656  2.6966  0.8677  1.2798
  315MOL0     H42494   5.923   5.733   8.693  1.7539  0.4096 -1.9947
  315MOL0     H42495   6.151   5.672   8.892  1.2713  1.5589  0.5930
  315MOL0     H42496   6.015   5.766   8.933  0.1227 -2.0558  0.7591
  315MOL0     H42497   6.077   5.924   8.750  0.9404  1.4830  1.5787
  315MOL0     H42498   6.213   5.819   8.709  1.7237  1.5362 -0.1525
  315MOL0     H42499   6.310   5.987   8.824 -0.4071 -0.5905 -0.3330
  315MOL0     H42500   6.186   5.986   8.956 -0.2124 -1.3607  1.0557
  315MOL0     H42501   6.393   5.773   8.875 -0.8258 -1.4275  0.8506
  315MOL0     H42502   6.307   5.779   9.031  0.0877 -2.0243 -0.8087
  315MOL0     H42503   6.493   5.990   8.925 -3.7147 -1.6088 -2.6439
  315MOL0     H42504   6.448   5.975   9.097 -2.2175  0.2056 -0.5268
  315MOL0     H42505   5.748   5.489   8.411  0.4646 -0.8078 -0.7564
  315MOL0     H42506   5.545   5.450   8.255 -0.4767  1.3263  0.5044
  315MOL0     H42507   5.071   5.306   8.318  1.9513 -0.6401  1.5760
  315MOL0     H42508   4.852   5.201   8.235 -0.7087 -1.2636 -2.1596
  315MOL0     H42509   3.377   5.109   7.631  1.5752  0.5124 -1.0933
  315MOL0     H42510   3.175   5.032   7.540 -1.1862  1.2546  2.2386
  315MOL0     H42511   2.820   5.181   7.336  0.1279 -0.3387 -0.6346
  315MOL0     H42512   2.601   5.179   7.279 -0.1146  2.0020 -1.4825
  315MOL0     H42513   2.454   4.925   6.974 -0.7038 -0.5617 -0.7183
  315MOL0     H42514   2.470   5.051   6.848  3.1255  0.4771  0.7811
  315MOL0     H42515   2.269   5.166   6.975 -1.3976 -0.6775  1.7759
  315MOL0     H42516   2.244   5.011   7.047  0.5446 -1.8859 -1.1985
  315MOL0     H42517   2.126   4.975   6.864 -1.3190 -0.7903 -3.4455
  315MOL0     H42518   2.277   4.911   6.795 -1.0944 -1.4217  2.1139
  315MOL0     H42519   2.142   5.193   6.751  3.2734  3.6269 -0.3209
  315MOL0     H42520   2.306   5.148   6.701  0.6704 -1.8690 -0.4302
  315MOL0     H42521   2.094   4.944   6.394  0.4464  2.1269 -1.9851
  315MOL0     H42522   2.696   5.008   6.889 -0.4477  0.9594 -0.0100
  315MOL0     H42523   3.020   5.094   6.875 -0.3620 -0.1141 -1.7800
  315MOL0     H42524   3.013   4.930   6.936 -2.4153 -2.8266 -2.8577
  315MOL0     H42525   2.900   4.983   6.815  0.6513 -2.4136  0.1866
  316MOL0     O42526   5.813   7.188   9.265  0.2663 -0.0021  0.2501
  316MOL0     C42527   5.835   7.109   9.183 -0.7553  0.0493  0.2048
  316MOL0     O42528   5.952   7.105   9.102  0.2007 -0.4393 -0.6620
  316MOL0     C42529   6.060   7.182   9.141 -0.8537 -0.3386 -1.2307
  316MOL0     C42530   6.127   7.161   9.265  0.0422 -0.0693  0.4724
  316MOL0     C42531   6.233   7.236   9.304  0.7567  0.2858 -0.7272
  316MOL0     C42532   6.290   7.332   9.224 -0.0058 -0.5414 -1.0685
  316MOL0     O42533   6.404   7.405   9.252  0.0765  0.8445  0.0805
  316MOL0     C42534   6.503   7.364   9.348  0.1778 -0.3845  0.1959
  316MOL0     C42535   6.632   7.434   9.370  0.7400  0.4744 -0.3269
  316MOL0     C42536   6.716   7.400   9.491 -0.0543  0.5685 -0.0980
  316MOL0     C42537   6.646   7.429   9.628  1.1610 -0.0812  0.2146
  316MOL0     C42538   6.696   7.328   9.736 -0.2623 -0.3831  0.3200
  316MOL0     C42539   6.830   7.378   9.784  0.7351  0.3869  0.0873
  316MOL0     C42540   6.892   7.279   9.878 -0.5304  0.2311  0.1850
  316MOL0     C42541   7.041   7.296   9.879  0.1416  0.3676 -0.0946
  316MOL0     N42542   7.103   7.287   9.743  0.4895 -1.1267 -1.2010
  316MOL0     C42543   7.118   7.173   9.673 -0.0679  0.1180  0.0757
  316MOL0     C42544   7.202   7.210   9.573  0.3670  0.8591  0.0904
  316MOL0     C42545   7.267   7.106   9.478  0.0413  0.2267  0.0385
  316MOL0     C42546   7.398   7.040   9.530  0.2170 -0.4832 -1.2850
  316MOL0     C42547   7.514   7.145   9.497 -0.7286 -1.3225 -0.0607
  316MOL0     C42548   7.645   7.084   9.556 -0.3528 -0.4395  0.4978
  316MOL0     O42549   7.744   7.177   9.523 -0.5760 -1.5182 -0.3311
  316MOL0     C42550   7.869   7.160   9.585  0.7597  0.2670  0.7138
  316MOL0     C42551   7.899   7.073   9.689  0.5058  0.1648  0.0723
  316MOL0     C42552   8.023   7.066   9.749  0.1095  0.4593 -0.0628
  316MOL0     C42553   8.128   7.150   9.709 -0.5549  0.6540  1.0399
  316MOL0     C42554   8.271   7.145   9.773  1.4890  0.0839  0.4887
  316MOL0     O42555   8.368   7.214   9.702  0.5008  0.5763 -0.5051
  316MOL0     C42556   8.488   7.200   9.762  0.2463  0.2876  0.0012
  316MOL0     C42557   8.577   7.092   9.738 -0.4823  1.5492  0.6632
  316MOL0     C42558   8.713   7.089   9.775 -0.0079  0.4604  0.2857
  316MOL0     C42559   8.749   7.192   9.864 -0.9963 -0.6974  0.0146
  316MOL0     O42560   8.866   7.206   9.925 -0.0465 -0.4591 -0.5964
  316MOL0     C42561   8.963   7.286   9.854  0.5556  0.2303 -0.3167
  316MOL0     C42562   9.069   7.181   9.832  0.9415 -0.3511 -0.2988
  316MOL0     C42563   9.195   7.223   9.763 -0.6810  0.0641 -0.1561
  316MOL0     C42564   9.256   7.349   9.811 -1.1198  0.1435 -0.0417
  316MOL0     C42565   9.373   7.411   9.728  0.0757 -1.1143  0.3337
  316MOL0     C42566   9.472   7.511   9.809 -0.2866 -0.0929  0.2833
  316MOL0     C42567   9.578   7.423   9.877  0.5856 -0.1081  0.0173
  316MOL0     C42568   9.688   7.510   9.946 -0.0948 -1.0438  0.3920
  316MOL0    Cl42569   9.764   7.426  10.084  0.0350 -0.0781  0.3102
  316MOL0     C42570   8.659   7.292   9.905  0.3464  0.5142  0.3806
  316MOL0     C42571   8.531   7.299   9.846  0.2281 -0.2860  0.6572
  316MOL0     O42572   8.290   7.082   9.880 -0.2919  0.2072 -0.4641
  316MOL0     C42573   8.103   7.222   9.595 -0.3766 -0.7705 -0.1940
  316MOL0     C42574   7.970   7.241   9.536  0.5875 -0.2747  1.0382
  316MOL0     N42575   7.233   7.352   9.584 -0.4579  0.3609 -0.0851
  316MOL0     N42576   7.169   7.393   9.691  0.7950  0.3282 -0.1142
  316MOL0     C42577   6.227   7.357   9.104 -0.6636 -0.3743 -0.2395
  316MOL0     C42578   6.118   7.281   9.054  0.2079 -0.2288 -0.2005
  316MOL0     C42579   5.722   7.003   9.158 -0.6624  0.0487  0.1498
  316MOL0     C42580   5.605   6.989   9.250 -1.0927 -0.0728  1.2469
  316MOL0     C42581   5.510   6.890   9.252 -0.0752 -0.1168  0.6423
  316MOL0     C42582   5.514   6.799   9.147  0.2381 -0.8028  0.3565
  316MOL0     O42583   5.406   6.706   9.132 -0.4343 -0.4000  0.2686
  316MOL0     C42584   5.410   6.632   8.999  0.7366 -0.3564 -0.6600
  316MOL0     C42585   5.269   6.588   8.938  0.0207  0.5162 -1.1484
  316MOL0     C42586   5.178   6.519   9.055 -0.6627 -0.0629  0.2484
  316MOL0     C42587   5.066   6.436   8.985  0.1358  0.8747  0.6777
  316MOL0     C42588   4.995   6.349   9.073  0.0796 -0.3242 -0.0498
  316MOL0     C42589   4.937   6.266   9.142 -0.5587 -0.4474  0.1794
  316MOL0     C42590   5.627   6.812   9.051  0.2910  0.3804 -0.3337
  316MOL0     C42591   5.730   6.911   9.053  0.1023  0.3059 -0.4669
  316MOL0     C42592   5.825   6.914   8.947 -1.4513  0.2300  0.4266
  316MOL0     H42593   6.081   7.097   9.341 -2.2241 -0.4056 -1.0685
  316MOL0     H42594   6.295   7.203   9.387  2.8812 -1.4196 -2.8195
  316MOL0     H42595   6.449   7.362   9.444  2.0548 -1.3055  1.2908
  316MOL0     H42596   6.523   7.260   9.322 -1.8655 -1.0673  1.0767
  316MOL0     H42597   6.601   7.539   9.374 -1.4286  0.0496 -2.6590
  316MOL0     H42598   6.690   7.435   9.277  0.2211  2.7821 -0.6921
  316MOL0     H42599   6.810   7.455   9.488  0.3169 -0.1187 -1.8807
  316MOL0     H42600   6.732   7.292   9.481  0.1537  0.6890 -1.2319
  316MOL0     H42601   6.659   7.533   9.658  2.4532 -0.8541  2.5229
  316MOL0     H42602   6.539   7.423   9.606  1.4717  2.6245 -3.0306
  316MOL0     H42603   6.628   7.313   9.820 -1.8639 -2.3652 -1.2509
  316MOL0     H42604   6.700   7.226   9.698 -0.2197  0.4111 -1.9780
  316MOL0     H42605   6.896   7.414   9.705 -2.0701  3.2988 -1.1658
  316MOL0     H42606   6.810   7.471   9.839 -1.6125 -0.2696  0.4728
  316MOL0     H42607   6.877   7.183   9.827  1.8412  0.6362 -1.4726
  316MOL0     H42608   6.845   7.267   9.976 -0.3618 -4.3724 -0.0745
  316MOL0     H42609   7.067   7.396   9.917  1.5656  0.0325 -0.1084
  316MOL0     H42610   7.094   7.228   9.947  4.7378  0.1093 -3.4382
  316MOL0     H42611   7.102   7.067   9.690  0.3841 -0.1373 -1.0407
  316MOL0     H42612   7.193   7.029   9.457  0.2200  0.3732 -1.2275
  316MOL0     H42613   7.292   7.144   9.379  3.5924  1.8884  1.4117
  316MOL0     H42614   7.390   7.031   9.638 -1.3747 -1.2355 -1.4344
  316MOL0     H42615   7.427   6.942   9.489  1.1074 -2.5790  3.6200
  316MOL0     H42616   7.495   7.248   9.528  2.6957 -0.5252 -0.1747
  316MOL0     H42617   7.529   7.143   9.388  0.0397 -0.3917  0.0121
  316MOL0     H42618   7.664   6.989   9.506 -1.0903 -1.0128  1.2771
  316MOL0     H42619   7.623   7.070   9.662 -0.6348 -2.2356  0.2334
  316MOL0     H42620   7.825   7.020   9.749  1.1210 -1.1107 -0.2611
  316MOL0     H42621   8.025   7.017   9.846  0.4080  0.2211 -0.1883
  316MOL0     H42622   8.548   7.011   9.672  4.2534 -0.1215  0.2167
  316MOL0     H42623   8.778   7.006   9.748  0.5344  0.3308  1.8945
  316MOL0     H42624   8.932   7.345   9.767  0.1197 -0.4281 -0.6135
  316MOL0     H42625   8.997   7.364   9.923  0.2169  1.1927 -1.2159
  316MOL0     H42626   9.084   7.124   9.924  0.2520 -0.4398 -0.2308
  316MOL0     H42627   9.017   7.114   9.763 -0.3011  1.1426 -0.8770
  316MOL0     H42628   9.266   7.142   9.778 -1.8573 -1.8303 -3.5475
  316MOL0     H42629   9.178   7.225   9.655  1.5429 -1.1389 -0.5885
  316MOL0     H42630   9.282   7.346   9.918  2.0279  1.0494 -0.6835
  316MOL0     H42631   9.175   7.421   9.796 -1.9868 -0.6341  0.8122
  316MOL0     H42632   9.318   7.463   9.649 -0.6317 -1.2379  0.7318
  316MOL0     H42633   9.436   7.331   9.689 -0.2705 -0.8754 -0.7559
  316MOL0     H42634   9.522   7.569   9.732  1.7281 -0.7723  1.0268
  316MOL0     H42635   9.426   7.578   9.883 -3.8155 -0.7778 -1.0563
  316MOL0     H42636   9.639   7.357   9.813  0.4694  0.2208 -0.4388
  316MOL0     H42637   9.523   7.376   9.959  1.3671  2.1785  1.9584
  316MOL0     H42638   9.763   7.547   9.875 -0.0183  1.4229  1.6557
  316MOL0     H42639   9.638   7.599   9.985  0.9012 -0.2488 -0.0973
  316MOL0     H42640   8.697   7.366   9.974 -0.5518  2.4545 -1.1294
  316MOL0     H42641   8.464   7.381   9.870  0.9721 -0.1232  2.3451
  316MOL0     H42642   8.179   7.278   9.541 -1.8096  2.4233  0.8793
  316MOL0     H42643   7.947   7.299   9.448  0.7524 -0.9785  0.5195
  316MOL0     H42644   6.276   7.433   9.044  0.1747 -0.9020 -0.2396
  316MOL0     H42645   6.072   7.310   8.960 -0.8079  0.4370  0.4770
  316MOL0     H42646   5.593   7.053   9.337  0.3758 -0.4930  1.8008
  316MOL0     H42647   5.431   6.882   9.326 -0.1618 -1.2892  0.4468
  316MOL0     H42648   5.485   6.554   9.013  0.4909 -0.7166 -1.3123
  316MOL0     H42649   5.458   6.688   8.918 -1.2685  1.1780 -0.8692
  316MOL0     H42650   5.285   6.513   8.860 -0.4252 -2.1248  1.1135
  316MOL0     H42651   5.230   6.682   8.898  2.2138  2.6454  1.3759
  316MOL0     H42652   5.125   6.599   9.108  1.5564  0.2354  2.1789
  316MOL0     H42653   5.249   6.463   9.117  1.4138 -0.2001 -2.1179
  316MOL0     H42654   5.002   6.503   8.928 -1.9391 -1.1953  0.4204
  316MOL0     H42655   5.120   6.370   8.915  0.3080  3.0172 -1.3333
  316MOL0     H42656   4.903   6.187   9.206 -1.4718 -0.8519 -0.7706
  316MOL0     H42657   5.637   6.748   8.964  1.3281  1.1874 -0.8269
  316MOL0     H42658   5.917   6.864   8.979 -1.8472 -0.8218 -0.0525
  316MOL0     H42659   5.792   6.854   8.862 -1.2100 -1.0765  1.2314
  316MOL0     H42660   5.830   7.015   8.904  1.5162 -0.0033 -0.0184
  317MOL0     O42661  10.932   4.137   6.564 -0.0400 -0.2166 -0.0355
  317MOL0     C42662  10.876   4.052   6.639 -0.5469  0.9530  1.2240
  317MOL0     O42663  10.942   3.946   6.688 -0.1060  0.5860 -0.0099
  317MOL0     C42664  11.076   3.917   6.664  0.6720 -0.0340  0.1211
  317MOL0     C42665  11.115   3.904   6.530  0.0861  0.5804  0.1406
  317MOL0     C42666  11.254   3.888   6.511  0.3938 -0.0769 -0.0660
  317MOL0     C42667  11.348   3.890   6.614 -0.5056 -0.5498  0.9357
  317MOL0     O42668  11.487   3.888   6.614 -0.3595  0.7379 -0.0910
  317MOL0     C42669  11.548   3.830   6.499 -0.7510  0.9475 -0.2197
  317MOL0     C42670  11.592   3.937   6.398  0.3278  0.1595  0.1354
  317MOL0     C42671  11.728   3.994   6.457  0.0340  0.3566  0.1406
  317MOL0     C42672  11.745   4.138   6.400  0.5654  0.3697  0.0732
  317MOL0     C42673  11.867   4.206   6.446 -0.4946  0.2554 -0.0795
  317MOL0     C42674  11.997   4.165   6.384 -0.4850  0.3722 -0.1503
  317MOL0     C42675  12.117   4.230   6.453 -1.0958 -0.3901 -0.2123
  317MOL0     C42676  12.147   4.202   6.598 -0.5790  0.4749  0.2779
  317MOL0     N42677  12.289   4.194   6.624 -0.4648  0.2231  0.5964
  317MOL0     C42678  12.376   4.302   6.609  0.3531 -0.0777  0.7771
  317MOL0     C42679  12.501   4.264   6.639 -0.2990 -0.2740  0.3848
  317MOL0     C42680  12.623   4.353   6.624 -0.2137  0.1187  0.7699
  317MOL0     C42681  12.665   4.404   6.765 -0.6485 -0.0809  0.5567
  317MOL0     C42682  12.730   4.295   6.839  0.3415 -0.1193  0.9025
  317MOL0     C42683  12.782   4.344   6.978 -0.2379 -0.4897 -0.1305
  317MOL0     O42684  12.911   4.409   6.976 -0.2066  0.3509 -0.3674
  317MOL0     C42685  13.019   4.330   6.981 -0.8360  0.5291 -0.0281
  317MOL0     C42686  13.025   4.188   6.964 -0.0919  0.2865  0.3722
  317MOL0     C42687  13.134   4.111   6.990  0.8131  0.2316 -0.2032
  317MOL0     C42688  13.254   4.171   7.012 -0.5594 -0.2894 -0.2250
  317MOL0     C42689  13.382   4.105   7.033 -0.4083 -0.0471  0.2482
  317MOL0     O42690  13.494   4.185   7.029  1.1664 -0.2553 -0.3736
  317MOL0     C42691  13.613   4.109   7.033  1.2216  0.3513  0.0696
  317MOL0     C42692  13.667   4.080   7.162  0.0874  1.0825  0.5944
  317MOL0     C42693  13.798   4.022   7.167  0.0702  0.6821  0.4314
  317MOL0     C42694  13.871   3.977   7.053  1.4429  0.1308  0.2850
  317MOL0     O42695  13.985   3.904   7.046 -0.5366  0.7163 -0.5389
  317MOL0     C42696  14.007   3.809   7.147  0.1915 -0.0862 -0.5343
  317MOL0     C42697  14.097   3.870   7.254 -0.4832 -0.6219 -0.1861
  317MOL0     C42698  14.259   3.870   7.217 -0.7312 -0.3763 -0.0008
  317MOL0     C42699  14.326   3.931   7.347 -0.3933  0.6984 -0.3494
  317MOL0     C42700  14.485   3.929   7.323  0.7095 -0.6940 -0.7378
  317MOL0     C42701  14.552   4.021   7.426 -0.2741 -0.3454 -0.3904
  317MOL0     C42702  14.701   4.018   7.424 -0.6428  0.6174  0.2609
  317MOL0     C42703  14.769   3.884   7.451 -0.6111  0.0876  0.2809
  317MOL0    Cl42704  14.944   3.901   7.433 -0.2879 -0.3036 -0.2758
  317MOL0     C42705  13.809   4.013   6.927 -0.4358  0.5021 -0.0801
  317MOL0     C42706  13.690   4.084   6.918  0.6163 -0.1401  0.6641
  317MOL0     O42707  13.378   3.985   7.034  0.6602  0.1254  0.4289
  317MOL0     C42708  13.263   4.318   7.011  0.4781  0.3963  0.1868
  317MOL0     C42709  13.143   4.395   7.007 -0.3184  0.1286 -0.2792
  317MOL0     N42710  12.485   4.128   6.674  0.2319 -0.2454  0.2696
  317MOL0     N42711  12.361   4.089   6.673 -0.2894 -0.6167  0.1683
  317MOL0     C42712  11.310   3.903   6.744  1.3506 -0.7731 -0.0276
  317MOL0     C42713  11.169   3.920   6.773  0.9898 -0.1708  1.0285
  317MOL0     C42714  10.727   4.051   6.675 -1.0638  0.3576 -0.0067
  317MOL0     C42715  10.680   3.924   6.732  0.9072 -0.5788  0.4018
  317MOL0     C42716  10.549   3.906   6.764  0.0681  0.0943 -0.8652
  317MOL0     C42717  10.458   4.013   6.744  0.6811  0.3400 -0.2110
  317MOL0     O42718  10.325   3.985   6.766  0.6872  0.4135  0.4004
  317MOL0     C42719  10.228   4.038   6.682  0.6287  0.6867 -0.4636
  317MOL0     C42720  10.095   3.955   6.700  0.1212 -1.1661 -1.0490
  317MOL0     C42721  10.002   3.933   6.584  0.3244  0.3827 -0.4556
  317MOL0     C42722   9.912   3.806   6.594 -0.0793 -0.0880  0.0941
  317MOL0     C42723   9.800   3.803   6.689  0.2924  0.0883 -0.3078
  317MOL0     C42724   9.701   3.787   6.755  0.5896 -0.9644 -0.5454
  317MOL0     C42725  10.506   4.127   6.682 -0.6088 -0.3314 -1.3139
  317MOL0     C42726  10.638   4.155   6.659  0.2370 -0.1434  0.4004
  317MOL0     C42727  10.681   4.289   6.613  0.7489 -0.1607  0.1862
  317MOL0     H42728  11.031   3.894   6.462 -0.5474 -0.0317  0.9866
  317MOL0     H42729  11.279   3.872   6.407  1.5165  0.4560  0.1095
  317MOL0     H42730  11.629   3.765   6.532 -0.6399  1.4043  0.4175
  317MOL0     H42731  11.494   3.753   6.442  0.3953 -1.1195  1.3279
  317MOL0     H42732  11.524   4.023   6.396  1.2106  0.8836  0.3130
  317MOL0     H42733  11.608   3.898   6.298 -0.0293  0.3969 -0.0166
  317MOL0     H42734  11.815   3.936   6.426 -0.5759 -0.7131  0.3777
  317MOL0     H42735  11.725   3.988   6.566 -1.3588 -1.1923  0.0590
  317MOL0     H42736  11.741   4.134   6.291  1.1239  2.2420 -0.0571
  317MOL0     H42737  11.662   4.197   6.440  1.3549 -0.5433  3.2951
  317MOL0     H42738  11.858   4.314   6.437  2.3538  0.8307  2.4974
  317MOL0     H42739  11.878   4.188   6.553  2.2212  1.5915 -0.0704
  317MOL0     H42740  12.005   4.056   6.395 -2.9572  0.2384  0.8612
  317MOL0     H42741  11.997   4.179   6.276  1.4557  2.5643  0.0629
  317MOL0     H42742  12.100   4.338   6.448  1.0087 -0.0241 -0.1397
  317MOL0     H42743  12.204   4.193   6.400  0.2804  2.1751  0.0742
  317MOL0     H42744  12.110   4.277   6.668  0.9696  1.8079 -0.2574
  317MOL0     H42745  12.093   4.111   6.627 -0.2131  0.4640  0.9612
  317MOL0     H42746  12.335   4.400   6.584  1.2151  0.7468  2.3775
  317MOL0     H42747  12.706   4.311   6.567  0.4327  2.0920  0.1582
  317MOL0     H42748  12.587   4.436   6.562 -1.0882 -0.2829  0.7234
  317MOL0     H42749  12.733   4.490   6.762 -0.5701 -0.1689 -0.7067
  317MOL0     H42750  12.579   4.442   6.822 -0.3812  1.4262  0.0054
  317MOL0     H42751  12.810   4.243   6.787 -0.0204  0.0934  0.1091
  317MOL0     H42752  12.640   4.236   6.860 -0.7817  0.9266 -0.7749
  317MOL0     H42753  12.775   4.258   7.046  0.7501 -3.0223 -3.0256
  317MOL0     H42754  12.713   4.419   7.019  2.2912  1.2370  1.2339
  317MOL0     H42755  12.934   4.135   6.941  0.0867  0.2989 -0.3973
  317MOL0     H42756  13.138   4.003   6.988  0.4425  0.2155 -2.1936
  317MOL0     H42757  13.615   4.102   7.255  1.3184  0.6254  1.4111
  317MOL0     H42758  13.838   3.985   7.261  3.1316  1.5755 -0.3899
  317MOL0     H42759  13.919   3.748   7.170  0.2373 -0.4348 -1.2493
  317MOL0     H42760  14.076   3.743   7.092  1.7002 -1.3168  2.6032
  317MOL0     H42761  14.066   3.975   7.264  0.6101 -0.3362  0.3358
  317MOL0     H42762  14.072   3.828   7.352  4.2826 -0.0722  1.5334
  317MOL0     H42763  14.303   3.772   7.196  1.5979  0.7474 -0.7084
  317MOL0     H42764  14.285   3.942   7.139 -1.6336 -0.0785 -0.0486
  317MOL0     H42765  14.299   3.871   7.434  0.6488 -0.2540 -0.6507
  317MOL0     H42766  14.298   4.036   7.356  2.2766  1.2797  2.8956
  317MOL0     H42767  14.508   3.968   7.223 -3.0509  0.5334 -1.2730
  317MOL0     H42768  14.517   3.825   7.332  0.8411 -0.6241 -0.3993
  317MOL0     H42769  14.523   4.125   7.409  5.2796  1.1702 -2.6181
  317MOL0     H42770  14.532   3.998   7.532 -1.9677 -0.0070 -0.6002
  317MOL0     H42771  14.738   4.089   7.499  1.8709 -0.5745  0.2590
  317MOL0     H42772  14.745   4.045   7.327 -1.4839 -0.1620 -0.3476
  317MOL0     H42773  14.732   3.846   7.546 -1.7302  2.1428  0.7370
  317MOL0     H42774  14.747   3.816   7.368  1.6083 -1.3258  0.7642
  317MOL0     H42775  13.865   3.996   6.835  0.7941  2.0110  0.3490
  317MOL0     H42776  13.651   4.119   6.823 -1.1308 -1.6223  0.7788
  317MOL0     H42777  13.356   4.369   7.033  0.5426 -0.8900  3.5692
  317MOL0     H42778  13.167   4.500   7.020 -2.1861  0.5765 -0.0779
  317MOL0     H42779  11.386   3.909   6.822  1.5692  1.6815 -0.3405
  317MOL0     H42780  11.126   3.953   6.867 -1.4210  3.0986 -0.9567
  317MOL0     H42781  10.741   3.837   6.754  4.2000  0.9900 -1.6380
  317MOL0     H42782  10.520   3.814   6.813  0.7852  0.5021  0.3766
  317MOL0     H42783  10.259   4.031   6.577 -3.6146 -0.8286 -1.8590
  317MOL0     H42784  10.199   4.141   6.703 -2.5022 -0.3765  1.1200
  317MOL0     H42785  10.037   3.992   6.785  2.5795 -0.2758  0.3366
  317MOL0     H42786  10.122   3.855   6.736  1.4487  0.5797  3.3564
  317MOL0     H42787  10.071   3.907   6.503  0.7295 -1.1881  0.3599
  317MOL0     H42788   9.943   4.024   6.565 -1.6274 -1.0327 -1.4936
  317MOL0     H42789   9.888   3.791   6.489  0.5920 -2.2634  0.1924
  317MOL0     H42790   9.983   3.724   6.610 -0.8511 -0.9368 -0.7734
  317MOL0     H42791   9.607   3.782   6.806  0.9700  4.2806  1.3592
  317MOL0     H42792  10.438   4.204   6.647 -0.2941  0.1736 -0.8326
  317MOL0     H42793  10.609   4.366   6.639 -0.9816 -0.5108 -3.0581
  317MOL0     H42794  10.776   4.324   6.655  0.7789  3.2740 -2.3340
  317MOL0     H42795  10.698   4.276   6.506 -2.0254  2.3922 -0.6870
  318MOL0     O42796   4.733   9.566   6.950  0.5076 -0.4994 -0.9463
  318MOL0     C42797   4.748   9.678   7.003  0.5557 -0.2923 -0.3815
  318MOL0     O42798   4.740   9.793   6.936  0.0913 -0.5337  0.6303
  318MOL0     C42799   4.703   9.784   6.803  0.0183 -0.0505  0.8397
  318MOL0     C42800   4.812   9.767   6.705  0.5420  0.3976  0.6206
  318MOL0     C42801   4.759   9.734   6.572  0.0928 -0.8303  0.5762
  318MOL0     C42802   4.621   9.739   6.536  0.1513 -0.0280 -0.7121
  318MOL0     O42803   4.593   9.725   6.401  0.1660 -0.2988  0.0800
  318MOL0     C42804   4.470   9.772   6.348 -0.4066 -0.0187 -0.0313
  318MOL0     C42805   4.448   9.702   6.214  0.0103 -0.4683 -0.0841
  318MOL0     C42806   4.334   9.780   6.135 -0.4388 -0.0291  0.5821
  318MOL0     C42807   4.194   9.732   6.190  1.0823 -0.1349 -0.1808
  318MOL0     C42808   4.074   9.736   6.084  0.9177  0.0911 -0.6347
  318MOL0     C42809   4.021   9.867   6.023 -0.8993 -0.0341 -0.5022
  318MOL0     C42810   3.944   9.943   6.121  0.0742  0.3031 -0.2200
  318MOL0     C42811   3.809   9.885   6.147  0.0280 -0.6119  0.9243
  318MOL0     N42812   3.731   9.979   6.227 -0.5615 -0.5030 -0.1813
  318MOL0     C42813   3.763  10.009   6.356 -0.2705 -0.2880 -0.7784
  318MOL0     C42814   3.662  10.090   6.394  0.4374  0.9256 -0.9356
  318MOL0     C42815   3.647  10.155   6.528  0.4442  0.0563  1.4604
  318MOL0     C42816   3.497  10.181   6.559 -0.2922  0.9214  0.2456
  318MOL0     C42817   3.482  10.209   6.702  0.5083 -0.5366  0.6429
  318MOL0     C42818   3.338  10.235   6.734 -0.3841  0.0759 -0.6039
  318MOL0     O42819   3.311  10.219   6.874  0.9217  0.5588  0.1469
  318MOL0     C42820   3.203  10.269   6.937  0.2423 -0.7297 -0.0353
  318MOL0     C42821   3.080  10.291   6.864 -0.4580  0.4694  0.2010
  318MOL0     C42822   2.960  10.329   6.928  0.2652  0.3353 -0.5387
  318MOL0     C42823   2.959  10.354   7.072  1.0199  0.4973  0.4698
  318MOL0     C42824   2.838  10.402   7.146  0.1178  0.7964  0.0164
  318MOL0     O42825   2.720  10.362   7.087  0.1657 -0.0217 -0.3169
  318MOL0     C42826   2.607  10.423   7.137  0.5326 -0.0353 -0.4463
  318MOL0     C42827   2.599  10.555   7.180  0.8091  0.2343  0.3044
  318MOL0     C42828   2.475  10.604   7.232 -0.0537 -0.7646  0.3969
  318MOL0     C42829   2.368  10.516   7.240  0.2909 -0.7260 -0.2006
  318MOL0     O42830   2.244  10.570   7.281 -0.4824 -0.2643  0.1964
  318MOL0     C42831   2.136  10.530   7.197  0.0292 -0.2083  0.4610
  318MOL0     C42832   2.016  10.627   7.229 -0.0548  0.6801  0.4065
  318MOL0     C42833   1.891  10.619   7.153 -0.4570  0.0777 -0.3952
  318MOL0     C42834   1.812  10.502   7.226  0.4101 -0.7033  0.0668
  318MOL0     C42835   1.660  10.494   7.204  0.3865 -0.8101  0.1491
  318MOL0     C42836   1.646  10.461   7.056  0.5485  0.5558  1.0638
  318MOL0     C42837   1.509  10.426   7.001 -0.6987 -0.0556 -0.0001
  318MOL0     C42838   1.425  10.547   6.993  0.3669 -0.1403  0.7573
  318MOL0    Cl42839   1.249  10.506   6.980  0.3008 -0.0104  0.3564
  318MOL0     C42840   2.383  10.380   7.209 -0.1290 -0.2248 -0.6963
  318MOL0     C42841   2.494  10.338   7.153  0.0478 -0.5779  0.2631
  318MOL0     O42842   2.853  10.477   7.243 -0.8627  0.2090 -0.7053
  318MOL0     C42843   3.082  10.349   7.137 -0.1306  0.6807  0.0038
  318MOL0     C42844   3.201  10.304   7.075  1.0544  0.2442  0.2634
  318MOL0     N42845   3.582  10.113   6.281  0.1673  1.0284  0.1636
  318MOL0     N42846   3.634  10.055   6.179  0.3012  0.3711 -0.1090
  318MOL0     C42847   4.522   9.759   6.640 -0.1236 -1.2903  0.4624
  318MOL0     C42848   4.563   9.772   6.775  0.5689 -0.5830  0.3795
  318MOL0     C42849   4.767   9.677   7.153  0.2329  0.4095  1.1051
  318MOL0     C42850   4.778   9.803   7.210  0.1492  0.2663  0.1966
  318MOL0     C42851   4.783   9.825   7.349 -0.1105 -0.4446  1.7091
  318MOL0     C42852   4.781   9.717   7.427  0.0585  0.9069 -0.8496
  318MOL0     O42853   4.768   9.736   7.566  0.2458 -0.2861  0.7593
  318MOL0     C42854   4.762   9.634   7.658  0.2692  0.3750 -0.3228
  318MOL0     C42855   4.621   9.567   7.653 -0.6673  0.3219  0.2405
  318MOL0     C42856   4.514   9.674   7.693 -0.1487  0.5615  0.2000
  318MOL0     C42857   4.414   9.614   7.785  1.0972  0.6973 -0.5996
  318MOL0     C42858   4.280   9.667   7.783 -0.4819 -0.0198 -0.3347
  318MOL0     C42859   4.162   9.702   7.763  0.4954 -0.4098 -0.4247
  318MOL0     C42860   4.792   9.585   7.369  0.4719 -1.2353 -0.2822
  318MOL0     C42861   4.783   9.567   7.236 -0.6273 -0.2212  0.2777
  318MOL0     C42862   4.788   9.428   7.188 -0.7867 -0.1130  1.2421
  318MOL0     H42863   4.916   9.754   6.732  2.0248  3.9619 -2.4720
  318MOL0     H42864   4.834   9.714   6.496  0.1127  1.1917 -0.0082
  318MOL0     H42865   4.381   9.751   6.408 -1.3196  0.6490 -1.1127
  318MOL0     H42866   4.477   9.879   6.327 -0.3470 -0.1641 -0.8026
  318MOL0     H42867   4.417   9.600   6.238  1.4033 -0.3776  2.4232
  318MOL0     H42868   4.542   9.699   6.158  0.3431  2.0123  0.1976
  318MOL0     H42869   4.345   9.755   6.029 -0.4639 -0.5135  0.6909
  318MOL0     H42870   4.349   9.888   6.125  0.2843 -0.2189 -0.7020
  318MOL0     H42871   4.211   9.624   6.198 -2.3984 -0.7426  0.5411
  318MOL0     H42872   4.168   9.790   6.279  1.0507  0.7191 -0.7400
  318MOL0     H42873   4.113   9.684   5.996 -1.1266 -0.0702 -1.5012
  318MOL0     H42874   3.985   9.679   6.111  1.6361 -0.9222 -0.3542
  318MOL0     H42875   4.112   9.927   6.012 -1.1675  0.3907 -0.4529
  318MOL0     H42876   3.974   9.849   5.926  2.4846 -2.2158 -1.9244
  318MOL0     H42877   3.940  10.046   6.084  1.9447 -0.1803 -1.9821
  318MOL0     H42878   3.996   9.946   6.217  0.9163  1.0743 -0.6885
  318MOL0     H42879   3.759   9.879   6.050 -1.7839 -3.6427  1.9084
  318MOL0     H42880   3.804   9.781   6.182  1.8116 -1.6253 -1.5094
  318MOL0     H42881   3.848   9.980   6.417 -0.5039  0.9866  0.1990
  318MOL0     H42882   3.674  10.081   6.604 -0.8772 -1.3903  0.5958
  318MOL0     H42883   3.700  10.250   6.543  0.5655  0.0030  1.3746
  318MOL0     H42884   3.456  10.264   6.501 -0.6609 -0.0793 -0.9912
  318MOL0     H42885   3.456  10.082   6.534  1.1100 -0.3070  2.4934
  318MOL0     H42886   3.536  10.300   6.729 -0.9893  1.3902 -2.2986
  318MOL0     H42887   3.517  10.124   6.761  1.9239 -0.4888 -0.0862
  318MOL0     H42888   3.277  10.159   6.684  3.1072 -2.1427 -1.8725
  318MOL0     H42889   3.307  10.335   6.704  0.6805  0.5638 -0.1577
  318MOL0     H42890   3.077  10.253   6.762 -0.5971  1.0652 -0.0252
  318MOL0     H42891   2.862  10.318   6.883 -0.6477 -2.1348  1.7756
  318MOL0     H42892   2.684  10.623   7.178  2.8216 -2.0984 -1.9624
  318MOL0     H42893   2.468  10.711   7.254  1.7436 -0.7933  1.2587
  318MOL0     H42894   2.160  10.537   7.090  1.7745 -1.2801  0.7486
  318MOL0     H42895   2.091  10.433   7.219 -1.3521  0.6382  1.5539
  318MOL0     H42896   1.991  10.625   7.335 -3.3570 -0.9990 -0.2900
  318MOL0     H42897   2.042  10.731   7.207 -2.0033  0.7797 -1.7650
  318MOL0     H42898   1.840  10.716   7.147  0.0978  0.4997  1.1117
  318MOL0     H42899   1.903  10.597   7.047  1.8326 -0.5105 -0.0697
  318MOL0     H42900   1.820  10.527   7.332 -1.0124  0.4713 -0.0782
  318MOL0     H42901   1.858  10.406   7.201  2.1130  0.2830 -0.8120
  318MOL0     H42902   1.622  10.595   7.222  1.6042 -0.4462  0.7819
  318MOL0     H42903   1.608  10.414   7.257  2.5120 -1.8052  0.8647
  318MOL0     H42904   1.698  10.539   6.999  1.8615 -0.4282  0.8496
  318MOL0     H42905   1.691  10.365   7.027 -2.8599 -0.3459 -2.0242
  318MOL0     H42906   1.467  10.352   7.069  2.6327 -1.2262  0.9602
  318MOL0     H42907   1.511  10.382   6.901 -1.6670  0.0906 -0.0991
  318MOL0     H42908   1.451  10.605   7.082  3.4466 -2.1430  1.3171
  318MOL0     H42909   1.442  10.620   6.913 -2.0804 -0.2555  0.0569
  318MOL0     H42910   2.299  10.311   7.216 -0.2143 -0.0882 -0.3332
  318MOL0     H42911   2.505  10.233   7.129 -0.6693 -0.5524 -0.1903
  318MOL0     H42912   3.087  10.374   7.243 -0.5272 -1.4740  0.5713
  318MOL0     H42913   3.290  10.305   7.137  0.3785  4.1741  1.4960
  318MOL0     H42914   4.415   9.763   6.624 -0.0405  2.4864  0.0519
  318MOL0     H42915   4.489   9.782   6.853 -3.4929 -1.0169 -3.0115
  318MOL0     H42916   4.791   9.891   7.147 -2.2709  0.6829  0.2075
  318MOL0     H42917   4.783   9.923   7.396  2.3884 -0.0028  0.9286
  318MOL0     H42918   4.765   9.679   7.758  1.1835  4.0866 -1.8529
  318MOL0     H42919   4.847   9.567   7.651  0.2665  0.4534 -1.1611
  318MOL0     H42920   4.632   9.487   7.726  0.5562 -2.2685 -2.5659
  318MOL0     H42921   4.604   9.524   7.553 -1.3790  0.5024  0.2751
  318MOL0     H42922   4.472   9.712   7.599  1.9391  2.5456 -0.0214
  318MOL0     H42923   4.547   9.765   7.743  1.1401  0.1400  0.1635
  318MOL0     H42924   4.413   9.509   7.753  1.5438  0.7661 -0.8496
  318MOL0     H42925   4.450   9.601   7.887  1.8941  0.8632 -0.8578
  318MOL0     H42926   4.065   9.736   7.732  0.9525 -1.9656 -4.1969
  318MOL0     H42927   4.793   9.498   7.433 -2.4574 -1.0659  0.0912
  318MOL0     H42928   4.804   9.350   7.263 -2.8477 -3.4835 -1.5344
  318MOL0     H42929   4.697   9.404   7.132 -0.2154 -2.6641  1.3138
  318MOL0     H42930   4.870   9.426   7.116 -1.5484 -0.1942  0.3461
  319MOL0     O42931   7.529   7.724   9.834 -0.4002  0.0350 -0.1304
  319MOL0     C42932   7.468   7.774   9.924  0.2450 -0.3934  0.0665
  319MOL0     O42933   7.526   7.831  10.030  0.6420 -0.0733 -0.3173
  319MOL0     C42934   7.658   7.824  10.036 -0.4225 -1.1918  0.5899
  319MOL0     C42935   7.719   7.739  10.129 -0.3841 -0.2965  0.7812
  319MOL0     C42936   7.863   7.743  10.152  0.0090 -0.6028  0.2383
  319MOL0     C42937   7.939   7.829  10.068  0.0043 -0.7253 -0.5160
  319MOL0     O42938   8.075   7.842  10.073 -0.0521  0.5396 -0.3705
  319MOL0     C42939   8.128   7.894  10.200  0.6259  0.4107 -0.9635
  319MOL0     C42940   8.252   7.983  10.154  1.1115 -0.3998 -0.3376
  319MOL0     C42941   8.335   8.014  10.285 -0.4111 -0.0910 -1.1862
  319MOL0     C42942   8.460   8.091  10.230 -0.0506 -0.2139  0.4197
  319MOL0     C42943   8.522   8.163  10.352  0.3398 -0.8368 -0.2154
  319MOL0     C42944   8.656   8.229  10.316  0.1725 -0.5445 -0.3429
  319MOL0     C42945   8.657   8.296  10.181  0.0127  0.1370  0.0249
  319MOL0     C42946   8.792   8.364  10.163  0.1830  0.6944 -0.8203
  319MOL0     N42947   8.791   8.413  10.030 -0.8800  0.1293  0.1795
  319MOL0     C42948   8.713   8.521  10.003  0.2124 -0.1969  0.3835
  319MOL0     C42949   8.712   8.514   9.860 -1.2099  0.4809 -0.4074
  319MOL0     C42950   8.627   8.603   9.782 -0.1807 -0.3441  0.5186
  319MOL0     C42951   8.481   8.586   9.815 -0.1651 -0.4389  0.1504
  319MOL0     C42952   8.385   8.673   9.723 -0.6314 -0.6486 -0.0747
  319MOL0     C42953   8.235   8.684   9.760 -0.1079  0.7591 -0.2653
  319MOL0     O42954   8.165   8.726   9.643 -0.0009  0.4033 -1.2004
  319MOL0     C42955   8.027   8.746   9.645 -1.2934 -0.6162 -0.4184
  319MOL0     C42956   7.938   8.690   9.745 -0.2517  1.0848 -0.0382
  319MOL0     C42957   7.797   8.702   9.734  0.1312  0.1023 -0.3677
  319MOL0     C42958   7.741   8.795   9.646  0.2256  0.1889  0.3238
  319MOL0     C42959   7.598   8.826   9.634 -0.3926 -0.8860 -0.0340
  319MOL0     O42960   7.527   8.753   9.723  1.2124 -0.2432  0.0390
  319MOL0     C42961   7.387   8.751   9.736 -0.4987 -1.0406  0.0312
  319MOL0     C42962   7.336   8.642   9.809 -0.1275  0.0026  0.4607
  319MOL0     C42963   7.192   8.632   9.825 -0.0335 -0.0253  0.3872
  319MOL0     C42964   7.100   8.727   9.774 -0.2693  0.2659 -0.1288
  319MOL0     O42965   6.962   8.715   9.798  0.1998 -0.7494 -0.7089
  319MOL0     C42966   6.880   8.827   9.777 -0.4595 -0.2059 -0.4594
  319MOL0     C42967   6.736   8.791   9.824 -0.1741 -0.4053  0.5362
  319MOL0     C42968   6.638   8.896   9.775  0.0167  0.4922 -0.3071
  319MOL0     C42969   6.493   8.848   9.808  0.0782  0.2540 -0.2647
  319MOL0     C42970   6.398   8.931   9.711 -0.7550  0.5702 -0.1864
  319MOL0     C42971   6.263   8.867   9.701  0.0983  0.3405  0.2756
  319MOL0     C42972   6.193   8.933   9.582 -0.6293  0.8301  0.0914
  319MOL0     C42973   6.054   8.871   9.547  0.5585  0.0771  0.1493
  319MOL0    Cl42974   6.061   8.711   9.476  0.4129 -0.1395  0.0514
  319MOL0     C42975   7.164   8.842   9.715  0.3540 -0.3701 -0.2606
  319MOL0     C42976   7.298   8.846   9.690  0.6491 -0.3164 -0.2556
  319MOL0     O42977   7.548   8.911   9.552 -0.0366  1.2360 -0.8941
  319MOL0     C42978   7.826   8.840   9.539  0.3854  0.8863  0.0645
  319MOL0     C42979   7.962   8.819   9.542  0.0537  0.2834  0.0781
  319MOL0     N42980   8.800   8.425   9.813  0.7132 -0.1438 -0.6928
  319MOL0     N42981   8.841   8.358   9.913  0.5854  0.4680  0.1711
  319MOL0     C42982   7.882   7.905   9.961  0.0086  0.2557  0.1896
  319MOL0     C42983   7.741   7.904   9.955 -0.4982 -0.7320  0.6371
  319MOL0     C42984   7.318   7.749   9.925  1.2021  0.0419  0.0536
  319MOL0     C42985   7.256   7.676   9.824 -0.3234  0.7819 -0.4416
  319MOL0     C42986   7.116   7.682   9.802 -0.3428 -0.6183  0.3493
  319MOL0     C42987   7.025   7.738   9.887 -1.1114 -0.1981 -0.6767
  319MOL0     O42988   6.890   7.732   9.867 -0.5343  1.2105  0.5829
  319MOL0     C42989   6.837   7.850   9.821 -0.7211 -0.3791  0.9877
  319MOL0     C42990   6.689   7.837   9.788 -0.9273 -0.3763  0.2602
  319MOL0     C42991   6.604   7.790   9.915 -0.1976 -0.2754 -0.2728
  319MOL0     C42992   6.461   7.812   9.899  0.0534  0.6173 -1.0109
  319MOL0     C42993   6.408   7.707   9.813  0.1506  1.2137  0.2324
  319MOL0     C42994   6.344   7.624   9.750  0.4665 -0.1367  0.0533
  319MOL0     C42995   7.086   7.804   9.992  0.0206  0.0760 -0.3488
  319MOL0     C42996   7.227   7.813  10.018  0.4775 -0.1833 -0.3790
  319MOL0     C42997   7.274   7.896  10.140  0.6008 -0.5122  0.3007
  319MOL0     H42998   7.655   7.674  10.187  1.7197 -1.7095  1.6275
  319MOL0     H42999   7.896   7.672  10.227 -1.2630 -0.1851  1.2101
  319MOL0     H43000   8.059   7.959  10.254 -0.0984 -1.6229  0.7021
  319MOL0     H43001   8.156   7.811  10.265 -0.1299 -0.4613 -1.7234
  319MOL0     H43002   8.215   8.071  10.100  2.0861 -0.4624 -1.1408
  319MOL0     H43003   8.303   7.918  10.082  0.8828  1.1147 -1.9439
  319MOL0     H43004   8.356   7.918  10.334 -0.0217 -1.1587 -3.3320
  319MOL0     H43005   8.275   8.072  10.355 -4.2067 -5.2298  0.4658
  319MOL0     H43006   8.540   8.030  10.186 -1.0694 -1.4288  0.2139
  319MOL0     H43007   8.425   8.159  10.152 -0.1572 -0.4770  0.2378
  319MOL0     H43008   8.458   8.241  10.394  1.0932 -0.6849  0.7019
  319MOL0     H43009   8.538   8.090  10.432 -0.7406 -0.3040  0.5017
  319MOL0     H43010   8.672   8.307  10.391 -0.7018 -1.2087  0.5597
  319MOL0     H43011   8.733   8.152  10.309 -0.5527 -1.1769 -1.8112
  319MOL0     H43012   8.579   8.372  10.173  1.4260  1.5777 -0.7299
  319MOL0     H43013   8.655   8.216  10.106 -1.1059 -1.7894  2.0063
  319MOL0     H43014   8.810   8.442  10.238  2.0845 -0.3365 -0.1424
  319MOL0     H43015   8.863   8.281  10.170 -0.7621 -0.1446 -0.9532
  319MOL0     H43016   8.653   8.590  10.062 -0.6681  0.8574 -1.6382
  319MOL0     H43017   8.658   8.705   9.805  0.2382 -0.1806 -0.6981
  319MOL0     H43018   8.649   8.586   9.676 -3.3411  0.1708 -0.3187
  319MOL0     H43019   8.449   8.481   9.808 -2.0611 -0.0314  2.0085
  319MOL0     H43020   8.462   8.613   9.919 -0.5781  0.8952 -0.2616
  319MOL0     H43021   8.382   8.626   9.625  1.5897  1.2984 -1.1721
  319MOL0     H43022   8.434   8.769   9.703  2.4830 -2.6467 -2.8935
  319MOL0     H43023   8.215   8.760   9.836 -2.2721  1.1373 -1.1125
  319MOL0     H43024   8.202   8.584   9.790  2.6689  0.1513  1.0122
  319MOL0     H43025   7.980   8.638   9.830 -1.6685 -0.4605 -0.2507
  319MOL0     H43026   7.737   8.642   9.801  1.9705  1.0239  2.2798
  319MOL0     H43027   7.404   8.564   9.844 -0.2811 -0.4176 -0.1542
  319MOL0     H43028   7.155   8.551   9.887 -2.1962 -0.1680 -0.9712
  319MOL0     H43029   6.926   8.909   9.833 -2.8195  0.4200  0.6879
  319MOL0     H43030   6.874   8.839   9.668 -0.0235 -0.5955 -0.5327
  319MOL0     H43031   6.707   8.694   9.782 -2.0235  0.7303 -0.8913
  319MOL0     H43032   6.733   8.787   9.934  0.6786  2.1112  0.7041
  319MOL0     H43033   6.658   8.995   9.815  0.6903  0.4577 -0.5500
  319MOL0     H43034   6.655   8.890   9.667  0.1433 -2.3108 -0.2244
  319MOL0     H43035   6.487   8.869   9.915  4.4681 -0.5506  0.3378
  319MOL0     H43036   6.472   8.742   9.790 -4.5635  1.3869 -3.1899
  319MOL0     H43037   6.455   8.921   9.618  0.5891 -0.7164  0.7343
  319MOL0     H43038   6.376   9.032   9.747 -6.3514 -1.8898  4.9546
  319MOL0     H43039   6.278   8.761   9.675  0.4427  0.4390  0.0692
  319MOL0     H43040   6.214   8.869   9.799  0.6104 -1.1668  0.5896
  319MOL0     H43041   6.264   8.934   9.500 -0.0045  1.2050  0.6284
  319MOL0     H43042   6.180   9.038   9.612 -2.4969  0.1450  1.9043
  319MOL0     H43043   5.990   8.876   9.636  0.6713 -2.0819  0.4002
  319MOL0     H43044   6.019   8.936   9.466  1.0389  0.6493  0.3884
  319MOL0     H43045   7.095   8.916   9.675  1.5350  1.4096  0.8904
  319MOL0     H43046   7.323   8.935   9.633 -0.7418 -1.2898 -2.5470
  319MOL0     H43047   7.781   8.905   9.465 -2.0764  1.3372  1.8504
  319MOL0     H43048   8.027   8.852   9.462  0.0869 -1.0183 -0.4511
  319MOL0     H43049   7.936   7.977   9.900  1.7291  0.0006  1.3348
  319MOL0     H43050   7.680   7.948   9.877 -0.1210 -1.4474 -0.0751
  319MOL0     H43051   7.316   7.611   9.761 -0.7268  0.0590 -0.0847
  319MOL0     H43052   7.079   7.625   9.717 -1.1320 -0.2053  0.4057
  319MOL0     H43053   6.895   7.877   9.732 -0.1455 -0.3678  1.3608
  319MOL0     H43054   6.851   7.925   9.899  2.2349 -1.6073  1.7564
  319MOL0     H43055   6.678   7.756   9.716 -1.5009  0.1580 -0.2631
  319MOL0     H43056   6.646   7.927   9.743  1.4867  1.6049  1.6723
  319MOL0     H43057   6.628   7.847  10.005  2.0723 -0.4833 -0.6927
  319MOL0     H43058   6.623   7.685   9.935  2.6878 -0.3230 -2.6135
  319MOL0     H43059   6.415   7.810   9.998 -1.8477  2.1380 -1.7723
  319MOL0     H43060   6.434   7.910   9.858 -0.3363  0.0185 -2.2472
  319MOL0     H43061   6.296   7.537   9.710 -1.0908  0.8541 -0.2868
  319MOL0     H43062   7.013   7.849  10.058 -2.2057 -1.3389 -1.7315
  319MOL0     H43063   7.200   7.928  10.214  1.0158 -3.1296  1.9709
  319MOL0     H43064   7.348   7.828  10.184 -0.7278 -1.9279  0.4158
  319MOL0     H43065   7.333   7.974  10.090 -1.6704  2.2775  1.6524
  320MOL0     O43066  10.845   3.290   7.087  0.0529 -1.0046 -0.2232
  320MOL0     C43067  10.856   3.350   6.983  0.7640  0.1817  0.4513
  320MOL0     O43068  10.974   3.362   6.906 -0.4091  0.0113 -0.8533
  320MOL0     C43069  11.096   3.310   6.942  0.3945  0.2485  0.0229
  320MOL0     C43070  11.132   3.278   7.078  0.8717 -0.7567 -0.4563
  320MOL0     C43071  11.259   3.210   7.100 -0.7943 -0.0261  0.4150
  320MOL0     C43072  11.341   3.179   6.994  0.2482 -0.0409  0.2174
  320MOL0     O43073  11.446   3.098   7.018 -0.6294  0.1684  0.5384
  320MOL0     C43074  11.419   2.951   7.009 -1.0087 -0.1010 -0.6348
  320MOL0     C43075  11.529   2.880   6.928  0.7100  0.3345  0.1433
  320MOL0     C43076  11.672   2.929   6.956  0.1766  1.3335  0.5284
  320MOL0     C43077  11.779   2.870   6.865 -0.8218  0.2604  0.3752
  320MOL0     C43078  11.917   2.916   6.922 -0.4414 -0.6146 -0.0660
  320MOL0     C43079  12.023   2.879   6.815  0.0305 -1.2511 -0.3666
  320MOL0     C43080  12.169   2.921   6.856  0.0899 -0.3969  0.1378
  320MOL0     C43081  12.266   2.917   6.740 -0.5567  0.2562  0.1910
  320MOL0     N43082  12.395   2.972   6.778 -0.5142  0.4987 -0.4487
  320MOL0     C43083  12.458   3.070   6.708  0.5962 -0.8121  0.5679
  320MOL0     C43084  12.567   3.083   6.765  0.2877 -0.3966 -0.0157
  320MOL0     C43085  12.673   3.182   6.716  0.4239  0.2610 -0.4914
  320MOL0     C43086  12.723   3.286   6.813  1.1246 -0.8748  0.5051
  320MOL0     C43087  12.851   3.345   6.745  0.4298 -0.2003 -0.4586
  320MOL0     C43088  12.840   3.363   6.585 -0.1715  0.5718 -1.2143
  320MOL0     O43089  12.956   3.427   6.546  0.6736 -0.2031  0.5829
  320MOL0     C43090  12.990   3.432   6.417  0.3316 -0.2838 -0.1796
  320MOL0     C43091  13.100   3.504   6.393 -0.7022 -0.0298  0.0782
  320MOL0     C43092  13.147   3.522   6.268 -0.4713 -0.3542  0.7597
  320MOL0     C43093  13.096   3.443   6.157  0.0820 -0.0597 -1.6636
  320MOL0     C43094  13.158   3.432   6.033 -0.0765  0.5666  0.2377
  320MOL0     O43095  13.234   3.537   5.997 -0.5752  0.4849 -0.0648
  320MOL0     C43096  13.261   3.566   5.863  0.9678  0.6941  0.3595
  320MOL0     C43097  13.393   3.600   5.829  0.1763 -0.3146 -0.8820
  320MOL0     C43098  13.422   3.633   5.699  0.2765 -0.0837 -0.3711
  320MOL0     C43099  13.323   3.607   5.606 -0.0480 -0.1253  0.0532
  320MOL0     O43100  13.343   3.609   5.470 -0.3848 -0.0474  0.2358
  320MOL0     C43101  13.458   3.661   5.410 -0.0329 -0.2515  0.2440
  320MOL0     C43102  13.445   3.643   5.257  0.4972 -0.5626  0.7235
  320MOL0     C43103  13.354   3.758   5.203 -0.2633 -0.0415  0.1527
  320MOL0     C43104  13.208   3.709   5.191  0.5125 -0.2068 -0.6409
  320MOL0     C43105  13.123   3.805   5.103 -0.7399  0.1345 -0.0151
  320MOL0     C43106  12.981   3.750   5.099 -0.3173 -0.1372 -0.0247
  320MOL0     C43107  12.876   3.858   5.050  1.2735 -0.6469  0.6159
  320MOL0     C43108  12.754   3.787   4.999  1.1174  0.2457  0.9893
  320MOL0    Cl43109  12.703   3.651   5.105 -0.0918  0.1224 -0.1504
  320MOL0     C43110  13.197   3.566   5.632  0.6716  0.0902 -0.0033
  320MOL0     C43111  13.161   3.556   5.766 -0.1235  0.5877 -0.1561
  320MOL0     O43112  13.144   3.320   5.980 -0.4226  0.7391  0.0744
  320MOL0     C43113  12.975   3.371   6.189  0.9323 -0.2751  0.3887
  320MOL0     C43114  12.917   3.377   6.315  0.0951 -0.3797  0.5206
  320MOL0     N43115  12.582   2.996   6.872 -0.5693  0.4987  0.0823
  320MOL0     N43116  12.469   2.928   6.882  0.4335  0.7569  0.4943
  320MOL0     C43117  11.305   3.217   6.867 -0.0572 -0.2436 -1.0726
  320MOL0     C43118  11.184   3.279   6.841  0.4628  0.1407 -0.4361
  320MOL0     C43119  10.726   3.393   6.920  0.6255 -0.0798  0.0264
  320MOL0     C43120  10.651   3.498   6.974  1.6589 -0.7917  0.1405
  320MOL0     C43121  10.541   3.557   6.905  0.0808  0.4538  0.8319
  320MOL0     C43122  10.489   3.488   6.791 -0.3458 -0.2076  1.0288
  320MOL0     O43123  10.372   3.534   6.736 -0.3342 -0.5147  0.4188
  320MOL0     C43124  10.289   3.450   6.664  0.8771  0.0790  0.5093
  320MOL0     C43125  10.213   3.346   6.763  0.2391  0.2021  0.4690
  320MOL0     C43126  10.152   3.406   6.894  0.5526 -1.2264 -0.3588
  320MOL0     C43127  10.068   3.311   6.972  0.8150  0.2842  0.8298
  320MOL0     C43128  10.129   3.188   7.021 -0.6425  1.6613  0.0642
  320MOL0     C43129  10.199   3.092   7.063  1.0357 -0.6975 -0.4503
  320MOL0     C43130  10.561   3.379   6.740  0.0971 -0.2670 -0.0069
  320MOL0     C43131  10.675   3.330   6.802 -0.2199  0.3356  0.8312
  320MOL0     C43132  10.736   3.196   6.741 -0.3736 -0.0874 -0.5351
  320MOL0     H43133  11.074   3.312   7.163  1.3249  3.8999 -1.7283
  320MOL0     H43134  11.285   3.187   7.203 -0.7022  1.3691  0.7246
  320MOL0     H43135  11.418   2.905   7.108  0.6283 -0.8296 -0.9279
  320MOL0     H43136  11.324   2.922   6.962 -0.3537  1.0845 -2.8863
  320MOL0     H43137  11.509   2.893   6.821 -1.4192 -0.0396  0.4443
  320MOL0     H43138  11.511   2.774   6.948 -0.3614  0.3666 -0.5253
  320MOL0     H43139  11.705   2.889   7.051  3.6424  1.3097 -0.5679
  320MOL0     H43140  11.680   3.038   6.954  1.8514  1.3327  3.3432
  320MOL0     H43141  11.766   2.761   6.859 -2.4487  0.1934  3.2862
  320MOL0     H43142  11.766   2.915   6.766  1.0492 -1.4639 -0.7526
  320MOL0     H43143  11.904   3.023   6.940 -3.1918 -0.7849 -0.5173
  320MOL0     H43144  11.933   2.872   7.020 -3.1085 -1.7802 -0.0727
  320MOL0     H43145  12.028   2.770   6.800  1.2449 -1.1641 -0.6855
  320MOL0     H43146  12.001   2.933   6.723 -0.8812  1.7092  1.4782
  320MOL0     H43147  12.198   2.849   6.932  0.1122  1.5242  2.0528
  320MOL0     H43148  12.189   3.017   6.904  4.1094 -1.3529  0.7084
  320MOL0     H43149  12.271   2.812   6.710 -1.3923  0.3366 -0.2496
  320MOL0     H43150  12.230   2.975   6.655 -0.0222  2.2954  1.2852
  320MOL0     H43151  12.426   3.116   6.615 -1.0968  1.5890  2.2228
  320MOL0     H43152  12.759   3.120   6.689 -0.4624 -0.3517 -2.1007
  320MOL0     H43153  12.634   3.229   6.625 -1.2017  0.9545  0.5177
  320MOL0     H43154  12.651   3.367   6.825  1.9559  0.0377 -0.5147
  320MOL0     H43155  12.739   3.229   6.905  0.2499 -2.3118 -0.1930
  320MOL0     H43156  12.924   3.267   6.771 -1.3905 -2.4182 -1.6293
  320MOL0     H43157  12.884   3.440   6.789  2.9008 -0.2713 -1.9153
  320MOL0     H43158  12.752   3.418   6.553 -0.6975  0.8091  0.5632
  320MOL0     H43159  12.831   3.263   6.540  0.4064  0.0540 -0.2173
  320MOL0     H43160  13.158   3.558   6.467  2.0657  0.4205 -2.2416
  320MOL0     H43161  13.239   3.578   6.257 -0.1311 -0.8410  1.0325
  320MOL0     H43162  13.474   3.610   5.901 -0.2927  0.8299 -0.4822
  320MOL0     H43163  13.519   3.666   5.664  0.1268 -0.3676 -1.0586
  320MOL0     H43164  13.477   3.768   5.429  0.0382  0.4068 -2.9392
  320MOL0     H43165  13.550   3.609   5.437  3.3497  4.4733 -0.7556
  320MOL0     H43166  13.542   3.660   5.211  0.6846 -1.2157  0.8655
  320MOL0     H43167  13.422   3.542   5.221  1.6498  0.3785 -3.1842
  320MOL0     H43168  13.348   3.853   5.255  1.4677  2.3153 -3.4825
  320MOL0     H43169  13.389   3.790   5.104 -1.4007  3.9405  0.8871
  320MOL0     H43170  13.164   3.699   5.291 -2.6636  4.3822 -1.2782
  320MOL0     H43171  13.206   3.607   5.150 -0.4630 -0.8077  0.8011
  320MOL0     H43172  13.165   3.813   5.003  2.6348  1.6415  1.3562
  320MOL0     H43173  13.118   3.904   5.150  1.4284  1.0657 -1.5478
  320MOL0     H43174  12.980   3.662   5.035  3.0351  1.8715 -3.2318
  320MOL0     H43175  12.958   3.730   5.204  0.5387 -0.0652  0.1812
  320MOL0     H43176  12.907   3.917   4.964  0.1200  0.1006  0.6916
  320MOL0     H43177  12.852   3.923   5.135  0.9342 -1.8926  1.5081
  320MOL0     H43178  12.664   3.850   4.997  0.0505 -1.1725  2.2543
  320MOL0     H43179  12.782   3.749   4.901  0.5164  3.3329 -0.5202
  320MOL0     H43180  13.125   3.561   5.552 -0.1483 -0.9235  0.7630
  320MOL0     H43181  13.058   3.526   5.786  0.3793 -0.7166  0.5965
  320MOL0     H43182  12.917   3.307   6.124 -0.4401  1.9986 -0.7295
  320MOL0     H43183  12.826   3.324   6.340 -1.7604  2.0838 -0.5855
  320MOL0     H43184  11.371   3.186   6.787  0.0360 -1.1053 -0.6792
  320MOL0     H43185  11.142   3.299   6.743  0.4492  0.9151 -0.2807
  320MOL0     H43186  10.683   3.545   7.066 -1.4462  1.6412  0.1213
  320MOL0     H43187  10.479   3.639   6.939 -2.3135 -1.0895  0.4835
  320MOL0     H43188  10.335   3.396   6.580 -1.8196 -1.1888 -0.2644
  320MOL0     H43189  10.210   3.501   6.608 -0.8537 -2.7691  0.1521
  320MOL0     H43190  10.284   3.266   6.786 -0.4288 -0.7681 -0.7794
  320MOL0     H43191  10.123   3.315   6.709  2.3318 -0.0202 -3.2561
  320MOL0     H43192  10.094   3.497   6.879  2.9385  0.7890  1.7868
  320MOL0     H43193  10.234   3.448   6.952 -0.0751 -0.0101 -0.3231
  320MOL0     H43194  10.042   3.374   7.058  2.4994  0.3046  1.3490
  320MOL0     H43195   9.982   3.276   6.914  2.7029 -1.6096 -0.9915
  320MOL0     H43196  10.261   3.023   7.115 -1.3055 -0.7468  2.5440
  320MOL0     H43197  10.521   3.334   6.650 -0.8423 -0.0533  0.2924
  320MOL0     H43198  10.669   3.163   6.661 -0.7698  1.1417 -0.7378
  320MOL0     H43199  10.841   3.204   6.710 -0.2714  0.5117 -0.0682
  320MOL0     H43200  10.728   3.120   6.819 -1.1186  2.9198  2.5907
  321MOL0     O43201   3.051   8.542  11.315  0.7979  0.2627  0.1102
  321MOL0     C43202   3.136   8.512  11.394 -0.0339 -0.0486  0.7038
  321MOL0     O43203   3.138   8.405  11.465  0.0612 -0.6057 -0.1162
  321MOL0     C43204   3.013   8.354  11.494 -0.4800 -0.4474  1.1181
  321MOL0     C43205   2.956   8.411  11.610 -0.5184  0.9960  0.4311
  321MOL0     C43206   2.827   8.365  11.644  0.9525  0.5356 -0.0088
  321MOL0     C43207   2.752   8.271  11.571  0.0473  0.7380  0.2924
  321MOL0     O43208   2.627   8.227  11.613 -0.4438 -0.2631  0.3717
  321MOL0     C43209   2.538   8.164  11.513 -0.4495 -0.6979 -0.2085
  321MOL0     C43210   2.398   8.154  11.565  0.0753  0.7481 -0.1326
  321MOL0     C43211   2.390   8.013  11.645  0.0147 -0.4206  0.1294
  321MOL0     C43212   2.285   8.019  11.751  0.1425  0.4991  0.1198
  321MOL0     C43213   2.325   7.929  11.857 -0.5369  0.5223  0.0225
  321MOL0     C43214   2.227   7.937  11.974  0.3489  0.4316 -0.7472
  321MOL0     C43215   2.275   7.847  12.090  0.1711 -0.3472  0.7288
  321MOL0     C43216   2.255   7.699  12.045 -0.5783 -0.2604  0.9344
  321MOL0     N43217   2.239   7.602  12.152 -0.2838 -0.1287  0.6085
  321MOL0     C43218   2.159   7.486  12.148  0.2458  0.0900  0.0814
  321MOL0     C43219   2.201   7.410  12.257 -0.2436  0.9174  0.2045
  321MOL0     C43220   2.127   7.280  12.296  0.5876  0.1150  0.2078
  321MOL0     C43221   2.188   7.210  12.414 -0.3800 -0.1033  0.6183
  321MOL0     C43222   2.170   7.049  12.431 -0.4455  0.6109 -0.9817
  321MOL0     C43223   2.032   7.002  12.361  0.2588  0.2689  0.0667
  321MOL0     O43224   1.921   7.083  12.412 -0.0612 -0.2895  0.3777
  321MOL0     C43225   1.875   7.054  12.541 -0.2532 -0.3203  0.7398
  321MOL0     C43226   1.817   7.165  12.607  0.2643  0.6214  0.2017
  321MOL0     C43227   1.759   7.155  12.734  0.8113 -0.8159  0.4492
  321MOL0     C43228   1.758   7.034  12.793 -0.4231  0.3715 -0.4618
  321MOL0     C43229   1.693   7.000  12.915  0.0861 -0.1826  0.4863
  321MOL0     O43230   1.632   7.105  12.973  0.3559  0.6827  0.0669
  321MOL0     C43231   1.589   7.087  13.103  0.7612 -0.2773  0.0360
  321MOL0     C43232   1.504   6.989  13.155  0.5696 -0.0445 -0.4529
  321MOL0     C43233   1.462   6.984  13.287 -0.6315  0.1566  0.0639
  321MOL0     C43234   1.529   7.061  13.382 -0.2140 -0.1916  0.4601
  321MOL0     O43235   1.493   7.069  13.514 -0.0087 -0.5095 -1.0401
  321MOL0     C43236   1.394   6.987  13.570 -0.1488 -1.1202  0.1955
  321MOL0     C43237   1.336   7.041  13.702  0.3509 -0.4252  0.6654
  321MOL0     C43238   1.443   7.097  13.800 -0.8477 -0.0991 -1.1158
  321MOL0     C43239   1.557   6.991  13.840  0.0717 -0.2697  0.7925
  321MOL0     C43240   1.690   7.042  13.896  0.5691 -0.1080  0.8122
  321MOL0     C43241   1.780   7.097  13.783  0.1807  1.2901  1.4771
  321MOL0     C43242   1.911   7.159  13.828 -0.4782  0.5543  0.9460
  321MOL0     C43243   2.013   7.195  13.711  0.4166 -0.5245 -0.6910
  321MOL0    Cl43244   2.043   7.059  13.606 -0.6580  0.8837 -0.1322
  321MOL0     C43245   1.626   7.160  13.345 -1.4675 -0.5396  0.5299
  321MOL0     C43246   1.651   7.173  13.203  0.0898  0.1877  0.2928
  321MOL0     O43247   1.707   6.891  12.973  0.1081  0.2892  0.0809
  321MOL0     C43248   1.831   6.928  12.730  0.2006  0.5211  0.1281
  321MOL0     C43249   1.887   6.932  12.609 -0.2295  0.5579 -0.6155
  321MOL0     N43250   2.285   7.479  12.330  0.4359 -0.4565 -1.3282
  321MOL0     N43251   2.303   7.594  12.271  0.4040  0.1631  0.3586
  321MOL0     C43252   2.820   8.212  11.463  0.0495 -0.0635 -0.0448
  321MOL0     C43253   2.951   8.251  11.432  0.4755 -0.0250  0.1016
  321MOL0     C43254   3.258   8.589  11.398 -0.3188  0.3723 -0.0155
  321MOL0     C43255   3.288   8.641  11.523  0.6007  0.0847  0.5817
  321MOL0     C43256   3.375   8.749  11.538 -0.1098 -0.4974 -0.3872
  321MOL0     C43257   3.454   8.791  11.434  0.2678 -0.2733 -0.3644
  321MOL0     O43258   3.553   8.886  11.458  0.4153 -1.2516  0.2405
  321MOL0     C43259   3.595   8.931  11.590  0.8182  0.7920  0.4304
  321MOL0     C43260   3.734   8.996  11.589 -0.0707 -0.3985 -0.4080
  321MOL0     C43261   3.731   9.130  11.513  0.1179 -0.0149 -0.1601
  321MOL0     C43262   3.856   9.217  11.546 -0.1925 -0.1735 -1.3864
  321MOL0     C43263   3.984   9.151  11.507  0.6542 -0.3739  0.1716
  321MOL0     C43264   4.088   9.101  11.466  0.1303  0.5071  0.1279
  321MOL0     C43265   3.448   8.723  11.309 -0.2893 -0.0070 -0.0276
  321MOL0     C43266   3.336   8.637  11.292  0.0121 -0.2118 -0.3711
  321MOL0     C43267   3.305   8.577  11.160 -0.2334 -0.8840 -0.1287
  321MOL0     H43268   3.011   8.484  11.668  0.4523 -2.4963  4.3656
  321MOL0     H43269   2.789   8.409  11.736 -2.9710 -2.1868 -0.0921
  321MOL0     H43270   2.527   8.231  11.427  3.9781  1.1178  0.3857
  321MOL0     H43271   2.575   8.068  11.474  0.2393  0.0082 -1.3348
  321MOL0     H43272   2.325   8.158  11.483 -0.5006 -2.6099  0.0680
  321MOL0     H43273   2.365   8.229  11.637 -3.6038 -2.0328  1.4658
  321MOL0     H43274   2.486   7.999  11.695 -1.2971  2.1534  3.7525
  321MOL0     H43275   2.377   7.938  11.567  1.6431 -0.2780 -0.3229
  321MOL0     H43276   2.256   8.121  11.776 -1.6498  0.1003 -0.2046
  321MOL0     H43277   2.195   7.975  11.706  0.9626  0.3149 -1.4136
  321MOL0     H43278   2.334   7.828  11.816 -0.9338  0.4158  0.1966
  321MOL0     H43279   2.419   7.970  11.897  0.3031 -2.5755  1.5773
  321MOL0     H43280   2.227   8.037  12.018  0.3168  0.3532 -0.5678
  321MOL0     H43281   2.124   7.925  11.942 -0.8940  0.8888  2.6567
  321MOL0     H43282   2.223   7.870  12.184  1.0892  0.5016  1.0449
  321MOL0     H43283   2.378   7.870  12.117 -0.5542  0.7870  2.8160
  321MOL0     H43284   2.170   7.701  11.975  0.0783  3.3382  0.0368
  321MOL0     H43285   2.342   7.662  11.990 -0.9835 -0.2396  0.2553
  321MOL0     H43286   2.082   7.470  12.074  0.7646 -0.5703 -0.3273
  321MOL0     H43287   2.019   7.292  12.303  0.4971 -0.6507  0.1934
  321MOL0     H43288   2.144   7.213  12.211  0.1144 -1.1375  1.0737
  321MOL0     H43289   2.296   7.223  12.411 -0.3204  2.5425  5.1327
  321MOL0     H43290   2.155   7.272  12.498 -2.9763 -0.4819 -0.0355
  321MOL0     H43291   2.168   7.025  12.538 -2.9733 -5.3593 -1.9294
  321MOL0     H43292   2.248   6.986  12.387 -1.3447 -0.6618 -0.8270
  321MOL0     H43293   2.023   6.897  12.388 -1.2036  0.4495  0.4007
  321MOL0     H43294   2.041   7.008  12.252  1.1193  1.1060  0.1675
  321MOL0     H43295   1.795   7.259  12.557 -3.5334 -0.2201  0.0362
  321MOL0     H43296   1.715   7.235  12.793 -0.1496 -0.5020 -0.6623
  321MOL0     H43297   1.471   6.919  13.079  1.8477  1.9286 -2.9734
  321MOL0     H43298   1.386   6.914  13.319 -2.5831  1.4455 -1.5268
  321MOL0     H43299   1.308   6.983  13.503  0.0965  0.8178 -0.2892
  321MOL0     H43300   1.443   6.891  13.593  1.6106 -0.2731  0.1638
  321MOL0     H43301   1.272   7.127  13.679 -0.2990 -0.8586  0.8320
  321MOL0     H43302   1.273   6.962  13.744  0.9457  0.5687  3.6704
  321MOL0     H43303   1.486   7.194  13.774  0.4363 -0.5761 -0.8734
  321MOL0     H43304   1.384   7.118  13.890  0.0947 -1.7471 -0.0505
  321MOL0     H43305   1.593   6.940  13.750  2.6820  0.8577  1.1314
  321MOL0     H43306   1.513   6.928  13.917 -0.1147 -0.2821  0.6775
  321MOL0     H43307   1.744   6.972  13.961  1.1352  2.2449  3.0603
  321MOL0     H43308   1.645   7.117  13.962 -3.9194 -1.4413 -0.3629
  321MOL0     H43309   1.789   7.021  13.705 -1.6875  0.3050  2.1612
  321MOL0     H43310   1.723   7.175  13.731  0.1745  0.0309 -0.5250
  321MOL0     H43311   1.961   7.082  13.888 -0.6076  1.1604  1.8406
  321MOL0     H43312   1.892   7.244  13.894 -3.0049 -0.3372  1.5028
  321MOL0     H43313   1.988   7.275  13.642  0.7179 -1.6568 -2.1632
  321MOL0     H43314   2.098   7.242  13.762 -0.2621 -0.1931  0.1608
  321MOL0     H43315   1.682   7.214  13.420 -1.8264  0.4614  0.0991
  321MOL0     H43316   1.727   7.237  13.159  1.3768 -2.3459 -1.3404
  321MOL0     H43317   1.853   6.834  12.781 -1.0984  0.8418  1.3594
  321MOL0     H43318   1.954   6.850  12.583  2.3818  1.8003  1.6405
  321MOL0     H43319   2.776   8.135  11.401  3.3055 -1.5899 -0.7046
  321MOL0     H43320   2.994   8.215  11.339  2.0208  1.1377  0.3206
  321MOL0     H43321   3.234   8.596  11.606  0.4301 -1.3741 -0.2831
  321MOL0     H43322   3.388   8.785  11.640 -1.9531  3.1913 -1.2641
  321MOL0     H43323   3.598   8.848  11.661  0.5622  0.1224 -0.3251
  321MOL0     H43324   3.507   8.991  11.614  0.3881  1.4135 -2.3047
  321MOL0     H43325   3.808   8.925  11.551  0.8166  0.8499 -1.0543
  321MOL0     H43326   3.766   9.020  11.691  1.5964 -1.8344 -0.5341
  321MOL0     H43327   3.636   9.179  11.537 -1.4039 -1.7255 -2.3060
  321MOL0     H43328   3.737   9.135  11.404  0.6066  0.9086 -0.1019
  321MOL0     H43329   3.852   9.312  11.491 -2.7366  0.4479 -0.2685
  321MOL0     H43330   3.873   9.221  11.654  1.8207 -0.2300 -1.6513
  321MOL0     H43331   4.161   9.055  11.402 -0.7910  0.3285 -0.8364
  321MOL0     H43332   3.505   8.762  11.226  3.5494 -0.2572  2.2629
  321MOL0     H43333   3.243   8.487  11.166 -0.6574 -0.6630 -1.0384
  321MOL0     H43334   3.259   8.645  11.088 -1.3776  1.8917  2.9091
  321MOL0     H43335   3.400   8.548  11.116 -0.1185 -1.4524  0.4770
  322MOL0     O43336   1.485   9.827   6.054 -0.6919  0.0685 -0.1589
  322MOL0     C43337   1.524   9.752   5.961 -0.1956  0.2844 -0.0241
  322MOL0     O43338   1.457   9.722   5.842 -0.1458 -0.0341 -0.3635
  322MOL0     C43339   1.357   9.804   5.805 -0.1765 -0.1393  0.0259
  322MOL0     C43340   1.368   9.944   5.808  0.3129 -0.2373 -0.3571
  322MOL0     C43341   1.250  10.013   5.777  0.2600 -0.0322 -0.3670
  322MOL0     C43342   1.130   9.953   5.732  0.1222 -0.0759 -0.1214
  322MOL0     O43343   1.031  10.033   5.711  0.2444  0.6464 -0.9939
  322MOL0     C43344   0.905   9.974   5.738  0.8057 -0.0533 -0.5610
  322MOL0     C43345   0.810   9.998   5.617 -0.1392  0.3020  0.3252
  322MOL0     C43346   0.673   9.930   5.633 -0.0441 -0.0077  0.0241
  322MOL0     C43347   0.588   9.964   5.513  0.2161 -0.9190  0.5578
  322MOL0     C43348   0.495  10.082   5.545  0.6101 -0.6918  0.1315
  322MOL0     C43349   0.384  10.088   5.439 -0.0926  0.3315 -0.1285
  322MOL0     C43350   0.278   9.971   5.437  0.5120  0.7387 -0.0849
  322MOL0     C43351   0.191   9.984   5.550 -0.2553  0.0611 -0.4148
  322MOL0     N43352   0.236   9.918   5.671  0.2750 -0.1032  0.0201
  322MOL0     C43353   0.264   9.778   5.681 -0.1673  0.7039 -0.2594
  322MOL0     C43354   0.310   9.756   5.805  0.2348  0.2932  0.4937
  322MOL0     C43355   0.338   9.622   5.868  0.5368 -0.1778  0.0906
  322MOL0     C43356   0.481   9.567   5.848  0.4608 -0.0272  0.0151
  322MOL0     C43357   0.587   9.654   5.916  0.3620 -0.7928  0.2176
  322MOL0     C43358   0.720   9.593   5.917 -0.5585 -0.9550  0.8895
  322MOL0     O43359   0.767   9.575   5.787  0.6561  0.5526 -0.6663
  322MOL0     C43360   0.885   9.502   5.770  0.1105 -0.0512  0.5230
  322MOL0     C43361   0.892   9.444   5.638 -0.1633  0.9527 -0.6168
  322MOL0     C43362   1.012   9.367   5.612 -0.0976 -0.7931  0.3223
  322MOL0     C43363   1.114   9.364   5.707  0.3823  1.3549  0.5366
  322MOL0     C43364   1.241   9.308   5.675  0.0036  0.1191 -0.3605
  322MOL0     O43365   1.240   9.210   5.584 -0.6161 -0.2378 -0.4850
  322MOL0     C43366   1.354   9.193   5.516  0.1073  0.0808 -0.0041
  322MOL0     C43367   1.447   9.103   5.556  0.5357  0.5186  0.6844
  322MOL0     C43368   1.567   9.101   5.490 -1.0969  0.6102  0.1428
  322MOL0     C43369   1.596   9.184   5.383  0.1084  0.1709 -0.1128
  322MOL0     O43370   1.723   9.161   5.337  0.0203  0.2134 -0.3027
  322MOL0     C43371   1.746   9.206   5.198  0.3717  0.8819  0.6044
  322MOL0     C43372   1.867   9.139   5.139 -0.7077  0.0409 -0.0544
  322MOL0     C43373   2.002   9.192   5.192 -1.4246 -0.2147 -0.2687
  322MOL0     C43374   2.139   9.105   5.160  0.2916 -0.1591 -1.2423
  322MOL0     C43375   2.206   9.130   5.025  0.2037 -0.3932 -0.1655
  322MOL0     C43376   2.131   9.085   4.906  0.4267  0.2163  0.1574
  322MOL0     C43377   2.207   9.114   4.770 -0.5096  0.1127 -0.1439
  322MOL0     C43378   2.114   9.086   4.654 -0.3782 -0.0778  1.1267
  322MOL0    Cl43379   2.210   9.117   4.504  0.0568 -0.1529  0.4820
  322MOL0     C43380   1.502   9.273   5.341  0.1743  0.3073  0.7589
  322MOL0     C43381   1.389   9.286   5.408  0.4424 -0.2224 -0.6798
  322MOL0     O43382   1.341   9.365   5.728  0.0298  0.4119  0.2075
  322MOL0     C43383   1.098   9.419   5.831  0.3150 -0.2643  0.3239
  322MOL0     C43384   0.985   9.492   5.868 -0.3221 -0.2656  0.1375
  322MOL0     N43385   0.312   9.881   5.868 -0.6147 -0.4662  0.3969
  322MOL0     N43386   0.266   9.976   5.788  0.6357 -0.0575  0.0597
  322MOL0     C43387   1.135   9.809   5.706 -0.3818  0.5052  0.0134
  322MOL0     C43388   1.249   9.741   5.753  0.6470  0.5393  1.4599
  322MOL0     C43389   1.649   9.672   5.989 -0.1823 -0.1771  0.0877
  322MOL0     C43390   1.677   9.575   5.897  0.4714 -0.9415  0.5895
  322MOL0     C43391   1.780   9.483   5.911  0.3578 -0.2938  0.4199
  322MOL0     C43392   1.870   9.508   6.012 -0.4750  1.0801 -0.1203
  322MOL0     O43393   1.980   9.426   6.034 -0.4843 -0.4715  0.6067
  322MOL0     C43394   2.066   9.408   5.917  0.9374  0.8847  0.3085
  322MOL0     C43395   2.192   9.333   5.964  0.7137  1.2793 -0.3236
  322MOL0     C43396   2.302   9.426   6.014 -0.4502  1.0179  0.5212
  322MOL0     C43397   2.267   9.508   6.143 -0.6972 -0.2214 -0.4368
  322MOL0     C43398   2.376   9.602   6.183 -0.1273  0.0543 -0.0512
  322MOL0     C43399   2.454   9.681   6.228 -0.1101 -0.6554 -0.0845
  322MOL0     C43400   1.856   9.622   6.096  0.2894 -0.2782 -0.5013
  322MOL0     C43401   1.745   9.701   6.093  0.0056  0.7204 -0.4966
  322MOL0     C43402   1.732   9.803   6.199 -0.3945 -0.5944  0.1111
  322MOL0     H43403   1.449   9.999   5.855 -1.7727 -0.1310  3.4861
  322MOL0     H43404   1.242  10.121   5.785 -0.1697 -0.1492  1.1159
  322MOL0     H43405   0.907   9.869   5.767  0.9477  0.6794  2.3661
  322MOL0     H43406   0.860  10.026   5.823 -1.7761  1.5944 -2.7749
  322MOL0     H43407   0.859   9.966   5.525  0.3530  0.1440  0.6346
  322MOL0     H43408   0.787  10.105   5.610  0.9232  0.6112  1.1980
  322MOL0     H43409   0.622   9.959   5.725 -0.1435 -1.4599  0.4627
  322MOL0     H43410   0.685   9.821   5.638 -3.4015 -0.4253  0.9996
  322MOL0     H43411   0.644   9.993   5.423 -3.0412 -2.0762 -2.0576
  322MOL0     H43412   0.539   9.869   5.493 -3.5592  0.3162  2.9857
  322MOL0     H43413   0.451  10.090   5.644  0.2712 -1.1318  0.0186
  322MOL0     H43414   0.555  10.173   5.537 -2.5863  1.5158 -0.4964
  322MOL0     H43415   0.337  10.186   5.446  3.1960  1.9690  1.0236
  322MOL0     H43416   0.431  10.079   5.340  1.3814  0.1650  0.5640
  322MOL0     H43417   0.305   9.866   5.424 -0.4988  0.7858 -3.4821
  322MOL0     H43418   0.220  10.009   5.353  2.2539  2.1407 -0.7053
  322MOL0     H43419   0.158  10.086   5.569  0.3586  0.1969 -0.0473
  322MOL0     H43420   0.095   9.934   5.538 -1.1082  1.6515 -0.4088
  322MOL0     H43421   0.254   9.691   5.617 -1.3057 -2.6151  3.9286
  322MOL0     H43422   0.313   9.620   5.975  1.0838 -1.8801  0.2178
  322MOL0     H43423   0.269   9.552   5.820  1.1678 -0.4907 -0.3767
  322MOL0     H43424   0.486   9.460   5.871  1.3303 -0.4905 -2.1286
  322MOL0     H43425   0.495   9.578   5.740 -0.5866  0.6186 -0.0715
  322MOL0     H43426   0.569   9.671   6.022 -0.3556 -0.9586  0.1306
  322MOL0     H43427   0.590   9.756   5.876  1.6328 -1.2873 -1.0385
  322MOL0     H43428   0.710   9.492   5.960 -0.0488 -0.2246  2.8556
  322MOL0     H43429   0.784   9.648   5.987  0.7015 -1.1007 -0.1162
  322MOL0     H43430   0.809   9.456   5.569 -0.7306  0.7617  0.0320
  322MOL0     H43431   1.025   9.315   5.518 -0.8534  1.5118 -1.1312
  322MOL0     H43432   1.422   9.038   5.639 -2.6391  0.8796  0.1522
  322MOL0     H43433   1.643   9.029   5.520 -1.4943  0.0398 -0.1968
  322MOL0     H43434   1.670   9.173   5.126  3.3746 -2.2446 -1.4774
  322MOL0     H43435   1.768   9.313   5.192 -0.4974  1.0084 -0.5597
  322MOL0     H43436   1.858   9.032   5.161 -4.3849  0.4976  1.5334
  322MOL0     H43437   1.860   9.165   5.033  0.8523  0.8331  0.0192
  322MOL0     H43438   2.018   9.295   5.158  2.5606 -0.7243 -0.3681
  322MOL0     H43439   1.984   9.178   5.299 -1.5088 -3.6772 -0.6514
  322MOL0     H43440   2.101   9.002   5.157  0.1909 -0.2866  1.4212
  322MOL0     H43441   2.211   9.113   5.242 -1.0274 -0.4275 -0.0277
  322MOL0     H43442   2.302   9.078   5.026  0.0006 -0.8379 -1.6302
  322MOL0     H43443   2.210   9.239   5.031 -3.2952  0.0184 -2.4310
  322MOL0     H43444   2.101   8.981   4.918  0.6746  0.1948  0.6191
  322MOL0     H43445   2.031   9.130   4.900 -0.5719 -1.9420 -0.4747
  322MOL0     H43446   2.294   9.049   4.760  0.7892  1.8680 -0.7686
  322MOL0     H43447   2.243   9.217   4.769 -3.5334  1.2682 -0.8043
  322MOL0     H43448   2.064   8.989   4.657  0.3062 -0.4420  1.0690
  322MOL0     H43449   2.032   9.157   4.660  1.3439  1.8929  3.4080
  322MOL0     H43450   1.522   9.338   5.257 -0.8059 -0.4841 -0.1173
  322MOL0     H43451   1.314   9.358   5.377  3.0264  2.8256 -0.3570
  322MOL0     H43452   1.172   9.425   5.910 -0.2719 -4.4689  1.4290
  322MOL0     H43453   0.980   9.545   5.962  2.8642 -0.5007  0.5591
  322MOL0     H43454   1.058   9.751   5.657  2.0415 -2.8153 -0.2020
  322MOL0     H43455   1.260   9.634   5.742  2.6912  0.9661 -2.2699
  322MOL0     H43456   1.605   9.558   5.818 -0.0308  1.8995  0.3496
  322MOL0     H43457   1.791   9.403   5.838  0.6145  0.8883 -0.8932
  322MOL0     H43458   2.094   9.508   5.881  0.3823  1.5528  1.6879
  322MOL0     H43459   2.025   9.355   5.830 -2.0588  1.5539  1.2052
  322MOL0     H43460   2.236   9.272   5.885  0.7924  0.9891 -0.0573
  322MOL0     H43461   2.167   9.266   6.047 -3.2574 -0.8459 -2.9228
  322MOL0     H43462   2.320   9.494   5.930 -1.3945 -0.6599 -1.1285
  322MOL0     H43463   2.396   9.371   6.030  0.2337  2.4346  1.5114
  322MOL0     H43464   2.179   9.572   6.126  0.3130  0.2811 -4.9597
  322MOL0     H43465   2.246   9.444   6.229 -2.1276  1.9170  0.8939
  322MOL0     H43466   2.535   9.744   6.259 -0.2309 -0.8824  0.7323
  322MOL0     H43467   1.929   9.649   6.172 -0.6871  2.8965 -0.5379
  322MOL0     H43468   1.829   9.814   6.248 -1.5390 -0.9942  2.6632
  322MOL0     H43469   1.698   9.893   6.148 -1.7559 -3.6329 -5.1390
  322MOL0     H43470   1.658   9.759   6.268 -1.0272  0.2864  0.0072
  323MOL0     O43471   5.504   1.824   9.330  0.0478  0.1524 -0.0688
  323MOL0     C43472   5.514   1.721   9.399  0.3411 -0.6649 -0.2175
  323MOL0     O43473   5.619   1.691   9.487 -0.1602 -0.3785 -0.1797
  323MOL0     C43474   5.724   1.767   9.490 -1.0912 -0.8176  0.3474
  323MOL0     C43475   5.774   1.805   9.616  0.2338 -0.6756  0.5128
  323MOL0     C43476   5.895   1.873   9.635  1.0005 -0.4157  0.2468
  323MOL0     C43477   5.972   1.898   9.516  0.2800  0.5851 -0.4919
  323MOL0     O43478   6.095   1.949   9.544  0.4660 -0.3686  0.6815
  323MOL0     C43479   6.197   1.936   9.435 -0.0254  0.1400 -0.4995
  323MOL0     C43480   6.211   2.074   9.370 -0.7311 -0.7137 -0.9271
  323MOL0     C43481   6.330   2.076   9.269 -0.6310  0.1235 -0.1518
  323MOL0     C43482   6.347   2.217   9.214 -0.5174 -0.4653 -0.4265
  323MOL0     C43483   6.469   2.211   9.126 -0.2929 -0.7241 -0.5407
  323MOL0     C43484   6.540   2.346   9.103  0.5069 -0.3135  0.7752
  323MOL0     C43485   6.445   2.464   9.085 -0.1930  0.1283  0.5783
  323MOL0     C43486   6.333   2.446   8.970 -1.1992 -0.5776  0.0314
  323MOL0     N43487   6.266   2.573   8.951  0.3463  0.0679 -0.0191
  323MOL0     C43488   6.338   2.692   8.919  0.1593 -0.5780 -0.7208
  323MOL0     C43489   6.254   2.789   8.896 -0.4816  0.2512  0.3622
  323MOL0     C43490   6.266   2.937   8.860 -0.4017  0.1609  0.3446
  323MOL0     C43491   6.336   2.954   8.720 -0.3323  0.1032  0.6213
  323MOL0     C43492   6.253   2.904   8.600 -0.4684 -0.5258  0.4741
  323MOL0     C43493   6.330   2.907   8.466 -0.0646  0.4554 -0.7012
  323MOL0     O43494   6.450   2.840   8.485 -0.4283 -0.0620 -0.2210
  323MOL0     C43495   6.539   2.838   8.379 -0.2651 -0.2836 -0.0095
  323MOL0     C43496   6.509   2.851   8.244 -0.0175  0.0019 -0.1616
  323MOL0     C43497   6.606   2.835   8.147 -0.9017  0.4252 -0.4820
  323MOL0     C43498   6.736   2.811   8.176 -0.1953  0.0577 -1.1252
  323MOL0     C43499   6.846   2.801   8.076 -0.3296  0.5202  0.2872
  323MOL0     O43500   6.970   2.782   8.114 -0.6488  0.4731 -0.1252
  323MOL0     C43501   7.056   2.759   8.004 -0.6119  0.5054 -0.1388
  323MOL0     C43502   7.105   2.626   7.978 -0.3003  0.1889  0.4645
  323MOL0     C43503   7.219   2.602   7.896  0.2137  0.4445  0.7676
  323MOL0     C43504   7.271   2.709   7.819  0.0886  0.3279  0.6836
  323MOL0     O43505   7.374   2.704   7.719  0.1374  0.0504  0.0616
  323MOL0     C43506   7.435   2.581   7.683 -0.2082 -0.1019 -0.4737
  323MOL0     C43507   7.561   2.608   7.599  0.2102 -0.0126 -0.0732
  323MOL0     C43508   7.682   2.650   7.688 -0.4351 -0.3617 -0.4155
  323MOL0     C43509   7.829   2.619   7.634  0.5860  0.0609  0.4189
  323MOL0     C43510   7.927   2.666   7.745 -0.3735 -0.2848  0.0619
  323MOL0     C43511   8.071   2.638   7.709 -0.5210 -0.3534  0.5864
  323MOL0     C43512   8.163   2.672   7.829 -0.8595 -0.5766 -0.4364
  323MOL0     C43513   8.307   2.704   7.792  0.2595  0.0552  0.1323
  323MOL0    Cl43514   8.366   2.610   7.652 -0.2845 -0.3421  0.0782
  323MOL0     C43515   7.217   2.839   7.846 -1.2313  1.2306  0.2798
  323MOL0     C43516   7.115   2.860   7.936 -0.6913 -0.3451  0.1414
  323MOL0     O43517   6.809   2.813   7.961 -0.6305  0.8899 -0.2784
  323MOL0     C43518   6.775   2.816   8.313  0.0535 -0.2077  0.8826
  323MOL0     C43519   6.676   2.824   8.412  1.2716 -1.0072  0.5385
  323MOL0     N43520   6.129   2.733   8.923  0.3471  0.1112 -0.0006
  323MOL0     N43521   6.135   2.608   8.940  0.2721  0.2614  0.1987
  323MOL0     C43522   5.926   1.866   9.383  0.0846 -0.1542 -0.1059
  323MOL0     C43523   5.803   1.797   9.376  0.1267 -0.3973  0.1303
  323MOL0     C43524   5.410   1.613   9.383  0.3003  0.1304  0.9496
  323MOL0     C43525   5.457   1.488   9.426  0.0394 -0.6053  0.6084
  323MOL0     C43526   5.381   1.374   9.421  0.3592 -0.3220  0.0063
  323MOL0     C43527   5.245   1.385   9.382 -0.4906 -0.1076  0.8707
  323MOL0     O43528   5.172   1.271   9.393 -0.2067  0.2446  0.5413
  323MOL0     C43529   5.041   1.309   9.438  0.7341 -0.5876 -0.1343
  323MOL0     C43530   4.984   1.209   9.536  0.3491  0.4341  0.5337
  323MOL0     C43531   5.054   1.206   9.676 -0.0130  0.6130 -0.7071
  323MOL0     C43532   5.180   1.119   9.677  0.4110 -0.1090  0.2488
  323MOL0     C43533   5.225   1.082   9.810  0.0097 -0.6860 -0.1533
  323MOL0     C43534   5.268   1.045   9.917  0.2826  0.4255 -0.1394
  323MOL0     C43535   5.188   1.504   9.329  0.1525  0.0596  0.2322
  323MOL0     C43536   5.276   1.619   9.321  0.1969  0.3081 -0.8591
  323MOL0     C43537   5.203   1.744   9.273 -0.0261  0.0701  0.1814
  323MOL0     H43538   5.725   1.785   9.711  1.9699  0.5153  1.7266
  323MOL0     H43539   5.926   1.895   9.736  4.6929  3.7132 -1.4987
  323MOL0     H43540   6.287   1.900   9.486  1.8459  3.2586 -1.3651
  323MOL0     H43541   6.176   1.858   9.360  1.1192  0.1709 -0.8780
  323MOL0     H43542   6.231   2.139   9.456  1.7570 -0.5433 -1.5556
  323MOL0     H43543   6.119   2.108   9.322 -1.0798  0.8460  0.7392
  323MOL0     H43544   6.312   2.002   9.190 -0.9704  1.7336 -1.6393
  323MOL0     H43545   6.419   2.045   9.325 -1.5929 -0.7945  0.9389
  323MOL0     H43546   6.257   2.248   9.160  0.5734 -0.4489 -2.3478
  323MOL0     H43547   6.371   2.281   9.300  0.7954  0.2632 -1.2958
  323MOL0     H43548   6.555   2.153   9.163  1.4712  1.5703 -0.7768
  323MOL0     H43549   6.442   2.165   9.030  2.3379  0.7423 -2.1129
  323MOL0     H43550   6.606   2.370   9.187 -2.1980  1.9100  2.4448
  323MOL0     H43551   6.604   2.351   9.014 -0.8930 -1.2630 -0.3261
  323MOL0     H43552   6.505   2.554   9.066  0.5261  0.2527  3.0392
  323MOL0     H43553   6.397   2.486   9.181 -0.5826  1.7106  0.0441
  323MOL0     H43554   6.380   2.418   8.875  1.5086 -2.4565  1.7806
  323MOL0     H43555   6.258   2.374   9.003 -1.0286 -0.5868  0.3926
  323MOL0     H43556   6.444   2.702   8.900  0.2860  0.0659  0.2524
  323MOL0     H43557   6.169   2.986   8.863 -0.8178 -0.5198 -1.0136
  323MOL0     H43558   6.334   2.984   8.932  1.5297 -0.0731 -1.2014
  323MOL0     H43559   6.368   3.057   8.700  1.6604 -0.6885 -0.5114
  323MOL0     H43560   6.428   2.896   8.726 -1.3404 -1.7722 -0.8890
  323MOL0     H43561   6.161   2.961   8.585  1.6428  2.4713 -2.8929
  323MOL0     H43562   6.235   2.799   8.624 -0.9077 -1.0900 -2.0267
  323MOL0     H43563   6.358   3.008   8.433  2.9853 -0.5330 -1.5140
  323MOL0     H43564   6.275   2.867   8.380 -2.4489 -3.2821  2.2923
  323MOL0     H43565   6.411   2.877   8.206  0.0946  2.8714  1.2585
  323MOL0     H43566   6.574   2.819   8.045  0.7703 -5.5140 -0.4396
  323MOL0     H43567   7.050   2.539   8.012 -0.6157 -1.0405 -2.8374
  323MOL0     H43568   7.263   2.503   7.889 -0.0071  0.3518  0.6814
  323MOL0     H43569   7.455   2.522   7.773 -1.1564 -0.0216 -0.2077
  323MOL0     H43570   7.365   2.519   7.626 -1.1555  0.1556  0.3868
  323MOL0     H43571   7.594   2.521   7.541 -2.1733 -1.7379  1.0133
  323MOL0     H43572   7.536   2.686   7.526 -2.1223 -0.7070 -0.0941
  323MOL0     H43573   7.691   2.758   7.707  0.6594 -0.6707  1.1090
  323MOL0     H43574   7.685   2.605   7.788  1.5806 -0.3842 -0.4454
  323MOL0     H43575   7.847   2.672   7.540  1.3049 -0.9998 -0.0541
  323MOL0     H43576   7.854   2.513   7.628  2.5049  0.5518 -0.8916
  323MOL0     H43577   7.905   2.627   7.845  0.1722 -1.6965 -0.3571
  323MOL0     H43578   7.917   2.775   7.756  1.9257 -0.2171  2.4892
  323MOL0     H43579   8.078   2.532   7.686 -2.6705 -1.1712  3.1646
  323MOL0     H43580   8.094   2.694   7.618 -1.0813  0.3935  0.8872
  323MOL0     H43581   8.152   2.587   7.896 -3.0031  0.2595  0.3838
  323MOL0     H43582   8.115   2.758   7.877 -0.4504 -0.6703  0.1515
  323MOL0     H43583   8.321   2.809   7.763  0.7249  0.1848  0.8064
  323MOL0     H43584   8.370   2.698   7.881 -0.4519  2.0790  0.8464
  323MOL0     H43585   7.267   2.917   7.788  0.8585  1.0181  1.6920
  323MOL0     H43586   7.078   2.961   7.954 -0.6739  0.2431 -2.6749
  323MOL0     H43587   6.879   2.794   8.332  0.0841 -2.6949 -1.4114
  323MOL0     H43588   6.707   2.822   8.516  0.8186 -0.4630  0.6908
  323MOL0     H43589   5.980   1.901   9.296  0.4834  0.3193  0.3260
  323MOL0     H43590   5.753   1.770   9.284  0.5964  0.5002 -0.3978
  323MOL0     H43591   5.557   1.478   9.466  0.8934  2.0112 -0.7096
  323MOL0     H43592   5.429   1.287   9.464  0.9776 -0.0177 -0.0637
  323MOL0     H43593   4.982   1.307   9.346 -1.3244  1.9393  0.9919
  323MOL0     H43594   5.040   1.407   9.487  3.0879  0.0964 -1.3065
  323MOL0     H43595   4.973   1.110   9.490 -2.5675  0.5257  0.8238
  323MOL0     H43596   4.882   1.244   9.551  0.3709 -0.1063  2.0285
  323MOL0     H43597   4.991   1.161   9.752 -1.4845  3.3938 -0.1355
  323MOL0     H43598   5.085   1.310   9.693 -2.2529  1.2019  0.1588
  323MOL0     H43599   5.165   1.028   9.618 -3.6897  1.1639 -0.9999
  323MOL0     H43600   5.247   1.187   9.623 -0.6313 -0.0619 -1.0437
  323MOL0     H43601   5.290   1.015  10.018 -0.4823 -1.3548 -0.4551
  323MOL0     H43602   5.088   1.511   9.287 -0.2927 -0.8949  1.0969
  323MOL0     H43603   5.173   1.820   9.345 -3.6415  1.6611 -2.6823
  323MOL0     H43604   5.266   1.800   9.203  1.9402  0.5936  2.2650
  323MOL0     H43605   5.110   1.714   9.222  0.9233 -0.6143 -1.2210
  324MOL0     O43606   8.113   6.095   5.720  0.4162 -0.5199 -0.5498
  324MOL0     C43607   8.064   6.162   5.813  0.0977  0.7547 -0.2812
  324MOL0     O43608   8.129   6.255   5.889  0.1705  0.5981 -0.7252
  324MOL0     C43609   8.259   6.284   5.857 -0.1832  0.5834  0.0475
  324MOL0     C43610   8.295   6.408   5.814 -0.7570 -0.6361 -0.2456
  324MOL0     C43611   8.435   6.422   5.771  0.5732 -0.2064 -0.2919
  324MOL0     C43612   8.532   6.323   5.779  0.0875 -0.3833 -0.6247
  324MOL0     O43613   8.660   6.331   5.742 -0.7540 -0.2523  0.9677
  324MOL0     C43614   8.715   6.450   5.687 -0.1311 -0.3103  0.6005
  324MOL0     C43615   8.754   6.545   5.804 -0.8667 -0.8991  0.2765
  324MOL0     C43616   8.898   6.510   5.856  0.5312  0.7543  0.6357
  324MOL0     C43617   9.000   6.560   5.755  0.8340  0.1992  0.0745
  324MOL0     C43618   9.150   6.564   5.794  0.2153  0.0926 -0.0352
  324MOL0     C43619   9.223   6.690   5.731 -0.0424 -0.3597  0.8171
  324MOL0     C43620   9.370   6.692   5.719  0.0637  0.6927 -0.1135
  324MOL0     C43621   9.430   6.808   5.630  0.0773 -0.2103 -0.9171
  324MOL0     N43622   9.574   6.803   5.628 -0.5280  0.3316  0.0930
  324MOL0     C43623   9.675   6.891   5.676 -0.9070  0.1515  0.0461
  324MOL0     C43624   9.794   6.831   5.653 -0.3676 -0.3272  0.3897
  324MOL0     C43625   9.939   6.866   5.689 -0.1337  0.1316 -0.5628
  324MOL0     C43626   9.961   6.852   5.846  0.2124  0.4832  0.0958
  324MOL0     C43627   9.947   6.713   5.907  0.5022 -0.0466  0.4730
  324MOL0     C43628  10.030   6.605   5.833  0.5281 -0.3236  0.6696
  324MOL0     O43629  10.035   6.484   5.907 -0.7243 -0.0278 -0.7637
  324MOL0     C43630  10.135   6.470   6.004 -1.0409 -0.0960 -0.9029
  324MOL0     C43631  10.204   6.577   6.060  0.7227 -0.3617  0.0596
  324MOL0     C43632  10.305   6.552   6.159  0.0870 -0.3632  0.4030
  324MOL0     C43633  10.351   6.426   6.187 -0.1886 -1.0389  0.2824
  324MOL0     C43634  10.465   6.400   6.277  0.3713  0.4270  0.1924
  324MOL0     O43635  10.529   6.514   6.333  0.4756  0.3175 -0.4906
  324MOL0     C43636  10.603   6.492   6.444 -0.5266  0.3982  0.1437
  324MOL0     C43637  10.748   6.491   6.429  0.0218 -0.2510  1.2094
  324MOL0     C43638  10.833   6.490   6.537  0.1566  0.1446  0.3095
  324MOL0     C43639  10.782   6.480   6.667  0.4057  0.9147 -0.1107
  324MOL0     O43640  10.858   6.498   6.783 -0.0970  0.8073  0.1586
  324MOL0     C43641  10.999   6.482   6.762 -0.3147 -1.1598 -0.2995
  324MOL0     C43642  11.076   6.458   6.891 -0.3560  0.5477  0.1526
  324MOL0     C43643  11.227   6.430   6.863  0.6939  0.9333 -0.4613
  324MOL0     C43644  11.310   6.414   6.993 -0.2676  0.4148 -0.1083
  324MOL0     C43645  11.456   6.375   6.958  0.0704  0.0715 -0.8755
  324MOL0     C43646  11.540   6.323   7.074 -1.4385  1.2434  0.0280
  324MOL0     C43647  11.679   6.266   7.034 -0.1547 -0.5614 -1.4493
  324MOL0     C43648  11.769   6.213   7.155  0.2928 -0.2857  0.7318
  324MOL0    Cl43649  11.697   6.063   7.224  0.1363  0.2214 -0.2434
  324MOL0     C43650  10.638   6.475   6.679 -0.9519  0.7941 -0.1969
  324MOL0     C43651  10.552   6.481   6.572  0.0283  0.3325  0.9019
  324MOL0     O43652  10.489   6.278   6.295  0.5335 -0.8467 -0.5692
  324MOL0     C43653  10.277   6.324   6.133 -0.6697 -0.0943 -0.2516
  324MOL0     C43654  10.170   6.342   6.046  0.8657  0.1308 -0.8483
  324MOL0     N43655   9.771   6.731   5.559 -0.8029  0.5251  0.2908
  324MOL0     N43656   9.638   6.720   5.541 -0.2864 -0.3371  0.0369
  324MOL0     C43657   8.495   6.201   5.846 -0.8405  0.2800  0.1599
  324MOL0     C43658   8.355   6.186   5.882 -0.1765  0.9800 -0.5963
  324MOL0     C43659   7.925   6.110   5.840 -0.6140 -0.7782  0.0148
  324MOL0     C43660   7.889   6.081   5.972 -0.7035 -0.0459  0.5767
  324MOL0     C43661   7.760   6.040   6.012 -0.2298 -0.1430 -0.2743
  324MOL0     C43662   7.662   6.022   5.918 -0.3518 -0.8133  0.4214
  324MOL0     O43663   7.544   5.977   5.960 -0.3285  0.0312  0.3274
  324MOL0     C43664   7.454   6.088   5.956  0.1374 -0.2915 -0.0556
  324MOL0     C43665   7.330   6.047   6.036 -0.4387  0.6320  0.2815
  324MOL0     C43666   7.231   6.152   6.056 -0.5333 -0.1585 -0.6504
  324MOL0     C43667   7.103   6.084   6.117  0.1011 -0.4173  0.6378
  324MOL0     C43668   7.011   6.195   6.155 -0.1938 -0.5432 -0.2559
  324MOL0     C43669   6.937   6.282   6.198  0.2244  0.7274 -0.1770
  324MOL0     C43670   7.693   6.046   5.780  0.7114  0.8044  0.1243
  324MOL0     C43671   7.824   6.094   5.743  0.3039  0.0563  0.6647
  324MOL0     C43672   7.851   6.132   5.597 -0.0540  0.1761  0.0530
  324MOL0     H43673   8.252   6.508   5.814  4.1489  1.7805 -1.4936
  324MOL0     H43674   8.457   6.524   5.740 -4.1322  0.6500 -1.6332
  324MOL0     H43675   8.803   6.433   5.624 -1.3068  5.0954 -3.2262
  324MOL0     H43676   8.641   6.487   5.615  0.5449 -1.5553 -0.7951
  324MOL0     H43677   8.675   6.541   5.880 -2.9750 -4.7320 -1.7973
  324MOL0     H43678   8.757   6.648   5.771  0.1161  0.2901  3.6321
  324MOL0     H43679   8.902   6.401   5.870  0.4945  0.7981  1.0015
  324MOL0     H43680   8.919   6.555   5.954  0.2671 -1.2668  1.6721
  324MOL0     H43681   8.999   6.517   5.655  3.1668  3.2562 -1.4459
  324MOL0     H43682   8.976   6.663   5.726  1.4710 -0.2222 -2.1337
  324MOL0     H43683   9.166   6.576   5.901  3.2917 -1.9613 -0.1438
  324MOL0     H43684   9.193   6.468   5.763  1.2489 -0.0666  1.7948
  324MOL0     H43685   9.189   6.681   5.627  2.7747 -1.0483 -0.1368
  324MOL0     H43686   9.187   6.785   5.773  1.5635 -0.1124  1.7079
  324MOL0     H43687   9.394   6.597   5.671 -2.6237 -0.7107  1.1247
  324MOL0     H43688   9.414   6.691   5.819 -2.0983 -1.8698  0.9405
  324MOL0     H43689   9.397   6.793   5.527 -0.7541  0.3957 -0.7525
  324MOL0     H43690   9.386   6.903   5.663 -0.5337 -2.0700  4.6427
  324MOL0     H43691   9.660   6.984   5.729  1.4158 -0.4503  1.9681
  324MOL0     H43692  10.005   6.794   5.638 -1.4587 -1.7757  0.3032
  324MOL0     H43693   9.966   6.967   5.658 -0.5151 -0.2124 -2.0868
  324MOL0     H43694  10.067   6.876   5.863  0.0702  1.3876 -0.2245
  324MOL0     H43695   9.897   6.920   5.904  0.4292  1.3888 -0.7026
  324MOL0     H43696   9.845   6.675   5.917 -0.1180  1.2833 -0.5646
  324MOL0     H43697   9.989   6.721   6.008  1.9447 -1.4953  0.0331
  324MOL0     H43698  10.131   6.637   5.807 -0.2555  0.6766 -1.4465
  324MOL0     H43699   9.987   6.591   5.733 -0.4961 -0.2807  1.0937
  324MOL0     H43700  10.176   6.676   6.027  1.3251 -0.8593 -2.0693
  324MOL0     H43701  10.350   6.639   6.206  1.2454 -0.8134  0.1644
  324MOL0     H43702  10.787   6.507   6.329 -0.4486  1.2628  1.2436
  324MOL0     H43703  10.934   6.510   6.502 -0.0985  0.2474 -0.3780
  324MOL0     H43704  11.011   6.398   6.693 -0.9579 -0.8790 -0.7667
  324MOL0     H43705  11.028   6.574   6.712  0.3126 -1.0468  0.2612
  324MOL0     H43706  11.067   6.533   6.969  1.5424  0.5388  0.4103
  324MOL0     H43707  11.023   6.371   6.932 -3.2157  1.0318 -2.1997
  324MOL0     H43708  11.237   6.337   6.806  2.1170 -0.3879  1.7966
  324MOL0     H43709  11.273   6.506   6.800  3.8326 -0.8184 -0.4943
  324MOL0     H43710  11.276   6.327   7.050  0.7165  0.0777 -0.0033
  324MOL0     H43711  11.307   6.499   7.062  2.1244  0.8035 -0.3893
  324MOL0     H43712  11.508   6.454   6.903  0.3465  0.5942  0.0951
  324MOL0     H43713  11.461   6.289   6.891  2.2008 -0.6742  0.1257
  324MOL0     H43714  11.562   6.398   7.150  1.4110  0.4086  0.1452
  324MOL0     H43715  11.487   6.242   7.125  0.3091 -0.5111 -0.7938
  324MOL0     H43716  11.743   6.337   6.981  0.3800 -1.1427 -1.5920
  324MOL0     H43717  11.651   6.180   6.972 -2.5387 -0.0140 -1.2282
  324MOL0     H43718  11.874   6.196   7.129  0.5805 -2.2317  2.8384
  324MOL0     H43719  11.770   6.282   7.240 -1.2654 -0.0663  0.6033
  324MOL0     H43720  10.597   6.476   6.780  1.6322  2.2055  0.9448
  324MOL0     H43721  10.446   6.487   6.591  0.0781  3.4780  0.7199
  324MOL0     H43722  10.299   6.221   6.160 -1.1035 -0.9898 -3.0193
  324MOL0     H43723  10.115   6.255   6.011  3.7367 -2.3012  0.1469
  324MOL0     H43724   8.581   6.139   5.871 -0.3046 -0.2928 -2.8000
  324MOL0     H43725   8.343   6.093   5.937 -0.4837  0.2284 -1.8740
  324MOL0     H43726   7.966   6.104   6.045 -1.0240  0.5003  0.7537
  324MOL0     H43727   7.740   6.013   6.115  1.8152 -2.4851 -0.3909
  324MOL0     H43728   7.427   6.099   5.851  0.8984 -2.9542 -0.6105
  324MOL0     H43729   7.492   6.181   5.999 -1.2206 -0.4240  1.5049
  324MOL0     H43730   7.357   6.002   6.132  0.2655 -2.9694 -1.4381
  324MOL0     H43731   7.280   5.964   5.986 -1.3450 -0.3275  2.6314
  324MOL0     H43732   7.211   6.197   5.959 -0.7075  0.5610 -0.2841
  324MOL0     H43733   7.277   6.222   6.126 -0.3468 -0.0382 -0.8920
  324MOL0     H43734   7.062   6.012   6.046  0.5129  0.6637 -0.7649
  324MOL0     H43735   7.116   6.027   6.209 -0.0441 -1.5697 -0.0461
  324MOL0     H43736   6.876   6.360   6.238 -0.5209  0.7555 -1.3351
  324MOL0     H43737   7.625   6.032   5.697 -1.2361 -0.1328  1.7985
  324MOL0     H43738   7.916   6.055   5.553 -2.2775 -1.4799 -0.5545
  324MOL0     H43739   7.763   6.137   5.531 -1.2640  0.4849  1.6319
  324MOL0     H43740   7.910   6.223   5.592 -0.4531  0.3942 -0.9368
  325MOL0     O43741  11.076   3.307   8.051 -0.5078  0.2304  0.4498
  325MOL0     C43742  11.051   3.327   7.932  0.2606  0.0412 -0.0099
  325MOL0     O43743  11.022   3.235   7.845  0.1567 -0.0964 -0.0693
  325MOL0     C43744  11.066   3.102   7.878  0.2425 -1.1284 -0.0662
  325MOL0     C43745  11.201   3.086   7.869  0.1181  0.6246  0.9833
  325MOL0     C43746  11.260   2.964   7.900 -0.8689  1.1850 -0.4354
  325MOL0     C43747  11.179   2.847   7.928  0.2977 -0.5051 -0.2126
  325MOL0     O43748  11.216   2.719   7.955  0.2476 -0.5704 -0.0183
  325MOL0     C43749  11.301   2.656   7.855 -0.7746 -0.2301 -0.6921
  325MOL0     C43750  11.417   2.578   7.922 -0.1192 -0.0472 -0.1119
  325MOL0     C43751  11.497   2.671   8.013 -0.2277  0.0011  0.2557
  325MOL0     C43752  11.619   2.587   8.079  0.7453  0.3593 -0.4356
  325MOL0     C43753  11.700   2.688   8.159 -0.1965 -0.2042 -0.1402
  325MOL0     C43754  11.825   2.642   8.223 -0.4330  0.4052 -0.9940
  325MOL0     C43755  11.812   2.522   8.315 -1.1788 -0.1972  0.6992
  325MOL0     C43756  11.954   2.465   8.338  0.3360  0.6502  0.0991
  325MOL0     N43757  11.957   2.352   8.429  0.4282  0.1098  0.6010
  325MOL0     C43758  11.872   2.240   8.430 -0.5361 -0.3463  1.0526
  325MOL0     C43759  11.930   2.159   8.513 -0.0728 -0.0847 -0.3709
  325MOL0     C43760  11.885   2.018   8.541 -0.2734  0.6935  0.5372
  325MOL0     C43761  11.800   2.015   8.667  0.1278  0.3852 -0.0071
  325MOL0     C43762  11.699   1.893   8.671  0.3950 -0.0323 -0.4204
  325MOL0     C43763  11.749   1.761   8.713  0.8898 -0.6053  0.3825
  325MOL0     O43764  11.760   1.767   8.861 -0.2689 -0.1558  0.2257
  325MOL0     C43765  11.869   1.693   8.901  0.1713  0.0080  0.4150
  325MOL0     C43766  11.989   1.753   8.948 -0.0686  0.6248  0.7156
  325MOL0     C43767  12.106   1.673   8.972  0.4357 -0.5294 -0.0205
  325MOL0     C43768  12.106   1.538   8.937 -0.4351 -0.0593 -0.4301
  325MOL0     C43769  12.229   1.460   8.944  0.7551  0.8744 -0.1816
  325MOL0     O43770  12.252   1.349   8.862  0.2176 -0.5331 -0.5921
  325MOL0     C43771  12.380   1.299   8.853  0.4347 -0.2356 -1.0653
  325MOL0     C43772  12.428   1.214   8.952 -0.3471 -0.3323  0.4466
  325MOL0     C43773  12.562   1.174   8.972 -0.4925  0.1339  1.0430
  325MOL0     C43774  12.648   1.225   8.867  0.0874 -0.3619  0.1459
  325MOL0     O43775  12.787   1.206   8.875 -0.1541  0.4811 -0.4219
  325MOL0     C43776  12.844   1.123   8.971 -0.4391  0.3441 -0.4807
  325MOL0     C43777  12.999   1.145   8.961  0.5383 -0.0042  0.7886
  325MOL0     C43778  13.068   1.120   9.092 -0.0413 -0.4368  0.3496
  325MOL0     C43779  13.099   0.973   9.095 -0.4436  0.1922 -0.1561
  325MOL0     C43780  13.133   0.938   9.240  0.4426  0.0576 -0.1447
  325MOL0     C43781  13.186   0.791   9.242 -0.0751  0.5040  0.1346
  325MOL0     C43782  13.244   0.764   9.381  0.3673 -0.9870  1.1352
  325MOL0     C43783  13.364   0.658   9.362 -0.4463  0.6903 -0.1327
  325MOL0    Cl43784  13.299   0.516   9.267 -0.0991  0.8078  0.1166
  325MOL0     C43785  12.602   1.327   8.778  0.8642  0.1879  0.2022
  325MOL0     C43786  12.468   1.359   8.764  0.0796  0.0470 -0.6018
  325MOL0     O43787  12.309   1.502   9.027 -0.4254 -0.4138 -0.4064
  325MOL0     C43788  11.984   1.477   8.905  0.5089 -0.5239 -0.4975
  325MOL0     C43789  11.872   1.558   8.871 -0.3226  0.0445  0.3578
  325MOL0     N43790  12.036   2.217   8.576  1.4446  0.2272  0.0417
  325MOL0     N43791  12.051   2.330   8.519  0.1621 -0.1321 -0.3653
  325MOL0     C43792  11.036   2.866   7.934 -0.4435  1.1394  0.2336
  325MOL0     C43793  10.984   2.993   7.913  0.3957 -0.6074  1.0687
  325MOL0     C43794  11.031   3.470   7.893  0.6292  0.0620 -0.9181
  325MOL0     C43795  10.956   3.497   7.771 -0.0347 -0.5347  0.2360
  325MOL0     C43796  10.907   3.625   7.738 -0.8495  0.8376  0.6105
  325MOL0     C43797  10.942   3.733   7.825  0.2065 -0.3229  0.8203
  325MOL0     O43798  10.915   3.863   7.791 -0.3297  0.4332 -0.0351
  325MOL0     C43799  10.831   3.910   7.685 -0.2806  0.3324 -0.0691
  325MOL0     C43800  10.905   3.970   7.567 -0.1573 -0.1292  0.4604
  325MOL0     C43801  10.987   4.097   7.614  0.3869 -0.0756  0.7936
  325MOL0     C43802  11.068   4.169   7.504  0.7248  0.1175  0.1194
  325MOL0     C43803  11.181   4.078   7.466  0.1432 -0.4545 -0.4789
  325MOL0     C43804  11.268   4.001   7.444 -0.7687 -0.9321  0.2871
  325MOL0     C43805  11.028   3.717   7.934  0.3615 -0.5189  0.6057
  325MOL0     C43806  11.082   3.589   7.958 -0.6499 -0.1551 -1.0139
  325MOL0     C43807  11.185   3.579   8.059 -0.4254  0.9533 -0.8307
  325MOL0     H43808  11.253   3.169   7.822 -0.4190 -0.8957 -2.6589
  325MOL0     H43809  11.364   2.948   7.875  0.2081  2.6681  2.6712
  325MOL0     H43810  11.254   2.585   7.787  0.4924 -0.3765 -1.4426
  325MOL0     H43811  11.343   2.736   7.794  2.4852  0.3867  2.0587
  325MOL0     H43812  11.491   2.545   7.849  1.8224  3.3972  0.0986
  325MOL0     H43813  11.378   2.494   7.980  0.4697 -1.3524 -1.5123
  325MOL0     H43814  11.432   2.716   8.090  0.1821 -0.8905  1.1450
  325MOL0     H43815  11.546   2.742   7.946 -0.1680 -0.9776 -0.7577
  325MOL0     H43816  11.573   2.508   8.138  2.1169 -1.5511 -1.7930
  325MOL0     H43817  11.690   2.549   8.005  1.4408  0.9885 -0.1028
  325MOL0     H43818  11.731   2.766   8.089  1.1933 -1.4879 -1.0131
  325MOL0     H43819  11.632   2.718   8.240  2.7579  0.6046  2.2309
  325MOL0     H43820  11.888   2.618   8.137  2.0172  2.4944  0.0655
  325MOL0     H43821  11.876   2.725   8.274 -1.2389 -1.0187  2.3791
  325MOL0     H43822  11.756   2.446   8.260  0.1253 -0.0217 -0.9377
  325MOL0     H43823  11.756   2.545   8.406 -1.5337  1.6533  0.0781
  325MOL0     H43824  11.982   2.417   8.244  2.1007 -0.3089  1.0649
  325MOL0     H43825  12.023   2.544   8.369 -1.1404  1.3438  1.8121
  325MOL0     H43826  11.788   2.214   8.367  0.6511  0.7283 -1.1051
  325MOL0     H43827  11.822   1.982   8.459  1.6106  0.2281 -0.7577
  325MOL0     H43828  11.970   1.953   8.564 -1.5997 -0.7968  1.3840
  325MOL0     H43829  11.867   2.010   8.754  3.2559  1.8638 -2.1398
  325MOL0     H43830  11.743   2.107   8.685 -0.0810  0.1008  0.8651
  325MOL0     H43831  11.641   1.889   8.579 -0.0355  1.7395 -0.2714
  325MOL0     H43832  11.627   1.927   8.747  0.5142  0.5346 -0.5563
  325MOL0     H43833  11.841   1.735   8.660  1.5820 -0.7926  1.6228
  325MOL0     H43834  11.678   1.683   8.685 -0.2615 -0.0262  1.5892
  325MOL0     H43835  11.980   1.861   8.956 -1.5657  0.4026  2.9539
  325MOL0     H43836  12.200   1.718   9.002  0.0445 -0.6158  1.4251
  325MOL0     H43837  12.376   1.172   9.037 -2.8853  4.7725  1.8385
  325MOL0     H43838  12.585   1.104   9.052 -0.7426 -1.6449 -0.3664
  325MOL0     H43839  12.809   1.161   9.067 -0.5801 -0.6714 -0.1236
  325MOL0     H43840  12.825   1.017   8.954  2.6674 -0.0021 -2.6209
  325MOL0     H43841  13.039   1.085   8.878 -1.7714  0.6088 -0.8586
  325MOL0     H43842  13.023   1.250   8.939  0.0850 -0.0668 -0.0454
  325MOL0     H43843  13.165   1.171   9.094 -0.6126  0.6922  2.0846
  325MOL0     H43844  13.005   1.160   9.173 -3.3570  0.4030 -2.3799
  325MOL0     H43845  13.182   0.955   9.026 -1.1935  2.7856 -1.9042
  325MOL0     H43846  13.011   0.913   9.068 -0.5808 -1.2406  2.9896
  325MOL0     H43847  13.042   0.938   9.301  1.3313 -1.3658  1.2595
  325MOL0     H43848  13.208   1.004   9.285 -1.7417  1.2403  1.9989
  325MOL0     H43849  13.121   0.706   9.218  0.6014  0.2596 -0.8849
  325MOL0     H43850  13.269   0.796   9.171  1.4726  0.2056  1.8435
  325MOL0     H43851  13.175   0.723   9.454  0.1991 -1.3658  0.7642
  325MOL0     H43852  13.289   0.856   9.421 -2.1616  0.8666  0.0052
  325MOL0     H43853  13.452   0.707   9.319  0.1545  0.7928  1.1555
  325MOL0     H43854  13.396   0.631   9.463 -3.4458  1.2502  1.0571
  325MOL0     H43855  12.672   1.368   8.706 -1.9490  2.2066 -1.5938
  325MOL0     H43856  12.439   1.444   8.703 -1.6859  0.2208  0.4230
  325MOL0     H43857  11.970   1.374   8.877  3.1045 -0.1946 -3.5852
  325MOL0     H43858  11.787   1.511   8.824 -0.0180 -1.8090  1.5865
  325MOL0     H43859  10.976   2.784   7.971 -0.4455  1.2583  0.4979
  325MOL0     H43860  10.876   3.009   7.914  0.5153  0.4149  0.0215
  325MOL0     H43861  10.924   3.420   7.702  2.3565  0.4930 -2.2152
  325MOL0     H43862  10.851   3.618   7.646  1.5252  0.3526 -0.8722
  325MOL0     H43863  10.762   3.988   7.718  1.5584  1.1147  2.2599
  325MOL0     H43864  10.757   3.837   7.654 -2.1335  1.2294  1.9255
  325MOL0     H43865  10.825   3.993   7.496 -2.4452 -2.0959  2.2321
  325MOL0     H43866  10.975   3.899   7.521  0.7437 -0.0720  1.7134
  325MOL0     H43867  11.067   4.065   7.681 -0.0831  0.4866  1.6283
  325MOL0     H43868  10.923   4.175   7.656  2.7763  2.5544 -0.0495
  325MOL0     H43869  11.007   4.173   7.413 -0.5609 -1.3932  0.8739
  325MOL0     H43870  11.093   4.271   7.532 -0.8309  0.5699 -0.0941
  325MOL0     H43871  11.349   3.935   7.421 -0.2545  0.1343 -1.0669
  325MOL0     H43872  11.050   3.809   7.987  1.4942  0.7722 -1.9214
  325MOL0     H43873  11.232   3.670   8.097 -1.2386  0.7862  0.6179
  325MOL0     H43874  11.151   3.532   8.151  1.2162  1.2038 -0.0580
  325MOL0     H43875  11.265   3.519   8.013  0.3898  1.2187  0.2023
  326MOL0     O43876   9.835   2.792  10.393  0.0513  0.3700  0.3875
  326MOL0     C43877   9.777   2.690  10.360 -1.9236 -0.1298  0.7013
  326MOL0     O43878   9.824   2.566  10.371  0.3186  0.0111  0.6064
  326MOL0     C43879   9.946   2.540  10.419 -0.5772 -0.7820 -0.7984
  326MOL0     C43880  10.002   2.609  10.529  0.2217  0.1503 -0.8832
  326MOL0     C43881  10.122   2.570  10.586 -0.0719 -1.2636 -0.2114
  326MOL0     C43882  10.193   2.462  10.528 -0.2651  0.2026  0.0386
  326MOL0     O43883  10.300   2.431  10.601 -0.8454  0.2098 -0.0888
  326MOL0     C43884  10.369   2.305  10.576  0.0059  0.1667  0.5521
  326MOL0     C43885  10.475   2.281  10.682  0.6029 -0.2397  0.3985
  326MOL0     C43886  10.596   2.371  10.687 -0.0028  0.0758  0.4325
  326MOL0     C43887  10.706   2.288  10.749 -0.1691 -0.0245  0.2807
  326MOL0     C43888  10.838   2.375  10.733 -0.3399 -0.2101 -0.1589
  326MOL0     C43889  10.961   2.337  10.810 -0.2645  0.5441 -0.4878
  326MOL0     C43890  10.940   2.277  10.952 -1.0166 -0.4107  0.1058
  326MOL0     C43891  11.070   2.300  11.034  1.0348 -0.2364  0.2029
  326MOL0     N43892  11.076   2.220  11.155 -0.1977 -1.0962  0.0253
  326MOL0     C43893  11.081   2.266  11.282  0.3418  0.2102  0.3020
  326MOL0     C43894  11.094   2.160  11.358 -0.8898  0.2617 -0.0697
  326MOL0     C43895  11.117   2.167  11.505 -0.3752 -0.2739  0.3120
  326MOL0     C43896  11.269   2.190  11.532  0.2730 -1.0756 -0.1145
  326MOL0     C43897  11.301   2.177  11.688  0.4718 -0.5187 -0.1939
  326MOL0     C43898  11.441   2.221  11.722 -0.5374 -0.7461 -0.6283
  326MOL0     O43899  11.533   2.133  11.666 -0.3147  1.1023 -0.5317
  326MOL0     C43900  11.667   2.160  11.688 -0.4684  0.1089 -0.8624
  326MOL0     C43901  11.759   2.088  11.607  0.0412  0.0949 -0.5395
  326MOL0     C43902  11.898   2.114  11.624 -0.4290  0.3411  0.0965
  326MOL0     C43903  11.939   2.223  11.705 -0.1624  0.3388  0.0212
  326MOL0     C43904  12.078   2.280  11.681  0.1215 -0.1661  1.0660
  326MOL0     O43905  12.113   2.375  11.774 -0.7576  0.2579  0.1309
  326MOL0     C43906  12.246   2.407  11.776  0.2611  0.2099 -0.3683
  326MOL0     C43907  12.303   2.499  11.690 -0.5482  0.8550  0.4206
  326MOL0     C43908  12.444   2.517  11.695  0.5560 -0.4325 -0.4619
  326MOL0     C43909  12.523   2.452  11.788  0.2118 -0.5782 -1.1492
  326MOL0     O43910  12.652   2.493  11.796 -0.1214  0.2419  0.2946
  326MOL0     C43911  12.752   2.432  11.707  0.4639  0.3715 -0.3259
  326MOL0     C43912  12.882   2.420  11.782  0.2518 -0.2065  0.3018
  326MOL0     C43913  12.995   2.372  11.696  0.5664  0.2415  0.0418
  326MOL0     C43914  13.085   2.491  11.649  0.5069 -0.0413 -0.4536
  326MOL0     C43915  13.219   2.462  11.575  0.3786 -0.2979  0.1975
  326MOL0     C43916  13.311   2.362  11.644 -0.0539  0.5190  0.2825
  326MOL0     C43917  13.430   2.334  11.555  0.9965 -0.0262  0.2136
  326MOL0     C43918  13.539   2.266  11.636 -0.9027  0.3926 -0.1455
  326MOL0    Cl43919  13.574   2.114  11.554  0.0874  0.3720 -0.2719
  326MOL0     C43920  12.466   2.373  11.886 -0.3940 -0.6838  0.1582
  326MOL0     C43921  12.325   2.342  11.875  0.2388  0.9389  0.4870
  326MOL0     O43922  12.147   2.246  11.582  0.2524 -0.0790  0.1161
  326MOL0     C43923  11.850   2.302  11.777  0.7616 -0.2159  0.2310
  326MOL0     C43924  11.710   2.265  11.779 -0.3064  0.5178 -0.0045
  326MOL0     N43925  11.096   2.047  11.287  0.4005 -0.1647  0.0853
  326MOL0     N43926  11.079   2.081  11.164  0.3951 -0.3804  1.0274
  326MOL0     C43927  10.150   2.400  10.415 -0.2807 -0.2217 -0.0932
  326MOL0     C43928  10.027   2.437  10.366 -0.1090 -0.7536 -0.5125
  326MOL0     C43929   9.638   2.698  10.310 -0.4615  0.5680  0.3587
  326MOL0     C43930   9.564   2.584  10.321  0.6810 -0.0480 -0.1730
  326MOL0     C43931   9.442   2.563  10.264 -0.5846 -0.3941  0.7568
  326MOL0     C43932   9.386   2.665  10.186 -0.5648 -0.0507 -0.1072
  326MOL0     O43933   9.265   2.637  10.125  0.6448 -0.0300 -0.4432
  326MOL0     C43934   9.183   2.735  10.063  0.5988 -0.2912  0.4320
  326MOL0     C43935   9.062   2.766  10.148  0.4720  0.4294 -0.6073
  326MOL0     C43936   8.927   2.719  10.082  0.2328 -0.1590 -0.0024
  326MOL0     C43937   8.806   2.777  10.150 -0.0656 -0.2139 -0.3964
  326MOL0     C43938   8.683   2.730  10.083  0.1976  1.6770  0.3398
  326MOL0     C43939   8.575   2.699  10.031 -0.0954 -0.7815 -0.6572
  326MOL0     C43940   9.458   2.789  10.188  0.4133  0.0598  0.2974
  326MOL0     C43941   9.592   2.808  10.232 -0.5455  0.3886 -0.1272
  326MOL0     C43942   9.672   2.928  10.209  0.2956  0.5052  0.4712
  326MOL0     H43943   9.945   2.690  10.575  2.3710  0.8450  0.7508
  326MOL0     H43944  10.164   2.636  10.661 -1.2585  3.5664 -3.2701
  326MOL0     H43945  10.307   2.215  10.563 -2.3038  1.5351  1.3869
  326MOL0     H43946  10.421   2.307  10.480 -2.5889 -1.9839 -1.0660
  326MOL0     H43947  10.501   2.174  10.678 -0.2718 -0.4285 -0.5556
  326MOL0     H43948  10.417   2.287  10.775  0.7211 -0.3144  0.4769
  326MOL0     H43949  10.571   2.462  10.742  2.2641  0.1164  1.5292
  326MOL0     H43950  10.630   2.398  10.587  2.1981 -0.2406  1.0520
  326MOL0     H43951  10.691   2.274  10.856  1.8904  2.2143  0.9512
  326MOL0     H43952  10.723   2.195  10.694 -0.6426  1.6194 -2.8963
  326MOL0     H43953  10.862   2.400  10.630 -0.2939  1.1853  0.1737
  326MOL0     H43954  10.827   2.475  10.777  1.9235  1.2185 -2.5874
  326MOL0     H43955  11.020   2.266  10.751 -1.3364 -0.1308 -0.7798
  326MOL0     H43956  11.022   2.426  10.824  0.6384 -0.2474  0.8380
  326MOL0     H43957  10.914   2.171  10.945 -2.4153 -0.1191  0.4819
  326MOL0     H43958  10.863   2.340  10.999  1.4733  0.8523  2.8141
  326MOL0     H43959  11.160   2.276  10.978  1.4655 -3.2533  1.9527
  326MOL0     H43960  11.075   2.406  11.061 -2.5382 -0.2317  1.4105
  326MOL0     H43961  11.082   2.371  11.309  1.7808  0.5070 -0.8068
  326MOL0     H43962  11.046   2.240  11.544 -0.3807 -0.1557  0.0821
  326MOL0     H43963  11.102   2.067  11.546 -1.0464 -1.5189 -2.7400
  326MOL0     H43964  11.327   2.114  11.479 -0.2969  0.1423 -2.6234
  326MOL0     H43965  11.293   2.293  11.504 -3.1464 -0.1110 -0.0082
  326MOL0     H43966  11.291   2.072  11.720  0.7765 -0.4189  0.2487
  326MOL0     H43967  11.226   2.245  11.728 -0.0731 -0.5983 -1.0754
  326MOL0     H43968  11.449   2.236  11.831  0.2414  3.0205 -1.0482
  326MOL0     H43969  11.467   2.322  11.690  2.7982 -0.9760  0.9332
  326MOL0     H43970  11.727   2.003  11.549  0.1050  0.1316 -0.6279
  326MOL0     H43971  11.970   2.054  11.570  1.4132  0.7358  1.9907
  326MOL0     H43972  12.254   2.554  11.611 -0.8784 -1.3236 -0.9654
  326MOL0     H43973  12.505   2.570  11.623  3.4330 -1.8657  0.7744
  326MOL0     H43974  12.731   2.335  11.662  3.0274  0.0946 -1.1260
  326MOL0     H43975  12.769   2.488  11.615  0.0427 -0.2728 -0.7987
  326MOL0     H43976  12.892   2.508  11.847 -0.9705 -2.6665  4.2086
  326MOL0     H43977  12.847   2.337  11.845 -2.0082  2.1457  2.3808
  326MOL0     H43978  13.056   2.299  11.750 -0.5557 -0.5285  0.3003
  326MOL0     H43979  12.949   2.319  11.612 -1.8391  1.2355  0.6586
  326MOL0     H43980  13.112   2.555  11.733 -0.3433  0.5985 -0.6534
  326MOL0     H43981  13.028   2.552  11.577 -0.2209  1.3222  1.2055
  326MOL0     H43982  13.272   2.556  11.554 -2.3536  1.4605  0.7030
  326MOL0     H43983  13.196   2.430  11.473  0.7094 -0.9392  0.3134
  326MOL0     H43984  13.352   2.408  11.734  0.0790 -0.1147  0.5524
  326MOL0     H43985  13.258   2.270  11.673 -0.2897  0.6363  0.2291
  326MOL0     H43986  13.467   2.431  11.518 -2.4118  2.1347  1.9597
  326MOL0     H43987  13.407   2.273  11.468  2.9965  0.9897 -1.1220
  326MOL0     H43988  13.625   2.332  11.648  1.8314 -3.0760  1.3757
  326MOL0     H43989  13.505   2.240  11.737  1.4025 -1.5826  0.2264
  326MOL0     H43990  12.527   2.323  11.961  1.9422 -2.7855 -2.8975
  326MOL0     H43991  12.282   2.262  11.934  0.6388 -1.9766 -2.8275
  326MOL0     H43992  11.884   2.386  11.837  0.2738 -0.0241  0.2482
  326MOL0     H43993  11.647   2.317  11.850  0.6972  3.7740 -1.2907
  326MOL0     H43994  10.212   2.328  10.364 -2.0977 -1.2956 -0.8844
  326MOL0     H43995   9.985   2.382  10.282 -2.0490  2.2351 -1.6368
  326MOL0     H43996   9.591   2.503  10.388 -0.5169  0.2277  0.6744
  326MOL0     H43997   9.387   2.475  10.296  0.0207 -0.8509  0.5749
  326MOL0     H43998   9.150   2.692   9.968 -0.8710  1.3590  0.1371
  326MOL0     H43999   9.230   2.829  10.034 -2.0069  0.5638 -1.4418
  326MOL0     H44000   9.073   2.873  10.171  2.9944 -0.2430  1.8303
  326MOL0     H44001   9.084   2.712  10.241 -2.1148  2.0359  1.0641
  326MOL0     H44002   8.932   2.609  10.083  0.6489 -0.1407  1.1158
  326MOL0     H44003   8.913   2.766   9.984 -4.0136  4.1568  2.2723
  326MOL0     H44004   8.808   2.751  10.256  0.5767  1.0465 -0.0700
  326MOL0     H44005   8.801   2.886  10.141  2.6611 -0.1652 -2.6471
  326MOL0     H44006   8.481   2.675   9.987 -0.8011  1.1094 -0.2998
  326MOL0     H44007   9.404   2.875  10.150 -0.8913 -0.3660  1.1065
  326MOL0     H44008   9.595   2.998  10.174 -1.1887 -2.1415 -1.9836
  326MOL0     H44009   9.721   2.966  10.299  2.3290 -0.3551 -0.2210
  326MOL0     H44010   9.750   2.930  10.132 -0.9698  0.0388 -0.8726
  327MOL0     O44011   6.799   8.282  10.787 -0.0124  0.4603  0.4614
  327MOL0     C44012   6.756   8.377  10.846 -0.4091 -0.2850 -0.2272
  327MOL0     O44013   6.820   8.503  10.863 -0.0273 -0.0445 -0.1612
  327MOL0     C44014   6.932   8.527  10.780  0.1611 -0.1512  0.0772
  327MOL0     C44015   7.040   8.568  10.856  0.4275 -0.3226 -0.3408
  327MOL0     C44016   7.157   8.612  10.788  0.4778  0.4056  0.2277
  327MOL0     C44017   7.171   8.595  10.651 -0.4052 -1.3119 -0.0110
  327MOL0     O44018   7.295   8.606  10.585  0.0485  0.0762  0.5162
  327MOL0     C44019   7.417   8.627  10.662 -0.4204 -0.1635 -0.2142
  327MOL0     C44020   7.454   8.774  10.676  0.5495  0.3046  0.4705
  327MOL0     C44021   7.526   8.827  10.550 -0.5105  0.1272  0.0600
  327MOL0     C44022   7.566   8.975  10.547 -0.0971 -0.2422  0.5547
  327MOL0     C44023   7.677   8.995  10.446  0.6147  0.1530  0.5007
  327MOL0     C44024   7.725   9.140  10.436 -0.5669  0.0520 -0.4998
  327MOL0     C44025   7.852   9.145  10.351 -0.4035 -0.2198 -0.2143
  327MOL0     C44026   7.928   9.279  10.366 -0.3189 -0.2214  0.0344
  327MOL0     N44027   8.006   9.288  10.495 -0.2196 -0.7413  0.4003
  327MOL0     C44028   7.980   9.383  10.593  0.3290  0.2199  0.5192
  327MOL0     C44029   8.081   9.367  10.685 -0.0267  0.7950  0.4916
  327MOL0     C44030   8.099   9.445  10.809 -0.0981  0.6124 -0.4450
  327MOL0     C44031   8.078   9.597  10.774 -0.7709 -0.5431 -0.4258
  327MOL0     C44032   8.142   9.684  10.883 -0.3458 -0.5121 -1.5661
  327MOL0     C44033   8.079   9.649  11.016  0.7684 -0.2155 -0.1454
  327MOL0     O44034   8.100   9.749  11.116  0.1624  0.5618  0.5390
  327MOL0     C44035   8.198   9.743  11.213  0.3039  0.5088 -0.1409
  327MOL0     C44036   8.180   9.814  11.337 -0.1646 -0.3569 -0.4050
  327MOL0     C44037   8.279   9.821  11.434 -0.6604  0.0766 -0.4703
  327MOL0     C44038   8.398   9.749  11.410  0.6268  0.8206  0.3475
  327MOL0     C44039   8.500   9.738  11.516  0.1175  0.1335 -0.6705
  327MOL0     O44040   8.471   9.802  11.631 -0.5110  0.4183  0.3898
  327MOL0     C44041   8.583   9.823  11.710 -0.7059 -0.0842  0.2738
  327MOL0     C44042   8.676   9.928  11.683 -0.4092 -0.3261  0.9373
  327MOL0     C44043   8.794   9.940  11.762 -0.1094 -0.5180 -0.4271
  327MOL0     C44044   8.832   9.847  11.866  0.4437  0.0367  0.7143
  327MOL0     O44045   8.959   9.856  11.924  0.2327 -0.0620  0.7267
  327MOL0     C44046   8.958   9.861  12.066  1.0742  0.8806 -0.0864
  327MOL0     C44047   9.106   9.908  12.110  0.2890 -0.0591 -0.1925
  327MOL0     C44048   9.132  10.047  12.062  0.3201  0.0136  0.6727
  327MOL0     C44049   9.279  10.075  12.096 -0.2508 -0.0574 -0.1610
  327MOL0     C44050   9.314  10.219  12.030  0.1652  0.2721 -0.7467
  327MOL0     C44051   9.468  10.251  12.019  0.3039 -0.3208  0.1811
  327MOL0     C44052   9.497  10.358  11.910 -0.5114 -0.3662  0.3124
  327MOL0     C44053   9.636  10.402  11.954 -1.3790 -0.4900  0.1145
  327MOL0    Cl44054   9.619  10.488  12.111  0.1192  0.3725  0.0803
  327MOL0     C44055   8.738   9.744  11.889  0.3451  0.0747 -0.7087
  327MOL0     C44056   8.615   9.743  11.819  0.4785  0.1518  0.0697
  327MOL0     O44057   8.609   9.697  11.479  0.3682 -0.1753  0.7031
  327MOL0     C44058   8.415   9.672  11.285 -0.4123  0.0466  0.1599
  327MOL0     C44059   8.315   9.673  11.191  0.2005  0.1889 -0.1219
  327MOL0     N44060   8.162   9.266  10.629  0.1257 -0.3908  0.8939
  327MOL0     N44061   8.121   9.224  10.516  0.2897  0.6759 -0.1038
  327MOL0     C44062   7.060   8.552  10.580 -1.0184  0.1697 -0.3556
  327MOL0     C44063   6.941   8.518  10.645 -1.3861  0.6377  0.0267
  327MOL0     C44064   6.629   8.362  10.922  0.6950 -0.8158 -0.0533
  327MOL0     C44065   6.636   8.406  11.053 -0.0293  0.0584 -0.2619
  327MOL0     C44066   6.527   8.389  11.135 -0.1804  0.0049 -0.0795
  327MOL0     C44067   6.411   8.325  11.093 -0.1102 -0.1263  0.9264
  327MOL0     O44068   6.306   8.285  11.168 -0.7399 -0.1846 -0.8435
  327MOL0     C44069   6.335   8.157  11.238  0.0952 -0.3904 -0.7416
  327MOL0     C44070   6.307   8.166  11.386  1.1230  0.2325 -0.0286
  327MOL0     C44071   6.166   8.203  11.421  0.4013  1.2440 -0.2565
  327MOL0     C44072   6.068   8.093  11.455  0.0314  0.1024 -0.2760
  327MOL0     C44073   6.039   7.987  11.350 -0.2635 -0.4986 -0.9132
  327MOL0     C44074   6.026   7.901  11.266  0.3437  0.0651 -1.0100
  327MOL0     C44075   6.412   8.272  10.964  0.4044  1.1728  0.6431
  327MOL0     C44076   6.518   8.293  10.879  0.3813  0.5448  0.4049
  327MOL0     C44077   6.488   8.257  10.731 -0.2283  0.0843 -0.6159
  327MOL0     H44078   7.031   8.586  10.962 -0.4558  1.2174 -0.6447
  327MOL0     H44079   7.245   8.640  10.845  0.8705 -2.4716  1.2034
  327MOL0     H44080   7.414   8.571  10.756 -1.1603 -1.4563 -0.9756
  327MOL0     H44081   7.493   8.573  10.604  0.4103  0.1863  0.5198
  327MOL0     H44082   7.528   8.807  10.750  0.9562 -1.7164  1.0267
  327MOL0     H44083   7.358   8.823  10.690 -1.7644 -3.4253 -0.9170
  327MOL0     H44084   7.454   8.803  10.470 -0.6310  0.8590 -0.0592
  327MOL0     H44085   7.610   8.758  10.538  1.9214  2.6868  1.1750
  327MOL0     H44086   7.475   9.031  10.524  0.2546  0.1324  0.0518
  327MOL0     H44087   7.599   9.016  10.643 -2.8215  2.4190  0.5114
  327MOL0     H44088   7.756   8.922  10.466 -0.5476 -1.2521  0.1382
  327MOL0     H44089   7.644   8.972  10.344  3.3802 -2.0526 -0.0193
  327MOL0     H44090   7.650   9.216  10.413 -0.5727 -0.6070 -2.9287
  327MOL0     H44091   7.753   9.160  10.540  1.4246 -1.4759 -0.6869
  327MOL0     H44092   7.822   9.131  10.247  1.0184 -0.3563 -0.6272
  327MOL0     H44093   7.922   9.068  10.383  0.2777 -0.9938 -3.2726
  327MOL0     H44094   7.992   9.281  10.277 -2.0257 -1.5328 -1.2866
  327MOL0     H44095   7.863   9.366  10.358  1.4267  0.9853 -2.1723
  327MOL0     H44096   7.909   9.465  10.592 -1.1612 -1.0289 -0.5293
  327MOL0     H44097   8.023   9.415  10.881  0.5342 -0.6290 -0.2780
  327MOL0     H44098   8.199   9.430  10.851 -1.7601  1.4922  4.5550
  327MOL0     H44099   8.120   9.623  10.677 -0.6790 -1.5138 -0.6505
  327MOL0     H44100   7.972   9.622  10.767 -0.6826 -0.6133 -2.4702
  327MOL0     H44101   8.116   9.788  10.864  0.7622  0.1236  0.2519
  327MOL0     H44102   8.250   9.670  10.889 -0.3738 -0.1023  0.7585
  327MOL0     H44103   8.105   9.548  11.049  1.4679 -0.7132 -2.0637
  327MOL0     H44104   7.971   9.647  11.000  0.8248  0.6306 -0.6958
  327MOL0     H44105   8.097   9.880  11.363  0.2122 -0.5688  1.5302
  327MOL0     H44106   8.265   9.880  11.525  2.3586  2.1071 -1.1597
  327MOL0     H44107   8.650  10.005  11.610  0.3937 -2.2475 -1.5096
  327MOL0     H44108   8.858  10.028  11.763 -0.2851 -0.3898  0.6254
  327MOL0     H44109   8.879   9.928  12.102 -2.0109 -3.0048  1.1320
  327MOL0     H44110   8.947   9.761  12.109  0.9126  0.4335 -1.1156
  327MOL0     H44111   9.121   9.893  12.217  2.3387  0.3428 -0.3969
  327MOL0     H44112   9.170   9.832  12.065 -1.1821 -1.2127 -0.4445
  327MOL0     H44113   9.117  10.060  11.954 -1.9409  0.1676  0.9546
  327MOL0     H44114   9.065  10.115  12.115 -0.3791 -0.9265  0.9994
  327MOL0     H44115   9.356  10.012  12.051 -0.1654 -0.4568  0.5361
  327MOL0     H44116   9.292  10.075  12.204 -1.2974  0.8867 -0.0065
  327MOL0     H44117   9.259  10.296  12.085 -3.0607 -2.0382 -0.4793
  327MOL0     H44118   9.274  10.221  11.928  0.2808 -1.3503 -0.8580
  327MOL0     H44119   9.499  10.283  12.119 -1.0153 -1.1429  0.8761
  327MOL0     H44120   9.516  10.155  11.997  3.1367  0.3722  2.5920
  327MOL0     H44121   9.437  10.449  11.907  0.1863  0.0852 -0.0157
  327MOL0     H44122   9.501  10.324  11.806  0.5706  0.0985  0.1921
  327MOL0     H44123   9.708  10.320  11.959 -0.7574  0.0529  0.3318
  327MOL0     H44124   9.678  10.475  11.884 -2.0033 -0.0411  0.2024
  327MOL0     H44125   8.762   9.670  11.965 -1.2578 -0.7270 -0.9582
  327MOL0     H44126   8.541   9.665  11.836  0.5783  0.3421  1.5217
  327MOL0     H44127   8.516   9.631  11.282  0.7163  2.6509 -0.0201
  327MOL0     H44128   8.337   9.635  11.092  2.6268  1.2431 -0.0732
  327MOL0     H44129   7.058   8.539  10.473 -1.8576  0.9644 -0.4465
  327MOL0     H44130   6.856   8.483  10.586 -0.8611  0.8707 -0.8734
  327MOL0     H44131   6.727   8.452  11.089  0.9167 -3.1575  1.8415
  327MOL0     H44132   6.555   8.419  11.235  0.8838 -0.8720 -0.1010
  327MOL0     H44133   6.438   8.119  11.230 -1.2773 -4.4155 -1.3719
  327MOL0     H44134   6.270   8.079  11.199 -0.4543 -0.0942 -0.4141
  327MOL0     H44135   6.361   8.246  11.437 -2.8892  3.1356  0.0916
  327MOL0     H44136   6.335   8.072  11.434 -0.8981 -1.0545 -1.2013
  327MOL0     H44137   6.119   8.246  11.331  1.7472 -1.0170 -2.1562
  327MOL0     H44138   6.171   8.259  11.515  0.5430 -0.4949  0.7998
  327MOL0     H44139   6.112   8.044  11.542  0.1804  0.1054 -0.3497
  327MOL0     H44140   5.973   8.134  11.491 -0.1270  2.4984 -3.0439
  327MOL0     H44141   6.010   7.831  11.187  0.8351 -1.0707 -0.1354
  327MOL0     H44142   6.325   8.217  10.927  0.6569  1.2874 -0.1461
  327MOL0     H44143   6.577   8.271  10.669  1.0638  0.9684  1.3284
  327MOL0     H44144   6.449   8.155  10.733 -2.0638  0.7372  1.6601
  327MOL0     H44145   6.424   8.327  10.677  0.8430  0.0209 -2.0143
  328MOL0     O44146  10.872   0.682   2.518 -0.0892  0.0974 -0.2790
  328MOL0     C44147  10.875   0.753   2.619 -0.2283 -0.2088  0.4043
  328MOL0     O44148  10.986   0.810   2.672 -0.3768 -1.3260  0.7660
  328MOL0     C44149  11.110   0.770   2.636  0.1671 -0.3355 -0.3070
  328MOL0     C44150  11.211   0.825   2.727  0.8362 -0.6134 -0.0979
  328MOL0     C44151  11.341   0.799   2.702 -0.0126 -0.0383  0.8881
  328MOL0     C44152  11.385   0.707   2.608  0.3781  0.2493  0.3709
  328MOL0     O44153  11.519   0.686   2.579 -0.6943  0.0477 -0.9448
  328MOL0     C44154  11.568   0.560   2.621  0.5576 -0.2083  0.3985
  328MOL0     C44155  11.662   0.600   2.729  0.6632  0.1380  0.5152
  328MOL0     C44156  11.740   0.478   2.774  0.8327  1.1976  0.2302
  328MOL0     C44157  11.839   0.430   2.664 -0.0691 -0.0510 -0.4647
  328MOL0     C44158  11.896   0.293   2.701 -0.3381  0.2466 -0.0512
  328MOL0     C44159  12.011   0.255   2.602 -0.4214 -0.3063  0.0142
  328MOL0     C44160  12.091   0.145   2.646  1.0652  0.6251 -0.2601
  328MOL0     C44161  12.186   0.083   2.541  0.7513 -0.1529  0.1926
  328MOL0     N44162  12.316   0.137   2.520  0.8276 -0.4439  0.7459
  328MOL0     C44163  12.345   0.264   2.466 -0.2016  0.6610 -0.1008
  328MOL0     C44164  12.470   0.290   2.492 -0.6899 -0.0388 -1.7596
  328MOL0     C44165  12.535   0.423   2.458  0.5454  0.4166  0.7959
  328MOL0     C44166  12.567   0.438   2.309  0.6720  0.4741 -1.1900
  328MOL0     C44167  12.646   0.329   2.254 -0.4151  0.4094  0.3288
  328MOL0     C44168  12.786   0.316   2.299 -0.3369 -0.2147 -0.3429
  328MOL0     O44169  12.849   0.444   2.275  0.1323  0.4181 -0.1716
  328MOL0     C44170  12.990   0.445   2.271 -0.2818  0.1543  0.3757
  328MOL0     C44171  13.042   0.511   2.154  0.3755  0.2686  0.4685
  328MOL0     C44172  13.180   0.534   2.139 -0.2804  0.0019 -0.1302
  328MOL0     C44173  13.268   0.512   2.243 -0.9683 -0.5089 -0.6386
  328MOL0     C44174  13.415   0.542   2.224  0.0431  0.3313 -0.0920
  328MOL0     O44175  13.446   0.597   2.096  0.3362 -0.4580 -0.0407
  328MOL0     C44176  13.578   0.631   2.066  0.4062 -0.0562  0.5921
  328MOL0     C44177  13.667   0.536   2.020  0.0968  0.0091  0.3834
  328MOL0     C44178  13.808   0.561   2.022  0.5283  0.7198  0.0965
  328MOL0     C44179  13.853   0.696   2.041 -0.6171  0.3598 -0.5890
  328MOL0     O44180  13.985   0.717   2.016 -0.1248  0.0718 -0.2785
  328MOL0     C44181  14.041   0.842   2.026 -0.2753  0.8397 -0.4584
  328MOL0     C44182  14.164   0.838   1.935  0.2378 -0.3057 -0.3322
  328MOL0     C44183  14.290   0.769   2.000  0.1665 -0.3245  0.5064
  328MOL0     C44184  14.313   0.633   1.934 -0.2039  0.6012 -0.5710
  328MOL0     C44185  14.400   0.544   2.018  0.4746 -0.0871 -0.6205
  328MOL0     C44186  14.545   0.601   2.069  0.9160  0.3965  0.7978
  328MOL0     C44187  14.558   0.612   2.218  1.3215  0.2198  0.1581
  328MOL0     C44188  14.695   0.658   2.261  0.4397 -0.2386  0.2835
  328MOL0    Cl44189  14.678   0.691   2.438  0.2922  0.3825 -0.4934
  328MOL0     C44190  13.762   0.796   2.086 -0.3873  0.0191 -0.0022
  328MOL0     C44191  13.629   0.761   2.100 -0.3043 -0.0392 -0.1933
  328MOL0     O44192  13.496   0.509   2.311  0.0855 -0.7810 -0.3486
  328MOL0     C44193  13.215   0.448   2.358  0.9233  0.0854  0.4112
  328MOL0     C44194  13.078   0.403   2.371 -0.0822 -0.4603  0.4641
  328MOL0     N44195  12.524   0.184   2.567  0.7485 -0.2069 -1.2412
  328MOL0     N44196  12.422   0.099   2.586  0.0139 -0.1155 -0.3154
  328MOL0     C44197  11.287   0.646   2.525  0.4299 -0.2692  0.0583
  328MOL0     C44198  11.146   0.670   2.539 -0.3918 -0.6352  0.2832
  328MOL0     C44199  10.746   0.798   2.682  0.5244  0.1902 -1.1756
  328MOL0     C44200  10.639   0.710   2.690  0.5233  0.4777 -0.6258
  328MOL0     C44201  10.515   0.749   2.744  0.6769 -1.3343 -0.0652
  328MOL0     C44202  10.497   0.884   2.790  0.1382  0.5938  1.1747
  328MOL0     O44203  10.385   0.940   2.837  0.4194  0.9258 -0.7124
  328MOL0     C44204  10.265   0.856   2.869  0.2640 -0.0267  0.6230
  328MOL0     C44205  10.189   0.843   2.739  0.5807 -0.0860  0.2399
  328MOL0     C44206  10.188   0.958   2.636 -0.1848 -0.7256 -0.1264
  328MOL0     C44207  10.101   0.946   2.505 -0.7034 -0.3678  0.2811
  328MOL0     C44208   9.972   0.934   2.551  0.7552  0.4401 -0.2405
  328MOL0     C44209   9.858   0.898   2.563  0.9036 -0.1496 -0.3976
  328MOL0     C44210  10.602   0.971   2.788 -1.2613  0.3800 -0.6514
  328MOL0     C44211  10.728   0.929   2.744 -0.0906  0.2326 -0.4297
  328MOL0     C44212  10.845   1.033   2.768  0.0989 -0.5629  0.8250
  328MOL0     H44213  11.177   0.896   2.801 -2.7191 -2.0725 -0.1352
  328MOL0     H44214  11.410   0.852   2.766  1.8894  0.2303 -1.2690
  328MOL0     H44215  11.488   0.507   2.673  0.3055  0.1818  0.4184
  328MOL0     H44216  11.607   0.501   2.538 -1.5748 -0.7409 -0.2853
  328MOL0     H44217  11.612   0.650   2.813 -0.5144  0.0975 -0.1470
  328MOL0     H44218  11.729   0.671   2.681 -2.4253  1.1681 -2.6914
  328MOL0     H44219  11.671   0.394   2.783  2.0770  0.2914  1.9650
  328MOL0     H44220  11.798   0.492   2.866  0.8837 -0.8685  0.5758
  328MOL0     H44221  11.783   0.404   2.574  0.3177 -0.6402 -0.5467
  328MOL0     H44222  11.917   0.506   2.653 -2.9347  3.8134  2.7908
  328MOL0     H44223  11.933   0.288   2.804  1.9549 -0.1682 -0.8413
  328MOL0     H44224  11.814   0.221   2.702 -1.7835  1.8140  0.8072
  328MOL0     H44225  11.978   0.248   2.498  0.6681  1.5890 -0.5161
  328MOL0     H44226  12.071   0.345   2.586 -0.8573 -0.3884 -2.5785
  328MOL0     H44227  12.020   0.067   2.677  0.8668  0.9388  0.0782
  328MOL0     H44228  12.159   0.167   2.729  0.8454  0.5082 -0.0446
  328MOL0     H44229  12.198  -0.023   2.568  3.1445  0.2621  1.0345
  328MOL0     H44230  12.128   0.085   2.448 -0.3253  0.2972  0.8612
  328MOL0     H44231  12.265   0.322   2.422  0.6457  2.2044  0.2979
  328MOL0     H44232  12.465   0.504   2.481  2.5133  1.8801  1.9613
  328MOL0     H44233  12.628   0.446   2.512 -0.0475 -0.3573  2.1890
  328MOL0     H44234  12.480   0.450   2.244 -0.8796 -1.1369  0.4539
  328MOL0     H44235  12.620   0.532   2.293  0.6461  0.2997 -2.3757
  328MOL0     H44236  12.646   0.333   2.144  2.6893  1.9566  0.2944
  328MOL0     H44237  12.591   0.237   2.277 -0.7892  0.1223 -1.5097
  328MOL0     H44238  12.830   0.253   2.221  0.5142 -1.8594  1.3966
  328MOL0     H44239  12.792   0.260   2.393 -3.0869  0.0283  0.0761
  328MOL0     H44240  12.987   0.553   2.070 -0.9376  1.4739  1.8612
  328MOL0     H44241  13.203   0.585   2.046 -2.3752  2.0320  0.3583
  328MOL0     H44242  13.618   0.444   1.990 -2.4954  1.8208 -1.3766
  328MOL0     H44243  13.872   0.475   2.010 -0.0023  0.4804 -1.1671
  328MOL0     H44244  13.976   0.913   1.975 -1.9383 -0.4043 -0.1595
  328MOL0     H44245  14.068   0.864   2.130  0.2102 -0.1103 -0.3756
  328MOL0     H44246  14.140   0.778   1.846  4.0342 -2.5712 -0.0265
  328MOL0     H44247  14.182   0.941   1.902  3.5869 -0.2473  1.3508
  328MOL0     H44248  14.374   0.839   2.003 -0.4318  0.3817  0.8783
  328MOL0     H44249  14.262   0.750   2.104 -2.8260  2.1657  0.2870
  328MOL0     H44250  14.343   0.656   1.831 -2.4125  0.8868 -1.1982
  328MOL0     H44251  14.216   0.584   1.920 -0.2635 -0.0615  1.7934
  328MOL0     H44252  14.420   0.447   1.974  0.7624 -0.8279  1.0613
  328MOL0     H44253  14.339   0.505   2.100 -0.2134 -0.7480 -1.4235
  328MOL0     H44254  14.620   0.529   2.034  2.0251  1.4193  1.0272
  328MOL0     H44255  14.577   0.698   2.030  1.5405  0.1285  0.6332
  328MOL0     H44256  14.540   0.511   2.258 -0.2330  1.1830  2.0378
  328MOL0     H44257  14.478   0.676   2.253 -0.6048 -2.2425  0.5453
  328MOL0     H44258  14.766   0.577   2.242 -1.7023 -1.9202 -0.9655
  328MOL0     H44259  14.729   0.743   2.200 -0.3966 -1.0982 -1.4567
  328MOL0     H44260  13.791   0.897   2.112 -2.9899  0.6583  0.7261
  328MOL0     H44261  13.560   0.833   2.143  0.0920  0.8903 -1.0672
  328MOL0     H44262  13.275   0.417   2.443 -1.2252 -2.8213  1.0259
  328MOL0     H44263  13.056   0.357   2.467  1.1600  0.1726  1.0697
  328MOL0     H44264  11.322   0.581   2.446  0.4305  2.1202 -2.0253
  328MOL0     H44265  11.078   0.630   2.465  0.1142  3.7529 -2.9702
  328MOL0     H44266  10.653   0.610   2.650 -0.7390 -0.1248  0.3351
  328MOL0     H44267  10.436   0.676   2.759  0.3279 -0.4831  3.1536
  328MOL0     H44268  10.200   0.911   2.937 -4.0485 -2.3257 -1.2358
  328MOL0     H44269  10.286   0.753   2.900  2.0470 -0.8440 -2.7644
  328MOL0     H44270  10.085   0.816   2.760  0.9128 -0.9097  0.9364
  328MOL0     H44271  10.210   0.749   2.687 -3.5439  0.3737 -2.6824
  328MOL0     H44272  10.288   0.988   2.601 -0.9815 -1.0703 -2.9548
  328MOL0     H44273  10.152   1.054   2.674  1.6375 -0.6110  1.4885
  328MOL0     H44274  10.109   1.036   2.444 -0.9334  0.5504  1.5870
  328MOL0     H44275  10.140   0.858   2.451 -1.1135 -1.3865  1.5813
  328MOL0     H44276   9.756   0.873   2.584  1.0619 -0.1872  0.3554
  328MOL0     H44277  10.588   1.073   2.821  1.8591  0.6741  0.1075
  328MOL0     H44278  10.806   1.128   2.806  1.0257 -0.1348  0.7369
  328MOL0     H44279  10.938   0.997   2.814 -0.2797 -0.9650  1.2887
  328MOL0     H44280  10.860   1.071   2.667 -1.8422 -0.5193  0.5131
  329MOL0     O44281   9.042   5.809  10.367  0.5354 -0.3352  0.0768
  329MOL0     C44282   9.123   5.776  10.282  0.4341 -0.4404  0.5302
  329MOL0     O44283   9.262   5.772  10.291  0.3714  0.2721 -1.0146
  329MOL0     C44284   9.332   5.824  10.400  0.1191  0.8827 -0.1834
  329MOL0     C44285   9.309   5.793  10.533  0.9408 -0.3535 -0.3301
  329MOL0     C44286   9.407   5.822  10.631 -0.1426  0.1398 -0.3962
  329MOL0     C44287   9.524   5.884  10.599 -0.1620 -0.3734  0.9077
  329MOL0     O44288   9.614   5.908  10.702  0.4772  0.1364 -0.3924
  329MOL0     C44289   9.752   5.902  10.672  0.2979 -1.6220  0.0897
  329MOL0     C44290   9.815   5.893  10.803  0.3992  0.2257 -0.3998
  329MOL0     C44291   9.787   6.008  10.900  0.4184  0.6165  0.5488
  329MOL0     C44292   9.844   5.966  11.033 -0.3430  0.5513  0.2928
  329MOL0     C44293   9.832   6.069  11.140 -0.2782  0.0391 -0.6631
  329MOL0     C44294   9.934   6.184  11.134  0.6789  0.6004  0.2897
  329MOL0     C44295   9.915   6.259  11.262 -0.6488  0.9315 -0.7783
  329MOL0     C44296  10.008   6.382  11.256  0.5334 -0.0709 -0.5476
  329MOL0     N44297  10.149   6.351  11.245 -0.0470  0.1347  0.9763
  329MOL0     C44298  10.211   6.236  11.300 -0.5606 -0.3405  0.5701
  329MOL0     C44299  10.346   6.266  11.293  0.8858  0.2046 -0.3749
  329MOL0     C44300  10.456   6.162  11.334 -0.2034 -0.1057  0.3337
  329MOL0     C44301  10.574   6.229  11.421  0.6419  0.2047 -0.8051
  329MOL0     C44302  10.720   6.177  11.382 -0.0696  0.1871 -0.6673
  329MOL0     C44303  10.770   6.254  11.260  0.8069 -0.1463 -0.3471
  329MOL0     O44304  10.893   6.209  11.223  0.2898  0.0574 -0.1871
  329MOL0     C44305  10.982   6.294  11.159 -0.6215 -0.3932 -0.5859
  329MOL0     C44306  11.119   6.267  11.186  0.0975  0.2325  0.7547
  329MOL0     C44307  11.212   6.363  11.145 -0.7500  0.6109  0.4303
  329MOL0     C44308  11.174   6.479  11.082 -0.4117  0.1940  0.1461
  329MOL0     C44309  11.287   6.560  11.019  0.6695  0.2144 -0.1006
  329MOL0     O44310  11.422   6.529  11.045 -0.0611 -0.0973  0.1253
  329MOL0     C44311  11.511   6.563  10.940 -0.4025 -0.3297  0.7103
  329MOL0     C44312  11.618   6.650  10.958 -0.0067  1.0022  0.6461
  329MOL0     C44313  11.712   6.667  10.859  0.5551  0.2924  1.0044
  329MOL0     C44314  11.701   6.609  10.729 -0.1905  0.7023 -0.9258
  329MOL0     O44315  11.806   6.639  10.641 -0.0952 -0.1177 -0.4772
  329MOL0     C44316  11.867   6.510  10.610 -0.0465 -0.0623  0.8666
  329MOL0     C44317  11.993   6.550  10.521  0.2081  0.4234  0.2595
  329MOL0     C44318  11.955   6.607  10.391  0.6680  0.0470  0.2960
  329MOL0     C44319  12.082   6.651  10.309  0.3282 -0.5123  0.1143
  329MOL0     C44320  12.066   6.635  10.157  0.4647  0.5724 -1.2657
  329MOL0     C44321  12.200   6.678  10.092  0.2047  1.2218 -0.5952
  329MOL0     C44322  12.317   6.571  10.099 -0.6058 -1.0126 -1.2181
  329MOL0     C44323  12.446   6.630  10.054 -0.9919  0.2410  0.0686
  329MOL0    Cl44324  12.422   6.705   9.892  0.2270  0.7574  0.1414
  329MOL0     C44325  11.599   6.512  10.713  0.6532 -0.2435  0.5198
  329MOL0     C44326  11.503   6.496  10.813  0.6690  1.3622 -0.7615
  329MOL0     O44327  11.247   6.652  10.953 -0.1090  0.1833  0.9642
  329MOL0     C44328  11.036   6.497  11.052 -0.1788  0.5217 -0.7725
  329MOL0     C44329  10.945   6.406  11.095  0.3680 -0.6765  0.4441
  329MOL0     N44330  10.364   6.395  11.252 -0.5986 -1.0652 -0.2527
  329MOL0     N44331  10.250   6.443  11.212  0.6739 -0.3593 -0.2156
  329MOL0     C44332   9.541   5.926  10.466  0.9183  0.1740 -0.1386
  329MOL0     C44333   9.453   5.883  10.369 -0.2715 -0.6500  0.3353
  329MOL0     C44334   9.065   5.747  10.144  0.2069 -0.2606 -0.4464
  329MOL0     C44335   8.959   5.828  10.101  0.2142  0.3861 -0.5491
  329MOL0     C44336   8.879   5.792   9.992  0.1982 -0.0734 -0.8117
  329MOL0     C44337   8.920   5.689   9.908 -0.0002 -0.7559 -0.4977
  329MOL0     O44338   8.851   5.652   9.793  0.3403  0.8152 -0.2103
  329MOL0     C44339   8.709   5.701   9.782 -0.7908  0.9128 -0.2594
  329MOL0     C44340   8.612   5.622   9.692 -0.3825  0.3108 -0.0233
  329MOL0     C44341   8.469   5.687   9.677  0.4591  0.5195 -0.4552
  329MOL0     C44342   8.377   5.649   9.796 -0.2151 -0.1470 -0.2437
  329MOL0     C44343   8.244   5.713   9.773 -0.7187  0.7686 -1.2875
  329MOL0     C44344   8.139   5.755   9.749 -0.4672  0.5235 -0.0626
  329MOL0     C44345   9.039   5.625   9.941 -1.1283  0.3075  0.2733
  329MOL0     C44346   9.115   5.651  10.055 -0.5637 -0.0511 -0.0858
  329MOL0     C44347   9.221   5.557  10.092 -0.0372 -1.4295  0.0553
  329MOL0     H44348   9.217   5.746  10.566  2.2469 -1.3988  2.0695
  329MOL0     H44349   9.380   5.782  10.729  0.2056  0.4705 -0.1621
  329MOL0     H44350   9.770   5.813  10.611 -2.5327  0.2340 -3.8949
  329MOL0     H44351   9.789   5.991  10.621  3.3818 -2.9649 -0.2198
  329MOL0     H44352   9.924   5.897  10.792  0.2231  0.1150 -2.5809
  329MOL0     H44353   9.784   5.798  10.850 -0.2350 -0.4945 -2.1858
  329MOL0     H44354   9.680   6.028  10.912  0.3499  0.7041 -0.1310
  329MOL0     H44355   9.826   6.102  10.860  0.7995  0.2209 -0.0235
  329MOL0     H44356   9.788   5.877  11.063 -0.4358  0.4273 -0.2311
  329MOL0     H44357   9.950   5.942  11.020 -0.7419 -0.7252 -0.8506
  329MOL0     H44358   9.731   6.110  11.132  0.1543  0.9278 -1.9484
  329MOL0     H44359   9.826   6.026  11.240  0.7976  0.2926 -0.4766
  329MOL0     H44360  10.033   6.139  11.124  0.6296  0.3314  0.9114
  329MOL0     H44361   9.928   6.245  11.044  0.6174 -1.5328 -1.2360
  329MOL0     H44362   9.952   6.203  11.348  1.4809  4.1052  0.5820
  329MOL0     H44363   9.813   6.294  11.278 -0.0947  2.1407  0.3238
  329MOL0     H44364   9.978   6.447  11.173  1.7954  0.3431 -0.7109
  329MOL0     H44365  10.000   6.441  11.349  2.3625 -1.7863  0.7928
  329MOL0     H44366  10.162   6.150  11.344 -1.6795 -1.1330 -2.0345
  329MOL0     H44367  10.419   6.079  11.395  0.3180  0.8175  1.9535
  329MOL0     H44368  10.509   6.128  11.244  2.0360  3.1649  0.2563
  329MOL0     H44369  10.562   6.337  11.409 -2.5516  0.2435  1.6085
  329MOL0     H44370  10.551   6.203  11.525 -1.1808  0.9929 -0.9885
  329MOL0     H44371  10.721   6.071  11.357  1.9242  0.0407 -0.1078
  329MOL0     H44372  10.791   6.198  11.462  0.6078  0.9994 -1.4467
  329MOL0     H44373  10.783   6.357  11.291  2.2684 -1.0771  2.4182
  329MOL0     H44374  10.696   6.242  11.180 -0.1798  0.3972  0.4624
  329MOL0     H44375  11.147   6.171  11.227 -1.6359 -1.6027 -2.1013
  329MOL0     H44376  11.318   6.349  11.162 -0.8634 -2.0237 -0.6488
  329MOL0     H44377  11.619   6.689  11.059 -0.0610  0.6041  0.8029
  329MOL0     H44378  11.798   6.729  10.884 -0.8530  1.1685  4.1391
  329MOL0     H44379  11.896   6.455  10.700 -3.1109  1.1259  2.7425
  329MOL0     H44380  11.792   6.450  10.556  0.1722  0.8603 -0.5094
  329MOL0     H44381  12.059   6.615  10.580  0.0499  1.6269 -0.8397
  329MOL0     H44382  12.058   6.463  10.507 -0.9638 -0.1721 -1.9186
  329MOL0     H44383  11.895   6.528  10.347 -1.0078 -0.4311  3.1655
  329MOL0     H44384  11.890   6.693  10.411  2.2132  1.1464  0.8050
  329MOL0     H44385  12.166   6.591  10.345 -0.2958 -2.2809 -1.2683
  329MOL0     H44386  12.096   6.756  10.335 -2.4746  0.5828 -2.2596
  329MOL0     H44387  11.986   6.702  10.125 -0.5931 -0.6227 -1.2176
  329MOL0     H44388  12.049   6.530  10.130 -2.7441  0.6517  0.0699
  329MOL0     H44389  12.174   6.690   9.987 -0.4940  0.2265 -0.5418
  329MOL0     H44390  12.237   6.772  10.135  6.2342 -0.5684 -0.8349
  329MOL0     H44391  12.295   6.489  10.030  0.3505 -2.5716  0.2613
  329MOL0     H44392  12.339   6.522  10.194 -2.2318  0.0732 -0.2402
  329MOL0     H44393  12.482   6.712  10.118 -1.2370 -1.4959  2.5367
  329MOL0     H44394  12.513   6.544  10.060 -1.7261 -0.5455 -2.2250
  329MOL0     H44395  11.598   6.443  10.629  1.3476  1.6604 -1.1135
  329MOL0     H44396  11.428   6.418  10.798  3.3222 -1.7255  0.6206
  329MOL0     H44397  11.014   6.591  11.004 -2.9200  1.2387  1.6152
  329MOL0     H44398  10.842   6.442  11.094  1.1942  2.0495  1.6219
  329MOL0     H44399   9.629   5.988  10.454  0.8793  0.2839  0.1271
  329MOL0     H44400   9.483   5.910  10.269 -1.6148 -1.5568 -0.3398
  329MOL0     H44401   8.921   5.898  10.176  0.5812 -1.8506  1.8914
  329MOL0     H44402   8.784   5.844   9.980  0.4881  1.1551  1.6821
  329MOL0     H44403   8.719   5.806   9.753  0.1831  1.0540  0.5414
  329MOL0     H44404   8.657   5.693   9.877 -0.4250 -1.3203 -0.2012
  329MOL0     H44405   8.605   5.517   9.722 -1.6182 -0.3286 -2.2416
  329MOL0     H44406   8.658   5.614   9.593 -0.1491 -1.1535  0.1718
  329MOL0     H44407   8.428   5.651   9.581 -0.7765  2.9782 -0.9178
  329MOL0     H44408   8.475   5.796   9.674  1.7932  0.7484  4.1657
  329MOL0     H44409   8.358   5.541   9.805 -0.5399 -0.0290  0.6522
  329MOL0     H44410   8.413   5.682   9.894  0.8177 -2.4007  0.2049
  329MOL0     H44411   8.046   5.801   9.721 -1.5482  1.2932  4.1747
  329MOL0     H44412   9.083   5.552   9.873  0.2846 -1.7700  3.2313
  329MOL0     H44413   9.218   5.518  10.194  3.5425 -3.0341 -0.3122
  329MOL0     H44414   9.223   5.476  10.019  0.6895 -0.4182 -1.1029
  329MOL0     H44415   9.309   5.620  10.078 -1.6392  1.0385  0.3453
  330MOL0     O44416   5.545   0.119   5.805  0.1599 -0.4174  0.5140
  330MOL0     C44417   5.597   0.017   5.785 -0.1550  0.3635 -0.5563
  330MOL0     O44418   5.536  -0.106   5.789  0.3157 -0.0441 -0.6996
  330MOL0     C44419   5.395  -0.112   5.810 -0.3330 -0.2766  0.2534
  330MOL0     C44420   5.340  -0.051   5.923  0.1356 -0.1382 -0.2278
  330MOL0     C44421   5.205  -0.068   5.940  1.1265  0.6105 -0.1286
  330MOL0     C44422   5.118  -0.132   5.854  0.3330 -0.1814 -0.1419
  330MOL0     O44423   4.982  -0.143   5.885 -0.2511 -0.3687  0.1168
  330MOL0     C44424   4.891  -0.126   5.776 -0.2214  0.3907 -0.1995
  330MOL0     C44425   4.746  -0.109   5.833 -0.8762 -0.0427 -0.2786
  330MOL0     C44426   4.730   0.034   5.889  0.1518  0.0433  0.5281
  330MOL0     C44427   4.598   0.038   5.980 -0.6468  0.3369 -0.2522
  330MOL0     C44428   4.582   0.172   6.058  0.3090  0.9678  0.2239
  330MOL0     C44429   4.448   0.181   6.144  0.0118  0.6855  0.0321
  330MOL0     C44430   4.321   0.150   6.069  0.7950  0.5323 -0.0468
  330MOL0     C44431   4.272   0.246   5.957  0.1715 -0.1538 -0.8666
  330MOL0     N44432   4.318   0.191   5.834 -0.4015 -0.7667 -1.4138
  330MOL0     C44433   4.254   0.093   5.770  0.5838 -0.0029  0.2108
  330MOL0     C44434   4.282   0.102   5.633 -0.0647 -0.9119 -0.6416
  330MOL0     C44435   4.253   0.008   5.527 -0.0337 -0.4155 -0.0373
  330MOL0     C44436   4.220  -0.137   5.575 -0.5628  0.0571  0.2104
  330MOL0     C44437   4.181  -0.211   5.450 -0.7479 -0.7998  1.0197
  330MOL0     C44438   4.128  -0.350   5.480  0.3003 -0.4935 -0.1812
  330MOL0     O44439   4.215  -0.432   5.564 -0.4842  0.1931  0.2430
  330MOL0     C44440   4.341  -0.456   5.516 -0.0870  0.9779 -0.1829
  330MOL0     C44441   4.442  -0.472   5.609 -0.5269  0.3255  0.4228
  330MOL0     C44442   4.572  -0.470   5.562 -0.6890  0.1343 -0.2833
  330MOL0     C44443   4.605  -0.456   5.436  1.0778 -0.3843 -0.0284
  330MOL0     C44444   4.747  -0.447   5.392  0.2323  0.2402  0.2226
  330MOL0     O44445   4.825  -0.370   5.474 -0.2875  0.3697 -0.8017
  330MOL0     C44446   4.963  -0.372   5.458  0.6553  0.2623  1.0845
  330MOL0     C44447   5.023  -0.258   5.408 -0.4973  0.7669  0.4666
  330MOL0     C44448   5.161  -0.245   5.386  0.9252 -0.2176 -0.6261
  330MOL0     C44449   5.240  -0.356   5.397 -0.2683 -0.6626  0.9356
  330MOL0     O44450   5.379  -0.339   5.382  0.9001  0.1382 -0.6428
  330MOL0     C44451   5.430  -0.411   5.262 -0.1592  0.2828 -0.1582
  330MOL0     C44452   5.580  -0.385   5.260 -0.1267 -0.9517  1.1462
  330MOL0     C44453   5.655  -0.387   5.398 -0.5469 -0.1586 -0.2704
  330MOL0     C44454   5.808  -0.420   5.380  0.4906 -0.1257 -0.6551
  330MOL0     C44455   5.894  -0.448   5.510  0.4934  0.3147 -0.6516
  330MOL0     C44456   6.039  -0.392   5.482 -0.0965  0.4722 -0.0334
  330MOL0     C44457   6.094  -0.488   5.369 -0.3204 -0.3341 -0.0658
  330MOL0     C44458   6.233  -0.466   5.318 -0.4049  0.2748  0.2145
  330MOL0    Cl44459   6.347  -0.499   5.459  0.4424 -0.1710 -0.4180
  330MOL0     C44460   5.184  -0.476   5.438 -0.0809  0.4391  0.3931
  330MOL0     C44461   5.045  -0.490   5.468 -0.3412  0.0979  0.0715
  330MOL0     O44462   4.784  -0.516   5.300  0.3431  0.0711 -0.3051
  330MOL0     C44463   4.503  -0.447   5.332  0.7433  0.8991 -0.0438
  330MOL0     C44464   4.373  -0.447   5.378 -0.3500  0.1968 -1.4464
  330MOL0     N44465   4.356   0.214   5.616 -0.5047 -0.0365  0.3885
  330MOL0     N44466   4.377   0.264   5.735  0.2842  0.2668 -0.2002
  330MOL0     C44467   5.173  -0.197   5.744  0.7516 -0.2721  1.3062
  330MOL0     C44468   5.311  -0.184   5.721 -1.0337 -0.0904 -0.3197
  330MOL0     C44469   5.740   0.019   5.735  0.1008 -0.7972  0.5856
  330MOL0     C44470   5.812  -0.097   5.738  0.0919  0.9017 -0.3321
  330MOL0     C44471   5.942  -0.108   5.697 -0.0514 -0.6492  0.3273
  330MOL0     C44472   6.013   0.003   5.656 -0.3861 -0.4052 -0.7838
  330MOL0     O44473   6.149  -0.007   5.621 -1.0767  0.0207 -0.1290
  330MOL0     C44474   6.248   0.019   5.724  0.6797 -0.2380  0.0361
  330MOL0     C44475   6.390   0.020   5.666  0.6799 -1.4924 -0.0784
  330MOL0     C44476   6.508   0.021   5.766 -0.2180 -0.4253  0.0323
  330MOL0     C44477   6.635  -0.032   5.700  0.1928 -0.4647 -0.8402
  330MOL0     C44478   6.640  -0.174   5.688  0.9023 -0.7854 -0.2775
  330MOL0     C44479   6.632  -0.291   5.663 -0.0344  0.6603 -0.3557
  330MOL0     C44480   5.955   0.132   5.674  0.0619 -0.0175  0.0956
  330MOL0     C44481   5.811   0.144   5.706 -0.4253  0.2238 -0.4915
  330MOL0     C44482   5.760   0.285   5.723  0.1249 -0.0627 -0.6901
  330MOL0     H44483   5.402  -0.006   6.000  0.2322 -1.1098  0.2752
  330MOL0     H44484   5.160  -0.029   6.031  1.1927  3.1343 -1.0989
  330MOL0     H44485   4.934  -0.039   5.726  1.2032 -0.1458  0.0337
  330MOL0     H44486   4.889  -0.217   5.714  1.4854 -0.3675  0.7796
  330MOL0     H44487   4.728  -0.180   5.913  0.1868  0.1780  0.1725
  330MOL0     H44488   4.676  -0.126   5.750 -1.1156  0.5714 -0.2118
  330MOL0     H44489   4.735   0.107   5.807 -1.5318  1.0197  1.2490
  330MOL0     H44490   4.823   0.049   5.944  0.6120  2.4015 -0.7861
  330MOL0     H44491   4.516   0.041   5.907  1.9618  0.3467 -3.4423
  330MOL0     H44492   4.589  -0.040   6.056  0.1203 -0.0792 -0.5788
  330MOL0     H44493   4.668   0.183   6.124  0.7933 -1.5893  0.1474
  330MOL0     H44494   4.574   0.250   5.982 -2.3970  2.0496  1.5295
  330MOL0     H44495   4.462   0.109   6.225 -1.6979  0.5146  0.2012
  330MOL0     H44496   4.431   0.285   6.175 -1.7680  2.3012 -5.2406
  330MOL0     H44497   4.243   0.147   6.145 -0.1771  0.6796 -1.0162
  330MOL0     H44498   4.337   0.048   6.031  4.2355  1.6330 -2.0753
  330MOL0     H44499   4.164   0.234   5.954 -0.0165  1.4606 -2.0364
  330MOL0     H44500   4.298   0.348   5.988 -0.0951 -0.1090 -0.7902
  330MOL0     H44501   4.197   0.017   5.823  0.5989  0.1124  0.3946
  330MOL0     H44502   4.168   0.042   5.468  1.7054 -2.9908 -4.4720
  330MOL0     H44503   4.344   0.009   5.466 -0.2278  3.1445 -0.4919
  330MOL0     H44504   4.313  -0.179   5.613 -1.7932 -2.7494  0.3627
  330MOL0     H44505   4.141  -0.138   5.650  1.2435  2.5067  2.3236
  330MOL0     H44506   4.269  -0.218   5.385 -0.4254 -1.6342  1.5255
  330MOL0     H44507   4.109  -0.152   5.393  2.7010  1.9436 -0.9077
  330MOL0     H44508   4.098  -0.405   5.391 -2.0958  1.6047 -0.7723
  330MOL0     H44509   4.033  -0.345   5.534  0.4017 -0.7394  0.0228
  330MOL0     H44510   4.413  -0.474   5.714 -4.1605 -0.9098 -0.4665
  330MOL0     H44511   4.654  -0.480   5.633 -0.7864  0.0430 -0.1827
  330MOL0     H44512   4.964  -0.168   5.396 -0.6447  0.9636  2.3580
  330MOL0     H44513   5.205  -0.150   5.361 -1.1643  1.2111  0.8269
  330MOL0     H44514   5.408  -0.519   5.263  2.3236 -0.3090  1.9411
  330MOL0     H44515   5.377  -0.367   5.177  2.2703  0.3999 -1.7010
  330MOL0     H44516   5.614  -0.459   5.187 -3.4354 -0.8110 -0.7560
  330MOL0     H44517   5.594  -0.291   5.207 -1.1315 -0.4338  1.7712
  330MOL0     H44518   5.642  -0.290   5.446 -0.0456  0.3837 -1.1891
  330MOL0     H44519   5.617  -0.467   5.462  1.9660 -1.2587 -0.0274
  330MOL0     H44520   5.850  -0.334   5.327  1.2633  0.1603  0.3990
  330MOL0     H44521   5.822  -0.509   5.318 -0.8758 -2.3256  1.9556
  330MOL0     H44522   5.897  -0.555   5.534  3.5434  0.5117  0.2891
  330MOL0     H44523   5.845  -0.397   5.593  0.6589 -2.1772  1.0947
  330MOL0     H44524   6.032  -0.289   5.445  1.3242  0.6656  0.1787
  330MOL0     H44525   6.104  -0.404   5.568  1.0357 -0.5360 -1.0029
  330MOL0     H44526   6.036  -0.468   5.278 -1.3090  3.4554  1.1775
  330MOL0     H44527   6.081  -0.593   5.397 -1.0725 -0.3982 -0.6198
  330MOL0     H44528   6.258  -0.543   5.243 -2.3610  1.0209 -1.2679
  330MOL0     H44529   6.236  -0.368   5.270 -1.7970  0.7679  1.0788
  330MOL0     H44530   5.250  -0.563   5.440 -0.0841  0.4475  0.9840
  330MOL0     H44531   5.018  -0.590   5.498  1.7259 -0.5501 -0.0738
  330MOL0     H44532   4.530  -0.435   5.228 -0.3366 -0.4736 -0.5200
  330MOL0     H44533   4.292  -0.437   5.307  0.7232 -0.8574 -2.8828
  330MOL0     H44534   5.122  -0.254   5.668  0.6461 -0.8895  1.8266
  330MOL0     H44535   5.344  -0.214   5.622 -0.7105  1.3225 -0.6586
  330MOL0     H44536   5.758  -0.191   5.742  0.0631  0.7553 -2.7575
  330MOL0     H44537   5.995  -0.203   5.696  1.8373  0.3483  1.1682
  330MOL0     H44538   6.232  -0.049   5.809  0.3844  1.3863  1.3380
  330MOL0     H44539   6.246   0.123   5.756 -0.6372  0.2236 -1.4664
  330MOL0     H44540   6.397   0.099   5.590 -1.1922 -1.2824 -0.0623
  330MOL0     H44541   6.393  -0.072   5.607 -0.9163 -1.2831 -0.5347
  330MOL0     H44542   6.487  -0.041   5.853  1.5360  0.7374  1.3434
  330MOL0     H44543   6.516   0.126   5.795 -0.7393 -0.7765  1.4995
  330MOL0     H44544   6.641   0.015   5.602  1.0149 -0.5020 -0.8131
  330MOL0     H44545   6.718   0.001   5.763 -1.3075 -1.2744  1.7553
  330MOL0     H44546   6.611  -0.393   5.639  0.3214 -0.0813  2.1219
  330MOL0     H44547   6.016   0.218   5.651  4.3223 -2.9072 -0.4866
  330MOL0     H44548   5.837   0.362   5.715 -0.8946  1.3254  1.7452
  330MOL0     H44549   5.689   0.286   5.640 -1.4355 -0.8634  0.5767
  330MOL0     H44550   5.716   0.298   5.822  2.0335  0.4862  0.1275
  331MOL0     O44551   8.079   4.907   9.759  0.6762  0.0237 -0.0946
  331MOL0     C44552   8.103   4.804   9.695 -0.0248  0.3889 -0.0178
  331MOL0     O44553   8.215   4.770   9.632  0.5623 -0.3359 -0.6234
  331MOL0     C44554   8.320   4.851   9.587  0.0504  0.3002  1.2779
  331MOL0     C44555   8.302   4.984   9.557  0.2688 -0.1039 -0.1583
  331MOL0     C44556   8.409   5.060   9.507  0.2010 -0.4876 -0.0158
  331MOL0     C44557   8.539   5.009   9.474 -0.2112 -0.7421  0.8618
  331MOL0     O44558   8.646   5.082   9.430 -0.5394 -1.1607  0.2997
  331MOL0     C44559   8.666   5.206   9.508 -0.5073  0.4272  0.3085
  331MOL0     C44560   8.794   5.278   9.462  0.1296 -0.3937 -0.1721
  331MOL0     C44561   8.919   5.197   9.499 -0.2676  0.4031  0.2333
  331MOL0     C44562   9.041   5.267   9.432  0.7161 -0.8269 -0.3554
  331MOL0     C44563   9.047   5.233   9.283 -0.0455  0.9367 -0.5827
  331MOL0     C44564   9.154   5.294   9.193  0.3837  0.6833 -0.1529
  331MOL0     C44565   9.289   5.276   9.249  1.2349 -0.2475 -0.5538
  331MOL0     C44566   9.405   5.311   9.147  0.3646  1.0554 -0.6032
  331MOL0     N44567   9.532   5.315   9.211 -0.3689  0.1289  0.3318
  331MOL0     C44568   9.610   5.207   9.243 -0.1179 -0.1841  0.5822
  331MOL0     C44569   9.724   5.254   9.299 -0.8263  0.9617  0.0710
  331MOL0     C44570   9.856   5.174   9.323  0.1396  0.1725  0.3463
  331MOL0     C44571   9.975   5.190   9.225  0.2739  0.1964 -0.0298
  331MOL0     C44572  10.053   5.316   9.243 -0.3116  0.8362  0.7211
  331MOL0     C44573  10.141   5.332   9.121 -0.2453 -0.1442  0.5134
  331MOL0     O44574  10.250   5.426   9.152  0.8642  0.5792 -0.2408
  331MOL0     C44575  10.330   5.458   9.048  0.1953 -1.3657 -0.1706
  331MOL0     C44576  10.317   5.420   8.919 -0.9719 -0.3905 -0.0101
  331MOL0     C44577  10.421   5.453   8.835 -0.5767 -0.4718  0.6055
  331MOL0     C44578  10.547   5.506   8.867  0.0528 -1.1781  0.1653
  331MOL0     C44579  10.652   5.503   8.766 -0.5893 -0.0445 -0.0269
  331MOL0     O44580  10.666   5.392   8.706 -0.3832  0.1892 -0.0718
  331MOL0     C44581  10.755   5.379   8.598 -0.1528 -0.0667 -0.9049
  331MOL0     C44582  10.733   5.450   8.473 -0.1351  1.1238  0.9692
  331MOL0     C44583  10.805   5.424   8.351  0.9422  0.8362 -0.4889
  331MOL0     C44584  10.898   5.311   8.359 -0.1940 -0.3704 -0.7068
  331MOL0     O44585  10.961   5.291   8.245  0.8876 -0.1885  0.4249
  331MOL0     C44586  11.022   5.158   8.222 -0.5643  0.2178 -0.0652
  331MOL0     C44587  11.038   5.116   8.070 -0.5834  0.2730 -0.2349
  331MOL0     C44588  10.921   5.036   8.015  0.5034 -0.1219 -0.0585
  331MOL0     C44589  10.945   4.994   7.867 -0.1198 -1.2357 -0.1617
  331MOL0     C44590  10.826   4.912   7.821 -0.1857  0.0802  0.3053
  331MOL0     C44591  10.815   4.896   7.666  1.4385  0.0239  0.8391
  331MOL0     C44592  10.665   4.858   7.622  0.0318 -0.5744  0.1273
  331MOL0     C44593  10.553   4.969   7.631 -0.2680  0.0403 -0.4320
  331MOL0    Cl44594  10.393   4.878   7.635  0.6322  0.3508  0.1427
  331MOL0     C44595  10.924   5.248   8.483  0.1710  0.5498 -0.0613
  331MOL0     C44596  10.852   5.274   8.598  0.2438 -0.1433  0.7029
  331MOL0     O44597  10.707   5.610   8.738  1.1550  0.9687  0.6092
  331MOL0     C44598  10.558   5.544   8.999 -0.6161 -1.0480  0.6778
  331MOL0     C44599  10.452   5.526   9.084  1.2314 -0.2129 -0.2891
  331MOL0     N44600   9.721   5.391   9.305 -0.7156  0.9096 -0.5000
  331MOL0     N44601   9.607   5.427   9.249 -0.5693  0.4638 -0.6193
  331MOL0     C44602   8.548   4.879   9.519  0.4746 -0.2078  0.1459
  331MOL0     C44603   8.446   4.796   9.575  0.0598  0.4083  0.4667
  331MOL0     C44604   7.992   4.701   9.686 -0.4991 -0.5037 -0.0279
  331MOL0     C44605   7.866   4.738   9.633  0.6900  0.4672  0.1780
  331MOL0     C44606   7.761   4.651   9.628 -0.2273  1.0352  0.2160
  331MOL0     C44607   7.777   4.523   9.695  0.3165 -0.3152 -0.1360
  331MOL0     O44608   7.680   4.422   9.705 -0.5212  0.2873 -0.2450
  331MOL0     C44609   7.539   4.449   9.732 -0.5929  0.5035  0.5546
  331MOL0     C44610   7.517   4.504   9.875 -0.0017  1.0416  0.9255
  331MOL0     C44611   7.547   4.396   9.983 -0.1142  1.2125  0.5033
  331MOL0     C44612   7.441   4.285   9.981  0.1842 -1.1348 -0.3900
  331MOL0     C44613   7.432   4.226  10.113 -0.5440  0.2408 -0.0877
  331MOL0     C44614   7.430   4.187  10.233  0.4655 -0.1720  0.0722
  331MOL0     C44615   7.902   4.482   9.731  0.7877  0.4698  0.0378
  331MOL0     C44616   8.013   4.566   9.735  0.8489  0.8723 -0.1861
  331MOL0     C44617   8.142   4.524   9.799  0.1326  0.4551 -0.6912
  331MOL0     H44618   8.208   5.038   9.564 -1.7656 -3.3571 -0.5449
  331MOL0     H44619   8.385   5.164   9.486 -0.8851 -0.6390  0.4178
  331MOL0     H44620   8.587   5.278   9.483 -0.9045 -0.6661 -1.8386
  331MOL0     H44621   8.665   5.176   9.613  3.3529 -0.3141  0.2570
  331MOL0     H44622   8.805   5.375   9.511 -1.0062 -0.1360 -0.3996
  331MOL0     H44623   8.786   5.297   9.354  0.9056  0.4737 -0.0905
  331MOL0     H44624   8.907   5.091   9.475 -2.0342  0.7426 -0.5240
  331MOL0     H44625   8.942   5.205   9.606 -2.6016 -0.5559  0.8562
  331MOL0     H44626   9.025   5.374   9.442  1.6252 -0.7359  0.2393
  331MOL0     H44627   9.137   5.239   9.477 -0.1268 -1.5344  1.0585
  331MOL0     H44628   9.062   5.124   9.278  3.5565  1.3616 -1.5689
  331MOL0     H44629   8.957   5.261   9.228  1.6069  1.7594 -3.0471
  331MOL0     H44630   9.159   5.248   9.094  4.0430  0.3740  0.0474
  331MOL0     H44631   9.131   5.401   9.192  2.2359  1.1187  0.1056
  331MOL0     H44632   9.301   5.170   9.276  2.6930  0.0472  0.0561
  331MOL0     H44633   9.289   5.331   9.344  0.1922 -2.4185  0.7925
  331MOL0     H44634   9.391   5.240   9.065 -2.5513  0.1163  0.5699
  331MOL0     H44635   9.385   5.405   9.094  1.9906  2.1177  0.5763
  331MOL0     H44636   9.597   5.104   9.211  1.2853 -0.1863 -0.0674
  331MOL0     H44637   9.894   5.205   9.421 -1.4710 -1.0513  1.4118
  331MOL0     H44638   9.820   5.073   9.342 -0.1548  0.2496  0.2113
  331MOL0     H44639  10.043   5.104   9.223 -0.3746 -0.3306 -1.8412
  331MOL0     H44640   9.927   5.200   9.127 -1.5964  0.1988  0.8531
  331MOL0     H44641  10.114   5.279   9.326 -1.8183  0.0307  1.5105
  331MOL0     H44642   9.988   5.403   9.255 -1.5544  0.4335 -2.2567
  331MOL0     H44643  10.080   5.349   9.032 -0.5879 -0.6532  0.6446
  331MOL0     H44644  10.192   5.235   9.112  0.8705  0.3271  1.4501
  331MOL0     H44645  10.239   5.384   8.853  2.3257  0.1217 -4.7522
  331MOL0     H44646  10.411   5.436   8.728 -0.1898  2.0131  0.1025
  331MOL0     H44647  10.669   5.537   8.464 -1.2732  0.2026 -0.1513
  331MOL0     H44648  10.774   5.489   8.269 -0.5225 -0.1746 -0.7691
  331MOL0     H44649  11.125   5.162   8.257 -1.0326 -0.5854  1.5299
  331MOL0     H44650  10.966   5.073   8.264  2.1816 -3.3890 -3.0040
  331MOL0     H44651  11.041   5.205   8.006  0.2316 -0.5942 -1.4505
  331MOL0     H44652  11.129   5.059   8.049 -1.5317 -1.2522 -0.3338
  331MOL0     H44653  10.891   4.955   8.082 -0.4099  0.6683  0.5071
  331MOL0     H44654  10.834   5.102   8.014  0.5596  0.0774  2.6339
  331MOL0     H44655  11.034   4.930   7.861 -1.5352 -3.2198 -1.1355
  331MOL0     H44656  10.967   5.079   7.801  0.0833 -0.6421  0.6549
  331MOL0     H44657  10.729   4.958   7.842 -0.9713 -1.5943  0.5141
  331MOL0     H44658  10.838   4.812   7.863  1.1751  0.0756 -0.0393
  331MOL0     H44659  10.835   4.986   7.607 -1.9023 -0.9070 -2.0796
  331MOL0     H44660  10.882   4.819   7.628  0.1298 -0.5534 -0.4040
  331MOL0     H44661  10.633   4.774   7.684 -0.3120 -0.3484  0.2559
  331MOL0     H44662  10.681   4.812   7.524  1.5213 -2.4164  1.1539
  331MOL0     H44663  10.561   5.028   7.723  1.4524 -1.0405  0.1585
  331MOL0     H44664  10.560   5.041   7.549 -2.8188  3.0939  1.7610
  331MOL0     H44665  11.012   5.184   8.487  1.2217  1.8702 -1.0590
  331MOL0     H44666  10.881   5.224   8.690  1.2005  1.2395  1.1980
  331MOL0     H44667  10.655   5.590   9.014 -0.8030 -0.1577 -0.6776
  331MOL0     H44668  10.462   5.542   9.191  1.3374  0.5811 -0.4194
  331MOL0     H44669   8.644   4.829   9.505 -0.0849 -1.7217  1.3221
  331MOL0     H44670   8.473   4.693   9.597 -0.3647 -0.0477 -1.0439
  331MOL0     H44671   7.846   4.836   9.590  1.9488  0.9382  0.6222
  331MOL0     H44672   7.668   4.683   9.583 -1.1396 -1.7827 -0.1376
  331MOL0     H44673   7.481   4.359   9.710  1.6118 -0.5142 -1.4857
  331MOL0     H44674   7.517   4.528   9.660  0.0557 -0.7605 -1.0931
  331MOL0     H44675   7.420   4.551   9.892 -0.9632 -1.1200  1.8220
  331MOL0     H44676   7.594   4.580   9.894  2.4290 -1.1535  0.5007
  331MOL0     H44677   7.538   4.453  10.076  1.6172  1.7180  0.4007
  331MOL0     H44678   7.650   4.359   9.980 -0.6795 -0.4770  0.9539
  331MOL0     H44679   7.353   4.349   9.977  2.0473  1.5738 -1.5941
  331MOL0     H44680   7.450   4.219   9.894 -2.3249 -0.6119 -1.1107
  331MOL0     H44681   7.407   4.155  10.333 -0.7923  4.5705  1.5432
  331MOL0     H44682   7.910   4.383   9.775 -2.7656 -1.7889 -3.6584
  331MOL0     H44683   8.221   4.519   9.724  0.1275 -3.4738 -0.6383
  331MOL0     H44684   8.140   4.597   9.880  1.2359 -1.5956  1.2874
  331MOL0     H44685   8.141   4.423   9.841 -2.7714  0.8260  0.3308
  332MOL0     O44686   8.906   6.050   6.249 -0.1690  0.1059 -0.0890
  332MOL0     C44687   8.836   6.043   6.349  0.8147 -0.6859  0.3069
  332MOL0     O44688   8.864   6.080   6.481  0.3014  0.1818 -0.3747
  332MOL0     C44689   9.002   6.077   6.521 -0.4077  0.5894 -1.1162
  332MOL0     C44690   9.046   5.984   6.608 -0.1579  0.0294 -0.1481
  332MOL0     C44691   9.181   5.981   6.663  0.4475  0.2925 -0.1163
  332MOL0     C44692   9.268   6.074   6.614  1.0270  0.7797 -0.5366
  332MOL0     O44693   9.390   6.070   6.672  0.3276 -0.1821 -0.4199
  332MOL0     C44694   9.422   6.194   6.739  0.6643  0.4143 -1.0862
  332MOL0     C44695   9.482   6.168   6.875  0.6459  0.4814  0.8422
  332MOL0     C44696   9.593   6.068   6.873  0.1008 -0.1110  0.0163
  332MOL0     C44697   9.658   6.050   7.002 -0.1883  0.3631 -0.8814
  332MOL0     C44698   9.785   5.963   6.995  0.0209  0.0643  0.0621
  332MOL0     C44699   9.861   5.947   7.128  0.1332  0.3660 -0.4198
  332MOL0     C44700   9.976   5.862   7.118 -0.2001 -0.1995  0.1233
  332MOL0     C44701  10.050   5.850   7.250  0.0095 -0.2956 -0.0962
  332MOL0     N44702  10.170   5.768   7.226  0.3237  0.0788 -0.3888
  332MOL0     C44703  10.293   5.808   7.252  0.8419  0.3090 -0.3102
  332MOL0     C44704  10.375   5.715   7.196 -0.2270 -0.2937 -0.2212
  332MOL0     C44705  10.529   5.742   7.171  0.8707  0.8341  0.2489
  332MOL0     C44706  10.611   5.837   7.266 -0.1483  0.5624 -0.1803
  332MOL0     C44707  10.754   5.854   7.218  0.2783 -0.2195  0.5446
  332MOL0     C44708  10.852   5.745   7.253 -0.3534 -0.3470  0.5342
  332MOL0     O44709  10.981   5.789   7.208  0.0557  0.4594 -0.3714
  332MOL0     C44710  11.102   5.732   7.236 -0.5816  0.0080 -0.1657
  332MOL0     C44711  11.216   5.821   7.241 -0.1596  0.4134 -0.0722
  332MOL0     C44712  11.338   5.755   7.240 -0.0606 -0.2087 -0.3890
  332MOL0     C44713  11.352   5.614   7.261  0.4885  0.5499  0.0760
  332MOL0     C44714  11.486   5.552   7.270  0.2329  0.7089  0.3957
  332MOL0     O44715  11.491   5.429   7.228 -0.6535  0.3051 -0.1493
  332MOL0     C44716  11.617   5.380   7.212 -0.5567  0.3544 -0.8363
  332MOL0     C44717  11.670   5.302   7.313 -0.8134 -0.2646  0.4768
  332MOL0     C44718  11.795   5.238   7.295  0.2061  0.4551 -0.4100
  332MOL0     C44719  11.868   5.248   7.181 -0.1205 -0.0564 -0.4319
  332MOL0     O44720  11.991   5.183   7.170 -0.2031  0.7981 -0.6342
  332MOL0     C44721  12.102   5.253   7.126  0.1989  0.0884  0.4527
  332MOL0     C44722  12.137   5.362   7.224 -0.3708 -0.2317 -0.2473
  332MOL0     C44723  12.283   5.376   7.214  0.5549  0.0598  0.6917
  332MOL0     C44724  12.335   5.504   7.291  0.7547 -0.0157  0.3157
  332MOL0     C44725  12.479   5.532   7.270  0.1450  0.6358 -0.3843
  332MOL0     C44726  12.530   5.654   7.339  1.1281 -0.2964 -0.2017
  332MOL0     C44727  12.687   5.668   7.345 -0.5063  0.5171 -0.0860
  332MOL0     C44728  12.764   5.741   7.228 -0.1055 -0.1195  0.2848
  332MOL0    Cl44729  12.932   5.767   7.285  0.1990 -0.0257  0.2232
  332MOL0     C44730  11.814   5.325   7.084  0.3507 -0.0990  0.5512
  332MOL0     C44731  11.694   5.403   7.097  0.1637 -0.2143 -0.2316
  332MOL0     O44732  11.577   5.621   7.315  0.1943 -0.4627 -0.4160
  332MOL0     C44733  11.236   5.538   7.269  0.0371 -0.1637  0.9845
  332MOL0     C44734  11.119   5.596   7.257  0.2528  1.0022  0.0468
  332MOL0     N44735  10.296   5.617   7.133  0.2949  0.2519 -0.4771
  332MOL0     N44736  10.170   5.650   7.157  0.0759  0.3017 -0.1198
  332MOL0     C44737   9.226   6.170   6.518  0.2645  0.0806 -0.5153
  332MOL0     C44738   9.091   6.173   6.467 -0.1960 -0.2803 -0.5471
  332MOL0     C44739   8.693   5.988   6.332 -0.1728 -0.5413  0.6837
  332MOL0     C44740   8.637   5.995   6.203 -0.9284 -0.7753 -0.4385
  332MOL0     C44741   8.501   5.964   6.187 -0.5014  0.1267  0.4333
  332MOL0     C44742   8.427   5.911   6.289  0.0220  0.0082  0.8834
  332MOL0     O44743   8.293   5.860   6.280  0.2451 -0.1753 -0.2052
  332MOL0     C44744   8.215   5.886   6.161  0.4239  0.5486  0.8617
  332MOL0     C44745   8.246   5.786   6.053 -0.2718 -0.6413 -0.4180
  332MOL0     C44746   8.124   5.775   5.969 -0.4212  0.0388  0.2958
  332MOL0     C44747   8.145   5.692   5.840  0.1237 -0.1568  0.5056
  332MOL0     C44748   8.143   5.544   5.860 -1.1533  0.2946  1.0248
  332MOL0     C44749   8.131   5.425   5.865 -0.1404 -0.2609 -0.1254
  332MOL0     C44750   8.480   5.898   6.418 -0.2882 -0.0811 -0.1718
  332MOL0     C44751   8.612   5.939   6.439 -0.3046  0.9738 -0.2642
  332MOL0     C44752   8.657   5.918   6.586 -0.3829  0.1055  0.2520
  332MOL0     H44753   8.970   5.912   6.638 -1.5730  0.5468 -2.2519
  332MOL0     H44754   9.216   5.910   6.737 -0.0656  0.1821  0.0265
  332MOL0     H44755   9.503   6.236   6.679  1.1240 -1.0293 -1.4936
  332MOL0     H44756   9.339   6.261   6.762 -1.1152 -2.3303  1.1709
  332MOL0     H44757   9.407   6.120   6.938 -1.2648  0.5385 -1.3077
  332MOL0     H44758   9.511   6.266   6.914  0.7035 -0.1616  2.4997
  332MOL0     H44759   9.671   6.095   6.801 -0.3978  3.5317  0.6437
  332MOL0     H44760   9.555   5.969   6.845  2.4889 -1.0090 -0.3158
  332MOL0     H44761   9.680   6.151   7.037 -1.2388 -0.2835  1.9233
  332MOL0     H44762   9.595   6.001   7.078 -1.2956  0.7579 -1.5241
  332MOL0     H44763   9.753   5.867   6.953  1.2694  0.5802 -2.2558
  332MOL0     H44764   9.859   5.997   6.922 -0.2268 -2.3311 -1.4230
  332MOL0     H44765   9.885   6.043   7.176 -0.3439  0.2647  0.0410
  332MOL0     H44766   9.795   5.900   7.202  3.3162 -2.2369  1.0334
  332MOL0     H44767  10.048   5.898   7.044 -1.6337  0.2831 -1.0812
  332MOL0     H44768   9.922   5.771   7.093 -1.4933  0.5135  0.2773
  332MOL0     H44769  10.070   5.951   7.287 -0.6116  2.1750 -5.4912
  332MOL0     H44770   9.978   5.795   7.311  0.8351 -4.6026 -2.6518
  332MOL0     H44771  10.323   5.896   7.309 -1.4363 -0.0581  1.5858
  332MOL0     H44772  10.572   5.642   7.177  0.9022  0.7706 -0.8646
  332MOL0     H44773  10.537   5.772   7.066  0.5609  1.2925  0.3495
  332MOL0     H44774  10.564   5.935   7.272 -0.1998  0.4798  0.9625
  332MOL0     H44775  10.616   5.800   7.369 -0.5976  1.4282  0.1590
  332MOL0     H44776  10.789   5.949   7.260  0.5537 -0.7286  1.4869
  332MOL0     H44777  10.752   5.851   7.108 -0.3372 -1.7767  0.5768
  332MOL0     H44778  10.826   5.652   7.203 -0.4588  1.7648 -3.8447
  332MOL0     H44779  10.859   5.733   7.362  0.4068 -2.9837  0.2600
  332MOL0     H44780  11.210   5.929   7.242 -2.2501  0.3529 -1.2384
  332MOL0     H44781  11.431   5.811   7.232 -1.4031  2.0832 -1.0508
  332MOL0     H44782  11.618   5.299   7.408 -0.5670  1.5827  0.7038
  332MOL0     H44783  11.836   5.187   7.382 -2.0993  1.0038  1.1182
  332MOL0     H44784  12.181   5.178   7.115 -0.9884 -1.9423  4.0488
  332MOL0     H44785  12.081   5.298   7.028  2.2718  2.1259  0.8636
  332MOL0     H44786  12.088   5.457   7.198 -2.2249 -1.4167 -1.2339
  332MOL0     H44787  12.114   5.333   7.326  3.2299  2.0060  1.4200
  332MOL0     H44788  12.338   5.290   7.251  2.3020  1.4324  1.4464
  332MOL0     H44789  12.311   5.376   7.109 -0.0867 -3.0159  0.4414
  332MOL0     H44790  12.311   5.491   7.397  0.0995  2.3227  0.5129
  332MOL0     H44791  12.277   5.581   7.239  4.7830  2.0414 -1.6594
  332MOL0     H44792  12.499   5.540   7.162  2.8415  2.2137  0.1304
  332MOL0     H44793  12.536   5.449   7.313 -1.5057  0.5547  1.8139
  332MOL0     H44794  12.485   5.738   7.285  0.1910 -0.1465  0.7669
  332MOL0     H44795  12.486   5.656   7.439 -0.9734 -1.9069 -0.9921
  332MOL0     H44796  12.729   5.568   7.359  0.0499  0.3351 -2.6115
  332MOL0     H44797  12.731   5.729   7.425  1.1331  2.3042 -2.2273
  332MOL0     H44798  12.764   5.679   7.137 -2.1677 -0.6711  0.5922
  332MOL0     H44799  12.716   5.833   7.194  0.7148  0.4825  0.7421
  332MOL0     H44800  11.864   5.339   6.989  0.1394  0.6145  0.5376
  332MOL0     H44801  11.641   5.459   7.020 -0.0302 -2.0586 -1.4991
  332MOL0     H44802  11.245   5.430   7.265 -0.0371 -0.1178 -1.6505
  332MOL0     H44803  11.033   5.535   7.284  1.5854 -1.0281 -0.0166
  332MOL0     H44804   9.302   6.230   6.469 -0.7841  0.9562 -1.1187
  332MOL0     H44805   9.060   6.247   6.394  0.2305  0.3991 -0.0584
  332MOL0     H44806   8.699   6.022   6.119 -1.0315 -0.2222 -0.3419
  332MOL0     H44807   8.456   5.971   6.089  0.6645  0.3469 -0.1064
  332MOL0     H44808   8.225   5.986   6.118 -1.2490 -0.6203 -2.6777
  332MOL0     H44809   8.110   5.876   6.189  0.5617 -2.3005  0.6053
  332MOL0     H44810   8.271   5.690   6.099 -0.1832  0.3740  1.7620
  332MOL0     H44811   8.332   5.812   5.990  1.4130 -2.9857  0.7605
  332MOL0     H44812   8.093   5.877   5.941 -0.8459 -0.1138  0.2011
  332MOL0     H44813   8.035   5.739   6.022  0.9136  1.7315  4.1272
  332MOL0     H44814   8.076   5.731   5.764 -1.9946 -1.3853  1.6826
  332MOL0     H44815   8.246   5.706   5.802  1.2213  0.8988  3.5692
  332MOL0     H44816   8.126   5.325   5.903 -0.8346 -0.0142  0.4671
  332MOL0     H44817   8.414   5.867   6.498 -0.6900  2.8692  0.7419
  332MOL0     H44818   8.759   5.880   6.587  0.4132  1.8904 -2.1539
  332MOL0     H44819   8.649   6.012   6.642  0.8268 -0.5054  1.4917
  332MOL0     H44820   8.592   5.839   6.625 -2.2514  1.9347  1.0584
  333MOL0     O44821   1.198   4.863  11.086  0.4934 -0.3613 -0.0622
  333MOL0     C44822   1.091   4.926  11.069 -0.5837  0.7640 -0.5512
  333MOL0     O44823   1.084   5.061  11.030  0.0727 -0.0982 -0.3164
  333MOL0     C44824   1.199   5.117  10.977 -0.5194 -0.0253 -0.7823
  333MOL0     C44825   1.277   5.203  11.052 -0.0133 -0.5525 -0.0954
  333MOL0     C44826   1.396   5.253  10.995  0.3912  0.5955 -0.4412
  333MOL0     C44827   1.443   5.219  10.865 -1.0431  0.0663  0.3340
  333MOL0     O44828   1.563   5.272  10.820  0.0135  0.5624  0.5548
  333MOL0     C44829   1.607   5.225  10.690  0.0520 -0.3232 -0.3848
  333MOL0     C44830   1.747   5.278  10.670 -0.6660 -0.3425  0.7611
  333MOL0     C44831   1.786   5.235  10.526  0.7221  0.3455  0.4701
  333MOL0     C44832   1.887   5.128  10.530 -0.5290  0.0203 -0.2120
  333MOL0     C44833   1.908   5.083  10.387  0.1804 -0.1045  0.2991
  333MOL0     C44834   1.975   5.189  10.291  0.1165 -0.0838 -0.8571
  333MOL0     C44835   2.074   5.133  10.191  0.3622  0.6408  0.2604
  333MOL0     C44836   1.993   5.050  10.085 -0.2189  0.7792  0.2322
  333MOL0     N44837   2.037   4.911  10.084 -0.1783  0.0146 -0.1266
  333MOL0     C44838   2.162   4.872  10.107 -0.1122 -0.7567 -0.1392
  333MOL0     C44839   2.161   4.744  10.079  0.2746 -1.1891 -1.4170
  333MOL0     C44840   2.283   4.656  10.076  0.2018  1.4046  0.0813
  333MOL0     C44841   2.239   4.509  10.130  0.4147 -0.1231  0.3623
  333MOL0     C44842   2.159   4.507  10.261 -0.7631 -0.0254  0.0224
  333MOL0     C44843   2.117   4.359  10.271 -0.8974  0.3347 -0.9233
  333MOL0     O44844   2.076   4.356  10.412  0.4236  0.3439  0.3577
  333MOL0     C44845   2.160   4.298  10.509 -0.2597  0.1091 -0.4953
  333MOL0     C44846   2.298   4.279  10.490 -0.1504  0.6952 -0.2451
  333MOL0     C44847   2.370   4.186  10.562 -0.5977  0.6439 -0.4731
  333MOL0     C44848   2.311   4.111  10.680 -0.1926 -0.4209  0.3054
  333MOL0     C44849   2.390   4.010  10.759 -0.7137 -0.0331  0.7979
  333MOL0     O44850   2.319   3.955  10.858  0.5725 -0.0371 -0.3015
  333MOL0     C44851   2.364   3.855  10.938  0.7464 -0.2715 -0.0423
  333MOL0     C44852   2.268   3.772  10.992  0.9836 -0.3222 -0.4820
  333MOL0     C44853   2.296   3.658  11.063  0.6132 -0.5001  0.2799
  333MOL0     C44854   2.433   3.628  11.088  0.3990 -0.1117 -0.2314
  333MOL0     O44855   2.464   3.510  11.142 -0.5143 -0.6206 -0.1197
  333MOL0     C44856   2.500   3.523  11.278  0.1243 -0.1681  0.0310
  333MOL0     C44857   2.576   3.399  11.319  0.1666  0.5003 -0.3919
  333MOL0     C44858   2.726   3.401  11.300 -0.4834  0.0387  0.4133
  333MOL0     C44859   2.778   3.379  11.148 -0.9946 -0.1780 -0.7971
  333MOL0     C44860   2.914   3.446  11.110 -0.3913  0.5106 -0.0253
  333MOL0     C44861   2.965   3.420  10.963  0.2823 -0.3328 -0.1468
  333MOL0     C44862   2.887   3.520  10.863  0.1432  0.5967  0.2373
  333MOL0     C44863   2.768   3.446  10.797  0.3861 -0.1244  0.2246
  333MOL0    Cl44864   2.826   3.311  10.688 -0.1088  0.1408 -0.4836
  333MOL0     C44865   2.532   3.705  11.030 -0.4086 -1.1279 -0.2803
  333MOL0     C44866   2.501   3.826  10.962  0.2142 -0.5483 -0.0209
  333MOL0     O44867   2.506   3.982  10.716 -0.2366 -0.0902 -0.0775
  333MOL0     C44868   2.172   4.136  10.701  0.1841  0.2990 -0.2987
  333MOL0     C44869   2.102   4.226  10.619  0.1528  0.3983  0.5339
  333MOL0     N44870   2.033   4.702  10.047  1.1409 -0.6020 -0.8438
  333MOL0     N44871   1.960   4.804  10.052 -0.1240  0.3798 -0.5012
  333MOL0     C44872   1.359   5.139  10.795  0.2445  0.2258  0.4294
  333MOL0     C44873   1.243   5.082  10.847  0.0301  0.5530  0.4793
  333MOL0     C44874   0.960   4.852  11.085 -1.0877 -0.4456  0.3175
  333MOL0     C44875   0.847   4.931  11.071  0.1264 -0.3677 -0.0779
  333MOL0     C44876   0.723   4.893  11.103 -0.0593 -0.0733  0.9631
  333MOL0     C44877   0.700   4.762  11.141  0.2258  0.6444  0.5517
  333MOL0     O44878   0.583   4.696  11.172 -0.3686  0.1413  0.1143
  333MOL0     C44879   0.470   4.778  11.201  0.9869 -0.1917  0.7674
  333MOL0     C44880   0.359   4.681  11.230 -0.0519 -0.6243  0.1709
  333MOL0     C44881   0.227   4.762  11.275 -0.8022 -0.2052  0.5200
  333MOL0     C44882   0.114   4.679  11.333  0.1490  0.4871 -0.0144
  333MOL0     C44883   0.160   4.593  11.440 -0.4656  0.3971 -0.1498
  333MOL0     C44884   0.214   4.537  11.534 -0.8917 -0.2068  0.1555
  333MOL0     C44885   0.807   4.679  11.152  0.4507 -0.2369 -0.6103
  333MOL0     C44886   0.936   4.718  11.127  0.9056  0.1813 -0.0356
  333MOL0     C44887   1.053   4.623  11.146  0.9633  0.0496 -0.0547
  333MOL0     H44888   1.270   5.237  11.155  0.1782  0.3345 -0.3688
  333MOL0     H44889   1.453   5.321  11.057 -1.5663  0.8476  1.1870
  333MOL0     H44890   1.622   5.117  10.683  1.1406 -0.1939 -0.1179
  333MOL0     H44891   1.537   5.251  10.610  1.7787 -0.5641 -2.0438
  333MOL0     H44892   1.817   5.231  10.739 -1.2464 -1.4639  0.6234
  333MOL0     H44893   1.746   5.387  10.679  0.7373  0.0544 -2.3754
  333MOL0     H44894   1.832   5.317  10.470 -1.9328  0.6337 -1.5111
  333MOL0     H44895   1.704   5.198  10.464 -0.7890 -1.6114  3.4311
  333MOL0     H44896   1.978   5.162  10.580 -0.9403 -0.0582  0.6205
  333MOL0     H44897   1.835   5.052  10.590  1.5856 -1.4297 -0.1351
  333MOL0     H44898   1.981   5.002  10.402  2.5600  0.8686 -4.3372
  333MOL0     H44899   1.821   5.032  10.344 -0.6408 -1.3242  3.1591
  333MOL0     H44900   1.903   5.244  10.231  0.6695 -2.3736 -3.8567
  333MOL0     H44901   2.037   5.261  10.344  4.3467 -3.5645 -0.5322
  333MOL0     H44902   2.159   5.079  10.233 -1.8013 -2.5021  0.9087
  333MOL0     H44903   2.111   5.218  10.133 -0.0291  0.6183 -0.0340
  333MOL0     H44904   1.885   5.053  10.102 -0.1822 -1.4051  1.2693
  333MOL0     H44905   2.004   5.086   9.983 -2.2946 -3.0712 -1.5710
  333MOL0     H44906   2.256   4.922  10.127 -0.4446 -0.4825  0.7890
  333MOL0     H44907   2.318   4.646   9.973  0.5017 -0.3496  0.3201
  333MOL0     H44908   2.368   4.698  10.131 -0.4022  1.3373  1.0986
  333MOL0     H44909   2.174   4.476  10.049 -0.1786 -0.5731  1.0111
  333MOL0     H44910   2.335   4.458  10.136  0.0717 -0.7890  0.2656
  333MOL0     H44911   2.077   4.579  10.258 -0.4736  0.3315  0.5367
  333MOL0     H44912   2.217   4.537  10.349 -2.2684  3.1654  0.0378
  333MOL0     H44913   2.202   4.293  10.254 -1.0230 -0.4753  1.2856
  333MOL0     H44914   2.038   4.330  10.200  0.7802 -0.7770 -2.4214
  333MOL0     H44915   2.347   4.331  10.407  2.2143  0.9192  1.1977
  333MOL0     H44916   2.476   4.171  10.548 -0.2778 -0.7438  2.6180
  333MOL0     H44917   2.161   3.781  10.977  0.7368 -1.6196  0.2471
  333MOL0     H44918   2.204   3.607  11.088 -0.3313 -1.0502 -3.7841
  333MOL0     H44919   2.553   3.616  11.301 -0.9179  0.2003  1.0466
  333MOL0     H44920   2.417   3.525  11.349  1.9865  0.0152  2.3436
  333MOL0     H44921   2.567   3.385  11.427  1.7309 -1.1039 -0.4316
  333MOL0     H44922   2.534   3.315  11.262  2.3589 -3.7124  3.5674
  333MOL0     H44923   2.761   3.499  11.332 -1.4564  0.8244 -0.8412
  333MOL0     H44924   2.762   3.310  11.349  0.5329 -1.9296 -3.5655
  333MOL0     H44925   2.702   3.420  11.081 -1.0011 -1.3529 -1.5424
  333MOL0     H44926   2.790   3.271  11.131  0.9695  0.0799 -1.2764
  333MOL0     H44927   2.998   3.406  11.168  0.5001  1.0224 -0.9324
  333MOL0     H44928   2.918   3.554  11.127  2.5651  0.2167  1.9122
  333MOL0     H44929   3.068   3.450  10.982 -0.8775  2.1903  2.9639
  333MOL0     H44930   2.953   3.317  10.928 -1.6186 -0.3172  0.3376
  333MOL0     H44931   2.967   3.539  10.791  0.1935 -0.6952 -0.0775
  333MOL0     H44932   2.858   3.615  10.909 -0.6625  1.2943 -1.5875
  333MOL0     H44933   2.695   3.413  10.871 -1.8901  3.2282 -0.3049
  333MOL0     H44934   2.717   3.517  10.730  2.7014  1.2002 -0.2461
  333MOL0     H44935   2.632   3.675  11.061 -0.9496 -0.5620  2.2363
  333MOL0     H44936   2.591   3.882  10.940 -1.1619  1.3680 -1.0902
  333MOL0     H44937   2.122   4.078  10.778 -1.0088  0.7468 -0.7255
  333MOL0     H44938   1.998   4.241  10.643  0.3688  2.2317  0.4915
  333MOL0     H44939   1.392   5.098  10.701  0.6592 -1.9247  1.4502
  333MOL0     H44940   1.188   5.006  10.792 -0.3652  1.2243 -0.0682
  333MOL0     H44941   0.850   5.031  11.029 -0.2905 -0.6557 -0.8121
  333MOL0     H44942   0.643   4.955  11.065  0.2754 -0.9661 -1.3601
  333MOL0     H44943   0.450   4.842  11.115  1.2091 -0.0647  0.8088
  333MOL0     H44944   0.473   4.836  11.294 -0.2237 -0.3206  0.9136
  333MOL0     H44945   0.395   4.614  11.309  1.7173  1.5806  1.3420
  333MOL0     H44946   0.330   4.620  11.144 -0.6624  1.7212 -1.3874
  333MOL0     H44947   0.204   4.828  11.191  0.9223 -0.6210 -0.3216
  333MOL0     H44948   0.253   4.826  11.360 -0.5438 -0.7410  0.8504
  333MOL0     H44949   0.028   4.744  11.352 -0.2195  0.7546 -2.2595
  333MOL0     H44950   0.083   4.622  11.244  1.7532 -1.8603  0.8372
  333MOL0     H44951   0.268   4.494  11.615  1.1150  0.8501 -0.5505
  333MOL0     H44952   0.784   4.577  11.181  1.3432 -1.1430 -2.8975
  333MOL0     H44953   1.010   4.529  11.182 -0.6222  0.2535 -1.3049
  333MOL0     H44954   1.109   4.615  11.052 -1.2114  0.0331 -1.4106
  333MOL0     H44955   1.115   4.670  11.223  0.9425  1.4880 -0.8774
  334MOL0     O44956   0.858   2.514   8.934  0.9780 -0.4858 -0.4704
  334MOL0     C44957   0.953   2.586   8.906 -0.3195  0.0718 -0.7001
  334MOL0     O44958   0.949   2.694   8.819  0.0311  0.2972  0.3601
  334MOL0     C44959   0.833   2.720   8.757  0.3039  1.5655  0.1766
  334MOL0     C44960   0.751   2.622   8.694 -0.4921  0.2444 -0.3260
  334MOL0     C44961   0.629   2.635   8.638 -1.0473  0.1611  0.0703
  334MOL0     C44962   0.586   2.769   8.629 -0.1143 -0.1214  0.1717
  334MOL0     O44963   0.467   2.790   8.562 -0.0714  0.1549  0.1704
  334MOL0     C44964   0.364   2.884   8.612 -0.4114 -0.0670 -0.2246
  334MOL0     C44965   0.256   2.897   8.503 -0.0534  0.2728  0.1348
  334MOL0     C44966   0.131   2.802   8.525 -0.7808  0.0686  0.5333
  334MOL0     C44967   0.029   2.807   8.414 -0.4773  0.4522 -0.0169
  334MOL0     C44968  -0.098   2.735   8.452 -0.2738 -0.3221 -0.4603
  334MOL0     C44969  -0.179   2.722   8.324  0.0622 -0.0400 -0.1292
  334MOL0     C44970  -0.300   2.630   8.347 -0.3686  1.0982  0.8744
  334MOL0     C44971  -0.382   2.629   8.224  0.2888  0.2065  0.0621
  334MOL0     N44972  -0.510   2.560   8.237  0.7119  0.2819  0.1711
  334MOL0     C44973  -0.614   2.567   8.329 -0.2224 -1.0362  0.4067
  334MOL0     C44974  -0.701   2.466   8.299  0.0773 -0.3956 -1.2606
  334MOL0     C44975  -0.839   2.452   8.364 -0.5551  0.0409 -0.6944
  334MOL0     C44976  -0.837   2.409   8.507 -0.4755  0.5146  0.9062
  334MOL0     C44977  -0.761   2.499   8.598  0.6060  0.6086 -0.2882
  334MOL0     C44978  -0.819   2.641   8.615  0.0523  0.8576 -0.1332
  334MOL0     O44979  -0.786   2.694   8.738  0.4247  0.1141  0.4992
  334MOL0     C44980  -0.677   2.768   8.773 -0.3714 -0.4846  0.5968
  334MOL0     C44981  -0.593   2.828   8.677 -0.5264 -0.1044  0.1092
  334MOL0     C44982  -0.485   2.912   8.716 -0.5766  0.9583  0.3054
  334MOL0     C44983  -0.479   2.952   8.851 -0.6066  0.1495 -0.8345
  334MOL0     C44984  -0.372   3.041   8.899  0.9017 -0.4316  0.4279
  334MOL0     O44985  -0.324   3.045   9.028  0.9198  0.2198 -0.1328
  334MOL0     C44986  -0.200   3.100   9.047  0.0668  0.2798  0.1099
  334MOL0     C44987  -0.076   3.042   9.025  0.1994 -0.2842 -0.2911
  334MOL0     C44988   0.054   3.097   9.053  0.3899  0.3482 -0.5048
  334MOL0     C44989   0.051   3.217   9.122  0.0632  0.3672  0.3068
  334MOL0     O44990   0.154   3.292   9.180 -0.5660 -0.0880 -0.6743
  334MOL0     C44991   0.287   3.224   9.187 -1.3391 -0.2749 -0.2232
  334MOL0     C44992   0.382   3.331   9.227 -0.2572 -0.6713 -0.1536
  334MOL0     C44993   0.515   3.263   9.256  1.0648 -0.3501 -1.3476
  334MOL0     C44994   0.614   3.382   9.299  0.0218 -0.3397  0.1874
  334MOL0     C44995   0.749   3.323   9.336 -0.6776  0.2725  0.2319
  334MOL0     C44996   0.836   3.429   9.403 -0.1552 -0.4298  0.8383
  334MOL0     C44997   0.958   3.365   9.482  1.0842  0.1440 -0.0805
  334MOL0     C44998   1.032   3.476   9.565  0.4418 -0.0556 -0.1374
  334MOL0    Cl44999   1.134   3.575   9.457 -0.2132  0.0757  0.2605
  334MOL0     C45000  -0.072   3.274   9.150  0.1524  0.2417 -0.9160
  334MOL0     C45001  -0.189   3.219   9.116  0.0966 -1.1950  0.2194
  334MOL0     O45002  -0.323   3.102   8.806  0.2735 -0.5901  0.2391
  334MOL0     C45003  -0.554   2.889   8.950  0.5841 -0.3867  1.3441
  334MOL0     C45004  -0.647   2.796   8.908  0.1854 -1.4219 -0.1065
  334MOL0     N45005  -0.637   2.395   8.204 -0.1066  0.2406  0.0629
  334MOL0     N45006  -0.536   2.457   8.149  0.2431 -0.5703  0.0932
  334MOL0     C45007   0.657   2.881   8.680  0.5627 -0.3684 -0.0984
  334MOL0     C45008   0.781   2.848   8.752  0.1680 -0.8063 -0.0659
  334MOL0     C45009   1.074   2.571   8.987  0.3835 -0.9541  0.5899
  334MOL0     C45010   1.158   2.685   8.991 -0.4993 -0.4922 -0.0137
  334MOL0     C45011   1.279   2.675   9.057  0.1384 -0.1716 -0.4086
  334MOL0     C45012   1.330   2.556   9.108  0.1416 -0.2612 -0.2225
  334MOL0     O45013   1.448   2.544   9.176 -0.7061  0.0909 -0.0614
  334MOL0     C45014   1.538   2.661   9.197  0.1333 -0.4816 -0.9806
  334MOL0     C45015   1.651   2.623   9.285 -0.0383  0.1326 -0.6706
  334MOL0     C45016   1.707   2.751   9.357  0.7170  0.2232  0.0824
  334MOL0     C45017   1.831   2.699   9.445  0.0917  0.2580  0.2581
  334MOL0     C45018   1.909   2.816   9.498  0.1251 -0.0565  0.8153
  334MOL0     C45019   1.977   2.907   9.529 -0.0036 -0.3858  0.3754
  334MOL0     C45020   1.241   2.451   9.110 -0.3865  0.2302  0.0344
  334MOL0     C45021   1.116   2.457   9.047  0.2637  0.3790 -0.2717
  334MOL0     C45022   1.032   2.330   9.063 -0.7134  0.8208 -0.8168
  334MOL0     H45023   0.794   2.523   8.699 -0.4967  0.2770  0.4757
  334MOL0     H45024   0.575   2.554   8.590  2.5834  0.0675 -4.5648
  334MOL0     H45025   0.323   2.837   8.702 -0.0620 -1.2721 -0.6700
  334MOL0     H45026   0.407   2.979   8.643 -0.7422 -1.3462  4.9828
  334MOL0     H45027   0.301   2.876   8.406  3.9136  1.6216  1.4992
  334MOL0     H45028   0.215   2.998   8.509 -2.1887 -0.5600  0.6554
  334MOL0     H45029   0.079   2.809   8.621 -2.9026  3.3735 -0.6615
  334MOL0     H45030   0.169   2.700   8.527 -2.7994 -0.7205  1.5318
  334MOL0     H45031  -0.011   2.907   8.392  0.7130  0.8177 -0.5993
  334MOL0     H45032   0.065   2.772   8.317 -2.1018 -0.3609 -0.3614
  334MOL0     H45033  -0.068   2.633   8.480 -0.9140 -0.7941 -1.4448
  334MOL0     H45034  -0.151   2.790   8.530 -1.3760 -1.9274 -0.0201
  334MOL0     H45035  -0.209   2.820   8.286  1.0969  0.0253 -0.8302
  334MOL0     H45036  -0.113   2.680   8.248  1.4089  0.8049  0.5362
  334MOL0     H45037  -0.367   2.672   8.422  0.6526 -0.1418  2.5710
  334MOL0     H45038  -0.277   2.527   8.375 -2.1740  0.5251  0.3604
  334MOL0     H45039  -0.416   2.728   8.192  0.6585  0.3159  0.0078
  334MOL0     H45040  -0.319   2.598   8.140 -0.3277  0.5482 -0.5423
  334MOL0     H45041  -0.625   2.651   8.397  3.5648  2.7135 -3.0316
  334MOL0     H45042  -0.878   2.554   8.361  0.6313  0.6764  1.8659
  334MOL0     H45043  -0.906   2.395   8.300 -1.9153  2.7197 -1.8464
  334MOL0     H45044  -0.935   2.409   8.556 -0.8018 -0.8896  0.3207
  334MOL0     H45045  -0.791   2.309   8.501  1.5535  1.4712 -2.7182
  334MOL0     H45046  -0.657   2.515   8.566  0.9683 -1.2356 -0.1470
  334MOL0     H45047  -0.757   2.449   8.696 -2.4374 -1.5425 -1.1170
  334MOL0     H45048  -0.928   2.633   8.624  0.1989  0.2416  1.4986
  334MOL0     H45049  -0.793   2.715   8.540  1.2181  0.9368  0.3360
  334MOL0     H45050  -0.602   2.812   8.570 -0.0218 -1.3777  0.2318
  334MOL0     H45051  -0.417   2.946   8.638  0.0519  0.3455  0.5758
  334MOL0     H45052  -0.080   2.936   9.001 -0.8200  0.2572 -2.8935
  334MOL0     H45053   0.140   3.032   9.039 -1.1566 -1.4486 -2.4601
  334MOL0     H45054   0.270   3.152   9.268 -4.3505  1.7191  1.1083
  334MOL0     H45055   0.320   3.169   9.098 -1.9374  0.0619 -0.6653
  334MOL0     H45056   0.389   3.415   9.158 -0.9290  0.0792  0.6692
  334MOL0     H45057   0.351   3.377   9.321  4.0948 -1.5568  1.9984
  334MOL0     H45058   0.502   3.207   9.349 -0.6771  2.2342  0.0927
  334MOL0     H45059   0.554   3.212   9.168  2.5994 -0.2453 -0.7663
  334MOL0     H45060   0.570   3.444   9.378  0.9030 -0.6983  0.9760
  334MOL0     H45061   0.629   3.436   9.205  1.2540  0.5735  0.8868
  334MOL0     H45062   0.804   3.283   9.250 -1.6296 -2.2686  0.7201
  334MOL0     H45063   0.748   3.241   9.409  0.4354 -1.9875 -2.1361
  334MOL0     H45064   0.873   3.502   9.330  0.4185  2.7034  4.0007
  334MOL0     H45065   0.774   3.476   9.479  0.4807  0.0317  1.0770
  334MOL0     H45066   1.026   3.297   9.429  1.6942 -2.4944  3.6714
  334MOL0     H45067   0.905   3.302   9.554 -1.7563  2.4316 -0.0291
  334MOL0     H45068   0.959   3.548   9.604  1.1951 -0.2687  1.7929
  334MOL0     H45069   1.091   3.436   9.648  0.7813 -0.3074 -0.4964
  334MOL0     H45070  -0.072   3.374   9.192  0.0904 -0.4309  0.7641
  334MOL0     H45071  -0.282   3.271   9.138  1.1197  0.3671  1.0067
  334MOL0     H45072  -0.566   2.909   9.056 -2.4751 -3.1552  1.6704
  334MOL0     H45073  -0.711   2.749   8.982 -0.5302 -2.7217 -1.5064
  334MOL0     H45074   0.619   2.982   8.679  0.3138 -0.4603 -0.0402
  334MOL0     H45075   0.836   2.926   8.803 -1.1820 -0.6070  1.1521
  334MOL0     H45076   1.131   2.785   8.960  2.6927  0.4707 -0.0476
  334MOL0     H45077   1.337   2.766   9.062 -1.2492  0.7405 -0.3162
  334MOL0     H45078   1.489   2.748   9.244 -0.6773 -1.1364 -0.5931
  334MOL0     H45079   1.578   2.698   9.102  2.6630  0.1219  0.2327
  334MOL0     H45080   1.727   2.573   9.224 -2.4883 -1.8577 -2.2776
  334MOL0     H45081   1.616   2.555   9.363 -0.6109  1.6747  0.4680
  334MOL0     H45082   1.635   2.792   9.428  0.9667 -0.5288  0.7787
  334MOL0     H45083   1.731   2.827   9.281 -0.8546 -0.4959 -1.1856
  334MOL0     H45084   1.787   2.631   9.518  0.6062  0.4710  0.7808
  334MOL0     H45085   1.891   2.625   9.392  1.3863  2.4980 -1.5607
  334MOL0     H45086   2.048   2.984   9.551 -0.3926  0.6171 -1.6022
  334MOL0     H45087   1.265   2.359   9.163 -4.0602 -0.6794  0.4165
  334MOL0     H45088   0.932   2.364   9.092 -1.2200 -1.7705  0.8170
  334MOL0     H45089   1.034   2.271   8.971  2.1555  2.4946 -1.9417
  334MOL0     H45090   1.058   2.268   9.149 -1.0990  0.7480 -0.7505
  335MOL0     O45091   7.826   3.914   3.388 -0.8258  0.3786  0.1708
  335MOL0     C45092   7.870   3.852   3.479  0.1445 -0.5504 -0.2378
  335MOL0     O45093   7.812   3.741   3.532 -0.2396 -0.0772 -0.0774
  335MOL0     C45094   7.695   3.663   3.495  0.4576  0.6125 -0.1160
  335MOL0     C45095   7.620   3.688   3.383  0.0206  0.3901 -0.1461
  335MOL0     C45096   7.509   3.605   3.354 -0.2296 -0.3287 -0.2348
  335MOL0     C45097   7.468   3.502   3.439 -0.3637  0.0371  0.3083
  335MOL0     O45098   7.347   3.434   3.426 -0.3317 -0.7633  0.4481
  335MOL0     C45099   7.358   3.300   3.380  0.4668 -0.0706  0.2437
  335MOL0     C45100   7.243   3.268   3.287  0.3114  0.0075 -0.4440
  335MOL0     C45101   7.262   3.330   3.149  0.1958 -0.6617  0.5851
  335MOL0     C45102   7.139   3.285   3.065 -0.0723  0.7085 -0.4358
  335MOL0     C45103   7.113   3.368   2.941 -0.0102  0.3761  0.2759
  335MOL0     C45104   7.244   3.384   2.859 -0.7492 -0.4089  0.6681
  335MOL0     C45105   7.220   3.452   2.723 -0.0304 -0.5223  0.5652
  335MOL0     C45106   7.142   3.582   2.716  0.1653 -0.1905  0.4226
  335MOL0     N45107   7.204   3.690   2.793  0.3915  0.1449 -0.8783
  335MOL0     C45108   7.137   3.761   2.891 -0.5818  0.4434 -1.4407
  335MOL0     C45109   7.231   3.854   2.938  0.3387  0.2574  0.8166
  335MOL0     C45110   7.224   3.949   3.047  0.2923 -0.1621 -0.9068
  335MOL0     C45111   7.164   3.903   3.181  0.8179 -0.6248 -0.9067
  335MOL0     C45112   7.242   3.785   3.244 -1.4638 -0.3045 -0.4497
  335MOL0     C45113   7.169   3.738   3.370 -0.2190 -0.2198  0.0809
  335MOL0     O45114   7.171   3.846   3.461 -0.0172 -0.0934  0.2749
  335MOL0     C45115   7.286   3.874   3.533  0.7439  0.4202 -0.3474
  335MOL0     C45116   7.357   3.789   3.614 -0.2645  0.1707 -0.1776
  335MOL0     C45117   7.464   3.830   3.698  0.7954 -0.5492 -0.6777
  335MOL0     C45118   7.510   3.964   3.687 -0.5260  0.8705  0.3030
  335MOL0     C45119   7.620   3.998   3.770 -0.1982  0.0825 -0.3714
  335MOL0     O45120   7.654   3.909   3.870  0.0254 -0.2573  0.9971
  335MOL0     C45121   7.767   3.919   3.946  0.6737 -0.3015  0.6496
  335MOL0     C45122   7.892   3.948   3.899 -0.6781 -0.4887  0.3388
  335MOL0     C45123   8.004   3.943   3.983  0.0691 -0.5687  0.1698
  335MOL0     C45124   7.997   3.937   4.124  0.2587  0.4350  0.3771
  335MOL0     O45125   8.105   3.972   4.204  0.2541 -0.0447  0.5495
  335MOL0     C45126   8.231   4.012   4.148 -0.5707  0.5049  0.0986
  335MOL0     C45127   8.331   4.076   4.250  0.2879  0.2165 -0.8435
  335MOL0     C45128   8.288   4.208   4.298 -0.2518 -0.0483  0.3348
  335MOL0     C45129   8.390   4.278   4.382 -0.4933  0.4331  0.1359
  335MOL0     C45130   8.327   4.405   4.440  0.9077  0.0864  0.1850
  335MOL0     C45131   8.411   4.499   4.534  0.0311 -0.2080  0.0847
  335MOL0     C45132   8.447   4.421   4.662 -0.7443 -0.7350  0.0655
  335MOL0     C45133   8.499   4.505   4.775  0.3045  0.7011 -0.1741
  335MOL0    Cl45134   8.659   4.577   4.758 -0.0273 -0.4858 -0.6391
  335MOL0     C45135   7.860   3.915   4.173  0.6426  0.6650 -0.5740
  335MOL0     C45136   7.748   3.909   4.084  0.3283 -0.5589 -0.5898
  335MOL0     O45137   7.684   4.102   3.744 -0.1963 -0.9407  1.1444
  335MOL0     C45138   7.442   4.054   3.596 -0.5890  0.5837  0.1663
  335MOL0     C45139   7.331   4.003   3.524  0.5344  0.1782  0.3857
  335MOL0     N45140   7.346   3.842   2.859 -0.9556 -0.0854 -0.5449
  335MOL0     N45141   7.328   3.740   2.779 -0.4259 -0.3250 -0.7671
  335MOL0     C45142   7.548   3.461   3.546  0.2770  0.0184 -0.2924
  335MOL0     C45143   7.651   3.553   3.570 -0.6568 -0.1773 -0.3505
  335MOL0     C45144   7.998   3.921   3.531  0.7807 -0.4605 -0.5285
  335MOL0     C45145   8.005   4.062   3.521 -0.8125 -0.0569  0.1312
  335MOL0     C45146   8.115   4.128   3.564 -1.2006 -0.3838 -0.5448
  335MOL0     C45147   8.219   4.059   3.629  0.4494 -0.3374 -0.3825
  335MOL0     O45148   8.328   4.105   3.700  0.4203 -0.4549 -0.2656
  335MOL0     C45149   8.408   4.211   3.642 -0.1815 -0.4059 -0.0152
  335MOL0     C45150   8.519   4.269   3.742  0.2986 -0.3711  0.4785
  335MOL0     C45151   8.598   4.389   3.671 -0.4533 -0.3446 -0.2888
  335MOL0     C45152   8.727   4.344   3.610 -0.6992 -0.6915  0.4412
  335MOL0     C45153   8.810   4.452   3.547  0.9025  0.6660 -0.3194
  335MOL0     C45154   8.877   4.537   3.490  0.0851  0.5366  0.4376
  335MOL0     C45155   8.204   3.922   3.647 -0.0916 -1.1628  0.4588
  335MOL0     C45156   8.099   3.847   3.590  0.2848  0.1893  0.2831
  335MOL0     C45157   8.106   3.693   3.615 -0.7187 -0.1368  0.3247
  335MOL0     H45158   7.642   3.772   3.318 -1.3506  1.4242  0.6676
  335MOL0     H45159   7.449   3.618   3.265  2.5843  1.7062 -1.9904
  335MOL0     H45160   7.455   3.297   3.328  0.4439  2.7805 -0.1405
  335MOL0     H45161   7.366   3.233   3.466  0.8326  0.0940  0.3423
  335MOL0     H45162   7.148   3.304   3.329 -0.0108  0.1171 -1.2358
  335MOL0     H45163   7.226   3.163   3.263 -4.9224  0.4787  0.0086
  335MOL0     H45164   7.348   3.290   3.096 -1.5132 -6.4154  1.4889
  335MOL0     H45165   7.255   3.440   3.153 -1.1897 -0.7369  1.0562
  335MOL0     H45166   7.144   3.178   3.041 -4.3452 -0.2901  2.0413
  335MOL0     H45167   7.045   3.293   3.121 -0.0113 -1.5290  0.0746
  335MOL0     H45168   7.041   3.313   2.879  0.6479  0.3926 -0.5229
  335MOL0     H45169   7.070   3.462   2.974 -0.6223 -0.3803  1.7130
  335MOL0     H45170   7.326   3.431   2.915 -1.4430 -0.0326  1.3961
  335MOL0     H45171   7.289   3.286   2.845  1.3731  0.7506 -1.2509
  335MOL0     H45172   7.167   3.378   2.663 -3.1077 -1.3234  3.9374
  335MOL0     H45173   7.319   3.471   2.679 -0.6728 -0.5522 -0.9337
  335MOL0     H45174   7.132   3.611   2.612  0.5675 -1.4675  0.0095
  335MOL0     H45175   7.041   3.561   2.751 -1.1752  1.2482 -2.3445
  335MOL0     H45176   7.034   3.749   2.924  1.0292 -1.2864  4.1242
  335MOL0     H45177   7.329   3.978   3.056  0.6147 -0.2204 -3.5471
  335MOL0     H45178   7.168   4.037   3.013  0.0861 -0.5706 -1.6583
  335MOL0     H45179   7.157   3.985   3.253 -0.9447 -0.2758 -1.4346
  335MOL0     H45180   7.059   3.878   3.161  0.5236  1.2380 -1.7792
  335MOL0     H45181   7.341   3.823   3.269 -1.9160  0.5903  0.0227
  335MOL0     H45182   7.258   3.700   3.176  0.8285  0.3158 -0.7691
  335MOL0     H45183   7.217   3.646   3.404  0.2579 -0.4338 -1.1325
  335MOL0     H45184   7.068   3.710   3.336 -0.0566  0.1932 -0.7708
  335MOL0     H45185   7.303   3.698   3.638  2.0473 -1.4726 -0.8100
  335MOL0     H45186   7.506   3.746   3.752  1.2959 -1.3429 -2.2333
  335MOL0     H45187   7.914   3.954   3.793 -2.4945  2.1071  0.0222
  335MOL0     H45188   8.104   3.961   3.943 -0.4710 -0.6235 -1.2622
  335MOL0     H45189   8.273   3.933   4.085 -2.9370  1.0084 -2.2799
  335MOL0     H45190   8.218   4.097   4.080  0.7780  1.0497  0.5001
  335MOL0     H45191   8.333   4.014   4.340  0.2289 -1.9333 -2.2656
  335MOL0     H45192   8.432   4.074   4.208 -1.1548 -1.3153 -4.5957
  335MOL0     H45193   8.266   4.271   4.211  0.5151 -0.8999 -0.4883
  335MOL0     H45194   8.197   4.195   4.357  1.5063 -1.8450  2.8384
  335MOL0     H45195   8.480   4.290   4.321 -1.4314 -1.1386 -1.6791
  335MOL0     H45196   8.423   4.221   4.469  4.5727  0.7281 -1.2526
  335MOL0     H45197   8.231   4.371   4.480  0.9787 -1.6362 -0.9867
  335MOL0     H45198   8.311   4.469   4.353  2.0763 -0.3828 -0.3951
  335MOL0     H45199   8.497   4.545   4.483 -0.8047  2.0602  0.5968
  335MOL0     H45200   8.337   4.575   4.559  1.3624  1.4099 -0.7168
  335MOL0     H45201   8.533   4.356   4.643 -1.1167 -0.8680 -1.2348
  335MOL0     H45202   8.356   4.367   4.692 -3.2860  2.2590 -1.6428
  335MOL0     H45203   8.416   4.572   4.802  0.3478  0.2768  1.0564
  335MOL0     H45204   8.508   4.444   4.865  1.1298  0.6188 -0.3083
  335MOL0     H45205   7.845   3.909   4.281 -0.1066  0.8098 -0.6642
  335MOL0     H45206   7.655   3.909   4.141  1.2921 -3.5968  1.2217
  335MOL0     H45207   7.466   4.159   3.583 -0.7399  1.2375  3.9894
  335MOL0     H45208   7.290   4.074   3.454  3.1794  1.2604 -0.1944
  335MOL0     H45209   7.522   3.383   3.617 -1.7083 -0.3445 -1.3391
  335MOL0     H45210   7.716   3.542   3.656  1.7313 -0.2931 -2.0571
  335MOL0     H45211   7.937   4.124   3.463  1.0387  0.4413 -1.6151
  335MOL0     H45212   8.127   4.235   3.547 -2.6908  0.2516  1.9356
  335MOL0     H45213   8.342   4.294   3.615  0.0953  1.2546  3.7933
  335MOL0     H45214   8.465   4.177   3.555  1.4798 -1.0091  1.2534
  335MOL0     H45215   8.587   4.188   3.768  2.5608  2.0899  2.7722
  335MOL0     H45216   8.479   4.312   3.834  0.3338  0.6087  0.0456
  335MOL0     H45217   8.622   4.454   3.756 -2.1247 -0.9160  0.6676
  335MOL0     H45218   8.534   4.435   3.595 -0.4483 -1.3299 -0.9074
  335MOL0     H45219   8.797   4.297   3.681  1.0373  0.2573 -0.5710
  335MOL0     H45220   8.706   4.277   3.525 -0.6793 -0.4701  0.2617
  335MOL0     H45221   8.931   4.614   3.440 -0.7322  0.0175 -1.3252
  335MOL0     H45222   8.280   3.868   3.702 -0.1581 -2.1501 -0.3906
  335MOL0     H45223   8.053   3.676   3.709 -0.2665  1.4935  0.9113
  335MOL0     H45224   8.056   3.641   3.533  2.5314 -1.6675 -0.8456
  335MOL0     H45225   8.209   3.657   3.611 -1.1241 -1.3401  0.3480
  336MOL0     O45226   6.219   2.146   1.831  0.7719 -0.1177  0.0157
  336MOL0     C45227   6.162   2.252   1.864  0.2957 -0.1551  0.3809
  336MOL0     O45228   6.220   2.365   1.882 -0.1854  0.0994 -0.5853
  336MOL0     C45229   6.341   2.390   1.834  0.0850 -0.0121  0.1166
  336MOL0     C45230   6.367   2.431   1.705 -0.3883  1.4198 -0.3698
  336MOL0     C45231   6.501   2.445   1.654 -0.5648 -0.0812  0.1245
  336MOL0     C45232   6.616   2.435   1.738 -0.4540 -0.4858 -0.1208
  336MOL0     O45233   6.741   2.464   1.688  0.2747  0.5242  0.3186
  336MOL0     C45234   6.843   2.377   1.734 -0.5665  0.4407 -0.0949
  336MOL0     C45235   6.952   2.398   1.629 -0.0410  0.3764 -0.5392
  336MOL0     C45236   7.089   2.362   1.681 -0.0251  0.2037 -0.4184
  336MOL0     C45237   7.190   2.378   1.563  1.3485 -0.2454 -0.4529
  336MOL0     C45238   7.335   2.339   1.588  0.0400  0.5055 -0.0941
  336MOL0     C45239   7.402   2.430   1.680 -0.3992  0.0827 -0.4538
  336MOL0     C45240   7.535   2.377   1.748 -0.3019  0.6716  0.5968
  336MOL0     C45241   7.647   2.381   1.642 -0.2935  0.4655  0.5430
  336MOL0     N45242   7.673   2.524   1.595 -0.4958  0.6857  0.4767
  336MOL0     C45243   7.736   2.623   1.665  0.7430  0.1570  0.0367
  336MOL0     C45244   7.756   2.722   1.574  0.5085  0.2258 -0.3237
  336MOL0     C45245   7.853   2.842   1.586  1.1379  0.3290  0.1857
  336MOL0     C45246   7.989   2.803   1.524  0.3948  0.3083 -0.2261
  336MOL0     C45247   8.101   2.896   1.580 -0.2059 -0.1388 -0.3652
  336MOL0     C45248   8.226   2.893   1.497  0.8027  0.6458 -0.3039
  336MOL0     O45249   8.185   2.958   1.372 -0.4561 -0.7379 -1.4716
  336MOL0     C45250   8.278   3.032   1.307 -0.0137  0.8481 -1.1404
  336MOL0     C45251   8.407   2.975   1.278  0.4744  0.4484  0.5512
  336MOL0     C45252   8.505   3.043   1.209 -0.3798  0.4414  0.3888
  336MOL0     C45253   8.483   3.175   1.163 -0.2189 -0.1277 -0.7083
  336MOL0     C45254   8.595   3.267   1.112  0.4494  0.2568 -0.4086
  336MOL0     O45255   8.718   3.257   1.166  1.1008  0.4983  0.3561
  336MOL0     C45256   8.817   3.340   1.123 -0.7251  0.5997 -0.2445
  336MOL0     C45257   8.860   3.308   0.990  0.3948  0.7241 -0.4959
  336MOL0     C45258   8.983   3.346   0.945 -0.0927  0.5620 -0.6614
  336MOL0     C45259   9.070   3.429   1.022  0.5591  0.5816  0.2960
  336MOL0     O45260   9.183   3.477   0.954 -0.7411 -0.0236 -0.4637
  336MOL0     C45261   9.260   3.578   1.015  0.1240 -0.0630 -0.1072
  336MOL0     C45262   9.369   3.635   0.918  0.2863  0.0555 -0.3370
  336MOL0     C45263   9.443   3.760   0.963  0.0536  0.0410  0.2411
  336MOL0     C45264   9.535   3.807   0.850  0.1220  0.4456  0.4844
  336MOL0     C45265   9.656   3.887   0.890 -0.2774 -0.4232 -0.9427
  336MOL0     C45266   9.762   3.910   0.779  0.7432  0.1684  0.5562
  336MOL0     C45267   9.905   3.931   0.844  0.4589  0.1197 -0.1541
  336MOL0     C45268   9.995   3.952   0.725  0.8104 -0.0443 -1.0212
  336MOL0    Cl45269  10.165   3.990   0.778 -0.0739 -0.2639 -0.1477
  336MOL0     C45270   9.033   3.448   1.151 -0.3267  0.2068 -0.4349
  336MOL0     C45271   8.906   3.411   1.206  0.6397  0.6973  0.0248
  336MOL0     O45272   8.551   3.359   1.044 -0.1151 -0.3521  0.1201
  336MOL0     C45273   8.355   3.239   1.187  0.4804  0.6422 -0.4570
  336MOL0     C45274   8.254   3.161   1.256 -0.1179 -0.6778 -0.7016
  336MOL0     N45275   7.703   2.681   1.448 -0.1219  0.1769  0.0943
  336MOL0     N45276   7.654   2.565   1.466  1.0442  0.4902  0.3438
  336MOL0     C45277   6.580   2.414   1.871 -0.0005  0.4026 -0.0936
  336MOL0     C45278   6.447   2.388   1.921  0.1342 -0.0299 -0.6854
  336MOL0     C45279   6.020   2.241   1.899 -0.5284 -0.0487 -0.8008
  336MOL0     C45280   5.971   2.313   2.004 -0.5407  0.0328  0.9028
  336MOL0     C45281   5.837   2.295   2.042 -0.1357  0.8289 -0.5018
  336MOL0     C45282   5.752   2.200   1.972 -0.1892  0.4099 -0.0142
  336MOL0     O45283   5.625   2.163   2.004  0.4565  0.5168 -0.3203
  336MOL0     C45284   5.554   2.225   2.114  0.5840 -0.0163 -0.2850
  336MOL0     C45285   5.400   2.207   2.115 -0.2815 -0.3283  0.3235
  336MOL0     C45286   5.328   2.273   1.992 -0.3392 -0.6993 -0.4956
  336MOL0     C45287   5.323   2.172   1.869  0.5706 -0.1758 -0.0413
  336MOL0     C45288   5.260   2.230   1.748  0.2550 -0.3914 -0.4306
  336MOL0     C45289   5.227   2.282   1.642  0.2327  0.1204  0.1999
  336MOL0     C45290   5.805   2.134   1.864  0.2743 -0.6369 -0.3540
  336MOL0     C45291   5.937   2.162   1.824  0.4682 -1.0119 -0.0568
  336MOL0     C45292   5.982   2.079   1.702 -0.0494  0.5409  0.2110
  336MOL0     H45293   6.292   2.448   1.629 -1.5399 -2.2637 -0.2661
  336MOL0     H45294   6.515   2.473   1.550  0.0934 -0.6199  0.0586
  336MOL0     H45295   6.887   2.405   1.831  0.2290  0.8263 -0.5533
  336MOL0     H45296   6.821   2.271   1.721  1.7944 -0.0791 -0.3398
  336MOL0     H45297   6.965   2.499   1.588 -1.6347  0.6072 -0.5513
  336MOL0     H45298   6.915   2.340   1.544 -3.5468  1.5674  0.0089
  336MOL0     H45299   7.085   2.261   1.724  0.7108 -0.3945 -1.7010
  336MOL0     H45300   7.112   2.435   1.759  0.8249  0.5985 -1.0266
  336MOL0     H45301   7.156   2.303   1.491 -0.3612 -0.5665  0.6156
  336MOL0     H45302   7.179   2.476   1.516 -0.7189  0.1877  0.7998
  336MOL0     H45303   7.314   2.240   1.630 -0.0863  0.8089  0.5695
  336MOL0     H45304   7.400   2.328   1.501  0.6698 -1.8596  0.5798
  336MOL0     H45305   7.421   2.526   1.632  1.8611 -1.1723 -2.3040
  336MOL0     H45306   7.333   2.450   1.762  1.6182  0.5271  1.2308
  336MOL0     H45307   7.533   2.273   1.782  0.7808  0.3051 -0.4043
  336MOL0     H45308   7.558   2.441   1.833 -1.5328  3.4845 -1.0647
  336MOL0     H45309   7.742   2.346   1.685  2.2022 -0.0601 -4.6161
  336MOL0     H45310   7.633   2.324   1.550  2.1644  1.8810 -0.8285
  336MOL0     H45311   7.782   2.620   1.763  0.2529  1.2053  0.3203
  336MOL0     H45312   7.816   2.932   1.535  1.2293  1.2633  1.6832
  336MOL0     H45313   7.851   2.864   1.694 -3.3691 -0.7947  0.5095
  336MOL0     H45314   8.016   2.700   1.550  7.8440  2.0672  1.3909
  336MOL0     H45315   7.979   2.818   1.417 -1.8077 -1.2375 -0.3096
  336MOL0     H45316   8.127   2.854   1.678  0.8759 -1.0658 -1.0251
  336MOL0     H45317   8.072   3.001   1.591 -0.0001 -0.0376 -0.7836
  336MOL0     H45318   8.266   2.792   1.489 -0.6609 -0.2444  2.5932
  336MOL0     H45319   8.295   2.960   1.551 -2.1136  1.8757  2.1689
  336MOL0     H45320   8.422   2.877   1.323  0.1076  0.2386  0.2258
  336MOL0     H45321   8.601   3.002   1.182 -0.1471 -0.6267  2.5658
  336MOL0     H45322   8.799   3.246   0.924  0.5638  1.5544 -1.4582
  336MOL0     H45323   9.016   3.328   0.843 -1.1204 -0.4063 -0.8306
  336MOL0     H45324   9.182   3.655   1.023  0.8550  0.8031 -1.0767
  336MOL0     H45325   9.306   3.552   1.111  2.9512  1.6929 -0.8747
  336MOL0     H45326   9.449   3.562   0.901 -1.0233 -1.9366  1.4861
  336MOL0     H45327   9.317   3.653   0.823 -0.2155 -0.5409 -0.1867
  336MOL0     H45328   9.378   3.843   0.994  1.7048  0.2883  3.4103
  336MOL0     H45329   9.492   3.724   1.053  0.0327  1.2163  0.7410
  336MOL0     H45330   9.470   3.862   0.781 -0.2174  1.8358  1.8336
  336MOL0     H45331   9.574   3.717   0.803  0.0464  0.2543  0.7873
  336MOL0     H45332   9.715   3.839   0.969  2.0982  0.5805 -2.0063
  336MOL0     H45333   9.628   3.980   0.941 -0.3473 -0.9932  0.0865
  336MOL0     H45334   9.757   3.825   0.710 -1.4759  0.2203  0.5741
  336MOL0     H45335   9.728   3.994   0.718 -1.8922 -0.8608  0.4519
  336MOL0     H45336   9.941   3.845   0.900 -0.2411 -0.5862 -0.7640
  336MOL0     H45337   9.906   4.018   0.910  0.0214  0.8455 -1.0697
  336MOL0     H45338   9.987   3.857   0.671 -2.4468 -0.2056 -0.4388
  336MOL0     H45339   9.965   4.031   0.656  3.8761  1.7081 -0.5554
  336MOL0     H45340   9.111   3.492   1.212  0.3303 -0.1217 -1.0123
  336MOL0     H45341   8.893   3.419   1.314  0.2585 -2.7992  0.3372
  336MOL0     H45342   8.339   3.342   1.156 -1.8472 -0.2544 -2.5706
  336MOL0     H45343   8.158   3.209   1.268  1.3225  2.0984  0.9202
  336MOL0     H45344   6.665   2.387   1.933  1.1446  2.1368 -0.8547
  336MOL0     H45345   6.430   2.371   2.027 -1.4040  2.3403 -0.4821
  336MOL0     H45346   6.030   2.389   2.054 -0.0998  2.1193 -2.4779
  336MOL0     H45347   5.806   2.351   2.130  0.6775  0.4471  0.0436
  336MOL0     H45348   5.583   2.330   2.129  1.8722 -0.3262 -0.4898
  336MOL0     H45349   5.593   2.171   2.201 -0.0299  0.2426  0.1619
  336MOL0     H45350   5.357   2.257   2.202 -0.0468 -1.5295  1.1644
  336MOL0     H45351   5.356   2.106   2.112  1.8546 -1.2996  0.0288
  336MOL0     H45352   5.385   2.364   1.974 -1.5383  0.1980  0.1527
  336MOL0     H45353   5.225   2.300   2.018 -1.0199 -3.5313  0.1515
  336MOL0     H45354   5.427   2.144   1.850  1.1051 -0.0986  2.5027
  336MOL0     H45355   5.273   2.077   1.891  0.4490 -0.6101 -1.9851
  336MOL0     H45356   5.186   2.324   1.553 -0.1328  0.1157  0.3643
  336MOL0     H45357   5.738   2.061   1.819  0.5638 -1.6986  0.8985
  336MOL0     H45358   6.028   1.985   1.732 -1.7110 -0.3799 -0.0466
  336MOL0     H45359   5.899   2.048   1.638  2.0903 -0.2315 -2.3750
  336MOL0     H45360   6.030   2.144   1.628 -1.8338  2.7022  0.8269
  337MOL0     O45361   8.288   9.841   6.070  0.5052  0.0236 -0.3533
  337MOL0     C45362   8.395   9.791   6.095 -0.7146  0.1891  0.1341
  337MOL0     O45363   8.414   9.723   6.206  0.4150 -1.0915  0.2570
  337MOL0     C45364   8.325   9.700   6.305  0.4592  0.5187 -0.6522
  337MOL0     C45365   8.181   9.721   6.309  0.4517  0.1014  0.4845
  337MOL0     C45366   8.103   9.687   6.411  0.0383 -0.0300 -0.4028
  337MOL0     C45367   8.163   9.634   6.525 -0.3657  0.3202 -0.7653
  337MOL0     O45368   8.085   9.620   6.636  0.3236 -0.1151 -1.1429
  337MOL0     C45369   7.992   9.510   6.623 -0.7296  0.4678 -0.1360
  337MOL0     C45370   7.857   9.548   6.669  0.7404  0.1633 -0.4174
  337MOL0     C45371   7.751   9.437   6.658 -0.4360  0.2353  0.0812
  337MOL0     C45372   7.614   9.475   6.725  0.8361  0.1702 -0.6799
  337MOL0     C45373   7.503   9.375   6.694 -0.3030 -0.0353 -0.6433
  337MOL0     C45374   7.390   9.389   6.794  0.7902  0.0789  0.1264
  337MOL0     C45375   7.260   9.319   6.747 -0.2961  0.3266 -0.5616
  337MOL0     C45376   7.169   9.306   6.874  0.5562  0.2763 -0.0428
  337MOL0     N45377   7.119   9.439   6.911 -0.1371 -0.2611 -0.6519
  337MOL0     C45378   7.038   9.521   6.832 -0.1830  1.0886 -0.0386
  337MOL0     C45379   7.028   9.638   6.889 -0.4148  0.2986 -0.3972
  337MOL0     C45380   6.940   9.745   6.849 -0.2228 -0.4428  0.2440
  337MOL0     C45381   6.793   9.722   6.876 -0.0364 -0.6921 -0.1895
  337MOL0     C45382   6.717   9.850   6.892 -0.0196  0.2074 -0.2297
  337MOL0     C45383   6.574   9.817   6.908 -0.0227 -0.9358  0.1741
  337MOL0     O45384   6.509   9.939   6.922  0.0503  0.2935 -0.5677
  337MOL0     C45385   6.371   9.955   6.921 -0.1575  0.4024  0.4166
  337MOL0     C45386   6.286   9.864   6.853 -0.4232 -0.4989 -0.6388
  337MOL0     C45387   6.140   9.867   6.860 -1.0595 -0.4240  0.8727
  337MOL0     C45388   6.078   9.964   6.938 -0.1647 -0.1108 -0.1362
  337MOL0     C45389   5.935   9.945   6.966 -0.1204 -0.1113  0.8329
  337MOL0     O45390   5.890  10.006   7.077  0.4305  0.3037 -0.5396
  337MOL0     C45391   5.753   9.985   7.103  0.0257  0.7284  0.1381
  337MOL0     C45392   5.654  10.015   7.013  0.4980  0.3676  0.3482
  337MOL0     C45393   5.522   9.988   7.041  0.8185  0.6386  0.0573
  337MOL0     C45394   5.492   9.918   7.157 -0.7037  0.7981  1.3428
  337MOL0     O45395   5.360   9.892   7.182 -0.2151  0.9259 -0.5994
  337MOL0     C45396   5.302   9.938   7.307 -0.5518  0.0835  0.3278
  337MOL0     C45397   5.162   9.997   7.285  0.3658  1.0082  0.2434
  337MOL0     C45398   5.154  10.143   7.236 -0.4094 -0.1818  0.3589
  337MOL0     C45399   5.013  10.192   7.230 -1.2907 -0.0682  0.8900
  337MOL0     C45400   4.940  10.236   7.356  0.0927  0.7770  0.2138
  337MOL0     C45401   5.015  10.352   7.416  0.3737 -0.1365  0.2087
  337MOL0     C45402   4.907  10.412   7.518 -1.0677  0.2565  0.4165
  337MOL0     C45403   4.959  10.532   7.587 -0.1251  0.6466  0.8412
  337MOL0    Cl45404   5.044  10.498   7.744  0.0930 -0.2244 -0.5194
  337MOL0     C45405   5.591   9.887   7.249 -0.7544  0.2260 -0.7322
  337MOL0     C45406   5.722   9.924   7.222 -0.3148 -0.4019 -0.7906
  337MOL0     O45407   5.866   9.886   6.888 -0.3610 -0.6394  0.1245
  337MOL0     C45408   6.157  10.062   7.001 -0.3403  0.1069 -1.1446
  337MOL0     C45409   6.305  10.055   6.992  0.0146  0.0183 -0.8079
  337MOL0     N45410   7.104   9.632   7.007  0.2009 -0.0775 -0.7306
  337MOL0     N45411   7.148   9.512   7.024 -0.0770  0.4073  0.6836
  337MOL0     C45412   8.306   9.623   6.531 -0.4109  0.3971  0.2845
  337MOL0     C45413   8.385   9.644   6.422  0.0005  0.9684  1.3316
  337MOL0     C45414   8.507   9.798   6.003  0.0907 -0.6279  0.7942
  337MOL0     C45415   8.525   9.928   5.943  0.3227  0.5131 -0.5445
  337MOL0     C45416   8.651   9.961   5.899 -0.0236 -0.2556  0.6906
  337MOL0     C45417   8.752   9.877   5.886  0.1217 -0.0456  0.1198
  337MOL0     O45418   8.872   9.923   5.831  0.3998 -0.8998 -0.0025
  337MOL0     C45419   8.997   9.893   5.884 -0.1005  1.0082 -0.4150
  337MOL0     C45420   9.032   9.982   5.998 -1.0566 -0.2373 -0.5739
  337MOL0     C45421   9.175   9.956   6.057  0.0699  0.2689 -0.7875
  337MOL0     C45422   9.191   9.819   6.106 -0.4563 -0.2550  0.1049
  337MOL0     C45423   9.276   9.825   6.227 -0.0823  0.1031  0.2775
  337MOL0     C45424   9.341   9.830   6.329 -0.1277 -0.2948  0.1448
  337MOL0     C45425   8.730   9.748   5.924 -0.5598  0.6554  0.3532
  337MOL0     C45426   8.615   9.707   5.990  0.3055 -0.6498 -0.0278
  337MOL0     C45427   8.597   9.565   6.040  0.5962 -0.2175 -0.7087
  337MOL0     H45428   8.122   9.762   6.227  2.1794  1.7557  0.0000
  337MOL0     H45429   8.000   9.721   6.406 -0.3272 -1.1234 -0.5598
  337MOL0     H45430   7.989   9.475   6.519 -0.0593  0.3091 -0.1061
  337MOL0     H45431   8.025   9.441   6.700 -1.1161  1.3917  0.8843
  337MOL0     H45432   7.824   9.639   6.618  0.8277  0.9294  0.8256
  337MOL0     H45433   7.860   9.572   6.776 -0.0255  1.8086 -0.7346
  337MOL0     H45434   7.782   9.339   6.696  1.4209  1.6635  2.5137
  337MOL0     H45435   7.741   9.430   6.549 -1.1273 -0.5309  0.1817
  337MOL0     H45436   7.626   9.472   6.833 -4.4254  2.0242  0.2565
  337MOL0     H45437   7.580   9.576   6.701 -0.9382 -0.1840  0.1624
  337MOL0     H45438   7.472   9.397   6.592 -1.5588 -1.3199 -0.5818
  337MOL0     H45439   7.542   9.273   6.691 -0.2834 -0.2436  2.7270
  337MOL0     H45440   7.430   9.340   6.883 -0.4617 -1.5833 -0.1833
  337MOL0     H45441   7.352   9.491   6.808 -2.8769 -0.7717 -2.1829
  337MOL0     H45442   7.295   9.223   6.709 -0.7617  0.8836 -2.5162
  337MOL0     H45443   7.209   9.374   6.666 -0.5766 -0.6533 -1.0595
  337MOL0     H45444   7.088   9.238   6.848  0.1711  0.4398  0.6980
  337MOL0     H45445   7.207   9.257   6.964 -0.4626  0.4747  0.5074
  337MOL0     H45446   6.979   9.482   6.750  0.6189 -0.9848  0.3161
  337MOL0     H45447   6.964   9.829   6.915 -2.3705 -0.5808  1.2590
  337MOL0     H45448   6.959   9.767   6.743 -3.6525 -4.3850 -1.4672
  337MOL0     H45449   6.747   9.655   6.802 -2.5584  0.3995  0.2709
  337MOL0     H45450   6.785   9.670   6.972 -2.1655  0.1953  0.1667
  337MOL0     H45451   6.732   9.917   6.807 -0.8152  0.8471  0.1280
  337MOL0     H45452   6.765   9.896   6.979  2.6229  0.7599 -1.8722
  337MOL0     H45453   6.551   9.763   7.000 -0.6821  1.6630  1.6358
  337MOL0     H45454   6.537   9.761   6.822 -1.9670 -1.6925  1.4284
  337MOL0     H45455   6.329   9.775   6.809  0.5930 -0.7814  0.8335
  337MOL0     H45456   6.087   9.788   6.808 -2.1535  0.4880  0.5635
  337MOL0     H45457   5.666  10.067   6.919  0.1898  0.5277  0.3967
  337MOL0     H45458   5.446  10.025   6.974  3.1812 -0.0265 -3.2830
  337MOL0     H45459   5.291   9.854   7.377 -1.1354 -0.6884 -0.6607
  337MOL0     H45460   5.368  10.012   7.352  1.5413 -2.4845  1.7425
  337MOL0     H45461   5.102   9.939   7.215  0.1163  0.4137  0.9334
  337MOL0     H45462   5.115   9.985   7.384  0.9019 -0.7335  0.3254
  337MOL0     H45463   5.221  10.204   7.298  2.1394  0.6695 -2.9574
  337MOL0     H45464   5.201  10.147   7.137  0.5020 -0.0437  0.7857
  337MOL0     H45465   4.952  10.115   7.182 -1.2678  0.8936 -0.7582
  337MOL0     H45466   5.007  10.281   7.167 -0.6083  0.2430  1.2515
  337MOL0     H45467   4.946  10.155   7.429 -1.0234  0.9344  0.4946
  337MOL0     H45468   4.835  10.258   7.335  0.0795  3.9011  2.7713
  337MOL0     H45469   5.110  10.330   7.466 -0.0523 -0.4751  0.8856
  337MOL0     H45470   5.037  10.421   7.334  1.1125 -0.0682  0.4565
  337MOL0     H45471   4.884  10.325   7.580  2.0718 -1.4225 -0.5471
  337MOL0     H45472   4.821  10.440   7.457  0.7157  1.9335 -1.4952
  337MOL0     H45473   5.034  10.581   7.525 -1.6838 -0.4866 -2.1277
  337MOL0     H45474   4.875  10.601   7.599 -0.9497 -0.4103  1.3150
  337MOL0     H45475   5.573   9.830   7.339  1.6753 -0.5539 -0.6930
  337MOL0     H45476   5.795   9.896   7.297 -1.7554 -0.3353  0.6941
  337MOL0     H45477   6.113  10.147   7.053  0.8550  0.7124 -1.0848
  337MOL0     H45478   6.365  10.125   7.051  2.7869 -2.4362 -0.4637
  337MOL0     H45479   8.348   9.598   6.629  3.0877 -0.3649 -1.2629
  337MOL0     H45480   8.492   9.662   6.430  0.2160  1.1010 -1.0812
  337MOL0     H45481   8.453  10.010   5.943 -0.9154 -0.5459 -0.8137
  337MOL0     H45482   8.676  10.060   5.862  1.1477 -0.1281  1.7604
  337MOL0     H45483   9.077   9.886   5.810 -0.1437  0.6682 -0.4312
  337MOL0     H45484   9.000   9.790   5.921 -1.1181  1.1225  0.0348
  337MOL0     H45485   8.963   9.970   6.082  1.6300  3.7737  2.6525
  337MOL0     H45486   9.028  10.088   5.971  1.8400  0.4774  1.3804
  337MOL0     H45487   9.198  10.029   6.135 -1.6533  2.5273 -2.2509
  337MOL0     H45488   9.250   9.968   5.978 -0.7125  1.5989 -1.3569
  337MOL0     H45489   9.089   9.791   6.135 -0.4049 -0.0063  0.5350
  337MOL0     H45490   9.227   9.755   6.025 -1.4212 -2.6073  1.4330
  337MOL0     H45491   9.390   9.823   6.424  0.1866  1.3115  0.1252
  337MOL0     H45492   8.812   9.682   5.895 -0.1333  1.5340 -0.5039
  337MOL0     H45493   8.640   9.506   5.959  2.6006  3.1414 -2.2987
  337MOL0     H45494   8.646   9.542   6.136 -2.1735  0.4485  0.9768
  337MOL0     H45495   8.495   9.534   6.065  1.3167 -1.3486  1.0602
  338MOL0     O45496   3.408   6.413   1.330 -0.1118  0.0598  0.3388
  338MOL0     C45497   3.328   6.465   1.408  0.5513  0.4516 -0.0428
  338MOL0     O45498   3.330   6.597   1.456  0.6424 -0.6140  0.4851
  338MOL0     C45499   3.434   6.683   1.446 -0.0712 -0.0444  0.4123
  338MOL0     C45500   3.405   6.805   1.505 -0.2645  0.4758 -0.0288
  338MOL0     C45501   3.499   6.902   1.518 -0.5175  0.1036  0.1295
  338MOL0     C45502   3.629   6.879   1.467  0.1775  0.7362  0.3143
  338MOL0     O45503   3.730   6.969   1.469  0.2730  0.0529 -0.0663
  338MOL0     C45504   3.716   7.090   1.546  0.9015 -0.6738 -0.3189
  338MOL0     C45505   3.840   7.168   1.490  0.4532 -0.5475 -0.1765
  338MOL0     C45506   3.837   7.304   1.561 -0.8635 -0.5988  0.6448
  338MOL0     C45507   3.965   7.380   1.535  0.0909 -0.5150 -0.8991
  338MOL0     C45508   3.958   7.515   1.607  0.1925  0.4514 -1.1498
  338MOL0     C45509   4.069   7.604   1.538  0.5685  0.4105  0.9148
  338MOL0     C45510   4.071   7.746   1.586 -0.0119  0.2357  1.1135
  338MOL0     C45511   4.209   7.825   1.579 -0.5184  1.2560  0.3568
  338MOL0     N45512   4.249   7.840   1.444  0.1988 -0.6311  0.6361
  338MOL0     C45513   4.197   7.932   1.362 -0.2486  0.0235  1.2118
  338MOL0     C45514   4.280   7.929   1.248 -0.9872  0.6114 -1.0194
  338MOL0     C45515   4.300   8.028   1.128 -0.6171  0.4372  0.0245
  338MOL0     C45516   4.223   7.987   1.007 -0.0001  0.1053 -0.4071
  338MOL0     C45517   4.073   8.007   1.012 -0.3188 -0.0628 -0.5581
  338MOL0     C45518   4.019   8.147   0.979 -0.2549  0.4941 -0.0329
  338MOL0     O45519   4.046   8.229   1.103 -0.2783 -0.1672  0.7043
  338MOL0     C45520   3.970   8.202   1.216  0.5731  0.5316  0.0039
  338MOL0     C45521   4.008   8.261   1.333  0.6043 -0.6914 -0.8496
  338MOL0     C45522   3.928   8.263   1.447 -0.0398 -0.8949  0.1442
  338MOL0     C45523   3.817   8.178   1.457 -0.2502  0.0596 -0.9855
  338MOL0     C45524   3.740   8.166   1.585 -0.9739  1.0328 -0.0130
  338MOL0     O45525   3.724   8.280   1.651 -0.6062  0.6205 -0.0184
  338MOL0     C45526   3.645   8.284   1.762 -0.8525  0.0767  0.0984
  338MOL0     C45527   3.538   8.366   1.757 -0.0955 -0.6466 -0.3518
  338MOL0     C45528   3.422   8.364   1.844 -0.4263  0.1553  0.4233
  338MOL0     C45529   3.431   8.287   1.958 -0.4400  0.1646  0.2941
  338MOL0     O45530   3.329   8.298   2.049  0.0148  0.5917 -0.7559
  338MOL0     C45531   3.329   8.238   2.179 -0.0717  0.2453 -0.4867
  338MOL0     C45532   3.188   8.247   2.218 -0.4908 -0.1565  0.2702
  338MOL0     C45533   3.093   8.135   2.169 -0.2148  0.5819  0.1805
  338MOL0     C45534   2.971   8.121   2.250 -0.2647  0.1743  0.5856
  338MOL0     C45535   2.857   8.039   2.186  0.0893  0.3721 -0.3974
  338MOL0     C45536   2.726   8.040   2.276 -0.3805 -1.1466  1.0339
  338MOL0     C45537   2.612   7.976   2.191 -0.4218  0.3363 -0.2391
  338MOL0     C45538   2.512   7.895   2.275  0.4516  0.3644  0.2825
  338MOL0    Cl45539   2.444   7.756   2.185 -0.2663  0.1666 -0.2610
  338MOL0     C45540   3.541   8.198   1.980  0.0201  0.7937 -0.2454
  338MOL0     C45541   3.640   8.196   1.873  0.0425  0.0213 -0.3074
  338MOL0     O45542   3.689   8.054   1.608 -0.5125 -0.7341  0.2003
  338MOL0     C45543   3.792   8.101   1.343  0.2176 -0.4026 -0.2375
  338MOL0     C45544   3.863   8.113   1.223  0.7934 -0.5947 -0.3403
  338MOL0     N45545   4.377   7.833   1.270 -0.3510 -0.1729 -0.0234
  338MOL0     N45546   4.356   7.783   1.385 -0.1482  0.0968 -0.2951
  338MOL0     C45547   3.665   6.758   1.406 -1.0282 -0.3883  1.0942
  338MOL0     C45548   3.569   6.655   1.403 -0.8560 -1.0957  0.3027
  338MOL0     C45549   3.206   6.384   1.450  0.5198  0.2374 -0.1672
  338MOL0     C45550   3.211   6.249   1.416 -0.5727 -0.8067 -0.9624
  338MOL0     C45551   3.110   6.163   1.456 -0.4877  0.2020 -0.1890
  338MOL0     C45552   2.986   6.207   1.523 -1.1379  0.1602  0.0017
  338MOL0     O45553   2.891   6.115   1.574 -0.3118  0.5146  0.3174
  338MOL0     C45554   2.943   5.996   1.640 -0.3414 -0.0049 -0.3579
  338MOL0     C45555   2.849   5.951   1.757 -0.2182  0.0798  0.0132
  338MOL0     C45556   2.833   6.059   1.866  0.0194 -0.7045  0.3176
  338MOL0     C45557   2.699   6.065   1.948 -1.2150  0.7983  0.1172
  338MOL0     C45558   2.592   6.137   1.874 -0.7658  0.8909  0.8087
  338MOL0     C45559   2.511   6.181   1.803 -0.1050 -0.3562 -0.9066
  338MOL0     C45560   2.982   6.338   1.541 -0.7501 -0.7703 -0.1332
  338MOL0     C45561   3.088   6.425   1.519  0.3020 -0.9524 -0.0604
  338MOL0     C45562   3.064   6.571   1.554  0.4530 -0.1237  0.1772
  338MOL0     H45563   3.301   6.817   1.534 -0.2820 -0.9881  0.5572
  338MOL0     H45564   3.476   6.992   1.574  3.6021  0.6951  1.1767
  338MOL0     H45565   3.623   7.143   1.528  0.8236 -1.2531 -1.7726
  338MOL0     H45566   3.728   7.064   1.651 -0.9249  1.7874  0.5949
  338MOL0     H45567   3.848   7.184   1.382  3.1373 -1.4732 -0.1792
  338MOL0     H45568   3.927   7.113   1.527 -0.7241 -1.3837  1.5373
  338MOL0     H45569   3.833   7.290   1.670  2.5102 -2.2666  0.6716
  338MOL0     H45570   3.749   7.360   1.527  0.8574  1.2372 -1.0075
  338MOL0     H45571   4.051   7.325   1.576 -0.9071 -2.6227 -1.5050
  338MOL0     H45572   3.981   7.399   1.429 -0.4146 -0.8930 -1.0437
  338MOL0     H45573   3.854   7.544   1.592 -1.2664 -1.2331  3.7821
  338MOL0     H45574   3.971   7.497   1.714  0.8814 -1.5404 -1.5356
  338MOL0     H45575   4.169   7.563   1.556  0.2157 -0.0377  1.8941
  338MOL0     H45576   4.045   7.599   1.431 -1.7474  1.2285  1.3364
  338MOL0     H45577   4.041   7.744   1.692  1.2444  1.3444  1.5140
  338MOL0     H45578   3.988   7.800   1.539  0.7227  1.2968  1.0231
  338MOL0     H45579   4.205   7.924   1.624 -0.2075  0.9121  1.1666
  338MOL0     H45580   4.298   7.778   1.623  0.0916  0.8135 -1.2669
  338MOL0     H45581   4.119   8.005   1.376 -0.7009 -0.1927 -0.0110
  338MOL0     H45582   4.261   8.127   1.153 -1.9881  0.0426 -0.4678
  338MOL0     H45583   4.408   8.030   1.115 -0.4204 -0.5743  1.2326
  338MOL0     H45584   4.267   8.041   0.922  3.2886  0.9969  1.6838
  338MOL0     H45585   4.242   7.882   0.982 -2.1068 -0.6803  1.0633
  338MOL0     H45586   4.033   7.965   1.105 -1.3444 -0.7030 -1.2627
  338MOL0     H45587   4.032   7.943   0.933  2.7215 -1.0923 -1.4366
  338MOL0     H45588   3.911   8.144   0.961 -0.2829 -2.2656  0.2157
  338MOL0     H45589   4.074   8.198   0.899 -1.5531 -1.1595 -2.0738
  338MOL0     H45590   4.102   8.314   1.331 -1.3435  3.0691 -3.1649
  338MOL0     H45591   3.967   8.318   1.532  0.2407  2.0303 -1.7491
  338MOL0     H45592   3.547   8.425   1.666  1.8567 -1.0389 -0.4440
  338MOL0     H45593   3.333   8.424   1.829  0.9095  1.7320 -1.7963
  338MOL0     H45594   3.369   8.136   2.178 -2.1850 -0.7384 -3.6013
  338MOL0     H45595   3.387   8.292   2.254 -1.9279  2.9009 -0.8119
  338MOL0     H45596   3.186   8.229   2.326  1.8512  3.2622  1.0503
  338MOL0     H45597   3.150   8.348   2.198  3.1088  0.6534 -4.0766
  338MOL0     H45598   3.058   8.157   2.067  1.3370  0.0394 -0.5092
  338MOL0     H45599   3.157   8.046   2.166 -0.6622  0.2625 -0.0732
  338MOL0     H45600   2.929   8.218   2.276 -2.5427 -0.7812  0.7324
  338MOL0     H45601   2.989   8.063   2.341  1.2625 -0.4775 -0.0960
  338MOL0     H45602   2.903   7.943   2.162 -0.2642  0.0012  0.3928
  338MOL0     H45603   2.831   8.078   2.087 -1.2501 -2.1438 -1.1267
  338MOL0     H45604   2.745   7.982   2.367  1.0599 -2.1075  0.1606
  338MOL0     H45605   2.696   8.141   2.305  1.5341 -0.9109  2.3307
  338MOL0     H45606   2.658   7.903   2.123 -1.4438 -0.1987 -0.3764
  338MOL0     H45607   2.554   8.049   2.134 -1.5879  1.0402  1.7455
  338MOL0     H45608   2.553   7.864   2.371 -0.1497 -2.7864 -0.3515
  338MOL0     H45609   2.429   7.964   2.290  0.8116  1.3058 -1.6893
  338MOL0     H45610   3.550   8.125   2.060 -2.5771 -1.1074 -1.5452
  338MOL0     H45611   3.721   8.126   1.891 -0.7349 -0.7709  0.2398
  338MOL0     H45612   3.711   8.030   1.333 -0.5337  0.5618 -1.3058
  338MOL0     H45613   3.828   8.054   1.138  1.4335  0.2572 -1.2130
  338MOL0     H45614   3.766   6.746   1.370 -1.4287 -0.9880  0.1377
  338MOL0     H45615   3.596   6.558   1.361 -1.9713 -1.9997  1.5689
  338MOL0     H45616   3.297   6.208   1.363 -0.7416  0.0753 -1.9415
  338MOL0     H45617   3.133   6.057   1.443  1.8125  0.4136  1.5028
  338MOL0     H45618   3.044   6.014   1.678  1.7565 -2.5355 -4.0036
  338MOL0     H45619   2.946   5.911   1.570 -0.1356  1.0407 -1.6534
  338MOL0     H45620   2.890   5.864   1.809 -0.1363 -0.1401 -0.4135
  338MOL0     H45621   2.753   5.920   1.716  0.6580 -0.3343 -1.8722
  338MOL0     H45622   2.857   6.158   1.824 -1.4269  0.5269  2.2270
  338MOL0     H45623   2.915   6.065   1.938  0.6243  2.7762 -0.4441
  338MOL0     H45624   2.663   5.962   1.955  0.9560  0.0244  0.6116
  338MOL0     H45625   2.711   6.115   2.045 -2.5083 -1.2398  1.4160
  338MOL0     H45626   2.439   6.229   1.740  0.4592 -0.6102 -1.7649
  338MOL0     H45627   2.893   6.382   1.585  0.7679  1.3911  1.0133
  338MOL0     H45628   3.137   6.612   1.625  1.3549  0.5356 -1.0904
  338MOL0     H45629   3.080   6.645   1.475  1.2388  2.2799  2.4403
  338MOL0     H45630   2.966   6.574   1.603 -0.3870 -3.7756 -1.0248
  339MOL0     O45631   0.836   7.087  10.815  0.2028 -0.2640 -0.1670
  339MOL0     C45632   0.721   7.049  10.807 -0.4992 -0.0810  0.5653
  339MOL0     O45633   0.645   7.001  10.909 -0.0339  0.2984  0.2465
  339MOL0     C45634   0.694   7.005  11.040  0.0531  1.1345  0.6746
  339MOL0     C45635   0.624   6.924  11.126 -0.0514 -0.4254  0.6213
  339MOL0     C45636   0.664   6.898  11.262 -0.0406 -0.3592  0.9003
  339MOL0     C45637   0.777   6.962  11.319  0.4101 -0.9760 -0.0840
  339MOL0     O45638   0.807   6.941  11.452  0.1347 -0.5519  0.8085
  339MOL0     C45639   0.764   6.823  11.518 -0.3707 -0.3007  0.4735
  339MOL0     C45640   0.791   6.828  11.664  0.0758  0.3155  0.4159
  339MOL0     C45641   0.811   6.691  11.742 -0.1169  0.3139  0.4701
  339MOL0     C45642   0.854   6.712  11.883 -0.7262  0.1306  0.6005
  339MOL0     C45643   0.906   6.582  11.943  0.1712 -0.1230  0.2234
  339MOL0     C45644   0.917   6.597  12.095  0.1377 -0.3637 -0.3596
  339MOL0     C45645   0.949   6.467  12.161 -0.0476  0.4916  0.7044
  339MOL0     C45646   1.098   6.421  12.157 -0.7844 -0.0103 -0.0159
  339MOL0     N45647   1.197   6.505  12.226  0.2195  0.8918 -0.2237
  339MOL0     C45648   1.315   6.557  12.180 -0.1243 -0.3835 -0.9611
  339MOL0     C45649   1.350   6.654  12.274 -0.3764 -0.0713 -0.5636
  339MOL0     C45650   1.461   6.748  12.245 -0.3060 -0.7269  0.3251
  339MOL0     C45651   1.595   6.718  12.313  0.3873  0.5318  0.3489
  339MOL0     C45652   1.660   6.598  12.237  0.1320 -0.0922  0.5571
  339MOL0     C45653   1.768   6.537  12.326 -0.5953  0.9503 -0.7206
  339MOL0     O45654   1.838   6.418  12.282  0.5714  0.5592 -0.2023
  339MOL0     C45655   1.929   6.428  12.178  0.6651 -0.6047  0.6849
  339MOL0     C45656   1.978   6.550  12.121  0.3582  0.8714 -0.0032
  339MOL0     C45657   2.072   6.543  12.022 -0.1196 -0.5624 -0.4174
  339MOL0     C45658   2.147   6.427  12.005  0.2373  0.4325  0.0943
  339MOL0     C45659   2.246   6.418  11.890 -0.6927  0.4176  0.0513
  339MOL0     O45660   2.290   6.537  11.857 -0.7465 -0.0445 -0.2377
  339MOL0     C45661   2.378   6.560  11.757 -0.1952 -0.5559 -0.1569
  339MOL0     C45662   2.401   6.489  11.644  0.2517  0.3680 -0.2913
  339MOL0     C45663   2.506   6.525  11.566  0.4360  0.3368 -0.3547
  339MOL0     C45664   2.581   6.643  11.589  0.6007  0.0946  0.3061
  339MOL0     O45665   2.683   6.662  11.501  0.5341 -0.6959  0.1836
  339MOL0     C45666   2.795   6.736  11.553  0.5731 -1.6309 -0.1724
  339MOL0     C45667   2.928   6.671  11.500 -0.0657 -0.4548 -0.1081
  339MOL0     C45668   3.045   6.758  11.506  0.0276 -0.0041  0.9738
  339MOL0     C45669   3.059   6.870  11.399  0.6403  0.0838 -0.3899
  339MOL0     C45670   3.198   6.933  11.386  0.2338  0.2181  0.5867
  339MOL0     C45671   3.193   6.983  11.238  0.3407 -0.5802 -0.0671
  339MOL0     C45672   3.335   7.036  11.207 -0.1034  0.0191 -0.3732
  339MOL0     C45673   3.344   7.087  11.068  0.2390  0.5814  0.4741
  339MOL0    Cl45674   3.494   7.181  11.029 -0.1570 -0.0505  0.0686
  339MOL0     C45675   2.544   6.728  11.699 -1.0939 -0.1583 -0.1462
  339MOL0     C45676   2.450   6.678  11.790 -0.3189  0.0048  1.2684
  339MOL0     O45677   2.296   6.313  11.851 -0.0180 -0.0316  0.2046
  339MOL0     C45678   2.100   6.310  12.063 -0.2132  0.0540  0.3819
  339MOL0     C45679   1.991   6.310  12.153 -0.0541 -0.4517 -0.0484
  339MOL0     N45680   1.245   6.648  12.368 -0.4069  0.7296 -0.0540
  339MOL0     N45681   1.156   6.561  12.344  0.8056 -0.1083  0.1470
  339MOL0     C45682   0.852   7.049  11.232 -0.8946 -0.5145  0.5269
  339MOL0     C45683   0.805   7.070  11.094  0.2310  0.2030  0.1846
  339MOL0     C45684   0.652   7.046  10.671  0.3341 -0.1373  0.6772
  339MOL0     C45685   0.527   6.981  10.659 -0.5748  0.0828  0.0831
  339MOL0     C45686   0.457   6.970  10.534  0.0138 -0.0583  0.1397
  339MOL0     C45687   0.511   7.026  10.421  0.1403 -0.0616 -0.5419
  339MOL0     O45688   0.442   7.015  10.295 -0.8615 -0.5510 -0.1237
  339MOL0     C45689   0.518   7.001  10.177  0.9492 -1.1057  0.5330
  339MOL0     C45690   0.435   6.935  10.066  0.2549  0.0972  1.0174
  339MOL0     C45691   0.351   7.036   9.982 -0.9386  0.2792  0.9196
  339MOL0     C45692   0.252   6.966   9.891 -0.1109  0.2975  0.4231
  339MOL0     C45693   0.332   6.888   9.792  0.1186 -0.3658  0.1448
  339MOL0     C45694   0.404   6.812   9.721  1.0090 -0.0896 -0.3962
  339MOL0     C45695   0.630   7.095  10.436  0.0089  0.7205  0.6637
  339MOL0     C45696   0.699   7.106  10.556 -1.0509 -0.2831 -0.1804
  339MOL0     C45697   0.818   7.197  10.552  0.1748  0.6878  0.0319
  339MOL0     H45698   0.535   6.893  11.071 -1.0582  2.2880  0.6020
  339MOL0     H45699   0.587   6.850  11.321 -0.8349  0.8985  0.9270
  339MOL0     H45700   0.655   6.817  11.510 -0.5897  1.4537  1.5948
  339MOL0     H45701   0.824   6.740  11.479  2.3172  0.7297  2.1048
  339MOL0     H45702   0.717   6.888  11.719  0.8885  0.0923  1.8090
  339MOL0     H45703   0.893   6.866  11.672  0.4648  0.1667 -2.7588
  339MOL0     H45704   0.879   6.617  11.697  0.7270 -0.6792  3.1678
  339MOL0     H45705   0.720   6.631  11.736  0.4311 -0.4277 -3.8277
  339MOL0     H45706   0.944   6.774  11.886 -0.7898  0.3109 -0.5802
  339MOL0     H45707   0.781   6.755  11.952  0.5281 -1.6535  3.1855
  339MOL0     H45708   0.827   6.508  11.935 -2.1943  2.0256  1.9467
  339MOL0     H45709   0.996   6.545  11.892 -0.8592 -0.9163 -1.0742
  339MOL0     H45710   0.986   6.672  12.134 -0.1941 -0.7288  0.9708
  339MOL0     H45711   0.825   6.633  12.143  0.6975  0.3068  0.2353
  339MOL0     H45712   0.892   6.391  12.107 -2.1323  2.4830 -0.1141
  339MOL0     H45713   0.915   6.480  12.264  0.0371 -1.2320  0.9709
  339MOL0     H45714   1.110   6.324  12.206  0.5440 -1.1604 -2.4417
  339MOL0     H45715   1.136   6.408  12.056 -0.4328  1.5403 -0.1057
  339MOL0     H45716   1.357   6.548  12.081 -0.7347  0.7969 -1.3510
  339MOL0     H45717   1.479   6.740  12.137 -1.0193 -0.4580  0.1838
  339MOL0     H45718   1.435   6.852  12.263  0.8728 -0.3470 -0.1017
  339MOL0     H45719   1.659   6.806  12.297  2.7414 -0.7406  2.0484
  339MOL0     H45720   1.582   6.696  12.419 -1.6239 -1.2048 -0.1790
  339MOL0     H45721   1.700   6.633  12.141 -0.5540  1.1602  0.7062
  339MOL0     H45722   1.580   6.525  12.224  0.0720 -0.2867  1.9315
  339MOL0     H45723   1.732   6.516  12.428  0.8335 -1.1302 -0.5654
  339MOL0     H45724   1.844   6.615  12.341 -0.6581  1.8070 -4.1980
  339MOL0     H45725   1.947   6.647  12.159  1.7333  0.3752  2.5753
  339MOL0     H45726   2.098   6.634  11.969  1.6311  0.2841  1.7285
  339MOL0     H45727   2.344   6.397  11.646 -0.1471  0.6259  0.2569
  339MOL0     H45728   2.535   6.463  11.482 -2.7065  0.3474 -1.5612
  339MOL0     H45729   2.772   6.834  11.510 -0.8530 -1.8981 -0.0797
  339MOL0     H45730   2.795   6.745  11.662  0.1231  3.8286 -0.3567
  339MOL0     H45731   2.948   6.583  11.561 -1.7572  0.0006  1.2287
  339MOL0     H45732   2.913   6.637  11.398 -2.4069  1.6509 -0.5847
  339MOL0     H45733   3.059   6.812  11.600  0.3982 -1.3627  1.7203
  339MOL0     H45734   3.129   6.689  11.495 -0.4391 -0.5920  1.0717
  339MOL0     H45735   2.986   6.944  11.432 -2.6289 -2.0027 -2.4219
  339MOL0     H45736   3.024   6.816  11.311  0.2751 -1.9856  0.9624
  339MOL0     H45737   3.278   6.862  11.406 -0.6948 -0.8325  0.6418
  339MOL0     H45738   3.192   7.005  11.468  0.5526 -0.7352  1.4630
  339MOL0     H45739   3.170   6.906  11.164 -0.9318  1.3762 -1.8373
  339MOL0     H45740   3.112   7.057  11.230 -1.1052 -2.2718 -2.4083
  339MOL0     H45741   3.412   6.959  11.218  1.7495  1.9401  1.3614
  339MOL0     H45742   3.346   7.120  11.276 -0.2865 -0.5248  0.3257
  339MOL0     H45743   3.336   7.001  11.001  2.4760  2.6403 -2.7522
  339MOL0     H45744   3.259   7.154  11.053 -1.1287 -1.0455  0.7859
  339MOL0     H45745   2.595   6.823  11.717  0.9070 -1.0680 -0.7067
  339MOL0     H45746   2.416   6.731  11.879 -0.9423 -1.1681  1.7503
  339MOL0     H45747   2.153   6.220  12.032  0.1776  1.0167 -1.9640
  339MOL0     H45748   1.954   6.218  12.196 -0.8756 -0.0433  0.1329
  339MOL0     H45749   0.940   7.087  11.282  3.2383 -3.1192 -3.9388
  339MOL0     H45750   0.856   7.146  11.035  0.0635  0.4468  0.3521
  339MOL0     H45751   0.469   6.933  10.737  0.5800  1.2879  1.7358
  339MOL0     H45752   0.368   6.908  10.530  0.9350 -1.4227 -0.0788
  339MOL0     H45753   0.607   6.939  10.190  0.8028 -1.7819 -1.3475
  339MOL0     H45754   0.548   7.101  10.146 -4.0260  0.5178  0.1461
  339MOL0     H45755   0.366   6.864  10.112 -0.8006 -0.9229 -1.9237
  339MOL0     H45756   0.504   6.886   9.997  1.2024  2.7820 -0.0620
  339MOL0     H45757   0.416   7.096   9.918  2.1070 -2.3848  1.3087
  339MOL0     H45758   0.294   7.101  10.049 -2.8649  0.5077 -0.8368
  339MOL0     H45759   0.197   6.893   9.950  0.9549  0.2815  1.4506
  339MOL0     H45760   0.199   7.047   9.841  1.1743 -0.2825 -2.0250
  339MOL0     H45761   0.460   6.746   9.659  1.1527 -0.0815 -0.2759
  339MOL0     H45762   0.677   7.125  10.343  2.3620 -0.4029  1.4043
  339MOL0     H45763   0.909   7.136  10.560 -1.9880 -2.8950 -0.3647
  339MOL0     H45764   0.814   7.252  10.458 -1.4840  0.6090  0.0179
  339MOL0     H45765   0.811   7.264  10.638  1.1525 -1.0725  1.5546
  340MOL0     O45766   7.464   2.273   0.561 -0.4345  0.3224  0.1139
  340MOL0     C45767   7.372   2.344   0.532  0.4281 -0.9643 -0.1052
  340MOL0     O45768   7.378   2.476   0.497  0.4588 -0.1155 -0.3861
  340MOL0     C45769   7.486   2.535   0.548  0.0101 -0.9132  0.1197
  340MOL0     C45770   7.476   2.614   0.665  0.7222 -0.2779 -0.7458
  340MOL0     C45771   7.590   2.669   0.724 -0.8246  0.1132 -0.1535
  340MOL0     C45772   7.720   2.652   0.659  0.6040 -0.2149  0.5855
  340MOL0     O45773   7.845   2.691   0.706  0.2989 -0.0209  0.4563
  340MOL0     C45774   7.854   2.786   0.804 -0.4034  0.3024 -1.2516
  340MOL0     C45775   8.004   2.814   0.802 -0.4938  0.3817  0.0223
  340MOL0     C45776   8.051   2.913   0.912 -0.1040  0.8208  0.1605
  340MOL0     C45777   8.198   2.885   0.950  0.0678  1.1369  0.1367
  340MOL0     C45778   8.298   2.900   0.831  2.0284  0.1408  0.0175
  340MOL0     C45779   8.433   2.894   0.888  0.5004 -0.6014 -0.2435
  340MOL0     C45780   8.531   2.856   0.782 -0.2988 -0.0463 -0.7063
  340MOL0     C45781   8.674   2.912   0.817  0.0577 -0.3823  0.2382
  340MOL0     N45782   8.735   2.889   0.943 -0.8794 -0.2202 -0.2973
  340MOL0     C45783   8.737   2.768   1.009 -0.2221 -1.1089  0.4584
  340MOL0     C45784   8.839   2.765   1.091  0.8972  0.5995 -0.1093
  340MOL0     C45785   8.868   2.645   1.181 -0.1710 -0.5895 -0.3554
  340MOL0     C45786   8.997   2.663   1.261 -0.2573  1.0445 -0.8460
  340MOL0     C45787   9.017   2.547   1.365 -0.3991  0.1675 -0.5633
  340MOL0     C45788   9.143   2.580   1.438 -0.3518  0.4515 -0.8586
  340MOL0     O45789   9.266   2.513   1.404  0.1955 -0.2301 -0.0723
  340MOL0     C45790   9.373   2.530   1.480 -0.7010 -0.2368 -0.2492
  340MOL0     C45791   9.484   2.451   1.444 -0.7004  0.1810 -0.4248
  340MOL0     C45792   9.610   2.479   1.502 -0.1165  0.3103 -0.3142
  340MOL0     C45793   9.623   2.571   1.609 -1.0710 -0.3824 -0.4165
  340MOL0     C45794   9.759   2.598   1.661 -0.6839 -0.0322 -0.6087
  340MOL0     O45795   9.856   2.560   1.564 -0.9349  0.8754 -0.4871
  340MOL0     C45796   9.993   2.569   1.573  0.3671  1.3006  0.4420
  340MOL0     C45797  10.062   2.656   1.659 -0.1886 -0.1804 -0.2373
  340MOL0     C45798  10.202   2.659   1.656  0.2704  0.1203  0.5847
  340MOL0     C45799  10.273   2.574   1.582  0.2973 -0.1882 -0.4588
  340MOL0     O45800  10.413   2.577   1.567 -0.2297  0.8825  0.4556
  340MOL0     C45801  10.508   2.660   1.639  0.8801 -0.2782  0.4918
  340MOL0     C45802  10.586   2.754   1.554  0.3412  0.1251  0.8451
  340MOL0     C45803  10.503   2.875   1.519 -0.0870 -0.4947 -0.2914
  340MOL0     C45804  10.580   2.968   1.433  0.0290  0.5673 -0.0934
  340MOL0     C45805  10.522   3.116   1.422  0.4394 -0.9847 -0.0510
  340MOL0     C45806  10.554   3.200   1.540  0.2442 -0.1323  0.3496
  340MOL0     C45807  10.568   3.340   1.490 -0.0713 -0.7599 -0.9598
  340MOL0     C45808  10.559   3.439   1.603  0.2888  0.3843 -0.2168
  340MOL0    Cl45809  10.544   3.601   1.534  0.2109 -0.0591  0.1919
  340MOL0     C45810  10.209   2.472   1.508  0.1851  0.5666  0.6499
  340MOL0     C45811  10.067   2.470   1.505  0.2979 -0.6496 -0.7299
  340MOL0     O45812   9.781   2.656   1.762  0.7336  0.7329  0.5685
  340MOL0     C45813   9.519   2.654   1.640  0.1463  0.1698  0.6242
  340MOL0     C45814   9.391   2.628   1.584 -0.1146  0.4730  0.9882
  340MOL0     N45815   8.900   2.888   1.084 -0.1632  0.5570 -0.4397
  340MOL0     N45816   8.857   2.956   0.976  0.5389 -0.1658  0.3241
  340MOL0     C45817   7.723   2.593   0.529  0.8969 -0.3657 -0.4628
  340MOL0     C45818   7.605   2.536   0.478 -0.3641  0.9562  0.1241
  340MOL0     C45819   7.231   2.285   0.552 -0.2299  0.0542 -0.3281
  340MOL0     C45820   7.124   2.366   0.597 -0.6298  0.3774 -0.7464
  340MOL0     C45821   6.999   2.311   0.626  0.3087 -0.7039 -0.0989
  340MOL0     C45822   6.968   2.179   0.602  0.1640 -0.2815 -0.2774
  340MOL0     O45823   6.845   2.126   0.620  0.2770  0.4767 -0.6116
  340MOL0     C45824   6.740   2.210   0.677  0.2197  0.0097  0.2983
  340MOL0     C45825   6.610   2.138   0.680 -0.6920  0.0607 -0.4627
  340MOL0     C45826   6.542   2.149   0.553  0.0722 -0.2285  0.6196
  340MOL0     C45827   6.429   2.037   0.548  0.2363  0.4779 -0.0284
  340MOL0     C45828   6.318   2.081   0.617  0.6833 -1.0509  0.3465
  340MOL0     C45829   6.255   2.126   0.710 -0.0263 -0.2127  0.9903
  340MOL0     C45830   7.068   2.105   0.545  0.8611  0.1568 -0.5189
  340MOL0     C45831   7.198   2.146   0.528  0.0584 -1.0593  0.7730
  340MOL0     C45832   7.293   2.046   0.468  0.2546  0.5922 -0.0450
  340MOL0     H45833   7.376   2.636   0.702  1.0993 -0.1964  0.2752
  340MOL0     H45834   7.568   2.726   0.814 -3.2177  1.2182 -1.3453
  340MOL0     H45835   7.791   2.875   0.796 -1.4312 -0.3743 -0.9954
  340MOL0     H45836   7.815   2.742   0.896 -0.6560  1.2786 -0.8720
  340MOL0     H45837   8.034   2.849   0.703  3.5470 -2.6641 -0.1021
  340MOL0     H45838   8.054   2.717   0.806 -0.5261  0.3584 -0.1485
  340MOL0     H45839   7.982   2.904   0.996 -0.0942 -0.4762  0.0505
  340MOL0     H45840   8.046   3.017   0.878 -0.4565  1.1167  1.0733
  340MOL0     H45841   8.226   2.953   1.031  0.9392  1.1063 -0.1266
  340MOL0     H45842   8.200   2.784   0.992  1.1417  0.9308 -0.3593
  340MOL0     H45843   8.270   2.820   0.761 -2.0050  1.9117 -0.7086
  340MOL0     H45844   8.291   2.996   0.778 -4.3001 -1.3384 -2.8192
  340MOL0     H45845   8.459   2.989   0.937  3.9432 -0.2980 -2.3722
  340MOL0     H45846   8.443   2.818   0.966  1.0871 -1.6284 -1.2942
  340MOL0     H45847   8.500   2.909   0.691 -2.0506 -0.3941 -0.3524
  340MOL0     H45848   8.529   2.748   0.765  0.4134 -0.3532  0.9949
  340MOL0     H45849   8.734   2.867   0.738  0.2327  1.7709 -0.9311
  340MOL0     H45850   8.662   3.019   0.801  0.3888 -0.1754  1.3233
  340MOL0     H45851   8.664   2.689   0.993 -0.3184 -0.4565 -3.0908
  340MOL0     H45852   8.785   2.627   1.249  2.9229 -2.1882  3.3853
  340MOL0     H45853   8.867   2.563   1.109 -0.9605  0.2411 -1.3245
  340MOL0     H45854   9.075   2.675   1.185  1.9228  0.3122  1.1631
  340MOL0     H45855   8.969   2.757   1.310 -2.4167 -0.5658  1.2152
  340MOL0     H45856   9.005   2.450   1.318 -1.6324  0.3689 -0.6921
  340MOL0     H45857   8.934   2.556   1.436 -0.8389 -2.8525 -0.5884
  340MOL0     H45858   9.141   2.552   1.544 -3.3267 -3.6151 -1.7534
  340MOL0     H45859   9.152   2.689   1.435 -1.2897  0.5129 -2.1805
  340MOL0     H45860   9.469   2.371   1.373  1.0683  1.4871 -2.3790
  340MOL0     H45861   9.684   2.402   1.484  0.6646  0.0137  3.4074
  340MOL0     H45862  10.007   2.730   1.716  1.3336  0.6689  0.1745
  340MOL0     H45863  10.250   2.728   1.726 -0.6153 -0.6753  2.0230
  340MOL0     H45864  10.450   2.715   1.714 -2.5835  0.3513 -2.3770
  340MOL0     H45865  10.579   2.593   1.689  2.3067 -0.2095 -1.3547
  340MOL0     H45866  10.675   2.790   1.606  0.6330 -3.2047  2.9381
  340MOL0     H45867  10.622   2.689   1.473  2.3087  0.4187  1.4196
  340MOL0     H45868  10.409   2.843   1.474  0.0905  1.0486 -1.8511
  340MOL0     H45869  10.474   2.925   1.612 -2.1179 -1.8495 -0.1303
  340MOL0     H45870  10.595   2.908   1.343 -1.7025  0.6792 -0.4878
  340MOL0     H45871  10.682   2.974   1.471 -0.7324 -1.3029  2.5912
  340MOL0     H45872  10.416   3.110   1.398  0.1485 -0.3478  1.0339
  340MOL0     H45873  10.581   3.161   1.341 -0.3127 -1.2633 -0.7677
  340MOL0     H45874  10.468   3.190   1.606  0.8122  2.4227  1.5830
  340MOL0     H45875  10.647   3.162   1.582  0.4616  1.5784  1.4844
  340MOL0     H45876  10.482   3.362   1.427 -0.8360  0.0023  0.3196
  340MOL0     H45877  10.663   3.352   1.437 -0.5467  1.1790 -1.4355
  340MOL0     H45878  10.480   3.412   1.674  0.0311 -0.7049 -0.8945
  340MOL0     H45879  10.648   3.430   1.666  0.2375 -1.1654 -0.3331
  340MOL0     H45880  10.265   2.415   1.434  0.9565  2.2071 -0.0859
  340MOL0     H45881  10.023   2.407   1.428 -1.4433  0.8061 -1.0012
  340MOL0     H45882   9.529   2.727   1.719 -3.9505  0.2944  1.2631
  340MOL0     H45883   9.296   2.668   1.619  0.2284 -0.0497  2.6321
  340MOL0     H45884   7.816   2.599   0.475  2.1234  1.8453  1.6788
  340MOL0     H45885   7.607   2.484   0.383  2.7563 -1.8618  1.5414
  340MOL0     H45886   7.148   2.467   0.630 -0.0809  0.4491 -1.3320
  340MOL0     H45887   6.925   2.375   0.674 -2.1204 -0.1221 -4.1416
  340MOL0     H45888   6.721   2.301   0.619  0.3856 -0.1016  0.0686
  340MOL0     H45889   6.772   2.237   0.779 -1.2389  1.6665  0.3479
  340MOL0     H45890   6.549   2.173   0.764  1.0150 -0.1240  0.9285
  340MOL0     H45891   6.636   2.033   0.698 -0.0365  0.2719 -0.1452
  340MOL0     H45892   6.605   2.139   0.464 -3.6312 -0.9167 -2.1687
  340MOL0     H45893   6.504   2.251   0.542  2.6119  0.7185 -0.0151
  340MOL0     H45894   6.396   2.020   0.445  0.7127  2.0508 -0.4597
  340MOL0     H45895   6.469   1.947   0.596  0.4590  1.4378  1.6400
  340MOL0     H45896   6.222   2.183   0.795  0.3114 -1.7846  2.2214
  340MOL0     H45897   7.041   2.008   0.506 -1.4150  0.2794  0.5565
  340MOL0     H45898   7.343   2.087   0.380 -3.5680  1.0826 -2.1922
  340MOL0     H45899   7.370   2.017   0.540 -0.1678 -0.8550 -0.1302
  340MOL0     H45900   7.226   1.964   0.440 -0.0347  0.4952  0.8881
  341MOL0     O45901   2.622   9.932  10.404  0.2263  0.0698 -0.4695
  341MOL0     C45902   2.605   9.867  10.306 -1.1388 -0.1123 -0.5865
  341MOL0     O45903   2.711   9.814  10.232  0.2493 -0.2844 -0.4332
  341MOL0     C45904   2.839   9.862  10.257  0.5830 -0.2970 -0.0418
  341MOL0     C45905   2.892   9.947  10.166  0.2596  0.5491  0.1495
  341MOL0     C45906   3.025   9.993  10.167 -0.9598  0.4540 -0.6642
  341MOL0     C45907   3.103   9.941  10.268  0.2275  0.1247  0.8890
  341MOL0     O45908   3.233   9.994  10.285  0.0746 -0.5478  0.1509
  341MOL0     C45909   3.335   9.896  10.261 -0.3073  0.2906 -0.2943
  341MOL0     C45910   3.467   9.955  10.325  0.0577 -0.5957  0.4844
  341MOL0     C45911   3.580   9.856  10.325  0.4910  0.4038  0.2978
  341MOL0     C45912   3.648   9.837  10.190  0.2186  0.3099  0.1959
  341MOL0     C45913   3.582   9.722  10.104 -0.2908 -0.2413  0.6658
  341MOL0     C45914   3.632   9.721   9.958 -0.1732 -0.2688 -0.8226
  341MOL0     C45915   3.779   9.710   9.933 -0.7535  0.3371 -0.0454
  341MOL0     C45916   3.819   9.575   9.977 -0.4077  1.2229 -0.2662
  341MOL0     N45917   3.957   9.545   9.953 -0.2769  0.1004  0.0675
  341MOL0     C45918   4.000   9.511   9.825  0.2980 -0.0802 -0.2354
  341MOL0     C45919   4.138   9.514   9.836 -0.1443  0.0419  0.1891
  341MOL0     C45920   4.231   9.496   9.724 -0.6953  0.2511  0.2092
  341MOL0     C45921   4.378   9.507   9.774 -0.0490 -0.5565 -0.4837
  341MOL0     C45922   4.470   9.461   9.667  0.8638  0.9213 -0.4404
  341MOL0     C45923   4.597   9.390   9.702 -0.6321 -0.8178  0.1219
  341MOL0     O45924   4.571   9.280   9.799 -0.8586  0.0815  0.0152
  341MOL0     C45925   4.679   9.255   9.877  0.5559  0.2298  0.7816
  341MOL0     C45926   4.673   9.293  10.006 -0.1284  0.1486 -0.2753
  341MOL0     C45927   4.778   9.265  10.088  0.0116  0.8540 -0.2678
  341MOL0     C45928   4.887   9.200  10.037 -0.5537 -0.1004 -1.1501
  341MOL0     C45929   5.003   9.174  10.128  1.1847 -0.1928  1.0397
  341MOL0     O45930   5.015   9.250  10.244  0.1021  0.3018  0.5751
  341MOL0     C45931   5.114   9.215  10.332 -0.2653 -0.2327  0.3258
  341MOL0     C45932   5.239   9.271  10.314  0.1811 -0.0566  0.0331
  341MOL0     C45933   5.347   9.234  10.402 -0.4108  0.0071 -0.0354
  341MOL0     C45934   5.314   9.170  10.524 -0.2377  0.2908  0.0054
  341MOL0     O45935   5.427   9.135  10.597  0.3346 -1.0072  0.6483
  341MOL0     C45936   5.408   9.123  10.733 -0.4460  0.0608  0.2958
  341MOL0     C45937   5.546   9.145  10.796  0.9562  0.2486 -0.3572
  341MOL0     C45938   5.615   9.267  10.738  0.6968 -0.8290  0.5364
  341MOL0     C45939   5.726   9.326  10.828  0.4337  0.8857 -0.3060
  341MOL0     C45940   5.787   9.445  10.747 -0.1212 -0.0856 -0.0374
  341MOL0     C45941   5.934   9.490  10.784 -0.3074  0.2854  0.0933
  341MOL0     C45942   5.939   9.569  10.918 -0.8210  0.4083  0.9633
  341MOL0     C45943   6.063   9.537  10.995  0.4845 -0.1308  0.4087
  341MOL0    Cl45944   6.209   9.627  10.925  0.3763 -0.3498  0.1827
  341MOL0     C45945   5.187   9.114  10.547 -0.1075 -0.5075  0.2676
  341MOL0     C45946   5.088   9.139  10.450 -0.3919  0.5442 -0.2632
  341MOL0     O45947   5.082   9.089  10.082 -0.2313 -0.1206  0.4734
  341MOL0     C45948   4.897   9.172   9.901 -0.2863 -0.0052 -0.0637
  341MOL0     C45949   4.794   9.199   9.820  1.1316  0.3528 -0.0596
  341MOL0     N45950   4.168   9.538   9.969  0.1787 -0.0898  0.5069
  341MOL0     N45951   4.059   9.564  10.039 -0.4153  0.0553  0.7016
  341MOL0     C45952   3.051   9.853  10.362 -0.8344 -0.3721  0.8606
  341MOL0     C45953   2.917   9.829  10.359 -0.3195 -0.7336 -0.7027
  341MOL0     C45954   2.468   9.862  10.262 -0.0698  0.7685  0.1284
  341MOL0     C45955   2.399   9.979  10.264  0.3442 -0.2247 -0.2728
  341MOL0     C45956   2.262   9.992  10.223  0.1758  0.3026 -0.5233
  341MOL0     C45957   2.196   9.872  10.187  0.0619 -0.5634  0.1909
  341MOL0     O45958   2.071   9.888  10.132 -0.3693 -0.0856 -0.1841
  341MOL0     C45959   2.057   9.815  10.007  0.0079 -1.2709  0.7892
  341MOL0     C45960   1.902   9.803   9.983  0.7197 -0.1579 -0.5748
  341MOL0     C45961   1.839   9.918   9.913  0.0521  0.0581 -0.3429
  341MOL0     C45962   1.686   9.910   9.873 -0.4189  0.5676  0.3170
  341MOL0     C45963   1.626   9.768   9.869  1.2725 -0.7078  0.7949
  341MOL0     C45964   1.587   9.655   9.865  0.5511 -0.3145  0.0485
  341MOL0     C45965   2.266   9.753  10.183 -0.7520 -1.2708  0.5370
  341MOL0     C45966   2.399   9.743  10.223 -0.4884  0.2733  0.3177
  341MOL0     C45967   2.465   9.609  10.230  0.1625  0.9246  1.2775
  341MOL0     H45968   2.826   9.994  10.094  1.6791  2.1891 -0.1450
  341MOL0     H45969   3.074  10.073  10.112  0.5359 -0.4999 -0.7744
  341MOL0     H45970   3.320   9.803  10.317  1.5550 -0.6420 -1.2618
  341MOL0     H45971   3.346   9.877  10.154 -0.7062 -1.6393 -0.0202
  341MOL0     H45972   3.433   9.973  10.428 -1.1056  1.5072 -0.2061
  341MOL0     H45973   3.512  10.046  10.282  0.7728 -1.1591  0.0188
  341MOL0     H45974   3.540   9.758  10.355 -1.8708  0.9255 -0.8887
  341MOL0     H45975   3.661   9.897  10.386 -2.9855  2.9362  3.6564
  341MOL0     H45976   3.654   9.926  10.127 -0.0301  1.1858  1.3588
  341MOL0     H45977   3.751   9.803  10.207 -0.0295 -0.1859  0.7694
  341MOL0     H45978   3.610   9.625  10.148  0.9222 -2.1245 -3.6918
  341MOL0     H45979   3.474   9.741  10.106 -0.3539  0.3960 -3.0098
  341MOL0     H45980   3.580   9.636   9.915  0.7740 -2.5628  2.2340
  341MOL0     H45981   3.587   9.815   9.924  0.2560  1.2303  2.3721
  341MOL0     H45982   3.828   9.788   9.992 -0.8497  0.4978 -0.1779
  341MOL0     H45983   3.798   9.731   9.828 -1.1089 -1.6232 -0.5391
  341MOL0     H45984   3.803   9.567  10.085  3.1842  2.4732  0.4821
  341MOL0     H45985   3.751   9.504   9.929 -1.6126  0.5425  2.2644
  341MOL0     H45986   3.937   9.480   9.743 -0.7320 -0.1979  0.5768
  341MOL0     H45987   4.209   9.399   9.681  2.2760 -0.2622 -0.3874
  341MOL0     H45988   4.218   9.568   9.643  1.4445  0.9987  0.4463
  341MOL0     H45989   4.392   9.609   9.811 -4.8127 -0.0349  0.5272
  341MOL0     H45990   4.400   9.442   9.859  1.4206  1.0715  0.4351
  341MOL0     H45991   4.500   9.556   9.621 -1.1333  2.4663  1.2198
  341MOL0     H45992   4.420   9.396   9.596 -0.8061  1.5289  0.1439
  341MOL0     H45993   4.663   9.465   9.745 -0.9765 -0.0094 -0.7350
  341MOL0     H45994   4.646   9.363   9.609  1.0204  1.5253  0.2283
  341MOL0     H45995   4.588   9.349  10.042  0.8023  2.1486 -1.0171
  341MOL0     H45996   4.774   9.293  10.193  3.2579 -2.1303  0.8231
  341MOL0     H45997   5.262   9.339  10.232 -3.8944 -0.2604 -1.5030
  341MOL0     H45998   5.450   9.257  10.377 -0.2452 -0.7431 -0.0564
  341MOL0     H45999   5.346   9.205  10.768  0.7816  2.1271 -2.0624
  341MOL0     H46000   5.365   9.022  10.737 -1.7490  0.5098 -1.3343
  341MOL0     H46001   5.532   9.157  10.904 -3.0879 -1.6205 -0.5006
  341MOL0     H46002   5.608   9.057  10.775 -0.3605 -0.5362 -1.0951
  341MOL0     H46003   5.658   9.231  10.644  0.1731 -0.5151  0.1732
  341MOL0     H46004   5.545   9.345  10.706 -0.4534 -3.0102 -2.8845
  341MOL0     H46005   5.801   9.248  10.846 -1.6416 -1.5652 -1.6399
  341MOL0     H46006   5.695   9.365  10.926  0.4786  0.8326 -0.2705
  341MOL0     H46007   5.713   9.525  10.754  0.4626  0.3111  2.5958
  341MOL0     H46008   5.787   9.411  10.643 -1.7245  0.1604 -0.1364
  341MOL0     H46009   5.992   9.397  10.791  0.5931  0.4799 -3.3035
  341MOL0     H46010   5.988   9.555  10.716 -2.9645  1.8158 -0.6823
  341MOL0     H46011   5.850   9.544  10.975 -0.1041  1.4792  2.6514
  341MOL0     H46012   5.918   9.675  10.898  0.2628  0.6207  0.8777
  341MOL0     H46013   6.052   9.554  11.102  2.6341 -0.9247  0.8156
  341MOL0     H46014   6.094   9.433  10.985  0.6487  0.0498 -1.1946
  341MOL0     H46015   5.169   9.049  10.632  1.4541 -2.3247 -0.7097
  341MOL0     H46016   4.995   9.090  10.479  0.1153  2.0675  5.0182
  341MOL0     H46017   4.987   9.126   9.861  0.5914  1.1874  0.4686
  341MOL0     H46018   4.795   9.174   9.715  3.2757 -1.4755  0.3262
  341MOL0     H46019   3.122   9.813  10.433 -0.6449 -2.3381 -0.3486
  341MOL0     H46020   2.878   9.765  10.438  1.3974 -0.1791  0.6569
  341MOL0     H46021   2.451  10.072  10.284  1.3872 -0.7544 -0.4664
  341MOL0     H46022   2.208  10.086  10.228  0.9430  0.8860 -2.2053
  341MOL0     H46023   2.097   9.713  10.013 -0.9124 -1.6842  0.1181
  341MOL0     H46024   2.106   9.868   9.925 -1.2672 -2.1087 -0.5642
  341MOL0     H46025   1.848   9.791  10.077  1.0752 -4.7740 -0.7697
  341MOL0     H46026   1.893   9.709   9.928 -1.0958 -0.9377  0.9771
  341MOL0     H46027   1.896   9.938   9.821 -0.6600 -3.5769 -1.7560
  341MOL0     H46028   1.860  10.014   9.961  4.7236 -0.4290 -0.8901
  341MOL0     H46029   1.626   9.967   9.945  0.3857  1.3481  0.3947
  341MOL0     H46030   1.682   9.959   9.775  1.1539  3.0951  1.3991
  341MOL0     H46031   1.558   9.553   9.847  0.5440 -0.0484 -1.5589
  341MOL0     H46032   2.210   9.661  10.165 -2.9826  0.3158 -1.2581
  341MOL0     H46033   2.411   9.545  10.159  0.6284 -0.3421  2.0211
  341MOL0     H46034   2.570   9.619  10.201 -0.1507  0.8994  0.0815
  341MOL0     H46035   2.452   9.571  10.332  0.3590  0.0840  0.9978
  342MOL0     O46036   5.387   4.029   4.812 -0.1808  0.6467 -0.0332
  342MOL0     C46037   5.419   3.915   4.782  0.2465  0.3171  0.5248
  342MOL0     O46038   5.542   3.878   4.762 -0.0496  0.1479 -0.0074
  342MOL0     C46039   5.665   3.943   4.768  0.0531 -0.4640  0.2290
  342MOL0     C46040   5.687   4.083   4.774 -0.1440 -0.4106 -0.3366
  342MOL0     C46041   5.814   4.142   4.793 -1.0538  0.4056 -0.0685
  342MOL0     C46042   5.923   4.062   4.774 -0.2458  0.4603 -0.3913
  342MOL0     O46043   6.048   4.121   4.758 -0.1920  0.0491 -1.0023
  342MOL0     C46044   6.139   4.078   4.859 -0.6589 -0.2523 -0.8662
  342MOL0     C46045   6.261   4.174   4.879 -1.1654  0.1604  0.1826
  342MOL0     C46046   6.339   4.151   5.008 -0.2012 -0.1598 -0.4758
  342MOL0     C46047   6.453   4.242   5.027 -0.0661 -0.0791  0.4832
  342MOL0     C46048   6.539   4.208   5.154 -0.1129  0.1822  0.3346
  342MOL0     C46049   6.478   4.240   5.291  0.0188 -0.3696 -0.0546
  342MOL0     C46050   6.566   4.207   5.409 -0.2578 -0.2158 -0.6874
  342MOL0     C46051   6.677   4.304   5.428  0.2402 -0.0752 -0.5475
  342MOL0     N46052   6.768   4.251   5.534 -0.1432  0.3924 -0.0402
  342MOL0     C46053   6.757   4.253   5.665 -0.1948  0.0150 -0.7352
  342MOL0     C46054   6.873   4.188   5.712  0.5254 -0.3863  0.4174
  342MOL0     C46055   6.915   4.168   5.855 -0.4698  0.0137 -0.6153
  342MOL0     C46056   6.908   4.299   5.932  0.1564 -0.3458  0.0252
  342MOL0     C46057   6.949   4.278   6.080 -0.0897 -0.3684 -0.3798
  342MOL0     C46058   7.091   4.260   6.105 -0.5618 -0.4657 -0.5897
  342MOL0     O46059   7.144   4.125   6.092  0.0911 -0.7400  0.2901
  342MOL0     C46060   7.280   4.117   6.054  0.0513  0.0849  0.5585
  342MOL0     C46061   7.380   4.180   6.118  0.1139 -0.4452  0.2574
  342MOL0     C46062   7.516   4.159   6.083 -0.5110  0.8092  0.7192
  342MOL0     C46063   7.548   4.068   5.975  0.0945 -0.3937  0.8917
  342MOL0     C46064   7.690   4.055   5.920 -0.8108  0.0327  0.6264
  342MOL0     O46065   7.786   4.152   5.945  0.0262  0.6115 -0.6014
  342MOL0     C46066   7.913   4.115   5.914 -1.0029 -0.4464  0.1058
  342MOL0     C46067   7.973   4.167   5.790  0.1408  0.4124  0.1391
  342MOL0     C46068   8.092   4.113   5.750 -0.3319 -1.0094  0.1526
  342MOL0     C46069   8.160   4.023   5.828 -0.0219  0.1053 -0.2179
  342MOL0     O46070   8.284   3.964   5.803  0.0735 -0.0458  0.0033
  342MOL0     C46071   8.377   4.041   5.719  0.3309 -0.2077 -0.0168
  342MOL0     C46072   8.489   3.940   5.698  0.7610  0.4437 -0.2676
  342MOL0     C46073   8.549   3.952   5.556  0.2001  0.6551  0.1556
  342MOL0     C46074   8.653   3.837   5.551 -0.1944 -0.5728  0.5249
  342MOL0     C46075   8.745   3.857   5.427  0.2992  0.0717 -0.3141
  342MOL0     C46076   8.882   3.797   5.449 -0.0529  0.5551  0.6708
  342MOL0     C46077   8.877   3.641   5.467 -0.7701  0.4272 -0.4098
  342MOL0     C46078   9.010   3.590   5.491 -0.8878  0.1059  0.1503
  342MOL0    Cl46079   9.016   3.408   5.480  0.0530  0.2223 -0.0221
  342MOL0     C46080   8.102   3.979   5.949 -0.4461 -1.0509 -0.7039
  342MOL0     C46081   7.975   4.018   5.990  0.2907 -0.1766  0.3954
  342MOL0     O46082   7.709   3.965   5.830 -0.2341 -0.6811  0.1166
  342MOL0     C46083   7.440   3.988   5.921  0.7767 -0.1569 -0.1896
  342MOL0     C46084   7.307   4.020   5.966 -0.6514 -0.1385 -0.3430
  342MOL0     N46085   6.959   4.164   5.602  0.3876 -0.0449 -0.2253
  342MOL0     N46086   6.890   4.192   5.493  1.2228  0.3030  0.2374
  342MOL0     C46087   5.903   3.923   4.753  0.5947  0.2606  0.1594
  342MOL0     C46088   5.775   3.864   4.751  0.7137 -0.6191  0.2514
  342MOL0     C46089   5.324   3.806   4.778  0.7467  1.1556  0.6900
  342MOL0     C46090   5.189   3.846   4.759  0.9430  0.0420  0.5109
  342MOL0     C46091   5.088   3.755   4.745  0.1037 -0.1184  0.5292
  342MOL0     C46092   5.113   3.621   4.750  0.4940 -0.9684  0.4309
  342MOL0     O46093   5.013   3.541   4.697  0.0731  0.4218 -0.0377
  342MOL0     C46094   4.986   3.426   4.784 -1.2069 -0.7719 -0.3610
  342MOL0     C46095   4.908   3.478   4.903  0.3326  0.3291 -0.6664
  342MOL0     C46096   4.884   3.360   5.008  0.7307  0.1916  0.4357
  342MOL0     C46097   4.751   3.279   4.994 -0.5933 -0.2896 -0.5817
  342MOL0     C46098   4.747   3.165   5.083  0.5074  0.5946  0.0985
  342MOL0     C46099   4.729   3.059   5.149  0.0021 -0.5014 -0.4342
  342MOL0     C46100   5.241   3.574   4.763 -0.5711  0.1688 -0.3093
  342MOL0     C46101   5.348   3.664   4.782 -0.1780  0.4714  0.7637
  342MOL0     C46102   5.491   3.607   4.807  0.0158  0.2351 -0.0480
  342MOL0     H46103   5.603   4.151   4.767  1.2792  1.3675 -0.5397
  342MOL0     H46104   5.829   4.249   4.798 -1.0622  0.3813  0.5144
  342MOL0     H46105   6.091   4.084   4.957 -0.7054 -2.4946 -0.7145
  342MOL0     H46106   6.176   3.978   4.836 -1.1391 -0.5567 -0.3436
  342MOL0     H46107   6.232   4.279   4.871  0.6164  0.5803 -1.3877
  342MOL0     H46108   6.339   4.165   4.803 -1.1977 -0.6323  0.2324
  342MOL0     H46109   6.376   4.048   5.016  1.4509  0.5112  1.3775
  342MOL0     H46110   6.278   4.167   5.097  2.4183  0.8760  1.2601
  342MOL0     H46111   6.525   4.245   4.945  0.2226  0.3684  0.7437
  342MOL0     H46112   6.424   4.347   5.039  0.0445 -0.0101  0.1582
  342MOL0     H46113   6.560   4.101   5.156 -0.8243  0.0547  2.3626
  342MOL0     H46114   6.633   4.263   5.148 -0.9239  1.4574 -3.0367
  342MOL0     H46115   6.443   4.344   5.292 -3.7767 -1.4760  0.0674
  342MOL0     H46116   6.380   4.190   5.291 -0.6012  0.7043  2.1308
  342MOL0     H46117   6.610   4.107   5.400  0.1141  0.0543 -2.2813
  342MOL0     H46118   6.511   4.204   5.503  1.4511 -1.8145  0.3269
  342MOL0     H46119   6.735   4.336   5.340  1.2635 -1.9926 -0.6215
  342MOL0     H46120   6.642   4.399   5.468  1.7085  1.1193 -1.9415
  342MOL0     H46121   6.675   4.286   5.728  1.7784 -1.2673  2.8075
  342MOL0     H46122   6.860   4.084   5.898  0.3537 -0.0766  0.3236
  342MOL0     H46123   7.019   4.134   5.855 -1.0309 -1.7973  0.0586
  342MOL0     H46124   6.971   4.376   5.886  1.3290 -1.9074 -1.0660
  342MOL0     H46125   6.803   4.329   5.940 -1.0481 -4.5058  2.8111
  342MOL0     H46126   6.893   4.195   6.124  0.8381 -0.4524  0.7169
  342MOL0     H46127   6.918   4.368   6.134  2.5493  0.3984  0.0017
  342MOL0     H46128   7.114   4.291   6.208 -1.2899  0.4406 -0.6810
  342MOL0     H46129   7.147   4.321   6.035  0.5416  1.7159  2.0000
  342MOL0     H46130   7.357   4.247   6.200 -0.9468 -0.4600 -0.0119
  342MOL0     H46131   7.591   4.224   6.128  0.3156 -0.8689  1.9186
  342MOL0     H46132   7.922   4.223   5.711  2.1900  1.7749 -0.3040
  342MOL0     H46133   8.135   4.148   5.657  0.4378  0.3632  0.9951
  342MOL0     H46134   8.318   4.060   5.629  1.3532 -0.6978 -0.8131
  342MOL0     H46135   8.405   4.140   5.756  1.0094 -0.3803 -0.0652
  342MOL0     H46136   8.554   3.953   5.785  0.1516 -1.5057  0.5316
  342MOL0     H46137   8.446   3.840   5.696 -0.1529  0.8352 -0.9029
  342MOL0     H46138   8.476   3.929   5.478  0.0196 -1.6095  0.9173
  342MOL0     H46139   8.588   4.052   5.534  1.2574  0.2424  0.1134
  342MOL0     H46140   8.605   3.739   5.549 -0.4579 -0.4336 -1.1651
  342MOL0     H46141   8.714   3.840   5.642  0.8351 -0.5510 -0.1508
  342MOL0     H46142   8.762   3.965   5.424 -0.1038  0.2740  2.1462
  342MOL0     H46143   8.683   3.829   5.341 -4.8562  0.6844  2.7475
  342MOL0     H46144   8.947   3.814   5.362  0.3062 -1.4569  0.5048
  342MOL0     H46145   8.924   3.843   5.539  0.9413 -2.6925  2.0085
  342MOL0     H46146   8.832   3.587   5.383  1.2165 -0.9261 -0.6644
  342MOL0     H46147   8.823   3.609   5.556  4.3488 -1.5173  2.4089
  342MOL0     H46148   9.081   3.633   5.419  1.1708 -3.8206 -0.4515
  342MOL0     H46149   9.051   3.625   5.586  1.2431  0.5931 -0.8947
  342MOL0     H46150   8.155   3.907   6.010  1.2925  1.3139  0.7419
  342MOL0     H46151   7.908   3.982   6.067 -1.0140 -0.4099 -0.8072
  342MOL0     H46152   7.452   3.924   5.835  0.7568 -2.9898  1.7998
  342MOL0     H46153   7.237   3.969   5.901 -0.7808  1.4180 -1.4658
  342MOL0     H46154   5.989   3.866   4.720  1.2276  0.9037  0.6542
  342MOL0     H46155   5.774   3.761   4.718  0.4322 -0.7700  0.7250
  342MOL0     H46156   5.168   3.952   4.750 -4.3547 -0.8992 -1.3683
  342MOL0     H46157   4.988   3.793   4.730  0.0071 -1.0938 -1.6032
  342MOL0     H46158   5.080   3.382   4.818 -0.3164 -0.0322 -1.7696
  342MOL0     H46159   4.920   3.349   4.744 -2.0733  0.3885 -1.2349
  342MOL0     H46160   4.810   3.510   4.867  0.1170  0.0124 -0.3694
  342MOL0     H46161   4.957   3.560   4.957 -0.8263  0.2501  0.5432
  342MOL0     H46162   4.886   3.393   5.112  3.3773 -0.3281  0.6253
  342MOL0     H46163   4.965   3.289   4.986 -0.3238 -0.1604 -2.9896
  342MOL0     H46164   4.668   3.342   5.026  0.9774  0.5890  2.0825
  342MOL0     H46165   4.744   3.258   4.886 -2.6468  2.2516 -1.0338
  342MOL0     H46166   4.696   2.976   5.208  0.8007 -0.1073  0.5937
  342MOL0     H46167   5.262   3.468   4.749  1.3337  0.3647  0.7019
  342MOL0     H46168   5.569   3.630   4.733 -1.1520  2.5724 -0.6529
  342MOL0     H46169   5.541   3.642   4.898  0.3331 -1.1266  0.3172
  342MOL0     H46170   5.486   3.499   4.816 -1.1075  0.2468 -0.3970
  343MOL0     O46171   9.573   1.387   0.195 -0.2354 -0.1077  0.1104
  343MOL0     C46172   9.516   1.284   0.180  0.5527 -0.1206  0.6729
  343MOL0     O46173   9.557   1.165   0.230 -0.0764 -0.2521  1.2747
  343MOL0     C46174   9.678   1.153   0.288 -0.6409  0.0883 -0.1121
  343MOL0     C46175   9.798   1.233   0.276 -0.4191 -0.4809  0.2871
  343MOL0     C46176   9.911   1.200   0.357  0.8044  0.0711 -0.4317
  343MOL0     C46177   9.912   1.104   0.459  0.5370  0.3059  0.6336
  343MOL0     O46178  10.022   1.069   0.536  0.9681 -0.1107  0.4316
  343MOL0     C46179  10.131   1.161   0.542 -0.1794 -0.1237  0.7897
  343MOL0     C46180  10.234   1.126   0.652 -0.1205 -0.6142  0.2818
  343MOL0     C46181  10.352   1.231   0.653 -0.1214  0.9518  0.9447
  343MOL0     C46182  10.452   1.202   0.531  0.5687  0.7286 -0.0767
  343MOL0     C46183  10.566   1.301   0.544 -0.0796  0.1051  0.9557
  343MOL0     C46184  10.674   1.253   0.652  0.1019  0.7714 -0.8491
  343MOL0     C46185  10.811   1.330   0.649 -0.3164 -1.0559  0.1801
  343MOL0     C46186  10.780   1.472   0.705  0.1772  0.5811  0.7302
  343MOL0     N46187  10.887   1.578   0.696  0.2396  0.3923  0.3889
  343MOL0     C46188  10.992   1.587   0.607  0.1187 -0.0938 -0.6133
  343MOL0     C46189  11.056   1.705   0.627  0.0845 -0.1254  0.2402
  343MOL0     C46190  11.173   1.753   0.551  0.0519 -0.3194 -0.4193
  343MOL0     C46191  11.285   1.793   0.643 -0.3945  0.2715 -0.2830
  343MOL0     C46192  11.276   1.942   0.698 -0.5140  0.3828  0.3143
  343MOL0     C46193  11.401   1.982   0.777 -0.8583  0.2161  0.9395
  343MOL0     O46194  11.513   2.017   0.694 -0.7738 -0.5636  0.7612
  343MOL0     C46195  11.634   2.034   0.754  0.0077 -0.2478  0.1946
  343MOL0     C46196  11.736   2.051   0.670 -0.5884  0.3946  0.5793
  343MOL0     C46197  11.867   2.075   0.710  0.8036 -0.8169 -0.3202
  343MOL0     C46198  11.897   2.084   0.842  0.2911 -0.1632  0.4348
  343MOL0     C46199  12.038   2.109   0.875  0.4730  0.8477 -0.6225
  343MOL0     O46200  12.124   2.126   0.774  1.2911 -0.2149 -0.1686
  343MOL0     C46201  12.256   2.137   0.814 -0.0569 -0.6338  0.4215
  343MOL0     C46202  12.302   2.251   0.886 -0.3450 -0.1343  0.9092
  343MOL0     C46203  12.442   2.262   0.899  0.7313 -0.0999 -0.3016
  343MOL0     C46204  12.526   2.159   0.871 -0.7497  0.0982  0.6621
  343MOL0     O46205  12.659   2.167   0.910  1.1724  0.1898  0.0226
  343MOL0     C46206  12.728   2.047   0.954 -0.0911 -0.7547  1.0457
  343MOL0     C46207  12.663   1.993   1.077 -0.3092 -0.8597  0.4318
  343MOL0     C46208  12.672   2.098   1.192 -0.5176 -0.1401  0.1795
  343MOL0     C46209  12.615   2.047   1.317  0.1961  0.7802 -0.5977
  343MOL0     C46210  12.645   2.140   1.445 -0.0706 -0.3097  0.6611
  343MOL0     C46211  12.634   2.295   1.416 -0.4291  0.3538 -0.6110
  343MOL0     C46212  12.654   2.380   1.540  0.4772  0.9015  0.6820
  343MOL0     C46213  12.621   2.526   1.524  0.0628  0.3016 -0.8096
  343MOL0    Cl46214  12.455   2.561   1.499  0.1133  0.6918  0.1796
  343MOL0     C46215  12.476   2.047   0.788  0.3761 -0.9045  0.8199
  343MOL0     C46216  12.341   2.044   0.749 -0.5249 -0.4601 -1.3198
  343MOL0     O46217  12.068   2.101   0.994 -0.9444  0.5806  0.3574
  343MOL0     C46218  11.789   2.062   0.935  0.0645  0.0899  0.2158
  343MOL0     C46219  11.662   2.029   0.890 -0.4840  0.0961  0.0651
  343MOL0     N46220  10.993   1.760   0.739 -0.4083  0.0991  0.8491
  343MOL0     N46221  10.891   1.693   0.775 -0.0382  0.4697  0.5610
  343MOL0     C46222   9.785   1.047   0.477 -0.3323 -0.4154 -0.5262
  343MOL0     C46223   9.670   1.067   0.392 -0.3556  0.6931 -0.3271
  343MOL0     C46224   9.387   1.274   0.100 -0.5933  0.1628 -0.0501
  343MOL0     C46225   9.356   1.148   0.044  0.6657  0.3534 -1.0376
  343MOL0     C46226   9.233   1.124  -0.015 -0.0037  0.6153  1.2248
  343MOL0     C46227   9.148   1.232  -0.037 -0.2150 -0.5233  0.3401
  343MOL0     O46228   9.042   1.228  -0.115  0.2904 -0.2307 -0.1387
  343MOL0     C46229   9.020   1.119  -0.205 -0.4466 -0.8928 -0.1682
  343MOL0     C46230   8.927   1.159  -0.315  0.1226  0.9098 -0.8701
  343MOL0     C46231   8.928   1.052  -0.422 -0.5637 -0.1853 -0.1660
  343MOL0     C46232   8.819   1.090  -0.525  0.2125  0.3560  0.0621
  343MOL0     C46233   8.853   1.019  -0.648  0.1223  0.8257  0.3697
  343MOL0     C46234   8.900   0.952  -0.739 -0.2601  0.1993  0.2842
  343MOL0     C46235   9.176   1.357   0.015 -0.5368 -0.1715 -0.2248
  343MOL0     C46236   9.304   1.381   0.072  0.8967 -0.4988 -0.1601
  343MOL0     C46237   9.324   1.522   0.112 -0.0424 -0.3920 -0.2483
  343MOL0     H46238   9.799   1.307   0.197  1.9825 -1.4531 -0.7008
  343MOL0     H46239  10.000   1.255   0.330  2.1787 -1.7113  0.2212
  343MOL0     H46240  10.187   1.163   0.448 -0.1815 -0.5956  0.7720
  343MOL0     H46241  10.103   1.265   0.559  0.5725  0.1678  0.2924
  343MOL0     H46242  10.273   1.024   0.653  0.3258 -0.4514  1.3739
  343MOL0     H46243  10.176   1.123   0.745  0.2927 -1.6976  0.5125
  343MOL0     H46244  10.411   1.222   0.745  2.3886  1.9575 -0.4700
  343MOL0     H46245  10.321   1.335   0.655  2.1502  1.7264 -0.1859
  343MOL0     H46246  10.482   1.097   0.522 -1.1911  0.0859  1.1200
  343MOL0     H46247  10.402   1.223   0.436  2.4795  2.3680 -0.8066
  343MOL0     H46248  10.617   1.304   0.447 -1.5445 -1.0139  0.0961
  343MOL0     H46249  10.522   1.397   0.573 -1.6048 -0.9624  2.3769
  343MOL0     H46250  10.624   1.247   0.749 -1.1204 -0.1048 -1.5162
  343MOL0     H46251  10.686   1.147   0.631 -2.5752  0.6082 -1.9725
  343MOL0     H46252  10.842   1.337   0.544 -0.1055 -1.7284  0.1867
  343MOL0     H46253  10.894   1.284   0.704 -0.5024 -1.9933 -0.2911
  343MOL0     H46254  10.691   1.511   0.655 -0.5919 -1.6702  0.1844
  343MOL0     H46255  10.763   1.454   0.811 -0.7818  3.6876  1.2006
  343MOL0     H46256  11.024   1.514   0.533  2.1117  0.9448 -0.8410
  343MOL0     H46257  11.198   1.682   0.472 -2.5954  1.1099 -2.6906
  343MOL0     H46258  11.149   1.842   0.492  0.3786  0.0851  0.0415
  343MOL0     H46259  11.299   1.728   0.730  0.1598 -1.0588 -1.3401
  343MOL0     H46260  11.375   1.798   0.582  1.4661  4.1292  2.3018
  343MOL0     H46261  11.192   1.943   0.768 -1.5893 -1.7371 -0.8469
  343MOL0     H46262  11.249   2.005   0.612 -1.7670 -2.8713 -1.8992
  343MOL0     H46263  11.425   1.913   0.859 -0.6076  0.3204  0.9540
  343MOL0     H46264  11.374   2.078   0.822 -2.3267  0.6899 -0.8423
  343MOL0     H46265  11.718   2.051   0.563  0.2905 -1.3547  0.3985
  343MOL0     H46266  11.935   2.091   0.627  0.1446  1.9405 -0.4047
  343MOL0     H46267  12.235   2.323   0.932 -2.5613 -1.8151  0.4632
  343MOL0     H46268  12.475   2.351   0.951  2.4677 -0.8380 -0.0417
  343MOL0     H46269  12.744   1.971   0.876  3.6388 -1.5900  2.4175
  343MOL0     H46270  12.829   2.084   0.975 -0.2583  0.3226  0.0916
  343MOL0     H46271  12.564   1.950   1.058  1.2859 -2.9721 -4.9112
  343MOL0     H46272  12.731   1.913   1.109  0.2098 -0.0568  1.4083
  343MOL0     H46273  12.777   2.121   1.209  0.0025 -2.6893  0.7854
  343MOL0     H46274  12.629   2.195   1.164  0.1050  0.6967  1.9859
  343MOL0     H46275  12.662   1.952   1.347 -1.2878  1.0509  3.1589
  343MOL0     H46276  12.508   2.035   1.302  0.1574 -0.8112  0.6082
  343MOL0     H46277  12.744   2.120   1.486 -0.3750 -0.1126  1.5051
  343MOL0     H46278  12.577   2.129   1.529 -0.6960  1.1900  0.3843
  343MOL0     H46279  12.709   2.327   1.342 -1.5831  2.7361 -0.8567
  343MOL0     H46280  12.534   2.317   1.378 -0.0024 -0.3225 -2.2149
  343MOL0     H46281  12.758   2.363   1.571  1.1329 -0.2220 -1.9250
  343MOL0     H46282  12.591   2.349   1.624 -0.4738 -0.8326 -0.6363
  343MOL0     H46283  12.650   2.584   1.612 -2.9395 -1.5607  1.6256
  343MOL0     H46284  12.684   2.556   1.440  0.7138  3.0141  0.5227
  343MOL0     H46285  12.545   1.976   0.742  0.7802  0.3874 -0.6369
  343MOL0     H46286  12.298   1.961   0.694 -2.6528 -0.5634  0.3474
  343MOL0     H46287  11.816   2.058   1.040  2.0444  0.9043 -0.2153
  343MOL0     H46288  11.588   2.014   0.968  2.5778 -2.9376  2.7518
  343MOL0     H46289   9.775   0.986   0.566  1.1021  0.2838  0.1588
  343MOL0     H46290   9.585   1.003   0.414  1.1858 -2.3539 -2.3384
  343MOL0     H46291   9.430   1.069   0.040  0.2686 -0.1140  0.4533
  343MOL0     H46292   9.206   1.027  -0.054  0.4494  0.5880  0.9750
  343MOL0     H46293   8.979   1.044  -0.137  2.4414 -1.0541  1.5364
  343MOL0     H46294   9.118   1.105  -0.250  0.5058  1.8718  0.8317
  343MOL0     H46295   8.956   1.252  -0.366 -0.1100  0.8686 -1.0789
  343MOL0     H46296   8.829   1.184  -0.275 -0.7417  2.0567 -3.5021
  343MOL0     H46297   8.914   0.949  -0.388  1.9918 -0.5338  0.0442
  343MOL0     H46298   9.025   1.060  -0.473 -0.8271  1.7127 -0.4380
  343MOL0     H46299   8.718   1.069  -0.491  0.9730  0.3328  2.4912
  343MOL0     H46300   8.827   1.195  -0.557  1.1663  0.1132 -0.5270
  343MOL0     H46301   8.928   0.895  -0.825 -0.7158  1.8547 -0.9981
  343MOL0     H46302   9.110   1.443   0.006 -0.5295 -0.0704  0.6717
  343MOL0     H46303   9.344   1.532   0.219 -1.0621 -2.2042  0.1643
  343MOL0     H46304   9.415   1.544   0.056  0.6930 -1.0169  0.6628
  343MOL0     H46305   9.245   1.595   0.096  0.8813  2.1745  4.8438
  344MOL0     O46306   5.217   4.105   6.313  0.2167 -0.7164  0.4174
  344MOL0     C46307   5.125   4.050   6.257  0.7793  0.4666 -0.3000
  344MOL0     O46308   5.114   3.911   6.238 -0.2206  0.0383 -0.5697
  344MOL0     C46309   5.189   3.827   6.322 -0.5994  0.3874 -0.8816
  344MOL0     C46310   5.322   3.816   6.297  0.5491  0.5807 -0.0482
  344MOL0     C46311   5.388   3.733   6.385 -0.5379 -0.0091 -0.6357
  344MOL0     C46312   5.328   3.669   6.497  0.6297  0.0234 -0.4548
  344MOL0     O46313   5.411   3.588   6.572  0.9548 -0.4002  0.4987
  344MOL0     C46314   5.388   3.591   6.712  0.6931 -0.0160  0.0794
  344MOL0     C46315   5.509   3.536   6.790  0.7460  0.6310  0.3673
  344MOL0     C46316   5.612   3.645   6.797 -0.2320 -0.5254 -1.1229
  344MOL0     C46317   5.753   3.607   6.785 -0.0975  0.2754 -0.2353
  344MOL0     C46318   5.843   3.708   6.849 -0.2405 -0.4596  0.4623
  344MOL0     C46319   5.986   3.662   6.804 -0.4129  0.1244  0.4247
  344MOL0     C46320   6.090   3.776   6.816 -0.0092 -0.1101 -0.5204
  344MOL0     C46321   6.222   3.726   6.743 -0.0188  0.0454 -0.2729
  344MOL0     N46322   6.334   3.744   6.838 -0.0996 -0.1023  0.6045
  344MOL0     C46323   6.397   3.650   6.911 -0.4178 -0.0064  0.6926
  344MOL0     C46324   6.520   3.697   6.924 -1.0514 -0.0106 -0.0318
  344MOL0     C46325   6.629   3.616   6.992 -0.7564 -0.7953  0.3693
  344MOL0     C46326   6.695   3.670   7.118  0.6539  0.0057 -0.5488
  344MOL0     C46327   6.795   3.777   7.082 -0.6616  0.1499 -0.0653
  344MOL0     C46328   6.872   3.843   7.199  0.8157  0.4515 -0.2295
  344MOL0     O46329   6.952   3.746   7.266  0.6198  0.1724 -0.4910
  344MOL0     C46330   7.065   3.791   7.333 -0.0461 -0.4034  0.2875
  344MOL0     C46331   7.075   3.921   7.377  0.2228  0.2763 -0.5170
  344MOL0     C46332   7.185   3.953   7.451  0.2216 -0.4163  0.1208
  344MOL0     C46333   7.298   3.875   7.477  0.6639  0.6081 -0.1467
  344MOL0     C46334   7.406   3.925   7.556 -0.2735 -0.2845  0.1597
  344MOL0     O46335   7.435   4.061   7.564 -1.0494 -0.2465 -0.4689
  344MOL0     C46336   7.565   4.092   7.603 -1.0770 -0.1007  0.1664
  344MOL0     C46337   7.589   4.213   7.674 -0.1265  1.1579 -0.2273
  344MOL0     C46338   7.727   4.252   7.680  0.1103  0.2005 -0.2096
  344MOL0     C46339   7.833   4.182   7.622 -0.0818 -0.3239 -0.1003
  344MOL0     O46340   7.967   4.226   7.647  0.8204 -0.2832  0.0136
  344MOL0     C46341   8.073   4.145   7.600  0.5033 -0.4054 -0.1363
  344MOL0     C46342   8.192   4.228   7.648  0.6688  0.3993 -0.2441
  344MOL0     C46343   8.319   4.142   7.619  0.1363  0.9978  0.3634
  344MOL0     C46344   8.433   4.215   7.685 -0.9161  0.6683  0.3224
  344MOL0     C46345   8.566   4.142   7.677 -0.2604 -0.2974 -0.2520
  344MOL0     C46346   8.695   4.227   7.679  1.1931  0.4328 -0.7988
  344MOL0     C46347   8.687   4.355   7.773  0.2245  0.2506 -0.4279
  344MOL0     C46348   8.674   4.329   7.921 -0.4787 -0.2739  0.6167
  344MOL0    Cl46349   8.841   4.312   7.987 -0.0191 -0.3050 -0.1825
  344MOL0     C46350   7.804   4.066   7.561 -0.3071  0.3267 -0.9364
  344MOL0     C46351   7.679   4.018   7.562 -0.3376  0.1482  0.3091
  344MOL0     O46352   7.460   3.845   7.630 -0.2193  0.4602  0.2344
  344MOL0     C46353   7.278   3.738   7.441  0.0627 -0.4929  0.2234
  344MOL0     C46354   7.174   3.702   7.361  0.3761  0.5980  0.3844
  344MOL0     N46355   6.532   3.825   6.874  0.6135 -0.2250 -0.4235
  344MOL0     N46356   6.422   3.839   6.810  0.4382  0.0901 -0.2233
  344MOL0     C46357   5.195   3.689   6.522  0.3092 -0.5063 -0.7748
  344MOL0     C46358   5.129   3.776   6.436  0.1510 -0.1476 -0.1886
  344MOL0     C46359   5.010   4.134   6.209  0.4396 -0.5941  0.0526
  344MOL0     C46360   4.872   4.094   6.231  0.2034  0.6992 -0.0762
  344MOL0     C46361   4.766   4.166   6.185 -0.1461 -0.0572  0.4862
  344MOL0     C46362   4.787   4.282   6.103 -0.3409 -0.1400 -0.2001
  344MOL0     O46363   4.696   4.361   6.038 -0.1296 -0.9567  0.6380
  344MOL0     C46364   4.567   4.316   6.035  0.2019  0.5152  0.1328
  344MOL0     C46365   4.462   4.391   5.947  0.3024  0.6397 -0.0899
  344MOL0     C46366   4.426   4.525   6.001 -0.6611  0.1050 -0.7479
  344MOL0     C46367   4.372   4.607   5.888  0.0146  0.3524 -0.3355
  344MOL0     C46368   4.237   4.565   5.842 -0.2548  0.1954 -0.6182
  344MOL0     C46369   4.141   4.532   5.781  0.7449  0.7100  0.1943
  344MOL0     C46370   4.919   4.325   6.084 -0.1760  0.9156 -0.2870
  344MOL0     C46371   5.028   4.253   6.132 -0.5643 -0.5347 -0.5656
  344MOL0     C46372   5.169   4.307   6.096 -1.5321  0.2023 -0.0544
  344MOL0     H46373   5.381   3.880   6.233  0.1544 -0.6717 -1.7362
  344MOL0     H46374   5.496   3.719   6.383 -0.3592  1.2985 -0.6448
  344MOL0     H46375   5.368   3.686   6.762 -0.3106  0.4006 -1.0638
  344MOL0     H46376   5.296   3.537   6.735  1.3606 -0.6806  1.2780
  344MOL0     H46377   5.553   3.449   6.741 -0.4494 -0.2769  0.8582
  344MOL0     H46378   5.477   3.502   6.889  1.4592 -2.7191 -0.4306
  344MOL0     H46379   5.581   3.705   6.883 -2.1758  3.1268 -4.0705
  344MOL0     H46380   5.594   3.717   6.716  0.4043 -1.2413 -1.9307
  344MOL0     H46381   5.761   3.514   6.843 -1.2503 -0.0378 -0.5485
  344MOL0     H46382   5.783   3.604   6.680 -0.0995  1.5699 -0.2810
  344MOL0     H46383   5.823   3.809   6.811 -0.7289 -1.8656 -3.5968
  344MOL0     H46384   5.837   3.717   6.957 -2.5558  1.2263  0.2689
  344MOL0     H46385   6.024   3.583   6.870  1.2491  1.4557  1.1236
  344MOL0     H46386   5.984   3.612   6.707 -2.8460 -1.3877  1.1656
  344MOL0     H46387   6.112   3.806   6.919 -2.1316 -0.5903  0.1432
  344MOL0     H46388   6.051   3.859   6.757  3.8796  2.5426  0.3129
  344MOL0     H46389   6.213   3.626   6.699 -1.0619  0.6427 -1.4569
  344MOL0     H46390   6.234   3.799   6.663  0.1561 -0.1844 -0.4588
  344MOL0     H46391   6.357   3.553   6.937 -1.2746  0.0883 -0.2101
  344MOL0     H46392   6.585   3.521   7.025 -1.5376  0.4637  3.2472
  344MOL0     H46393   6.707   3.606   6.916  0.6062  0.8963  1.4919
  344MOL0     H46394   6.625   3.714   7.190  1.9308  0.6858  0.3140
  344MOL0     H46395   6.740   3.580   7.161  1.8274  0.0557 -1.6404
  344MOL0     H46396   6.752   3.857   7.022  0.1895  0.3692 -0.3906
  344MOL0     H46397   6.872   3.719   7.031 -1.6532 -2.0617  0.8021
  344MOL0     H46398   6.798   3.891   7.264  1.0373 -1.2915  1.3912
  344MOL0     H46399   6.945   3.913   7.156  1.4245 -0.1200 -0.1456
  344MOL0     H46400   6.997   3.996   7.369 -1.5508 -1.1011  2.2566
  344MOL0     H46401   7.190   4.056   7.487  0.7357 -0.2926 -0.2869
  344MOL0     H46402   7.498   4.259   7.713 -0.8497  0.1986 -0.7570
  344MOL0     H46403   7.743   4.342   7.738  0.6479 -0.4837  0.7297
  344MOL0     H46404   8.082   4.042   7.637  6.7849 -0.2724 -0.1986
  344MOL0     H46405   8.089   4.131   7.493  0.9061 -0.5812 -0.0584
  344MOL0     H46406   8.211   4.327   7.606 -0.2303  0.0097 -1.6288
  344MOL0     H46407   8.179   4.250   7.754  2.2465  0.7773 -0.0971
  344MOL0     H46408   8.320   4.039   7.657  0.5100  0.6927 -0.4275
  344MOL0     H46409   8.342   4.128   7.513  1.3466 -0.6390  0.8013
  344MOL0     H46410   8.403   4.207   7.790  2.4523 -3.5717  1.2121
  344MOL0     H46411   8.445   4.315   7.643  0.1702  0.7900  0.8878
  344MOL0     H46412   8.585   4.096   7.580  0.1866  0.1266 -0.3743
  344MOL0     H46413   8.558   4.064   7.753  0.7092 -1.3584 -1.2158
  344MOL0     H46414   8.776   4.160   7.708 -0.3245 -0.2440  2.2453
  344MOL0     H46415   8.729   4.259   7.580 -1.0920  1.5209 -1.3057
  344MOL0     H46416   8.611   4.427   7.742  0.6215  2.1435  2.5292
  344MOL0     H46417   8.779   4.411   7.758  0.9020 -1.2466 -2.3092
  344MOL0     H46418   8.622   4.414   7.966  0.7490  1.6881 -1.4588
  344MOL0     H46419   8.617   4.238   7.942 -1.7507  0.4010  0.2079
  344MOL0     H46420   7.880   4.007   7.512 -1.0509 -0.4873 -1.1217
  344MOL0     H46421   7.672   3.920   7.516 -0.6190 -1.4526  3.4886
  344MOL0     H46422   7.346   3.656   7.461  1.6750  0.8000  0.2349
  344MOL0     H46423   7.155   3.604   7.319 -2.7820  2.1968 -2.4537
  344MOL0     H46424   5.145   3.637   6.603 -0.6483  3.0669  1.1712
  344MOL0     H46425   5.027   3.811   6.448  0.8834  1.6159  1.4822
  344MOL0     H46426   4.849   4.005   6.289 -3.5478  0.8529 -1.0248
  344MOL0     H46427   4.664   4.128   6.189 -0.8296  1.0009 -3.2636
  344MOL0     H46428   4.535   4.308   6.140  0.5809 -1.1452  0.1548
  344MOL0     H46429   4.565   4.214   5.995 -1.3411  0.2794  0.7186
  344MOL0     H46430   4.373   4.329   5.933  1.1289 -0.2433 -1.7639
  344MOL0     H46431   4.511   4.383   5.849 -1.0798  0.0017 -0.7606
  344MOL0     H46432   4.525   4.556   6.036 -0.9311 -0.5508  0.7050
  344MOL0     H46433   4.357   4.522   6.086  0.7768  0.7635  0.4859
  344MOL0     H46434   4.379   4.711   5.921  2.3168 -0.4454  2.0424
  344MOL0     H46435   4.443   4.598   5.805  1.8130  2.0016  0.9571
  344MOL0     H46436   4.047   4.492   5.748  1.3487 -1.3778  0.8314
  344MOL0     H46437   4.947   4.404   6.015 -0.4144 -0.5588 -2.1622
  344MOL0     H46438   5.246   4.236   6.064 -0.1986  1.7317 -0.4166
  344MOL0     H46439   5.163   4.371   6.007 -1.4425  1.8718  1.0902
  344MOL0     H46440   5.201   4.371   6.178 -2.9347  0.5930  0.2200
  345MOL0     O46441   7.942   3.729  10.648 -0.3102  0.3316  0.0383
  345MOL0     C46442   8.044   3.691  10.702 -0.6864 -0.4216 -0.7371
  345MOL0     O46443   8.168   3.747  10.694  0.1228 -0.5314 -0.1161
  345MOL0     C46444   8.203   3.852  10.609  0.4082 -0.5626  0.4641
  345MOL0     C46445   8.332   3.900  10.617 -0.1232 -0.3536  0.1988
  345MOL0     C46446   8.378   4.009  10.531  0.8037  0.4877  0.0731
  345MOL0     C46447   8.304   4.063  10.425  0.1946  0.2042  0.2853
  345MOL0     O46448   8.343   4.152  10.330 -0.2803  0.3131 -0.0881
  345MOL0     C46449   8.487   4.156  10.307  1.0533 -0.1524 -0.3443
  345MOL0     C46450   8.517   4.194  10.163  0.1127  0.6447  0.3313
  345MOL0     C46451   8.648   4.247  10.118 -0.7263  0.7961  0.4171
  345MOL0     C46452   8.635   4.334   9.996  0.7941  0.1601 -0.5373
  345MOL0     C46453   8.580   4.263   9.871  0.3226  0.2888  0.2249
  345MOL0     C46454   8.577   4.355   9.751 -0.0159  1.0488  0.1515
  345MOL0     C46455   8.502   4.292   9.626  0.3230 -0.1866 -0.1044
  345MOL0     C46456   8.515   4.372   9.505 -0.5186 -0.3767 -0.0538
  345MOL0     N46457   8.657   4.408   9.482  0.1317  0.4803 -0.4286
  345MOL0     C46458   8.759   4.330   9.421  0.6783 -0.3368  0.1352
  345MOL0     C46459   8.862   4.420   9.408 -0.6326 -1.4889  0.2698
  345MOL0     C46460   9.003   4.382   9.358  0.2552 -1.1498  0.3682
  345MOL0     C46461   8.989   4.374   9.213 -0.0416 -1.0032 -0.1920
  345MOL0     C46462   9.122   4.373   9.128  0.8401 -0.5493 -0.2331
  345MOL0     C46463   9.088   4.339   8.977 -0.3994  0.0045 -0.9069
  345MOL0     O46464   9.050   4.454   8.891  0.4813 -0.0001  0.0162
  345MOL0     C46465   9.141   4.497   8.795  0.4292 -0.3821 -0.9058
  345MOL0     C46466   9.273   4.450   8.794 -0.6466 -0.5685  1.3834
  345MOL0     C46467   9.357   4.502   8.701  0.0993  0.7126  0.8467
  345MOL0     C46468   9.319   4.597   8.606 -0.1119  0.1656 -0.0728
  345MOL0     C46469   9.410   4.646   8.491 -0.3529 -0.9054 -0.5791
  345MOL0     O46470   9.531   4.584   8.482  0.3754 -0.2499  0.5019
  345MOL0     C46471   9.609   4.651   8.390  0.3762  0.5623  0.0994
  345MOL0     C46472   9.602   4.634   8.255 -0.2766  0.3654 -0.2954
  345MOL0     C46473   9.694   4.695   8.169  0.2117  0.1044 -0.7943
  345MOL0     C46474   9.781   4.789   8.215  0.2180  0.1990  0.4774
  345MOL0     O46475   9.865   4.836   8.119 -0.0772 -1.5225  0.4042
  345MOL0     C46476   9.981   4.759   8.130 -0.8346  0.3841 -0.5212
  345MOL0     C46477  10.096   4.809   8.050 -0.3897  0.7719  0.8170
  345MOL0     C46478  10.176   4.913   8.135 -0.2798  0.6414  0.2415
  345MOL0     C46479  10.277   4.985   8.043  0.1721  0.2607  1.0789
  345MOL0     C46480  10.351   5.094   8.117  0.3809 -0.8287 -0.4232
  345MOL0     C46481  10.479   5.157   8.042 -0.2711 -0.0877 -0.2525
  345MOL0     C46482  10.522   5.297   8.098  0.1459 -0.8083 -0.1100
  345MOL0     C46483  10.631   5.350   8.004 -0.3163  0.2853  0.1760
  345MOL0    Cl46484  10.567   5.403   7.855 -0.0248 -0.2962  0.3272
  345MOL0     C46485   9.783   4.822   8.347  0.4822 -1.0143  0.0432
  345MOL0     C46486   9.698   4.752   8.437  0.1852 -0.3210 -0.8819
  345MOL0     O46487   9.368   4.735   8.415 -0.4614  0.0521 -0.4616
  345MOL0     C46488   9.187   4.635   8.599  0.4749  0.5278 -0.6455
  345MOL0     C46489   9.100   4.582   8.697 -0.6070 -0.0262  0.5740
  345MOL0     N46490   8.818   4.546   9.447  0.3498  0.1771 -0.0366
  345MOL0     N46491   8.696   4.534   9.500 -0.0677  0.1492  0.3063
  345MOL0     C46492   8.173   4.017  10.413 -0.6706  1.3054 -0.1591
  345MOL0     C46493   8.120   3.920  10.508  0.8251  0.2947  0.6719
  345MOL0     C46494   8.017   3.588  10.806 -0.5783  0.4529  0.0636
  345MOL0     C46495   8.124   3.574  10.902 -0.2044 -0.7031 -0.4044
  345MOL0     C46496   8.122   3.478  11.000  0.0972  0.1455  0.0909
  345MOL0     C46497   8.012   3.395  11.007  0.9433 -1.2277 -0.1176
  345MOL0     O46498   7.989   3.294  11.106 -0.0277 -0.7133 -0.2125
  345MOL0     C46499   8.043   3.304  11.233 -0.1995  0.0861 -0.6426
  345MOL0     C46500   8.134   3.182  11.256 -1.0154 -1.0121 -0.1118
  345MOL0     C46501   8.246   3.200  11.365  0.1324 -0.0912 -0.0558
  345MOL0     C46502   8.300   3.059  11.392 -0.5015 -0.4559 -0.6036
  345MOL0     C46503   8.413   3.070  11.483 -0.4672  0.2575  0.0352
  345MOL0     C46504   8.505   3.097  11.559  0.0388  0.8865  0.5234
  345MOL0     C46505   7.900   3.408  10.924 -0.1096  1.1787 -0.2681
  345MOL0     C46506   7.904   3.502  10.820 -0.2133  0.3939  0.1447
  345MOL0     C46507   7.802   3.497  10.718 -0.6750  0.7250 -0.0365
  345MOL0     H46508   8.394   3.845  10.688 -4.2668 -2.6293  2.4056
  345MOL0     H46509   8.477   4.048  10.548  2.1043 -1.9832 -1.2718
  345MOL0     H46510   8.533   4.234  10.370 -0.0735  1.6641 -1.6588
  345MOL0     H46511   8.541   4.064  10.331  3.1800  1.1636  0.2334
  345MOL0     H46512   8.448   4.271  10.128  0.2326 -1.0412 -4.3490
  345MOL0     H46513   8.509   4.108  10.096  1.0756  0.1032  0.8956
  345MOL0     H46514   8.715   4.164  10.095 -1.9050  0.7068 -3.4009
  345MOL0     H46515   8.684   4.304  10.204  0.0337  0.5458  0.2703
  345MOL0     H46516   8.570   4.419  10.018  0.3693 -0.2397 -0.2402
  345MOL0     H46517   8.736   4.370   9.973  1.1481  1.9283  2.9490
  345MOL0     H46518   8.636   4.171   9.851  0.5791 -0.0821  2.3884
  345MOL0     H46519   8.474   4.243   9.889  0.7775 -2.4556  0.2867
  345MOL0     H46520   8.511   4.437   9.780 -1.2422 -0.1547  0.8926
  345MOL0     H46521   8.681   4.382   9.730  0.5962 -2.6407 -2.5849
  345MOL0     H46522   8.395   4.273   9.638 -0.0788  0.9348 -1.5705
  345MOL0     H46523   8.557   4.199   9.612 -1.1613 -0.9265 -1.2294
  345MOL0     H46524   8.484   4.316   9.417 -1.0247  1.1340 -0.8717
  345MOL0     H46525   8.453   4.462   9.512 -0.9767 -0.6784 -0.1605
  345MOL0     H46526   8.754   4.224   9.395 -0.8484 -0.3827  0.5108
  345MOL0     H46527   9.078   4.457   9.383  1.3032 -2.1166  0.2039
  345MOL0     H46528   9.033   4.288   9.405  0.8399 -1.3755 -0.4272
  345MOL0     H46529   8.925   4.286   9.205 -1.1420 -0.2338 -0.1615
  345MOL0     H46530   8.939   4.464   9.175  3.0927  0.2420 -1.8142
  345MOL0     H46531   9.191   4.299   9.172  1.2703  0.4847  0.9082
  345MOL0     H46532   9.170   4.471   9.131  0.9476 -0.5871 -0.6288
  345MOL0     H46533   8.992   4.287   8.986 -0.2854 -0.4075 -1.9687
  345MOL0     H46534   9.160   4.268   8.935  1.1216 -0.1311  1.7397
  345MOL0     H46535   9.313   4.392   8.876  0.0367 -1.4756  0.4358
  345MOL0     H46536   9.462   4.472   8.703  0.8941  2.8146 -2.3506
  345MOL0     H46537   9.516   4.589   8.207 -0.5207  1.6136 -1.0665
  345MOL0     H46538   9.684   4.686   8.061 -0.1488  0.8161 -0.8240
  345MOL0     H46539  10.016   4.752   8.233 -1.6703  0.9039 -0.1974
  345MOL0     H46540   9.960   4.662   8.083  3.7868 -0.7941 -0.6721
  345MOL0     H46541  10.156   4.721   8.023  0.2246  0.1072  3.9566
  345MOL0     H46542  10.052   4.850   7.959  0.3823 -0.8104 -0.3143
  345MOL0     H46543  10.113   4.985   8.189 -1.8085 -1.2195  1.0330
  345MOL0     H46544  10.229   4.872   8.222  0.5683  1.6222  0.2126
  345MOL0     H46545  10.234   5.035   7.955  6.6288  1.0892 -2.2175
  345MOL0     H46546  10.342   4.907   8.001 -1.6477 -0.9699  0.3815
  345MOL0     H46547  10.397   5.070   8.213  0.1020 -0.8478 -0.2946
  345MOL0     H46548  10.285   5.180   8.131  2.6483  0.7417  1.3993
  345MOL0     H46549  10.568   5.098   8.062 -0.6965  0.1125  2.7859
  345MOL0     H46550  10.457   5.160   7.935  2.0681  0.5940 -0.7716
  345MOL0     H46551  10.556   5.282   8.200 -0.2079  1.7508  0.4310
  345MOL0     H46552  10.441   5.371   8.101  0.0193 -0.9655  2.2849
  345MOL0     H46553  10.680   5.432   8.056  2.3381  0.0821 -1.8374
  345MOL0     H46554  10.709   5.280   7.972  2.2127  3.0769 -0.2149
  345MOL0     H46555   9.857   4.897   8.370 -0.6033  0.4151 -0.9015
  345MOL0     H46556   9.722   4.766   8.542  3.1412 -0.7890 -1.4104
  345MOL0     H46557   9.151   4.692   8.514  0.8626 -0.8989 -1.8091
  345MOL0     H46558   8.996   4.609   8.685 -1.2813 -2.7138 -0.3818
  345MOL0     H46559   8.114   4.054  10.329  1.9076  2.2582 -1.6739
  345MOL0     H46560   8.018   3.889  10.491  0.5038  1.7189 -0.1913
  345MOL0     H46561   8.213   3.637  10.907  0.1016 -1.0579  5.3919
  345MOL0     H46562   8.205   3.463  11.069  0.6416 -2.2821 -0.9586
  345MOL0     H46563   7.968   3.313  11.312  1.4159  2.0833  0.7681
  345MOL0     H46564   8.107   3.391  11.249 -0.1706  0.3104 -1.9281
  345MOL0     H46565   8.173   3.167  11.155  1.2880 -1.4693  0.7884
  345MOL0     H46566   8.060   3.104  11.278 -2.2154  0.1559  0.1583
  345MOL0     H46567   8.196   3.240  11.454 -0.0008  0.6385 -0.4468
  345MOL0     H46568   8.323   3.270  11.330  0.3530 -0.5647 -0.5286
  345MOL0     H46569   8.215   3.002  11.429 -0.9238 -1.6470 -3.1581
  345MOL0     H46570   8.347   3.012  11.305  1.8066 -2.1479  1.4079
  345MOL0     H46571   8.587   3.139  11.616 -0.1988  0.7718  0.9547
  345MOL0     H46572   7.822   3.335  10.937  0.6646  0.5926  1.3084
  345MOL0     H46573   7.728   3.422  10.744  0.0597  0.4381  1.3090
  345MOL0     H46574   7.752   3.595  10.722 -0.1657  1.0685 -1.4698
  345MOL0     H46575   7.833   3.484  10.614 -0.1826  2.4576 -0.1394
  346MOL0     O46576   5.482   9.716   1.612 -0.3349 -0.0754  0.2172
  346MOL0     C46577   5.365   9.754   1.607 -0.2711  1.2266 -0.4744
  346MOL0     O46578   5.326   9.884   1.619  0.1890  0.1306  0.1042
  346MOL0     C46579   5.422   9.972   1.657 -0.1901 -0.6868  0.2404
  346MOL0     C46580   5.463  10.088   1.576  0.2941 -0.1850  1.0541
  346MOL0     C46581   5.566  10.178   1.616  0.9634  1.0452  0.1837
  346MOL0     C46582   5.631  10.154   1.735 -0.4060 -0.0380  0.1015
  346MOL0     O46583   5.730  10.235   1.773 -0.0284 -0.5271 -0.3542
  346MOL0     C46584   5.713  10.297   1.907 -0.5757  0.2124 -0.7870
  346MOL0     C46585   5.696  10.447   1.887 -0.1151 -0.2878  0.1395
  346MOL0     C46586   5.835  10.515   1.861  0.5398  0.5635 -0.5708
  346MOL0     C46587   5.813  10.666   1.840 -0.5771  0.5137  0.3597
  346MOL0     C46588   5.954  10.726   1.840  0.0273 -0.8709  0.0357
  346MOL0     C46589   5.947  10.872   1.878 -0.1759 -1.1138  0.5002
  346MOL0     C46590   6.074  10.945   1.849  0.1346 -0.1608  0.0327
  346MOL0     C46591   6.051  11.089   1.878  0.4366 -0.1237 -0.5954
  346MOL0     N46592   6.173  11.170   1.868 -0.5337 -0.4628 -0.2709
  346MOL0     C46593   6.259  11.165   1.763 -0.0255  0.1140 -0.1501
  346MOL0     C46594   6.359  11.250   1.788  0.5836  0.5620  0.2499
  346MOL0     C46595   6.492  11.268   1.718 -0.5614 -0.7252  0.2553
  346MOL0     C46596   6.605  11.235   1.807 -0.5133  0.3862  0.4202
  346MOL0     C46597   6.740  11.260   1.732 -0.1506  0.2522  0.7491
  346MOL0     C46598   6.855  11.182   1.800  0.0945 -0.7428  0.1436
  346MOL0     O46599   6.970  11.195   1.717  0.1003  0.5074  0.0362
  346MOL0     C46600   7.079  11.115   1.720  0.1705  0.1384  0.9797
  346MOL0     C46601   7.120  11.060   1.846 -0.1452 -0.0470 -0.2709
  346MOL0     C46602   7.239  10.984   1.840  0.2000  0.8460 -1.2012
  346MOL0     C46603   7.321  10.983   1.725  0.3301 -0.6135  0.3949
  346MOL0     C46604   7.455  10.900   1.720  0.4289 -0.4600 -0.0026
  346MOL0     O46605   7.525  10.908   1.600  0.5555  0.2480  0.3184
  346MOL0     C46606   7.630  10.835   1.559 -0.2894  0.9755  0.1063
  346MOL0     C46607   7.687  10.737   1.633  0.2031  0.0677  0.3991
  346MOL0     C46608   7.781  10.652   1.579  0.1820  0.1980  0.7308
  346MOL0     C46609   7.822  10.662   1.450  0.2227  0.2063  0.4463
  346MOL0     O46610   7.908  10.561   1.405 -0.0728  0.5072  0.3468
  346MOL0     C46611   8.026  10.600   1.329  0.3922  0.7914 -0.1883
  346MOL0     C46612   8.148  10.506   1.347 -0.1486 -0.0771 -0.5975
  346MOL0     C46613   8.270  10.590   1.303 -0.3117 -0.3176 -0.7511
  346MOL0     C46614   8.395  10.504   1.299 -1.2640  0.0027  0.2324
  346MOL0     C46615   8.522  10.592   1.271  0.0510  0.5882  0.3353
  346MOL0     C46616   8.654  10.502   1.279 -0.3184  0.2940 -0.1944
  346MOL0     C46617   8.781  10.589   1.267  0.5516  0.1249  0.3417
  346MOL0     C46618   8.839  10.572   1.125  0.0533  0.4661 -0.5500
  346MOL0    Cl46619   8.995  10.660   1.132 -0.6077  0.1068  0.2101
  346MOL0     C46620   7.759  10.757   1.374  0.0055  0.4985  0.0558
  346MOL0     C46621   7.665  10.847   1.421  0.4018  0.6664  0.5007
  346MOL0     O46622   7.487  10.838   1.820  0.7336  0.0735 -0.2296
  346MOL0     C46623   7.286  11.063   1.608 -0.5072 -0.1560  0.1163
  346MOL0     C46624   7.157  11.122   1.612 -0.0561 -0.5997 -0.2483
  346MOL0     N46625   6.333  11.309   1.908  0.5559  0.7063  0.1590
  346MOL0     N46626   6.223  11.258   1.956 -0.4077  0.3519  0.3143
  346MOL0     C46627   5.591  10.046   1.810  0.1291 -0.6150  0.6000
  346MOL0     C46628   5.481   9.957   1.781 -0.1073 -0.9775 -0.3012
  346MOL0     C46629   5.258   9.648   1.605 -0.0512  0.2810  0.3559
  346MOL0     C46630   5.126   9.695   1.630  1.0786 -0.3471  0.2105
  346MOL0     C46631   5.014   9.610   1.629  1.3046  0.3663 -0.6032
  346MOL0     C46632   5.030   9.480   1.578 -1.1811  0.5886 -0.7990
  346MOL0     O46633   4.911   9.407   1.567  0.4300 -0.4616  0.0420
  346MOL0     C46634   4.912   9.273   1.509  0.3377 -0.6500  0.2901
  346MOL0     C46635   4.952   9.171   1.617 -0.5358  0.2572  0.9405
  346MOL0     C46636   4.854   9.170   1.739 -0.6330 -0.1530 -0.2540
  346MOL0     C46637   4.852   9.042   1.822  0.2063 -0.8346 -0.0830
  346MOL0     C46638   4.734   9.051   1.912 -0.1022 -0.1547 -0.5880
  346MOL0     C46639   4.647   9.059   1.996 -0.0613  0.0167  0.2214
  346MOL0     C46640   5.157   9.436   1.543  0.6262 -0.5941 -0.6546
  346MOL0     C46641   5.271   9.506   1.568 -0.8691  0.7615  1.2104
  346MOL0     C46642   5.400   9.443   1.526 -0.1787  0.4126  0.2784
  346MOL0     H46643   5.413  10.108   1.481  2.7127  2.1633  0.1663
  346MOL0     H46644   5.602  10.260   1.554  0.4783  1.9133  1.0301
  346MOL0     H46645   5.614  10.263   1.938  0.2218  2.0251  4.8498
  346MOL0     H46646   5.789  10.260   1.977 -1.6892  2.4788  1.8028
  346MOL0     H46647   5.649  10.498   1.971  0.2035 -1.6010  1.1463
  346MOL0     H46648   5.630  10.463   1.801 -1.5180  0.4259  1.3030
  346MOL0     H46649   5.885  10.477   1.771 -1.4825  1.4450 -2.1473
  346MOL0     H46650   5.897  10.499   1.949 -0.6490  2.3308  0.6502
  346MOL0     H46651   5.765  10.692   1.745  2.8870 -1.3323 -2.0915
  346MOL0     H46652   5.748  10.711   1.916 -0.6280  0.6560  0.2336
  346MOL0     H46653   6.017  10.672   1.910  1.2736 -1.0404 -1.1766
  346MOL0     H46654   5.987  10.711   1.736  0.7122 -2.8321  0.4861
  346MOL0     H46655   5.865  10.915   1.820  1.7585  0.3303 -1.3119
  346MOL0     H46656   5.915  10.888   1.981 -1.8497  2.4485 -0.4143
  346MOL0     H46657   6.091  10.926   1.742 -1.5080 -2.0533  0.0573
  346MOL0     H46658   6.160  10.901   1.900  1.2750  0.1877 -1.5008
  346MOL0     H46659   5.973  11.119   1.808 -3.3551  0.1328  3.3341
  346MOL0     H46660   6.005  11.106   1.976 -2.6686 -0.7614 -1.8331
  346MOL0     H46661   6.242  11.100   1.677 -0.1562  0.0953 -0.1089
  346MOL0     H46662   6.498  11.204   1.630  1.1134  0.6789 -0.6977
  346MOL0     H46663   6.516  11.370   1.685 -0.7751 -0.8121 -0.1714
  346MOL0     H46664   6.597  11.306   1.891 -2.4595  3.0970 -1.8755
  346MOL0     H46665   6.610  11.129   1.834  1.3850  0.3083 -0.0921
  346MOL0     H46666   6.758  11.368   1.739 -0.8213  0.5800 -1.7290
  346MOL0     H46667   6.729  11.220   1.631  1.8484 -1.8366  1.2737
  346MOL0     H46668   6.834  11.076   1.812  0.8293 -1.2306 -2.3796
  346MOL0     H46669   6.887  11.230   1.893  2.9959  1.2526 -1.7303
  346MOL0     H46670   7.073  11.080   1.942  0.7422  0.0589  0.1511
  346MOL0     H46671   7.261  10.928   1.931 -1.4508  2.1658  0.0804
  346MOL0     H46672   7.656  10.698   1.730 -2.7436 -3.7601 -1.7978
  346MOL0     H46673   7.804  10.562   1.635  2.8128  0.7670  0.6741
  346MOL0     H46674   8.004  10.595   1.222  1.4763  3.9034 -0.6578
  346MOL0     H46675   8.060  10.700   1.357 -0.4076  1.7623 -2.5051
  346MOL0     H46676   8.145  10.466   1.448 -1.2949 -1.5539 -1.1751
  346MOL0     H46677   8.136  10.431   1.268  1.5736 -0.4700 -0.5159
  346MOL0     H46678   8.251  10.642   1.208 -0.6322 -1.7056 -1.4761
  346MOL0     H46679   8.289  10.663   1.382  1.3732  0.1078 -1.5102
  346MOL0     H46680   8.371  10.422   1.230  0.4575 -1.8368  1.6874
  346MOL0     H46681   8.411  10.457   1.396 -0.6710  0.7016  0.4750
  346MOL0     H46682   8.535  10.681   1.333 -1.4195  1.5733 -0.7056
  346MOL0     H46683   8.515  10.634   1.170 -0.4888  0.4814  0.3297
  346MOL0     H46684   8.673  10.444   1.369 -1.3545 -1.3730 -0.9997
  346MOL0     H46685   8.655  10.437   1.191  0.2960 -1.9356  1.3998
  346MOL0     H46686   8.844  10.563   1.352 -1.7240 -6.8651  0.5741
  346MOL0     H46687   8.756  10.695   1.268  2.4952  0.6894 -1.9234
  346MOL0     H46688   8.868  10.471   1.095 -0.4972  0.1275  0.0406
  346MOL0     H46689   8.768  10.616   1.053  1.5640  0.0898 -2.3428
  346MOL0     H46690   7.781  10.773   1.269  0.0765  2.5821  0.3442
  346MOL0     H46691   7.621  10.908   1.342  2.0690  3.6563  1.7148
  346MOL0     H46692   7.341  11.058   1.515 -0.0897  3.6572  0.0141
  346MOL0     H46693   7.133  11.181   1.524  1.2652  0.6629  0.2018
  346MOL0     H46694   5.644  10.024   1.902 -1.2702 -0.3024  1.5212
  346MOL0     H46695   5.448   9.880   1.849 -1.6716  0.6603  0.8572
  346MOL0     H46696   5.105   9.793   1.671 -1.2926 -0.9811  0.6870
  346MOL0     H46697   4.910   9.633   1.653  1.4582 -1.8131  2.8865
  346MOL0     H46698   4.975   9.262   1.420  0.5760 -1.0514  0.5060
  346MOL0     H46699   4.811   9.247   1.474  0.5940  0.3395 -1.2573
  346MOL0     H46700   5.054   9.190   1.651 -0.4105 -0.9943  1.3052
  346MOL0     H46701   4.949   9.069   1.575 -1.5881  0.7583 -0.2882
  346MOL0     H46702   4.761   9.181   1.683 -2.5748 -2.5263  2.2420
  346MOL0     H46703   4.880   9.259   1.797 -0.5016  0.4125 -1.1562
  346MOL0     H46704   4.850   8.961   1.749 -0.7684  0.8512 -2.0204
  346MOL0     H46705   4.941   9.014   1.880 -0.2988 -2.6556 -0.1178
  346MOL0     H46706   4.569   9.058   2.069 -0.0011 -0.4996  0.2806
  346MOL0     H46707   5.175   9.334   1.510  0.9756 -0.4803 -0.8174
  346MOL0     H46708   5.483   9.471   1.592 -0.4301  0.9386  0.3790
  346MOL0     H46709   5.392   9.334   1.530  1.4478  0.2661  0.0869
  346MOL0     H46710   5.426   9.461   1.421 -0.5683 -1.9518 -0.2718
  347MOL0     O46711  10.505   5.930   5.147 -1.1372 -0.3768 -0.0453
  347MOL0     C46712  10.406   5.900   5.212 -0.1864 -0.1143  0.0564
  347MOL0     O46713  10.410   5.846   5.343  0.1959 -0.0546  0.1430
  347MOL0     C46714  10.537   5.843   5.399 -0.5182  0.1616 -0.1118
  347MOL0     C46715  10.641   5.754   5.378 -0.1821 -0.5369  0.2319
  347MOL0     C46716  10.759   5.777   5.450 -0.7369  0.1168  0.3606
  347MOL0     C46717  10.770   5.868   5.557  0.2552 -0.0747 -0.2372
  347MOL0     O46718  10.878   5.871   5.636  0.1262 -0.3760  0.0667
  347MOL0     C46719  10.828   5.832   5.764 -0.3972 -0.6825 -0.8070
  347MOL0     C46720  10.935   5.812   5.865 -0.1311  0.0254 -0.2111
  347MOL0     C46721  11.024   5.691   5.828  0.4041  0.7464 -0.3671
  347MOL0     C46722  11.119   5.649   5.938 -0.4679 -0.1346  0.5282
  347MOL0     C46723  11.223   5.536   5.891  0.3000 -0.4687 -0.6790
  347MOL0     C46724  11.328   5.533   6.000  0.2439  0.1913 -0.6785
  347MOL0     C46725  11.450   5.452   5.965 -0.2706 -0.7046  0.6244
  347MOL0     C46726  11.541   5.510   5.856 -0.8650  0.6574  0.7605
  347MOL0     N46727  11.652   5.424   5.815  0.3369  0.3436  0.4553
  347MOL0     C46728  11.752   5.384   5.898  0.2335  0.7796  0.2522
  347MOL0     C46729  11.840   5.323   5.817  0.9273 -0.1457 -0.0018
  347MOL0     C46730  11.955   5.253   5.875 -0.1200 -0.9601  0.4862
  347MOL0     C46731  12.093   5.286   5.822  0.4539 -0.1328 -0.6214
  347MOL0     C46732  12.197   5.181   5.884  0.1584  0.2347  0.8789
  347MOL0     C46733  12.336   5.169   5.807 -0.3081 -0.7030 -1.0771
  347MOL0     O46734  12.411   5.292   5.831 -0.5353 -0.4220 -0.2487
  347MOL0     C46735  12.546   5.269   5.819  0.6611  0.1775 -0.2314
  347MOL0     C46736  12.625   5.290   5.934 -0.6608 -0.2294 -0.2731
  347MOL0     C46737  12.757   5.278   5.920 -0.6474 -0.0781 -0.3639
  347MOL0     C46738  12.824   5.250   5.796 -0.0194 -0.0138 -0.2928
  347MOL0     C46739  12.976   5.258   5.793  0.4085 -0.3293  0.2038
  347MOL0     O46740  13.053   5.225   5.681 -0.3767  0.2706  0.1776
  347MOL0     C46741  13.191   5.240   5.697  0.1869  0.0390 -0.2858
  347MOL0     C46742  13.266   5.130   5.739  0.1072  0.4697  0.0617
  347MOL0     C46743  13.400   5.133   5.778 -0.4615 -0.7764 -0.6731
  347MOL0     C46744  13.473   5.248   5.749  0.1404  0.6265 -0.4514
  347MOL0     O46745  13.604   5.238   5.780  0.6294  0.6218 -0.2732
  347MOL0     C46746  13.697   5.307   5.695  0.7906  1.2440 -0.2717
  347MOL0     C46747  13.838   5.276   5.739 -0.1794 -0.0053 -0.4336
  347MOL0     C46748  13.887   5.150   5.662 -0.1242  0.3413  0.1114
  347MOL0     C46749  14.007   5.076   5.724  0.4103 -0.8690 -0.5546
  347MOL0     C46750  14.014   4.937   5.670 -0.0355  0.7171 -0.3139
  347MOL0     C46751  14.152   4.872   5.698  0.3771  0.3098  0.4148
  347MOL0     C46752  14.182   4.733   5.643 -0.5823  0.1307 -0.5079
  347MOL0     C46753  14.341   4.721   5.676  1.3439  0.4808 -0.7047
  347MOL0    Cl46754  14.391   4.553   5.686  0.1179  0.1962  0.2171
  347MOL0     C46755  13.406   5.354   5.683 -0.1648 -0.9167  0.1002
  347MOL0     C46756  13.262   5.355   5.665 -0.2528 -0.6442  0.4617
  347MOL0     O46757  13.027   5.294   5.896  0.0590 -0.3850 -0.3939
  347MOL0     C46758  12.750   5.220   5.684  0.2492  0.2958 -0.0224
  347MOL0     C46759  12.613   5.241   5.692  0.5458 -0.0936 -0.2809
  347MOL0     N46760  11.794   5.321   5.690  0.1970 -0.1185  0.6509
  347MOL0     N46761  11.685   5.386   5.688 -0.5569  0.0502 -0.3505
  347MOL0     C46762  10.674   5.965   5.559  0.4541  0.1259  0.4708
  347MOL0     C46763  10.547   5.945   5.490  0.8627 -0.5423 -0.5772
  347MOL0     C46764  10.279   5.880   5.139 -0.3064  0.1320 -0.2329
  347MOL0     C46765  10.240   5.987   5.055 -0.3312  0.1605  0.1956
  347MOL0     C46766  10.127   5.962   4.974 -1.0025 -0.5190 -0.5547
  347MOL0     C46767  10.051   5.841   4.985  0.2216  0.3411 -0.2536
  347MOL0     O46768   9.951   5.825   4.895  0.1364 -0.3041 -0.1223
  347MOL0     C46769   9.851   5.929   4.898 -0.5863  0.0754  0.4281
  347MOL0     C46770   9.735   5.896   4.805  0.1612 -0.5013 -1.3283
  347MOL0     C46771   9.776   5.907   4.664 -0.3447 -0.5302  1.0738
  347MOL0     C46772   9.659   5.926   4.561  1.5015  0.1325 -0.2604
  347MOL0     C46773   9.599   5.804   4.508 -0.0157 -0.4208  0.1343
  347MOL0     C46774   9.553   5.704   4.456 -0.5225  0.3134 -0.8061
  347MOL0     C46775  10.093   5.741   5.071 -0.3792 -0.3371  0.2721
  347MOL0     C46776  10.206   5.759   5.154  0.2007 -0.7703 -0.5979
  347MOL0     C46777  10.235   5.654   5.255  0.5055  0.3025  0.8541
  347MOL0     H46778  10.643   5.672   5.306  2.6196  1.5392 -2.2875
  347MOL0     H46779  10.841   5.706   5.451  1.3369  2.3252 -1.0297
  347MOL0     H46780  10.751   5.897   5.807  0.5847 -0.4405  0.6553
  347MOL0     H46781  10.777   5.735   5.758 -3.3599  0.4394  2.5274
  347MOL0     H46782  10.883   5.785   5.958 -1.4620  2.7259 -0.0909
  347MOL0     H46783  10.997   5.902   5.869  1.4886 -0.9836 -1.2483
  347MOL0     H46784  11.073   5.710   5.732  2.5874 -0.4210  0.4550
  347MOL0     H46785  10.953   5.609   5.813  1.1624  0.3280 -1.9271
  347MOL0     H46786  11.173   5.739   5.968  2.0319 -0.4433 -2.5388
  347MOL0     H46787  11.050   5.618   6.018 -3.5850  0.2310 -1.8266
  347MOL0     H46788  11.169   5.441   5.883 -1.0237  0.0607  1.3040
  347MOL0     H46789  11.270   5.569   5.798  3.1808 -1.6406  0.2558
  347MOL0     H46790  11.367   5.631   6.028 -0.0179  0.4522 -1.1924
  347MOL0     H46791  11.289   5.479   6.087  1.8813  0.3704  0.1874
  347MOL0     H46792  11.430   5.345   5.953  1.5191 -1.3860  3.0114
  347MOL0     H46793  11.508   5.454   6.058  2.0120  0.0883 -0.7268
  347MOL0     H46794  11.488   5.541   5.765 -0.6527 -1.7703 -0.2521
  347MOL0     H46795  11.589   5.598   5.900  3.0132 -0.3463 -1.0395
  347MOL0     H46796  11.755   5.399   6.005  1.5514 -0.7396  0.4730
  347MOL0     H46797  11.956   5.265   5.984 -1.9502 -1.4823  0.5892
  347MOL0     H46798  11.935   5.146   5.875  2.1407 -1.5255  3.4876
  347MOL0     H46799  12.104   5.277   5.713  0.3465  1.7540 -0.8289
  347MOL0     H46800  12.118   5.390   5.847  0.2177  0.1949 -1.7007
  347MOL0     H46801  12.148   5.083   5.891 -0.6864  0.7232  2.1138
  347MOL0     H46802  12.222   5.189   5.990 -0.4023  0.6135  0.9857
  347MOL0     H46803  12.319   5.157   5.700 -0.7502  1.5150 -1.2968
  347MOL0     H46804  12.391   5.084   5.848 -0.6424 -0.2037  0.5023
  347MOL0     H46805  12.572   5.333   6.019 -0.5885  1.1730 -0.9016
  347MOL0     H46806  12.818   5.296   6.008  1.2372 -4.5540 -0.5138
  347MOL0     H46807  13.208   5.040   5.755 -0.8030  0.8594 -0.9435
  347MOL0     H46808  13.450   5.053   5.831 -1.6025  0.0011  1.7420
  347MOL0     H46809  13.692   5.296   5.586 -1.2775  1.6920 -0.2619
  347MOL0     H46810  13.670   5.410   5.722 -1.8499  0.1737  1.5576
  347MOL0     H46811  13.910   5.357   5.722  2.3932 -1.8809  0.8376
  347MOL0     H46812  13.839   5.257   5.847 -1.6525 -1.5823 -0.6556
  347MOL0     H46813  13.799   5.085   5.664  1.8818 -2.5665  0.5303
  347MOL0     H46814  13.907   5.182   5.559 -1.2197 -1.8622 -0.8594
  347MOL0     H46815  14.007   5.087   5.833 -2.4002  1.3953 -0.6874
  347MOL0     H46816  14.098   5.127   5.690  1.4937 -3.0048 -1.0800
  347MOL0     H46817  13.991   4.940   5.563 -1.6252  1.4148  0.0165
  347MOL0     H46818  13.944   4.877   5.729 -0.3484  0.6574 -0.7396
  347MOL0     H46819  14.226   4.947   5.667 -1.3694  0.5723 -3.7266
  347MOL0     H46820  14.161   4.874   5.807 -0.6047  0.1222  0.5069
  347MOL0     H46821  14.167   4.737   5.535  0.4245  1.5025 -0.6202
  347MOL0     H46822  14.127   4.651   5.691  0.9195 -0.2115  0.7496
  347MOL0     H46823  14.393   4.785   5.604 -3.3507  2.8313 -2.3772
  347MOL0     H46824  14.345   4.773   5.773 -4.0624  1.5095 -0.7388
  347MOL0     H46825  13.457   5.448   5.663  2.4113 -2.0697  0.8268
  347MOL0     H46826  13.229   5.447   5.618  1.2619 -0.9169 -1.2252
  347MOL0     H46827  12.797   5.192   5.590  1.3360 -0.6609  0.7709
  347MOL0     H46828  12.558   5.240   5.598 -0.0064  3.8818 -0.1842
  347MOL0     H46829  10.691   6.046   5.629 -2.0575  1.1621  0.0078
  347MOL0     H46830  10.460   6.009   5.499 -0.0255 -1.4451 -2.0941
  347MOL0     H46831  10.306   6.074   5.048  1.2284 -0.8391  1.6870
  347MOL0     H46832  10.098   6.041   4.906  0.4001  0.5764  0.0755
  347MOL0     H46833   9.894   6.017   4.849 -1.8290  0.6686  0.3618
  347MOL0     H46834   9.824   5.958   5.000  4.4935 -2.6346  2.8978
  347MOL0     H46835   9.653   5.964   4.829  0.3331 -1.1221  1.4245
  347MOL0     H46836   9.689   5.799   4.826 -1.1080  0.6259  1.8432
  347MOL0     H46837   9.846   5.833   4.622 -1.2118 -0.8334  0.1083
  347MOL0     H46838   9.827   6.003   4.650 -2.0664  0.4760  1.5446
  347MOL0     H46839   9.581   5.988   4.606  0.7792  1.4661 -3.1255
  347MOL0     H46840   9.695   5.975   4.470 -0.9409  1.8350 -0.3915
  347MOL0     H46841   9.511   5.617   4.409  0.8101 -0.1322 -1.2354
  347MOL0     H46842  10.035   5.650   5.069 -2.1393  0.7052  1.3578
  347MOL0     H46843  10.170   5.569   5.234 -0.7614  0.8855  2.2026
  347MOL0     H46844  10.336   5.613   5.248 -0.0005 -1.4754  3.1050
  347MOL0     H46845  10.207   5.696   5.352 -3.4867  1.2262 -0.4924
  348MOL0     O46846   2.307   3.161   4.127  0.2751  0.1664  0.0747
  348MOL0     C46847   2.389   3.256   4.146 -0.3810  0.0749 -0.7295
  348MOL0     O46848   2.390   3.383   4.085  0.6662 -0.0422  0.1451
  348MOL0     C46849   2.324   3.371   3.962 -0.7572 -0.7111  0.2623
  348MOL0     C46850   2.190   3.352   3.954  0.5677 -1.0417  0.1110
  348MOL0     C46851   2.133   3.344   3.826  0.1099  0.2748  0.9835
  348MOL0     C46852   2.212   3.336   3.709 -0.0606 -0.2742  0.1408
  348MOL0     O46853   2.152   3.338   3.585  0.1230 -0.0242 -0.2088
  348MOL0     C46854   2.222   3.302   3.471 -0.8501 -0.2949  0.3011
  348MOL0     C46855   2.118   3.306   3.357 -0.5951  0.2078  0.6497
  348MOL0     C46856   1.988   3.228   3.375 -0.5520 -0.5336  0.7143
  348MOL0     C46857   2.019   3.079   3.354  0.1478  0.1859  0.1555
  348MOL0     C46858   1.881   3.013   3.378  0.3895  0.1350 -0.0871
  348MOL0     C46859   1.893   2.864   3.350 -0.1571  0.5072  0.4987
  348MOL0     C46860   1.949   2.785   3.463 -0.6715 -0.1966  0.4393
  348MOL0     C46861   1.843   2.706   3.543  0.2601 -0.8887 -0.5047
  348MOL0     N46862   1.909   2.607   3.633  0.0309  0.3430  0.0035
  348MOL0     C46863   1.959   2.631   3.759 -0.8361  1.0638 -0.0254
  348MOL0     C46864   2.005   2.504   3.794  0.6378  0.3893 -0.0129
  348MOL0     C46865   2.078   2.464   3.915 -0.3833  0.1653 -0.0269
  348MOL0     C46866   2.194   2.555   3.964  0.0574 -0.1232 -0.3029
  348MOL0     C46867   2.224   2.504   4.106 -0.0269 -1.0398 -0.2719
  348MOL0     C46868   2.333   2.584   4.168 -0.4276  0.2762 -0.8700
  348MOL0     O46869   2.348   2.530   4.303 -0.4816 -0.5153 -0.2459
  348MOL0     C46870   2.439   2.593   4.386  0.3161 -1.1637  0.2666
  348MOL0     C46871   2.558   2.651   4.344 -0.4881 -0.1844  0.8616
  348MOL0     C46872   2.638   2.707   4.440 -0.2049 -0.2081 -0.1463
  348MOL0     C46873   2.621   2.678   4.577 -0.4500  0.3456  0.7496
  348MOL0     C46874   2.714   2.730   4.686 -0.7503  0.4648 -0.3973
  348MOL0     O46875   2.811   2.818   4.642  0.0383 -0.1030  0.5202
  348MOL0     C46876   2.930   2.832   4.714 -0.2040  0.5517  0.9024
  348MOL0     C46877   2.994   2.753   4.805  0.3460 -0.3980 -0.0034
  348MOL0     C46878   3.116   2.788   4.861 -0.4147  0.1818  0.1231
  348MOL0     C46879   3.179   2.911   4.838  0.4738 -0.9981  0.1990
  348MOL0     O46880   3.289   2.935   4.914 -0.2552  0.2545  0.3432
  348MOL0     C46881   3.371   3.053   4.897 -0.5585  0.4558  0.4973
  348MOL0     C46882   3.331   3.176   4.989  0.2007 -0.0638  0.1847
  348MOL0     C46883   3.383   3.324   4.958 -0.5761  0.7125 -0.2408
  348MOL0     C46884   3.334   3.368   4.820 -0.1604  0.1105 -0.6067
  348MOL0     C46885   3.363   3.515   4.790 -0.4465 -0.9856 -0.6663
  348MOL0     C46886   3.510   3.550   4.764  0.9722  0.2723 -0.5701
  348MOL0     C46887   3.529   3.673   4.677  0.8124 -0.2567  0.8128
  348MOL0     C46888   3.674   3.714   4.683 -0.0851 -0.7749 -0.5356
  348MOL0    Cl46889   3.737   3.732   4.840  0.2304 -0.4295 -0.1455
  348MOL0     C46890   3.118   2.994   4.739 -0.3609  1.0053  0.0254
  348MOL0     C46891   2.994   2.958   4.689 -0.1337  0.3745  0.9979
  348MOL0     O46892   2.705   2.691   4.805  0.6421  0.3017  0.0457
  348MOL0     C46893   2.498   2.624   4.612  0.4424 -0.2802 -0.6816
  348MOL0     C46894   2.411   2.582   4.514 -0.0432 -0.2120 -0.2074
  348MOL0     N46895   1.995   2.419   3.686  0.3762 -0.2040 -1.0468
  348MOL0     N46896   1.933   2.476   3.591  0.6019 -0.1817 -0.6903
  348MOL0     C46897   2.353   3.340   3.725  0.0974 -0.1932  0.1977
  348MOL0     C46898   2.406   3.356   3.849 -0.6247  0.6046  0.3335
  348MOL0     C46899   2.497   3.247   4.251  0.3179  0.8747  0.3883
  348MOL0     C46900   2.557   3.359   4.293 -0.7391 -0.1380  0.4275
  348MOL0     C46901   2.646   3.367   4.402  0.5863 -0.4365  0.1905
  348MOL0     C46902   2.694   3.253   4.463 -0.0029  0.0779  0.3535
  348MOL0     O46903   2.776   3.244   4.574 -0.0576 -0.0408 -0.3781
  348MOL0     C46904   2.805   3.371   4.636 -0.8137 -0.2744  0.1612
  348MOL0     C46905   2.857   3.339   4.776 -0.1798 -0.5898 -0.2138
  348MOL0     C46906   2.926   3.461   4.843 -0.1639 -0.1584 -0.1519
  348MOL0     C46907   2.973   3.415   4.982  0.2458  0.9926  0.0023
  348MOL0     C46908   3.063   3.522   5.037 -0.0741  0.1752 -0.5527
  348MOL0     C46909   3.126   3.621   5.058 -0.7161  0.3445 -0.6415
  348MOL0     C46910   2.643   3.134   4.407 -0.0748  0.1861  0.7326
  348MOL0     C46911   2.545   3.126   4.303 -0.8399  0.5027 -0.3275
  348MOL0     C46912   2.478   2.985   4.283 -0.7364 -0.2435  0.1196
  348MOL0     H46913   2.130   3.378   4.041  1.7437  5.4427 -0.4833
  348MOL0     H46914   2.027   3.350   3.803  0.5769  3.2769 -1.0099
  348MOL0     H46915   2.295   3.383   3.465 -1.8903  0.6537  0.0011
  348MOL0     H46916   2.275   3.207   3.472 -3.5293 -1.9847 -2.2735
  348MOL0     H46917   2.164   3.276   3.263  0.7757  0.7994  1.1049
  348MOL0     H46918   2.096   3.412   3.343 -0.5978  0.4597  2.2758
  348MOL0     H46919   1.913   3.275   3.312 -0.6727  1.7269  2.4281
  348MOL0     H46920   1.955   3.253   3.476  1.4307 -3.3881  2.2292
  348MOL0     H46921   2.053   3.069   3.250 -0.2907 -4.8482  0.2683
  348MOL0     H46922   2.098   3.042   3.419  2.0922  0.7864 -1.7350
  348MOL0     H46923   1.848   3.031   3.480 -2.3196  1.8617 -1.1690
  348MOL0     H46924   1.807   3.053   3.308  2.2472  0.6467 -1.8585
  348MOL0     H46925   1.795   2.835   3.309 -1.7667  4.7542  0.7259
  348MOL0     H46926   1.971   2.858   3.274  0.6981 -3.0555  1.5139
  348MOL0     H46927   1.998   2.849   3.537 -0.9768  1.0142 -0.3859
  348MOL0     H46928   2.019   2.708   3.429  1.9075  1.1184  2.3505
  348MOL0     H46929   1.777   2.771   3.601  1.8871  0.1039  0.3337
  348MOL0     H46930   1.779   2.656   3.470 -0.2222  1.4822 -1.7903
  348MOL0     H46931   1.971   2.727   3.809  1.3284  0.3842  0.8829
  348MOL0     H46932   2.003   2.459   3.994 -1.1320 -0.4698 -0.7690
  348MOL0     H46933   2.107   2.361   3.893 -1.7570 -0.1715 -0.3378
  348MOL0     H46934   2.282   2.532   3.903 -0.1131 -0.6942 -0.3321
  348MOL0     H46935   2.167   2.661   3.965 -1.6227 -0.5205 -0.6153
  348MOL0     H46936   2.243   2.396   4.108 -1.6560 -1.4236  3.7948
  348MOL0     H46937   2.141   2.528   4.173  2.3945  2.7320  1.6754
  348MOL0     H46938   2.312   2.692   4.167  0.2822  0.4245 -0.4370
  348MOL0     H46939   2.419   2.556   4.106 -0.3651 -0.4515 -0.4535
  348MOL0     H46940   2.575   2.649   4.237  1.2470 -3.0953  1.0917
  348MOL0     H46941   2.725   2.765   4.412  0.8949 -1.5859  0.3120
  348MOL0     H46942   2.960   2.656   4.838  0.1744 -0.1364  0.5940
  348MOL0     H46943   3.159   2.730   4.941  0.4834 -0.7103 -0.9743
  348MOL0     H46944   3.476   3.030   4.919 -0.0549  1.0228 -1.1528
  348MOL0     H46945   3.361   3.087   4.794 -0.7793 -1.3229 -0.1029
  348MOL0     H46946   3.222   3.181   4.981  0.0753  0.8266  1.8255
  348MOL0     H46947   3.345   3.150   5.095  1.7390 -2.9443 -0.6559
  348MOL0     H46948   3.337   3.386   5.036  0.6872 -0.3184  1.3806
  348MOL0     H46949   3.493   3.319   4.957 -0.5226  1.1105 -2.7247
  348MOL0     H46950   3.228   3.345   4.812  0.0214 -0.6365 -1.0241
  348MOL0     H46951   3.382   3.319   4.734 -2.6636 -0.7006 -1.6134
  348MOL0     H46952   3.338   3.579   4.875 -2.0577 -1.5994 -0.6354
  348MOL0     H46953   3.294   3.541   4.709  1.4280  1.7904 -1.4976
  348MOL0     H46954   3.564   3.548   4.859  0.1196 -2.0280 -0.0739
  348MOL0     H46955   3.559   3.476   4.700  2.6894  1.3742 -0.5799
  348MOL0     H46956   3.473   3.758   4.715 -0.8584 -0.5711 -0.8171
  348MOL0     H46957   3.506   3.650   4.572 -0.7875  3.7280  0.1300
  348MOL0     H46958   3.741   3.640   4.640  1.5150  0.0415  0.4873
  348MOL0     H46959   3.693   3.806   4.627 -1.1173 -2.0020 -3.0570
  348MOL0     H46960   3.163   3.089   4.712  2.1260  0.7515  2.7392
  348MOL0     H46961   2.959   3.022   4.609  0.9087  1.0360  1.0555
  348MOL0     H46962   2.470   2.615   4.717  0.4618  1.0398 -0.5472
  348MOL0     H46963   2.323   2.524   4.541 -0.4011 -0.1178 -1.1426
  348MOL0     H46964   2.424   3.322   3.645 -0.7545 -3.5977  0.0196
  348MOL0     H46965   2.512   3.369   3.866 -0.4567 -0.0834 -0.1300
  348MOL0     H46966   2.528   3.456   4.254  0.7989  0.4255  0.5950
  348MOL0     H46967   2.661   3.471   4.430  1.6086 -0.1616 -1.3060
  348MOL0     H46968   2.712   3.427   4.645  0.2217  1.1366  2.9372
  348MOL0     H46969   2.871   3.433   4.574 -2.4283 -0.6551 -2.0894
  348MOL0     H46970   2.924   3.252   4.774 -0.0311 -0.5318 -3.4005
  348MOL0     H46971   2.769   3.316   4.837 -1.2685  2.3577 -0.5403
  348MOL0     H46972   2.858   3.547   4.854  1.5537  1.6259 -2.5642
  348MOL0     H46973   3.010   3.492   4.781 -1.4924  3.1411 -0.4906
  348MOL0     H46974   2.882   3.407   5.042  1.9424  1.3003  2.8161
  348MOL0     H46975   3.023   3.318   4.987 -1.5663  0.0498  3.9982
  348MOL0     H46976   3.194   3.700   5.081  1.0500 -0.8571 -1.5325
  348MOL0     H46977   2.673   3.043   4.458  0.6737 -0.3151 -0.5542
  348MOL0     H46978   2.508   2.910   4.357  0.6270  0.3682  0.2346
  348MOL0     H46979   2.370   2.990   4.295 -0.7334 -1.4175  0.8032
  348MOL0     H46980   2.519   2.940   4.192 -2.1810 -2.1313  0.3531
  349MOL0     O46981   7.522   4.773  10.143 -0.8187  0.3942 -0.0044
  349MOL0     C46982   7.525   4.842  10.241  0.5313 -0.2050 -1.4925
  349MOL0     O46983   7.614   4.827  10.350  0.0576 -0.3297  0.3189
  349MOL0     C46984   7.737   4.788  10.308 -0.0846  0.6317  0.6630
  349MOL0     C46985   7.790   4.662  10.342  0.6155  0.4831  0.0115
  349MOL0     C46986   7.921   4.628  10.289 -0.4418 -0.7058  0.0724
  349MOL0     C46987   7.988   4.703  10.200  0.4211 -1.1818  0.4640
  349MOL0     O46988   8.118   4.667  10.166 -0.4919 -0.1221  0.1025
  349MOL0     C46989   8.208   4.766  10.109 -0.3929  0.6109 -0.3097
  349MOL0     C46990   8.338   4.699  10.075  0.3076  0.4317 -0.0751
  349MOL0     C46991   8.435   4.782   9.999 -0.1472 -0.7101  0.5358
  349MOL0     C46992   8.555   4.705   9.962  1.2065 -0.7562 -0.3246
  349MOL0     C46993   8.658   4.799   9.888 -0.7850 -0.2275  0.0417
  349MOL0     C46994   8.768   4.703   9.839  0.5809  0.0660 -0.6560
  349MOL0     C46995   8.864   4.791   9.762  0.2154  0.5647  0.3438
  349MOL0     C46996   8.995   4.742   9.697  0.2249  1.3233 -0.6097
  349MOL0     N46997   9.036   4.817   9.575  0.0131  0.4443 -0.3735
  349MOL0     C46998   8.985   4.809   9.451 -0.2976  0.3349  0.8766
  349MOL0     C46999   9.086   4.860   9.370  1.1792  0.8744  0.3498
  349MOL0     C47000   9.074   4.852   9.217 -0.1248  0.1815  1.2571
  349MOL0     C47001   9.206   4.864   9.138  0.2627 -0.1890  0.3883
  349MOL0     C47002   9.190   4.810   8.993 -0.1487  0.5776  0.7050
  349MOL0     C47003   9.327   4.779   8.932  0.0331  0.0286  1.3465
  349MOL0     O47004   9.428   4.876   8.975  0.2464 -0.9620  0.1402
  349MOL0     C47005   9.553   4.869   8.915 -0.2200 -0.4613  0.7049
  349MOL0     C47006   9.634   4.974   8.953 -0.1099  0.0551  0.1251
  349MOL0     C47007   9.773   4.990   8.917  0.7182 -0.1796 -0.3540
  349MOL0     C47008   9.825   4.887   8.843  0.3291 -0.3888 -0.7600
  349MOL0     C47009   9.975   4.883   8.821  0.3552  0.3666  0.1354
  349MOL0     O47010  10.053   4.982   8.834 -0.0659 -0.6366  0.4447
  349MOL0     C47011  10.177   4.972   8.883  0.1278 -0.2538  0.2521
  349MOL0     C47012  10.241   4.859   8.948 -0.8196 -0.3709  0.0012
  349MOL0     C47013  10.375   4.862   8.990  0.5061  0.3319  0.4269
  349MOL0     C47014  10.453   4.978   8.963 -0.0117 -0.1330 -0.7920
  349MOL0     O47015  10.583   4.966   9.006 -0.2283  0.2075  0.0808
  349MOL0     C47016  10.655   5.087   9.028  1.0333  0.2276 -0.6873
  349MOL0     C47017  10.757   5.045   9.128  0.0610 -0.5140  0.5424
  349MOL0     C47018  10.844   5.166   9.174 -1.5572  0.0837  0.3805
  349MOL0     C47019  10.757   5.270   9.245 -0.3012 -0.4743  0.0212
  349MOL0     C47020  10.861   5.368   9.314  0.5563 -0.1486 -0.1113
  349MOL0     C47021  10.846   5.503   9.255  0.0599 -0.9447 -0.4536
  349MOL0     C47022  10.952   5.595   9.307 -0.6988 -0.7136  0.2322
  349MOL0     C47023  10.928   5.738   9.255 -0.6040 -0.5295  0.5468
  349MOL0    Cl47024  11.046   5.837   9.344 -0.2250 -0.1872 -0.2205
  349MOL0     C47025  10.387   5.090   8.896 -0.3665 -0.0165  0.0593
  349MOL0     C47026  10.250   5.083   8.860 -0.8271 -0.6431 -0.2345
  349MOL0     O47027  10.019   4.777   8.775 -0.0358 -0.2969  0.0287
  349MOL0     C47028   9.749   4.779   8.797  0.5523 -0.1750 -0.3454
  349MOL0     C47029   9.609   4.772   8.831  1.4279  0.6799  0.1476
  349MOL0     N47030   9.185   4.918   9.448 -0.7120  0.5829 -0.1658
  349MOL0     N47031   9.152   4.886   9.570 -0.7463  0.2542 -0.1151
  349MOL0     C47032   7.927   4.819  10.157 -1.0960  0.7547  0.0270
  349MOL0     C47033   7.807   4.863  10.217  0.6237  0.4817 -0.7454
  349MOL0     C47034   7.401   4.930  10.269  0.7060  0.8144  0.7188
  349MOL0     C47035   7.291   4.919  10.177 -0.7795  0.2848  0.0992
  349MOL0     C47036   7.176   4.989  10.195  0.1453  0.5458  0.3341
  349MOL0     C47037   7.162   5.067  10.311 -0.1061  0.5196 -0.3164
  349MOL0     O47038   7.034   5.111  10.337  0.5586 -0.3465 -0.5316
  349MOL0     C47039   7.025   5.232  10.408 -0.0441 -0.4005  1.1385
  349MOL0     C47040   6.875   5.275  10.413  0.3228 -0.1382  0.2485
  349MOL0     C47041   6.798   5.172  10.504 -0.5185  0.3137 -0.9358
  349MOL0     C47042   6.664   5.138  10.442 -0.0145 -0.3649 -0.4876
  349MOL0     C47043   6.579   5.259  10.434 -0.8668  0.2396  0.3185
  349MOL0     C47044   6.514   5.364  10.428  0.0402  0.5137 -0.0111
  349MOL0     C47045   7.277   5.079  10.402  0.2495  0.2838  0.7605
  349MOL0     C47046   7.397   5.019  10.374 -1.0867 -0.2288  0.0260
  349MOL0     C47047   7.509   5.048  10.465 -0.5882  0.4086 -0.0561
  349MOL0     H47048   7.723   4.598  10.398 -1.0228  2.2446  0.1488
  349MOL0     H47049   7.969   4.535  10.317  3.3906  0.7196 -1.1754
  349MOL0     H47050   8.166   4.805  10.016 -1.5533 -1.7143 -0.8313
  349MOL0     H47051   8.231   4.849  10.176 -0.1852  0.3833 -0.0935
  349MOL0     H47052   8.320   4.602  10.029  0.1144 -1.3674  3.4513
  349MOL0     H47053   8.386   4.682  10.172  0.5081  0.0673 -0.2360
  349MOL0     H47054   8.470   4.868  10.056  0.6352  0.5572 -1.7303
  349MOL0     H47055   8.391   4.830   9.911 -0.1962  0.2235  1.0601
  349MOL0     H47056   8.593   4.650  10.049  0.3152 -1.6299 -0.4711
  349MOL0     H47057   8.534   4.627   9.888 -2.5363  0.4055 -0.6977
  349MOL0     H47058   8.608   4.845   9.802 -0.2650 -0.5544 -0.4431
  349MOL0     H47059   8.702   4.877   9.952  2.1002 -2.5983  1.1633
  349MOL0     H47060   8.816   4.654   9.924 -0.9906  1.3386  1.0665
  349MOL0     H47061   8.740   4.613   9.784  1.7686 -3.4167  3.7916
  349MOL0     H47062   8.893   4.879   9.819  4.4458 -0.2335 -0.2172
  349MOL0     H47063   8.795   4.823   9.683 -0.3085 -1.5087 -0.1115
  349MOL0     H47064   9.075   4.746   9.771  0.9045 -0.3003 -1.1948
  349MOL0     H47065   8.978   4.636   9.673 -1.8651  1.4575  0.0386
  349MOL0     H47066   8.889   4.764   9.430 -0.7613  1.2813  0.9126
  349MOL0     H47067   9.025   4.758   9.191  0.2443 -0.2110  1.9584
  349MOL0     H47068   9.004   4.932   9.190 -1.2170 -0.8128  1.0656
  349MOL0     H47069   9.238   4.968   9.143 -0.9360  0.1590  1.4229
  349MOL0     H47070   9.284   4.801   9.181  0.3138 -1.7529 -1.8291
  349MOL0     H47071   9.131   4.879   8.932 -2.0207 -0.5683  1.1360
  349MOL0     H47072   9.135   4.716   8.990 -1.0653  1.0376  2.1115
  349MOL0     H47073   9.321   4.784   8.822 -1.1130 -0.1199  1.3873
  349MOL0     H47074   9.367   4.683   8.966 -1.2342 -0.3522  1.8139
  349MOL0     H47075   9.597   5.050   9.019 -0.0958  0.9047 -0.8143
  349MOL0     H47076   9.828   5.078   8.949  1.1493 -0.3738 -0.5608
  349MOL0     H47077  10.177   4.778   8.981 -2.9139  1.1394 -0.1391
  349MOL0     H47078  10.419   4.777   9.042  0.2733 -0.1931 -0.2096
  349MOL0     H47079  10.694   5.119   8.931  3.6605 -0.4855  0.0667
  349MOL0     H47080  10.576   5.151   9.070 -0.7901 -3.1084  1.4571
  349MOL0     H47081  10.722   4.979   9.207 -0.2594  0.0673  0.8948
  349MOL0     H47082  10.822   4.984   9.064 -1.6509 -1.4506 -0.3775
  349MOL0     H47083  10.926   5.133   9.238 -0.0121 -0.1863 -1.6350
  349MOL0     H47084  10.900   5.211   9.091  1.1495 -1.5829  1.1679
  349MOL0     H47085  10.692   5.228   9.322 -0.7270 -0.8604 -0.5392
  349MOL0     H47086  10.694   5.312   9.166 -1.7334 -0.5001  1.1092
  349MOL0     H47087  10.961   5.328   9.297  0.4261 -0.1422 -0.9360
  349MOL0     H47088  10.851   5.371   9.423 -2.5499  0.0629 -0.3276
  349MOL0     H47089  10.859   5.501   9.146 -1.0058 -0.9645 -0.5829
  349MOL0     H47090  10.746   5.530   9.289  0.2901  0.2411 -0.6707
  349MOL0     H47091  11.056   5.566   9.290 -0.7553 -0.8422  0.1036
  349MOL0     H47092  10.939   5.595   9.416 -2.2856 -0.7183  0.0623
  349MOL0     H47093  10.932   5.753   9.147  1.5057  1.7106  0.8227
  349MOL0     H47094  10.826   5.758   9.290 -2.2097 -1.3216 -3.2671
  349MOL0     H47095  10.449   5.177   8.877 -0.3958 -0.1256 -0.5636
  349MOL0     H47096  10.207   5.174   8.819 -2.3252 -1.4425 -0.4690
  349MOL0     H47097   9.804   4.702   8.744  1.3177 -0.4899  0.8672
  349MOL0     H47098   9.542   4.691   8.805  1.6232  0.8974 -1.0823
  349MOL0     H47099   7.961   4.881  10.075 -0.1741  1.5417  0.9702
  349MOL0     H47100   7.767   4.953  10.171 -0.7022  0.0228 -0.5371
  349MOL0     H47101   7.279   4.845  10.098  1.2245 -0.9482  0.8595
  349MOL0     H47102   7.102   4.957  10.123 -1.1246 -0.4076  1.9949
  349MOL0     H47103   7.067   5.314  10.349 -6.6852  0.9956 -2.6815
  349MOL0     H47104   7.056   5.218  10.512  0.5707 -0.2276  0.9836
  349MOL0     H47105   6.834   5.272  10.311  2.2842 -0.0694 -0.5760
  349MOL0     H47106   6.871   5.380  10.445 -0.4212 -0.0423 -0.1271
  349MOL0     H47107   6.789   5.215  10.605 -1.3383  0.2648 -0.9783
  349MOL0     H47108   6.864   5.086  10.515  2.2048  2.5290  2.0808
  349MOL0     H47109   6.678   5.100  10.340 -1.3711 -0.7323 -0.5617
  349MOL0     H47110   6.598   5.066  10.493 -1.3888  1.0317 -0.2065
  349MOL0     H47111   6.474   5.463  10.425 -0.3198  0.3584 -2.5380
  349MOL0     H47112   7.265   5.140  10.491 -2.1687  1.9748 -0.5908
  349MOL0     H47113   7.500   5.132  10.533 -1.6800 -1.8811  2.8476
  349MOL0     H47114   7.514   4.965  10.537 -2.4342  0.6462  0.4036
  349MOL0     H47115   7.599   5.058  10.403 -1.6621 -2.1212 -2.2253
  350MOL0     O47116   4.925   5.745   2.195 -0.5356 -0.0074  0.4422
  350MOL0     C47117   5.016   5.694   2.256  0.1573 -0.1143 -0.1716
  350MOL0     O47118   5.131   5.749   2.293 -0.1575  0.2910 -0.0365
  350MOL0     C47119   5.182   5.876   2.258 -0.7750 -0.8858  0.8376
  350MOL0     C47120   5.295   5.926   2.321  0.6071 -0.4057 -0.1680
  350MOL0     C47121   5.360   6.053   2.301  0.1993 -0.2064  0.6761
  350MOL0     C47122   5.312   6.128   2.199 -0.4335 -0.3617  0.2366
  350MOL0     O47123   5.359   6.250   2.149 -0.4277 -0.4541  0.5214
  350MOL0     C47124   5.445   6.315   2.240  0.1290 -0.9089 -0.0986
  350MOL0     C47125   5.479   6.453   2.186  0.0840 -0.1144 -0.6118
  350MOL0     C47126   5.596   6.437   2.082 -0.0540  1.0638 -0.5969
  350MOL0     C47127   5.586   6.545   1.967  0.2686  0.0403 -0.2603
  350MOL0     C47128   5.720   6.551   1.888  0.3810 -1.2010  0.2135
  350MOL0     C47129   5.774   6.418   1.830 -0.2287  0.5034 -0.8347
  350MOL0     C47130   5.886   6.464   1.739  0.5418 -1.5145 -0.4651
  350MOL0     C47131   5.973   6.339   1.705 -0.3654  0.4615  0.0540
  350MOL0     N47132   6.035   6.269   1.826  0.4382 -0.1240  0.6777
  350MOL0     C47133   6.130   6.333   1.896  0.0442  0.0350 -1.0684
  350MOL0     C47134   6.162   6.246   2.001 -0.2454  0.1551  0.3784
  350MOL0     C47135   6.262   6.276   2.102 -0.2923 -0.3268 -0.3886
  350MOL0     C47136   6.403   6.313   2.043  1.0643 -0.0661 -0.6326
  350MOL0     C47137   6.450   6.459   2.080  0.2898  0.7085  0.3583
  350MOL0     C47138   6.497   6.445   2.227  0.0465 -0.2421 -0.0195
  350MOL0     O47139   6.613   6.536   2.240  0.0386 -0.7792 -1.2123
  350MOL0     C47140   6.735   6.502   2.198  0.1282 -0.1419  0.0412
  350MOL0     C47141   6.768   6.393   2.130  0.0475 -0.0364 -0.6068
  350MOL0     C47142   6.903   6.376   2.089  0.8949  0.4803  0.1637
  350MOL0     C47143   7.007   6.466   2.126 -0.2627  0.5438 -0.4625
  350MOL0     C47144   7.144   6.452   2.090 -0.7582  0.2768 -1.0219
  350MOL0     O47145   7.251   6.500   2.168 -0.0610 -0.2153 -0.5213
  350MOL0     C47146   7.381   6.506   2.128  0.1566 -0.1127 -0.0364
  350MOL0     C47147   7.429   6.635   2.150  0.1658 -0.1032 -0.7490
  350MOL0     C47148   7.556   6.660   2.097  0.4041 -0.7641  0.4734
  350MOL0     C47149   7.642   6.564   2.045 -0.6837  1.1887 -0.1715
  350MOL0     O47150   7.774   6.601   2.018  0.3159 -0.1991  0.3630
  350MOL0     C47151   7.870   6.509   1.973  0.7320  0.6665 -0.2414
  350MOL0     C47152   8.009   6.579   1.964  1.0602  0.1783  0.0545
  350MOL0     C47153   8.118   6.488   1.920 -1.0815  0.0867  0.1756
  350MOL0     C47154   8.242   6.568   1.912 -0.4798 -0.0962 -0.1847
  350MOL0     C47155   8.361   6.477   1.889 -0.1076 -0.9589 -0.1692
  350MOL0     C47156   8.480   6.573   1.856 -0.4252  0.4386  0.5252
  350MOL0     C47157   8.526   6.659   1.973 -0.1944 -0.7420  0.4756
  350MOL0     C47158   8.649   6.738   1.923  0.7112 -0.6232 -0.3733
  350MOL0    Cl47159   8.800   6.650   1.940  0.0747 -0.2784 -0.3518
  350MOL0     C47160   7.594   6.428   2.041  0.4801  0.0285  0.3935
  350MOL0     C47161   7.460   6.405   2.072  0.4371  0.1829 -0.8989
  350MOL0     O47162   7.164   6.409   1.976  0.2213  0.7293 -0.7930
  350MOL0     C47163   6.972   6.576   2.197 -0.3894 -0.0871 -0.8350
  350MOL0     C47164   6.835   6.596   2.231  0.3540 -0.0952 -0.3672
  350MOL0     N47165   6.082   6.132   1.984  0.1647 -0.1232  0.6139
  350MOL0     N47166   5.997   6.152   1.888  0.4624  0.3191  1.1339
  350MOL0     C47167   5.196   6.084   2.131 -0.0530  0.3176 -0.0205
  350MOL0     C47168   5.134   5.961   2.157 -1.1815  0.4673  0.2457
  350MOL0     C47169   4.996   5.550   2.290  0.1310  0.0499  0.5644
  350MOL0     C47170   4.884   5.476   2.241 -0.5431 -0.4998  0.8620
  350MOL0     C47171   4.873   5.341   2.267 -0.5073  0.2609 -0.3470
  350MOL0     C47172   4.973   5.280   2.352  0.4815  0.1106  0.7005
  350MOL0     O47173   4.960   5.146   2.388 -0.4154  0.1554  0.2963
  350MOL0     C47174   4.832   5.110   2.440  0.7555  0.1096  0.9661
  350MOL0     C47175   4.852   5.069   2.585 -0.2886 -0.7464  0.1123
  350MOL0     C47176   4.846   5.199   2.672 -0.1058 -0.1355  0.3960
  350MOL0     C47177   4.870   5.160   2.817 -0.5637 -0.1761  0.2260
  350MOL0     C47178   4.777   5.059   2.872 -0.2521  0.8586  0.2969
  350MOL0     C47179   4.687   4.983   2.902  0.3977 -0.7050 -1.1227
  350MOL0     C47180   5.078   5.349   2.400 -0.1643 -0.4592  0.1540
  350MOL0     C47181   5.092   5.482   2.365 -1.0515 -0.6385 -0.2450
  350MOL0     C47182   5.231   5.534   2.412  0.7394  0.1045 -0.4622
  350MOL0     H47183   5.339   5.855   2.391  1.2632  0.9698  0.8477
  350MOL0     H47184   5.439   6.094   2.362 -1.5734  3.1817  0.9394
  350MOL0     H47185   5.389   6.331   2.333  2.0740  1.0786  0.8187
  350MOL0     H47186   5.539   6.261   2.256 -0.0413 -1.0368  0.5085
  350MOL0     H47187   5.518   6.514   2.267  0.6300 -1.8402  0.4875
  350MOL0     H47188   5.392   6.494   2.135 -0.1951 -0.5528 -0.4880
  350MOL0     H47189   5.606   6.337   2.040  2.1460  0.6899  0.6358
  350MOL0     H47190   5.692   6.447   2.134  1.4280  0.7226 -3.0833
  350MOL0     H47191   5.502   6.531   1.899  0.4834 -0.8096 -0.3703
  350MOL0     H47192   5.565   6.637   2.022  3.0474 -0.1440  1.3048
  350MOL0     H47193   5.698   6.615   1.802 -2.0835 -0.5260  1.2556
  350MOL0     H47194   5.795   6.597   1.952  0.6125 -1.6977  0.3044
  350MOL0     H47195   5.806   6.349   1.909 -0.0739  0.9208 -0.5294
  350MOL0     H47196   5.694   6.365   1.777 -0.1408 -0.8998  0.3594
  350MOL0     H47197   5.932   6.554   1.780  1.2396 -1.3479 -1.5833
  350MOL0     H47198   5.843   6.498   1.644  0.5943 -1.2676 -0.3999
  350MOL0     H47199   5.914   6.262   1.654  1.9084 -0.3771 -1.5042
  350MOL0     H47200   6.055   6.368   1.638  0.6324 -0.0641  0.9973
  350MOL0     H47201   6.182   6.427   1.878  2.3610 -1.3322 -1.9945
  350MOL0     H47202   6.240   6.341   2.187  1.8678 -0.0306 -0.0046
  350MOL0     H47203   6.285   6.178   2.145 -1.4582 -0.5613 -0.2820
  350MOL0     H47204   6.479   6.243   2.078 -0.6051 -0.9930  1.3991
  350MOL0     H47205   6.398   6.303   1.934 -1.8157 -0.9040 -0.5299
  350MOL0     H47206   6.384   6.539   2.047  2.5328  0.8541 -4.8844
  350MOL0     H47207   6.527   6.480   2.005 -1.3671  2.9208 -0.8326
  350MOL0     H47208   6.538   6.345   2.246  0.7729  0.1665  0.5732
  350MOL0     H47209   6.414   6.460   2.297  0.0609 -2.7805  0.6315
  350MOL0     H47210   6.681   6.335   2.101 -1.6107  1.2184  1.5260
  350MOL0     H47211   6.925   6.294   2.021 -0.8342 -0.1802  0.3340
  350MOL0     H47212   7.375   6.722   2.185  2.1814 -0.1991  3.1728
  350MOL0     H47213   7.587   6.764   2.107  0.1766 -0.6692  0.1967
  350MOL0     H47214   7.878   6.420   2.036  1.5421  0.6434 -0.3604
  350MOL0     H47215   7.848   6.477   1.870  2.4290  1.7132 -0.9751
  350MOL0     H47216   8.000   6.659   1.890  1.0030 -2.2785 -2.7721
  350MOL0     H47217   8.036   6.622   2.061  1.8762  1.3718 -0.6774
  350MOL0     H47218   8.132   6.399   1.983  2.5170  0.1427 -0.3127
  350MOL0     H47219   8.091   6.448   1.822  1.0772  1.5889 -1.1177
  350MOL0     H47220   8.259   6.641   1.992 -0.4475  2.2451 -2.2144
  350MOL0     H47221   8.229   6.637   1.828  0.2970  3.5324  2.4045
  350MOL0     H47222   8.344   6.429   1.792  1.9232 -1.3024 -0.4059
  350MOL0     H47223   8.379   6.405   1.969  0.4478  0.7837  1.3188
  350MOL0     H47224   8.561   6.510   1.818 -1.7758  0.4174 -2.5909
  350MOL0     H47225   8.464   6.642   1.772  1.1430  1.9666  1.4044
  350MOL0     H47226   8.542   6.599   2.063  0.0375  1.6518  2.0941
  350MOL0     H47227   8.459   6.740   2.001 -1.2614 -1.3925 -0.1124
  350MOL0     H47228   8.631   6.779   1.823 -0.5829 -3.2536 -1.3131
  350MOL0     H47229   8.646   6.825   1.990 -5.5861 -0.7554  0.1661
  350MOL0     H47230   7.650   6.340   2.011 -1.6922 -0.4893 -2.6145
  350MOL0     H47231   7.433   6.308   2.032  1.9744 -1.5593  1.9609
  350MOL0     H47232   7.042   6.650   2.234 -1.8592 -0.2704  2.7031
  350MOL0     H47233   6.819   6.689   2.284  2.2005  0.7930 -1.2513
  350MOL0     H47234   5.157   6.146   2.051 -2.7752 -2.6220 -1.2164
  350MOL0     H47235   5.048   5.936   2.095 -1.1457  2.9447 -0.9148
  350MOL0     H47236   4.807   5.520   2.179  0.9311  0.3234 -0.4578
  350MOL0     H47237   4.786   5.283   2.239  0.6173 -0.1745 -3.3745
  350MOL0     H47238   4.780   5.029   2.387  0.3222 -0.0098  1.5613
  350MOL0     H47239   4.761   5.193   2.430 -0.9436 -0.9817  3.1636
  350MOL0     H47240   4.948   5.017   2.596  0.0522 -0.2533 -0.4797
  350MOL0     H47241   4.760   5.017   2.614 -0.5245  0.2068  1.1179
  350MOL0     H47242   4.752   5.254   2.664 -1.1683 -1.7311  1.1909
  350MOL0     H47243   4.927   5.266   2.644 -0.0839  0.5829  2.0491
  350MOL0     H47244   4.974   5.137   2.840  0.1672  1.7008 -1.0258
  350MOL0     H47245   4.852   5.254   2.869 -0.5164 -1.2039  2.2043
  350MOL0     H47246   4.611   4.915   2.934  0.7721 -0.6733 -0.1054
  350MOL0     H47247   5.150   5.297   2.463 -1.5858 -0.3767  1.9229
  350MOL0     H47248   5.291   5.548   2.322 -0.5084  1.7373 -1.1024
  350MOL0     H47249   5.235   5.626   2.470  4.7982  0.9248 -1.7673
  350MOL0     H47250   5.278   5.465   2.483  0.8988 -1.3815 -1.9576
  351MOL0     O47251   7.600  10.028   3.375  0.0987  0.8172 -0.4371
  351MOL0     C47252   7.611   9.908   3.407  0.1684  0.3751  0.8021
  351MOL0     O47253   7.735   9.846   3.428 -0.2981  0.6267 -0.0360
  351MOL0     C47254   7.857   9.915   3.408 -0.1654  0.1514 -0.5270
  351MOL0     C47255   7.975   9.840   3.365  0.8622  0.8915  0.7516
  351MOL0     C47256   8.098   9.899   3.356 -0.3592 -0.5482  0.0336
  351MOL0     C47257   8.119  10.037   3.389 -0.6330 -0.2274 -0.1850
  351MOL0     O47258   8.243  10.092   3.373 -1.0980  0.4466 -0.0438
  351MOL0     C47259   8.252  10.232   3.351  0.1083 -0.0430  0.1041
  351MOL0     C47260   8.381  10.255   3.272  0.4236 -0.6320 -0.2157
  351MOL0     C47261   8.510  10.266   3.348 -0.4647 -0.0106  0.5446
  351MOL0     C47262   8.631  10.275   3.253 -0.0160  0.2082  0.2052
  351MOL0     C47263   8.752  10.246   3.325 -0.2653 -0.4246 -0.1583
  351MOL0     C47264   8.883  10.231   3.240 -0.8145 -0.3141  0.0709
  351MOL0     C47265   8.998  10.196   3.327  0.2673 -0.9683  0.6218
  351MOL0     C47266   9.126  10.163   3.247  0.3605  0.2386 -0.1854
  351MOL0     N47267   9.106  10.054   3.153 -0.1134 -0.4231  0.4371
  351MOL0     C47268   9.048  10.067   3.017 -0.2182  0.1042 -0.6195
  351MOL0     C47269   9.028   9.937   2.977 -0.3535  0.6832 -0.5698
  351MOL0     C47270   8.947   9.885   2.865  0.2620  0.9859  0.7986
  351MOL0     C47271   9.016   9.948   2.741  0.3067  0.2476  0.3270
  351MOL0     C47272   8.993   9.874   2.605  0.0634  0.2343 -0.1313
  351MOL0     C47273   9.035   9.957   2.485  0.2607  0.5201 -0.3815
  351MOL0     O47274   9.159   9.914   2.431 -0.0537  0.5196 -0.2701
  351MOL0     C47275   9.200   9.975   2.313  0.9116 -0.0756 -0.0997
  351MOL0     C47276   9.272   9.905   2.220 -0.6104 -0.4233  0.5090
  351MOL0     C47277   9.324   9.961   2.108 -0.7599 -0.5366  0.5299
  351MOL0     C47278   9.304  10.094   2.077 -0.9260  0.1372  0.2181
  351MOL0     C47279   9.348  10.153   1.951  0.0934  0.0703 -0.8572
  351MOL0     O47280   9.411  10.067   1.867 -0.2377  0.0945 -0.2686
  351MOL0     C47281   9.508  10.125   1.800 -0.4669 -0.2408  0.8194
  351MOL0     C47282   9.634  10.155   1.852 -1.0839 -0.3655 -0.4671
  351MOL0     C47283   9.742  10.196   1.763  0.3758 -0.3376  0.8318
  351MOL0     C47284   9.725  10.203   1.624 -0.7106 -0.0546  0.0129
  351MOL0     O47285   9.830  10.257   1.548  0.5170  0.1976  0.6867
  351MOL0     C47286   9.882  10.155   1.464 -0.5155 -0.1635  0.1764
  351MOL0     C47287   9.973  10.052   1.513  0.2523 -0.0479  0.0271
  351MOL0     C47288  10.083  10.119   1.594 -0.2597  0.5598  0.3956
  351MOL0     C47289  10.168  10.220   1.512 -0.1631 -0.5275 -0.4594
  351MOL0     C47290  10.294  10.267   1.593 -0.3771  0.4994 -0.2297
  351MOL0     C47291  10.359  10.385   1.517 -0.1137 -0.0198 -0.0224
  351MOL0     C47292  10.499  10.428   1.572  0.8372  0.4242 -0.7895
  351MOL0     C47293  10.571  10.517   1.464  0.3121  0.1560 -0.5094
  351MOL0    Cl47294  10.717  10.601   1.534  0.0005 -0.0678 -0.4059
  351MOL0     C47295   9.604  10.166   1.573 -0.6285  0.4538  0.2271
  351MOL0     C47296   9.493  10.130   1.657  0.0606  0.7236 -0.3667
  351MOL0     O47297   9.323  10.272   1.925  0.2712 -0.3277 -0.2283
  351MOL0     C47298   9.222  10.170   2.163 -0.7522  0.2455  0.3457
  351MOL0     C47299   9.186  10.114   2.285 -0.2614  0.3396  0.6187
  351MOL0     N47300   9.081   9.848   3.066  0.3195  0.2811 -0.3103
  351MOL0     N47301   9.123   9.917   3.166 -0.5269 -0.1956 -0.2170
  351MOL0     C47302   8.012  10.110   3.434 -0.4660  0.3989  0.4022
  351MOL0     C47303   7.884  10.052   3.445  0.0780 -0.5636  0.1644
  351MOL0     C47304   7.484   9.822   3.418 -0.1306 -0.4428 -0.3253
  351MOL0     C47305   7.484   9.693   3.469  0.0069 -0.4175 -0.3142
  351MOL0     C47306   7.364   9.621   3.482 -0.4890 -0.0337 -0.6244
  351MOL0     C47307   7.238   9.683   3.461  0.6275  0.2003 -1.3275
  351MOL0     O47308   7.129   9.604   3.455  0.0047  0.3441  0.2462
  351MOL0     C47309   7.001   9.663   3.408 -0.3310 -0.3159  0.0747
  351MOL0     C47310   6.885   9.561   3.447  0.0399 -0.6476  0.4517
  351MOL0     C47311   6.912   9.503   3.588 -0.6125  0.7918 -0.3447
  351MOL0     C47312   6.791   9.424   3.639 -0.2964 -0.0653  0.7061
  351MOL0     C47313   6.799   9.389   3.776  0.5203  0.1692 -0.4084
  351MOL0     C47314   6.795   9.343   3.894 -0.8293  0.3807  0.7944
  351MOL0     C47315   7.240   9.812   3.411  0.5551  0.0008 -0.6807
  351MOL0     C47316   7.357   9.884   3.392 -0.7998 -0.3657  0.5374
  351MOL0     C47317   7.340  10.014   3.319  0.8371  0.3456  0.8147
  351MOL0     H47318   7.964   9.736   3.339  3.6806 -0.0717  2.9632
  351MOL0     H47319   8.179   9.838   3.318  2.0290  2.8725 -0.7994
  351MOL0     H47320   8.166  10.268   3.293 -1.7471 -0.2170  2.6052
  351MOL0     H47321   8.233  10.292   3.440 -5.7495  0.9077 -1.3529
  351MOL0     H47322   8.365  10.352   3.224 -2.1267 -1.6679 -1.7019
  351MOL0     H47323   8.378  10.172   3.201 -0.3404 -2.2977  1.6637
  351MOL0     H47324   8.512  10.172   3.404 -3.3948 -1.3673 -1.3392
  351MOL0     H47325   8.509  10.344   3.424  4.0950  1.1734 -0.3221
  351MOL0     H47326   8.623  10.190   3.186 -2.1055  0.7457 -0.3082
  351MOL0     H47327   8.637  10.367   3.194 -0.1844 -1.5557 -2.7033
  351MOL0     H47328   8.763  10.323   3.401 -0.0682 -0.8189  0.2146
  351MOL0     H47329   8.736  10.150   3.376 -1.8570  0.7743  1.7512
  351MOL0     H47330   8.858  10.147   3.174 -2.4789  2.3953 -3.0275
  351MOL0     H47331   8.900  10.320   3.178  3.1489 -1.2155 -0.4235
  351MOL0     H47332   8.974  10.102   3.377  0.6539 -1.2705  0.2428
  351MOL0     H47333   9.015  10.273   3.404  0.6026  2.3470 -2.4682
  351MOL0     H47334   9.155  10.251   3.190  1.2939 -1.2981 -2.2021
  351MOL0     H47335   9.211  10.142   3.312  1.2077 -2.3202 -1.9559
  351MOL0     H47336   9.026  10.152   2.953  0.2398 -1.0864 -2.4290
  351MOL0     H47337   8.953   9.777   2.856  0.4842  1.1230 -1.0195
  351MOL0     H47338   8.840   9.906   2.870  0.5027  2.0928  1.7029
  351MOL0     H47339   8.992  10.054   2.728 -2.3793  0.2991  4.0464
  351MOL0     H47340   9.123   9.955   2.761 -0.0462  1.7718  1.8761
  351MOL0     H47341   8.886   9.863   2.586  0.1370 -0.1564 -0.3262
  351MOL0     H47342   9.042   9.776   2.605  0.4224  0.3808  1.4600
  351MOL0     H47343   9.030  10.064   2.503 -0.4780  0.8838 -2.5047
  351MOL0     H47344   8.965   9.929   2.406 -0.5198 -1.0267  0.8127
  351MOL0     H47345   9.277   9.798   2.238  0.6273 -0.2828  1.1202
  351MOL0     H47346   9.377   9.893   2.043  0.1735  0.8221 -0.1779
  351MOL0     H47347   9.655  10.145   1.958  1.5144 -0.2895 -0.8972
  351MOL0     H47348   9.836  10.220   1.812  0.2770  0.5992  0.5964
  351MOL0     H47349   9.801  10.100   1.416 -0.9932  0.8918 -0.2342
  351MOL0     H47350   9.934  10.208   1.384  0.0393  0.4499  0.9282
  351MOL0     H47351   9.918   9.980   1.575 -0.1645  0.5820  0.3922
  351MOL0     H47352  10.013  10.004   1.422  1.3133 -3.0993  1.9309
  351MOL0     H47353  10.032  10.169   1.677 -0.4489 -0.2812  0.7917
  351MOL0     H47354  10.144  10.041   1.639 -1.3810  0.0903  1.1725
  351MOL0     H47355  10.108  10.307   1.486  1.4144  2.7548  5.1572
  351MOL0     H47356  10.197  10.188   1.411  1.1496 -1.1958  0.1089
  351MOL0     H47357  10.356  10.177   1.594  0.8491  1.2841 -1.5716
  351MOL0     H47358  10.274  10.292   1.697 -1.3812  0.3184 -0.3666
  351MOL0     H47359  10.376  10.359   1.412  1.6115 -1.3836  0.5484
  351MOL0     H47360  10.285  10.465   1.513 -2.2569 -1.9339 -0.7835
  351MOL0     H47361  10.555  10.334   1.575 -0.3188 -0.2802  2.7235
  351MOL0     H47362  10.475  10.482   1.664 -0.8919 -0.9734 -0.3786
  351MOL0     H47363  10.587  10.449   1.380  0.7884 -0.1357 -0.1854
  351MOL0     H47364  10.506  10.596   1.424  3.5603  1.8514 -2.8392
  351MOL0     H47365   9.584  10.196   1.470 -1.9968  3.5493  1.2923
  351MOL0     H47366   9.396  10.103   1.618 -0.9200  0.9321  1.8255
  351MOL0     H47367   9.194  10.272   2.139  2.5336  1.3638  0.6546
  351MOL0     H47368   9.124  10.179   2.346  0.7512  1.2323  0.7240
  351MOL0     H47369   8.014  10.217   3.451 -2.3421  0.3579  1.1688
  351MOL0     H47370   7.804  10.112   3.487  1.4651 -0.1606  2.3382
  351MOL0     H47371   7.578   9.650   3.503  0.1841  1.3524  1.6258
  351MOL0     H47372   7.365   9.521   3.524  1.0141  0.0097 -0.4820
  351MOL0     H47373   6.997   9.699   3.305 -2.1725 -0.7587 -0.0419
  351MOL0     H47374   6.990   9.749   3.475 -0.8210  0.8535 -1.4470
  351MOL0     H47375   6.897   9.487   3.367  1.7520 -0.0436  0.0894
  351MOL0     H47376   6.789   9.613   3.449  1.0807  1.3537  0.3096
  351MOL0     H47377   6.926   9.590   3.653  1.4428 -0.7924  1.5164
  351MOL0     H47378   6.999   9.436   3.585 -2.4484 -1.7379 -0.4572
  351MOL0     H47379   6.711   9.499   3.635 -0.6129 -0.3365  1.7417
  351MOL0     H47380   6.777   9.331   3.584  0.3092 -1.2271  2.4519
  351MOL0     H47381   6.796   9.287   3.985 -4.2411  2.0477  2.0195
  351MOL0     H47382   7.152   9.852   3.362 -0.9223 -0.4039  1.4893
  351MOL0     H47383   7.409  10.034   3.236 -2.3977  4.5589 -1.2272
  351MOL0     H47384   7.239  10.030   3.281  1.0395 -0.9608 -0.3968
  351MOL0     H47385   7.346  10.093   3.394 -1.9718 -0.5009  2.0558
  352MOL0     O47386   2.275   2.127  11.201  0.0721  0.1712  0.1040
  352MOL0     C47387   2.180   2.182  11.144  0.7034  0.6073 -0.2066
  352MOL0     O47388   2.191   2.247  11.031  0.2633 -0.4449  0.3647
  352MOL0     C47389   2.316   2.266  10.980 -0.4106 -0.7045  0.0708
  352MOL0     C47390   2.382   2.387  11.007 -0.7217 -0.0986 -0.0457
  352MOL0     C47391   2.511   2.397  10.970 -0.7249 -0.0964  0.0113
  352MOL0     C47392   2.578   2.298  10.885  0.0687  0.2834  0.1018
  352MOL0     O47393   2.706   2.330  10.855 -0.1025  0.0352 -0.2982
  352MOL0     C47394   2.769   2.269  10.741  1.4781  0.5561  0.6877
  352MOL0     C47395   2.896   2.326  10.687  0.0005  0.8288 -0.6424
  352MOL0     C47396   2.997   2.349  10.808 -0.4042  0.8868 -1.5190
  352MOL0     C47397   3.067   2.213  10.849  0.2527 -0.9460 -1.0526
  352MOL0     C47398   3.164   2.238  10.971  1.0171  0.2337  0.2173
  352MOL0     C47399   3.222   2.112  11.030  0.4069 -0.0638  0.0970
  352MOL0     C47400   3.313   2.150  11.150  0.3174  0.0028 -0.1136
  352MOL0     C47401   3.235   2.187  11.282 -0.4780 -0.2285 -0.3964
  352MOL0     N47402   3.325   2.219  11.389 -0.5948 -0.4725 -0.6546
  352MOL0     C47403   3.359   2.140  11.498 -0.7873 -0.3648  0.7899
  352MOL0     C47404   3.451   2.211  11.575  0.2545 -0.1953 -0.3150
  352MOL0     C47405   3.500   2.165  11.712  0.6972  0.9390 -0.1576
  352MOL0     C47406   3.648   2.229  11.715  0.8885 -0.0589 -0.6109
  352MOL0     C47407   3.690   2.198  11.861  0.5129 -0.2531  0.2478
  352MOL0     C47408   3.839   2.245  11.899  0.3108  0.7721  0.3054
  352MOL0     O47409   3.910   2.229  11.773  0.5983  0.5711 -0.7261
  352MOL0     C47410   4.042   2.243  11.761 -0.2981 -0.0002 -0.0420
  352MOL0     C47411   4.141   2.228  11.867  0.0374  0.4925 -0.8052
  352MOL0     C47412   4.281   2.250  11.847 -0.4045 -0.0200 -0.0367
  352MOL0     C47413   4.328   2.285  11.718 -0.5966 -0.5010 -0.1705
  352MOL0     C47414   4.477   2.312  11.687  0.1316 -0.4323 -0.8782
  352MOL0     O47415   4.549   2.317  11.801 -0.3801  0.2855 -0.6008
  352MOL0     C47416   4.681   2.350  11.810  0.9013  0.3897 -0.2758
  352MOL0     C47417   4.761   2.260  11.875 -0.1481  0.1202 -0.0812
  352MOL0     C47418   4.900   2.270  11.874  0.6253 -0.5147  0.1648
  352MOL0     C47419   4.951   2.376  11.809 -0.6584 -0.3322  0.0489
  352MOL0     O47420   5.088   2.391  11.786  0.3596 -0.4439 -0.1637
  352MOL0     C47421   5.183   2.341  11.883 -0.1066  1.3768 -0.8551
  352MOL0     C47422   5.220   2.202  11.862  0.6297 -0.1453 -0.7293
  352MOL0     C47423   5.371   2.178  11.872  0.0524  0.1053 -0.3351
  352MOL0     C47424   5.418   2.040  11.837 -0.3029 -0.4909 -0.0269
  352MOL0     C47425   5.564   2.020  11.859 -0.2297 -0.2160 -0.0887
  352MOL0     C47426   5.607   1.881  11.826  0.1566  1.0571 -1.9097
  352MOL0     C47427   5.761   1.857  11.813  0.2065 -0.0889 -0.0242
  352MOL0     C47428   5.859   1.892  11.932  0.2178  0.3604  0.2109
  352MOL0    Cl47429   5.873   2.071  11.951 -0.3154  0.2728  0.0243
  352MOL0     C47430   4.874   2.474  11.747  0.3597  0.0082 -0.7258
  352MOL0     C47431   4.732   2.471  11.759  0.2947  0.3576  0.1428
  352MOL0     O47432   4.517   2.360  11.585  0.0364  0.7005 -0.1786
  352MOL0     C47433   4.234   2.297  11.615  0.1206  0.5120  0.2855
  352MOL0     C47434   4.092   2.281  11.642  0.3267  0.2640  0.4499
  352MOL0     N47435   3.455   2.339  11.508  0.0214 -0.7199  0.2547
  352MOL0     N47436   3.404   2.331  11.397  1.0244 -0.0788 -0.5911
  352MOL0     C47437   2.502   2.179  10.855 -0.5477 -0.4111  0.5427
  352MOL0     C47438   2.376   2.160  10.908 -0.8573  0.6646  0.2428
  352MOL0     C47439   2.038   2.164  11.192 -0.4015  0.4465  0.0379
  352MOL0     C47440   1.949   2.268  11.164  0.1112 -0.0484 -0.1271
  352MOL0     C47441   1.814   2.260  11.207  0.3682  0.6855 -0.1510
  352MOL0     C47442   1.760   2.142  11.274 -0.5477  0.3071 -0.3910
  352MOL0     O47443   1.631   2.108  11.303  0.2684 -0.5986 -0.3664
  352MOL0     C47444   1.528   2.178  11.241 -0.0695  0.0193 -0.0524
  352MOL0     C47445   1.386   2.144  11.290 -0.0376 -0.9153  0.5914
  352MOL0     C47446   1.374   2.080  11.441 -0.1864 -0.5584  0.7424
  352MOL0     C47447   1.217   2.085  11.481 -0.8357  0.1674 -1.2494
  352MOL0     C47448   1.198   2.081  11.627 -0.1797  0.1928 -0.2338
  352MOL0     C47449   1.175   2.082  11.740  0.9891  1.2862 -1.0950
  352MOL0     C47450   1.854   2.037  11.314 -0.0142 -1.6064 -0.0162
  352MOL0     C47451   1.990   2.047  11.264 -0.5667  0.3941  0.2008
  352MOL0     C47452   2.084   1.933  11.281 -0.2328  0.1956 -0.2054
  352MOL0     H47453   2.329   2.461  11.067  0.4234 -0.0405  0.9239
  352MOL0     H47454   2.566   2.487  10.998 -1.0607 -0.2318  1.1532
  352MOL0     H47455   2.797   2.164  10.758  1.5227  0.2409 -1.1203
  352MOL0     H47456   2.694   2.266  10.662 -1.0436 -0.4334  2.9555
  352MOL0     H47457   2.882   2.417  10.627  1.8654 -0.5181 -3.3356
  352MOL0     H47458   2.937   2.253  10.617  0.3929  0.1391  0.2825
  352MOL0     H47459   2.942   2.389  10.894  2.5202  3.0029 -0.4906
  352MOL0     H47460   3.069   2.411  10.754  0.6624  0.9501 -0.0905
  352MOL0     H47461   3.000   2.130  10.873  0.4952 -1.0290 -0.6487
  352MOL0     H47462   3.136   2.187  10.768  1.0071 -1.0982 -0.3784
  352MOL0     H47463   3.248   2.296  10.933  0.4837  0.4141 -0.7201
  352MOL0     H47464   3.117   2.296  11.051  0.7632  3.1046 -1.8756
  352MOL0     H47465   3.138   2.045  11.053  1.6246 -1.8787 -0.5148
  352MOL0     H47466   3.281   2.078  10.945  3.2479 -0.0858  1.9370
  352MOL0     H47467   3.378   2.236  11.131 -0.5807  0.9999  1.1163
  352MOL0     H47468   3.372   2.062  11.175 -0.6907 -1.6973 -3.2202
  352MOL0     H47469   3.166   2.270  11.262  0.9818  1.1353 -0.0598
  352MOL0     H47470   3.174   2.102  11.310 -0.9177 -0.3423 -1.6252
  352MOL0     H47471   3.339   2.035  11.519 -0.8234 -0.8715 -1.4841
  352MOL0     H47472   3.448   2.192  11.804 -0.8062  0.2039 -0.7626
  352MOL0     H47473   3.504   2.056  11.713  0.3640  0.9008 -1.2178
  352MOL0     H47474   3.711   2.186  11.637  0.5985 -0.6341 -0.5345
  352MOL0     H47475   3.623   2.334  11.700 -4.3554 -0.5554  2.2705
  352MOL0     H47476   3.690   2.089  11.868  4.5120 -0.3965  0.1820
  352MOL0     H47477   3.615   2.236  11.931  0.2381  1.7089 -1.0481
  352MOL0     H47478   3.881   2.195  11.987  0.0937 -1.8352 -0.9579
  352MOL0     H47479   3.842   2.350  11.929  0.6916  0.9671 -0.4006
  352MOL0     H47480   4.111   2.197  11.967 -1.3930 -0.7791 -1.5924
  352MOL0     H47481   4.352   2.237  11.929  0.0015  0.5912 -0.2847
  352MOL0     H47482   4.727   2.167  11.919  1.1329  0.1755  1.0996
  352MOL0     H47483   4.963   2.196  11.924  1.7296  0.1463 -0.2083
  352MOL0     H47484   5.271   2.404  11.869  1.7074 -0.9371 -0.5234
  352MOL0     H47485   5.141   2.347  11.984 -2.8607 -1.4184 -1.6559
  352MOL0     H47486   5.171   2.140  11.937  2.4625 -1.5088 -0.5754
  352MOL0     H47487   5.187   2.168  11.763 -1.4513 -1.0962  0.2430
  352MOL0     H47488   5.427   2.246  11.807 -0.7183 -1.1141 -2.3632
  352MOL0     H47489   5.413   2.191  11.973  1.2139 -1.6762 -0.5526
  352MOL0     H47490   5.395   2.018  11.732 -2.8256  0.8935  0.1566
  352MOL0     H47491   5.363   1.969  11.900 -2.2748  0.1496 -0.9483
  352MOL0     H47492   5.595   2.052  11.959  1.0402 -2.2128  0.1961
  352MOL0     H47493   5.615   2.082  11.784 -1.4763 -1.4434 -2.0647
  352MOL0     H47494   5.568   1.824  11.911  3.7345  0.5456 -0.3847
  352MOL0     H47495   5.561   1.849  11.732  0.2492  1.4559 -2.0905
  352MOL0     H47496   5.793   1.907  11.721  0.8134  0.3828  0.4347
  352MOL0     H47497   5.765   1.750  11.791 -0.3877 -0.1745  0.2517
  352MOL0     H47498   5.826   1.850  12.027  1.4456 -0.3405  0.3589
  352MOL0     H47499   5.958   1.849  11.912 -0.5532 -2.9494  2.5192
  352MOL0     H47500   4.931   2.548  11.693  0.1964  0.9059  0.2775
  352MOL0     H47501   4.672   2.553  11.720 -1.4121 -0.5994  0.6745
  352MOL0     H47502   4.269   2.328  11.516 -0.7405  2.5535  0.5532
  352MOL0     H47503   4.016   2.301  11.567 -0.1573 -0.5336  0.7184
  352MOL0     H47504   2.538   2.108  10.781  0.8418 -0.7426  1.5028
  352MOL0     H47505   2.331   2.062  10.895  0.1825  0.3670 -1.5128
  352MOL0     H47506   1.995   2.353  11.114  0.6444  0.7345  1.6107
  352MOL0     H47507   1.750   2.341  11.174  0.6759  0.6373 -0.8869
  352MOL0     H47508   1.540   2.157  11.134  1.2990 -0.4362  0.1762
  352MOL0     H47509   1.553   2.283  11.259  0.6579 -0.2140  0.3517
  352MOL0     H47510   1.331   2.073  11.229 -1.8792  0.8270  0.1134
  352MOL0     H47511   1.326   2.236  11.289  0.0219 -0.8772  0.4808
  352MOL0     H47512   1.446   2.134  11.504 -1.7008  1.3268  0.9376
  352MOL0     H47513   1.405   1.976  11.426  3.9212  0.4486  0.9435
  352MOL0     H47514   1.184   2.182  11.443  3.1071  2.4008  0.4956
  352MOL0     H47515   1.161   1.998  11.445 -2.1506  0.2637  0.4648
  352MOL0     H47516   1.158   2.104  11.844  2.3208 -0.3804 -0.4801
  352MOL0     H47517   1.820   1.949  11.367  3.8788 -2.6140  1.1090
  352MOL0     H47518   2.026   1.849  11.322  0.2892  0.5361  1.2866
  352MOL0     H47519   2.137   1.896  11.193  2.7888 -1.2794  2.0312
  352MOL0     H47520   2.164   1.954  11.353  0.5953 -0.4823 -0.9172
  353MOL0     O47521   7.071   7.027  11.042 -0.4307  0.5394 -0.1950
  353MOL0     C47522   7.100   7.121  11.114 -0.6230 -0.4032 -0.6985
  353MOL0     O47523   7.025   7.173  11.213 -0.0168  0.9071 -0.6440
  353MOL0     C47524   6.895   7.130  11.246 -0.1054  0.8909  0.8890
  353MOL0     C47525   6.873   7.068  11.365 -0.1848 -0.6686 -0.6963
  353MOL0     C47526   6.749   7.012  11.384  0.1297  0.1290  0.9858
  353MOL0     C47527   6.644   7.023  11.293  0.0740 -0.7935 -0.4884
  353MOL0     O47528   6.524   6.976  11.336 -0.4935  0.1575  0.7749
  353MOL0     C47529   6.407   7.036  11.277 -0.2016  0.4863  0.8857
  353MOL0     C47530   6.406   7.191  11.292 -0.1017 -0.3978 -0.2119
  353MOL0     C47531   6.264   7.256  11.273 -0.5322 -0.0137  0.2285
  353MOL0     C47532   6.190   7.198  11.154  0.4198  0.3594 -0.9160
  353MOL0     C47533   6.074   7.289  11.101 -0.2745 -0.5397 -0.0512
  353MOL0     C47534   5.959   7.299  11.206 -0.1547  0.7545  0.9226
  353MOL0     C47535   5.848   7.375  11.133 -0.7214  0.0121  0.6567
  353MOL0     C47536   5.740   7.431  11.229  0.4824  0.0824 -0.0680
  353MOL0     N47537   5.682   7.330  11.311 -0.2256 -0.6975  0.1830
  353MOL0     C47538   5.644   7.204  11.254  0.3863 -0.3814 -0.4459
  353MOL0     C47539   5.596   7.140  11.359 -0.2895  0.4648  0.4052
  353MOL0     C47540   5.564   6.993  11.343  0.5930  0.5516 -0.0629
  353MOL0     C47541   5.437   6.973  11.426  0.0152  0.2012 -0.6754
  353MOL0     C47542   5.375   6.840  11.419 -0.2936  0.1843 -0.1637
  353MOL0     C47543   5.315   6.810  11.283 -0.0316  0.0872  0.4014
  353MOL0     O47544   5.274   6.668  11.269 -0.1278  0.6113  0.6972
  353MOL0     C47545   5.162   6.630  11.335 -0.7513 -0.6562  0.0371
  353MOL0     C47546   5.129   6.495  11.327 -0.0777 -0.1385 -0.6610
  353MOL0     C47547   5.004   6.445  11.381  0.2365 -0.3810 -0.4563
  353MOL0     C47548   4.920   6.543  11.435 -0.4063  0.8226  0.6433
  353MOL0     C47549   4.789   6.506  11.481  0.3136 -0.2329  0.4334
  353MOL0     O47550   4.761   6.370  11.498 -0.3809 -0.2297 -0.1924
  353MOL0     C47551   4.639   6.310  11.515  0.2598  0.6075 -0.1885
  353MOL0     C47552   4.510   6.371  11.518  0.3902  0.6633 -0.6077
  353MOL0     C47553   4.395   6.291  11.537  0.1835 -0.4971 -0.4606
  353MOL0     C47554   4.402   6.148  11.554 -0.1282 -0.9891 -0.2947
  353MOL0     O47555   4.289   6.091  11.584  0.5006  0.0899  0.4484
  353MOL0     C47556   4.264   5.953  11.583 -0.6384  0.2095  0.2381
  353MOL0     C47557   4.126   5.927  11.643  0.6580  0.1987  0.1917
  353MOL0     C47558   4.120   5.945  11.791 -0.4650  0.1980 -0.1859
  353MOL0     C47559   3.983   5.883  11.847  0.5538 -0.2328 -0.0932
  353MOL0     C47560   3.953   5.922  11.997 -0.5518 -0.8479 -0.3827
  353MOL0     C47561   3.914   6.066  12.006  0.0933  0.2717 -0.5120
  353MOL0     C47562   3.878   6.101  12.155 -0.0480 -0.0326  0.1196
  353MOL0     C47563   3.832   6.248  12.166 -0.0833 -0.6149 -0.3299
  353MOL0    Cl47564   3.956   6.354  12.091 -0.5064  0.0361 -0.2370
  353MOL0     C47565   4.534   6.088  11.545 -0.7835  0.2000  0.2752
  353MOL0     C47566   4.642   6.171  11.539  0.3774 -0.1188  1.2856
  353MOL0     O47567   4.702   6.591  11.485  0.0494  0.0014 -0.3742
  353MOL0     C47568   4.956   6.680  11.448  0.8888  1.0555 -0.5593
  353MOL0     C47569   5.076   6.716  11.396  0.2306 -1.5202 -0.5683
  353MOL0     N47570   5.607   7.219  11.476 -0.0612  0.1448 -0.1513
  353MOL0     N47571   5.654   7.330  11.443  0.2041  0.6537 -0.1719
  353MOL0     C47572   6.671   7.084  11.173  0.5588 -0.2744 -0.0091
  353MOL0     C47573   6.799   7.138  11.147 -0.3050  0.9394  0.8925
  353MOL0     C47574   7.233   7.175  11.104  0.0338 -0.7320  0.7836
  353MOL0     C47575   7.237   7.317  11.111  0.5391  0.2805 -0.3707
  353MOL0     C47576   7.359   7.390  11.101 -0.2773 -0.1978 -0.7012
  353MOL0     C47577   7.476   7.322  11.063  0.9745  0.3814  0.3125
  353MOL0     O47578   7.584   7.407  11.041 -0.3905  0.1595 -0.3192
  353MOL0     C47579   7.702   7.354  10.990 -0.7512 -0.1330 -0.4903
  353MOL0     C47580   7.682   7.297  10.842 -0.1456  0.6497  0.5760
  353MOL0     C47581   7.820   7.279  10.783 -0.0723 -0.4685  0.2613
  353MOL0     C47582   7.825   7.168  10.679  0.6380 -0.7951 -0.3186
  353MOL0     C47583   7.960   7.164  10.614 -0.4413  0.0459  0.3593
  353MOL0     C47584   8.079   7.159  10.576  1.1213  1.2377  0.7581
  353MOL0     C47585   7.468   7.183  11.050 -0.0832  0.9065  0.5944
  353MOL0     C47586   7.354   7.105  11.084 -0.0035 -0.0644  1.0195
  353MOL0     C47587   7.354   6.963  11.071  0.5130  0.4827  0.0193
  353MOL0     H47588   6.952   7.073  11.440  0.4564  0.1077 -1.4000
  353MOL0     H47589   6.726   6.965  11.479 -0.4903 -0.8377  0.3768
  353MOL0     H47590   6.392   7.002  11.174  0.3240  0.9876  0.6376
  353MOL0     H47591   6.334   6.988  11.342 -0.2872 -2.3834 -1.1613
  353MOL0     H47592   6.466   7.240  11.215  0.1378 -0.2677  0.0596
  353MOL0     H47593   6.441   7.217  11.392 -3.0507  2.6384  0.2453
  353MOL0     H47594   6.272   7.362  11.248  3.3878 -0.3246 -0.5406
  353MOL0     H47595   6.216   7.240  11.370 -3.0018 -3.4618 -1.3438
  353MOL0     H47596   6.259   7.210  11.070 -0.8434  0.5089 -1.9640
  353MOL0     H47597   6.163   7.092  11.157  3.2317 -0.4173  0.3846
  353MOL0     H47598   6.120   7.388  11.089 -0.1283 -0.7709 -1.6408
  353MOL0     H47599   6.047   7.248  11.003 -0.3395 -0.8871  0.1111
  353MOL0     H47600   5.922   7.197  11.214  1.9719 -0.3874 -1.8520
  353MOL0     H47601   5.992   7.338  11.303 -1.3389 -2.9004  2.9687
  353MOL0     H47602   5.798   7.310  11.060 -0.5777 -0.8025  1.2653
  353MOL0     H47603   5.887   7.457  11.072 -2.1668 -0.4591 -0.9877
  353MOL0     H47604   5.795   7.484  11.306  4.8713  0.2650 -2.9633
  353MOL0     H47605   5.664   7.495  11.185 -0.0147  1.2019  2.2688
  353MOL0     H47606   5.661   7.170  11.153  1.0540 -0.1784 -0.4104
  353MOL0     H47607   5.547   6.981  11.236  2.1191  3.3882 -0.7018
  353MOL0     H47608   5.650   6.934  11.377  0.2081 -0.1769 -0.3340
  353MOL0     H47609   5.469   6.994  11.529 -0.7637  4.0431 -1.0728
  353MOL0     H47610   5.362   7.047  11.397 -2.3851 -1.4952  0.7786
  353MOL0     H47611   5.296   6.834  11.494  0.8657 -0.7046  1.0355
  353MOL0     H47612   5.448   6.761  11.438 -1.8197 -1.3962 -0.5400
  353MOL0     H47613   5.383   6.828  11.199 -0.3200  0.5361  0.2608
  353MOL0     H47614   5.228   6.874  11.269 -1.5483 -1.8391  0.6103
  353MOL0     H47615   5.205   6.434  11.281  0.4741 -1.0395  1.3125
  353MOL0     H47616   4.977   6.342  11.359  1.3560 -0.5395 -1.1969
  353MOL0     H47617   4.488   6.475  11.496 -0.4569  0.3890 -1.1248
  353MOL0     H47618   4.299   6.338  11.516  1.4413  0.8736 -3.6933
  353MOL0     H47619   4.253   5.930  11.476 -0.4845  1.3743 -0.0334
  353MOL0     H47620   4.340   5.890  11.631 -0.3358  0.5879  0.2587
  353MOL0     H47621   4.061   5.999  11.593 -2.2305 -0.6699  2.4444
  353MOL0     H47622   4.088   5.827  11.621 -1.2991  1.0384 -0.4031
  353MOL0     H47623   4.202   5.894  11.842 -1.9420 -1.5616  0.5318
  353MOL0     H47624   4.120   6.053  11.808  0.5926  0.0125  1.1900
  353MOL0     H47625   3.972   5.774  11.841  0.4682 -0.3214  1.3602
  353MOL0     H47626   3.898   5.926  11.792  0.1584  0.6535  1.1907
  353MOL0     H47627   4.043   5.908  12.058 -1.4936 -3.8911  0.4792
  353MOL0     H47628   3.881   5.857  12.046 -2.2230  1.3920  0.3052
  353MOL0     H47629   3.996   6.129  11.971  1.6681 -0.9562  0.7638
  353MOL0     H47630   3.828   6.080  11.940 -1.1834 -2.2746  0.4473
  353MOL0     H47631   3.973   6.088  12.208  1.2110 -2.0140 -2.3689
  353MOL0     H47632   3.802   6.029  12.185  1.6356 -1.7541  0.4045
  353MOL0     H47633   3.748   6.269  12.100  0.1563  1.3780 -0.0685
  353MOL0     H47634   3.818   6.266  12.273  3.3896  0.4906  0.0694
  353MOL0     H47635   4.540   5.979  11.540 -1.8390  0.1770 -3.0307
  353MOL0     H47636   4.738   6.119  11.535  0.3074 -0.3021  1.7858
  353MOL0     H47637   4.886   6.745  11.500 -0.5978 -1.8831  1.3979
  353MOL0     H47638   5.105   6.820  11.406 -0.1708 -1.5254  0.8599
  353MOL0     H47639   6.593   7.092  11.098  1.6618 -2.6673 -1.5175
  353MOL0     H47640   6.813   7.191  11.053 -1.1289 -0.5498 -0.1068
  353MOL0     H47641   7.149   7.377  11.134  0.8337  0.5225  0.1460
  353MOL0     H47642   7.368   7.498  11.113  0.2554  0.0341 -2.8648
  353MOL0     H47643   7.734   7.275  11.060 -0.1302  0.4188 -0.1367
  353MOL0     H47644   7.774   7.436  10.981 -0.8431  0.0603  0.4258
  353MOL0     H47645   7.621   7.354  10.771  0.3391  1.2546  0.6390
  353MOL0     H47646   7.624   7.205  10.845  1.9673 -0.8403 -0.9622
  353MOL0     H47647   7.889   7.238  10.857  1.5523 -0.4912 -1.1859
  353MOL0     H47648   7.857   7.373  10.741  1.3091 -2.2905 -2.9266
  353MOL0     H47649   7.809   7.075  10.735 -0.7637 -1.0006 -1.0004
  353MOL0     H47650   7.760   7.186  10.593  3.0063 -0.0609 -2.0513
  353MOL0     H47651   8.170   7.151  10.520 -1.5754 -1.6095 -3.9326
  353MOL0     H47652   7.553   7.121  11.023 -0.3225  0.5528  0.6487
  353MOL0     H47653   7.451   6.917  11.089 -0.4630 -2.4431 -1.5291
  353MOL0     H47654   7.287   6.923  11.148 -0.5568  2.5929  0.2733
  353MOL0     H47655   7.328   6.929  10.971 -0.6168  0.0745  0.4374
  354MOL0     O47656   2.274   7.521  10.569 -0.2525 -0.0410 -0.1444
  354MOL0     C47657   2.264   7.491  10.689  1.1234 -0.1221  0.2281
  354MOL0     O47658   2.321   7.558  10.794 -0.7783 -0.4111 -1.2348
  354MOL0     C47659   2.385   7.677  10.762  0.1374  0.0330  0.3279
  354MOL0     C47660   2.331   7.790  10.700  0.2015 -0.2016  0.1155
  354MOL0     C47661   2.401   7.908  10.696  0.1067 -0.7249  0.5366
  354MOL0     C47662   2.528   7.920  10.758  0.0638 -1.1120 -0.3413
  354MOL0     O47663   2.600   8.037  10.752 -0.0629 -0.1280 -0.4060
  354MOL0     C47664   2.725   8.015  10.703 -0.8269 -0.3959  0.9197
  354MOL0     C47665   2.768   8.133  10.614  0.8052 -0.9526 -0.4277
  354MOL0     C47666   2.886   8.099  10.530 -0.6644 -0.4938 -0.3640
  354MOL0     C47667   2.960   8.219  10.478 -0.1291 -0.1878  0.3756
  354MOL0     C47668   3.100   8.194  10.412 -0.1924 -0.1071  0.3248
  354MOL0     C47669   3.189   8.086  10.471  0.0596  0.4898  0.1670
  354MOL0     C47670   3.332   8.100  10.416  0.6129  0.6646  0.8065
  354MOL0     C47671   3.425   8.195  10.491  0.9758 -0.8253  0.4226
  354MOL0     N47672   3.556   8.200  10.436 -0.0068  0.1505 -0.0634
  354MOL0     C47673   3.668   8.138  10.496  0.9279  0.1910  0.9217
  354MOL0     C47674   3.764   8.172  10.398  0.7505 -0.3187 -0.7836
  354MOL0     C47675   3.908   8.130  10.401  0.3699 -0.0998 -0.3018
  354MOL0     C47676   3.992   8.234  10.471  0.8572  0.1026 -0.3248
  354MOL0     C47677   4.137   8.191  10.458  0.6833 -0.3206  0.5696
  354MOL0     C47678   4.227   8.288  10.534 -0.7094  0.8905  0.6878
  354MOL0     O47679   4.362   8.263  10.490  0.9855  0.3334  0.0489
  354MOL0     C47680   4.452   8.312  10.581 -0.7270  0.8040 -1.1748
  354MOL0     C47681   4.585   8.299  10.526  0.4715  0.1269 -0.5959
  354MOL0     C47682   4.701   8.335  10.606  1.1930 -0.1780 -0.3539
  354MOL0     C47683   4.680   8.386  10.739 -0.2752 -0.4287  0.4964
  354MOL0     C47684   4.794   8.443  10.819  0.1530  0.9833  0.7256
  354MOL0     O47685   4.783   8.429  10.957  0.0035  0.2688  0.0631
  354MOL0     C47686   4.897   8.469  11.025  0.8575  0.0789 -0.0073
  354MOL0     C47687   5.003   8.375  11.029  0.5048 -0.1879 -0.0382
  354MOL0     C47688   5.128   8.411  11.082  0.7478 -0.0386  0.3511
  354MOL0     C47689   5.137   8.534  11.148 -1.2035 -0.6691 -0.1476
  354MOL0     O47690   5.267   8.563  11.183 -0.3714  0.1936  0.0999
  354MOL0     C47691   5.285   8.595  11.316  0.4630  0.5087 -0.0071
  354MOL0     C47692   5.433   8.567  11.352  0.3080 -0.0689 -0.4019
  354MOL0     C47693   5.475   8.427  11.330 -0.2685 -0.4631 -0.3967
  354MOL0     C47694   5.617   8.399  11.373 -0.1895 -0.8589 -0.7287
  354MOL0     C47695   5.654   8.251  11.375 -0.7378 -1.0139  0.4760
  354MOL0     C47696   5.605   8.178  11.244 -0.1301  0.0053 -0.2746
  354MOL0     C47697   5.636   8.029  11.263  0.7628  0.2440 -0.2119
  354MOL0     C47698   5.571   7.952  11.145 -0.5177  0.6999  0.3501
  354MOL0    Cl47699   5.623   7.777  11.140 -0.2424 -0.1966 -0.1570
  354MOL0     C47700   5.037   8.635  11.147  0.5996  0.7796 -0.6462
  354MOL0     C47701   4.913   8.592  11.093  0.3358 -0.6008  0.6562
  354MOL0     O47702   4.865   8.515  10.756  0.2747  0.1952  0.0207
  354MOL0     C47703   4.549   8.404  10.785  0.0644  0.9497  0.9622
  354MOL0     C47704   4.437   8.368  10.707  0.0901  0.3307  0.0433
  354MOL0     N47705   3.710   8.257  10.303 -0.1658 -0.5219  0.7648
  354MOL0     N47706   3.583   8.268  10.321 -0.3364 -0.2273  0.4529
  354MOL0     C47707   2.570   7.819  10.844  0.1970 -0.0182  0.4142
  354MOL0     C47708   2.503   7.699  10.829  0.4454 -0.1359 -0.3198
  354MOL0     C47709   2.186   7.366  10.730 -0.0988 -0.0459  0.2778
  354MOL0     C47710   2.107   7.310  10.630  0.4418  0.0806 -0.0250
  354MOL0     C47711   2.028   7.200  10.658 -0.3322  0.6210 -0.1141
  354MOL0     C47712   2.021   7.135  10.777 -0.2415 -0.7196 -0.0833
  354MOL0     O47713   1.943   7.036  10.808  0.2973 -0.3076 -0.5618
  354MOL0     C47714   1.807   7.061  10.825 -0.5861 -0.6063  0.8828
  354MOL0     C47715   1.737   6.930  10.872  0.6316 -0.0366  0.1402
  354MOL0     C47716   1.597   6.937  10.917  0.7923 -0.3253  0.5642
  354MOL0     C47717   1.594   7.023  11.044 -0.0863 -0.2944  1.0232
  354MOL0     C47718   1.461   7.006  11.112  0.2620 -0.1409 -0.1340
  354MOL0     C47719   1.349   6.998  11.169  0.8864 -0.6158  0.2037
  354MOL0     C47720   2.100   7.195  10.876  0.2923  0.5294  0.2613
  354MOL0     C47721   2.175   7.311  10.867  0.0413 -0.9982  0.3613
  354MOL0     C47722   2.263   7.359  10.985 -0.3547  0.0459 -1.0092
  354MOL0     H47723   2.232   7.780  10.655  0.5775 -0.0826 -0.7635
  354MOL0     H47724   2.359   7.995  10.648  2.7824  1.0613  1.1879
  354MOL0     H47725   2.801   8.005  10.781  1.1337 -3.7116 -1.1597
  354MOL0     H47726   2.718   7.929  10.636  0.6442  0.0140  0.1810
  354MOL0     H47727   2.791   8.220  10.676 -3.2800  1.3856 -1.8476
  354MOL0     H47728   2.684   8.163  10.551  1.4952  1.7511 -0.1791
  354MOL0     H47729   2.859   8.031  10.448 -2.9609 -1.8906  1.4364
  354MOL0     H47730   2.959   8.044  10.590  2.0018  0.3711 -2.5738
  354MOL0     H47731   2.894   8.260  10.401  0.2450 -2.5553 -1.3315
  354MOL0     H47732   2.972   8.276  10.571 -3.6012  0.8759  0.3023
  354MOL0     H47733   3.085   8.169  10.306 -1.3733  0.8710  0.2347
  354MOL0     H47734   3.159   8.286  10.411 -0.5198  0.1583 -2.2033
  354MOL0     H47735   3.194   8.080  10.580 -2.1810  0.0417  0.2990
  354MOL0     H47736   3.145   7.989  10.442 -1.0256  1.1530 -0.4769
  354MOL0     H47737   3.313   8.129  10.312 -1.2738 -2.3439  0.1722
  354MOL0     H47738   3.374   8.000  10.403  0.4818  0.5404  1.3208
  354MOL0     H47739   3.372   8.290  10.487 -0.3171 -1.5416 -2.9688
  354MOL0     H47740   3.426   8.166  10.597 -0.1530  1.4854  1.1149
  354MOL0     H47741   3.658   8.085  10.590 -2.6564 -0.6284  0.2052
  354MOL0     H47742   3.913   8.036  10.458 -1.1131  1.4256  2.5705
  354MOL0     H47743   3.949   8.124  10.300  1.5000 -2.4728  0.2266
  354MOL0     H47744   3.990   8.333  10.425  0.8803  0.8874  1.2761
  354MOL0     H47745   3.954   8.233  10.574  0.0489 -3.5136 -0.5137
  354MOL0     H47746   4.160   8.194  10.351  0.5899 -2.0742  0.4811
  354MOL0     H47747   4.138   8.086  10.488 -1.5135 -1.3096 -2.2963
  354MOL0     H47748   4.216   8.265  10.640 -1.4114 -0.1400  0.4007
  354MOL0     H47749   4.207   8.393  10.510  0.7437  1.3216  1.2554
  354MOL0     H47750   4.608   8.282  10.421  2.9317  0.5034 -0.1957
  354MOL0     H47751   4.800   8.331  10.561  1.8759 -0.3159  1.1143
  354MOL0     H47752   4.987   8.278  10.984 -1.0859 -0.0265  0.1502
  354MOL0     H47753   5.217   8.350  11.090  0.8993  0.2401  0.8175
  354MOL0     H47754   5.257   8.700  11.329 -0.6732  0.2757 -0.4303
  354MOL0     H47755   5.228   8.530  11.383  3.5423 -0.3447  1.9771
  354MOL0     H47756   5.502   8.630  11.295  1.7069  0.8309  2.0821
  354MOL0     H47757   5.449   8.592  11.458  1.3140  0.6921 -0.7094
  354MOL0     H47758   5.401   8.361  11.376 -1.4648  2.9905  3.1562
  354MOL0     H47759   5.471   8.425  11.220 -0.3226  1.5305 -0.4736
  354MOL0     H47760   5.632   8.430  11.477  0.5630  2.3119 -1.6707
  354MOL0     H47761   5.684   8.455  11.308  0.7027 -1.6970 -0.5587
  354MOL0     H47762   5.611   8.202  11.463  1.9589 -1.0191  1.8810
  354MOL0     H47763   5.760   8.242  11.398 -0.9043 -0.5542  1.4798
  354MOL0     H47764   5.497   8.188  11.227 -0.6952 -0.8268  2.3800
  354MOL0     H47765   5.665   8.213  11.159  0.9482  1.1995  0.9337
  354MOL0     H47766   5.612   7.998  11.365 -0.7853 -1.3057 -1.0060
  354MOL0     H47767   5.745   8.018  11.262  0.8087  0.4686  0.8057
  354MOL0     H47768   5.463   7.953  11.164 -0.4499 -1.4320  1.1230
  354MOL0     H47769   5.594   7.999  11.049 -3.4552  2.5510  0.4009
  354MOL0     H47770   5.043   8.740  11.176 -1.3244  0.2767  1.9321
  354MOL0     H47771   4.830   8.662  11.096  3.0199  2.7576  1.2096
  354MOL0     H47772   4.530   8.435  10.887  0.8643  0.1117  1.3776
  354MOL0     H47773   4.338   8.388  10.746 -0.2963 -1.2263 -0.0404
  354MOL0     H47774   2.647   7.831  10.919  0.5868  1.9671 -0.2507
  354MOL0     H47775   2.547   7.615  10.882 -0.7370 -0.0591  0.8312
  354MOL0     H47776   2.097   7.356  10.532 -0.5821  1.2005  0.5796
  354MOL0     H47777   1.967   7.168  10.574 -0.9938  1.5614 -0.0166
  354MOL0     H47778   1.770   7.096  10.728 -0.2570  1.0376  1.3071
  354MOL0     H47779   1.803   7.149  10.891  2.2691  2.9946 -3.1775
  354MOL0     H47780   1.792   6.880  10.952  1.2414  0.5844  0.1135
  354MOL0     H47781   1.736   6.866  10.783 -2.3127 -5.1585  3.3423
  354MOL0     H47782   1.572   6.837  10.953  0.1110 -0.2894  0.2081
  354MOL0     H47783   1.525   6.963  10.839  0.7517 -0.6828  0.4814
  354MOL0     H47784   1.673   6.982  11.108  0.9375 -2.8574 -1.6496
  354MOL0     H47785   1.609   7.130  11.025 -2.5785  0.0075  0.4523
  354MOL0     H47786   1.258   6.972  11.219 -1.2844  3.6608 -1.0709
  354MOL0     H47787   2.084   7.138  10.967  0.2188  0.9314  0.5030
  354MOL0     H47788   2.242   7.460  11.023  0.2682 -0.4467  0.7591
  354MOL0     H47789   2.246   7.304  11.078  0.0370 -0.2991 -1.1388
  354MOL0     H47790   2.369   7.341  10.964  0.1059  1.5655 -0.2117
  355MOL0     O47791   5.306   6.730   8.569  0.7170 -0.0906 -0.5678
  355MOL0     C47792   5.285   6.618   8.537 -0.5361  0.1152 -0.5884
  355MOL0     O47793   5.388   6.537   8.495 -0.5248  0.0541 -0.3310
  355MOL0     C47794   5.518   6.567   8.540  0.9059 -0.1293 -0.3168
  355MOL0     C47795   5.597   6.631   8.442 -0.7285 -1.0077 -0.1741
  355MOL0     C47796   5.729   6.653   8.479  0.4275 -0.8483  0.0327
  355MOL0     C47797   5.779   6.632   8.613  0.0431  0.0152 -0.1568
  355MOL0     O47798   5.899   6.679   8.666  0.1297  0.6490 -0.7757
  355MOL0     C47799   6.000   6.721   8.572 -0.5262 -0.3465 -0.3281
  355MOL0     C47800   6.131   6.768   8.645 -0.0529  0.3888  0.5204
  355MOL0     C47801   6.232   6.811   8.547  0.6612 -0.3907  0.3666
  355MOL0     C47802   6.357   6.874   8.597 -0.1242  0.5457 -0.2942
  355MOL0     C47803   6.442   6.909   8.479 -0.2227  0.8929  0.6707
  355MOL0     C47804   6.568   6.965   8.536 -0.3927  0.0618  0.2599
  355MOL0     C47805   6.646   7.040   8.418 -0.2369 -0.3778 -0.9076
  355MOL0     C47806   6.771   7.106   8.476  0.0215 -0.1662 -0.1113
  355MOL0     N47807   6.856   7.182   8.384  0.6745 -0.5777 -0.0202
  355MOL0     C47808   6.931   7.125   8.282 -0.3120 -0.3280  0.3939
  355MOL0     C47809   6.966   7.226   8.195 -0.6500  0.2653  0.5085
  355MOL0     C47810   7.066   7.233   8.070 -0.0106  0.5486  0.1727
  355MOL0     C47811   7.191   7.148   8.096  0.2303 -1.4939 -0.2398
  355MOL0     C47812   7.299   7.159   7.993  0.1302 -0.1439  0.6488
  355MOL0     C47813   7.408   7.057   8.035  0.9819 -0.2004 -0.2435
  355MOL0     O47814   7.453   7.106   8.167  0.0879  0.2042  0.0899
  355MOL0     C47815   7.591   7.101   8.189 -0.0799 -1.1909  0.0920
  355MOL0     C47816   7.701   7.069   8.111 -0.5648 -0.2934 -0.1299
  355MOL0     C47817   7.827   7.062   8.170  0.3997  0.4538 -0.1765
  355MOL0     C47818   7.862   7.118   8.295  0.6945  0.3937 -0.1855
  355MOL0     C47819   8.009   7.136   8.336  0.5245 -0.8565 -0.6758
  355MOL0     O47820   8.106   7.119   8.235  0.6145 -0.5178  0.5396
  355MOL0     C47821   8.243   7.118   8.261  0.0121 -1.2134 -0.7486
  355MOL0     C47822   8.307   7.070   8.371 -0.3254 -0.1218 -0.2508
  355MOL0     C47823   8.451   7.079   8.385 -0.6087  0.4274  0.1206
  355MOL0     C47824   8.516   7.154   8.288  0.3487 -0.5948 -0.2384
  355MOL0     O47825   8.654   7.174   8.304  0.1293 -0.3010 -0.2886
  355MOL0     C47826   8.722   7.070   8.240 -0.3932  0.1350 -0.2369
  355MOL0     C47827   8.809   6.980   8.327 -0.2878 -0.4258 -0.4975
  355MOL0     C47828   8.925   7.052   8.392  0.2389  0.6181  0.3023
  355MOL0     C47829   9.047   6.966   8.394  0.0678 -0.6882 -0.2807
  355MOL0     C47830   9.174   7.050   8.441  0.2328 -0.0854  0.3467
  355MOL0     C47831   9.292   6.956   8.442 -0.2524  0.6865  0.2696
  355MOL0     C47832   9.418   7.025   8.492 -0.8755 -0.1070 -0.0396
  355MOL0     C47833   9.534   6.951   8.435 -0.2356 -0.6527 -0.1509
  355MOL0    Cl47834   9.688   7.034   8.423  0.8485  0.0817  0.4981
  355MOL0     C47835   8.454   7.201   8.179 -0.1040  0.3587  0.7755
  355MOL0     C47836   8.313   7.197   8.170  0.2300  0.3935  0.7810
  355MOL0     O47837   8.027   7.176   8.450  0.1172 -0.5314 -0.0293
  355MOL0     C47838   7.755   7.163   8.370  0.3395  0.5766  0.8568
  355MOL0     C47839   7.624   7.138   8.320  0.4294 -0.7744 -0.5829
  355MOL0     N47840   6.914   7.340   8.250  0.0698 -0.6447 -0.0115
  355MOL0     N47841   6.848   7.318   8.355 -0.4405 -0.3725  0.0554
  355MOL0     C47842   5.695   6.571   8.708 -0.1544 -0.5867  1.0164
  355MOL0     C47843   5.568   6.534   8.669 -0.0377 -0.8496  0.1050
  355MOL0     C47844   5.156   6.561   8.573  0.0190 -0.2242 -0.1384
  355MOL0     C47845   5.044   6.641   8.605 -0.1945 -0.2857 -0.6727
  355MOL0     C47846   4.920   6.594   8.651 -0.4381  0.3458 -0.6872
  355MOL0     C47847   4.895   6.460   8.655  0.0967  0.5678 -0.5705
  355MOL0     O47848   4.765   6.419   8.687 -0.2644  0.1880  0.4182
  355MOL0     C47849   4.717   6.285   8.676  0.6076 -0.6671 -0.0382
  355MOL0     C47850   4.684   6.231   8.817  0.0331  0.3624  0.3391
  355MOL0     C47851   4.548   6.293   8.872 -0.0319  0.9062 -0.3625
  355MOL0     C47852   4.515   6.262   9.026  0.1750 -0.0522 -0.6988
  355MOL0     C47853   4.381   6.300   9.063  0.2254  0.3130 -0.4919
  355MOL0     C47854   4.264   6.334   9.079  0.9782 -0.5918 -0.0609
  355MOL0     C47855   5.007   6.376   8.615 -0.1649  0.1555  0.1235
  355MOL0     C47856   5.140   6.424   8.577  0.2298 -0.7661  0.3009
  355MOL0     C47857   5.245   6.313   8.564  0.4202 -0.4828  0.5347
  355MOL0     H47858   5.553   6.667   8.350 -3.8673 -0.3876  1.4376
  355MOL0     H47859   5.793   6.703   8.406  0.6208  1.4399  1.6757
  355MOL0     H47860   6.012   6.636   8.504  0.2624  0.3015 -1.0071
  355MOL0     H47861   5.961   6.803   8.512 -0.0590 -1.2472 -1.9182
  355MOL0     H47862   6.179   6.683   8.696 -1.4703  0.1333  1.4870
  355MOL0     H47863   6.113   6.840   8.726  5.1735  1.2243  1.3210
  355MOL0     H47864   6.173   6.881   8.487 -2.3696 -2.3994  0.7859
  355MOL0     H47865   6.252   6.729   8.477 -0.8738  0.8752 -1.6913
  355MOL0     H47866   6.330   6.969   8.644  0.2666  1.4778 -1.8924
  355MOL0     H47867   6.417   6.801   8.653 -2.6861 -1.2359  0.3071
  355MOL0     H47868   6.476   6.819   8.427  0.0315  2.3823 -1.9265
  355MOL0     H47869   6.400   6.980   8.408  4.3323  2.1043 -1.1552
  355MOL0     H47870   6.544   7.032   8.620 -1.6508  1.0759 -0.8547
  355MOL0     H47871   6.641   6.896   8.579  1.0296  0.7598 -0.9400
  355MOL0     H47872   6.590   7.121   8.372  2.9475  0.8911 -2.9032
  355MOL0     H47873   6.681   6.973   8.339 -3.3573 -0.5538 -2.2848
  355MOL0     H47874   6.751   7.186   8.548 -1.4730 -1.5230  1.0411
  355MOL0     H47875   6.832   7.032   8.529  3.2734  0.9478 -2.0039
  355MOL0     H47876   6.969   7.024   8.275 -1.1718 -0.5692 -1.2684
  355MOL0     H47877   7.005   7.187   7.992  0.1506 -1.0858  0.9543
  355MOL0     H47878   7.080   7.336   8.037 -1.8859 -0.2679 -3.7281
  355MOL0     H47879   7.229   7.187   8.191 -1.7261 -1.8623  0.7523
  355MOL0     H47880   7.167   7.044   8.119 -0.0470 -1.6352 -1.1537
  355MOL0     H47881   7.337   7.261   7.983 -2.1443  0.8590  1.5472
  355MOL0     H47882   7.265   7.139   7.891 -0.8340  0.9600  0.7408
  355MOL0     H47883   7.489   7.040   7.964 -0.2978 -3.3442 -1.0805
  355MOL0     H47884   7.359   6.961   8.049  0.8435 -0.0694  0.1920
  355MOL0     H47885   7.704   7.043   8.005  1.6240  0.9496 -0.4335
  355MOL0     H47886   7.913   7.018   8.120  0.8438  0.5714  0.4781
  355MOL0     H47887   8.247   7.015   8.444 -2.5361  0.7775 -1.3041
  355MOL0     H47888   8.508   7.049   8.473  1.3026  0.0770 -1.1864
  355MOL0     H47889   8.657   7.000   8.187 -1.2487  1.1934 -0.6125
  355MOL0     H47890   8.784   7.119   8.164  0.1907  0.0492  0.1769
  355MOL0     H47891   8.742   6.936   8.401  1.1402  1.5158  2.0910
  355MOL0     H47892   8.843   6.895   8.266 -2.9139 -0.3293 -2.2806
  355MOL0     H47893   8.947   7.148   8.344 -1.7799  0.7236 -0.4809
  355MOL0     H47894   8.888   7.086   8.489  0.7255  1.7696  0.1074
  355MOL0     H47895   9.058   6.925   8.294 -0.3174  1.9139 -1.4731
  355MOL0     H47896   9.035   6.885   8.467  2.6811 -0.3038  0.7094
  355MOL0     H47897   9.175   7.089   8.543  0.6377  2.3007 -0.5043
  355MOL0     H47898   9.199   7.139   8.384  0.9106 -1.0312 -0.8778
  355MOL0     H47899   9.271   6.866   8.501 -2.3721 -0.7526 -2.4500
  355MOL0     H47900   9.306   6.915   8.341 -0.3204 -3.3884  1.7020
  355MOL0     H47901   9.422   7.030   8.602 -1.3687  1.4342 -0.0756
  355MOL0     H47902   9.413   7.124   8.447 -0.4262  0.2357  0.6400
  355MOL0     H47903   9.548   6.857   8.491 -0.5324 -1.9064 -2.0920
  355MOL0     H47904   9.513   6.911   8.336  2.2221 -0.7806 -0.6856
  355MOL0     H47905   8.519   7.249   8.106  1.1287 -2.9648 -0.4719
  355MOL0     H47906   8.263   7.245   8.086  0.8561  1.3028  0.9119
  355MOL0     H47907   7.771   7.210   8.466 -0.3438  2.6305  0.0152
  355MOL0     H47908   7.539   7.153   8.385  0.5098 -1.3548 -0.3408
  355MOL0     H47909   5.736   6.531   8.800  2.8729 -2.2044 -0.8672
  355MOL0     H47910   5.502   6.475   8.732 -0.8360 -2.6545 -2.2393
  355MOL0     H47911   5.064   6.747   8.604  2.2551 -0.6571  0.5517
  355MOL0     H47912   4.847   6.667   8.683  1.5897  1.8516  0.7573
  355MOL0     H47913   4.786   6.210   8.637 -1.3691 -3.2670  1.1703
  355MOL0     H47914   4.634   6.277   8.606  2.4470  0.2853 -2.4960
  355MOL0     H47915   4.767   6.241   8.888  0.3241 -1.8225  0.3559
  355MOL0     H47916   4.667   6.125   8.799  1.1191  0.4914 -1.6967
  355MOL0     H47917   4.464   6.257   8.813  0.7889 -0.1080 -0.9556
  355MOL0     H47918   4.541   6.401   8.857 -2.1927  0.6231 -1.8556
  355MOL0     H47919   4.519   6.154   9.039 -2.8825 -0.1433  0.2269
  355MOL0     H47920   4.598   6.294   9.089 -1.1669  0.8976  0.6497
  355MOL0     H47921   4.161   6.362   9.090  0.9886 -0.9154  1.0649
  355MOL0     H47922   4.978   6.271   8.623 -1.6974  0.1110 -3.7607
  355MOL0     H47923   5.313   6.320   8.478 -0.4077 -1.2512 -0.1892
  355MOL0     H47924   5.309   6.316   8.653  1.3483 -2.9415  0.0298
  355MOL0     H47925   5.196   6.216   8.554 -0.7596  0.1967 -0.6529
  356MOL0     O47926   2.615   6.816   4.884 -0.8853  0.3933 -0.3157
  356MOL0     C47927   2.590   6.929   4.842 -0.3286  0.0258  0.1139
  356MOL0     O47928   2.674   6.994   4.760 -0.2224 -0.1784 -0.2353
  356MOL0     C47929   2.801   6.938   4.745 -0.0509  0.0530  0.1470
  356MOL0     C47930   2.905   6.995   4.819 -0.0707  0.7888 -0.7100
  356MOL0     C47931   3.029   6.936   4.812 -0.1762  0.0576  0.9567
  356MOL0     C47932   3.059   6.824   4.736 -0.6394 -0.2936  0.2939
  356MOL0     O47933   3.182   6.768   4.728 -0.6358 -0.0007  0.0086
  356MOL0     C47934   3.222   6.696   4.611  1.0184 -0.3301  1.7756
  356MOL0     C47935   3.371   6.696   4.588  0.3343  0.1422  0.4133
  356MOL0     C47936   3.423   6.607   4.709  0.5504 -0.1655  1.0209
  356MOL0     C47937   3.564   6.549   4.670  0.4646 -0.9005 -0.6568
  356MOL0     C47938   3.631   6.481   4.789 -1.3161  0.9148  0.2392
  356MOL0     C47939   3.540   6.373   4.838 -0.5247  0.3173 -1.4846
  356MOL0     C47940   3.620   6.273   4.932  0.0428  0.4685  0.3733
  356MOL0     C47941   3.662   6.317   5.064  0.8998 -0.5801 -0.0572
  356MOL0     N47942   3.725   6.200   5.147  0.1543  0.1275 -0.1215
  356MOL0     C47943   3.661   6.083   5.174  0.2836  0.7474 -0.7354
  356MOL0     C47944   3.764   5.990   5.200 -0.4481 -0.9225 -0.5375
  356MOL0     C47945   3.749   5.856   5.259  0.7794 -0.0673  0.3701
  356MOL0     C47946   3.806   5.758   5.161 -0.3912 -0.8526 -0.6008
  356MOL0     C47947   3.807   5.617   5.208  0.1275 -0.0971 -0.2049
  356MOL0     C47948   3.782   5.527   5.078  0.3095 -0.3056 -1.0443
  356MOL0     O47949   3.651   5.523   5.026  0.0747 -0.0918 -0.0664
  356MOL0     C47950   3.627   5.426   4.926 -1.1309 -0.7343 -0.0510
  356MOL0     C47951   3.502   5.434   4.867  1.3999  1.0582 -0.6417
  356MOL0     C47952   3.450   5.345   4.764 -1.0270 -0.2055 -0.4087
  356MOL0     C47953   3.542   5.248   4.718  0.7343 -0.1153  0.7136
  356MOL0     C47954   3.501   5.152   4.610 -0.2599 -0.1828  0.7331
  356MOL0     O47955   3.368   5.130   4.592  0.2355  0.1438  0.4295
  356MOL0     C47956   3.318   5.056   4.485  0.1667  0.3522 -1.2333
  356MOL0     C47957   3.363   4.927   4.440  1.0048  0.3893  0.6482
  356MOL0     C47958   3.292   4.859   4.342 -0.2443 -1.3449  0.0490
  356MOL0     C47959   3.178   4.912   4.290  0.5109 -0.4027  0.0884
  356MOL0     O47960   3.108   4.837   4.198 -0.1611 -0.5776  0.3574
  356MOL0     C47961   3.134   4.691   4.166 -0.2796  0.6746 -0.8494
  356MOL0     C47962   3.024   4.643   4.071  1.2097  0.8467  0.7456
  356MOL0     C47963   3.020   4.486   4.032 -0.2390  0.0169  0.9891
  356MOL0     C47964   2.977   4.406   4.153 -0.1887 -0.2278 -0.2844
  356MOL0     C47965   3.051   4.262   4.155 -0.2040  0.5485 -1.1001
  356MOL0     C47966   3.000   4.172   4.051 -0.3538  0.9409  0.0645
  356MOL0     C47967   3.023   4.019   4.059  0.4320 -0.7949  0.8744
  356MOL0     C47968   2.900   3.954   4.121 -1.1816 -0.5399 -0.9398
  356MOL0    Cl47969   2.940   3.781   4.110 -0.0877  0.1581  0.0686
  356MOL0     C47970   3.130   5.034   4.335  0.0156 -0.1274  0.4005
  356MOL0     C47971   3.203   5.105   4.428  1.1725 -0.2087  0.4338
  356MOL0     O47972   3.593   5.096   4.550  0.5122 -0.3747  0.0155
  356MOL0     C47973   3.671   5.246   4.771  0.0273  0.2122 -0.4441
  356MOL0     C47974   3.715   5.335   4.869 -0.4021  0.1860  0.4847
  356MOL0     N47975   3.884   6.054   5.186  0.0916  0.2353  0.4832
  356MOL0     N47976   3.861   6.175   5.147  0.7475 -0.0623 -0.5864
  356MOL0     C47977   2.954   6.782   4.649  0.5439  0.1168  0.4912
  356MOL0     C47978   2.825   6.837   4.657 -0.8233  0.3545 -0.5126
  356MOL0     C47979   2.487   7.012   4.905 -0.4307  0.2546  0.5080
  356MOL0     C47980   2.532   7.127   4.972  0.4171  0.3556 -0.5640
  356MOL0     C47981   2.443   7.218   5.028  0.8509  0.6856  0.1474
  356MOL0     C47982   2.302   7.190   5.025 -0.0979 -0.1310 -0.6269
  356MOL0     O47983   2.214   7.277   5.087  0.2655 -0.1454 -0.1805
  356MOL0     C47984   2.181   7.402   5.027  0.2102  0.1708 -0.1429
  356MOL0     C47985   2.116   7.384   4.888 -0.8090  0.0299  0.7516
  356MOL0     C47986   1.976   7.321   4.900  0.6223 -0.2809  0.5818
  356MOL0     C47987   1.909   7.325   4.767 -0.5453 -0.5613 -0.7165
  356MOL0     C47988   1.784   7.243   4.772 -0.9115 -0.0085 -0.0597
  356MOL0     C47989   1.677   7.180   4.774 -0.6501  0.1237  0.4596
  356MOL0     C47990   2.256   7.066   4.974  0.2285  0.1104  0.2485
  356MOL0     C47991   2.347   6.986   4.900  0.0671 -1.1935 -0.2514
  356MOL0     C47992   2.295   6.867   4.830  0.4483  0.0680 -0.0298
  356MOL0     H47993   2.889   7.087   4.875  0.1322  1.8066 -2.2519
  356MOL0     H47994   3.109   6.980   4.871 -0.7545  0.8270  1.1811
  356MOL0     H47995   3.182   6.594   4.612  1.0160 -0.3829 -0.2289
  356MOL0     H47996   3.199   6.750   4.519  0.3795 -0.9521  1.5629
  356MOL0     H47997   3.414   6.797   4.593 -2.6174  1.4477  1.7983
  356MOL0     H47998   3.398   6.654   4.491  1.9932  1.2798  0.3317
  356MOL0     H47999   3.359   6.518   4.708  1.9932 -1.3563  4.0186
  356MOL0     H48000   3.421   6.643   4.812  0.3231  0.1445  0.9111
  356MOL0     H48001   3.560   6.478   4.586  0.1818 -0.9046 -0.6423
  356MOL0     H48002   3.630   6.633   4.649  1.0911 -0.2826  3.1232
  356MOL0     H48003   3.719   6.442   4.736 -0.2766  1.8298  1.2559
  356MOL0     H48004   3.656   6.552   4.868  2.3989  0.3654 -0.2580
  356MOL0     H48005   3.462   6.419   4.899 -1.0888 -2.4719  0.0679
  356MOL0     H48006   3.491   6.308   4.764  1.1966 -1.6188 -1.0220
  356MOL0     H48007   3.713   6.239   4.885 -1.3494 -1.5305 -1.1378
  356MOL0     H48008   3.561   6.180   4.936  0.9061 -0.1426 -0.5267
  356MOL0     H48009   3.729   6.403   5.059  2.8427 -1.8804  1.5062
  356MOL0     H48010   3.570   6.358   5.106  1.8021  2.2459 -0.6546
  356MOL0     H48011   3.556   6.059   5.159  1.0024 -2.0757 -1.9894
  356MOL0     H48012   3.806   5.853   5.353  1.6398  2.6037  0.0352
  356MOL0     H48013   3.645   5.843   5.288  0.7879 -1.3601 -0.1264
  356MOL0     H48014   3.743   5.759   5.072 -1.6076  0.9674  0.2261
  356MOL0     H48015   3.904   5.799   5.134 -0.4917  3.4318  4.0303
  356MOL0     H48016   3.731   5.602   5.286  2.2451 -0.6315  1.8588
  356MOL0     H48017   3.898   5.605   5.266 -1.0372 -3.8588  1.1828
  356MOL0     H48018   3.802   5.422   5.102 -1.6470 -0.8413 -1.5399
  356MOL0     H48019   3.853   5.558   5.001  1.6640  1.8646  0.9424
  356MOL0     H48020   3.428   5.506   4.901  0.6287 -0.2241  0.5220
  356MOL0     H48021   3.355   5.359   4.714 -1.7554 -0.7091  0.8125
  356MOL0     H48022   3.457   4.896   4.485  0.5251 -1.3432  0.5383
  356MOL0     H48023   3.325   4.760   4.314 -3.3197 -2.2493 -0.7475
  356MOL0     H48024   3.232   4.683   4.120 -0.9565 -2.3604 -1.9776
  356MOL0     H48025   3.139   4.626   4.253  1.2170 -0.0686 -1.4625
  356MOL0     H48026   2.925   4.664   4.112  1.2247  0.4912  0.9717
  356MOL0     H48027   3.035   4.705   3.982 -2.3553  1.1757  0.3996
  356MOL0     H48028   2.950   4.477   3.948 -0.2970  0.6425  0.9642
  356MOL0     H48029   3.110   4.448   3.982 -3.1980 -0.7153 -4.5839
  356MOL0     H48030   2.869   4.391   4.161 -0.4229  1.3227 -0.0671
  356MOL0     H48031   3.008   4.457   4.245 -0.5440 -0.3466 -0.0968
  356MOL0     H48032   3.022   4.221   4.251 -1.2771  0.5669 -1.4037
  356MOL0     H48033   3.160   4.275   4.157 -0.1526  0.4861  2.2976
  356MOL0     H48034   2.893   4.191   4.032  0.4047  2.2811 -3.8480
  356MOL0     H48035   3.055   4.199   3.960 -0.5831 -0.5665 -0.5434
  356MOL0     H48036   3.118   3.986   4.103 -0.5803 -2.0739  2.2059
  356MOL0     H48037   3.010   3.978   3.958  2.5213  0.1040  0.1936
  356MOL0     H48038   2.899   3.980   4.227 -0.3023 -2.3826 -0.4420
  356MOL0     H48039   2.808   3.998   4.082 -1.1838  1.3331  1.0140
  356MOL0     H48040   3.031   5.069   4.307 -0.3679 -0.1722  1.6431
  356MOL0     H48041   3.172   5.199   4.474  1.9970  0.7695 -0.9413
  356MOL0     H48042   3.732   5.160   4.746 -0.0996  0.1583 -0.5680
  356MOL0     H48043   3.812   5.320   4.914  0.3094 -0.8825 -1.2923
  356MOL0     H48044   2.984   6.705   4.580  3.3609  0.3269  1.3197
  356MOL0     H48045   2.742   6.798   4.599  0.1678 -0.6360 -1.2991
  356MOL0     H48046   2.638   7.147   4.969 -0.2056  4.6904  0.3342
  356MOL0     H48047   2.482   7.308   5.073 -0.5685  0.7705  1.2767
  356MOL0     H48048   2.272   7.462   5.016  1.6944 -2.4319 -5.7267
  356MOL0     H48049   2.112   7.457   5.091  1.0141  1.4286 -0.3265
  356MOL0     H48050   2.179   7.324   4.822  1.5065  0.6169  2.3283
  356MOL0     H48051   2.101   7.484   4.846  0.4736 -0.1354 -0.1575
  356MOL0     H48052   1.905   7.375   4.963 -1.4408 -1.4793 -0.6283
  356MOL0     H48053   1.976   7.218   4.938 -2.1308 -1.6900 -2.7659
  356MOL0     H48054   1.875   7.425   4.737  3.1799  1.8506  2.1607
  356MOL0     H48055   1.980   7.275   4.701 -0.8432 -1.9475 -0.0237
  356MOL0     H48056   1.586   7.124   4.774  0.2813 -1.5899 -2.5123
  356MOL0     H48057   2.150   7.042   4.985  0.6375 -1.0405  2.0749
  356MOL0     H48058   2.324   6.869   4.725 -2.2197 -0.5567 -0.8471
  356MOL0     H48059   2.337   6.784   4.888  0.2471  1.1738  1.7622
  356MOL0     H48060   2.188   6.844   4.825  1.1622 -4.1789  0.0403
  357MOL0     O48061   3.052   8.313  10.090 -0.3040  0.1839  0.4630
  357MOL0     C48062   2.990   8.416  10.110 -0.0903 -0.1201 -0.2350
  357MOL0     O48063   3.046   8.541  10.096  0.3497 -0.1361  0.3826
  357MOL0     C48064   3.180   8.559  10.081  0.8308  0.6320  1.0578
  357MOL0     C48065   3.250   8.531   9.964 -0.0179  0.3290  0.4095
  357MOL0     C48066   3.389   8.532   9.961 -0.0541  0.3182 -0.7468
  357MOL0     C48067   3.466   8.557  10.080  0.1209  0.6048 -0.4080
  357MOL0     O48068   3.603   8.544  10.061 -0.1571 -0.6623  0.1088
  357MOL0     C48069   3.681   8.576  10.177 -0.0604 -0.3739  1.1134
  357MOL0     C48070   3.838   8.560  10.144 -0.2945  0.7733 -0.3706
  357MOL0     C48071   3.905   8.626  10.261  0.0064 -0.0796  0.3154
  357MOL0     C48072   4.056   8.603  10.256  0.2950  0.7139 -0.5776
  357MOL0     C48073   4.111   8.628  10.393 -0.1818 -0.2019  0.2918
  357MOL0     C48074   4.101   8.780  10.428 -0.3899  1.1170 -0.7246
  357MOL0     C48075   4.195   8.821  10.551  0.1788  0.2729 -0.6748
  357MOL0     C48076   4.191   8.721  10.666  1.2281 -1.1154  0.2750
  357MOL0     N48077   4.290   8.782  10.760  0.3609  0.0717  0.8950
  357MOL0     C48078   4.405   8.719  10.775 -0.8821  0.5137 -0.4149
  357MOL0     C48079   4.462   8.790  10.878 -0.6430  0.4368  0.5239
  357MOL0     C48080   4.603   8.772  10.930  0.2906 -0.3242  0.3712
  357MOL0     C48081   4.710   8.790  10.825 -0.5727  0.1592 -0.2726
  357MOL0     C48082   4.695   8.924  10.761  0.2884  0.5057 -0.4573
  357MOL0     C48083   4.736   9.041  10.855 -0.7409  0.3781  0.5504
  357MOL0     O48084   4.877   9.024  10.894  0.8745  0.7845  0.8948
  357MOL0     C48085   4.952   9.120  10.964  0.2389  0.1620  0.7654
  357MOL0     C48086   4.907   9.237  11.009 -0.7318 -0.0343 -0.2867
  357MOL0     C48087   4.982   9.336  11.078  0.4103  0.6883  0.6274
  357MOL0     C48088   5.118   9.308  11.095 -0.2485 -0.2475  0.3691
  357MOL0     C48089   5.211   9.403  11.170  0.3282 -0.4084 -1.1328
  357MOL0     O48090   5.164   9.537  11.174  0.1815 -0.0574 -0.6298
  357MOL0     C48091   5.238   9.647  11.225 -0.2825  0.0044  0.1196
  357MOL0     C48092   5.377   9.648  11.262  1.1949 -0.1822 -0.5401
  357MOL0     C48093   5.446   9.765  11.307  0.0235 -0.4969 -0.5993
  357MOL0     C48094   5.383   9.886  11.310 -0.1179  0.0274  0.2119
  357MOL0     O48095   5.426  10.008  11.350 -0.6615  0.8884 -1.2090
  357MOL0     C48096   5.567  10.021  11.360  0.2718 -0.5240  0.0045
  357MOL0     C48097   5.599  10.164  11.405 -1.1961  0.2637 -0.2939
  357MOL0     C48098   5.750  10.213  11.405 -0.1789  0.7004  0.7578
  357MOL0     C48099   5.846  10.155  11.507  0.2899  0.2061 -0.5613
  357MOL0     C48100   5.859  10.001  11.491  0.1448 -0.6355  0.5552
  357MOL0     C48101   6.003   9.956  11.547  0.8234 -0.6731  0.1606
  357MOL0     C48102   6.036   9.997  11.700  0.4405  0.0372 -0.7393
  357MOL0     C48103   6.139   9.895  11.742  0.2274  0.5806 -0.2650
  357MOL0    Cl48104   6.195   9.920  11.901  0.2597  0.3886 -0.3252
  357MOL0     C48105   5.255   9.890  11.248  0.0826 -0.0867  0.1057
  357MOL0     C48106   5.185   9.776  11.209  1.2283 -0.2147  0.1327
  357MOL0     O48107   5.315   9.360  11.219 -0.2685 -0.1949 -0.3369
  357MOL0     C48108   5.166   9.176  11.062 -0.3101 -0.7798 -0.6987
  357MOL0     C48109   5.082   9.087  10.996  0.8216  0.3275  0.1633
  357MOL0     N48110   4.377   8.889  10.923  0.0039 -0.0482  0.0573
  357MOL0     N48111   4.270   8.880  10.851  1.0181 -0.3301  0.7686
  357MOL0     C48112   3.391   8.598  10.209 -0.4499  0.7821  0.2120
  357MOL0     C48113   3.248   8.596  10.200 -0.0710  0.1903  0.5842
  357MOL0     C48114   2.840   8.418  10.132  0.5223  0.0164 -0.4056
  357MOL0     C48115   2.775   8.546  10.136  0.7539 -0.1697  0.6762
  357MOL0     C48116   2.628   8.557  10.143 -0.6286  1.4087  0.8907
  357MOL0     C48117   2.551   8.440  10.159  1.3891 -1.4746  0.1984
  357MOL0     O48118   2.416   8.433  10.161 -0.4174 -0.1392  0.4528
  357MOL0     C48119   2.337   8.552  10.166  1.0178 -0.6651  0.7319
  357MOL0     C48120   2.179   8.533  10.160 -0.2298 -0.0480 -0.1422
  357MOL0     C48121   2.140   8.460  10.027  0.6610 -0.6082  0.2302
  357MOL0     C48122   2.211   8.327   9.989 -0.3471 -0.1917 -0.1312
  357MOL0     C48123   2.151   8.235   9.897 -0.1368 -0.5482  0.8205
  357MOL0     C48124   2.110   8.169   9.803 -0.0556  0.0767 -0.1406
  357MOL0     C48125   2.617   8.318  10.162 -0.4276 -0.5642 -1.3509
  357MOL0     C48126   2.754   8.305  10.159  0.0760  0.0153  0.5638
  357MOL0     C48127   2.801   8.160  10.142 -0.5309 -0.5482 -0.1523
  357MOL0     H48128   3.191   8.505   9.877  0.0647  0.3727  0.3411
  357MOL0     H48129   3.446   8.506   9.872  1.6290 -2.2833  0.9455
  357MOL0     H48130   3.655   8.680  10.196 -0.0248  0.1397 -1.2967
  357MOL0     H48131   3.663   8.515  10.266  0.5103  0.2600  1.6826
  357MOL0     H48132   3.873   8.593  10.046 -1.9657 -1.1185 -1.7061
  357MOL0     H48133   3.868   8.457  10.166 -0.1976  1.0986  1.1094
  357MOL0     H48134   3.863   8.606  10.359  0.5596 -0.1850  0.5381
  357MOL0     H48135   3.891   8.732  10.238  0.1799  0.5382  2.8526
  357MOL0     H48136   4.073   8.497  10.234 -1.8582 -0.1603  1.5156
  357MOL0     H48137   4.101   8.676  10.189 -0.1711  1.9785  0.4540
  357MOL0     H48138   4.061   8.573  10.472  2.4237 -1.2704  1.3122
  357MOL0     H48139   4.218   8.603  10.396  0.2870  1.0090 -2.3497
  357MOL0     H48140   4.136   8.836  10.341 -0.2572  2.1699 -0.0095
  357MOL0     H48141   3.996   8.799  10.453 -0.7747 -1.5798  0.0712
  357MOL0     H48142   4.160   8.910  10.605  0.2295  0.3967 -0.8473
  357MOL0     H48143   4.293   8.826  10.504  0.6878 -4.0421 -0.4839
  357MOL0     H48144   4.094   8.715  10.716  0.5786 -0.5564 -0.8912
  357MOL0     H48145   4.230   8.623  10.637  2.5808  0.1776 -2.7506
  357MOL0     H48146   4.448   8.639  10.715 -2.0589  0.2824 -0.9871
  357MOL0     H48147   4.625   8.849  11.005  1.9706  0.6723 -1.0508
  357MOL0     H48148   4.609   8.675  10.980 -1.1301 -0.9356 -0.5918
  357MOL0     H48149   4.812   8.782  10.864 -0.0019 -2.4576 -1.9914
  357MOL0     H48150   4.695   8.705  10.758 -0.7476 -1.0100  1.1847
  357MOL0     H48151   4.598   8.936  10.713 -1.7143  3.3009  3.6229
  357MOL0     H48152   4.766   8.925  10.678  1.5903 -4.0023  0.3365
  357MOL0     H48153   4.668   9.043  10.940 -3.0098 -2.0272 -1.0515
  357MOL0     H48154   4.726   9.137  10.804 -1.6923 -0.3715 -0.7547
  357MOL0     H48155   4.803   9.263  10.996 -0.4434  0.9377 -0.7853
  357MOL0     H48156   4.936   9.429  11.110 -1.4450  0.3127 -0.7610
  357MOL0     H48157   5.429   9.553  11.265  0.3860 -0.6660 -1.3480
  357MOL0     H48158   5.546   9.760  11.349 -0.8057 -2.1202  1.3963
  357MOL0     H48159   5.610   9.957  11.438  1.4086 -0.1514 -0.2993
  357MOL0     H48160   5.599   9.992  11.259  1.1304 -1.2238  0.4654
  357MOL0     H48161   5.542  10.243  11.354 -1.8625  0.6363  0.9721
  357MOL0     H48162   5.584  10.178  11.512  1.4404 -1.5409  0.4079
  357MOL0     H48163   5.791  10.181  11.308  0.9005 -0.5796  1.6060
  357MOL0     H48164   5.756  10.322  11.405 -0.4206  0.7202  0.3033
  357MOL0     H48165   5.804  10.166  11.608 -1.1271 -2.6421 -0.7493
  357MOL0     H48166   5.948  10.191  11.496  1.0902 -2.2271 -1.7531
  357MOL0     H48167   5.850   9.976  11.385 -0.3578 -1.0744  0.6971
  357MOL0     H48168   5.786   9.948  11.552  1.1200  0.3867  2.7115
  357MOL0     H48169   5.995   9.848  11.536 -2.9003 -0.8026  2.4211
  357MOL0     H48170   6.079   9.983  11.473  2.1209  0.3342  1.7962
  357MOL0     H48171   5.943   9.992  11.757 -0.1723 -1.2369 -1.7900
  357MOL0     H48172   6.077  10.098  11.700 -3.4716  1.8615 -2.9845
  357MOL0     H48173   6.109   9.790  11.738  4.4436 -0.9381  1.9225
  357MOL0     H48174   6.222   9.902  11.671  1.6745  2.2767  1.4844
  357MOL0     H48175   5.214   9.991  11.243  0.7070  0.2298  1.0349
  357MOL0     H48176   5.084   9.788  11.169  0.6933 -0.8956  1.2324
  357MOL0     H48177   5.265   9.147  11.095 -1.4969 -2.5704  1.5547
  357MOL0     H48178   5.114   8.988  10.963 -1.1656  0.1378 -1.3697
  357MOL0     H48179   3.453   8.629  10.292  2.5156 -1.2769 -1.0489
  357MOL0     H48180   3.194   8.608  10.293 -0.6615  0.1608  0.2530
  357MOL0     H48181   2.827   8.638  10.109 -0.4224  0.5787  0.9061
  357MOL0     H48182   2.592   8.659  10.150  0.2160  1.6562  1.7618
  357MOL0     H48183   2.373   8.616  10.084  3.0400 -1.0611  1.2496
  357MOL0     H48184   2.371   8.611  10.252  1.9999  1.8517 -1.2250
  357MOL0     H48185   2.129   8.631  10.166 -0.2058  0.0532 -1.3202
  357MOL0     H48186   2.141   8.480  10.248 -0.5548 -0.0519 -0.2837
  357MOL0     H48187   2.153   8.538   9.951 -0.8866  0.6557  1.1920
  357MOL0     H48188   2.032   8.442  10.023  0.9351 -2.3174 -0.2365
  357MOL0     H48189   2.314   8.345   9.957 -0.3039 -2.0866 -1.1767
  357MOL0     H48190   2.214   8.264  10.079 -1.4179 -0.7507 -0.4684
  357MOL0     H48191   2.090   8.105   9.719 -1.0077  1.0717 -0.7018
  357MOL0     H48192   2.559   8.226  10.158  1.1962 -1.8605  1.8969
  357MOL0     H48193   2.898   8.137  10.186 -0.7959 -0.4636  0.4786
  357MOL0     H48194   2.723   8.086  10.164 -0.9972  0.1151  0.4546
  357MOL0     H48195   2.817   8.148  10.034 -2.6573  0.9746 -0.7127
  358MOL0     O48196   9.327   0.142   2.741 -0.9857 -0.1567 -0.2141
  358MOL0     C48197   9.268   0.136   2.641  0.8011 -0.3206  0.6382
  358MOL0     O48198   9.319   0.120   2.516  0.7248 -0.3563  0.0411
  358MOL0     C48199   9.231   0.106   2.412  0.4631 -0.7015 -0.2561
  358MOL0     C48200   9.196   0.211   2.332  0.2440  0.0575  0.7455
  358MOL0     C48201   9.090   0.199   2.232 -0.1054 -0.3801 -0.4477
  358MOL0     C48202   9.014   0.086   2.231 -0.4505  0.2225 -0.1591
  358MOL0     O48203   8.911   0.069   2.136  0.2446 -0.0668 -0.2834
  358MOL0     C48204   8.805   0.149   2.150  0.6284  0.1846 -0.4343
  358MOL0     C48205   8.687   0.089   2.075  0.1174 -0.0218 -0.4565
  358MOL0     C48206   8.703   0.095   1.927 -1.0886 -0.0334  0.6027
  358MOL0     C48207   8.717   0.236   1.862 -0.6999  0.0779 -0.4590
  358MOL0     C48208   8.759   0.222   1.716  0.9455  1.2544  0.8239
  358MOL0     C48209   8.777   0.346   1.633 -0.2208 -0.5649  0.0112
  358MOL0     C48210   8.776   0.322   1.484 -0.8567  0.4811 -0.3323
  358MOL0     C48211   8.838   0.428   1.402  0.2023 -0.2427 -0.1868
  358MOL0     N48212   8.987   0.445   1.424 -0.1726 -0.4655  0.7162
  358MOL0     C48213   9.082   0.370   1.360 -0.1844  0.0125  0.3746
  358MOL0     C48214   9.204   0.421   1.401  0.1271 -0.5166 -0.6259
  358MOL0     C48215   9.335   0.372   1.344  0.3820  0.0253 -0.3352
  358MOL0     C48216   9.448   0.373   1.454 -0.8109 -0.6811 -0.5335
  358MOL0     C48217   9.588   0.360   1.388  1.2440 -0.2558  0.1444
  358MOL0     C48218   9.694   0.316   1.492  0.0866  0.8457  0.8260
  358MOL0     O48219   9.738   0.413   1.586 -0.4651  0.2799 -1.3237
  358MOL0     C48220   9.833   0.504   1.544 -0.1807  0.2354 -0.1605
  358MOL0     C48221   9.887   0.582   1.644 -0.4384 -0.1884  0.5001
  358MOL0     C48222   9.985   0.676   1.620 -0.1745  0.8658  0.1345
  358MOL0     C48223  10.035   0.694   1.491  1.1551  0.6811  0.1485
  358MOL0     C48224  10.137   0.793   1.452  0.4130  1.1912 -0.5896
  358MOL0     O48225  10.209   0.854   1.549 -0.1268  0.1563 -0.7708
  358MOL0     C48226  10.287   0.965   1.516  0.2559  1.0828  0.5832
  358MOL0     C48227  10.414   0.939   1.459 -0.0085 -0.0880  0.0626
  358MOL0     C48228  10.491   1.052   1.443  0.0446 -0.0259 -0.1187
  358MOL0     C48229  10.442   1.183   1.461 -0.6154  0.2662  0.0439
  358MOL0     O48230  10.517   1.292   1.453 -0.2721 -0.1783 -0.4779
  358MOL0     C48231  10.630   1.291   1.366  0.1053  0.1793 -0.9234
  358MOL0     C48232  10.686   1.418   1.324 -0.5774 -0.5762  0.1851
  358MOL0     C48233  10.597   1.532   1.283 -0.4803  0.1994 -0.5611
  358MOL0     C48234  10.525   1.509   1.143  0.2314 -0.0908  0.3235
  358MOL0     C48235  10.451   1.629   1.092  0.3789  0.8796 -0.8671
  358MOL0     C48236  10.520   1.766   1.097  0.2014 -0.3738 -0.0869
  358MOL0     C48237  10.662   1.765   1.026  0.3077  0.0473 -0.3042
  358MOL0     C48238  10.732   1.902   1.015 -0.1361 -0.1436 -0.6459
  358MOL0    Cl48239  10.768   1.969   1.169  0.1641  0.0622  0.0763
  358MOL0     C48240  10.312   1.206   1.517  0.4132 -0.5792 -0.4118
  358MOL0     C48241  10.232   1.093   1.532  0.2555  0.7428 -0.1635
  358MOL0     O48242  10.149   0.805   1.332  0.1663 -0.0682  0.1306
  358MOL0     C48243   9.992   0.597   1.388  0.8557 -0.0864 -0.5366
  358MOL0     C48244   9.888   0.510   1.423  0.5109 -1.2357  0.1393
  358MOL0     N48245   9.178   0.508   1.508 -0.3953 -0.0846 -0.0923
  358MOL0     N48246   9.044   0.526   1.516  0.2834  0.7149 -0.4349
  358MOL0     C48247   9.042  -0.018   2.317 -0.2774 -0.0514 -0.4524
  358MOL0     C48248   9.155  -0.016   2.393  0.1720  0.6763  0.3626
  358MOL0     C48249   9.124   0.168   2.652  0.1833 -0.6633 -0.3201
  358MOL0     C48250   9.043   0.053   2.690 -1.3158  0.1093 -0.1719
  358MOL0     C48251   8.908   0.073   2.698  0.1872  0.2332 -0.2399
  358MOL0     C48252   8.847   0.202   2.679 -0.0466  0.1356 -0.1594
  358MOL0     O48253   8.709   0.230   2.685  0.4140 -0.2734  0.2343
  358MOL0     C48254   8.609   0.137   2.713 -0.4056 -0.3635 -0.1139
  358MOL0     C48255   8.478   0.216   2.718 -0.4894  0.3076 -1.2040
  358MOL0     C48256   8.414   0.224   2.577  0.3726  0.5392  0.5021
  358MOL0     C48257   8.492   0.285   2.469  0.5686 -0.8936 -0.3858
  358MOL0     C48258   8.414   0.303   2.341  0.6720 -0.3161 -0.1469
  358MOL0     C48259   8.353   0.321   2.240 -0.2976  0.3098 -0.3884
  358MOL0     C48260   8.930   0.304   2.638 -0.5289  0.0248  0.6434
  358MOL0     C48261   9.069   0.295   2.632  0.8978 -0.6482 -1.2124
  358MOL0     C48262   9.141   0.422   2.609  0.6513  0.3654  0.1109
  358MOL0     H48263   9.256   0.301   2.333  1.7032 -0.8789  0.4079
  358MOL0     H48264   9.078   0.277   2.158 -2.2604  1.3013  1.4920
  358MOL0     H48265   8.782   0.159   2.257  2.4984  1.1398 -0.0859
  358MOL0     H48266   8.826   0.251   2.116 -0.2909  1.2874  2.0467
  358MOL0     H48267   8.595   0.143   2.096  1.8274  2.9003  0.0895
  358MOL0     H48268   8.678  -0.015   2.108  0.5866  0.4108  1.1070
  358MOL0     H48269   8.619   0.046   1.877 -1.2214 -0.3350  1.1144
  358MOL0     H48270   8.794   0.034   1.915 -0.1605  0.6577  3.5199
  358MOL0     H48271   8.626   0.296   1.874  0.3510  1.9682 -1.4690
  358MOL0     H48272   8.802   0.285   1.910  0.6318 -1.2263 -1.4079
  358MOL0     H48273   8.855   0.173   1.699 -0.7745 -1.4896 -2.2129
  358MOL0     H48274   8.688   0.152   1.670  1.4419  1.6527 -0.5881
  358MOL0     H48275   8.695   0.416   1.657 -0.6012 -1.0648  0.1807
  358MOL0     H48276   8.874   0.390   1.659 -0.6079  0.8546 -0.8417
  358MOL0     H48277   8.673   0.307   1.451 -0.6364  0.0999 -0.8598
  358MOL0     H48278   8.827   0.227   1.466  1.6058  1.1787  2.2322
  358MOL0     H48279   8.809   0.416   1.297 -1.4583 -2.5399  0.4374
  358MOL0     H48280   8.784   0.517   1.434  0.0662 -0.3425 -0.1338
  358MOL0     H48281   9.066   0.300   1.278 -0.8408  2.3796 -1.6527
  358MOL0     H48282   9.335   0.267   1.312  0.2596  0.3015 -1.2626
  358MOL0     H48283   9.356   0.430   1.254 -3.1143 -0.3976 -1.5763
  358MOL0     H48284   9.451   0.474   1.496  4.1162 -0.2779 -1.2493
  358MOL0     H48285   9.423   0.302   1.533  3.0876  0.1304  1.7146
  358MOL0     H48286   9.606   0.465   1.361 -0.4881  0.2313  0.7481
  358MOL0     H48287   9.587   0.301   1.296 -2.5422  1.1878 -0.9203
  358MOL0     H48288   9.767   0.257   1.436 -1.9338 -0.8642 -0.1456
  358MOL0     H48289   9.638   0.242   1.550 -1.5444  0.0440 -1.6291
  358MOL0     H48290   9.851   0.575   1.747 -0.2845  0.8131  0.6316
  358MOL0     H48291  10.019   0.741   1.700  0.7483  2.0528 -1.1669
  358MOL0     H48292  10.446   0.837   1.445 -2.9817 -1.3692  1.4835
  358MOL0     H48293  10.598   1.035   1.430 -0.4969 -2.8676 -1.7823
  358MOL0     H48294  10.707   1.236   1.421 -0.9570  0.8290  1.3370
  358MOL0     H48295  10.601   1.249   1.269 -3.9595  0.2495  0.0526
  358MOL0     H48296  10.740   1.448   1.414 -1.1687  0.7018  0.1418
  358MOL0     H48297  10.762   1.417   1.245  0.6227  1.7831  1.1984
  358MOL0     H48298  10.529   1.542   1.368  0.2185 -1.4456  0.2348
  358MOL0     H48299  10.664   1.619   1.279 -1.7108  1.3950  2.3862
  358MOL0     H48300  10.454   1.431   1.172  1.7343 -1.5681  0.1082
  358MOL0     H48301  10.599   1.480   1.069  2.8378 -0.1613  2.8094
  358MOL0     H48302  10.354   1.640   1.143 -0.3922 -1.3832 -1.7307
  358MOL0     H48303  10.422   1.603   0.990 -2.4729 -2.6494  0.5940
  358MOL0     H48304  10.467   1.848   1.047 -0.3595 -0.6830 -0.0002
  358MOL0     H48305  10.534   1.800   1.200 -0.7589  1.5025 -0.5421
  358MOL0     H48306  10.649   1.727   0.925 -0.0593  1.7749 -0.9393
  358MOL0     H48307  10.734   1.705   1.084 -0.2707 -0.4354 -0.0732
  358MOL0     H48308  10.829   1.890   0.966 -0.9662  0.1884 -2.4642
  358MOL0     H48309  10.675   1.961   0.943  1.3344 -1.9480 -3.4781
  358MOL0     H48310  10.277   1.307   1.536  0.5281 -0.6219  0.0303
  358MOL0     H48311  10.136   1.107   1.580  0.8367  3.6489  0.3422
  358MOL0     H48312  10.029   0.598   1.286  1.3863 -1.1239 -0.3647
  358MOL0     H48313   9.851   0.448   1.343  1.3128 -1.7586  0.1666
  358MOL0     H48314   8.982  -0.108   2.312  3.8976 -3.3053  1.9194
  358MOL0     H48315   9.182  -0.109   2.444  0.1148 -0.0538 -0.9007
  358MOL0     H48316   9.103  -0.029   2.729  0.9046  2.4041  1.6221
  358MOL0     H48317   8.847  -0.009   2.735  0.8769  0.3710  1.2897
  358MOL0     H48318   8.647   0.101   2.809  2.7256  2.0945 -0.2235
  358MOL0     H48319   8.588   0.060   2.640 -0.6999 -0.0955 -0.3128
  358MOL0     H48320   8.486   0.317   2.757 -0.2316 -0.7775  1.8141
  358MOL0     H48321   8.423   0.163   2.797  2.5123  0.9319  1.4846
  358MOL0     H48322   8.321   0.279   2.596  0.0469 -0.0104  0.5312
  358MOL0     H48323   8.393   0.127   2.531 -1.6566  0.9936  0.3527
  358MOL0     H48324   8.521   0.385   2.504 -0.5470 -0.5280 -0.4644
  358MOL0     H48325   8.589   0.237   2.452  1.1994 -0.6750  2.2765
  358MOL0     H48326   8.310   0.329   2.142 -0.8825  1.8088 -0.0421
  358MOL0     H48327   8.887   0.402   2.618  2.2185  1.6697  2.1652
  358MOL0     H48328   9.188   0.429   2.511 -0.7201  4.6687 -0.4321
  358MOL0     H48329   9.076   0.510   2.598  1.3105  0.6278 -2.4523
  358MOL0     H48330   9.213   0.425   2.690  0.1539  1.0968  0.5359
  359MOL0     O48331  10.465  10.942   6.298  0.4834  0.0066 -0.1853
  359MOL0     C48332  10.424  10.854   6.377  0.3433 -0.1715 -1.0416
  359MOL0     O48333  10.505  10.756   6.434  0.2119  0.5191  0.3609
  359MOL0     C48334  10.635  10.735   6.403 -0.3039 -0.0416 -0.4014
  359MOL0     C48335  10.730  10.743   6.507 -0.9183  1.3273 -0.2986
  359MOL0     C48336  10.869  10.714   6.474 -0.6161 -0.5955 -0.2614
  359MOL0     C48337  10.903  10.713   6.338 -0.7058 -0.5278 -0.0115
  359MOL0     O48338  11.031  10.695   6.295  1.4062 -0.2178 -0.2423
  359MOL0     C48339  11.100  10.590   6.366  1.0863 -0.5066  0.3667
  359MOL0     C48340  11.214  10.542   6.279 -0.2074  0.1241 -0.0109
  359MOL0     C48341  11.302  10.422   6.342 -0.9815  0.1374  0.3651
  359MOL0     C48342  11.438  10.454   6.403  1.1590  0.1765  1.3541
  359MOL0     C48343  11.520  10.335   6.444  0.6648 -0.0335  0.0909
  359MOL0     C48344  11.647  10.389   6.515 -0.6153 -0.9052  0.5746
  359MOL0     C48345  11.744  10.270   6.552  0.2597 -0.0077 -0.0228
  359MOL0     C48346  11.864  10.319   6.622 -0.4653  0.2106 -0.4696
  359MOL0     N48347  11.938  10.427   6.548 -0.2158  0.2683 -0.4417
  359MOL0     C48348  12.012  10.413   6.437  0.0140 -0.3755  0.2150
  359MOL0     C48349  12.056  10.536   6.406  1.2225 -0.3953 -0.2247
  359MOL0     C48350  12.159  10.569   6.290  0.9034  0.0074  0.3410
  359MOL0     C48351  12.296  10.538   6.354  0.4348 -0.7140 -0.0615
  359MOL0     C48352  12.412  10.617   6.295  0.1899 -0.7645 -0.2761
  359MOL0     C48353  12.555  10.559   6.332 -0.4316  0.3729 -0.2642
  359MOL0     O48354  12.662  10.641   6.286  0.0040 -0.4694 -0.0572
  359MOL0     C48355  12.792  10.602   6.309  0.1858 -0.7302 -1.0599
  359MOL0     C48356  12.895  10.654   6.239  0.8871 -0.7731 -0.2852
  359MOL0     C48357  13.030  10.634   6.275  0.6012 -0.5671 -0.1077
  359MOL0     C48358  13.067  10.568   6.388  0.4810 -0.0080  0.8097
  359MOL0     C48359  13.207  10.538   6.440  0.6355  0.1169  0.2575
  359MOL0     O48360  13.302  10.621   6.395 -0.2432  0.1034  0.3024
  359MOL0     C48361  13.418  10.623   6.458  0.1846  0.3734 -0.4161
  359MOL0     C48362  13.519  10.538   6.424  0.4662 -1.3342 -0.0553
  359MOL0     C48363  13.649  10.546   6.485  0.0650  0.5837 -0.1987
  359MOL0     C48364  13.667  10.633   6.594  0.2766 -1.1398 -0.0404
  359MOL0     O48365  13.793  10.635   6.661  0.3753 -0.6800 -0.3136
  359MOL0     C48366  13.861  10.511   6.695 -0.3354  0.2708  0.3450
  359MOL0     C48367  13.969  10.523   6.797 -0.2534  0.0653  0.0384
  359MOL0     C48368  14.083  10.623   6.772 -0.4121  0.5796  0.5122
  359MOL0     C48369  14.184  10.642   6.879 -0.4419 -0.4454  0.0312
  359MOL0     C48370  14.283  10.764   6.851  0.0992  1.6671  0.4096
  359MOL0     C48371  14.403  10.765   6.951 -0.5327 -0.3367 -0.2245
  359MOL0     C48372  14.520  10.674   6.916 -0.4210 -0.0182  0.0237
  359MOL0     C48373  14.608  10.668   7.035 -0.2954  0.1940  0.6777
  359MOL0    Cl48374  14.685  10.827   7.077 -0.5399 -0.3846  0.6621
  359MOL0     C48375  13.561  10.711   6.634 -0.4122 -0.3141 -0.6581
  359MOL0     C48376  13.440  10.710   6.568 -0.0250 -0.3291 -0.3914
  359MOL0     O48377  13.231  10.444   6.512  0.0449 -0.0031 -0.0794
  359MOL0     C48378  12.955  10.520   6.465 -0.0777  0.1286  0.3480
  359MOL0     C48379  12.823  10.539   6.432 -0.2360 -1.4753 -0.2015
  359MOL0     N48380  11.999  10.626   6.497 -0.5027 -0.7362 -0.0079
  359MOL0     N48381  11.926  10.560   6.590  0.2075  0.2478 -0.1818
  359MOL0     C48382  10.811  10.716   6.239  0.5808 -1.0381  1.1014
  359MOL0     C48383  10.673  10.723   6.274 -0.1284  0.8616  0.3519
  359MOL0     C48384  10.273  10.865   6.419  1.3077  0.1638 -0.0518
  359MOL0     C48385  10.189  10.967   6.378 -0.1741  0.5411  0.7358
  359MOL0     C48386  10.057  10.975   6.400  1.1691  0.1535  0.0196
  359MOL0     C48387   9.989  10.868   6.459  0.4567  1.0018  0.5868
  359MOL0     O48388   9.861  10.870   6.485  0.5226 -0.0707 -0.1405
  359MOL0     C48389   9.769  10.914   6.388  0.1315 -0.0332  0.8095
  359MOL0     C48390   9.638  10.865   6.423 -0.8023 -0.1905  0.7352
  359MOL0     C48391   9.568  10.921   6.549 -0.9759  0.6965  0.2649
  359MOL0     C48392   9.412  10.926   6.548  0.0750 -0.1319  0.0255
  359MOL0     C48393   9.348  11.039   6.606 -0.6124  0.9630  0.1529
  359MOL0     C48394   9.282  11.131   6.638  0.9787 -0.3976 -0.0990
  359MOL0     C48395  10.070  10.760   6.509 -0.3946  0.0344 -0.0890
  359MOL0     C48396  10.210  10.758   6.489 -0.4249 -0.0279  0.2861
  359MOL0     C48397  10.268  10.629   6.534  0.0976  0.2199 -0.7212
  359MOL0     H48398  10.696  10.772   6.606 -2.5108  0.0867 -0.4462
  359MOL0     H48399  10.941  10.709   6.555 -1.8066  0.9125  0.9503
  359MOL0     H48400  11.138  10.630   6.461 -0.9549 -0.7880  1.3671
  359MOL0     H48401  11.030  10.510   6.394  2.3560 -1.3207  1.3115
  359MOL0     H48402  11.287  10.621   6.259  1.3606 -0.8745  1.5389
  359MOL0     H48403  11.160  10.506   6.191 -1.5200  0.7084  0.5291
  359MOL0     H48404  11.305  10.340   6.270 -0.3323 -0.5680  1.1744
  359MOL0     H48405  11.243  10.393   6.430  0.4912  3.3221  2.5845
  359MOL0     H48406  11.494  10.520   6.336 -0.5571 -0.1985 -0.5618
  359MOL0     H48407  11.410  10.519   6.486 -1.0739  1.6237 -0.4025
  359MOL0     H48408  11.465  10.287   6.526  0.8938  0.2701  0.4303
  359MOL0     H48409  11.547  10.262   6.367 -0.1508 -0.3077  0.0649
  359MOL0     H48410  11.694  10.455   6.441 -2.5339 -1.2175 -1.0066
  359MOL0     H48411  11.623  10.441   6.608 -2.5312  0.0371 -0.3969
  359MOL0     H48412  11.779  10.209   6.469  2.0810  0.3559  0.4269
  359MOL0     H48413  11.687  10.200   6.614  0.3343 -1.2294 -1.2820
  359MOL0     H48414  11.837  10.361   6.720  4.5121  0.6878  0.9850
  359MOL0     H48415  11.930  10.233   6.640  0.7736  1.5765  2.1801
  359MOL0     H48416  12.021  10.321   6.380 -1.3446 -0.1588 -0.3958
  359MOL0     H48417  12.135  10.501   6.208 -0.2310  1.4790 -0.5843
  359MOL0     H48418  12.155  10.671   6.252 -2.4211 -0.7216 -1.6531
  359MOL0     H48419  12.292  10.567   6.459 -0.2766  0.3612 -0.3711
  359MOL0     H48420  12.309  10.430   6.353  1.0827 -0.6422  0.2063
  359MOL0     H48421  12.400  10.721   6.325 -0.9037 -1.2112  0.9446
  359MOL0     H48422  12.406  10.620   6.186  1.3237  1.8254 -0.3308
  359MOL0     H48423  12.566  10.459   6.289 -2.0065 -0.0380  0.2419
  359MOL0     H48424  12.568  10.547   6.440  0.4593  0.5099 -0.3511
  359MOL0     H48425  12.877  10.705   6.145  1.5270 -4.2009 -2.4411
  359MOL0     H48426  13.101  10.685   6.211  2.1280 -1.2875  0.9506
  359MOL0     H48427  13.508  10.470   6.339 -0.7237 -1.9979  0.5973
  359MOL0     H48428  13.732  10.485   6.449  1.3510  2.1849 -0.0612
  359MOL0     H48429  13.786  10.437   6.726 -0.2815 -0.5551 -1.4176
  359MOL0     H48430  13.906  10.464   6.608  1.8092 -0.1607  1.6153
  359MOL0     H48431  13.925  10.541   6.895  0.7350 -2.5832  1.0550
  359MOL0     H48432  14.001  10.421   6.818  2.3365  1.5147  4.2912
  359MOL0     H48433  14.139  10.584   6.687  1.4813  0.8671  1.5944
  359MOL0     H48434  14.047  10.721   6.741 -3.7360 -0.4815  0.5998
  359MOL0     H48435  14.248  10.555   6.895  0.8698  0.8602  2.3820
  359MOL0     H48436  14.123  10.662   6.968  1.8277 -0.9821  1.7914
  359MOL0     H48437  14.228  10.858   6.858  2.0162  2.7638  1.5522
  359MOL0     H48438  14.315  10.753   6.747  0.3593  0.3959  0.6044
  359MOL0     H48439  14.447  10.865   6.945  3.2649 -1.8694 -1.2460
  359MOL0     H48440  14.362  10.743   7.050  2.5688  2.5522  1.9344
  359MOL0     H48441  14.564  10.712   6.823  0.7290 -1.5878 -0.1091
  359MOL0     H48442  14.491  10.569   6.903  2.2993 -0.6468 -1.9680
  359MOL0     H48443  14.549  10.645   7.124 -0.3811  3.0713  1.4771
  359MOL0     H48444  14.679  10.588   7.011 -1.5926 -1.1112  1.0593
  359MOL0     H48445  13.579  10.779   6.717  3.5298  1.0613 -2.4066
  359MOL0     H48446  13.360  10.770   6.611  0.5991  0.2801 -0.0657
  359MOL0     H48447  12.978  10.472   6.560  1.5644 -1.5397 -0.8103
  359MOL0     H48448  12.744  10.504   6.499 -1.8906 -1.7995 -2.2060
  359MOL0     H48449  10.841  10.699   6.136 -1.0699 -0.3510  0.4737
  359MOL0     H48450  10.593  10.733   6.202  0.5520 -1.2582 -0.7767
  359MOL0     H48451  10.236  11.048   6.323 -1.5576 -0.6054 -2.3905
  359MOL0     H48452   9.999  11.058   6.360  1.3900  1.2399  1.8262
  359MOL0     H48453   9.805  10.883   6.290 -1.4014  1.8254 -0.4189
  359MOL0     H48454   9.748  11.021   6.380 -2.9482 -0.7026 -1.8619
  359MOL0     H48455   9.647  10.758   6.445  0.1464  0.0297  1.4564
  359MOL0     H48456   9.579  10.888   6.334  2.3076 -1.2934 -1.7659
  359MOL0     H48457   9.589  11.027   6.566  0.4086  0.4096  0.3982
  359MOL0     H48458   9.608  10.868   6.635 -0.0562 -2.5895 -1.9761
  359MOL0     H48459   9.391  10.927   6.440 -2.9276 -0.3896  0.5353
  359MOL0     H48460   9.374  10.835   6.594 -1.6262  0.7070  0.3340
  359MOL0     H48461   9.225  11.201   6.695  2.4368  1.1010 -0.3957
  359MOL0     H48462  10.022  10.672   6.552  0.9140 -0.6978 -0.0805
  359MOL0     H48463  10.336  10.637   6.620  1.1033 -2.8897 -1.1045
  359MOL0     H48464  10.192  10.556   6.566 -0.0065  0.6480  0.0277
  359MOL0     H48465  10.318  10.590   6.445  2.5312 -1.4310  1.2007
  360MOL0     O48466   7.668   3.845   5.172 -0.5583  0.8431 -0.3645
  360MOL0     C48467   7.663   3.967   5.171 -0.0293  0.1116  1.1928
  360MOL0     O48468   7.580   4.042   5.098 -0.0911 -0.9758  0.1539
  360MOL0     C48469   7.494   3.988   5.004  0.4235  0.3209  0.5247
  360MOL0     C48470   7.411   3.880   5.023  0.3758  0.0859 -0.1041
  360MOL0     C48471   7.327   3.839   4.921 -0.3895  0.1020  0.6323
  360MOL0     C48472   7.322   3.912   4.795  0.2549 -0.5789  0.1958
  360MOL0     O48473   7.239   3.879   4.697  0.6689  0.0944 -0.4128
  360MOL0     C48474   7.187   3.743   4.690 -0.2392 -0.8009  0.0564
  360MOL0     C48475   7.108   3.730   4.569 -0.4162 -0.8207  0.2025
  360MOL0     C48476   6.959   3.777   4.582  0.0810 -0.6051  0.1820
  360MOL0     C48477   6.891   3.792   4.449  0.4303  0.3880  0.2985
  360MOL0     C48478   6.751   3.847   4.453  1.0946  0.0946  0.4435
  360MOL0     C48479   6.703   3.856   4.309  0.2110  0.2258  0.4790
  360MOL0     C48480   6.552   3.904   4.324  0.3544  0.2574 -0.1002
  360MOL0     C48481   6.493   3.975   4.202 -0.5886 -0.0105 -0.1949
  360MOL0     N48482   6.451   3.884   4.098  0.7555 -0.2190  0.0888
  360MOL0     C48483   6.328   3.830   4.067  0.8609  0.1757  0.0716
  360MOL0     C48484   6.355   3.723   3.986 -0.3547 -0.2842 -0.4411
  360MOL0     C48485   6.247   3.625   3.955 -0.1334  0.7511  0.5427
  360MOL0     C48486   6.263   3.504   4.043 -0.8356  0.2632  0.6274
  360MOL0     C48487   6.236   3.518   4.189 -0.5511 -0.6668 -0.8736
  360MOL0     C48488   6.259   3.391   4.255 -0.5301 -0.0678 -0.4807
  360MOL0     O48489   6.395   3.348   4.247  0.1644 -0.4090 -0.0433
  360MOL0     C48490   6.480   3.396   4.346  0.5919 -0.5768  0.4715
  360MOL0     C48491   6.451   3.480   4.450  0.6461 -1.1587 -0.1236
  360MOL0     C48492   6.537   3.514   4.558  0.5331  0.0936 -0.1470
  360MOL0     C48493   6.658   3.452   4.563 -0.2957  0.0743  0.3260
  360MOL0     C48494   6.756   3.454   4.680  0.8475 -1.2498 -0.4666
  360MOL0     O48495   6.859   3.369   4.682 -0.3202 -0.3974  0.4777
  360MOL0     C48496   6.957   3.387   4.783 -0.1816 -0.4879  0.2417
  360MOL0     C48497   6.935   3.389   4.921  0.6781  0.2411 -0.0332
  360MOL0     C48498   7.028   3.397   5.022 -0.5011  0.7063 -0.5952
  360MOL0     C48499   7.158   3.409   4.982  0.1912  0.8855  0.1738
  360MOL0     O48500   7.243   3.400   5.085  0.2812  0.1212  0.2157
  360MOL0     C48501   7.381   3.428   5.066 -0.8778 -0.0551  0.3575
  360MOL0     C48502   7.451   3.404   5.201 -0.3080 -0.5918  0.1998
  360MOL0     C48503   7.604   3.437   5.183  1.2525  0.3265 -0.2081
  360MOL0     C48504   7.688   3.407   5.306  0.6022  0.4161  0.1089
  360MOL0     C48505   7.837   3.422   5.276 -1.0003 -1.1047  0.3651
  360MOL0     C48506   7.927   3.384   5.396  0.4345 -0.0902  0.2096
  360MOL0     C48507   7.957   3.234   5.403  0.2972 -0.8207  0.1244
  360MOL0     C48508   8.036   3.197   5.527 -0.1388  0.0545  0.0022
  360MOL0    Cl48509   8.202   3.200   5.493 -0.0137  0.2925  0.4513
  360MOL0     C48510   7.190   3.399   4.841 -0.6294  0.5365 -0.3409
  360MOL0     C48511   7.090   3.393   4.746 -0.6242  0.5504 -0.6247
  360MOL0     O48512   6.734   3.543   4.762  0.3889 -0.5818  0.1092
  360MOL0     C48513   6.693   3.355   4.464  0.2540  0.1141  0.1929
  360MOL0     C48514   6.609   3.341   4.350  0.5205  0.0710  0.0965
  360MOL0     N48515   6.487   3.732   3.963 -0.1264  0.1648  0.7026
  360MOL0     N48516   6.536   3.822   4.027 -0.4400  0.3213  0.3294
  360MOL0     C48517   7.389   4.025   4.789 -0.6491 -0.5161 -0.2089
  360MOL0     C48518   7.476   4.068   4.885 -0.2268 -0.4118  0.1640
  360MOL0     C48519   7.778   4.033   5.235  0.1805  0.0127 -0.3228
  360MOL0     C48520   7.834   4.150   5.174 -0.1971 -0.0418 -0.9044
  360MOL0     C48521   7.932   4.226   5.236 -0.0418 -0.0132  0.2997
  360MOL0     C48522   7.978   4.189   5.359 -0.5813 -0.1004 -0.0982
  360MOL0     O48523   8.063   4.270   5.428 -0.4976 -0.1179 -0.4482
  360MOL0     C48524   8.183   4.331   5.375 -0.3894  0.1348 -0.0963
  360MOL0     C48525   8.287   4.231   5.325  0.3087 -0.0427 -0.4510
  360MOL0     C48526   8.425   4.298   5.283  0.4306 -0.1139 -0.4457
  360MOL0     C48527   8.521   4.192   5.227 -0.0691  0.8585 -0.3972
  360MOL0     C48528   8.639   4.251   5.178 -0.6489  0.1831  0.6009
  360MOL0     C48529   8.734   4.313   5.128 -0.2582 -0.3452  0.1879
  360MOL0     C48530   7.921   4.080   5.425 -0.2262  0.5842  0.3405
  360MOL0     C48531   7.834   3.997   5.365  0.2064 -0.0104  0.0064
  360MOL0     C48532   7.776   3.884   5.456  0.0163 -1.1976  0.1194
  360MOL0     H48533   7.424   3.815   5.109  3.9985  2.1170  1.0794
  360MOL0     H48534   7.266   3.751   4.940  0.3107 -0.8397 -1.2199
  360MOL0     H48535   7.270   3.673   4.681  0.9698  0.5930 -0.0849
  360MOL0     H48536   7.130   3.725   4.782  2.5441  1.4333  2.4417
  360MOL0     H48537   7.106   3.623   4.549  2.2382 -0.6725 -1.3028
  360MOL0     H48538   7.160   3.776   4.484 -1.6632  0.9703  0.3301
  360MOL0     H48539   6.956   3.874   4.632 -4.7938 -1.2541  1.6398
  360MOL0     H48540   6.909   3.710   4.653 -1.9403 -0.1087 -0.7133
  360MOL0     H48541   6.946   3.863   4.387 -1.8123  1.1764 -0.9099
  360MOL0     H48542   6.899   3.693   4.402 -0.0473  0.4357  0.1156
  360MOL0     H48543   6.700   3.768   4.510  0.2255 -1.3975 -2.2349
  360MOL0     H48544   6.745   3.944   4.503 -2.4852  1.6553 -2.5950
  360MOL0     H48545   6.755   3.931   4.249  0.7618  0.9705  1.8568
  360MOL0     H48546   6.707   3.760   4.258 -1.6762 -0.5165  1.6191
  360MOL0     H48547   6.549   3.971   4.410  1.5041  1.7502 -1.1720
  360MOL0     H48548   6.484   3.823   4.354 -2.1911  2.1915 -0.2648
  360MOL0     H48549   6.420   4.053   4.221  1.0726  1.1228  2.0898
  360MOL0     H48550   6.572   4.022   4.142 -0.7053 -0.6525 -0.8680
  360MOL0     H48551   6.233   3.864   4.107  2.0000  2.9445  0.6305
  360MOL0     H48552   6.149   3.672   3.967 -0.6307 -0.2652  0.4966
  360MOL0     H48553   6.252   3.591   3.851 -2.8471  3.0971 -0.4781
  360MOL0     H48554   6.194   3.426   4.006  1.2120 -0.0705 -3.0272
  360MOL0     H48555   6.367   3.471   4.032 -1.3516 -1.4534  0.6236
  360MOL0     H48556   6.132   3.551   4.201 -0.3698 -0.4962  0.3576
  360MOL0     H48557   6.299   3.596   4.233  2.1434 -3.6209  0.8996
  360MOL0     H48558   6.200   3.313   4.206 -0.4616 -0.3985 -0.0443
  360MOL0     H48559   6.225   3.401   4.359  2.0963 -3.7011  0.9449
  360MOL0     H48560   6.353   3.523   4.465  0.7467 -0.8180 -0.4594
  360MOL0     H48561   6.504   3.589   4.630  1.7942  0.7422 -0.2092
  360MOL0     H48562   6.831   3.378   4.951  0.5214 -0.8046 -0.8502
  360MOL0     H48563   7.003   3.390   5.128  1.8895 -1.4910 -0.0837
  360MOL0     H48564   7.412   3.361   4.985 -0.5381 -1.7400  1.8224
  360MOL0     H48565   7.392   3.535   5.046 -1.6033  0.1245  0.8945
  360MOL0     H48566   7.407   3.470   5.277  0.1115 -0.5516  0.4099
  360MOL0     H48567   7.434   3.304   5.240  0.7121  0.0548  2.4715
  360MOL0     H48568   7.656   3.408   5.091  2.0908 -2.2857  0.9714
  360MOL0     H48569   7.611   3.546   5.178  1.7152  0.4229  1.5695
  360MOL0     H48570   7.686   3.300   5.328  3.3007 -0.1301 -1.7165
  360MOL0     H48571   7.673   3.473   5.392 -2.6645  0.4041 -0.3308
  360MOL0     H48572   7.852   3.529   5.264 -2.0006 -0.4916  3.6323
  360MOL0     H48573   7.864   3.370   5.183  1.3060  0.6511 -0.0198
  360MOL0     H48574   8.022   3.437   5.402  1.0804 -1.2370  0.3346
  360MOL0     H48575   7.872   3.417   5.484 -1.0002 -3.4726  0.7397
  360MOL0     H48576   8.017   3.213   5.314  0.5497  1.5490 -0.3325
  360MOL0     H48577   7.861   3.182   5.396 -0.5004  0.7159 -1.1949
  360MOL0     H48578   8.014   3.247   5.622  1.3935 -0.9091  0.9141
  360MOL0     H48579   8.013   3.091   5.543 -1.0148  0.3613  0.8939
  360MOL0     H48580   7.295   3.392   4.815 -0.2843 -1.2669  1.3391
  360MOL0     H48581   7.107   3.389   4.639  1.0346  2.8781 -0.5430
  360MOL0     H48582   6.792   3.312   4.459  1.1250  2.1930 -1.4776
  360MOL0     H48583   6.645   3.274   4.273 -0.4290 -0.0819 -0.2316
  360MOL0     H48584   7.375   4.091   4.704  0.2230 -0.8057 -0.5964
  360MOL0     H48585   7.517   4.168   4.875 -2.3658  0.3104 -2.9906
  360MOL0     H48586   7.798   4.172   5.073  0.1808  2.5428 -0.5519
  360MOL0     H48587   7.970   4.308   5.176  0.9683 -1.2717 -0.8542
  360MOL0     H48588   8.231   4.391   5.454  3.0157 -0.4867 -1.5046
  360MOL0     H48589   8.156   4.388   5.287  1.0557  0.5125 -0.3263
  360MOL0     H48590   8.247   4.171   5.243 -1.0330 -0.8487  0.7473
  360MOL0     H48591   8.314   4.165   5.408 -2.3526 -3.1152 -1.8094
  360MOL0     H48592   8.477   4.336   5.371  1.2637 -0.3372 -0.8279
  360MOL0     H48593   8.419   4.376   5.208 -0.3089  2.1226  1.7920
  360MOL0     H48594   8.548   4.117   5.301 -0.6923  2.5584  1.6429
  360MOL0     H48595   8.476   4.144   5.139  0.9763 -1.6698  0.3659
  360MOL0     H48596   8.798   4.378   5.071 -1.8832  1.2647  0.0939
  360MOL0     H48597   7.953   4.059   5.527  2.8802  0.9122 -0.4525
  360MOL0     H48598   7.676   3.847   5.431 -1.1450  0.8756  1.4238
  360MOL0     H48599   7.850   3.803   5.455  1.1749 -0.1658  0.2490
  360MOL0     H48600   7.771   3.921   5.559 -3.0145 -1.2397  0.0838
  361MOL0     O48601   1.916  10.210   6.861  0.2305 -0.1195 -0.1786
  361MOL0     C48602   1.885  10.109   6.800  1.0821 -0.1950 -0.2404
  361MOL0     O48603   1.964  10.032   6.721  0.4604 -0.5415 -0.1254
  361MOL0     C48604   2.101  10.051   6.717 -0.2428  0.2821 -0.4369
  361MOL0     C48605   2.152  10.153   6.642 -0.1014 -0.8480 -0.5160
  361MOL0     C48606   2.288  10.173   6.633 -0.1367 -0.0183 -0.5010
  361MOL0     C48607   2.386  10.088   6.695 -0.4275  0.5794 -0.4622
  361MOL0     O48608   2.522  10.128   6.687  0.4091 -0.5498  0.3723
  361MOL0     C48609   2.620  10.031   6.725  0.4900  0.3200  0.9862
  361MOL0     C48610   2.765  10.068   6.687  0.4189  0.0229 -0.2033
  361MOL0     C48611   2.796  10.062   6.549 -0.0721  0.2947  0.0302
  361MOL0     C48612   2.947  10.064   6.525 -0.1720 -0.1931  0.3511
  361MOL0     C48613   2.965  10.053   6.374  0.3698 -0.3581 -0.5461
  361MOL0     C48614   3.113  10.020   6.344  1.0229 -0.2167 -0.8660
  361MOL0     C48615   3.201  10.136   6.370  0.6854 -0.3094  0.6042
  361MOL0     C48616   3.174  10.252   6.271  0.2159  0.4863 -0.2009
  361MOL0     N48617   3.161  10.213   6.135 -0.9579 -0.7888  1.6754
  361MOL0     C48618   3.266  10.185   6.059  0.0118 -0.6879  0.3079
  361MOL0     C48619   3.225  10.127   5.949 -0.2736 -0.3981 -0.1021
  361MOL0     C48620   3.315  10.051   5.845 -0.0926  0.4899  0.1485
  361MOL0     C48621   3.280  10.082   5.692 -0.6007  0.4564 -1.7000
  361MOL0     C48622   3.299  10.223   5.651  0.4446 -0.0913 -0.0109
  361MOL0     C48623   3.434  10.286   5.675 -0.4737 -0.0884 -0.3799
  361MOL0     O48624   3.529  10.200   5.609  0.0122 -1.0698 -0.2935
  361MOL0     C48625   3.663  10.227   5.633  0.1736 -0.1362 -0.1021
  361MOL0     C48626   3.721  10.196   5.753  0.0387  0.0534  0.1897
  361MOL0     C48627   3.856  10.220   5.773  0.3270  0.1857  0.3399
  361MOL0     C48628   3.929  10.281   5.678 -0.7017 -0.5270  0.9723
  361MOL0     C48629   4.076  10.317   5.695 -0.2633 -0.2237 -0.5187
  361MOL0     O48630   4.136  10.377   5.583  0.1371 -0.1676 -0.4036
  361MOL0     C48631   4.271  10.385   5.594  0.3757  0.3874 -0.3521
  361MOL0     C48632   4.356  10.276   5.617  0.9095  0.2959  0.3319
  361MOL0     C48633   4.497  10.292   5.614 -0.2825 -0.5747 -0.3596
  361MOL0     C48634   4.559  10.415   5.602  0.4584  0.1401  0.2677
  361MOL0     O48635   4.695  10.430   5.620  0.3093 -0.6783 -0.1928
  361MOL0     C48636   4.750  10.563   5.635 -0.4100  0.5539 -0.0870
  361MOL0     C48637   4.902  10.565   5.670  0.1519 -0.3460  0.2761
  361MOL0     C48638   4.984  10.503   5.562 -0.4086  0.1376  0.5627
  361MOL0     C48639   5.132  10.519   5.600 -0.6117  0.0341  0.3858
  361MOL0     C48640   5.230  10.454   5.509 -0.2452  0.3214  0.6025
  361MOL0     C48641   5.370  10.479   5.565 -0.1353 -0.4221  0.0617
  361MOL0     C48642   5.479  10.418   5.490  0.4801  0.3838 -0.1493
  361MOL0     C48643   5.508  10.454   5.340  0.4547  0.2118 -0.6142
  361MOL0    Cl48644   5.540  10.622   5.300  0.7551 -0.5144  0.4291
  361MOL0     C48645   4.465  10.522   5.576  0.4765  0.5764 -0.1382
  361MOL0     C48646   4.332  10.508   5.581  0.5229 -0.1716  0.8578
  361MOL0     O48647   4.138  10.272   5.797 -0.4376  0.1810 -0.5547
  361MOL0     C48648   3.869  10.313   5.550 -0.0277  0.0082  0.1230
  361MOL0     C48649   3.735  10.293   5.531 -0.4697  0.0918  0.7796
  361MOL0     N48650   3.084  10.124   5.948 -0.0859  0.0738 -0.1105
  361MOL0     N48651   3.049  10.169   6.067 -0.7339  0.1872 -0.4448
  361MOL0     C48652   2.334   9.986   6.779 -0.3384  0.3238  0.5906
  361MOL0     C48653   2.188   9.968   6.785 -0.0313  0.4232 -0.6086
  361MOL0     C48654   1.739  10.086   6.787  0.0622  0.8542  0.2250
  361MOL0     C48655   1.648  10.185   6.741 -0.4277  0.0952 -0.0733
  361MOL0     C48656   1.514  10.158   6.723 -0.8155 -0.1042 -0.2455
  361MOL0     C48657   1.463  10.031   6.745  0.3226 -0.6264 -0.0938
  361MOL0     O48658   1.328  10.007   6.713 -0.5233  0.0209  0.3176
  361MOL0     C48659   1.269   9.879   6.713  0.1532 -0.2451  0.1114
  361MOL0     C48660   1.210   9.854   6.850 -0.3760  0.7656  0.3854
  361MOL0     C48661   1.079   9.947   6.870 -0.5433 -0.8161 -0.4310
  361MOL0     C48662   1.008   9.901   6.991 -0.6720  0.8148 -0.4010
  361MOL0     C48663   0.937   9.766   6.991 -0.3017 -0.0516  0.1549
  361MOL0     C48664   0.873   9.664   6.994  0.5168 -0.8401 -0.3152
  361MOL0     C48665   1.549   9.936   6.811  0.2324 -0.7072 -0.4974
  361MOL0     C48666   1.686   9.962   6.832 -0.0158  0.0491 -1.6674
  361MOL0     C48667   1.768   9.859   6.913  0.4342 -0.6724 -0.6185
  361MOL0     H48668   2.081  10.225   6.604 -1.7802  0.7957  4.8851
  361MOL0     H48669   2.314  10.259   6.573 -2.4348  1.0075 -0.1446
  361MOL0     H48670   2.616  10.028   6.835 -1.1801 -0.5914  0.9361
  361MOL0     H48671   2.583   9.933   6.693 -0.2682  1.2067 -0.9604
  361MOL0     H48672   2.835  10.005   6.741 -1.8976 -0.5008  2.4463
  361MOL0     H48673   2.781  10.172   6.716 -0.6284  0.5746 -1.4876
  361MOL0     H48674   2.744  10.148   6.506  2.2415  2.1653  0.7857
  361MOL0     H48675   2.752   9.972   6.504 -1.2503  0.7602  0.2144
  361MOL0     H48676   2.980  10.152   6.581 -1.4257 -0.4587  1.5626
  361MOL0     H48677   2.988   9.978   6.579  0.7518  0.6493  1.0223
  361MOL0     H48678   2.905   9.968   6.340  1.1161 -2.2729  2.5269
  361MOL0     H48679   2.933  10.139   6.315  0.7740 -1.1500 -1.9690
  361MOL0     H48680   3.144   9.933   6.402 -0.3561 -1.1597 -1.4640
  361MOL0     H48681   3.121   9.993   6.238 -0.7030  2.2385 -1.7249
  361MOL0     H48682   3.303  10.101   6.352 -0.1179 -1.3629 -2.3573
  361MOL0     H48683   3.203  10.172   6.474 -4.0980  1.0393  0.4923
  361MOL0     H48684   3.077  10.296   6.298 -1.9342 -2.1622 -2.8842
  361MOL0     H48685   3.253  10.327   6.278  0.7223 -0.0682  0.1525
  361MOL0     H48686   3.367  10.210   6.092 -0.1876  0.0430  0.3767
  361MOL0     H48687   3.417  10.081   5.871  0.5134 -1.6377  0.3515
  361MOL0     H48688   3.296   9.947   5.871 -3.6774  0.7255 -1.0085
  361MOL0     H48689   3.341  10.018   5.628  1.6322 -0.7973  1.4564
  361MOL0     H48690   3.174  10.056   5.682 -0.9484  1.5333 -1.0355
  361MOL0     H48691   3.223  10.283   5.701  1.3883 -0.9103  2.5917
  361MOL0     H48692   3.288  10.233   5.543 -0.5787 -0.3346  0.0606
  361MOL0     H48693   3.456  10.304   5.781 -3.5877 -0.2855  0.3989
  361MOL0     H48694   3.434  10.384   5.626  0.2596  0.5189  0.7830
  361MOL0     H48695   3.656  10.150   5.826 -0.6241  1.2356  0.3679
  361MOL0     H48696   3.909  10.185   5.861  0.9371  1.5792  0.5649
  361MOL0     H48697   4.307  10.179   5.620  0.6519  0.4384  3.2491
  361MOL0     H48698   4.552  10.198   5.612  0.3623 -0.2719  1.4428
  361MOL0     H48699   4.738  10.619   5.541  3.4043 -1.8400 -2.3024
  361MOL0     H48700   4.698  10.624   5.709 -0.4163 -1.7617  1.9380
  361MOL0     H48701   4.933  10.670   5.668  1.3952 -0.6229 -3.3056
  361MOL0     H48702   4.912  10.522   5.770 -0.7554 -0.5045  0.3100
  361MOL0     H48703   4.939  10.403   5.558  0.9226 -0.4652  0.3771
  361MOL0     H48704   4.970  10.546   5.462 -0.6742 -2.6814 -0.7243
  361MOL0     H48705   5.149  10.474   5.698 -2.9595  0.5075  1.0802
  361MOL0     H48706   5.151  10.626   5.603 -2.2726  0.3434  0.6902
  361MOL0     H48707   5.230  10.504   5.412 -1.4825 -0.3084  0.2578
  361MOL0     H48708   5.209  10.349   5.488 -1.1134  0.3559  1.2313
  361MOL0     H48709   5.388  10.587   5.555 -1.4489 -0.0766  1.1934
  361MOL0     H48710   5.372  10.446   5.669  1.9754  0.8486  0.5041
  361MOL0     H48711   5.459  10.310   5.490 -0.9892  0.6417 -0.8327
  361MOL0     H48712   5.575  10.438   5.540  0.5754 -3.2194  1.4009
  361MOL0     H48713   5.590  10.398   5.295  0.8146  0.1392  0.1146
  361MOL0     H48714   5.410  10.427   5.298  0.5517 -2.0542  0.4541
  361MOL0     H48715   4.506  10.621   5.557  0.9015  0.3385 -0.4789
  361MOL0     H48716   4.271  10.598   5.583 -0.8943 -1.1013  0.5653
  361MOL0     H48717   3.925  10.352   5.466  2.0511  1.4979  2.1172
  361MOL0     H48718   3.687  10.325   5.439  0.7998  3.2044  1.0815
  361MOL0     H48719   2.415   9.928   6.822 -0.8930  0.3382  1.7033
  361MOL0     H48720   2.139   9.885   6.835 -0.4912  1.1944  0.2510
  361MOL0     H48721   1.689  10.285   6.729  0.5195 -0.5544 -3.2309
  361MOL0     H48722   1.439  10.229   6.690 -1.6214 -1.1322 -0.7206
  361MOL0     H48723   1.344   9.800   6.704 -1.4388 -1.6470 -1.4433
  361MOL0     H48724   1.196   9.869   6.633 -0.9588 -1.8548  1.2604
  361MOL0     H48725   1.288   9.871   6.924 -0.7310  0.6105  0.8047
  361MOL0     H48726   1.177   9.751   6.866  2.1337  0.3420  3.9193
  361MOL0     H48727   1.020   9.939   6.778  0.7440  1.0848 -1.4619
  361MOL0     H48728   1.111  10.050   6.884 -0.6396 -1.1695  4.2871
  361MOL0     H48729   1.070   9.891   7.081 -0.7005 -2.0568 -0.6102
  361MOL0     H48730   0.927   9.973   7.008 -1.7278  0.5431 -3.6753
  361MOL0     H48731   0.825   9.568   6.986  0.6159 -0.7627 -2.6092
  361MOL0     H48732   1.520   9.840   6.853  2.3679 -0.0893  2.7844
  361MOL0     H48733   1.705   9.776   6.945  1.4305 -1.8798 -1.6579
  361MOL0     H48734   1.845   9.818   6.848 -1.4028  0.6865 -3.9127
  361MOL0     H48735   1.819   9.902   6.999  0.7117 -1.6126 -0.3045
  362MOL0     O48736   0.501  10.697   8.359  0.2144  0.1571  0.3027
  362MOL0     C48737   0.476  10.582   8.403 -0.6203  0.2249 -0.0625
  362MOL0     O48738   0.567  10.481   8.416  0.4748  0.3724  1.0757
  362MOL0     C48739   0.683  10.495   8.345 -0.1006 -0.3393  0.4300
  362MOL0     C48740   0.787  10.569   8.401 -0.6646 -0.1453  0.3558
  362MOL0     C48741   0.904  10.584   8.327 -1.1987  0.0908 -0.0757
  362MOL0     C48742   0.925  10.512   8.207 -0.1469 -0.1098 -0.8966
  362MOL0     O48743   1.037  10.527   8.124  0.3213  0.9271  0.4294
  362MOL0     C48744   1.146  10.604   8.162 -0.2449  0.1564 -0.0556
  362MOL0     C48745   1.250  10.618   8.045 -0.4748  0.2557  0.1297
  362MOL0     C48746   1.385  10.683   8.079 -0.4514 -0.1092  0.1360
  362MOL0     C48747   1.509  10.617   8.013  0.6840 -0.3302  0.1441
  362MOL0     C48748   1.634  10.647   8.096 -0.2438  0.5095  0.1075
  362MOL0     C48749   1.753  10.578   8.028 -0.4946  0.3546  0.0652
  362MOL0     C48750   1.875  10.610   8.130 -0.0341 -0.2059  0.2772
  362MOL0     C48751   2.004  10.557   8.068 -0.5493 -0.3383 -0.2543
  362MOL0     N48752   2.122  10.592   8.140  0.8363  0.1645  0.1588
  362MOL0     C48753   2.143  10.561   8.277  0.3164 -0.6964  0.5170
  362MOL0     C48754   2.250  10.627   8.313  0.8960  0.9377  0.1905
  362MOL0     C48755   2.307  10.639   8.449 -0.6671 -0.2409 -0.2022
  362MOL0     C48756   2.441  10.559   8.445  0.5044 -0.0931 -0.1861
  362MOL0     C48757   2.553  10.634   8.370 -0.9305 -0.9524 -0.5619
  362MOL0     C48758   2.685  10.584   8.428 -0.1729  0.3820 -0.1739
  362MOL0     O48759   2.778  10.661   8.349  0.2395  0.3565  0.7033
  362MOL0     C48760   2.904  10.642   8.370  0.0615 -0.3563 -0.2510
  362MOL0     C48761   2.964  10.572   8.477  0.5331  0.5044 -0.5372
  362MOL0     C48762   3.106  10.581   8.497  0.0872 -0.6658 -0.8446
  362MOL0     C48763   3.184  10.661   8.413  0.3287  0.5329 -0.0605
  362MOL0     C48764   3.333  10.645   8.426 -0.1843  0.2933 -0.2519
  362MOL0     O48765   3.421  10.712   8.331 -0.4522 -0.2556  0.3352
  362MOL0     C48766   3.557  10.695   8.344 -0.0263 -0.3508  0.0566
  362MOL0     C48767   3.641  10.789   8.413  0.6856  0.2907  0.0951
  362MOL0     C48768   3.786  10.777   8.403 -0.6409 -0.3671  0.1390
  362MOL0     C48769   3.849  10.666   8.332 -1.1763 -0.7255  0.0602
  362MOL0     O48770   3.989  10.653   8.311  0.7870  0.2175  0.1860
  362MOL0     C48771   4.070  10.741   8.391  0.2960 -0.4471  0.9991
  362MOL0     C48772   4.206  10.685   8.413  0.5937 -0.6445  0.0086
  362MOL0     C48773   4.308  10.781   8.487  0.2536 -0.3286 -0.4818
  362MOL0     C48774   4.400  10.689   8.568  0.4369 -0.3579 -0.3958
  362MOL0     C48775   4.517  10.775   8.604 -0.7130 -0.7999 -0.6151
  362MOL0     C48776   4.607  10.710   8.707  0.4585  0.5056  0.2648
  362MOL0     C48777   4.751  10.781   8.714  0.2485  0.6085 -0.8481
  362MOL0     C48778   4.849  10.727   8.818 -0.4288  0.8070  0.0386
  362MOL0    Cl48779   4.956  10.610   8.747 -0.0556  0.2486 -0.0074
  362MOL0     C48780   3.764  10.576   8.274 -0.1307 -0.6899  0.9443
  362MOL0     C48781   3.624  10.594   8.275  0.0218  1.1208 -0.6306
  362MOL0     O48782   3.381  10.566   8.513 -1.1345 -1.0152 -0.3580
  362MOL0     C48783   3.125  10.746   8.324  0.4394  0.2455  0.1847
  362MOL0     C48784   2.980  10.736   8.302 -0.0073  0.6420  0.4621
  362MOL0     N48785   2.302  10.679   8.198  0.0807 -0.0515  0.4832
  362MOL0     N48786   2.217  10.673   8.097  0.0206  0.4361  0.1672
  362MOL0     C48787   0.818  10.439   8.160 -0.5756 -0.1296 -0.0943
  362MOL0     C48788   0.698  10.427   8.226 -0.1787  0.6132  0.2468
  362MOL0     C48789   0.333  10.545   8.429  0.4287 -0.0263  0.0806
  362MOL0     C48790   0.238  10.647   8.408  0.0845  0.4479 -0.0449
  362MOL0     C48791   0.098  10.621   8.412 -0.2446  0.4544  0.5130
  362MOL0     C48792   0.042  10.501   8.446 -0.1108  0.2904 -0.0076
  362MOL0     O48793  -0.090  10.471   8.476 -0.3793  0.0887 -0.2257
  362MOL0     C48794  -0.183  10.588   8.466  0.4038  0.0224  0.6318
  362MOL0     C48795  -0.318  10.540   8.525  0.5328 -0.0005 -0.1230
  362MOL0     C48796  -0.366  10.410   8.474  0.2241 -0.4494  0.5746
  362MOL0     C48797  -0.327  10.288   8.563  0.4387  0.2263  0.6371
  362MOL0     C48798  -0.405  10.166   8.511 -1.1017 -0.3161  0.0472
  362MOL0     C48799  -0.467  10.074   8.470 -0.4274  0.2933 -0.0634
  362MOL0     C48800   0.140  10.396   8.481 -0.6592  0.1388  0.5131
  362MOL0     C48801   0.283  10.414   8.457  0.5213 -0.2421  0.2112
  362MOL0     C48802   0.377  10.301   8.490 -0.6447  0.4322  0.4391
  362MOL0     H48803   0.775  10.611   8.501 -1.1175  0.4237  0.0702
  362MOL0     H48804   0.989  10.636   8.371 -0.7732 -0.4435 -0.2468
  362MOL0     H48805   1.117  10.697   8.211  1.3574  0.5959  0.1247
  362MOL0     H48806   1.201  10.545   8.236 -1.2275 -1.9417 -0.9109
  362MOL0     H48807   1.209  10.673   7.959  4.5163  1.0760 -2.0468
  362MOL0     H48808   1.276  10.515   8.020  1.4738  0.8722 -0.5630
  362MOL0     H48809   1.396  10.660   8.186 -3.6068 -3.2055 -0.0203
  362MOL0     H48810   1.391  10.790   8.054 -1.9610 -0.6564 -3.0328
  362MOL0     H48811   1.490  10.510   7.998 -0.7563  0.0813 -1.2039
  362MOL0     H48812   1.518  10.657   7.912  0.3796  1.8565  0.9386
  362MOL0     H48813   1.660  10.753   8.107  0.8669  0.0754  2.2127
  362MOL0     H48814   1.633  10.610   8.199  2.4064  1.9664  0.7583
  362MOL0     H48815   1.732  10.472   8.012  0.7688  0.1356 -0.2068
  362MOL0     H48816   1.766  10.621   7.929  1.3064  0.8579  0.4866
  362MOL0     H48817   1.858  10.577   8.233  3.0931 -1.1530  0.5679
  362MOL0     H48818   1.878  10.720   8.130 -0.8747 -0.1687  0.8881
  362MOL0     H48819   1.999  10.448   8.055 -3.4041 -0.2636 -0.3609
  362MOL0     H48820   2.023  10.598   7.969  1.9759 -2.5685 -0.8060
  362MOL0     H48821   2.076  10.518   8.351 -0.4620 -0.7052 -0.1660
  362MOL0     H48822   2.316  10.743   8.481 -1.5050 -0.4755  0.8871
  362MOL0     H48823   2.226  10.598   8.511 -1.0697  1.6788  0.6157
  362MOL0     H48824   2.481  10.544   8.546  1.3630 -0.6740 -0.5999
  362MOL0     H48825   2.427  10.463   8.396  0.0891 -0.6511  0.9866
  362MOL0     H48826   2.538  10.742   8.374 -0.3880 -0.7279 -3.0746
  362MOL0     H48827   2.549  10.608   8.264  2.0874 -2.0639 -0.5108
  362MOL0     H48828   2.697  10.476   8.418 -2.9731  0.0764 -1.0397
  362MOL0     H48829   2.688  10.617   8.532 -2.2460 -0.1743  0.0979
  362MOL0     H48830   2.901  10.501   8.529  0.8442  1.7619  1.6618
  362MOL0     H48831   3.153  10.516   8.570  0.5447 -0.7226 -1.1868
  362MOL0     H48832   3.593  10.865   8.473 -0.5090 -0.5124  0.1857
  362MOL0     H48833   3.828  10.859   8.462 -2.9822 -1.0438  2.9981
  362MOL0     H48834   4.083  10.831   8.331  0.2234 -0.2908  1.2152
  362MOL0     H48835   4.017  10.757   8.486  1.3560  1.1373  1.3569
  362MOL0     H48836   4.194  10.586   8.459 -1.0903 -1.5383 -2.1703
  362MOL0     H48837   4.250  10.651   8.319 -0.3552 -1.0719 -0.2986
  362MOL0     H48838   4.367  10.841   8.417 -3.8479  2.8367 -1.6159
  362MOL0     H48839   4.253  10.845   8.557 -1.1735  0.4077 -2.1927
  362MOL0     H48840   4.429  10.606   8.502 -0.9603 -1.0838 -0.1338
  362MOL0     H48841   4.343  10.652   8.653  0.9726 -0.1171  0.0779
  362MOL0     H48842   4.493  10.872   8.648 -1.2524 -0.0216 -2.5542
  362MOL0     H48843   4.590  10.793   8.525  1.1666  2.2292  1.5854
  362MOL0     H48844   4.552  10.724   8.800 -1.6754  1.0130 -1.0082
  362MOL0     H48845   4.617  10.602   8.695  0.0249  0.7066 -2.6770
  362MOL0     H48846   4.724  10.884   8.741 -0.4563 -0.2226  2.0228
  362MOL0     H48847   4.794  10.786   8.614  1.2532  1.1144 -0.4107
  362MOL0     H48848   4.904  10.813   8.857 -3.0727  1.9162  1.6103
  362MOL0     H48849   4.804  10.693   8.912 -1.7872  3.5286  0.4875
  362MOL0     H48850   3.802  10.497   8.210 -0.5207 -2.7283  3.0940
  362MOL0     H48851   3.570  10.522   8.215  3.4607 -4.5588  2.2224
  362MOL0     H48852   3.179  10.819   8.265  0.7226 -0.2109 -0.1315
  362MOL0     H48853   2.952  10.790   8.212 -2.4035 -4.4058 -2.2674
  362MOL0     H48854   0.834  10.400   8.059  1.2570 -0.2890  0.2309
  362MOL0     H48855   0.626  10.360   8.180  2.5229 -3.6973  1.7018
  362MOL0     H48856   0.272  10.747   8.381  0.4548  1.0476  2.4163
  362MOL0     H48857   0.040  10.711   8.390 -1.9948 -0.7116  0.1662
  362MOL0     H48858  -0.197  10.615   8.361 -1.9827  1.5805  1.2817
  362MOL0     H48859  -0.144  10.667   8.532 -0.0496 -0.5222  1.5796
  362MOL0     H48860  -0.389  10.619   8.497  1.1083  0.7676  0.5263
  362MOL0     H48861  -0.305  10.530   8.633  0.6480  2.8445  0.2225
  362MOL0     H48862  -0.329  10.392   8.372 -0.0265  2.0355 -0.0027
  362MOL0     H48863  -0.473  10.414   8.454  0.8611 -1.6756 -4.5435
  362MOL0     H48864  -0.219  10.272   8.560  0.3489 -1.1316  2.7006
  362MOL0     H48865  -0.354  10.303   8.668 -1.6609  0.6003  0.0890
  362MOL0     H48866  -0.514   9.987   8.428 -0.3661  0.4264 -0.4075
  362MOL0     H48867   0.108  10.300   8.521  1.3837  0.3357  2.9099
  362MOL0     H48868   0.311  10.215   8.498 -1.5189  0.9606 -0.8071
  362MOL0     H48869   0.428  10.278   8.396 -1.2277 -4.2698  1.0166
  362MOL0     H48870   0.453  10.313   8.568 -1.5758 -3.0899  2.0942
  363MOL0     O48871   5.646   2.659   0.258  0.1242 -0.4025 -0.4486
  363MOL0     C48872   5.601   2.778   0.257 -0.1269  0.6499  1.3288
  363MOL0     O48873   5.674   2.892   0.235 -0.3524 -0.0576 -0.0997
  363MOL0     C48874   5.802   2.911   0.279 -0.2762 -0.5251 -0.0760
  363MOL0     C48875   5.878   2.821   0.347  0.2156 -1.1196  0.3362
  363MOL0     C48876   6.007   2.845   0.378 -0.5571 -0.1351  1.0517
  363MOL0     C48877   6.067   2.974   0.353 -0.4793  0.8049  0.3795
  363MOL0     O48878   6.193   2.966   0.392 -0.0316 -0.5153 -0.1369
  363MOL0     C48879   6.259   3.084   0.415 -0.0194  0.6633 -0.3976
  363MOL0     C48880   6.409   3.050   0.460  1.8462 -0.4073  0.2964
  363MOL0     C48881   6.476   3.190   0.460  0.0241  1.5419  0.1252
  363MOL0     C48882   6.503   3.251   0.329 -0.2088 -0.0056  0.8732
  363MOL0     C48883   6.627   3.331   0.319  0.1874 -0.0312 -0.8286
  363MOL0     C48884   6.735   3.248   0.267 -0.2595  0.4102 -0.0266
  363MOL0     C48885   6.870   3.312   0.289 -0.5499  0.4507 -0.2637
  363MOL0     C48886   6.992   3.239   0.232 -0.0106  1.7040 -0.6279
  363MOL0     N48887   7.106   3.326   0.217  0.8068  1.1851  0.4059
  363MOL0     C48888   7.195   3.347   0.317 -0.4161  0.5285  0.0261
  363MOL0     C48889   7.284   3.440   0.260  0.8805 -0.5326 -0.2408
  363MOL0     C48890   7.406   3.508   0.318  0.0407 -0.7975  0.0766
  363MOL0     C48891   7.399   3.511   0.472 -0.3278 -0.9797  0.8062
  363MOL0     C48892   7.513   3.594   0.539 -0.7861 -0.2742  0.6752
  363MOL0     C48893   7.661   3.555   0.517  0.0979  0.5391 -0.0058
  363MOL0     O48894   7.691   3.557   0.376 -0.4163 -0.1353  0.3748
  363MOL0     C48895   7.819   3.547   0.327 -0.4911 -0.4124  0.1148
  363MOL0     C48896   7.841   3.549   0.186  0.7183 -0.7887  0.4768
  363MOL0     C48897   7.970   3.553   0.133  0.8981 -0.2747  0.5925
  363MOL0     C48898   8.079   3.549   0.211 -0.0211 -0.9406  0.8107
  363MOL0     C48899   8.214   3.555   0.151 -0.0920  0.2391  0.1643
  363MOL0     O48900   8.320   3.530   0.236  0.2697  0.6675 -0.3450
  363MOL0     C48901   8.456   3.537   0.213  0.4173  0.1129  1.3164
  363MOL0     C48902   8.509   3.503   0.088 -0.0458  0.1525  0.5414
  363MOL0     C48903   8.639   3.537   0.052  0.8585 -1.0661 -0.0873
  363MOL0     C48904   8.721   3.588   0.148 -0.9787  0.1728 -0.1978
  363MOL0     O48905   8.859   3.601   0.108 -0.5702  1.3788  0.1047
  363MOL0     C48906   8.960   3.664   0.188 -0.0078  0.6608  0.1982
  363MOL0     C48907   8.987   3.812   0.132  1.0818 -0.0420 -0.5446
  363MOL0     C48908   9.105   3.871   0.209  0.7408  0.2548  0.2631
  363MOL0     C48909   9.155   4.011   0.152 -0.4451 -0.0348 -0.2735
  363MOL0     C48910   9.049   4.126   0.137  0.5550 -0.4002  1.1746
  363MOL0     C48911   9.003   4.190   0.263  0.6386  0.3671 -0.1154
  363MOL0     C48912   8.910   4.308   0.222 -0.2477  0.3931 -0.0303
  363MOL0     C48913   8.803   4.327   0.330 -1.5778 -0.5778 -0.0988
  363MOL0    Cl48914   8.713   4.456   0.279 -0.1329 -0.3432 -0.0444
  363MOL0     C48915   8.680   3.614   0.282  0.8454 -0.0760 -0.8586
  363MOL0     C48916   8.544   3.585   0.314  0.0858 -0.6525 -0.3658
  363MOL0     O48917   8.222   3.597   0.033  0.4533 -0.2484 -0.0986
  363MOL0     C48918   8.061   3.538   0.347 -0.9211 -0.0829 -0.4253
  363MOL0     C48919   7.930   3.530   0.404 -0.3164  0.0098  0.6224
  363MOL0     N48920   7.259   3.448   0.122  0.2704 -0.6065  0.0795
  363MOL0     N48921   7.153   3.374   0.097 -0.3753  0.2914 -0.4083
  363MOL0     C48922   6.002   3.058   0.266  0.7705 -0.6517  0.2747
  363MOL0     C48923   5.865   3.032   0.241  0.0504  0.5226 -0.2187
  363MOL0     C48924   5.453   2.806   0.259  0.0074  0.0009 -0.8187
  363MOL0     C48925   5.406   2.936   0.282  0.1752 -0.5571  0.0815
  363MOL0     C48926   5.277   2.975   0.281  0.0250 -0.1202 -0.0235
  363MOL0     C48927   5.180   2.879   0.251  0.2649  0.2509 -0.3729
  363MOL0     O48928   5.051   2.922   0.252 -0.5238 -0.2602  0.3838
  363MOL0     C48929   4.950   2.840   0.195  1.1350  0.1120  0.6015
  363MOL0     C48930   4.825   2.911   0.159  0.1381  1.0522  0.7873
  363MOL0     C48931   4.734   2.933   0.286 -0.0600  0.0969  0.3099
  363MOL0     C48932   4.592   2.986   0.243 -0.0109  0.5736  0.4605
  363MOL0     C48933   4.508   3.004   0.355  0.8036  0.2500 -0.7024
  363MOL0     C48934   4.447   3.042   0.454 -0.2370 -0.3358  0.9613
  363MOL0     C48935   5.214   2.745   0.239 -1.5046  0.1970 -0.0638
  363MOL0     C48936   5.352   2.707   0.238  0.5017  0.3208  0.1530
  363MOL0     C48937   5.381   2.567   0.201 -0.1161  0.1570  0.2110
  363MOL0     H48938   5.845   2.720   0.369  1.2205 -1.1214  2.0098
  363MOL0     H48939   6.068   2.766   0.421  2.7994  1.2670 -0.7267
  363MOL0     H48940   6.254   3.138   0.320 -1.1965  0.5767 -0.3947
  363MOL0     H48941   6.208   3.149   0.486 -0.2123  1.8707 -1.5947
  363MOL0     H48942   6.466   2.971   0.409  0.4300 -0.7255 -0.8556
  363MOL0     H48943   6.412   3.006   0.560  0.7059 -0.1904  0.4427
  363MOL0     H48944   6.563   3.172   0.524 -0.0002 -1.7468 -0.6116
  363MOL0     H48945   6.417   3.264   0.513  0.8473  1.0934  1.7116
  363MOL0     H48946   6.492   3.176   0.249  0.5127  1.0159 -0.2172
  363MOL0     H48947   6.421   3.316   0.301  0.0880  0.6184  1.4244
  363MOL0     H48948   6.606   3.412   0.248  1.1156  1.0078  0.0405
  363MOL0     H48949   6.649   3.380   0.414  3.5953 -2.2370 -0.3316
  363MOL0     H48950   6.729   3.149   0.313  0.3597 -0.3615 -1.5255
  363MOL0     H48951   6.736   3.243   0.157 -0.1412  3.1143 -0.2042
  363MOL0     H48952   6.883   3.318   0.398  1.2357 -0.6477 -0.3727
  363MOL0     H48953   6.868   3.411   0.243 -1.2596  1.4100  1.6865
  363MOL0     H48954   7.017   3.145   0.283 -0.0657  1.8914 -0.2531
  363MOL0     H48955   6.966   3.210   0.130 -1.0437 -0.6713  0.2371
  363MOL0     H48956   7.194   3.312   0.419 -1.6396  0.0989 -0.1133
  363MOL0     H48957   7.494   3.460   0.275  0.1520 -0.3647 -0.1829
  363MOL0     H48958   7.408   3.612   0.284  3.5877 -0.2817  1.4396
  363MOL0     H48959   7.304   3.558   0.498  0.1406 -0.0496  0.8853
  363MOL0     H48960   7.414   3.411   0.515  0.5095 -0.7089  1.1668
  363MOL0     H48961   7.491   3.587   0.646 -3.4902 -1.5707  0.1233
  363MOL0     H48962   7.498   3.697   0.505 -1.4155 -0.6611 -0.2650
  363MOL0     H48963   7.686   3.453   0.548 -0.6723 -0.3091 -2.0510
  363MOL0     H48964   7.728   3.617   0.577  0.8987 -1.7914  1.6486
  363MOL0     H48965   7.755   3.571   0.125 -1.0709  0.5823  3.2604
  363MOL0     H48966   7.978   3.561   0.025 -0.4997 -0.9406  0.4134
  363MOL0     H48967   8.462   3.456   0.002  2.0294 -0.5421 -0.2775
  363MOL0     H48968   8.683   3.510  -0.043 -1.2729  0.0540 -1.4798
  363MOL0     H48969   8.946   3.645   0.295 -0.8036 -0.0769 -0.0250
  363MOL0     H48970   9.049   3.610   0.155 -1.1852 -0.5150 -1.1698
  363MOL0     H48971   8.976   3.808   0.023 -1.4541  3.6427 -0.5885
  363MOL0     H48972   8.895   3.868   0.150  1.5029  0.0072  1.8620
  363MOL0     H48973   9.072   3.874   0.314  2.6929 -0.9170  0.9587
  363MOL0     H48974   9.189   3.801   0.205  1.8801  1.3857  2.4296
  363MOL0     H48975   9.205   3.988   0.057 -0.2401  0.1172 -0.2011
  363MOL0     H48976   9.235   4.035   0.222 -0.3672 -2.0268  0.3846
  363MOL0     H48977   8.962   4.096   0.078 -0.3133  3.9357 -0.1377
  363MOL0     H48978   9.092   4.210   0.081 -1.0249  0.0156  0.5323
  363MOL0     H48979   8.942   4.121   0.322  0.4140  3.3170  3.4566
  363MOL0     H48980   9.083   4.225   0.329 -1.6415  0.6415  2.6843
  363MOL0     H48981   8.864   4.295   0.124  1.5443  0.7637 -0.9736
  363MOL0     H48982   8.963   4.404   0.217  0.3855  0.0186 -0.8586
  363MOL0     H48983   8.733   4.243   0.337 -0.4652 -1.4885  0.4066
  363MOL0     H48984   8.855   4.348   0.424 -1.2046 -0.9891 -0.2047
  363MOL0     H48985   8.743   3.653   0.361  0.4354  2.0430 -1.5193
  363MOL0     H48986   8.493   3.598   0.408 -0.5561 -1.1002 -0.6435
  363MOL0     H48987   8.147   3.553   0.412 -1.1279  1.2257 -0.4320
  363MOL0     H48988   7.920   3.533   0.512 -1.7062  2.0840  0.5026
  363MOL0     H48989   6.035   3.152   0.224  0.7582 -1.7961 -2.5087
  363MOL0     H48990   5.811   3.094   0.170  1.9871  2.8015  0.1702
  363MOL0     H48991   5.479   3.011   0.311 -1.7429  1.0097  1.1383
  363MOL0     H48992   5.245   3.078   0.297  2.0954  1.3026 -3.7751
  363MOL0     H48993   4.916   2.764   0.266 -1.1970 -1.5665 -2.0957
  363MOL0     H48994   4.987   2.790   0.105  1.4235  1.8961 -0.3203
  363MOL0     H48995   4.775   2.852   0.082  1.7471 -1.4482  1.5148
  363MOL0     H48996   4.859   3.004   0.113  0.9150 -1.5626 -4.8680
  363MOL0     H48997   4.777   2.997   0.364 -1.8229 -0.8765  2.1523
  363MOL0     H48998   4.707   2.838   0.332 -0.0742  0.4449  1.0301
  363MOL0     H48999   4.600   3.080   0.187 -2.9694 -0.1557 -1.3972
  363MOL0     H49000   4.546   2.905   0.185 -2.0613  0.5390  2.0416
  363MOL0     H49001   4.395   3.065   0.545 -1.0807 -0.9155  0.6335
  363MOL0     H49002   5.140   2.667   0.226  1.5345 -2.9936  0.1384
  363MOL0     H49003   5.411   2.500   0.282 -2.9367  0.0291  1.2562
  363MOL0     H49004   5.290   2.518   0.165 -0.5431  0.7584  0.4762
  363MOL0     H49005   5.449   2.568   0.114  1.0601 -1.9267  1.0097
  364MOL0     O49006  10.644   7.940   0.065 -0.2258  0.2510  0.2510
  364MOL0     C49007  10.651   7.841  -0.009  0.7025 -0.5684 -0.9898
  364MOL0     O49008  10.769   7.783  -0.032 -0.0064 -0.2817  0.4773
  364MOL0     C49009  10.892   7.841  -0.008 -0.4597  0.6172 -0.8543
  364MOL0     C49010  11.000   7.756  -0.043  1.1124 -0.9998 -0.0555
  364MOL0     C49011  11.132   7.795  -0.020  0.0507  1.0563 -0.1342
  364MOL0     C49012  11.167   7.917   0.032  1.0000 -0.1831  0.2673
  364MOL0     O49013  11.296   7.955   0.050  0.1539  0.4910 -0.7669
  364MOL0     C49014  11.340   8.040  -0.054  0.4804  0.8515  0.2597
  364MOL0     C49015  11.436   8.141  -0.001  0.0837 -0.5562  0.3064
  364MOL0     C49016  11.491   8.207  -0.128 -0.0893 -0.0562 -1.2636
  364MOL0     C49017  11.620   8.302  -0.096  0.3438  0.8957 -0.3393
  364MOL0     C49018  11.618   8.383   0.038 -0.4133 -0.3597  0.8824
  364MOL0     C49019  11.749   8.432   0.074 -0.0604 -0.6847 -0.6024
  364MOL0     C49020  11.745   8.545   0.182  0.0044 -0.5961 -0.1292
  364MOL0     C49021  11.891   8.592   0.197  0.4110 -0.0915 -0.3806
  364MOL0     N49022  11.896   8.697   0.300  0.2308  0.1864  0.5279
  364MOL0     C49023  11.903   8.673   0.428  0.3402 -0.7100 -0.2683
  364MOL0     C49024  11.922   8.798   0.488  0.9718 -0.7030  0.7163
  364MOL0     C49025  11.918   8.833   0.623  0.2713  0.4238 -0.8222
  364MOL0     C49026  12.028   8.787   0.724  0.1387 -0.4326 -0.0735
  364MOL0     C49027  12.166   8.831   0.678 -0.7511  0.5460  0.2506
  364MOL0     C49028  12.274   8.799   0.782  0.6875 -1.0068  0.5358
  364MOL0     O49029  12.260   8.877   0.900 -0.2613  0.0511  0.4537
  364MOL0     C49030  12.369   8.947   0.953  0.1285  0.1948 -0.2554
  364MOL0     C49031  12.502   8.909   0.944 -0.4081  0.3621 -0.4124
  364MOL0     C49032  12.600   8.977   1.023  0.0640 -0.5839 -0.8610
  364MOL0     C49033  12.563   9.091   1.100  0.0982 -0.1235 -0.8806
  364MOL0     C49034  12.666   9.173   1.169  0.0221  0.1995 -0.4631
  364MOL0     O49035  12.787   9.189   1.101 -0.1239  0.8239  0.5906
  364MOL0     C49036  12.889   9.265   1.164 -0.2144  0.5121  1.4009
  364MOL0     C49037  13.007   9.198   1.195  0.0340  0.0374 -0.4198
  364MOL0     C49038  13.120   9.253   1.247  0.8632 -0.3767  0.0441
  364MOL0     C49039  13.122   9.393   1.252 -0.4154  0.5289 -0.2631
  364MOL0     O49040  13.248   9.447   1.284  0.2663 -0.0610  0.7066
  364MOL0     C49041  13.280   9.587   1.304  0.3664 -0.2466 -0.1716
  364MOL0     C49042  13.415   9.578   1.381  0.7149  0.0975  0.2221
  364MOL0     C49043  13.532   9.557   1.289  0.5057  0.0782 -0.6386
  364MOL0     C49044  13.660   9.527   1.364 -0.9581 -0.4951  0.1541
  364MOL0     C49045  13.718   9.638   1.462  0.8769  0.1937  0.1009
  364MOL0     C49046  13.842   9.592   1.537 -0.4366 -0.5026  0.1742
  364MOL0     C49047  13.891   9.710   1.621 -0.0208  0.0172 -0.3485
  364MOL0     C49048  14.030   9.683   1.676  1.2250  0.5031 -0.3938
  364MOL0    Cl49049  14.072   9.837   1.767 -0.5055  0.1873  0.6067
  364MOL0     C49050  13.000   9.465   1.231 -1.6251  0.5560 -0.4593
  364MOL0     C49051  12.887   9.404   1.184  0.5356  0.5599  0.7116
  364MOL0     O49052  12.647   9.214   1.284 -0.5829 -0.3019 -0.4161
  364MOL0     C49053  12.430   9.126   1.111  0.6142  0.6564  0.4661
  364MOL0     C49054  12.338   9.059   1.039  0.0310  0.0570  0.7154
  364MOL0     N49055  11.954   8.881   0.379  0.8350  0.1245 -0.0020
  364MOL0     N49056  11.932   8.816   0.261 -1.1842  0.2000 -0.3874
  364MOL0     C49057  11.058   8.013   0.045 -0.3827 -0.6911 -0.5036
  364MOL0     C49058  10.925   7.976   0.035  0.4291  0.6027  0.2745
  364MOL0     C49059  10.518   7.770  -0.029 -0.3290 -0.8125  0.4361
  364MOL0     C49060  10.420   7.784   0.070 -1.1982  0.0947  0.3982
  364MOL0     C49061  10.294   7.725   0.056 -0.5026 -0.5137  0.0574
  364MOL0     C49062  10.266   7.637  -0.053 -0.8833  0.2981 -0.4878
  364MOL0     O49063  10.145   7.577  -0.065  0.1483 -0.2923  0.2213
  364MOL0     C49064  10.044   7.561   0.037  0.1209 -0.2648  0.4989
  364MOL0     C49065   9.934   7.460   0.001  0.4504  0.1653 -0.4254
  364MOL0     C49066   9.996   7.327  -0.057  0.0145 -0.1903 -1.4602
  364MOL0     C49067   9.895   7.271  -0.150 -0.2529  0.0872  0.5105
  364MOL0     C49068   9.802   7.184  -0.077  0.0122 -0.4419 -0.0772
  364MOL0     C49069   9.706   7.144  -0.009  0.0890  0.1953  0.4262
  364MOL0     C49070  10.368   7.629  -0.157  1.0366 -0.4036 -0.3695
  364MOL0     C49071  10.491   7.689  -0.141 -1.1599  0.1422  0.3808
  364MOL0     C49072  10.599   7.662  -0.236 -0.1241 -0.3658 -0.4789
  364MOL0     H49073  10.962   7.662  -0.083 -0.1154 -0.1041 -1.0802
  364MOL0     H49074  11.219   7.730  -0.019  0.5852  1.7568  0.9986
  364MOL0     H49075  11.390   7.982  -0.132  1.3105  2.1502 -0.2173
  364MOL0     H49076  11.270   8.099  -0.113  2.3161  1.5765 -1.3131
  364MOL0     H49077  11.518   8.087   0.048  0.6666 -0.2473 -0.3114
  364MOL0     H49078  11.397   8.213   0.071 -1.3272 -0.5847 -0.4032
  364MOL0     H49079  11.416   8.271  -0.173 -2.4191 -3.5143 -2.7581
  364MOL0     H49080  11.519   8.127  -0.198  0.2031 -3.2289  2.1364
  364MOL0     H49081  11.711   8.241  -0.098 -0.6281 -0.8210 -4.8291
  364MOL0     H49082  11.632   8.377  -0.174  1.5940 -0.2819 -1.3327
  364MOL0     H49083  11.550   8.468   0.026  1.6400  1.1394 -0.9998
  364MOL0     H49084  11.578   8.324   0.121  1.2671 -2.4666  0.3108
  364MOL0     H49085  11.796   8.345   0.122 -4.0039 -2.4890  0.4229
  364MOL0     H49086  11.808   8.473  -0.008  0.4252  2.0319  0.9919
  364MOL0     H49087  11.695   8.514   0.275  0.8490 -0.4398  0.3872
  364MOL0     H49088  11.684   8.625   0.141  0.0844 -2.3429 -4.1502
  364MOL0     H49089  11.951   8.508   0.233 -1.7722 -1.1933  0.9260
  364MOL0     H49090  11.928   8.627   0.100 -0.6467 -1.3299 -1.2739
  364MOL0     H49091  11.898   8.576   0.477 -0.5071 -1.6831 -2.1900
  364MOL0     H49092  11.908   8.942   0.625  0.1705  0.4235  1.4017
  364MOL0     H49093  11.819   8.799   0.655 -0.0199  2.7881  1.1434
  364MOL0     H49094  12.005   8.837   0.819  1.1769 -0.8130  0.3838
  364MOL0     H49095  12.024   8.682   0.751 -0.6584 -0.4484 -0.2273
  364MOL0     H49096  12.171   8.935   0.646  3.9663  1.2974  2.5031
  364MOL0     H49097  12.196   8.771   0.591  1.1221 -0.0149  1.2315
  364MOL0     H49098  12.369   8.810   0.728  1.2968 -2.2665  1.2840
  364MOL0     H49099  12.276   8.690   0.798 -1.8865 -1.0586  0.8651
  364MOL0     H49100  12.528   8.820   0.889 -1.1064 -0.1623  0.0838
  364MOL0     H49101  12.704   8.946   1.016 -0.3019 -1.6631 -1.9200
  364MOL0     H49102  13.012   9.091   1.178 -0.8814  0.3129 -2.8394
  364MOL0     H49103  13.204   9.191   1.277  0.6146  0.2841  2.3306
  364MOL0     H49104  13.309   9.635   1.210  2.6807 -0.4836  0.3630
  364MOL0     H49105  13.214   9.658   1.355  0.5925 -1.0862  1.3409
  364MOL0     H49106  13.417   9.672   1.438  2.6255  1.5432 -2.0009
  364MOL0     H49107  13.425   9.490   1.445 -0.3228 -1.9711 -2.2862
  364MOL0     H49108  13.521   9.474   1.219 -1.0037  2.2549 -3.1683
  364MOL0     H49109  13.538   9.644   1.224 -1.6228 -0.7052 -1.9923
  364MOL0     H49110  13.736   9.511   1.286 -1.9846 -0.8338 -0.7957
  364MOL0     H49111  13.649   9.441   1.430 -2.8312 -0.8886 -0.6048
  364MOL0     H49112  13.636   9.650   1.533  0.9676 -2.1445  0.6758
  364MOL0     H49113  13.742   9.735   1.416  0.3639  0.3576  0.1750
  364MOL0     H49114  13.816   9.501   1.591 -0.0299 -1.4161 -1.1151
  364MOL0     H49115  13.927   9.567   1.472  0.7660 -0.6894  1.7526
  364MOL0     H49116  13.826   9.726   1.707  0.1435 -0.4164 -0.1440
  364MOL0     H49117  13.888   9.799   1.557 -1.8271 -1.2326 -2.1271
  364MOL0     H49118  14.027   9.590   1.733  5.5167  0.0031 -0.6578
  364MOL0     H49119  14.101   9.679   1.592 -0.9477  1.5609 -2.4109
  364MOL0     H49120  13.009   9.573   1.239 -2.6911  1.0106 -3.9106
  364MOL0     H49121  12.800   9.466   1.166  0.2766 -0.6542 -3.0461
  364MOL0     H49122  12.407   9.217   1.165 -1.2738  1.3743 -1.4135
  364MOL0     H49123  12.236   9.089   1.064 -0.7210 -2.0646  0.4422
  364MOL0     H49124  11.068   8.116   0.078 -2.9089 -0.8566  1.1153
  364MOL0     H49125  10.851   8.050   0.066 -2.1306 -1.1229 -1.3474
  364MOL0     H49126  10.423   7.858   0.149  0.7332  3.6288 -2.6795
  364MOL0     H49127  10.222   7.746   0.134  1.0765 -0.1360  1.4878
  364MOL0     H49128   9.983   7.651   0.049  0.1742  0.0708 -1.3443
  364MOL0     H49129  10.100   7.516   0.119  0.7285 -1.7791 -0.7036
  364MOL0     H49130   9.871   7.518  -0.067  1.1354  2.3802  0.7547
  364MOL0     H49131   9.868   7.443   0.086  0.4439 -0.3082 -0.5177
  364MOL0     H49132  10.012   7.261   0.029 -1.6461  1.8674  0.5450
  364MOL0     H49133  10.096   7.343  -0.098 -0.7488 -1.1200 -3.8670
  364MOL0     H49134   9.838   7.351  -0.199 -0.2113 -1.2370 -1.8368
  364MOL0     H49135   9.949   7.218  -0.229  1.8079 -0.6027  2.2742
  364MOL0     H49136   9.625   7.106   0.051  1.4931 -1.8741  1.1130
  364MOL0     H49137  10.350   7.573  -0.248  3.8494 -0.4370 -1.0050
  364MOL0     H49138  10.671   7.742  -0.254  1.6011 -1.8112 -0.3052
  364MOL0     H49139  10.656   7.575  -0.203  2.6754  1.3954 -0.3522
  364MOL0     H49140  10.549   7.637  -0.331 -2.9380  1.5485  0.3383
  365MOL0     O49141  11.229   9.209   7.943  0.9499 -0.2803  0.1764
  365MOL0     C49142  11.171   9.310   7.898  0.2632 -0.5073 -0.9380
  365MOL0     O49143  11.214   9.395   7.800 -0.1977 -0.2016  0.7789
  365MOL0     C49144  11.314   9.367   7.710 -0.2503  0.7744 -0.6446
  365MOL0     C49145  11.314   9.446   7.591  0.6933  0.0685 -0.4262
  365MOL0     C49146  11.403   9.425   7.493 -0.6744 -0.6652 -0.3535
  365MOL0     C49147  11.500   9.320   7.499  0.2718 -1.3612  0.8205
  365MOL0     O49148  11.606   9.330   7.414 -0.2107  0.6348 -0.2990
  365MOL0     C49149  11.668   9.213   7.368 -0.7180 -0.2269  0.6966
  365MOL0     C49150  11.777   9.253   7.262 -0.4406  0.4327  0.4036
  365MOL0     C49151  11.877   9.361   7.297  0.8064  0.0952 -0.1442
  365MOL0     C49152  11.951   9.329   7.430  0.2118  0.5824 -0.0862
  365MOL0     C49153  12.052   9.442   7.444 -0.6904 -0.5958  0.3751
  365MOL0     C49154  12.184   9.399   7.371  1.2307 -0.9101 -0.2883
  365MOL0     C49155  12.276   9.519   7.339 -0.0606  0.0143  0.6680
  365MOL0     C49156  12.293   9.627   7.449 -0.2787  0.4310  0.5414
  365MOL0     N49157  12.372   9.741   7.399 -0.2954  0.8672  0.0204
  365MOL0     C49158  12.488   9.733   7.322 -0.1719  0.4413 -0.8677
  365MOL0     C49159  12.548   9.852   7.325  0.0404  0.1086 -0.2534
  365MOL0     C49160  12.679   9.877   7.261  0.5720 -1.0198  1.1478
  365MOL0     C49161  12.733  10.024   7.256 -0.1606 -0.2258 -0.3929
  365MOL0     C49162  12.802  10.072   7.383  0.5111  0.2842  0.6922
  365MOL0     C49163  12.940  10.018   7.379 -0.3960  0.5741  0.0921
  365MOL0     O49164  13.027  10.101   7.294  0.1241 -0.3422 -1.4810
  365MOL0     C49165  13.155  10.064   7.276 -0.1361 -0.1093  0.7439
  365MOL0     C49166  13.224   9.979   7.362 -0.7087  0.0181  0.4420
  365MOL0     C49167  13.356   9.949   7.338 -0.1665 -0.3925 -0.1740
  365MOL0     C49168  13.427  10.004   7.231 -0.7562  0.7187 -0.4684
  365MOL0     C49169  13.566   9.957   7.206  0.2957  0.2473  0.0358
  365MOL0     O49170  13.602   9.836   7.267  0.4994 -0.4787  0.0636
  365MOL0     C49171  13.725   9.773   7.227  0.7162  0.2355  0.5936
  365MOL0     C49172  13.800   9.707   7.322 -0.1549  0.3556 -0.4809
  365MOL0     C49173  13.909   9.631   7.295 -0.1483 -0.0622  0.2046
  365MOL0     C49174  13.962   9.630   7.162 -0.1872 -0.6013  0.8267
  365MOL0     O49175  14.076   9.570   7.117 -0.5597 -0.4154  0.2513
  365MOL0     C49176  14.128   9.458   7.199  0.2010  0.3330 -0.9422
  365MOL0     C49177  14.230   9.376   7.120 -0.3065 -0.4241  0.1808
  365MOL0     C49178  14.378   9.425   7.135  0.2691  0.3268  0.0791
  365MOL0     C49179  14.463   9.351   7.031 -0.5594 -0.3800  0.1758
  365MOL0     C49180  14.609   9.407   7.045  0.2537  0.8131  0.1939
  365MOL0     C49181  14.702   9.328   6.947 -0.6776 -0.1147 -0.0761
  365MOL0     C49182  14.856   9.362   6.975 -0.5907  0.2673 -0.4444
  365MOL0     C49183  14.942   9.299   6.866 -0.1990  0.2220  0.4655
  365MOL0    Cl49184  15.114   9.314   6.878 -0.6085 -0.3448 -0.0675
  365MOL0     C49185  13.889   9.695   7.065  0.0989 -0.0310 -0.2384
  365MOL0     C49186  13.769   9.757   7.093  0.9927 -0.8129  0.4040
  365MOL0     O49187  13.644  10.024   7.135 -0.1554 -0.9463 -0.3152
  365MOL0     C49188  13.362  10.100   7.146  0.2816  0.6450  0.3196
  365MOL0     C49189  13.225  10.122   7.168  0.0408 -0.4501 -0.5315
  365MOL0     N49190  12.476   9.928   7.408  0.4187 -0.6045 -0.2407
  365MOL0     N49191  12.369   9.863   7.452 -0.7728  0.2080  0.2281
  365MOL0     C49192  11.492   9.234   7.610 -0.4171 -0.2554  0.7063
  365MOL0     C49193  11.401   9.259   7.716 -0.4015 -0.1618 -0.5528
  365MOL0     C49194  11.033   9.344   7.947 -1.0687  0.5641  0.6017
  365MOL0     C49195  10.942   9.382   7.845 -0.1126  0.1773  0.4053
  365MOL0     C49196  10.810   9.411   7.873 -0.5974  0.6807 -0.0015
  365MOL0     C49197  10.762   9.392   8.003 -0.3780 -1.2432  0.3159
  365MOL0     O49198  10.632   9.431   8.017 -0.2244  0.9618 -0.1304
  365MOL0     C49199  10.588   9.442   8.153  0.6428  0.0016 -0.8548
  365MOL0     C49200  10.447   9.518   8.148 -0.6424  0.4382  0.3287
  365MOL0     C49201  10.382   9.550   8.279 -0.6146 -0.3789  0.0206
  365MOL0     C49202  10.241   9.599   8.250 -0.2314  0.3597 -0.0239
  365MOL0     C49203  10.147   9.497   8.224 -0.7229 -0.1781  0.2595
  365MOL0     C49204  10.077   9.400   8.195 -0.0522 -1.0813 -0.2668
  365MOL0     C49205  10.849   9.360   8.105 -0.2979 -0.6557 -0.5495
  365MOL0     C49206  10.989   9.334   8.078 -0.3958 -0.4170  0.3656
  365MOL0     C49207  11.089   9.306   8.198  0.5260 -0.1570  0.9733
  365MOL0     H49208  11.237   9.522   7.584 -2.4056 -2.8583 -0.9610
  365MOL0     H49209  11.400   9.479   7.398 -2.0981 -1.6434 -0.8922
  365MOL0     H49210  11.717   9.162   7.451 -1.1371  0.1668  1.1938
  365MOL0     H49211  11.595   9.147   7.321 -1.9479  1.8105 -0.3805
  365MOL0     H49212  11.721   9.298   7.179  2.2437 -0.3446 -1.9884
  365MOL0     H49213  11.841   9.169   7.234  1.5568  2.1457 -0.4626
  365MOL0     H49214  11.822   9.456   7.297 -0.5378 -0.6060 -2.5823
  365MOL0     H49215  11.950   9.357   7.216  2.1889 -0.8991  1.0963
  365MOL0     H49216  11.883   9.343   7.514  0.0019 -1.6853  0.1819
  365MOL0     H49217  11.993   9.228   7.438  0.2843  0.7431  2.1645
  365MOL0     H49218  12.014   9.540   7.414  0.4801 -0.1114  0.4235
  365MOL0     H49219  12.074   9.468   7.548 -1.3311  0.6827  0.2074
  365MOL0     H49220  12.241   9.329   7.433  2.5966 -0.3747 -0.9171
  365MOL0     H49221  12.158   9.333   7.287  0.5547  0.1533 -0.9355
  365MOL0     H49222  12.237   9.569   7.250  1.4302  1.8083  0.9754
  365MOL0     H49223  12.376   9.477   7.330 -0.0543  0.4609 -2.5016
  365MOL0     H49224  12.191   9.658   7.471 -0.6272 -0.9882  1.0741
  365MOL0     H49225  12.325   9.571   7.538 -1.9482 -0.2659  0.7384
  365MOL0     H49226  12.528   9.646   7.269 -1.6067 -0.2607 -0.8500
  365MOL0     H49227  12.759   9.808   7.290  2.6321 -0.2792 -2.1856
  365MOL0     H49228  12.672   9.856   7.154 -0.0315  0.1056  0.9593
  365MOL0     H49229  12.803  10.032   7.172 -1.6407  0.5076 -1.5980
  365MOL0     H49230  12.652  10.093   7.231  0.4412  0.7347  0.2496
  365MOL0     H49231  12.748  10.038   7.472 -0.6593 -0.5803 -0.3385
  365MOL0     H49232  12.805  10.181   7.385 -0.4761  0.3161  1.6173
  365MOL0     H49233  12.937   9.917   7.337  0.0238 -0.4525  2.3977
  365MOL0     H49234  12.966  10.016   7.485  2.1540 -0.0742 -0.4667
  365MOL0     H49235  13.187   9.938   7.455 -1.0616 -0.7095 -0.0062
  365MOL0     H49236  13.406   9.865   7.385  1.6272  0.5065 -0.3586
  365MOL0     H49237  13.754   9.711   7.420  0.0694  0.2827 -0.3729
  365MOL0     H49238  13.963   9.572   7.368  2.5074  0.0432 -1.5201
  365MOL0     H49239  14.177   9.485   7.293 -2.3669  4.4817 -0.5331
  365MOL0     H49240  14.048   9.385   7.215  0.7577 -0.1528 -0.3120
  365MOL0     H49241  14.232   9.272   7.153  1.3909 -0.3986  0.2644
  365MOL0     H49242  14.198   9.362   7.016  1.6641  2.5437 -0.9754
  365MOL0     H49243  14.377   9.534   7.122  0.7859  0.3552  0.2984
  365MOL0     H49244  14.418   9.410   7.235  2.4523  0.4507 -0.7213
  365MOL0     H49245  14.424   9.366   6.930 -0.8412  2.1383  0.5989
  365MOL0     H49246  14.468   9.244   7.054  1.9769  0.0674  2.2663
  365MOL0     H49247  14.643   9.386   7.147 -0.1940  0.1936  0.2235
  365MOL0     H49248  14.625   9.513   7.023  2.7616  0.8937  2.0147
  365MOL0     H49249  14.686   9.221   6.960  0.6338 -0.9337 -3.9825
  365MOL0     H49250  14.697   9.367   6.845 -0.3553  2.5116  0.8289
  365MOL0     H49251  14.885   9.319   7.071 -0.2942 -1.0726 -1.1133
  365MOL0     H49252  14.872   9.471   6.976 -2.3508  0.5657  1.3718
  365MOL0     H49253  14.927   9.191   6.877 -0.6741  0.2464  0.1329
  365MOL0     H49254  14.920   9.338   6.766  2.2511  0.2548 -0.1102
  365MOL0     H49255  13.918   9.687   6.961 -1.0559  1.3658 -0.6991
  365MOL0     H49256  13.719   9.803   7.008  1.2777  1.7488  1.5224
  365MOL0     H49257  13.412  10.132   7.055  0.0800 -3.3475 -1.3967
  365MOL0     H49258  13.185  10.201   7.104  3.2143  1.1872 -0.7069
  365MOL0     H49259  11.565   9.155   7.623 -0.3129  0.2355  3.9096
  365MOL0     H49260  11.389   9.188   7.797 -5.4452  0.9184 -0.0623
  365MOL0     H49261  10.967   9.385   7.739 -1.5678 -3.3402 -0.1705
  365MOL0     H49262  10.744   9.433   7.790  0.3296  0.3116 -0.8633
  365MOL0     H49263  10.655   9.507   8.210 -0.2315 -0.0440  0.2746
  365MOL0     H49264  10.572   9.348   8.206 -3.8222  0.5293 -0.8624
  365MOL0     H49265  10.378   9.456   8.090 -1.5058  0.9764  0.7667
  365MOL0     H49266  10.465   9.615   8.103 -3.8660  2.0791  2.2310
  365MOL0     H49267  10.437   9.630   8.330 -0.2793 -0.2196 -0.5834
  365MOL0     H49268  10.383   9.462   8.344  2.9863 -0.2875  0.3161
  365MOL0     H49269  10.209   9.643   8.345  4.4663 -0.4415  2.2260
  365MOL0     H49270  10.254   9.675   8.172 -1.0622  1.8743  1.2538
  365MOL0     H49271  10.025   9.307   8.200  1.0008 -1.8028 -1.8204
  365MOL0     H49272  10.813   9.358   8.208 -1.5844 -0.1733 -0.9789
  365MOL0     H49273  11.111   9.397   8.255 -1.5796 -0.2160  1.9894
  365MOL0     H49274  11.035   9.252   8.277  1.1972 -1.7341  0.3948
  365MOL0     H49275  11.178   9.247   8.175  0.1810 -0.1978 -0.3263
  366MOL0     O49276   4.988   2.075   8.512 -0.4368  0.1693  0.0274
  366MOL0     C49277   5.004   2.135   8.407 -0.8026  0.4556  0.3037
  366MOL0     O49278   4.926   2.100   8.290  0.0795  0.7966  0.0366
  366MOL0     C49279   4.833   2.005   8.320 -0.0937  0.0636  0.4809
  366MOL0     C49280   4.705   2.046   8.366 -0.1076 -0.0887  0.2840
  366MOL0     C49281   4.596   1.963   8.376 -0.4961  0.0930  0.9471
  366MOL0     C49282   4.615   1.832   8.360  0.2540  0.6499  0.5368
  366MOL0     O49283   4.507   1.758   8.396  0.0795  0.6538  0.5745
  366MOL0     C49284   4.513   1.612   8.378 -0.4697 -0.8383 -0.2195
  366MOL0     C49285   4.380   1.565   8.444 -0.1597  0.0551 -0.1520
  366MOL0     C49286   4.378   1.414   8.431 -0.1550  0.4533 -0.3429
  366MOL0     C49287   4.253   1.351   8.508 -0.1904 -0.2896  0.1086
  366MOL0     C49288   4.221   1.203   8.489 -0.4178 -1.0089  0.2861
  366MOL0     C49289   4.330   1.106   8.528  0.0448 -0.0909 -0.0386
  366MOL0     C49290   4.399   1.112   8.669  0.1775 -0.7578 -0.9849
  366MOL0     C49291   4.297   1.120   8.790 -0.5110 -0.1185 -0.4951
  366MOL0     N49292   4.358   1.093   8.913  0.3610  0.6826  0.6842
  366MOL0     C49293   4.378   0.968   8.970  1.0896 -0.3431 -0.4631
  366MOL0     C49294   4.446   0.988   9.090  0.3647 -0.5277  0.2087
  366MOL0     C49295   4.471   0.884   9.198 -0.9001 -0.4557 -0.5145
  366MOL0     C49296   4.628   0.841   9.179  0.3332  0.1826  0.2584
  366MOL0     C49297   4.665   0.744   9.294 -0.1304  0.0143  0.1087
  366MOL0     C49298   4.814   0.699   9.283  0.5128  0.2870  0.0953
  366MOL0     O49299   4.902   0.810   9.287  0.0100  0.5960 -0.1823
  366MOL0     C49300   5.041   0.801   9.317  0.5475  0.7154 -0.0034
  366MOL0     C49301   5.090   0.680   9.376 -1.0425 -0.1981  0.4367
  366MOL0     C49302   5.212   0.682   9.435  0.3304  0.1962 -0.0310
  366MOL0     C49303   5.291   0.799   9.438  0.3360 -0.4582  0.3263
  366MOL0     C49304   5.409   0.820   9.537  0.1825  0.4853 -0.3987
  366MOL0     O49305   5.499   0.925   9.523  0.3688 -0.4361 -0.4043
  366MOL0     C49306   5.592   0.969   9.619  0.5600  0.1306 -0.1219
  366MOL0     C49307   5.573   0.962   9.762 -0.2423  0.0540 -0.3720
  366MOL0     C49308   5.665   1.018   9.849 -0.0840 -0.2325 -0.0643
  366MOL0     C49309   5.785   1.086   9.795 -0.3845 -0.3645 -0.6807
  366MOL0     O49310   5.894   1.152   9.858  0.0060  0.1539  0.0929
  366MOL0     C49311   5.940   1.104   9.978  0.1631  0.8358  0.5930
  366MOL0     C49312   5.977   0.958   9.968 -0.2522 -0.0232  0.2889
  366MOL0     C49313   6.086   0.929  10.075 -0.1858 -0.1806  0.7537
  366MOL0     C49314   6.114   0.789  10.051  0.4472  0.7003  0.1668
  366MOL0     C49315   6.204   0.733  10.165 -0.8461  0.6601 -0.6979
  366MOL0     C49316   6.248   0.584  10.150 -0.3298 -0.4690  0.4029
  366MOL0     C49317   6.149   0.474  10.189  1.0056  0.9835 -0.1419
  366MOL0     C49318   6.207   0.335  10.181 -0.2083  0.3971 -0.1829
  366MOL0    Cl49319   6.249   0.306  10.001  0.4830  0.4065 -0.1797
  366MOL0     C49320   5.792   1.094   9.658  0.9540  0.1322 -0.5022
  366MOL0     C49321   5.696   1.039   9.568  0.3669  0.0139  0.0953
  366MOL0     O49322   5.419   0.727   9.620 -0.7335 -0.0337 -0.8097
  366MOL0     C49323   5.248   0.908   9.364  0.0547 -1.0278  0.6576
  366MOL0     C49324   5.121   0.906   9.302 -0.3439 -0.6668  0.4500
  366MOL0     N49325   4.470   1.122   9.101  0.3001  0.0858  0.7562
  366MOL0     N49326   4.409   1.184   9.001 -0.1844  1.1018  0.8202
  366MOL0     C49327   4.740   1.780   8.314 -0.8883 -0.2597  0.2633
  366MOL0     C49328   4.851   1.868   8.296 -0.3029 -0.1430  0.5184
  366MOL0     C49329   5.108   2.237   8.393  0.2620  0.0178 -0.5100
  366MOL0     C49330   5.089   2.335   8.291 -0.1858  0.4590 -0.5822
  366MOL0     C49331   5.175   2.440   8.285 -0.1181 -0.4319 -0.5075
  366MOL0     C49332   5.269   2.464   8.386  0.1338  0.2089  0.3449
  366MOL0     O49333   5.342   2.577   8.361 -0.0544  0.4050 -0.3063
  366MOL0     C49334   5.469   2.598   8.431 -0.0892  0.3469  0.9266
  366MOL0     C49335   5.568   2.701   8.364 -0.4903  0.0188 -0.0134
  366MOL0     C49336   5.581   2.671   8.219  0.1243  0.2534 -0.1064
  366MOL0     C49337   5.696   2.744   8.153 -0.0525 -0.5405 -0.3218
  366MOL0     C49338   5.699   2.713   8.005  0.0010  0.6191  0.1822
  366MOL0     C49339   5.677   2.675   7.892 -0.6714 -0.3177 -0.2808
  366MOL0     C49340   5.299   2.365   8.481  0.1318 -0.4068 -0.1677
  366MOL0     C49341   5.218   2.249   8.487  0.0389  0.0741  0.2741
  366MOL0     C49342   5.255   2.145   8.592  0.0882  0.5334 -0.1767
  366MOL0     H49343   4.695   2.152   8.389  2.3371  0.5801 -1.3571
  366MOL0     H49344   4.498   1.993   8.411 -0.0561  1.2149  1.2465
  366MOL0     H49345   4.510   1.577   8.274 -3.1183 -1.0165 -0.1715
  366MOL0     H49346   4.596   1.561   8.429 -1.8974 -1.7279  1.3446
  366MOL0     H49347   4.293   1.604   8.390 -1.2911 -2.0086  0.0447
  366MOL0     H49348   4.366   1.591   8.549 -0.5090 -1.0390  0.0878
  366MOL0     H49349   4.471   1.370   8.467 -1.0785 -0.3480  1.1659
  366MOL0     H49350   4.371   1.380   8.327  2.3015 -1.1435 -0.0490
  366MOL0     H49351   4.265   1.366   8.616  1.0605  1.3684 -0.2000
  366MOL0     H49352   4.162   1.408   8.489  0.0321  0.6593  1.6919
  366MOL0     H49353   4.139   1.175   8.555 -0.9536 -1.9574 -0.7460
  366MOL0     H49354   4.181   1.201   8.387 -0.4084  1.7216  0.1458
  366MOL0     H49355   4.291   1.005   8.515  0.6222 -0.0981 -2.2369
  366MOL0     H49356   4.410   1.121   8.454  0.3099 -0.5320  0.1531
  366MOL0     H49357   4.469   1.196   8.666  0.2421 -0.8363 -2.8985
  366MOL0     H49358   4.452   1.019   8.687 -1.5543 -1.6713 -0.3360
  366MOL0     H49359   4.244   1.215   8.799 -1.1733 -0.5624  0.4269
  366MOL0     H49360   4.225   1.040   8.770 -1.0477  0.3819 -0.6181
  366MOL0     H49361   4.356   0.873   8.922  0.1479 -0.2671 -0.2221
  366MOL0     H49362   4.442   0.930   9.293 -2.9162 -0.1111 -1.2394
  366MOL0     H49363   4.409   0.796   9.177  1.4478 -1.9702 -1.5002
  366MOL0     H49364   4.648   0.799   9.080 -2.2643 -2.6476  0.8062
  366MOL0     H49365   4.688   0.933   9.183  1.0938 -0.3451  1.3974
  366MOL0     H49366   4.601   0.658   9.272  0.8219 -0.0182 -2.9608
  366MOL0     H49367   4.648   0.792   9.390  2.7876 -0.0357  0.7311
  366MOL0     H49368   4.819   0.650   9.185 -0.7753 -0.7655  0.5250
  366MOL0     H49369   4.830   0.610   9.345  0.6377 -2.0238 -3.0013
  366MOL0     H49370   5.033   0.588   9.376  0.1741 -1.0651  3.1832
  366MOL0     H49371   5.250   0.592   9.483 -1.5860 -0.2795  0.6871
  366MOL0     H49372   5.482   0.926   9.807  0.9541 -1.1821  1.1923
  366MOL0     H49373   5.655   1.006   9.956  0.8299 -0.8983 -0.0405
  366MOL0     H49374   6.037   1.153   9.994  1.7352 -1.8470 -0.0698
  366MOL0     H49375   5.867   1.111  10.058 -0.5349 -0.6753  0.1162
  366MOL0     H49376   5.884   0.907   9.992  0.0262  0.9312  4.0629
  366MOL0     H49377   6.010   0.928   9.868  1.9235  2.4300  0.1472
  366MOL0     H49378   6.165   1.006  10.073 -0.6275  0.3412  2.0731
  366MOL0     H49379   6.052   0.932  10.179 -1.6545  0.5051  0.2857
  366MOL0     H49380   6.169   0.763   9.960  1.4628 -0.2738  1.0299
  366MOL0     H49381   6.017   0.739  10.056 -1.2761  3.8568  1.0949
  366MOL0     H49382   6.172   0.749  10.268  1.5688  1.4785 -0.0075
  366MOL0     H49383   6.295   0.793  10.148 -0.3387  0.8336  2.1935
  366MOL0     H49384   6.267   0.569  10.043 -1.3121 -2.0672  0.4270
  366MOL0     H49385   6.344   0.572  10.202 -0.0726 -1.5456 -0.2860
  366MOL0     H49386   6.065   0.479  10.119 -0.2124  0.0581  1.1817
  366MOL0     H49387   6.121   0.491  10.293  2.4753  3.6725 -0.1114
  366MOL0     H49388   6.295   0.327  10.246 -1.4328  1.0156  1.6047
  366MOL0     H49389   6.136   0.255  10.205  1.9236 -1.7609 -0.6403
  366MOL0     H49390   5.880   1.139   9.615  0.4167 -0.7093 -2.6045
  366MOL0     H49391   5.705   1.069   9.464 -2.5198 -3.0332 -1.2124
  366MOL0     H49392   5.309   0.997   9.377  3.4656 -3.1099  0.2740
  366MOL0     H49393   5.085   0.989   9.242 -1.1926 -0.8356  0.7151
  366MOL0     H49394   4.759   1.675   8.294 -3.2387 -0.5796 -0.6256
  366MOL0     H49395   4.949   1.835   8.264 -0.1023  0.1447  0.8322
  366MOL0     H49396   5.012   2.320   8.216  0.1369  1.0569 -1.0414
  366MOL0     H49397   5.163   2.503   8.198  1.8719  0.7342  0.0068
  366MOL0     H49398   5.522   2.502   8.423 -1.2688 -0.1979 -1.5308
  366MOL0     H49399   5.444   2.621   8.535  3.5044  0.3293  1.9119
  366MOL0     H49400   5.665   2.680   8.409  0.6250  1.2795 -1.6820
  366MOL0     H49401   5.551   2.808   8.382 -0.2401  0.6002 -2.7750
  366MOL0     H49402   5.486   2.704   8.176 -0.2556 -1.2788 -0.5059
  366MOL0     H49403   5.594   2.564   8.200  0.8911  0.2605  0.3296
  366MOL0     H49404   5.699   2.853   8.170  0.3591 -0.2664 -2.0029
  366MOL0     H49405   5.794   2.715   8.192  0.3676  0.4013 -0.6385
  366MOL0     H49406   5.659   2.651   7.789  1.8527 -0.8265 -0.6885
  366MOL0     H49407   5.379   2.373   8.554  0.5203  0.5333 -0.6647
  366MOL0     H49408   5.350   2.175   8.638 -1.2621  1.5292  2.1180
  366MOL0     H49409   5.176   2.147   8.668 -2.8691  0.6600 -3.0322
  366MOL0     H49410   5.255   2.041   8.558  1.0465  1.1800 -2.3253
  367MOL0     O49411   5.285   4.606   6.555  0.4683  0.1438 -0.2838
  367MOL0     C49412   5.237   4.596   6.666 -0.6030 -0.3970  0.2936
  367MOL0     O49413   5.312   4.609   6.783 -0.4738  0.6381 -0.4980
  367MOL0     C49414   5.425   4.688   6.779 -0.0512 -0.2527 -0.5617
  367MOL0     C49415   5.555   4.638   6.798 -0.8257  0.6922 -0.2707
  367MOL0     C49416   5.659   4.721   6.792 -0.7980  0.1831 -0.0232
  367MOL0     C49417   5.649   4.855   6.759 -0.1546 -0.2835  0.1933
  367MOL0     O49418   5.778   4.923   6.759  0.8264  0.2551  0.0837
  367MOL0     C49419   5.765   5.058   6.713 -0.0523 -0.5528  0.7117
  367MOL0     C49420   5.882   5.094   6.625 -0.4862  0.0996  0.4811
  367MOL0     C49421   6.011   5.072   6.713 -0.9555  0.2605 -0.5265
  367MOL0     C49422   6.043   5.197   6.790 -0.4533 -0.0698  0.0016
  367MOL0     C49423   6.174   5.208   6.863  0.7825  0.4747 -0.8232
  367MOL0     C49424   6.291   5.174   6.772 -0.2826  0.4301 -0.2259
  367MOL0     C49425   6.421   5.214   6.849 -0.1446  0.0613  0.2617
  367MOL0     C49426   6.461   5.122   6.967 -0.4413 -0.8492  0.3187
  367MOL0     N49427   6.588   5.157   7.036  0.0657 -0.0093 -0.4615
  367MOL0     C49428   6.636   5.284   7.054 -0.1776  0.1241  0.2358
  367MOL0     C49429   6.742   5.271   7.129  0.3407 -0.0352 -1.0343
  367MOL0     C49430   6.830   5.375   7.172  0.4616 -0.6792 -1.1846
  367MOL0     C49431   6.951   5.395   7.077  0.8087  1.1342 -0.4038
  367MOL0     C49432   6.901   5.431   6.936  0.4648 -0.1410 -0.1145
  367MOL0     C49433   7.016   5.486   6.846  0.0466  0.5308 -0.1223
  367MOL0     O49434   7.094   5.380   6.792 -0.2065 -0.1594 -0.1192
  367MOL0     C49435   7.226   5.398   6.748 -0.3986 -0.4685  0.5814
  367MOL0     C49436   7.306   5.280   6.755 -0.0616  0.1388  0.5052
  367MOL0     C49437   7.446   5.296   6.734 -0.3500 -0.7538 -0.3740
  367MOL0     C49438   7.508   5.417   6.718  0.3098 -0.3070 -0.8089
  367MOL0     C49439   7.653   5.424   6.693  0.4251 -0.2483 -0.2437
  367MOL0     O49440   7.722   5.312   6.738 -0.1514 -0.1563  0.3492
  367MOL0     C49441   7.856   5.291   6.711 -0.0439  0.4624 -0.3701
  367MOL0     C49442   7.963   5.354   6.787  0.4469 -0.0396 -0.1964
  367MOL0     C49443   8.096   5.324   6.774 -0.8623  0.8301  0.1690
  367MOL0     C49444   8.133   5.227   6.680 -0.7529 -0.6571 -0.6950
  367MOL0     O49445   8.268   5.197   6.675 -0.3932  0.3864  0.0989
  367MOL0     C49446   8.313   5.063   6.659 -0.2758  0.4347 -0.6656
  367MOL0     C49447   8.467   5.058   6.658  0.0522  0.6805  0.0283
  367MOL0     C49448   8.523   5.136   6.546  0.3146  0.9716  0.1443
  367MOL0     C49449   8.533   5.042   6.417 -0.5868  0.0680  0.7148
  367MOL0     C49450   8.555   5.119   6.288 -0.8740  0.9046  0.7393
  367MOL0     C49451   8.692   5.182   6.282  0.1915  0.4153  0.4820
  367MOL0     C49452   8.804   5.075   6.289 -0.2340 -0.0378 -0.1683
  367MOL0     C49453   8.945   5.142   6.304 -0.3440  0.5058 -1.3672
  367MOL0    Cl49454   9.060   5.026   6.230 -0.5347  0.5964  0.7040
  367MOL0     C49455   8.037   5.181   6.592 -0.2387  1.2862 -0.2489
  367MOL0     C49456   7.900   5.187   6.624 -0.2414  0.2975 -0.4734
  367MOL0     O49457   7.711   5.527   6.653  0.4410  0.1501 -0.7905
  367MOL0     C49458   7.433   5.526   6.727 -0.1143 -0.0471 -0.5596
  367MOL0     C49459   7.293   5.523   6.741 -0.3230 -0.8910 -0.5194
  367MOL0     N49460   6.758   5.132   7.160 -0.8995  0.1438 -0.2322
  367MOL0     N49461   6.667   5.063   7.099  0.1337 -0.0012 -0.8240
  367MOL0     C49462   5.516   4.905   6.738  0.0413 -0.1490  0.3285
  367MOL0     C49463   5.410   4.824   6.746 -0.8580 -0.6937  0.0791
  367MOL0     C49464   5.097   4.563   6.678  0.1202  0.2558  0.0059
  367MOL0     C49465   5.034   4.586   6.801  0.2469 -1.3360  0.1782
  367MOL0     C49466   4.896   4.572   6.822 -0.3871 -0.0394 -0.4283
  367MOL0     C49467   4.819   4.526   6.716 -0.0012 -0.3501 -0.0683
  367MOL0     O49468   4.682   4.525   6.710 -0.8870  0.0382 -0.2454
  367MOL0     C49469   4.602   4.548   6.823 -0.0508  0.6905  0.3180
  367MOL0     C49470   4.455   4.520   6.803 -0.3179 -0.8970  0.5057
  367MOL0     C49471   4.377   4.634   6.735 -0.2212  0.0175  0.6406
  367MOL0     C49472   4.232   4.595   6.746  0.2801 -0.3166  0.1275
  367MOL0     C49473   4.176   4.624   6.886 -0.4953 -0.2716  0.7812
  367MOL0     C49474   4.149   4.656   6.998 -0.1093  0.0171 -0.0314
  367MOL0     C49475   4.884   4.493   6.598  0.4273  0.0309 -0.9318
  367MOL0     C49476   5.020   4.512   6.576  0.1154  0.8726  0.9053
  367MOL0     C49477   5.062   4.472   6.438  0.3270 -0.6413 -0.0281
  367MOL0     H49478   5.561   4.531   6.819 -2.3183  0.1538 -2.2781
  367MOL0     H49479   5.758   4.693   6.825  0.3234  2.6454 -1.0813
  367MOL0     H49480   5.678   5.055   6.646 -1.1706 -1.1245  2.1271
  367MOL0     H49481   5.751   5.138   6.786  3.2187  0.5144  0.2924
  367MOL0     H49482   5.875   5.193   6.580 -0.3795  0.3296  0.9636
  367MOL0     H49483   5.874   5.019   6.546  0.1755 -0.3357  0.8157
  367MOL0     H49484   6.097   5.054   6.648  1.3718  0.4914  2.2911
  367MOL0     H49485   6.010   4.988   6.784  0.1758 -0.2580 -1.0925
  367MOL0     H49486   6.046   5.281   6.719  2.4420  0.5801  0.7832
  367MOL0     H49487   5.960   5.215   6.859 -1.3609  2.2514 -1.5602
  367MOL0     H49488   6.184   5.312   6.894  0.4267  0.5209 -0.8507
  367MOL0     H49489   6.154   5.145   6.950 -0.4503 -1.6301 -2.5190
  367MOL0     H49490   6.294   5.070   6.740  0.5626  0.1344  0.7440
  367MOL0     H49491   6.272   5.238   6.685 -2.4807 -0.9502 -0.8160
  367MOL0     H49492   6.403   5.311   6.895 -0.8991  0.1091 -0.1129
  367MOL0     H49493   6.493   5.214   6.767 -1.1335 -1.0024 -0.6551
  367MOL0     H49494   6.384   5.126   7.044 -0.8642  0.9495 -0.1669
  367MOL0     H49495   6.463   5.027   6.912 -2.1871 -1.5752  1.4476
  367MOL0     H49496   6.606   5.382   7.017  1.1500  0.5000  0.1125
  367MOL0     H49497   6.785   5.474   7.184  2.3248  0.1567 -0.6949
  367MOL0     H49498   6.880   5.347   7.265  1.5930 -0.7769 -1.7957
  367MOL0     H49499   7.016   5.473   7.116  0.2061  1.9471 -0.9958
  367MOL0     H49500   7.008   5.302   7.067 -1.7906 -0.8714  1.5389
  367MOL0     H49501   6.821   5.505   6.941 -0.8575 -1.4741 -0.7302
  367MOL0     H49502   6.871   5.341   6.881  0.2604 -0.0574 -0.1391
  367MOL0     H49503   7.085   5.552   6.899 -0.4320 -0.1975  1.4535
  367MOL0     H49504   6.969   5.530   6.757 -0.9807  0.8722  0.5674
  367MOL0     H49505   7.262   5.186   6.785 -2.0129  0.7684 -0.2396
  367MOL0     H49506   7.511   5.210   6.739  4.6077  2.5434 -0.7448
  367MOL0     H49507   7.926   5.422   6.862 -0.9290 -1.2969  0.3202
  367MOL0     H49508   8.169   5.376   6.836  3.9123 -1.2571 -3.0880
  367MOL0     H49509   8.277   4.991   6.733 -2.4343  0.6361 -1.4667
  367MOL0     H49510   8.277   5.022   6.565  1.8595 -0.2878 -1.2309
  367MOL0     H49511   8.499   5.098   6.755  0.6457 -1.4349  0.7619
  367MOL0     H49512   8.510   4.958   6.667  2.3413  1.5034 -0.9357
  367MOL0     H49513   8.468   5.228   6.522  1.2255  2.3782  3.0383
  367MOL0     H49514   8.624   5.169   6.573 -0.3345  3.1426  0.0914
  367MOL0     H49515   8.439   4.986   6.410 -0.6033  0.0919  0.7458
  367MOL0     H49516   8.607   4.963   6.429 -0.4454 -0.4577 -2.5899
  367MOL0     H49517   8.475   5.193   6.279 -2.4289 -0.7922 -0.3041
  367MOL0     H49518   8.531   5.044   6.213  0.8685 -1.0386  2.0051
  367MOL0     H49519   8.699   5.241   6.190 -0.4692  1.7591  1.2578
  367MOL0     H49520   8.710   5.253   6.363  0.7539 -2.5347  3.1175
  367MOL0     H49521   8.803   5.018   6.195 -1.3715  0.0516 -0.2269
  367MOL0     H49522   8.783   4.997   6.362 -0.1068 -0.0740 -0.1708
  367MOL0     H49523   8.939   5.237   6.250 -1.9509  0.4265 -1.3919
  367MOL0     H49524   8.973   5.164   6.408 -2.0648  0.4550 -0.8572
  367MOL0     H49525   8.077   5.114   6.516  1.1381 -0.7539  2.1244
  367MOL0     H49526   7.831   5.126   6.566 -1.8866  0.6040  1.0529
  367MOL0     H49527   7.475   5.626   6.717  0.5650 -0.4578 -2.0621
  367MOL0     H49528   7.228   5.609   6.751 -0.8185 -1.2337 -0.7479
  367MOL0     H49529   5.477   5.002   6.707 -0.2135 -0.4349 -0.2629
  367MOL0     H49530   5.308   4.857   6.726 -0.9544 -1.0838 -0.0774
  367MOL0     H49531   5.090   4.629   6.883 -0.1314 -0.9534  0.2377
  367MOL0     H49532   4.853   4.584   6.921  0.3436 -1.3108  0.0647
  367MOL0     H49533   4.618   4.653   6.848 -3.6235  2.5880 -3.9312
  367MOL0     H49534   4.643   4.495   6.909 -0.5381 -0.0784  0.0940
  367MOL0     H49535   4.413   4.492   6.900 -0.8007  0.2486  0.6486
  367MOL0     H49536   4.443   4.433   6.738 -2.3589  1.3084 -2.3435
  367MOL0     H49537   4.401   4.628   6.629 -1.2385  0.4521  0.3754
  367MOL0     H49538   4.394   4.732   6.780  1.0609 -2.0256  5.2486
  367MOL0     H49539   4.170   4.660   6.683  0.3998 -1.3229 -1.0597
  367MOL0     H49540   4.207   4.491   6.726  1.0648 -0.2854 -1.1409
  367MOL0     H49541   4.117   4.676   7.098  0.2702 -3.4392  0.9129
  367MOL0     H49542   4.818   4.448   6.524  0.9161 -2.1543 -0.1189
  367MOL0     H49543   5.084   4.559   6.376 -0.7196 -1.9019 -2.3053
  367MOL0     H49544   5.153   4.411   6.444  0.8253  0.0853 -0.1654
  367MOL0     H49545   4.979   4.418   6.390  0.5975  1.3795 -3.0194
  368MOL0     O49546  10.185   9.646   2.860  0.1971 -0.2952 -0.7267
  368MOL0     C49547  10.082   9.601   2.914 -0.0055 -0.1799  0.0722
  368MOL0     O49548  10.066   9.480   2.983  0.0746 -0.0434 -0.6555
  368MOL0     C49549  10.180   9.414   3.027  0.6123 -0.2381 -0.4972
  368MOL0     C49550  10.233   9.307   2.955  0.2272 -0.1681 -0.3300
  368MOL0     C49551  10.346   9.241   3.008  0.8280 -0.6918 -0.3476
  368MOL0     C49552  10.398   9.278   3.134 -0.1299 -0.6380 -0.3268
  368MOL0     O49553  10.511   9.239   3.191  0.6047  0.1727  0.2578
  368MOL0     C49554  10.627   9.241   3.113  0.5250 -0.4830  0.7954
  368MOL0     C49555  10.726   9.187   3.206 -0.4060  0.6692 -0.3219
  368MOL0     C49556  10.730   9.029   3.218 -0.0171 -0.0506 -0.0231
  368MOL0     C49557  10.801   8.953   3.098  0.4994 -0.0062 -0.2755
  368MOL0     C49558  10.787   8.803   3.124  0.1231 -0.3130  0.2621
  368MOL0     C49559  10.871   8.753   3.239 -0.2642 -0.1387 -0.3630
  368MOL0     C49560  10.848   8.598   3.243  0.1038 -0.4363  0.3274
  368MOL0     C49561  10.883   8.533   3.387 -0.1143 -0.5529 -0.1207
  368MOL0     N49562  11.026   8.544   3.427  0.3340  1.0264  0.0469
  368MOL0     C49563  11.132   8.481   3.360  0.5216 -0.6578  0.1384
  368MOL0     C49564  11.239   8.546   3.411  1.2614 -0.5943  0.0834
  368MOL0     C49565  11.373   8.518   3.342  0.3530  0.3166  1.4429
  368MOL0     C49566  11.482   8.560   3.432  0.3084  0.1537 -0.5363
  368MOL0     C49567  11.621   8.490   3.393  0.3399  0.3811 -0.1073
  368MOL0     C49568  11.686   8.548   3.269  0.8342  0.3637 -0.1841
  368MOL0     O49569  11.811   8.494   3.249 -0.2231  0.2259 -0.1869
  368MOL0     C49570  11.881   8.508   3.132  0.1953  0.0699  0.5708
  368MOL0     C49571  11.851   8.617   3.046 -0.2251 -0.4621 -0.1542
  368MOL0     C49572  11.929   8.649   2.936  0.5623  0.3862 -0.4716
  368MOL0     C49573  12.037   8.571   2.904  0.1659 -0.0232  0.3841
  368MOL0     C49574  12.135   8.617   2.807 -0.0761  0.3621 -0.0888
  368MOL0     O49575  12.261   8.540   2.805  0.4295  0.2214 -0.5168
  368MOL0     C49576  12.357   8.596   2.723  0.3499  0.2127  0.4569
  368MOL0     C49577  12.356   8.588   2.579  0.7740  0.4421 -0.4868
  368MOL0     C49578  12.475   8.616   2.506 -0.4050  0.2750 -0.0988
  368MOL0     C49579  12.587   8.660   2.574 -0.5295  1.7466 -0.2547
  368MOL0     O49580  12.697   8.685   2.501 -0.2314  0.2069  0.9214
  368MOL0     C49581  12.822   8.744   2.559 -1.0183 -0.5618  0.2711
  368MOL0     C49582  12.915   8.634   2.617  0.2679  0.1613 -0.3115
  368MOL0     C49583  12.985   8.556   2.510  0.4085 -0.2036  0.5721
  368MOL0     C49584  13.070   8.452   2.577 -0.3014  0.2740 -1.2659
  368MOL0     C49585  13.137   8.363   2.469 -0.3410  0.4328 -0.0878
  368MOL0     C49586  13.259   8.299   2.538 -0.4374 -0.5902 -0.7829
  368MOL0     C49587  13.337   8.202   2.454 -0.0478  0.0979 -0.1941
  368MOL0     C49588  13.458   8.149   2.527 -0.1300  0.1143  1.2959
  368MOL0    Cl49589  13.574   8.079   2.397  0.6876  0.3998 -0.0505
  368MOL0     C49590  12.595   8.658   2.719 -0.0822 -0.6841  1.3070
  368MOL0     C49591  12.473   8.630   2.780 -0.0111 -0.0412  1.0529
  368MOL0     O49592  12.110   8.714   2.741 -0.4815  0.1221  0.7343
  368MOL0     C49593  12.074   8.468   2.996 -1.0585 -0.6097 -0.3981
  368MOL0     C49594  11.996   8.433   3.099  1.2439 -0.1454 -0.4666
  368MOL0     N49595  11.203   8.634   3.514 -0.3592  0.8191  0.4613
  368MOL0     N49596  11.075   8.624   3.524  0.8479 -0.2430  0.3729
  368MOL0     C49597  10.339   9.374   3.209  0.5187 -0.8795  0.2174
  368MOL0     C49598  10.231   9.440   3.152  0.6912  0.1706  0.0843
  368MOL0     C49599   9.964   9.687   2.910  1.1478  0.6420 -0.0083
  368MOL0     C49600   9.904   9.705   3.030  0.5568 -0.4091  0.1705
  368MOL0     C49601   9.790   9.784   3.042 -0.1913 -0.5782  0.1971
  368MOL0     C49602   9.742   9.861   2.934  0.4309 -0.0840 -0.2069
  368MOL0     O49603   9.632   9.944   2.951  0.0836  0.6576  0.7429
  368MOL0     C49604   9.585  10.009   2.832  0.0860  0.0894  0.0824
  368MOL0     C49605   9.446  10.068   2.859  0.2849  0.3537 -0.0838
  368MOL0     C49606   9.427  10.195   2.770  0.1429  0.3059  0.2511
  368MOL0     C49607   9.399  10.144   2.624  0.2069  0.7134 -0.8289
  368MOL0     C49608   9.504  10.109   2.533 -0.1844 -0.1850 -0.6234
  368MOL0     C49609   9.581  10.096   2.440  0.6704 -0.2104 -0.3273
  368MOL0     C49610   9.813   9.850   2.809 -0.9416 -0.1071  0.0769
  368MOL0     C49611   9.913   9.753   2.793 -0.1575 -0.0592  0.6007
  368MOL0     C49612   9.972   9.728   2.653 -0.9558 -0.6376  0.8341
  368MOL0     H49613  10.194   9.270   2.861  1.1957 -0.4697 -0.6281
  368MOL0     H49614  10.396   9.168   2.946 -0.6482 -1.3910 -0.7707
  368MOL0     H49615  10.612   9.172   3.030  1.5719 -1.1363  1.1350
  368MOL0     H49616  10.658   9.343   3.086  0.4384 -0.9507 -1.2657
  368MOL0     H49617  10.696   9.221   3.306  1.0761  0.9645  0.0499
  368MOL0     H49618  10.826   9.219   3.173  0.5923  0.0704  1.9238
  368MOL0     H49619  10.627   8.991   3.220  0.6337 -2.0315 -1.2601
  368MOL0     H49620  10.769   9.004   3.317 -0.7183  0.8847  0.5108
  368MOL0     H49621  10.754   8.973   3.002 -0.3409 -0.3446  0.0563
  368MOL0     H49622  10.906   8.983   3.096  0.3257  0.5805 -1.5001
  368MOL0     H49623  10.680   8.781   3.131 -0.2432  0.9531 -0.8638
  368MOL0     H49624  10.826   8.754   3.035 -0.4070 -0.2853  0.0116
  368MOL0     H49625  10.978   8.768   3.224  0.4393 -2.9710  1.1066
  368MOL0     H49626  10.842   8.801   3.333  0.8549  2.9641 -1.4859
  368MOL0     H49627  10.907   8.560   3.159  0.4382  1.1248 -0.1917
  368MOL0     H49628  10.744   8.573   3.221 -0.2846  1.1595  0.1828
  368MOL0     H49629  10.812   8.572   3.460  2.0731  0.1586  1.7704
  368MOL0     H49630  10.858   8.427   3.379  0.7030 -0.6584 -1.5939
  368MOL0     H49631  11.131   8.404   3.283  0.9520  0.5098 -1.0877
  368MOL0     H49632  11.380   8.412   3.314  0.3827  0.7232 -0.1875
  368MOL0     H49633  11.378   8.570   3.246  1.4900 -0.7222  0.9058
  368MOL0     H49634  11.488   8.669   3.437 -0.1660  0.4459 -3.9833
  368MOL0     H49635  11.463   8.518   3.532 -0.3673 -1.6017 -1.3683
  368MOL0     H49636  11.603   8.383   3.382  0.8028  0.3152 -0.2113
  368MOL0     H49637  11.684   8.507   3.480 -1.1085 -2.9665  1.7762
  368MOL0     H49638  11.701   8.655   3.284  1.9241  0.2381 -0.3153
  368MOL0     H49639  11.620   8.523   3.185 -0.1837  0.9181  0.4262
  368MOL0     H49640  11.769   8.686   3.065 -0.4869 -0.1137 -2.3236
  368MOL0     H49641  11.889   8.738   2.888 -3.0425 -1.0034 -0.3419
  368MOL0     H49642  12.267   8.550   2.530 -0.8325 -2.3368  3.9937
  368MOL0     H49643  12.479   8.606   2.398 -1.6509 -1.4130 -0.0189
  368MOL0     H49644  12.875   8.790   2.475 -0.6083 -1.3319  0.1048
  368MOL0     H49645  12.799   8.815   2.640 -1.2238 -0.3798  0.0534
  368MOL0     H49646  12.996   8.683   2.672  2.1462 -1.6995 -1.3027
  368MOL0     H49647  12.862   8.571   2.690  3.1069  0.2408  2.0019
  368MOL0     H49648  12.909   8.494   2.460 -0.4822  1.9581 -0.9225
  368MOL0     H49649  13.050   8.617   2.446  1.9089 -3.9255 -1.7972
  368MOL0     H49650  13.015   8.378   2.636  1.2024 -0.5529 -0.8718
  368MOL0     H49651  13.140   8.504   2.643 -1.9429  2.4265 -1.0668
  368MOL0     H49652  13.169   8.421   2.383  0.9374  2.3621  1.5922
  368MOL0     H49653  13.068   8.282   2.444 -0.4988  0.7147 -0.5732
  368MOL0     H49654  13.326   8.381   2.565 -0.4434 -0.7618 -0.2267
  368MOL0     H49655  13.223   8.238   2.621 -1.5715 -1.7110 -2.0375
  368MOL0     H49656  13.359   8.255   2.361  0.5592  3.1789  1.5784
  368MOL0     H49657  13.277   8.118   2.418 -1.8094  0.7734  1.0623
  368MOL0     H49658  13.506   8.230   2.583  1.2741 -0.6540  1.2510
  368MOL0     H49659  13.408   8.079   2.594 -0.1899 -0.8721  0.2511
  368MOL0     H49660  12.687   8.696   2.761  0.6459 -1.8685  0.8512
  368MOL0     H49661  12.471   8.639   2.888  1.4057  0.6284  1.0441
  368MOL0     H49662  12.166   8.412   2.979  0.5556  1.6444  0.3528
  368MOL0     H49663  12.022   8.359   3.174 -2.9037 -2.2112 -0.7704
  368MOL0     H49664  10.369   9.401   3.310 -2.6815  3.1471  0.3256
  368MOL0     H49665  10.181   9.520   3.206 -0.6541  0.0898 -0.9785
  368MOL0     H49666   9.945   9.635   3.102  0.1093 -0.5816  0.2587
  368MOL0     H49667   9.743   9.785   3.140  1.7606 -1.6215  1.2000
  368MOL0     H49668   9.579   9.944   2.744  3.3366  0.1860 -0.3254
  368MOL0     H49669   9.647  10.095   2.806 -0.3456  0.1246 -0.8552
  368MOL0     H49670   9.435  10.103   2.962  0.3355 -0.0782  0.0668
  368MOL0     H49671   9.365   9.996   2.850 -1.0044  1.4049  2.2213
  368MOL0     H49672   9.519  10.254   2.775  0.2911  0.0356  0.6948
  368MOL0     H49673   9.339  10.245   2.814  1.7464  3.6861 -0.0448
  368MOL0     H49674   9.321  10.066   2.625 -1.7009  2.5388 -0.4730
  368MOL0     H49675   9.345  10.229   2.582  0.2309  1.1466 -0.0036
  368MOL0     H49676   9.643  10.101   2.352  1.1281 -1.5362 -0.0971
  368MOL0     H49677   9.794   9.903   2.717  0.3249 -1.4950 -1.0387
  368MOL0     H49678   9.977   9.622   2.627  1.8852 -0.2927 -0.3007
  368MOL0     H49679   9.929   9.798   2.580  0.9075  0.7366  0.9966
  368MOL0     H49680  10.073   9.767   2.661 -2.1519  2.9234  0.4997
  369MOL0     O49681  11.237   9.582   9.381 -0.2353 -0.2102 -0.1913
  369MOL0     C49682  11.262   9.592   9.504  0.0749  0.0905 -1.4686
  369MOL0     O49683  11.389   9.603   9.568  0.4263 -0.1101 -0.4214
  369MOL0     C49684  11.493   9.663   9.503  0.2682  0.7009 -0.5047
  369MOL0     C49685  11.577   9.747   9.573 -0.8469 -0.6313  0.3157
  369MOL0     C49686  11.686   9.813   9.515 -0.9556 -0.2042 -0.2276
  369MOL0     C49687  11.725   9.783   9.385  0.5511 -1.1339 -0.0553
  369MOL0     O49688  11.843   9.836   9.339 -0.8133  0.1054  0.3350
  369MOL0     C49689  11.963   9.779   9.388 -0.0297  0.1438  0.3861
  369MOL0     C49690  12.098   9.836   9.335 -0.2316  0.4469 -0.1546
  369MOL0     C49691  12.126   9.762   9.204 -0.5295 -0.4077 -0.2566
  369MOL0     C49692  12.214   9.837   9.102 -0.6872 -0.1056 -0.4235
  369MOL0     C49693  12.251   9.752   8.978  0.2638  0.3166  0.5626
  369MOL0     C49694  12.379   9.806   8.904  0.0928 -1.0717  0.3972
  369MOL0     C49695  12.394   9.962   8.880 -0.3382 -0.3736 -0.0314
  369MOL0     C49696  12.503   9.983   8.769 -0.6687 -0.9127  0.9180
  369MOL0     N49697  12.635   9.940   8.817  0.2547  0.5073 -0.3506
  369MOL0     C49698  12.683   9.956   8.950 -0.6600 -0.8812  0.7312
  369MOL0     C49699  12.808   9.902   8.944 -0.5252  0.5448 -0.0278
  369MOL0     C49700  12.903   9.882   9.066  0.9776 -0.2814  0.0679
  369MOL0     C49701  13.025   9.794   9.028  1.0857 -0.0875  0.9623
  369MOL0     C49702  13.123   9.871   8.930 -0.2248  0.1469  0.2320
  369MOL0     C49703  13.263   9.807   8.921  0.8421 -0.3780 -0.2908
  369MOL0     O49704  13.345   9.836   9.032 -0.1182 -0.0862  0.1667
  369MOL0     C49705  13.487   9.824   9.019  1.0534 -0.1775  0.7903
  369MOL0     C49706  13.564   9.889   9.110 -0.0233  0.1951  0.3649
  369MOL0     C49707  13.708   9.891   9.095 -0.7375  0.8048  0.3615
  369MOL0     C49708  13.774   9.839   8.977  0.4989  0.5155 -0.7235
  369MOL0     C49709  13.917   9.859   8.948 -0.4566 -0.6369 -0.2301
  369MOL0     O49710  13.980   9.932   9.041  0.3656 -0.0063  0.7455
  369MOL0     C49711  14.103   9.983   9.016  0.3357 -0.5404 -0.1069
  369MOL0     C49712  14.190   9.988   9.131  0.4116 -0.6914  0.0930
  369MOL0     C49713  14.322  10.020   9.115 -0.3695  0.1730  0.3194
  369MOL0     C49714  14.378  10.053   8.994  0.5781  0.1238  0.6539
  369MOL0     O49715  14.506  10.078   8.996 -0.2286 -0.2032 -0.4484
  369MOL0     C49716  14.566  10.145   8.885 -0.2967  0.0123 -0.3483
  369MOL0     C49717  14.705  10.184   8.923  0.7957  0.2551  0.0692
  369MOL0     C49718  14.778  10.229   8.803  1.1701 -0.0546 -0.0429
  369MOL0     C49719  14.906  10.302   8.835  0.1284  0.8821  0.7879
  369MOL0     C49720  14.945  10.405   8.729 -1.3527 -0.5057 -0.3560
  369MOL0     C49721  15.095  10.441   8.745  0.5298  0.8198  0.4700
  369MOL0     C49722  15.125  10.514   8.876 -0.0995  0.3426  0.5445
  369MOL0     C49723  15.265  10.580   8.867  0.2672  0.4309  0.3477
  369MOL0    Cl49724  15.380  10.449   8.848  0.2669  0.5045 -0.2615
  369MOL0     C49725  14.295  10.050   8.876  0.4487 -0.5525  0.3642
  369MOL0     C49726  14.162  10.014   8.887  1.4900  0.3741 -0.0631
  369MOL0     O49727  13.973   9.804   8.853  0.4010  0.2627 -0.6581
  369MOL0     C49728  13.693   9.776   8.883 -0.3427  0.4035 -0.6561
  369MOL0     C49729  13.556   9.768   8.903  0.1954 -0.7210  0.1947
  369MOL0     N49730  12.821   9.847   8.812  0.5584 -0.6174 -1.0271
  369MOL0     N49731  12.716   9.868   8.742 -0.5538 -1.0194  0.1205
  369MOL0     C49732  11.656   9.686   9.316  0.8134  0.7048 -0.3483
  369MOL0     C49733  11.542   9.622   9.375 -0.2006  0.4886  0.4515
  369MOL0     C49734  11.145   9.579   9.592 -0.5842 -0.4034 -0.5314
  369MOL0     C49735  11.175   9.581   9.734 -0.3671 -0.4695  1.1158
  369MOL0     C49736  11.069   9.566   9.820  0.2045  0.8647  0.2876
  369MOL0     C49737  10.940   9.534   9.778  0.4541 -0.0603 -0.4840
  369MOL0     O49738  10.853   9.495   9.880 -0.4555 -0.6103  0.1870
  369MOL0     C49739  10.739   9.422   9.850  1.4333  0.0624  1.0615
  369MOL0     C49740  10.677   9.375   9.979  0.6421 -0.3006 -0.2330
  369MOL0     C49741  10.560   9.283   9.957 -0.0597 -0.5974 -0.7747
  369MOL0     C49742  10.515   9.229  10.094 -0.1918  0.2265  0.1922
  369MOL0     C49743  10.426   9.112  10.097 -0.3837  1.0336  0.4090
  369MOL0     C49744  10.349   9.020  10.067  0.1480  0.0774 -0.4492
  369MOL0     C49745  10.917   9.521   9.646 -0.6900  0.9661 -0.7756
  369MOL0     C49746  11.013   9.554   9.553 -0.7416  0.2857 -0.4250
  369MOL0     C49747  10.965   9.557   9.409  0.8751 -0.3827 -0.1322
  369MOL0     H49748  11.557   9.783   9.674  1.4767 -0.2044  0.6883
  369MOL0     H49749  11.755   9.884   9.560 -0.4824 -1.3036  0.8154
  369MOL0     H49750  11.960   9.804   9.495  0.2902 -1.4385  0.7956
  369MOL0     H49751  11.946   9.671   9.378 -2.6743  0.3752  1.3716
  369MOL0     H49752  12.168   9.786   9.403 -2.3327 -5.4460 -1.7237
  369MOL0     H49753  12.097   9.945   9.337  2.9051  0.5777 -0.8880
  369MOL0     H49754  12.031   9.754   9.149 -0.3622  2.0850 -1.0336
  369MOL0     H49755  12.163   9.662   9.225 -0.2953 -0.4441 -0.8397
  369MOL0     H49756  12.167   9.926   9.060  0.2667 -0.3292 -2.0388
  369MOL0     H49757  12.304   9.879   9.149 -1.2301  0.3689  0.2277
  369MOL0     H49758  12.264   9.646   9.002 -0.6725  0.2559  0.8645
  369MOL0     H49759  12.164   9.762   8.913 -1.4351 -2.8875  2.0977
  369MOL0     H49760  12.467   9.775   8.960 -2.3740 -3.5494  3.2408
  369MOL0     H49761  12.364   9.746   8.813  0.8613  0.4867 -0.7902
  369MOL0     H49762  12.407  10.007   8.979  3.8223 -0.2701 -0.4341
  369MOL0     H49763  12.304  10.004   8.836  0.8144  2.1670 -0.1212
  369MOL0     H49764  12.480   9.926   8.679  3.7605  0.3862 -1.3408
  369MOL0     H49765  12.511  10.086   8.731  0.8984 -1.0534  0.8064
  369MOL0     H49766  12.636   9.996   9.039 -0.1719  1.8929 -0.1517
  369MOL0     H49767  12.944   9.971   9.113  1.5140 -1.7906  2.6773
  369MOL0     H49768  12.845   9.824   9.139  1.7276  0.9080  1.6584
  369MOL0     H49769  13.079   9.754   9.114 -0.3973  0.1685  2.0477
  369MOL0     H49770  12.982   9.704   8.983  1.2465  0.5627 -0.5348
  369MOL0     H49771  13.134   9.972   8.970  0.8778 -1.1777  3.5949
  369MOL0     H49772  13.087   9.881   8.827 -0.3758  1.8650  0.4246
  369MOL0     H49773  13.313   9.852   8.835 -0.7427 -0.3907 -1.2734
  369MOL0     H49774  13.258   9.699   8.906 -2.0102 -0.0484 -2.7722
  369MOL0     H49775  13.529   9.930   9.204  0.6566  2.5770 -0.3329
  369MOL0     H49776  13.775   9.943   9.162 -0.1953  1.7578 -0.8754
  369MOL0     H49777  14.166   9.948   9.229  2.0783 -2.3917 -0.1513
  369MOL0     H49778  14.381  10.025   9.206 -1.5785  0.9729  1.0812
  369MOL0     H49779  14.569  10.076   8.800 -3.9779  0.5239 -1.0447
  369MOL0     H49780  14.513  10.236   8.857 -0.8518  0.6329  2.3893
  369MOL0     H49781  14.686  10.265   8.994 -1.9954 -1.2779  1.2346
  369MOL0     H49782  14.751  10.097   8.972 -0.4948 -1.4637 -1.5856
  369MOL0     H49783  14.800  10.153   8.727 -0.2555  0.0080 -0.5594
  369MOL0     H49784  14.712  10.296   8.747  1.0093 -0.4731 -0.3651
  369MOL0     H49785  14.993  10.236   8.850  0.1946  0.9005  0.5038
  369MOL0     H49786  14.880  10.358   8.925 -4.2736 -0.1614  0.3938
  369MOL0     H49787  14.880  10.492   8.726 -1.4590 -0.6080 -1.2123
  369MOL0     H49788  14.927  10.361   8.630 -1.3266 -2.4467  0.4537
  369MOL0     H49789  15.163  10.355   8.749  0.0635  0.1142 -3.1794
  369MOL0     H49790  15.132  10.493   8.656  3.9161  1.3962  2.0211
  369MOL0     H49791  15.120  10.437   8.954 -1.8763  1.3391  1.4919
  369MOL0     H49792  15.049  10.589   8.901 -0.2690  0.2357  0.3558
  369MOL0     H49793  15.281  10.665   8.800  0.3666  0.8799  0.9349
  369MOL0     H49794  15.285  10.627   8.964  1.1297  1.5572 -0.3455
  369MOL0     H49795  14.330  10.037   8.774  2.5095 -0.5873  1.0109
  369MOL0     H49796  14.105   9.993   8.797  0.6816 -0.2196  0.5707
  369MOL0     H49797  13.727   9.729   8.791  0.5064 -1.7380  0.6816
  369MOL0     H49798  13.497   9.741   8.816  2.1245  1.3223 -1.9127
  369MOL0     H49799  11.677   9.680   9.210 -0.0806  0.9009 -0.5485
  369MOL0     H49800  11.487   9.550   9.316 -1.5823 -0.0302  2.3010
  369MOL0     H49801  11.273   9.599   9.777  0.7694 -0.8277 -1.1872
  369MOL0     H49802  11.089   9.560   9.927  0.7258  1.4874  0.2316
  369MOL0     H49803  10.770   9.346   9.777  0.6373  0.2744  0.4882
  369MOL0     H49804  10.660   9.476   9.797  2.2738 -1.7297 -2.3276
  369MOL0     H49805  10.651   9.464  10.037  1.1083  0.4386 -1.1327
  369MOL0     H49806  10.752   9.322  10.039 -0.7369 -2.4810 -0.3360
  369MOL0     H49807  10.582   9.197   9.894  2.1071 -1.0091  0.4290
  369MOL0     H49808  10.488   9.355   9.916  2.6263  1.7678 -1.6668
  369MOL0     H49809  10.602   9.202  10.153 -1.4688 -0.0553  2.0373
  369MOL0     H49810  10.471   9.319  10.137 -0.3344  1.0056 -1.4915
  369MOL0     H49811  10.291   8.930  10.071  0.5893 -0.3093 -2.0334
  369MOL0     H49812  10.812   9.504   9.621 -0.4414 -0.6609 -0.7887
  369MOL0     H49813  11.016   9.486   9.344  0.0981 -0.7698 -0.3336
  369MOL0     H49814  10.857   9.537   9.404  0.7928 -0.3043  1.0898
  369MOL0     H49815  10.983   9.657   9.367  1.3391 -0.1441  0.6222
  370MOL0     O49816   6.645   8.747   6.273  0.1582 -0.2120 -0.3187
  370MOL0     C49817   6.651   8.640   6.324 -0.0281 -0.9564  0.6149
  370MOL0     O49818   6.758   8.560   6.311 -0.0838 -0.0570  0.0055
  370MOL0     C49819   6.874   8.612   6.252 -0.1441 -0.3520 -0.9870
  370MOL0     C49820   6.984   8.658   6.328  0.0008  0.1191 -0.0270
  370MOL0     C49821   7.097   8.715   6.266 -0.2460  0.3530 -0.4923
  370MOL0     C49822   7.109   8.749   6.129  0.4825 -0.3276 -0.2770
  370MOL0     O49823   7.224   8.804   6.078 -0.6774 -0.2636 -0.3476
  370MOL0     C49824   7.252   8.768   5.939  0.2847 -0.0868  0.9357
  370MOL0     C49825   7.395   8.824   5.905  0.3370 -0.3690 -0.9305
  370MOL0     C49826   7.520   8.743   5.957 -0.0365 -0.7000 -0.7886
  370MOL0     C49827   7.651   8.823   5.965 -0.1831  0.5731 -0.2718
  370MOL0     C49828   7.690   8.861   5.827 -0.0836  0.3681  0.6501
  370MOL0     C49829   7.841   8.904   5.807 -0.4759  0.3232  0.1883
  370MOL0     C49830   7.868   8.956   5.661  0.2852 -1.3905  0.4458
  370MOL0     C49831   7.976   9.060   5.657 -0.2044  0.5340 -0.5511
  370MOL0     N49832   8.000   9.097   5.517 -0.1372  0.0539  0.2339
  370MOL0     C49833   8.135   9.100   5.465 -0.2889  0.1945  0.2521
  370MOL0     C49834   8.122   9.145   5.331 -0.5323 -0.0755 -0.0324
  370MOL0     C49835   8.233   9.179   5.223  0.8991 -0.2384 -1.0550
  370MOL0     C49836   8.314   9.296   5.265 -0.3149 -0.7798  0.5129
  370MOL0     C49837   8.405   9.327   5.153 -0.1595 -0.1698 -0.2541
  370MOL0     C49838   8.553   9.288   5.194 -0.3034 -0.1528  0.0072
  370MOL0     O49839   8.571   9.144   5.219  0.2910 -0.1138  0.5328
  370MOL0     C49840   8.696   9.093   5.200 -0.1511  0.4162 -0.1694
  370MOL0     C49841   8.808   9.160   5.253  0.9978  0.6298 -0.0520
  370MOL0     C49842   8.937   9.113   5.234 -0.4384  1.0728 -0.7564
  370MOL0     C49843   8.965   9.010   5.145  0.0907 -0.5856 -0.0589
  370MOL0     C49844   9.102   8.983   5.103  0.6258  0.4086 -0.2080
  370MOL0     O49845   9.194   9.086   5.092  0.3098  0.5193 -0.6449
  370MOL0     C49846   9.326   9.061   5.062 -0.9966  0.1849 -0.3853
  370MOL0     C49847   9.370   8.977   4.956  0.4623  0.2574 -0.6913
  370MOL0     C49848   9.509   8.968   4.918 -0.5870 -0.1786 -0.5457
  370MOL0     C49849   9.604   9.057   4.980  0.8260 -0.7663 -0.2082
  370MOL0     O49850   9.735   9.042   4.948 -0.2966 -0.3178 -0.8847
  370MOL0     C49851   9.807   9.161   4.932 -0.2437  0.1265  0.8211
  370MOL0     C49852   9.942   9.141   4.866 -0.4382 -0.0097  0.3480
  370MOL0     C49853  10.019   9.271   4.844 -0.1378 -0.5345  0.3618
  370MOL0     C49854  10.134   9.222   4.747  0.7906 -0.2903 -0.0706
  370MOL0     C49855  10.231   9.328   4.693  0.3021 -0.6562 -0.2799
  370MOL0     C49856  10.174   9.416   4.578  0.9355  0.8170 -0.2476
  370MOL0     C49857  10.128   9.337   4.449  0.4185  0.0394 -0.4332
  370MOL0     C49858  10.265   9.318   4.376 -0.0036 -1.2074  0.1296
  370MOL0    Cl49859  10.250   9.199   4.246  0.4513  0.0316 -0.1547
  370MOL0     C49860   9.558   9.147   5.082  0.7222  0.0577 -0.8054
  370MOL0     C49861   9.418   9.148   5.120 -0.7900  0.8592  0.4038
  370MOL0     O49862   9.126   8.866   5.065 -0.0210  0.6838 -0.1276
  370MOL0     C49863   8.854   8.942   5.084  1.2847  0.0506  0.1161
  370MOL0     C49864   8.717   8.983   5.117 -0.4051  0.2364  0.1623
  370MOL0     N49865   7.984   9.162   5.317  0.6184 -0.0896 -0.0404
  370MOL0     N49866   7.915   9.130   5.421 -0.2081  0.0181  0.3481
  370MOL0     C49867   6.990   8.714   6.061  0.5596  1.4708 -0.2159
  370MOL0     C49868   6.877   8.646   6.115 -0.4361  0.1923 -0.5832
  370MOL0     C49869   6.535   8.597   6.409 -0.1648  1.3323 -0.0894
  370MOL0     C49870   6.546   8.469   6.472 -0.4063  0.5389 -1.2698
  370MOL0     C49871   6.433   8.413   6.544  0.3070 -0.0724 -0.1240
  370MOL0     C49872   6.312   8.480   6.548 -0.1499  1.3571  0.7613
  370MOL0     O49873   6.200   8.415   6.606 -0.5509 -0.2686  0.4403
  370MOL0     C49874   6.074   8.473   6.585  0.1839 -0.6302  0.6463
  370MOL0     C49875   5.955   8.383   6.638  0.2000  0.3120 -0.0613
  370MOL0     C49876   5.943   8.416   6.790  0.0833 -0.3222  0.4772
  370MOL0     C49877   5.843   8.312   6.848 -0.2337  0.3080  0.9643
  370MOL0     C49878   5.713   8.374   6.870  1.9088  0.3124  0.0587
  370MOL0     C49879   5.599   8.414   6.897  0.4228 -0.3449 -0.1300
  370MOL0     C49880   6.309   8.613   6.501 -0.1200 -0.3087 -0.4248
  370MOL0     C49881   6.413   8.668   6.420 -0.3262  0.3149  0.4008
  370MOL0     C49882   6.374   8.796   6.351  0.2748 -0.1569 -0.0557
  370MOL0     H49883   6.976   8.647   6.436 -4.8936 -0.9870 -0.2761
  370MOL0     H49884   7.186   8.737   6.324 -0.9373 -0.9590  1.1606
  370MOL0     H49885   7.258   8.659   5.936 -0.7250 -0.1590  1.2853
  370MOL0     H49886   7.185   8.819   5.869  1.9117  1.2459  0.2687
  370MOL0     H49887   7.408   8.925   5.946 -0.5035 -0.7580  0.3688
  370MOL0     H49888   7.403   8.839   5.797 -0.9497  3.2400 -0.6767
  370MOL0     H49889   7.521   8.652   5.897 -7.0332  0.0982 -3.0850
  370MOL0     H49890   7.499   8.702   6.056  0.4562  1.6539  0.3648
  370MOL0     H49891   7.629   8.919   6.012 -1.9478  0.6550 -1.2105
  370MOL0     H49892   7.733   8.780   6.025  0.4039  0.9557 -0.7851
  370MOL0     H49893   7.688   8.792   5.742  2.4218 -0.0814  0.8698
  370MOL0     H49894   7.623   8.941   5.793 -0.0754 -0.8953 -2.7706
  370MOL0     H49895   7.869   8.968   5.891 -3.1118 -1.4292  2.5774
  370MOL0     H49896   7.909   8.822   5.833 -0.6429  1.1291  3.6836
  370MOL0     H49897   7.773   9.004   5.637  1.7800  1.9900  0.7114
  370MOL0     H49898   7.888   8.877   5.588  0.8812 -2.9406  2.2091
  370MOL0     H49899   7.939   9.141   5.719  1.5753  2.0100 -1.3099
  370MOL0     H49900   8.066   9.015   5.701 -0.5991 -0.5892 -0.8632
  370MOL0     H49901   8.232   9.101   5.514  1.6312  2.5062 -3.1639
  370MOL0     H49902   8.289   9.085   5.228 -0.9192 -1.3050  3.3510
  370MOL0     H49903   8.191   9.193   5.122 -0.7086  0.4741 -0.3311
  370MOL0     H49904   8.241   9.377   5.273 -1.3344 -1.3812 -1.8844
  370MOL0     H49905   8.369   9.285   5.359 -0.4314 -1.1697  0.5386
  370MOL0     H49906   8.397   9.431   5.120  1.3525 -0.3531 -1.3403
  370MOL0     H49907   8.377   9.275   5.061  2.9785  0.0746 -1.4756
  370MOL0     H49908   8.583   9.344   5.283  2.1269 -0.2043 -0.7152
  370MOL0     H49909   8.626   9.324   5.122  1.7886 -1.1311  1.5315
  370MOL0     H49910   8.799   9.235   5.331  4.0851  0.6825  0.3548
  370MOL0     H49911   9.020   9.147   5.293 -0.7191  4.0340 -1.9231
  370MOL0     H49912   9.290   8.913   4.921 -0.6342 -0.0489  2.0735
  370MOL0     H49913   9.531   8.893   4.844  2.0734  0.2646 -0.3077
  370MOL0     H49914   9.760   9.227   4.859  3.7868 -1.3458 -3.6392
  370MOL0     H49915   9.831   9.201   5.031 -0.9728 -2.5269  2.1693
  370MOL0     H49916  10.007   9.083   4.933  0.5428  2.9393  2.1487
  370MOL0     H49917   9.916   9.092   4.772 -0.9151 -0.4600  0.7048
  370MOL0     H49918   9.957   9.348   4.799  1.3726 -0.2590 -1.3703
  370MOL0     H49919  10.065   9.316   4.933  0.5361 -0.6767  0.0951
  370MOL0     H49920  10.088   9.167   4.665 -0.6100  0.5053  0.1466
  370MOL0     H49921  10.199   9.152   4.800  1.2678 -0.6244 -1.0779
  370MOL0     H49922  10.319   9.281   4.647  0.0182 -0.6900 -0.8004
  370MOL0     H49923  10.260   9.391   4.777  0.3779 -2.4138  1.0523
  370MOL0     H49924  10.084   9.463   4.619 -0.0689 -3.3829  3.1383
  370MOL0     H49925  10.233   9.505   4.556  1.7063  0.5020  0.4881
  370MOL0     H49926  10.059   9.399   4.390 -0.2366 -1.8772 -1.7944
  370MOL0     H49927  10.082   9.239   4.462 -0.3754  0.5308  0.6024
  370MOL0     H49928  10.304   9.412   4.336  0.4759 -1.1842  0.6284
  370MOL0     H49929  10.340   9.286   4.449  0.5592  1.9971  1.1509
  370MOL0     H49930   9.626   9.212   5.135  1.1424 -1.2166  0.2536
  370MOL0     H49931   9.372   9.230   5.173 -3.6899  0.2471 -0.9178
  370MOL0     H49932   8.884   8.866   5.013  5.8313  2.5864 -1.1270
  370MOL0     H49933   8.639   8.921   5.072 -0.5947  1.4398 -1.2382
  370MOL0     H49934   6.990   8.725   5.953  1.5400 -2.0670 -0.6854
  370MOL0     H49935   6.789   8.640   6.052  0.0150 -1.1665 -1.1371
  370MOL0     H49936   6.640   8.415   6.478 -0.3250  0.7677  2.7573
  370MOL0     H49937   6.450   8.328   6.609 -0.5297 -0.7988 -0.8219
  370MOL0     H49938   6.056   8.477   6.478  0.8936  0.4264  0.5511
  370MOL0     H49939   6.071   8.575   6.624  4.0788  0.1881 -0.6767
  370MOL0     H49940   5.963   8.275   6.619 -1.1194 -0.1374  1.6944
  370MOL0     H49941   5.859   8.410   6.595 -0.4771 -3.1308 -1.0854
  370MOL0     H49942   5.910   8.520   6.785  2.2481  0.3685 -2.8970
  370MOL0     H49943   6.044   8.409   6.831 -0.4785 -1.1214  1.7786
  370MOL0     H49944   5.831   8.234   6.773  0.1121  1.8902 -0.7993
  370MOL0     H49945   5.883   8.265   6.938  0.8549 -0.5486  0.0562
  370MOL0     H49946   5.503   8.446   6.933  0.0873 -3.3216  2.0534
  370MOL0     H49947   6.212   8.660   6.507 -1.3374 -2.8064  1.1590
  370MOL0     H49948   6.453   8.870   6.364  1.3556 -1.6707  3.3469
  370MOL0     H49949   6.334   8.772   6.252 -2.2234 -0.8123  1.0149
  370MOL0     H49950   6.284   8.838   6.397 -0.7598 -0.7028 -1.5040
  371MOL0     O49951   2.013  11.034   6.862  0.3402 -0.1531  0.3765
  371MOL0     C49952   1.966  10.990   6.966  0.1974 -0.3241 -0.0722
  371MOL0     O49953   2.034  10.955   7.078  0.1815 -0.1248  0.3337
  371MOL0     C49954   2.166  10.992   7.080 -0.4086  0.2294  0.0362
  371MOL0     C49955   2.264  10.907   7.070 -0.5528  0.1568  0.6603
  371MOL0     C49956   2.396  10.945   7.071 -0.4313 -0.5949  0.1232
  371MOL0     C49957   2.430  11.079   7.084 -0.8125  0.1013 -0.7900
  371MOL0     O49958   2.569  11.104   7.088  0.2302  0.5798 -0.7207
  371MOL0     C49959   2.629  11.198   7.177 -0.3313 -0.0314 -0.3255
  371MOL0     C49960   2.773  11.146   7.195 -0.3807 -0.4424 -0.4253
  371MOL0     C49961   2.778  11.009   7.268  0.4545 -0.1471 -0.0107
  371MOL0     C49962   2.930  10.969   7.311  0.1281 -0.8041  0.1049
  371MOL0     C49963   2.926  10.830   7.392 -0.3625  0.5574  0.6062
  371MOL0     C49964   3.064  10.808   7.446  0.6286 -0.3035 -0.8241
  371MOL0     C49965   3.093  10.662   7.485  1.2370  0.0550 -0.2096
  371MOL0     C49966   3.229  10.630   7.558 -0.2992 -0.0848 -0.1776
  371MOL0     N49967   3.340  10.646   7.462  0.5341  0.1716  0.4322
  371MOL0     C49968   3.425  10.757   7.435 -0.2203  0.3837  1.1366
  371MOL0     C49969   3.522  10.704   7.357  0.4231 -0.3787  0.2491
  371MOL0     C49970   3.651  10.776   7.320 -0.0499  0.1103  0.3152
  371MOL0     C49971   3.743  10.696   7.223  0.3121  0.0679 -0.6064
  371MOL0     C49972   3.849  10.792   7.171  0.5442  0.5689  0.7010
  371MOL0     C49973   3.991  10.780   7.240 -0.8905 -0.0427 -0.4657
  371MOL0     O49974   3.980  10.839   7.372  0.3193  0.3909 -0.2120
  371MOL0     C49975   4.082  10.900   7.441 -0.8857 -0.4497 -0.5225
  371MOL0     C49976   4.214  10.916   7.402  0.3907  0.3664  0.7090
  371MOL0     C49977   4.297  10.973   7.497  0.1916 -0.7275  0.7322
  371MOL0     C49978   4.254  11.013   7.624  0.2698 -0.6590  0.6337
  371MOL0     C49979   4.352  11.075   7.720 -0.3877 -0.7178 -0.3091
  371MOL0     O49980   4.484  11.105   7.676 -0.0364  0.5083  0.3988
  371MOL0     C49981   4.564  11.163   7.765  0.7795  0.1246 -0.8126
  371MOL0     C49982   4.594  11.294   7.746 -0.3588 -0.8297  0.5746
  371MOL0     C49983   4.689  11.368   7.822 -0.7861 -0.7958 -0.6748
  371MOL0     C49984   4.761  11.301   7.921 -0.0283  0.5384 -0.3372
  371MOL0     O49985   4.859  11.382   7.981 -0.1182  0.4656  0.7767
  371MOL0     C49986   4.932  11.308   8.081 -0.3473  0.1166  0.9000
  371MOL0     C49987   5.018  11.396   8.181  0.7798 -0.1680  0.5093
  371MOL0     C49988   5.160  11.339   8.193  0.4509 -0.1637 -0.1763
  371MOL0     C49989   5.227  11.410   8.303 -0.2198 -0.3797  0.3666
  371MOL0     C49990   5.365  11.361   8.319 -0.0762  0.2756 -0.1681
  371MOL0     C49991   5.456  11.361   8.185 -0.1224  0.1254 -0.9856
  371MOL0     C49992   5.589  11.291   8.221  0.5828  0.2897 -0.1746
  371MOL0     C49993   5.704  11.348   8.138 -0.2106  0.4162  0.9020
  371MOL0    Cl49994   5.651  11.384   7.967  0.7358 -0.5019 -0.3991
  371MOL0     C49995   4.718  11.166   7.949  0.4049 -0.3122 -0.1109
  371MOL0     C49996   4.619  11.100   7.874 -0.3680 -0.3604  0.1331
  371MOL0     O49997   4.303  11.112   7.828 -0.8908 -0.3355  0.1649
  371MOL0     C49998   4.115  11.010   7.647 -0.1359  0.0177 -0.7787
  371MOL0     C49999   4.036  10.942   7.556 -0.0707 -0.3530 -0.5493
  371MOL0     N50000   3.499  10.573   7.341 -0.1874 -0.1855  0.0982
  371MOL0     N50001   3.379  10.535   7.388 -0.4035  0.4160  0.2073
  371MOL0     C50002   2.324  11.170   7.111  0.4760  0.0489 -0.2387
  371MOL0     C50003   2.190  11.131   7.112  0.4960 -0.5915  0.6447
  371MOL0     C50004   1.823  10.967   6.972  0.1549 -0.1886 -0.4900
  371MOL0     C50005   1.780  10.844   6.922 -0.0938  0.9628  0.1515
  371MOL0     C50006   1.645  10.826   6.910  0.2111  1.5386 -0.2891
  371MOL0     C50007   1.548  10.907   6.962  0.2844  0.7113 -0.3882
  371MOL0     O50008   1.422  10.863   6.969  0.1038  0.3934  0.0131
  371MOL0     C50009   1.314  10.952   6.993 -0.1061  0.5919  0.1994
  371MOL0     C50010   1.204  10.864   7.041  0.3387 -0.6313  0.9936
  371MOL0     C50011   1.101  10.812   6.930 -0.4111  0.0547 -0.2275
  371MOL0     C50012   0.994  10.715   6.986 -0.7773  0.3825 -0.0392
  371MOL0     C50013   0.922  10.659   6.874  0.3995 -0.4494  0.4159
  371MOL0     C50014   0.862  10.599   6.776 -1.2034  0.2012  0.1867
  371MOL0     C50015   1.592  11.025   7.022 -0.0545 -0.3344  0.3817
  371MOL0     C50016   1.728  11.058   7.019  0.3785  0.1744 -0.0705
  371MOL0     C50017   1.757  11.191   7.090 -0.2826  0.0541 -0.2124
  371MOL0     H50018   2.238  10.804   7.094 -1.0578  0.6022  2.1068
  371MOL0     H50019   2.478  10.874   7.074 -0.0233 -0.1105  0.7422
  371MOL0     H50020   2.634  11.293   7.123 -2.3462  0.5606  0.4232
  371MOL0     H50021   2.575  11.205   7.272 -2.5184  3.3145 -1.6366
  371MOL0     H50022   2.823  11.225   7.252 -2.4475 -0.1951  1.1761
  371MOL0     H50023   2.820  11.133   7.097  3.9341  1.0683  1.1978
  371MOL0     H50024   2.737  10.928   7.208 -1.7435 -0.5142  1.8522
  371MOL0     H50025   2.721  11.020   7.361  0.4825  4.0246 -0.2911
  371MOL0     H50026   2.985  10.965   7.216 -3.0140  0.6947 -1.9642
  371MOL0     H50027   2.968  11.047   7.377  1.2180 -1.9559  0.9047
  371MOL0     H50028   2.844  10.830   7.464 -2.9217  0.3062 -2.1261
  371MOL0     H50029   2.916  10.746   7.323  1.3182  0.9893 -0.1917
  371MOL0     H50030   3.132  10.842   7.368 -1.3127  1.9322 -1.6702
  371MOL0     H50031   3.078  10.869   7.536 -1.5575 -1.6978  0.5986
  371MOL0     H50032   3.093  10.605   7.391 -3.6189 -1.8317  0.6121
  371MOL0     H50033   3.005  10.639   7.546  0.3614  3.1907 -0.1388
  371MOL0     H50034   3.237  10.698   7.643 -2.6079  0.7789 -0.5751
  371MOL0     H50035   3.229  10.532   7.607  1.6437  0.7466  1.6143
  371MOL0     H50036   3.428  10.856   7.479 -0.4028  0.2540  1.4458
  371MOL0     H50037   3.618  10.863   7.263 -1.4103 -0.3611  0.3542
  371MOL0     H50038   3.712  10.795   7.409 -1.1993 -0.5814  1.2678
  371MOL0     H50039   3.791  10.617   7.280  1.2654 -0.6952 -2.3726
  371MOL0     H50040   3.690  10.652   7.138  1.6702  0.2404 -1.5719
  371MOL0     H50041   3.823  10.898   7.178  1.8263  0.8926  0.8368
  371MOL0     H50042   3.863  10.759   7.067 -1.2096 -2.1467  1.2276
  371MOL0     H50043   4.063  10.834   7.177  0.1760 -4.4541 -3.5105
  371MOL0     H50044   4.021  10.675   7.236 -0.9261 -0.0267 -1.4482
  371MOL0     H50045   4.249  10.875   7.308 -0.6823 -1.8059  1.1895
  371MOL0     H50046   4.402  10.988   7.474 -0.1072 -0.8970 -0.8468
  371MOL0     H50047   4.548  11.341   7.659 -1.1044  1.8666  2.3051
  371MOL0     H50048   4.715  11.469   7.791  0.5725 -0.9287 -0.0661
  371MOL0     H50049   4.869  11.238   8.137 -1.1446 -1.0341 -1.3116
  371MOL0     H50050   5.007  11.245   8.032  0.3599  1.3507  0.3495
  371MOL0     H50051   5.025  11.500   8.148  1.3220 -0.2127  0.4705
  371MOL0     H50052   4.967  11.400   8.278 -0.2413 -0.6495 -0.0066
  371MOL0     H50053   5.159  11.232   8.215 -0.2016  0.0386  0.8304
  371MOL0     H50054   5.215  11.361   8.100  0.1213  0.9485 -0.1268
  371MOL0     H50055   5.174  11.387   8.396 -2.2477  2.2650 -0.0297
  371MOL0     H50056   5.229  11.517   8.282 -1.6350  0.3504  3.4321
  371MOL0     H50057   5.373  11.261   8.363 -1.1374  0.4733  0.5022
  371MOL0     H50058   5.400  11.426   8.399 -1.7816  1.3781 -0.2696
  371MOL0     H50059   5.403  11.311   8.104 -0.1599 -1.7389  0.1240
  371MOL0     H50060   5.467  11.464   8.149 -2.7203  1.9026  2.6676
  371MOL0     H50061   5.582  11.182   8.218 -0.5881  0.3245  0.6067
  371MOL0     H50062   5.608  11.307   8.327 -2.7227  0.3079  0.5295
  371MOL0     H50063   5.763  11.429   8.181  0.4201  0.3680  0.1365
  371MOL0     H50064   5.779  11.268   8.136  2.1896  2.5365  0.8802
  371MOL0     H50065   4.747  11.110   8.037  0.3420  0.6164  0.5024
  371MOL0     H50066   4.594  11.000   7.906  1.6388 -0.6431  0.9555
  371MOL0     H50067   4.071  11.043   7.740  1.5121  1.3351 -0.4155
  371MOL0     H50068   3.932  10.944   7.589  0.1537 -0.8500  0.1978
  371MOL0     H50069   2.351  11.275   7.123  0.3968  0.2854 -1.8740
  371MOL0     H50070   2.106  11.188   7.149 -0.3570 -2.0689  1.0292
  371MOL0     H50071   1.843  10.768   6.877 -0.9336  0.4082 -0.1082
  371MOL0     H50072   1.596  10.747   6.854  0.0621  1.8720 -0.6349
  371MOL0     H50073   1.292  11.012   6.904  2.7646  1.2442 -0.1807
  371MOL0     H50074   1.338  11.023   7.073  2.5380 -0.4827  0.4752
  371MOL0     H50075   1.147  10.918   7.117 -0.5414 -0.2793  0.0973
  371MOL0     H50076   1.244  10.770   7.079 -0.1952 -2.8229 -3.3144
  371MOL0     H50077   1.159  10.753   6.859 -1.4649  0.2691 -1.3162
  371MOL0     H50078   1.063  10.903   6.882  0.1647  0.9123  0.8965
  371MOL0     H50079   1.038  10.637   7.049 -0.1729  2.7863  2.7251
  371MOL0     H50080   0.926  10.771   7.050  2.0513  0.8913  2.7799
  371MOL0     H50081   0.816  10.535   6.703 -1.9858 -0.5684  1.3223
  371MOL0     H50082   1.520  11.097   7.058 -1.5184 -0.2418 -2.4674
  371MOL0     H50083   1.676  11.256   7.055 -2.7289 -1.7175  1.7262
  371MOL0     H50084   1.734  11.186   7.197 -0.2892 -0.7600 -0.2417
  371MOL0     H50085   1.859  11.220   7.064 -1.5660  1.1858 -4.9617
  372MOL0     O50086   7.812   5.139   0.554 -0.1524 -0.3604 -0.3458
  372MOL0     C50087   7.815   5.180   0.436  0.0144 -1.0430  0.2937
  372MOL0     O50088   7.863   5.300   0.402 -0.0157 -0.0021  0.3453
  372MOL0     C50089   7.918   5.383   0.500  0.7138 -0.7987 -0.0976
  372MOL0     C50090   7.889   5.514   0.483  0.3480 -1.2317  0.5954
  372MOL0     C50091   7.938   5.617   0.567 -0.6574 -0.5916  0.1863
  372MOL0     C50092   8.037   5.584   0.662  1.0312  0.2900 -0.5636
  372MOL0     O50093   8.101   5.681   0.733 -0.5821 -0.2439  0.0194
  372MOL0     C50094   8.223   5.657   0.806  1.2755 -0.3003 -0.2101
  372MOL0     C50095   8.309   5.789   0.823 -0.3907 -0.1333  0.4450
  372MOL0     C50096   8.444   5.762   0.888  0.4625  1.2131 -0.4320
  372MOL0     C50097   8.511   5.900   0.910 -0.1635  0.5969 -0.6199
  372MOL0     C50098   8.625   5.890   1.010  0.2451  0.6536 -0.1386
  372MOL0     C50099   8.698   6.023   1.004  0.0211  0.1334  0.0277
  372MOL0     C50100   8.820   6.031   1.102 -0.3942  0.5134 -0.2830
  372MOL0     C50101   8.868   6.176   1.113  0.3029  0.0723  1.0466
  372MOL0     N50102   8.941   6.199   1.242 -0.4246  0.2924  0.0371
  372MOL0     C50103   9.037   6.104   1.292  0.3200  0.1596  0.5111
  372MOL0     C50104   9.097   6.172   1.393  0.1364 -0.7661 -0.5340
  372MOL0     C50105   9.199   6.128   1.492  0.3438  0.4969 -1.3352
  372MOL0     C50106   9.325   6.215   1.481 -0.1586  0.1890  0.0330
  372MOL0     C50107   9.435   6.179   1.594  0.1203  0.4042 -0.6092
  372MOL0     C50108   9.553   6.258   1.561 -1.3454 -0.5318 -1.2859
  372MOL0     O50109   9.544   6.403   1.606 -0.2434  0.7565  0.9880
  372MOL0     C50110   9.658   6.473   1.649  0.0431  0.9805  0.4732
  372MOL0     C50111   9.640   6.599   1.708  0.8584 -0.5884 -0.0341
  372MOL0     C50112   9.744   6.686   1.746 -0.7228 -0.4568 -0.0913
  372MOL0     C50113   9.878   6.650   1.715  0.2586  0.8278  0.3353
  372MOL0     C50114   9.983   6.740   1.726  0.3006 -0.0209 -0.4671
  372MOL0     O50115  10.105   6.696   1.671  0.0382  1.3384  0.2390
  372MOL0     C50116  10.200   6.786   1.694  0.2564 -0.2163 -0.9999
  372MOL0     C50117  10.207   6.901   1.610 -0.2144 -0.9008 -0.9471
  372MOL0     C50118  10.295   7.007   1.645  0.0604  0.2686  0.4773
  372MOL0     C50119  10.400   6.997   1.731  0.4602  0.2219  0.0234
  372MOL0     O50120  10.498   7.090   1.759  0.2631 -0.2635  0.5701
  372MOL0     C50121  10.623   7.050   1.693  0.6547 -0.1821 -0.0718
  372MOL0     C50122  10.735   7.126   1.758 -0.0758  0.5063  0.1131
  372MOL0     C50123  10.865   7.129   1.664  0.5265 -1.1535 -0.2675
  372MOL0     C50124  10.973   7.198   1.729 -0.4470 -0.2256  0.1997
  372MOL0     C50125  11.110   7.179   1.661  0.9737  0.3075 -0.1110
  372MOL0     C50126  11.217   7.273   1.725  1.1813  0.0334 -0.2867
  372MOL0     C50127  11.353   7.255   1.663  0.3662  0.3310  1.1306
  372MOL0     C50128  11.447   7.342   1.739  0.9999  0.9512 -0.3794
  372MOL0    Cl50129  11.616   7.266   1.743  0.5788 -0.1433  0.0726
  372MOL0     C50130  10.393   6.874   1.803 -0.7247  0.3411 -0.5480
  372MOL0     C50131  10.294   6.771   1.789 -0.2147  0.7136  0.9676
  372MOL0     O50132   9.965   6.846   1.786 -0.2724  0.2517  0.3516
  372MOL0     C50133   9.899   6.519   1.661 -0.2595  0.3870 -0.2211
  372MOL0     C50134   9.789   6.436   1.632  0.4862  0.8182 -0.0210
  372MOL0     N50135   9.032   6.285   1.416 -0.0711 -0.1532  0.0723
  372MOL0     N50136   8.935   6.299   1.331 -0.4859  0.1914  0.1206
  372MOL0     C50137   8.063   5.450   0.681 -0.4141  0.3139  0.1818
  372MOL0     C50138   8.010   5.349   0.603  0.0283  0.0617  1.1627
  372MOL0     C50139   7.784   5.091   0.325 -0.6593  0.5782  0.7244
  372MOL0     C50140   7.792   5.134   0.192 -0.1616 -0.6305  0.6196
  372MOL0     C50141   7.784   5.046   0.087 -0.1722  0.2705 -0.0551
  372MOL0     C50142   7.773   4.912   0.106 -0.4399  0.7869 -0.1615
  372MOL0     O50143   7.777   4.812   0.009 -0.0600  1.4859  0.2064
  372MOL0     C50144   7.797   4.838  -0.131 -0.2465  0.0749  0.3304
  372MOL0     C50145   7.945   4.876  -0.155  0.3214 -0.4420  0.3174
  372MOL0     C50146   7.965   4.957  -0.291  0.8785  0.9872 -1.2882
  372MOL0     C50147   8.121   4.956  -0.320  0.1859  0.2541 -0.3759
  372MOL0     C50148   8.155   5.048  -0.433 -0.7264 -0.1122 -0.6809
  372MOL0     C50149   8.178   5.116  -0.528 -0.2001  0.3768 -0.3272
  372MOL0     C50150   7.749   4.873   0.234 -0.3765  1.0528  0.2235
  372MOL0     C50151   7.741   4.955   0.341  0.2521 -0.3709  0.1816
  372MOL0     C50152   7.697   4.893   0.472  0.0858 -0.1440  0.4883
  372MOL0     H50153   7.813   5.536   0.408  1.6409 -2.9469 -1.3260
  372MOL0     H50154   7.906   5.719   0.547 -1.7313 -0.7064  1.2252
  372MOL0     H50155   8.188   5.638   0.907 -1.2917  1.1020 -0.7491
  372MOL0     H50156   8.285   5.577   0.765  2.1187 -0.7234  1.7830
  372MOL0     H50157   8.252   5.855   0.888  1.1902  2.7905 -0.9190
  372MOL0     H50158   8.310   5.843   0.728 -0.9557 -0.3584  0.3074
  372MOL0     H50159   8.509   5.700   0.826 -0.2840  1.5676 -1.5912
  372MOL0     H50160   8.429   5.714   0.985  0.2966  1.9556 -0.0781
  372MOL0     H50161   8.546   5.924   0.810  0.6920  1.8428 -0.0492
  372MOL0     H50162   8.438   5.975   0.945 -0.5332  0.5414 -1.2526
  372MOL0     H50163   8.579   5.877   1.109  1.4863  0.3235  0.4084
  372MOL0     H50164   8.695   5.810   0.987 -0.0469  0.9936 -2.3840
  372MOL0     H50165   8.725   6.047   0.901 -1.1479 -1.7876 -0.7809
  372MOL0     H50166   8.621   6.092   1.040 -3.1332 -2.7110 -0.7201
  372MOL0     H50167   8.893   5.969   1.049 -0.3725 -2.0125  2.4724
  372MOL0     H50168   8.791   5.984   1.196 -0.4127  1.9461  0.4591
  372MOL0     H50169   8.932   6.203   1.029 -1.5304  0.3491 -0.3072
  372MOL0     H50170   8.772   6.227   1.121  0.0257 -0.3150  0.2290
  372MOL0     H50171   9.071   6.011   1.247 -0.8348  0.0418 -0.1553
  372MOL0     H50172   9.153   6.121   1.591  0.7358 -1.1781 -1.2474
  372MOL0     H50173   9.218   6.024   1.464 -1.2089  0.3598 -1.9654
  372MOL0     H50174   9.366   6.207   1.381 -0.4863 -0.8903 -0.0279
  372MOL0     H50175   9.296   6.319   1.500 -4.6379 -0.5377 -1.5439
  372MOL0     H50176   9.459   6.073   1.593 -1.3235  0.0504  0.2489
  372MOL0     H50177   9.390   6.204   1.691  2.0821 -0.5385  0.5955
  372MOL0     H50178   9.590   6.243   1.459  1.0232 -3.4435 -0.1527
  372MOL0     H50179   9.637   6.216   1.616 -1.7326  0.6099  0.2515
  372MOL0     H50180   9.541   6.635   1.734 -0.0302 -3.6878  1.3308
  372MOL0     H50181   9.709   6.765   1.813 -4.0849 -0.2480 -1.8916
  372MOL0     H50182  10.137   6.911   1.528 -1.4563  0.6387  0.2506
  372MOL0     H50183  10.313   7.100   1.592  1.8797  0.9466  2.1421
  372MOL0     H50184  10.652   6.947   1.713 -2.7902 -1.5196 -1.2227
  372MOL0     H50185  10.615   7.072   1.586 -1.2785 -2.0492 -0.3792
  372MOL0     H50186  10.696   7.225   1.783 -1.3666 -0.1000  0.5875
  372MOL0     H50187  10.762   7.069   1.847 -1.2534 -0.5694 -0.1897
  372MOL0     H50188  10.880   7.023   1.640 -3.4011 -2.5923  2.5962
  372MOL0     H50189  10.830   7.174   1.570 -1.9780  1.5941  1.7940
  372MOL0     H50190  10.989   7.158   1.829  3.9666  0.0016 -0.2150
  372MOL0     H50191  10.942   7.303   1.738 -1.2701 -0.6235  3.0544
  372MOL0     H50192  11.099   7.224   1.561  0.9405  1.6522  0.4729
  372MOL0     H50193  11.136   7.073   1.654  3.4365  0.3319  4.5081
  372MOL0     H50194  11.198   7.381   1.730  1.3951  0.1208 -1.1964
  372MOL0     H50195  11.222   7.236   1.828  0.9710  1.2858  0.1869
  372MOL0     H50196  11.360   7.298   1.563  3.0627 -0.7640  0.7645
  372MOL0     H50197  11.379   7.149   1.659  1.5468  0.5926 -3.1986
  372MOL0     H50198  11.447   7.443   1.698  0.9325  0.6435 -1.1507
  372MOL0     H50199  11.417   7.353   1.844  1.9020  1.8217 -0.2049
  372MOL0     H50200  10.469   6.869   1.880 -2.3230  2.1826  1.2877
  372MOL0     H50201  10.312   6.684   1.852 -1.0668 -0.2148 -0.0324
  372MOL0     H50202   9.997   6.478   1.641  0.1006  0.8228  0.6193
  372MOL0     H50203   9.816   6.351   1.570  1.6537  1.5371 -0.5387
  372MOL0     H50204   8.133   5.424   0.760  0.5107 -1.6525 -1.1941
  372MOL0     H50205   8.040   5.245   0.614 -3.9233 -1.5128 -0.9259
  372MOL0     H50206   7.808   5.240   0.177  2.8936 -0.9153  1.2190
  372MOL0     H50207   7.777   5.085  -0.015  1.3680 -1.3096 -0.8168
  372MOL0     H50208   7.734   4.920  -0.167 -0.0280 -0.6181 -1.7464
  372MOL0     H50209   7.773   4.742  -0.178 -2.1411  0.6946 -0.0471
  372MOL0     H50210   8.000   4.781  -0.160  1.8981  0.4548 -0.1871
  372MOL0     H50211   7.984   4.939  -0.075 -1.4363 -1.7757  2.3522
  372MOL0     H50212   7.922   5.056  -0.276 -2.5631 -0.8154  2.8645
  372MOL0     H50213   7.912   4.901  -0.369  2.1960 -2.5540  0.1282
  372MOL0     H50214   8.177   4.987  -0.231  0.6931  1.5124 -1.0991
  372MOL0     H50215   8.150   4.853  -0.340  1.6163  0.0936  2.1029
  372MOL0     H50216   8.191   5.179  -0.613  3.0097  0.4416  0.0650
  372MOL0     H50217   7.723   4.769   0.251 -1.0629  1.0529 -0.7393
  372MOL0     H50218   7.631   4.960   0.528 -0.2312  0.1581 -0.2282
  372MOL0     H50219   7.649   4.795   0.464  1.0633 -0.6261  0.4861
  372MOL0     H50220   7.789   4.869   0.525  1.6413 -1.7593 -2.6558
  373MOL0     O50221   5.230   5.685   3.320 -0.3495 -0.1634 -0.5055
  373MOL0     C50222   5.222   5.587   3.396 -0.4214 -0.0334 -0.5974
  373MOL0     O50223   5.318   5.493   3.413  0.2435 -0.2264 -0.0900
  373MOL0     C50224   5.426   5.498   3.331 -0.4990  0.9384 -0.6354
  373MOL0     C50225   5.426   5.426   3.208 -0.0797 -1.0550  0.0177
  373MOL0     C50226   5.540   5.425   3.124 -0.1391 -0.2916  0.4276
  373MOL0     C50227   5.661   5.490   3.163  1.3961 -0.7015  0.3895
  373MOL0     O50228   5.779   5.471   3.087  0.2526  0.4413 -0.2233
  373MOL0     C50229   5.906   5.506   3.137  0.2365  0.2384  0.2802
  373MOL0     C50230   6.027   5.473   3.045  0.4848 -0.4774 -0.9033
  373MOL0     C50231   6.155   5.496   3.120 -0.0427  0.8612 -0.2686
  373MOL0     C50232   6.282   5.434   3.064  0.1361 -0.1144  0.0313
  373MOL0     C50233   6.399   5.422   3.167 -0.5258 -0.4663  0.0446
  373MOL0     C50234   6.529   5.376   3.105  0.3234  0.1552  0.0997
  373MOL0     C50235   6.562   5.460   2.983 -0.3941 -0.5196 -0.5536
  373MOL0     C50236   6.708   5.432   2.951 -0.2610  0.4082  0.1156
  373MOL0     N50237   6.816   5.472   3.039 -0.0734 -0.1762  0.4696
  373MOL0     C50238   6.947   5.434   3.018  0.3459  0.1361  0.1283
  373MOL0     C50239   7.010   5.512   3.111 -0.0565 -0.1557 -0.6120
  373MOL0     C50240   7.160   5.517   3.123  0.6925 -0.4442 -0.9328
  373MOL0     C50241   7.242   5.409   3.048  0.0366  0.2700  0.6788
  373MOL0     C50242   7.395   5.404   3.085  0.3057  0.1908 -0.1100
  373MOL0     C50243   7.460   5.544   3.056  0.8833  0.6969  0.7194
  373MOL0     O50244   7.603   5.525   3.055 -0.0211  0.0195 -0.0480
  373MOL0     C50245   7.672   5.648   3.062  0.3220 -0.3390 -0.3033
  373MOL0     C50246   7.633   5.771   3.013  0.3374  0.2502 -0.3199
  373MOL0     C50247   7.722   5.876   3.030 -1.3731 -0.2624 -0.3854
  373MOL0     C50248   7.845   5.860   3.094 -0.0757  1.3345  1.1790
  373MOL0     C50249   7.941   5.968   3.100  0.8116 -0.8009 -0.6542
  373MOL0     O50250   8.039   5.956   3.189 -0.4040  0.8429  0.0041
  373MOL0     C50251   8.163   6.011   3.149  0.0554  0.0288 -0.8026
  373MOL0     C50252   8.205   6.067   3.026 -0.2997  0.3871  0.1701
  373MOL0     C50253   8.330   6.127   3.013 -0.5744 -0.3421 -0.1455
  373MOL0     C50254   8.430   6.126   3.115  1.3618 -0.2071 -1.6542
  373MOL0     O50255   8.558   6.164   3.078  0.3119 -0.0918 -0.4395
  373MOL0     C50256   8.666   6.190   3.167  0.7912 -0.6700  0.5465
  373MOL0     C50257   8.635   6.309   3.262 -1.1841  0.2791  0.1847
  373MOL0     C50258   8.748   6.344   3.363 -0.6059  0.3651 -0.7724
  373MOL0     C50259   8.847   6.438   3.304  0.1009 -0.6068 -0.4721
  373MOL0     C50260   8.966   6.472   3.400 -0.3178  0.7363  0.8468
  373MOL0     C50261   9.035   6.600   3.368  0.5785  1.0327  0.1095
  373MOL0     C50262   9.185   6.596   3.429 -0.0307 -0.1632  0.4190
  373MOL0     C50263   9.212   6.704   3.528 -0.6313 -0.7129 -0.0764
  373MOL0    Cl50264   9.161   6.655   3.693  0.0622 -0.1905 -0.1634
  373MOL0     C50265   8.400   6.058   3.229  0.3726 -0.7042 -0.4195
  373MOL0     C50266   8.267   6.007   3.244  0.4910 -0.9496 -0.0381
  373MOL0     O50267   7.915   6.080   3.046 -0.3358  0.3913 -0.3464
  373MOL0     C50268   7.883   5.729   3.130 -0.3275  0.3937  0.8217
  373MOL0     C50269   7.800   5.625   3.111 -0.4981  0.6299  0.7881
  373MOL0     N50270   6.922   5.591   3.178 -0.5536  0.5801  0.5624
  373MOL0     N50271   6.803   5.564   3.142  0.3947 -0.4509  0.6219
  373MOL0     C50272   5.652   5.571   3.288 -0.2983  0.7632 -0.6888
  373MOL0     C50273   5.536   5.577   3.365 -0.9478  0.7716  0.0690
  373MOL0     C50274   5.115   5.597   3.501  0.6482  0.9123 -0.4339
  373MOL0     C50275   5.138   5.533   3.623 -0.8858  0.6739 -0.4041
  373MOL0     C50276   5.055   5.539   3.731  0.5726 -0.3458  0.2820
  373MOL0     C50277   4.923   5.592   3.721  0.1973  0.9503 -0.9775
  373MOL0     O50278   4.830   5.600   3.828 -0.2263 -0.3074  0.4512
  373MOL0     C50279   4.858   5.587   3.967 -0.5148  0.1683  0.1221
  373MOL0     C50280   4.963   5.687   4.019  0.2228  0.4207  0.0743
  373MOL0     C50281   5.025   5.655   4.156  0.1494  0.1640  0.2631
  373MOL0     C50282   4.939   5.681   4.282 -0.4860 -0.3665 -0.5069
  373MOL0     C50283   4.841   5.573   4.312 -0.0473  0.5443 -0.3358
  373MOL0     C50284   4.755   5.478   4.303 -0.7019 -0.2971 -0.2296
  373MOL0     C50285   4.893   5.663   3.600 -0.2231  0.5728  0.4523
  373MOL0     C50286   4.988   5.658   3.488 -0.8823  0.1409  0.4070
  373MOL0     C50287   4.941   5.718   3.355 -0.1033 -0.3865 -0.9072
  373MOL0     H50288   5.338   5.372   3.175 -1.9475  3.1735 -2.8297
  373MOL0     H50289   5.539   5.363   3.035 -0.4225  0.4281 -0.0759
  373MOL0     H50290   5.901   5.616   3.142 -1.4095  0.1395  2.7041
  373MOL0     H50291   5.906   5.456   3.234 -0.8463 -3.2538 -1.3620
  373MOL0     H50292   6.029   5.538   2.957  6.4421  0.8866 -0.2055
  373MOL0     H50293   6.019   5.366   3.023  0.0900 -0.6832  0.1822
  373MOL0     H50294   6.146   5.444   3.216  2.9680 -1.1776 -0.9640
  373MOL0     H50295   6.169   5.603   3.135  1.6418  0.4772  1.1793
  373MOL0     H50296   6.253   5.333   3.035 -1.3952 -0.3796  2.2192
  373MOL0     H50297   6.306   5.493   2.975 -0.0106  1.1602  0.8118
  373MOL0     H50298   6.411   5.521   3.213 -1.1146 -0.3228 -0.1043
  373MOL0     H50299   6.367   5.355   3.248  0.1519 -0.1509  0.5818
  373MOL0     H50300   6.603   5.397   3.183 -0.9812  2.3387  0.8426
  373MOL0     H50301   6.530   5.269   3.086  1.4419 -0.1515  1.7225
  373MOL0     H50302   6.558   5.566   3.007  1.4529 -0.3670 -0.7343
  373MOL0     H50303   6.498   5.439   2.897 -0.6066  2.3765 -1.1851
  373MOL0     H50304   6.719   5.323   2.949  1.0732  0.5354 -0.2790
  373MOL0     H50305   6.734   5.465   2.850 -1.9192 -0.4452 -0.6207
  373MOL0     H50306   6.979   5.361   2.945 -1.2663  2.1726 -2.7939
  373MOL0     H50307   7.199   5.618   3.105  2.2672 -0.4503  1.8225
  373MOL0     H50308   7.194   5.506   3.226  0.4122 -1.2334 -0.9200
  373MOL0     H50309   7.201   5.310   3.072 -0.8309  0.8496  1.6802
  373MOL0     H50310   7.223   5.424   2.942 -2.5935  1.0186  1.1682
  373MOL0     H50311   7.436   5.332   3.013 -0.9239 -1.6024  0.9014
  373MOL0     H50312   7.400   5.359   3.184 -5.9859 -0.5397  0.2607
  373MOL0     H50313   7.449   5.620   3.135  1.4748 -0.5892  2.0687
  373MOL0     H50314   7.416   5.573   2.960  0.7009 -1.2478  0.1709
  373MOL0     H50315   7.537   5.780   2.964  0.5712 -0.5636 -0.9649
  373MOL0     H50316   7.704   5.972   2.983  0.2302 -0.1099 -0.7366
  373MOL0     H50317   8.138   6.068   2.941  0.2107  1.1757 -0.2283
  373MOL0     H50318   8.351   6.171   2.916 -4.1383  0.7879 -0.5576
  373MOL0     H50319   8.684   6.104   3.232 -3.5398 -0.3519  2.5204
  373MOL0     H50320   8.753   6.217   3.107 -1.8919  2.6535 -2.2795
  373MOL0     H50321   8.623   6.401   3.204 -0.8915  1.1039  1.3927
  373MOL0     H50322   8.548   6.289   3.325  1.0425 -0.4476  3.2791
  373MOL0     H50323   8.700   6.390   3.451  0.8858  1.1130 -0.3300
  373MOL0     H50324   8.799   6.253   3.396 -2.9991 -0.6620  0.4077
  373MOL0     H50325   8.795   6.534   3.295 -2.8213 -1.6794  2.8372
  373MOL0     H50326   8.890   6.403   3.210 -0.1860  2.0390 -1.6783
  373MOL0     H50327   9.033   6.386   3.385 -0.2406  1.2810 -2.8715
  373MOL0     H50328   8.943   6.487   3.506  1.2973 -0.5625  1.4444
  373MOL0     H50329   9.021   6.622   3.261  1.7513 -3.7197 -1.2621
  373MOL0     H50330   8.976   6.669   3.429 -1.6723 -2.0626  1.7155
  373MOL0     H50331   9.259   6.596   3.349 -1.0523  0.7201 -0.5599
  373MOL0     H50332   9.206   6.506   3.488 -0.6557 -0.3748  0.3253
  373MOL0     H50333   9.317   6.733   3.528 -1.1355  1.3127 -0.9039
  373MOL0     H50334   9.156   6.793   3.498  0.7589  0.2190 -0.0043
  373MOL0     H50335   8.469   6.036   3.310  0.3247  1.0870  0.1484
  373MOL0     H50336   8.233   5.937   3.320  0.0748  0.5138  1.1559
  373MOL0     H50337   7.982   5.719   3.174  0.7712  1.4761 -1.2606
  373MOL0     H50338   7.842   5.527   3.135  3.6593  1.4657 -1.9367
  373MOL0     H50339   5.743   5.619   3.323 -1.3148  1.9028  0.4724
  373MOL0     H50340   5.522   5.628   3.459 -1.7338  4.5800 -1.9165
  373MOL0     H50341   5.236   5.493   3.644 -0.6479  0.8221 -1.1968
  373MOL0     H50342   5.104   5.493   3.817  2.1213  0.4105 -0.1462
  373MOL0     H50343   4.889   5.486   3.996 -2.4120 -0.9745 -1.5824
  373MOL0     H50344   4.758   5.605   4.007 -2.5911 -1.1541 -3.8618
  373MOL0     H50345   4.913   5.783   4.034  2.6306  1.7190  0.3247
  373MOL0     H50346   5.046   5.698   3.948 -0.4009 -0.0098 -0.7297
  373MOL0     H50347   5.110   5.723   4.164  0.5099 -0.4406  2.0612
  373MOL0     H50348   5.058   5.550   4.157  0.3641  0.1573 -2.0649
  373MOL0     H50349   4.999   5.696   4.373 -1.7588  2.5679 -0.0434
  373MOL0     H50350   4.884   5.774   4.265  1.6324  0.9339 -0.5740
  373MOL0     H50351   4.674   5.408   4.312 -0.3982 -0.5548  0.5743
  373MOL0     H50352   4.796   5.710   3.587 -0.6319 -0.7021 -1.4982
  373MOL0     H50353   5.019   5.791   3.334 -2.8799  3.6289  1.4959
  373MOL0     H50354   4.931   5.640   3.279 -2.0174 -1.3807  0.2757
  373MOL0     H50355   4.852   5.780   3.371  0.9721  1.0334 -0.1731
  374MOL0     O50356   2.719   1.506   3.968 -0.0318 -0.0155 -0.6955
  374MOL0     C50357   2.619   1.451   3.927 -0.3289  0.3332 -0.7582
  374MOL0     O50358   2.616   1.321   3.872  0.0272 -0.0808 -1.2211
  374MOL0     C50359   2.735   1.250   3.894  0.8961 -0.0886  0.3400
  374MOL0     C50360   2.809   1.199   3.778 -0.0273  0.9911 -0.4080
  374MOL0     C50361   2.925   1.124   3.800 -0.0310  0.7292  0.3265
  374MOL0     C50362   2.979   1.109   3.933  0.6996  0.3158  0.1902
  374MOL0     O50363   3.088   1.023   3.941  0.5444  0.3133 -0.5522
  374MOL0     C50364   3.132   0.958   4.061 -0.9473  0.6115 -0.3233
  374MOL0     C50365   3.268   0.888   4.041 -0.4178 -0.4408  0.4441
  374MOL0     C50366   3.385   0.986   4.026  0.4353 -0.6485  0.4295
  374MOL0     C50367   3.515   0.908   4.051 -0.1304  0.5518 -0.2255
  374MOL0     C50368   3.645   0.975   4.014  0.4338  1.0222  0.5432
  374MOL0     C50369   3.753   0.876   4.025  0.4653 -0.3167 -0.1394
  374MOL0     C50370   3.889   0.934   4.004 -0.0976  0.1162 -0.6020
  374MOL0     C50371   3.948   1.036   4.109 -0.4490  0.1749  0.7428
  374MOL0     N50372   4.074   1.098   4.096 -0.6644 -0.0382 -0.3543
  374MOL0     C50373   4.151   1.096   3.984  0.5812  0.3254 -0.6120
  374MOL0     C50374   4.246   1.185   4.009 -0.3729  1.5690 -0.5669
  374MOL0     C50375   4.362   1.214   3.915 -0.3897 -0.1522  0.1808
  374MOL0     C50376   4.497   1.163   3.954 -0.0278  0.3074  0.7506
  374MOL0     C50377   4.597   1.195   3.857  0.2196  0.1480 -0.8602
  374MOL0     C50378   4.723   1.121   3.888 -1.1358 -0.8229 -0.3100
  374MOL0     O50379   4.834   1.174   3.804  0.3983 -0.1789 -0.2292
  374MOL0     C50380   4.963   1.130   3.826 -0.2286  0.1359 -0.3319
  374MOL0     C50381   5.048   1.224   3.886  0.3508  0.0950  0.5769
  374MOL0     C50382   5.170   1.174   3.930  0.0886 -0.7925 -0.2424
  374MOL0     C50383   5.223   1.053   3.880 -0.4257  0.6511  0.7126
  374MOL0     C50384   5.371   1.017   3.900  0.8277 -0.2043 -0.0144
  374MOL0     O50385   5.414   0.909   3.830  0.3995 -0.5376  0.3153
  374MOL0     C50386   5.544   0.920   3.811 -0.4257  1.4487  0.2203
  374MOL0     C50387   5.597   0.963   3.690 -0.3871  0.0688 -0.1409
  374MOL0     C50388   5.739   0.968   3.674 -0.0831 -0.5751  0.2807
  374MOL0     C50389   5.824   0.934   3.779  0.4248  0.6988 -0.5944
  374MOL0     O50390   5.960   0.961   3.778 -0.5511  0.2478 -0.6117
  374MOL0     C50391   6.052   0.868   3.835 -0.3133 -1.0348 -0.2159
  374MOL0     C50392   6.167   0.831   3.741  0.3828 -0.1930 -0.2521
  374MOL0     C50393   6.129   0.790   3.594  0.3110 -1.2624 -0.0016
  374MOL0     C50394   6.243   0.759   3.507 -0.2544  1.2245  0.6284
  374MOL0     C50395   6.189   0.700   3.371 -0.6142 -0.1467 -0.0360
  374MOL0     C50396   6.294   0.697   3.257  0.2414 -0.1451  0.0246
  374MOL0     C50397   6.429   0.621   3.293  0.6391 -1.1401  0.7639
  374MOL0     C50398   6.511   0.559   3.177  0.1479 -0.1546 -0.0678
  374MOL0    Cl50399   6.561   0.688   3.064 -0.1622 -0.2175  0.4259
  374MOL0     C50400   5.768   0.872   3.895  0.3982 -0.3412 -0.1992
  374MOL0     C50401   5.627   0.868   3.912  0.1883 -0.5207  0.9027
  374MOL0     O50402   5.437   1.093   3.967  0.2086  0.0427  0.4720
  374MOL0     C50403   5.147   0.967   3.799  0.0069 -0.3996  0.0876
  374MOL0     C50404   5.016   1.008   3.780  0.3536 -0.0569  0.0513
  374MOL0     N50405   4.216   1.249   4.123  0.1845  0.2017 -0.5062
  374MOL0     N50406   4.109   1.198   4.171  0.3112 -0.4387  0.5319
  374MOL0     C50407   2.911   1.163   4.039  0.7274  0.0849  0.2530
  374MOL0     C50408   2.784   1.222   4.018 -0.0675  0.5737  0.6182
  374MOL0     C50409   2.494   1.530   3.940 -0.0650 -0.1934 -0.1749
  374MOL0     C50410   2.499   1.648   4.016  0.5260 -0.2997  0.1086
  374MOL0     C50411   2.381   1.730   4.040 -0.3081  0.5585 -0.4398
  374MOL0     C50412   2.260   1.688   3.992  0.0320  0.5566 -0.5758
  374MOL0     O50413   2.145   1.762   4.012  0.2421  0.5133  0.0791
  374MOL0     C50414   2.098   1.842   3.908 -0.5461  0.2220 -0.4987
  374MOL0     C50415   2.161   1.986   3.908 -0.9588  0.7604  0.6592
  374MOL0     C50416   2.129   2.075   4.028  0.1086  0.1616 -0.5741
  374MOL0     C50417   1.989   2.109   4.026  0.3907  0.0557  0.4965
  374MOL0     C50418   1.953   2.196   4.137 -0.2762  0.1370 -0.6674
  374MOL0     C50419   1.926   2.269   4.227  0.0247  0.1896 -0.0321
  374MOL0     C50420   2.251   1.567   3.925 -0.2200  0.7598  0.3138
  374MOL0     C50421   2.362   1.486   3.893 -0.9030  0.2493 -0.8859
  374MOL0     C50422   2.335   1.346   3.842 -0.3903  0.2054 -0.2958
  374MOL0     H50423   2.755   1.210   3.684 -2.8171 -4.3044  0.1985
  374MOL0     H50424   2.979   1.094   3.711 -0.2529 -1.2941  0.8344
  374MOL0     H50425   3.139   1.033   4.141  0.1598  1.9469 -1.6286
  374MOL0     H50426   3.055   0.885   4.088 -0.4960 -0.4695 -1.8187
  374MOL0     H50427   3.267   0.816   3.959 -0.1408 -3.4405  2.8868
  374MOL0     H50428   3.285   0.839   4.137 -1.9437 -1.7445  0.1003
  374MOL0     H50429   3.380   1.072   4.093  0.1761 -0.5890  0.3307
  374MOL0     H50430   3.376   1.018   3.922 -0.9866 -2.4558 -0.0463
  374MOL0     H50431   3.513   0.867   4.153 -2.1941 -0.0069 -0.4432
  374MOL0     H50432   3.516   0.816   3.992 -1.9724  1.0224 -1.0594
  374MOL0     H50433   3.634   1.000   3.908  2.2748  1.0733  0.3345
  374MOL0     H50434   3.646   1.064   4.076 -1.2609  0.1559  1.9132
  374MOL0     H50435   3.735   0.835   4.124  0.8360 -2.4615 -0.9021
  374MOL0     H50436   3.737   0.790   3.959 -2.5701 -1.3998  1.7778
  374MOL0     H50437   3.883   0.977   3.904 -1.1501 -2.3503 -1.6779
  374MOL0     H50438   3.958   0.850   4.000 -1.3419 -1.1252  1.7976
  374MOL0     H50439   3.874   1.117   4.112  1.1842  1.7688 -0.1625
  374MOL0     H50440   3.952   0.983   4.204  3.2491  0.0699  0.6698
  374MOL0     H50441   4.142   1.024   3.903 -0.6982  1.5493 -1.6058
  374MOL0     H50442   4.342   1.152   3.827  1.2687 -1.4837  0.6857
  374MOL0     H50443   4.374   1.318   3.885  0.1687  0.2294  1.6598
  374MOL0     H50444   4.513   1.221   4.046  0.3742  0.1879  0.7605
  374MOL0     H50445   4.500   1.054   3.964 -0.7508 -0.4871 -4.9000
  374MOL0     H50446   4.623   1.300   3.873  0.3937  0.1777 -1.3122
  374MOL0     H50447   4.555   1.184   3.756  0.2640  0.7129 -0.9446
  374MOL0     H50448   4.706   1.015   3.865  2.2855 -1.1534 -1.8719
  374MOL0     H50449   4.738   1.126   3.996 -0.7514 -0.1647 -0.3958
  374MOL0     H50450   5.018   1.312   3.942  2.6526 -0.0043  2.1171
  374MOL0     H50451   5.228   1.233   4.000  1.8675 -1.7803 -0.8432
  374MOL0     H50452   5.535   1.015   3.618  1.3354 -0.5173 -2.1593
  374MOL0     H50453   5.770   1.031   3.592 -1.5469 -0.4120 -0.1712
  374MOL0     H50454   6.101   0.920   3.917 -0.0625  0.1902 -1.1215
  374MOL0     H50455   6.001   0.776   3.864  0.5445 -1.9814 -1.5438
  374MOL0     H50456   6.231   0.920   3.735 -1.3246  1.1219  0.0017
  374MOL0     H50457   6.224   0.749   3.784 -1.6555 -1.9520 -0.7663
  374MOL0     H50458   6.070   0.699   3.612 -0.4911 -0.7519  0.0349
  374MOL0     H50459   6.065   0.867   3.550  0.4984 -0.8466  0.4427
  374MOL0     H50460   6.308   0.686   3.556 -2.9057 -0.2775  2.1240
  374MOL0     H50461   6.300   0.851   3.500  0.8862  0.6072  1.5260
  374MOL0     H50462   6.109   0.768   3.341 -0.4301  0.6429  1.1875
  374MOL0     H50463   6.151   0.598   3.384 -0.0078 -0.2993  0.5769
  374MOL0     H50464   6.240   0.639   3.182 -3.5810  0.9108  1.7191
  374MOL0     H50465   6.312   0.799   3.224  0.2083 -0.8222 -2.2306
  374MOL0     H50466   6.401   0.549   3.371  0.6074  0.0228  1.8650
  374MOL0     H50467   6.493   0.693   3.344 -0.0243 -0.9659  1.3813
  374MOL0     H50468   6.604   0.517   3.215  1.6048  1.7708 -1.2857
  374MOL0     H50469   6.440   0.494   3.124 -0.8103  1.9024 -1.4737
  374MOL0     H50470   5.834   0.827   3.968  2.1445  1.5274 -0.5327
  374MOL0     H50471   5.585   0.818   3.998 -1.5959 -1.4797 -0.4631
  374MOL0     H50472   5.191   0.890   3.736 -0.4040 -0.6045  0.0507
  374MOL0     H50473   4.945   0.942   3.730  1.4017 -0.7060 -0.5975
  374MOL0     H50474   2.938   1.148   4.143  1.6011 -1.2057 -0.1344
  374MOL0     H50475   2.732   1.247   4.110 -1.7587  2.5017 -0.7624
  374MOL0     H50476   2.591   1.687   4.059 -1.9534  3.2802  2.7541
  374MOL0     H50477   2.397   1.821   4.097  2.5575  0.2870 -0.6958
  374MOL0     H50478   1.989   1.856   3.913 -0.3621  1.2877  1.2913
  374MOL0     H50479   2.123   1.795   3.813  1.8873 -1.1615  0.7440
  374MOL0     H50480   2.121   2.041   3.822  1.9255  0.3477 -1.0797
  374MOL0     H50481   2.269   1.986   3.888 -1.2777  1.3716 -1.3049
  374MOL0     H50482   2.193   2.163   4.028 -1.6195  1.4793 -1.2044
  374MOL0     H50483   2.144   2.028   4.126  1.1490  0.8987 -0.3629
  374MOL0     H50484   1.968   2.156   3.929  1.2126  1.7827  1.0991
  374MOL0     H50485   1.925   2.021   4.035  1.8252 -1.0608  0.0647
  374MOL0     H50486   1.909   2.323   4.318  0.8262 -1.1474  0.9558
  374MOL0     H50487   2.150   1.545   3.894 -0.8987  1.7487  1.6749
  374MOL0     H50488   2.232   1.344   3.804 -0.6230  1.4435  0.2173
  374MOL0     H50489   2.402   1.327   3.759  3.2111  0.7525  2.2669
  374MOL0     H50490   2.344   1.263   3.913  0.0711  1.1217  0.7549
  375MOL0     O50491   1.954   6.927  11.242 -0.1044 -0.1948  0.3223
  375MOL0     C50492   1.928   6.806  11.206 -0.0844 -0.7826 -0.0832
  375MOL0     O50493   2.005   6.719  11.125 -0.4590 -0.4435 -0.1612
  375MOL0     C50494   2.128   6.775  11.113  0.1346  1.1451 -0.6814
  375MOL0     C50495   2.231   6.708  11.178 -0.6151 -0.2464  0.0385
  375MOL0     C50496   2.363   6.753  11.162 -0.0345  0.0416 -0.4491
  375MOL0     C50497   2.392   6.849  11.068 -0.3640 -0.3907  0.3993
  375MOL0     O50498   2.523   6.879  11.048  0.6206  0.1890  0.6617
  375MOL0     C50499   2.560   6.924  10.914 -0.5034  0.1474 -0.0367
  375MOL0     C50500   2.715   6.919  10.904  0.3136 -0.1338 -0.2456
  375MOL0     C50501   2.789   6.987  11.023 -0.2433 -0.4686  0.4071
  375MOL0     C50502   2.749   7.133  11.052 -0.0417  0.0311  0.6705
  375MOL0     C50503   2.856   7.212  11.135 -0.6979  0.3032 -0.3865
  375MOL0     C50504   2.956   7.286  11.038 -0.3430  0.1750 -0.2004
  375MOL0     C50505   3.040   7.379  11.125 -0.3688 -0.0834  0.3518
  375MOL0     C50506   3.149   7.443  11.051 -0.3078  0.7570 -0.4449
  375MOL0     N50507   3.244   7.524  11.132  0.4783  0.1315 -0.2334
  375MOL0     C50508   3.351   7.466  11.201  0.3925  0.1967 -0.5599
  375MOL0     C50509   3.421   7.572  11.247  0.6202 -0.3589  0.6865
  375MOL0     C50510   3.547   7.574  11.335 -0.1405  0.0816  0.8294
  375MOL0     C50511   3.539   7.652  11.473 -0.0687  0.3719  0.3867
  375MOL0     C50512   3.552   7.566  11.593  0.3414 -0.4571 -0.5570
  375MOL0     C50513   3.444   7.467  11.610  0.6000 -0.4903 -0.3442
  375MOL0     O50514   3.317   7.520  11.583  0.2591 -0.1638  0.5755
  375MOL0     C50515   3.205   7.438  11.584 -0.1270  0.6303 -0.3502
  375MOL0     C50516   3.187   7.356  11.690  0.1126  0.4516  0.1396
  375MOL0     C50517   3.076   7.270  11.690  0.1487  0.7491 -0.0172
  375MOL0     C50518   2.976   7.271  11.590 -0.3233  1.0288  0.1024
  375MOL0     C50519   2.859   7.183  11.603  0.8574 -0.7728  0.5944
  375MOL0     O50520   2.751   7.236  11.534  1.0523 -0.4763  0.1695
  375MOL0     C50521   2.639   7.154  11.516 -0.5476 -0.3667 -0.4399
  375MOL0     C50522   2.627   7.081  11.399  0.2525  0.4784  0.4180
  375MOL0     C50523   2.510   7.006  11.380 -0.2460 -0.0348 -0.1219
  375MOL0     C50524   2.402   7.014  11.473  0.2033  0.4674 -0.2732
  375MOL0     O50525   2.290   6.946  11.439  0.3019 -0.4753 -0.4664
  375MOL0     C50526   2.219   6.903  11.560 -0.0203 -0.1741 -0.9468
  375MOL0     C50527   2.153   6.768  11.537  0.7935  0.5990 -0.6308
  375MOL0     C50528   2.060   6.748  11.661 -0.2883  0.5640 -0.6397
  375MOL0     C50529   1.914   6.778  11.643 -0.4278 -0.8067 -0.2613
  375MOL0     C50530   1.829   6.746  11.772 -0.3342 -0.7008 -0.9354
  375MOL0     C50531   1.685   6.789  11.752 -0.1675 -0.8159  0.6779
  375MOL0     C50532   1.603   6.793  11.883  0.9736  0.7813  0.4014
  375MOL0     C50533   1.471   6.867  11.851 -0.6216 -0.1287  0.2537
  375MOL0    Cl50534   1.339   6.818  11.942  0.0322 -0.2281 -0.0692
  375MOL0     C50535   2.410   7.107  11.584  0.4174  0.7101  1.3069
  375MOL0     C50536   2.527   7.179  11.604  0.5083  0.6474 -0.0145
  375MOL0     O50537   2.855   7.078  11.669 -0.0639  0.3600  0.2579
  375MOL0     C50538   2.993   7.373  11.498  0.0964  0.5702  0.1438
  375MOL0     C50539   3.104   7.448  11.482 -0.2021 -0.7913 -0.3826
  375MOL0     N50540   3.354   7.693  11.206  0.6165  0.2255  0.9621
  375MOL0     N50541   3.245   7.654  11.142  0.1914  0.3180  0.0016
  375MOL0     C50542   2.290   6.916  10.997  0.2511 -0.5136 -0.4702
  375MOL0     C50543   2.157   6.878  11.022  0.6133  0.5949  0.2628
  375MOL0     C50544   1.803   6.754  11.271  0.2757  0.2899  0.2140
  375MOL0     C50545   1.729   6.842  11.362  0.9538  0.7162 -0.2465
  375MOL0     C50546   1.608   6.796  11.423 -0.1658 -0.4690 -0.4445
  375MOL0     C50547   1.550   6.671  11.393  0.1945 -0.9783  0.2547
  375MOL0     O50548   1.433   6.636  11.458 -0.0434 -0.3414  0.2138
  375MOL0     C50549   1.319   6.666  11.378  0.5188  0.2720  0.4971
  375MOL0     C50550   1.186   6.628  11.451 -0.0099  0.1251 -0.2207
  375MOL0     C50551   1.062   6.620  11.370 -0.2221 -0.0946 -0.2679
  375MOL0     C50552   1.025   6.754  11.302  0.6167 -0.0671 -0.2740
  375MOL0     C50553   1.073   6.757  11.168 -0.2716 -0.6460  0.4457
  375MOL0     C50554   1.107   6.766  11.054 -0.4893 -0.0175 -0.2339
  375MOL0     C50555   1.611   6.592  11.303  0.6200 -0.2209 -0.5382
  375MOL0     C50556   1.732   6.631  11.242 -0.0682  0.4027  0.5994
  375MOL0     C50557   1.782   6.545  11.128 -0.9913  0.3234 -0.0094
  375MOL0     H50558   2.217   6.622  11.242  0.0139 -0.1192  0.3570
  375MOL0     H50559   2.434   6.706  11.230 -0.4214 -1.3566 -0.9745
  375MOL0     H50560   2.522   6.853  10.840 -1.7105  1.1002 -0.3733
  375MOL0     H50561   2.517   7.023  10.897 -0.5447  0.7956  3.1614
  375MOL0     H50562   2.752   6.981  10.821  0.8533  0.7202  0.6197
  375MOL0     H50563   2.746   6.814  10.901 -2.0313 -0.8961 -0.3813
  375MOL0     H50564   2.896   6.991  10.998 -0.0534  1.2007  1.3058
  375MOL0     H50565   2.792   6.929  11.116  1.4758 -1.1828 -0.0412
  375MOL0     H50566   2.741   7.193  10.961  1.8170  2.7625  2.1851
  375MOL0     H50567   2.655   7.132  11.109  0.1017  0.0177  0.9050
  375MOL0     H50568   2.798   7.287  11.189 -0.8029 -0.9544  1.3476
  375MOL0     H50569   2.910   7.143  11.202  0.1684  0.6891 -0.6729
  375MOL0     H50570   3.019   7.219  10.978 -0.6575  0.2130 -0.5786
  375MOL0     H50571   2.910   7.345  10.957  3.1648  3.7072  0.0593
  375MOL0     H50572   3.084   7.320  11.206  1.2319 -0.3184 -0.6357
  375MOL0     H50573   2.976   7.458  11.164 -0.5383  0.9576 -1.9240
  375MOL0     H50574   3.204   7.368  10.994 -2.3077 -1.4358  0.3734
  375MOL0     H50575   3.083   7.504  10.989 -2.3678 -0.1645  0.7194
  375MOL0     H50576   3.381   7.365  11.225 -2.0446 -0.3518  0.5536
  375MOL0     H50577   3.584   7.472  11.350  0.0893 -0.0075 -0.2519
  375MOL0     H50578   3.625   7.615  11.270  1.2177 -2.6611  0.5790
  375MOL0     H50579   3.625   7.721  11.474 -0.0469  0.3418  1.1034
  375MOL0     H50580   3.445   7.707  11.468  0.6061  1.4792 -0.8826
  375MOL0     H50581   3.561   7.629  11.682  0.5810 -1.3431  0.0663
  375MOL0     H50582   3.652   7.522  11.591 -0.8413 -3.4885  0.8747
  375MOL0     H50583   3.445   7.427  11.712  0.1327 -0.8043 -0.4592
  375MOL0     H50584   3.468   7.384  11.543  4.0314 -0.8774  1.1437
  375MOL0     H50585   3.258   7.365  11.772  3.9340  0.1013 -2.8344
  375MOL0     H50586   3.078   7.194  11.767  2.1950  1.8106  1.0893
  375MOL0     H50587   2.702   7.054  11.326  0.1955 -1.7633  1.0923
  375MOL0     H50588   2.511   6.928  11.304 -0.5993  0.1455 -0.3184
  375MOL0     H50589   2.289   6.900  11.645 -1.9194  2.8522  0.8777
  375MOL0     H50590   2.143   6.978  11.582  0.7437  0.0477  1.1687
  375MOL0     H50591   2.089   6.776  11.449 -1.8000  3.2149  1.3025
  375MOL0     H50592   2.232   6.692  11.538 -0.1089 -0.4726  2.9945
  375MOL0     H50593   2.067   6.640  11.678  3.2829  0.0030 -4.2599
  375MOL0     H50594   2.091   6.808  11.747 -1.3511 -0.2101  0.3263
  375MOL0     H50595   1.876   6.725  11.556  2.6143  0.0057 -2.2363
  375MOL0     H50596   1.901   6.886  11.631  0.9293 -0.2262  2.6936
  375MOL0     H50597   1.867   6.794  11.863  0.6613  2.1082 -2.7244
  375MOL0     H50598   1.838   6.639  11.788 -0.8426 -0.4609  1.3003
  375MOL0     H50599   1.678   6.895  11.725  0.4518  0.0485  3.5284
  375MOL0     H50600   1.646   6.724  11.674 -2.2079  1.5073 -0.3813
  375MOL0     H50601   1.663   6.841  11.961  0.3370  1.4540  0.4809
  375MOL0     H50602   1.587   6.690  11.917  1.9013  0.1697 -0.9338
  375MOL0     H50603   1.501   6.971  11.870  3.6374 -1.1727  0.1252
  375MOL0     H50604   1.438   6.850  11.749  1.5667 -4.2383  0.0596
  375MOL0     H50605   2.320   7.119  11.644 -0.2200 -0.8364  0.7116
  375MOL0     H50606   2.540   7.245  11.688  0.4345 -0.0238  0.5325
  375MOL0     H50607   2.916   7.380  11.422  3.9438  1.4356 -4.1216
  375MOL0     H50608   3.112   7.519  11.401 -0.3135 -0.3558 -0.0146
  375MOL0     H50609   2.322   6.996  10.931  1.0375 -0.5199 -0.1098
  375MOL0     H50610   2.079   6.931  10.969  2.1092  2.1109 -0.5221
  375MOL0     H50611   1.747   6.947  11.385  0.4280  0.8291 -0.3286
  375MOL0     H50612   1.552   6.844  11.502  1.5818 -2.9704  2.5295
  375MOL0     H50613   1.329   6.616  11.281 -1.7500  0.2557  0.2265
  375MOL0     H50614   1.315   6.773  11.356 -1.2322  0.4643  1.5233
  375MOL0     H50615   1.171   6.692  11.538  1.2952 -0.9670  0.8582
  375MOL0     H50616   1.204   6.528  11.492 -1.1250  0.0643  0.1493
  375MOL0     H50617   0.978   6.592  11.434 -0.8122 -2.9773 -2.0721
  375MOL0     H50618   1.068   6.542  11.293 -0.4278 -0.3799  0.0001
  375MOL0     H50619   0.916   6.754  11.293  0.5950 -0.3181 -0.0078
  375MOL0     H50620   1.048   6.843  11.361 -0.1294  0.6476 -1.0307
  375MOL0     H50621   1.148   6.767  10.955 -0.8539 -3.5328 -0.5730
  375MOL0     H50622   1.560   6.499  11.281 -0.5754  0.4316 -0.6364
  375MOL0     H50623   1.876   6.495  11.152 -0.8468 -0.0112 -1.2130
  375MOL0     H50624   1.707   6.471  11.099 -0.4323 -0.5032  0.6021
  375MOL0     H50625   1.809   6.607  11.042  2.9825  0.9964  1.5128
  376MOL0     O50626   6.670   1.164   9.167 -0.4370  0.0629  0.5021
  376MOL0     C50627   6.677   1.118   9.287  0.0062 -0.7766  0.0978
  376MOL0     O50628   6.760   1.164   9.382 -0.5923 -0.6440 -0.0634
  376MOL0     C50629   6.848   1.261   9.350 -1.0738 -0.8635 -0.8243
  376MOL0     C50630   6.810   1.399   9.333 -0.4180  0.5694  0.2050
  376MOL0     C50631   6.904   1.499   9.289  0.0243 -0.0186 -0.4195
  376MOL0     C50632   7.041   1.466   9.282 -0.8687  0.2397 -0.0978
  376MOL0     O50633   7.130   1.553   9.210 -0.1174  0.3720 -0.7298
  376MOL0     C50634   7.121   1.690   9.250 -0.3125  0.6461 -0.8901
  376MOL0     C50635   7.243   1.768   9.189  0.0929 -1.2229 -0.2596
  376MOL0     C50636   7.260   1.760   9.039  0.0652 -0.0549  0.6141
  376MOL0     C50637   7.379   1.841   8.990 -0.5943 -0.4122  0.2404
  376MOL0     C50638   7.510   1.764   9.007  0.2405  0.2055 -0.1345
  376MOL0     C50639   7.631   1.831   8.944  0.2353  0.1445  0.6440
  376MOL0     C50640   7.747   1.737   8.913 -0.3454 -0.0559  0.5059
  376MOL0     C50641   7.829   1.717   9.034  0.0420 -0.6564 -0.6532
  376MOL0     N50642   7.937   1.618   9.001 -0.5296 -0.5256  0.2143
  376MOL0     C50643   8.035   1.636   8.912 -0.1877 -0.0195  0.5428
  376MOL0     C50644   8.118   1.528   8.921 -0.6748  0.2812 -0.0049
  376MOL0     C50645   8.246   1.503   8.844  0.0423 -0.0614 -0.0405
  376MOL0     C50646   8.359   1.485   8.946 -0.2518  0.2590  0.2153
  376MOL0     C50647   8.493   1.492   8.872  0.0076 -0.8533  0.0929
  376MOL0     C50648   8.617   1.486   8.971  0.1059 -0.1466 -0.4170
  376MOL0     O50649   8.638   1.631   8.989 -0.5015  0.7235  0.1594
  376MOL0     C50650   8.745   1.663   9.066  0.2005  0.8652 -0.6301
  376MOL0     C50651   8.823   1.577   9.144 -0.4116  0.1584 -0.1938
  376MOL0     C50652   8.925   1.622   9.225 -0.9920 -0.4200 -0.0920
  376MOL0     C50653   8.974   1.754   9.215  0.7701 -0.0786  0.3700
  376MOL0     C50654   9.104   1.805   9.274 -0.2550 -1.0441  0.1459
  376MOL0     O50655   9.188   1.720   9.324  0.1273 -0.0192  0.1239
  376MOL0     C50656   9.291   1.761   9.403  0.5743 -1.0272  0.2865
  376MOL0     C50657   9.283   1.859   9.503 -0.2110 -0.3280 -0.5262
  376MOL0     C50658   9.407   1.891   9.581 -0.0057  0.3733  1.2149
  376MOL0     C50659   9.532   1.836   9.554 -0.6131  0.7864  0.7261
  376MOL0     O50660   9.640   1.867   9.643  0.3219  0.2023  0.1643
  376MOL0     C50661   9.668   2.000   9.678  0.9016 -0.2531 -0.1894
  376MOL0     C50662   9.768   2.015   9.782 -0.2309  0.5185  0.2601
  376MOL0     C50663   9.902   1.960   9.726  0.3508  0.3365  0.4847
  376MOL0     C50664  10.023   2.021   9.796 -0.2467 -0.5470  0.2539
  376MOL0     C50665  10.142   1.986   9.709  0.0346 -0.2882  0.6196
  376MOL0     C50666  10.276   2.007   9.785  1.0463 -0.3419 -0.5343
  376MOL0     C50667  10.389   1.949   9.704 -0.7346  0.4528  0.1307
  376MOL0     C50668  10.522   1.982   9.765  0.2863  0.5526  0.3137
  376MOL0    Cl50669  10.658   1.974   9.655 -0.3363  0.1856 -0.3701
  376MOL0     C50670   9.535   1.728   9.462 -0.4064  0.9554  0.2388
  376MOL0     C50671   9.414   1.697   9.389 -0.2928 -0.0468 -0.2865
  376MOL0     O50672   9.119   1.930   9.264 -1.2056  0.0997  1.0231
  376MOL0     C50673   8.896   1.841   9.138  0.1891 -0.3065 -0.9384
  376MOL0     C50674   8.780   1.799   9.070 -0.6591  0.4234  0.1125
  376MOL0     N50675   8.066   1.429   9.014 -0.1688 -0.6061 -0.4678
  376MOL0     N50676   7.952   1.494   9.052  0.3079  0.8353  0.4648
  376MOL0     C50677   7.086   1.341   9.318 -0.0553  0.7528 -0.6072
  376MOL0     C50678   6.991   1.238   9.349 -0.9005 -0.4187 -0.5145
  376MOL0     C50679   6.605   0.985   9.325 -0.1276  0.3397  0.2285
  376MOL0     C50680   6.595   0.954   9.458  0.0140  0.6735 -0.1068
  376MOL0     C50681   6.542   0.830   9.499 -0.7200 -0.4405 -0.3399
  376MOL0     C50682   6.517   0.730   9.411  0.1070 -0.0320  0.5445
  376MOL0     O50683   6.479   0.608   9.467  0.2388  0.1480  0.1122
  376MOL0     C50684   6.413   0.520   9.377 -0.2121  0.3859 -0.2097
  376MOL0     C50685   6.420   0.375   9.426  0.9165  0.1196  0.5703
  376MOL0     C50686   6.336   0.365   9.558  0.0911  0.6605  0.5171
  376MOL0     C50687   6.185   0.322   9.536 -0.4940 -0.4969  0.1324
  376MOL0     C50688   6.111   0.288   9.653  0.2935  0.5234 -0.6175
  376MOL0     C50689   6.052   0.250   9.752 -0.0655 -0.2754 -0.1073
  376MOL0     C50690   6.514   0.763   9.276 -0.1844 -0.1922 -0.2138
  376MOL0     C50691   6.565   0.883   9.228 -0.0029 -0.2551 -0.7934
  376MOL0     C50692   6.565   0.906   9.083 -0.3284  0.2598  0.6063
  376MOL0     H50693   6.703   1.413   9.346 -0.2231  1.6936  0.7685
  376MOL0     H50694   6.865   1.595   9.255  1.0079  1.1613  1.5868
  376MOL0     H50695   7.028   1.732   9.213 -0.0980 -0.0580 -2.2905
  376MOL0     H50696   7.114   1.705   9.358 -0.2119  1.0234 -0.9341
  376MOL0     H50697   7.337   1.749   9.241  1.0699  1.9548 -0.6513
  376MOL0     H50698   7.235   1.873   9.218 -0.1492 -1.9822  2.7284
  376MOL0     H50699   7.167   1.798   8.997 -0.9228 -0.9338  1.9322
  376MOL0     H50700   7.267   1.655   9.007  0.3628  0.4859 -1.2136
  376MOL0     H50701   7.350   1.870   8.889 -0.8129 -2.0480 -0.1841
  376MOL0     H50702   7.391   1.930   9.053 -1.1772 -2.4412  3.5071
  376MOL0     H50703   7.537   1.741   9.110  1.3456  1.3534 -0.1355
  376MOL0     H50704   7.501   1.660   8.975  1.2924 -0.6102  2.0344
  376MOL0     H50705   7.601   1.876   8.849 -0.7186  0.5004  1.1058
  376MOL0     H50706   7.675   1.906   9.011  0.8690  0.6117 -0.2712
  376MOL0     H50707   7.810   1.776   8.833 -0.5540  0.6813  0.6984
  376MOL0     H50708   7.709   1.642   8.873 -0.8912  0.7471 -0.9705
  376MOL0     H50709   7.873   1.811   9.066  1.3257 -0.6233 -2.3696
  376MOL0     H50710   7.773   1.681   9.121 -3.0135  0.8407 -1.8643
  376MOL0     H50711   8.044   1.723   8.848 -0.9944 -1.7969 -2.1927
  376MOL0     H50712   8.229   1.424   8.771  0.6676 -0.0478 -0.2046
  376MOL0     H50713   8.263   1.588   8.776  1.7316 -0.5680 -0.2871
  376MOL0     H50714   8.356   1.556   9.029  1.6351 -1.6266  2.0308
  376MOL0     H50715   8.352   1.388   8.997 -2.3325  0.8743  1.2252
  376MOL0     H50716   8.496   1.574   8.799 -0.0907 -2.3641 -1.6986
  376MOL0     H50717   8.501   1.398   8.816  0.3719  0.6801 -2.6535
  376MOL0     H50718   8.697   1.435   8.917  1.3823  1.3983 -0.0580
  376MOL0     H50719   8.606   1.440   9.070  0.2588 -0.4166 -0.5240
  376MOL0     H50720   8.796   1.473   9.159  2.6395 -0.5048  1.5582
  376MOL0     H50721   8.988   1.552   9.279  1.5730  2.1562  0.5157
  376MOL0     H50722   9.192   1.910   9.534  0.7293  0.7948  0.4850
  376MOL0     H50723   9.400   1.950   9.672  2.1830 -2.1741  3.1766
  376MOL0     H50724   9.698   2.050   9.585  0.8054  1.7659  0.8029
  376MOL0     H50725   9.583   2.054   9.722  0.4119 -1.1055 -0.0672
  376MOL0     H50726   9.776   2.118   9.819 -2.1740  0.2867  1.4265
  376MOL0     H50727   9.729   1.967   9.871  1.8890  0.3730  1.1830
  376MOL0     H50728   9.893   1.852   9.741 -0.3435  0.1992 -0.7419
  376MOL0     H50729   9.914   1.994   9.623  2.5822 -0.2985  0.4948
  376MOL0     H50730  10.042   1.979   9.895 -3.4288  1.0620  1.6978
  376MOL0     H50731  10.021   2.130   9.801  0.8595 -0.4785 -0.3824
  376MOL0     H50732  10.141   2.053   9.623  2.6467 -1.9062 -0.8113
  376MOL0     H50733  10.136   1.883   9.672 -1.7167 -0.0457  0.1568
  376MOL0     H50734  10.291   2.114   9.801  0.8902 -0.8533  4.2395
  376MOL0     H50735  10.273   1.959   9.883  2.1521  1.0103  0.1970
  376MOL0     H50736  10.377   1.984   9.601 -1.4446 -0.3395 -0.0735
  376MOL0     H50737  10.385   1.840   9.704 -2.2901  0.4782 -0.3426
  376MOL0     H50738  10.512   2.086   9.797  1.6525  0.4857  1.0286
  376MOL0     H50739  10.539   1.921   9.854  0.3251 -0.8996 -0.6687
  376MOL0     H50740   9.632   1.683   9.442 -0.8183 -1.0022  2.1739
  376MOL0     H50741   9.425   1.610   9.325  1.2791  0.6088 -0.9715
  376MOL0     H50742   8.933   1.942   9.123 -0.1362 -0.0086  0.1872
  376MOL0     H50743   8.736   1.866   8.995 -0.2437  0.1394 -0.3920
  376MOL0     H50744   7.187   1.314   9.288  0.0243  0.5419 -0.1534
  376MOL0     H50745   7.030   1.142   9.382 -0.9445  0.6051  2.9028
  376MOL0     H50746   6.635   1.022   9.533  0.2315  0.8504 -0.3768
  376MOL0     H50747   6.526   0.805   9.604 -5.1330 -1.8871 -1.1562
  376MOL0     H50748   6.467   0.527   9.282  1.2626 -1.4554  0.4245
  376MOL0     H50749   6.311   0.559   9.387  0.2682  1.1937  2.1124
  376MOL0     H50750   6.524   0.352   9.451  1.3900  3.2597  2.0373
  376MOL0     H50751   6.388   0.320   9.337  2.3270  1.5728 -0.9037
  376MOL0     H50752   6.344   0.456   9.618 -0.3172 -0.9018  3.1107
  376MOL0     H50753   6.381   0.290   9.623  2.4491  0.1122 -1.5748
  376MOL0     H50754   6.124   0.400   9.490  0.7679 -1.1888 -3.0098
  376MOL0     H50755   6.176   0.238   9.465 -2.4229  0.5000 -0.8837
  376MOL0     H50756   5.999   0.236   9.844  0.3173 -0.5488  0.0729
  376MOL0     H50757   6.482   0.692   9.201 -1.9852 -0.9032  1.1793
  376MOL0     H50758   6.496   0.982   9.044 -0.4962 -0.2385 -0.0913
  376MOL0     H50759   6.667   0.921   9.046  0.1478 -0.8800  1.3845
  376MOL0     H50760   6.516   0.818   9.040 -1.6738  1.6879 -0.9284
  377MOL0     O50761   4.816   3.419   7.966 -0.5596  0.0694 -0.0601
  377MOL0     C50762   4.855   3.303   8.005  0.6171 -0.2065  0.6047
  377MOL0     O50763   4.960   3.276   8.088  0.0996  0.6824 -0.0195
  377MOL0     C50764   5.059   3.378   8.083  1.0337 -0.1524 -1.1741
  377MOL0     C50765   5.157   3.368   7.990  0.1629 -0.2679 -0.4272
  377MOL0     C50766   5.258   3.466   7.969  0.1649  0.6560  0.3197
  377MOL0     C50767   5.245   3.586   8.028  0.5817  0.1537 -0.4823
  377MOL0     O50768   5.334   3.684   8.012  0.9341  0.5097 -0.1510
  377MOL0     C50769   5.305   3.822   7.964  0.4437  0.4565 -0.4969
  377MOL0     C50770   5.310   3.915   8.075  0.6409 -0.5739 -0.3629
  377MOL0     C50771   5.451   3.971   8.100 -0.2929 -0.4721 -0.0661
  377MOL0     C50772   5.471   4.060   8.222  0.3831 -0.6597 -0.0761
  377MOL0     C50773   5.608   4.122   8.215  0.1176 -0.5784  0.1038
  377MOL0     C50774   5.607   4.273   8.259 -0.8083  0.4034  0.5556
  377MOL0     C50775   5.758   4.343   8.249  0.2886 -0.0843  0.4560
  377MOL0     C50776   5.761   4.478   8.330 -0.4743  0.7570  0.2436
  377MOL0     N50777   5.898   4.519   8.333 -0.5696  0.3825 -0.2105
  377MOL0     C50778   5.980   4.610   8.254 -0.2496 -0.0388  0.9303
  377MOL0     C50779   6.100   4.631   8.320  0.0991 -0.3077  0.1715
  377MOL0     C50780   6.198   4.735   8.272  0.9973 -0.0321  0.1030
  377MOL0     C50781   6.281   4.793   8.387  0.4360  0.5803  0.7885
  377MOL0     C50782   6.376   4.902   8.348  0.4196  1.1101  0.0025
  377MOL0     C50783   6.495   4.850   8.252  1.0742  0.6096 -0.2962
  377MOL0     O50784   6.513   4.949   8.151 -0.3050 -0.0603  0.1116
  377MOL0     C50785   6.638   4.944   8.091 -0.7893  0.5008 -0.9043
  377MOL0     C50786   6.733   5.030   8.141  0.1242  0.0875  0.0622
  377MOL0     C50787   6.853   5.044   8.080 -0.3832  0.1604 -0.2291
  377MOL0     C50788   6.884   4.979   7.963  0.3673 -0.4076  0.4152
  377MOL0     C50789   7.012   4.988   7.899  0.3378  0.0009  0.3053
  377MOL0     O50790   7.105   5.045   7.987  0.0767  0.1193  0.3154
  377MOL0     C50791   7.220   5.107   7.943  0.0907  0.0404 -0.3147
  377MOL0     C50792   7.224   5.189   7.835  0.3834  0.2859  0.3530
  377MOL0     C50793   7.343   5.248   7.787  0.3266  1.0050  0.4491
  377MOL0     C50794   7.457   5.233   7.861  0.3233  0.5028 -0.4554
  377MOL0     O50795   7.556   5.315   7.813 -0.2234 -0.0319  0.1190
  377MOL0     C50796   7.689   5.259   7.810 -0.2509  0.2489  0.3857
  377MOL0     C50797   7.780   5.360   7.738 -0.2491  0.5714 -0.9472
  377MOL0     C50798   7.932   5.329   7.751  0.9917  1.0846 -0.0040
  377MOL0     C50799   8.007   5.423   7.654  0.1598 -0.1990  0.4533
  377MOL0     C50800   8.148   5.458   7.708  0.1895 -0.5968 -1.2909
  377MOL0     C50801   8.239   5.532   7.610  0.6554 -0.6076  0.2609
  377MOL0     C50802   8.369   5.570   7.694 -0.1133  0.9677  0.0753
  377MOL0     C50803   8.495   5.558   7.609  0.1385 -0.0723  0.3288
  377MOL0    Cl50804   8.641   5.578   7.716 -0.0277 -0.0118  0.4313
  377MOL0     C50805   7.457   5.151   7.977 -0.3391  0.2733  0.2062
  377MOL0     C50806   7.337   5.097   8.024  0.2645 -0.3821  1.0754
  377MOL0     O50807   7.026   4.955   7.781  0.0593 -0.2468 -0.5152
  377MOL0     C50808   6.790   4.896   7.907  0.0981  0.2749 -0.7363
  377MOL0     C50809   6.664   4.875   7.976 -0.4213  0.0936 -0.8231
  377MOL0     N50810   6.085   4.557   8.438 -0.3591  0.3851  0.6057
  377MOL0     N50811   5.982   4.480   8.435  0.6021 -0.0558 -0.1723
  377MOL0     C50812   5.134   3.605   8.116  0.4322 -0.5880 -0.3003
  377MOL0     C50813   5.042   3.502   8.147 -0.8736 -0.0509  0.3666
  377MOL0     C50814   4.779   3.184   7.959 -0.2882 -0.2583  0.0331
  377MOL0     C50815   4.866   3.075   7.944  0.0177  0.4209 -0.3236
  377MOL0     C50816   4.822   2.960   7.883 -0.3351  0.7623  0.0433
  377MOL0     C50817   4.688   2.933   7.863 -0.4744  0.1077  0.3178
  377MOL0     O50818   4.659   2.807   7.810 -0.0646  0.2788  0.4682
  377MOL0     C50819   4.524   2.759   7.790  0.0792 -1.2642  0.3634
  377MOL0     C50820   4.511   2.606   7.770 -0.1542 -0.3669 -0.2803
  377MOL0     C50821   4.535   2.538   7.908  0.0184  0.8367  0.0586
  377MOL0     C50822   4.686   2.512   7.937 -0.0511 -0.2816 -0.7329
  377MOL0     C50823   4.722   2.495   8.075  0.4930  0.3353  0.3980
  377MOL0     C50824   4.762   2.472   8.179  0.5051  0.3147 -0.4636
  377MOL0     C50825   4.601   3.042   7.882 -0.0808  0.3166  0.4743
  377MOL0     C50826   4.642   3.170   7.915  0.1253  0.4487 -0.9327
  377MOL0     C50827   4.532   3.276   7.916 -0.4915  0.0445 -0.6192
  377MOL0     H50828   5.148   3.274   7.937 -3.3911 -0.4615  0.2707
  377MOL0     H50829   5.349   3.447   7.915 -0.0557  0.7990 -0.1064
  377MOL0     H50830   5.377   3.868   7.896 -0.3757  2.9543  0.2443
  377MOL0     H50831   5.206   3.822   7.918  1.7901 -0.4036 -3.6955
  377MOL0     H50832   5.275   3.871   8.169  0.7651  1.4405  0.7065
  377MOL0     H50833   5.244   3.998   8.049 -0.8264 -1.5353  0.1720
  377MOL0     H50834   5.475   4.026   8.009 -1.0761 -0.3541 -0.2085
  377MOL0     H50835   5.525   3.891   8.116  0.8881  0.6495  0.2899
  377MOL0     H50836   5.398   4.139   8.205 -1.3617 -2.1839 -0.0504
  377MOL0     H50837   5.464   3.999   8.313  0.2640 -1.7722 -0.8111
  377MOL0     H50838   5.669   4.063   8.283 -0.8386 -0.7442  0.8399
  377MOL0     H50839   5.657   4.120   8.117 -1.1783 -0.3133 -0.5733
  377MOL0     H50840   5.534   4.313   8.188 -0.3757  2.3748  1.1751
  377MOL0     H50841   5.562   4.289   8.357 -1.2563  1.4176  0.1952
  377MOL0     H50842   5.786   4.358   8.144  0.2177  0.1323  0.4666
  377MOL0     H50843   5.839   4.276   8.279  0.3794 -0.6708 -1.0111
  377MOL0     H50844   5.702   4.561   8.290 -1.3195  0.8744  1.6865
  377MOL0     H50845   5.727   4.461   8.433  0.5886  1.8718  0.7992
  377MOL0     H50846   5.953   4.652   8.158  4.2234  1.2856 -0.0038
  377MOL0     H50847   6.262   4.703   8.189 -0.9936  1.1268 -1.9979
  377MOL0     H50848   6.131   4.817   8.245 -0.8083 -1.4881 -0.0314
  377MOL0     H50849   6.213   4.840   8.459  0.4700  1.6999  0.1145
  377MOL0     H50850   6.335   4.712   8.436  2.9165  1.5931 -0.1020
  377MOL0     H50851   6.397   4.955   8.441 -2.8881 -1.5156  2.4943
  377MOL0     H50852   6.317   4.974   8.290  2.5596  2.0186 -1.1767
  377MOL0     H50853   6.481   4.753   8.204 -0.2382  0.6015  0.0406
  377MOL0     H50854   6.589   4.838   8.306 -0.0346 -1.7242  1.2403
  377MOL0     H50855   6.705   5.092   8.226 -0.4933  1.3230 -0.9984
  377MOL0     H50856   6.935   5.107   8.113  3.9309 -2.9678 -3.6530
  377MOL0     H50857   7.130   5.206   7.784 -0.8806 -2.8895  1.3672
  377MOL0     H50858   7.340   5.302   7.693  2.4000 -0.3695 -0.4879
  377MOL0     H50859   7.723   5.238   7.912  0.7735  0.9442  0.2037
  377MOL0     H50860   7.691   5.162   7.759 -1.9381  0.1326  0.4987
  377MOL0     H50861   7.749   5.364   7.633  2.4482  1.8187 -1.7617
  377MOL0     H50862   7.760   5.460   7.777 -0.6637  0.8807 -1.9288
  377MOL0     H50863   7.975   5.347   7.850 -0.8742 -0.4794  1.1623
  377MOL0     H50864   7.948   5.222   7.735 -2.4998  0.1442  1.7799
  377MOL0     H50865   7.947   5.513   7.637  1.1207  0.5427  0.8169
  377MOL0     H50866   8.031   5.373   7.560  0.3490  0.1564  0.3086
  377MOL0     H50867   8.197   5.365   7.739  0.5534 -0.4547 -1.4444
  377MOL0     H50868   8.130   5.527   7.792  0.3484 -2.1143  0.0340
  377MOL0     H50869   8.256   5.477   7.517  2.5513  2.1270 -1.1525
  377MOL0     H50870   8.192   5.617   7.560 -2.9436 -3.6813 -2.1609
  377MOL0     H50871   8.382   5.498   7.775 -1.0675 -0.5024 -1.0280
  377MOL0     H50872   8.366   5.667   7.745  2.0544  0.6708  0.8387
  377MOL0     H50873   8.484   5.458   7.567  0.8361  1.0761 -2.8783
  377MOL0     H50874   8.492   5.623   7.521  0.1025 -2.0700 -1.2239
  377MOL0     H50875   7.554   5.148   8.025 -1.3346 -0.5525  2.3256
  377MOL0     H50876   7.321   5.038   8.113 -0.1317 -0.7800  0.7438
  377MOL0     H50877   6.806   4.841   7.815 -0.4182  0.7162 -1.1013
  377MOL0     H50878   6.597   4.811   7.919 -0.5901 -0.2054 -0.2947
  377MOL0     H50879   5.128   3.693   8.179 -1.9819 -0.5557 -0.4905
  377MOL0     H50880   4.961   3.500   8.219  0.5502 -1.1478  2.0285
  377MOL0     H50881   4.973   3.075   7.966 -0.3400 -2.7236  2.1735
  377MOL0     H50882   4.900   2.886   7.868  2.9463  4.2261 -1.9253
  377MOL0     H50883   4.476   2.793   7.698  1.5757 -2.6288 -0.9843
  377MOL0     H50884   4.472   2.792   7.880  1.6413 -2.4467  1.7851
  377MOL0     H50885   4.571   2.568   7.687 -0.3484  1.2619 -1.2134
  377MOL0     H50886   4.408   2.598   7.736 -0.6143  2.5151  0.2127
  377MOL0     H50887   4.478   2.445   7.900  3.7613 -1.5153 -1.3746
  377MOL0     H50888   4.508   2.598   7.996 -1.7983 -0.8467  0.7294
  377MOL0     H50889   4.715   2.425   7.876 -0.2182 -0.1829 -0.9554
  377MOL0     H50890   4.734   2.604   7.902 -2.6825  1.3959 -0.2086
  377MOL0     H50891   4.807   2.458   8.275 -1.4714  0.0971  0.4615
  377MOL0     H50892   4.495   3.029   7.864 -0.1204  3.4022 -2.4604
  377MOL0     H50893   4.460   3.269   7.998 -0.1221 -0.7503 -0.3602
  377MOL0     H50894   4.584   3.371   7.932  2.4812 -1.5569 -0.0078
  377MOL0     H50895   4.484   3.281   7.817  3.4031  0.0062 -2.6989
  378MOL0     O50896   3.032   2.397   5.036  0.4160  0.1114  0.6510
  378MOL0     C50897   3.013   2.314   5.118  0.8102 -0.0972  0.1215
  378MOL0     O50898   3.056   2.186   5.122 -0.1871  0.1567 -0.1588
  378MOL0     C50899   3.141   2.127   5.031  0.3350  0.1503  0.7925
  378MOL0     C50900   3.119   1.992   4.997 -0.0964  0.0595  0.4882
  378MOL0     C50901   3.219   1.922   4.927 -0.5389  0.5232  0.6445
  378MOL0     C50902   3.331   1.988   4.883 -0.8252  0.4707  0.6127
  378MOL0     O50903   3.414   1.924   4.779  0.0430  0.2310 -0.4691
  378MOL0     C50904   3.521   1.992   4.713 -0.3577  0.0655  0.6468
  378MOL0     C50905   3.466   2.087   4.615 -0.5268 -0.8670  0.1934
  378MOL0     C50906   3.425   2.011   4.486 -0.4693 -0.9097  0.4415
  378MOL0     C50907   3.282   1.966   4.491  0.1969  0.2758  0.4287
  378MOL0     C50908   3.251   1.886   4.359  0.5717 -0.2701  0.4945
  378MOL0     C50909   3.105   1.850   4.326 -0.7466  0.3419 -0.1412
  378MOL0     C50910   3.090   1.751   4.203  0.3782  0.1109  1.4149
  378MOL0     C50911   2.933   1.729   4.179  0.5995  0.3008  0.1924
  378MOL0     N50912   2.881   1.819   4.077 -0.0676 -0.7495 -0.5689
  378MOL0     C50913   2.881   1.797   3.939 -0.4810 -0.1318 -0.3275
  378MOL0     C50914   2.844   1.910   3.882 -0.2339 -0.2345 -0.2164
  378MOL0     C50915   2.828   1.938   3.732  0.6121 -0.5689  1.1775
  378MOL0     C50916   2.961   1.972   3.676 -0.6272  0.7519 -0.2191
  378MOL0     C50917   2.953   1.980   3.526 -0.3319 -0.9273  0.0700
  378MOL0     C50918   2.852   2.092   3.478 -0.4242  0.8798 -0.2171
  378MOL0     O50919   2.844   2.215   3.559 -0.2304  0.1601  0.1984
  378MOL0     C50920   2.960   2.279   3.584 -0.2414 -0.9889  0.4663
  378MOL0     C50921   2.966   2.361   3.694  0.0087  0.4825 -0.0252
  378MOL0     C50922   3.077   2.445   3.708 -0.6128  0.4796  0.8532
  378MOL0     C50923   3.192   2.436   3.629  0.5163  0.3962  0.6882
  378MOL0     C50924   3.313   2.523   3.650  0.9728  0.4965 -0.0112
  378MOL0     O50925   3.429   2.479   3.582 -0.1819  0.3303  0.0789
  378MOL0     C50926   3.545   2.554   3.596  0.7952 -0.3858 -0.3210
  378MOL0     C50927   3.670   2.486   3.610  0.8128  0.1126 -0.5816
  378MOL0     C50928   3.788   2.557   3.602 -1.0436  0.0667 -0.5100
  378MOL0     C50929   3.791   2.699   3.585  0.0619  0.7544  0.2573
  378MOL0     O50930   3.906   2.777   3.567 -0.2125  0.4586  0.5789
  378MOL0     C50931   4.002   2.711   3.477  0.8336 -0.4409  0.4868
  378MOL0     C50932   4.130   2.695   3.553 -0.3659  0.3516 -0.1855
  378MOL0     C50933   4.196   2.809   3.611 -0.8204  0.3774  0.0117
  378MOL0     C50934   4.240   2.906   3.504  0.4675 -0.2486 -0.3813
  378MOL0     C50935   4.359   2.994   3.555  0.5392  0.1582 -0.2045
  378MOL0     C50936   4.486   2.917   3.572 -0.2098 -0.3463 -0.0242
  378MOL0     C50937   4.614   2.998   3.616 -0.4853 -0.4386  0.4615
  378MOL0     C50938   4.732   2.894   3.631 -0.3111  0.8952  1.1188
  378MOL0    Cl50939   4.766   2.831   3.463 -0.0258  0.0097  0.4149
  378MOL0     C50940   3.660   2.765   3.585  0.2718 -0.5081 -0.1879
  378MOL0     C50941   3.542   2.689   3.577 -0.2336 -1.1054  0.2457
  378MOL0     O50942   3.310   2.623   3.726 -0.9527 -0.0972 -0.4378
  378MOL0     C50943   3.191   2.344   3.528  0.0013 -1.8855  0.0081
  378MOL0     C50944   3.077   2.260   3.508 -0.0376 -1.0649  0.2688
  378MOL0     N50945   2.830   2.005   3.984 -0.8586 -0.6884 -0.3722
  378MOL0     N50946   2.855   1.953   4.106 -0.2602  0.4468  0.4736
  378MOL0     C50947   3.358   2.122   4.914  1.0882  0.3244  0.3298
  378MOL0     C50948   3.258   2.195   4.981 -0.3541  0.1433 -0.0173
  378MOL0     C50949   2.919   2.345   5.230  0.0081  1.0238 -0.1270
  378MOL0     C50950   2.842   2.245   5.293  0.1481  0.3679 -0.7333
  378MOL0     C50951   2.768   2.272   5.403 -0.2297 -0.8366 -0.7831
  378MOL0     C50952   2.753   2.398   5.460  0.3440 -1.0812 -0.2929
  378MOL0     O50953   2.682   2.428   5.573  0.4016 -0.4622  0.7473
  378MOL0     C50954   2.617   2.327   5.649 -0.3403  0.3150 -0.4389
  378MOL0     C50955   2.600   2.385   5.793 -0.1366  0.1921  0.2702
  378MOL0     C50956   2.524   2.514   5.801 -0.1002  0.2926 -0.5483
  378MOL0     C50957   2.380   2.484   5.760 -0.1675 -0.4427 -0.4860
  378MOL0     C50958   2.301   2.604   5.798  1.0250  0.8314 -0.8567
  378MOL0     C50959   2.243   2.709   5.801  0.4530 -0.2655 -0.4653
  378MOL0     C50960   2.804   2.499   5.385 -0.8682  0.0624 -1.0266
  378MOL0     C50961   2.901   2.475   5.278  0.5965 -0.3888 -0.0317
  378MOL0     C50962   2.979   2.597   5.228 -0.3957 -0.2884  1.4429
  378MOL0     H50963   3.031   1.941   5.037  1.2157 -2.4636  0.3692
  378MOL0     H50964   3.201   1.819   4.898  1.1980  0.8665 -2.0054
  378MOL0     H50965   3.582   2.051   4.783 -2.9173  1.0285  2.1853
  378MOL0     H50966   3.591   1.916   4.677  2.0951  2.5114 -0.1190
  378MOL0     H50967   3.552   2.151   4.591 -1.4858  0.4387  0.1470
  378MOL0     H50968   3.383   2.152   4.642  1.1010  0.5888  2.0526
  378MOL0     H50969   3.495   1.930   4.463  0.1959  0.6755 -4.2393
  378MOL0     H50970   3.449   2.073   4.398  0.4557 -0.7091  0.8167
  378MOL0     H50971   3.274   1.896   4.575 -0.0499  1.6871  1.6099
  378MOL0     H50972   3.213   2.050   4.499 -1.7109 -1.1353 -0.5133
  378MOL0     H50973   3.289   1.943   4.274 -1.4929 -1.1028 -1.0917
  378MOL0     H50974   3.308   1.793   4.362 -0.7665 -1.0854  2.1137
  378MOL0     H50975   3.081   1.786   4.412 -1.7872  2.2869  1.0818
  378MOL0     H50976   3.042   1.938   4.319  1.0233  1.6219 -0.7302
  378MOL0     H50977   3.139   1.656   4.228 -1.2057 -0.6047  1.8948
  378MOL0     H50978   3.139   1.795   4.115 -0.4530  1.8557  1.7841
  378MOL0     H50979   2.912   1.629   4.138 -0.8013 -0.4112  2.5160
  378MOL0     H50980   2.879   1.742   4.273  0.2790 -0.0187  0.0558
  378MOL0     H50981   2.911   1.714   3.877 -1.4579  1.6270 -3.3675
  378MOL0     H50982   2.787   1.849   3.683  0.3677 -0.7103  1.6318
  378MOL0     H50983   2.760   2.021   3.712 -1.3655 -2.3345  0.1165
  378MOL0     H50984   2.992   2.063   3.728 -0.5156 -1.8295  4.7948
  378MOL0     H50985   3.025   1.891   3.712 -1.0809  1.2478  1.7939
  378MOL0     H50986   2.901   1.890   3.492 -3.4971  1.1066 -0.8919
  378MOL0     H50987   3.051   1.978   3.477  0.5054 -3.5547  1.6258
  378MOL0     H50988   2.757   2.039   3.479 -0.7792  1.4576  2.0684
  378MOL0     H50989   2.863   2.113   3.371  3.8600 -2.1996 -0.6445
  378MOL0     H50990   2.876   2.380   3.751 -0.3535  2.0489 -1.0534
  378MOL0     H50991   3.077   2.520   3.785 -0.4975  1.3539  0.0245
  378MOL0     H50992   3.660   2.379   3.624 -1.1079  0.1278 -1.4588
  378MOL0     H50993   3.875   2.492   3.606 -1.1640 -0.0539  0.1863
  378MOL0     H50994   3.980   2.606   3.455  0.3404 -0.8138  2.5123
  378MOL0     H50995   4.021   2.759   3.381  0.7691 -3.8317 -1.4048
  378MOL0     H50996   4.126   2.628   3.639  0.7738  2.0087  1.2220
  378MOL0     H50997   4.190   2.643   3.478 -0.0928  0.4297 -0.0237
  378MOL0     H50998   4.122   2.853   3.679  0.1271 -0.5081  1.6707
  378MOL0     H50999   4.288   2.785   3.665 -1.2763 -1.6906 -0.0434
  378MOL0     H51000   4.158   2.973   3.479  1.7803  2.5179  2.0317
  378MOL0     H51001   4.266   2.864   3.407 -1.0510  2.2756 -1.9797
  378MOL0     H51002   4.332   3.017   3.659  2.3380 -0.6528  0.4813
  378MOL0     H51003   4.373   3.078   3.487 -0.1173  0.3622 -0.1000
  378MOL0     H51004   4.478   2.862   3.667 -0.8938 -0.0097  0.1219
  378MOL0     H51005   4.498   2.845   3.491 -0.8697  1.6744 -2.0132
  378MOL0     H51006   4.592   3.044   3.713  0.3065 -1.2763  1.0640
  378MOL0     H51007   4.642   3.068   3.537 -1.7963 -3.0497 -2.5155
  378MOL0     H51008   4.819   2.945   3.674  1.5661 -2.0671  1.1528
  378MOL0     H51009   4.698   2.813   3.696 -3.2730  0.6768 -0.5321
  378MOL0     H51010   3.652   2.873   3.576  1.1350 -0.4887 -0.8358
  378MOL0     H51011   3.451   2.747   3.563  1.4607  1.4214 -1.1735
  378MOL0     H51012   3.282   2.326   3.472 -0.2110 -1.5786 -0.4378
  378MOL0     H51013   3.067   2.193   3.424 -0.2461  2.2636 -2.5813
  378MOL0     H51014   3.450   2.167   4.879  1.2100 -0.1309  0.0500
  378MOL0     H51015   3.267   2.302   4.995 -2.1888  0.3339 -0.0830
  378MOL0     H51016   2.832   2.145   5.253 -2.5379 -0.4783  1.7643
  378MOL0     H51017   2.711   2.192   5.449  1.1335 -2.5657 -1.9961
  378MOL0     H51018   2.664   2.228   5.653  2.0529  1.3628  3.8916
  378MOL0     H51019   2.519   2.301   5.607  0.2465  1.0185 -2.3581
  378MOL0     H51020   2.696   2.393   5.844 -1.5230  3.0774  2.7333
  378MOL0     H51021   2.544   2.318   5.860  0.1930 -0.2073  0.1526
  378MOL0     H51022   2.562   2.594   5.737 -1.2949  1.6394  0.3819
  378MOL0     H51023   2.523   2.538   5.908  2.6555  0.0105 -0.3736
  378MOL0     H51024   2.365   2.473   5.652 -1.5263  1.5915 -0.5706
  378MOL0     H51025   2.343   2.401   5.821 -1.1085  0.3344  0.0244
  378MOL0     H51026   2.194   2.804   5.799  1.7063  0.4072 -0.2858
  378MOL0     H51027   2.778   2.599   5.417 -1.6156 -0.6221  0.6828
  378MOL0     H51028   2.937   2.633   5.134  4.0898  2.3118  0.1367
  378MOL0     H51029   2.992   2.668   5.311  2.0944 -1.5118  2.2001
  378MOL0     H51030   3.078   2.567   5.192 -1.1742 -0.8354 -0.3414
  379MOL0     O51031   8.941   5.058   8.031  0.2192 -0.3501 -0.4827
  379MOL0     C51032   8.923   4.943   8.003 -0.0471 -0.0381 -0.9443
  379MOL0     O51033   9.021   4.853   7.962 -0.6327 -0.0106  0.2637
  379MOL0     C51034   9.158   4.891   7.968  0.7240 -0.3768 -0.8698
  379MOL0     C51035   9.209   4.934   7.845  0.2074 -0.0587  0.1423
  379MOL0     C51036   9.333   5.007   7.845  0.4644 -0.8382  0.8922
  379MOL0     C51037   9.418   5.012   7.962  0.7542 -0.8041  0.8401
  379MOL0     O51038   9.538   5.078   7.950 -0.0816  0.0330 -0.2025
  379MOL0     C51039   9.621   5.082   8.067 -0.4312 -0.5180 -0.1333
  379MOL0     C51040   9.768   5.127   8.037  0.3461  0.3264  0.3722
  379MOL0     C51041   9.847   5.175   8.161  0.8447  0.2825 -0.0230
  379MOL0     C51042   9.990   5.217   8.129 -0.2583 -0.2879 -0.7454
  379MOL0     C51043  10.006   5.346   8.054  0.1161 -1.1048 -0.3785
  379MOL0     C51044  10.128   5.430   8.103 -0.0383 -0.3795 -0.2942
  379MOL0     C51045  10.138   5.575   8.053  0.1320  0.6671 -0.5808
  379MOL0     C51046  10.049   5.670   8.126 -0.0233 -1.1639  0.0018
  379MOL0     N51047   9.902   5.636   8.129 -0.8240  0.5984 -0.4100
  379MOL0     C51048   9.806   5.659   8.037  0.1343  0.1776 -0.0781
  379MOL0     C51049   9.690   5.617   8.093 -0.4789 -0.3420  0.1164
  379MOL0     C51050   9.570   5.589   8.009 -0.3358 -0.3496  0.4540
  379MOL0     C51051   9.539   5.444   7.993 -0.4321 -0.5865 -0.5278
  379MOL0     C51052   9.399   5.420   7.926  0.5951  0.7834  0.3016
  379MOL0     C51053   9.311   5.337   8.021  0.6280 -0.0664  0.5830
  379MOL0     O51054   9.275   5.419   8.128 -0.1959  0.0141  0.5055
  379MOL0     C51055   9.196   5.354   8.223 -0.3689  0.2720  0.2464
  379MOL0     C51056   9.192   5.413   8.353  0.6854 -0.0427 -0.0539
  379MOL0     C51057   9.104   5.372   8.458  0.3509 -0.3262  1.0822
  379MOL0     C51058   9.031   5.256   8.432  1.0687 -0.0739  0.3178
  379MOL0     C51059   8.945   5.187   8.537  0.6960  0.2975 -0.0882
  379MOL0     O51060   8.886   5.064   8.498  0.6003  0.1304 -0.7649
  379MOL0     C51061   8.809   4.996   8.588  0.5104 -0.7330 -0.0680
  379MOL0     C51062   8.834   4.873   8.636 -0.1196  0.2589  0.6008
  379MOL0     C51063   8.732   4.809   8.701  0.6651  0.3264 -0.5217
  379MOL0     C51064   8.603   4.858   8.711 -0.4122  0.1150  0.6073
  379MOL0     O51065   8.501   4.798   8.778 -0.1378 -0.3823  0.1971
  379MOL0     C51066   8.415   4.715   8.692 -0.3760 -0.3568  0.2450
  379MOL0     C51067   8.299   4.670   8.782  0.8963  0.4432 -0.3167
  379MOL0     C51068   8.181   4.624   8.693  0.3248 -0.7312  0.4474
  379MOL0     C51069   8.070   4.563   8.775  0.2379  0.1667 -0.1138
  379MOL0     C51070   7.937   4.568   8.701 -0.1276 -0.2529  0.5596
  379MOL0     C51071   7.929   4.525   8.552  0.7735  0.4284 -0.0038
  379MOL0     C51072   7.921   4.376   8.551 -0.3887  0.7601  0.1644
  379MOL0     C51073   7.862   4.315   8.422  0.3200 -0.1365 -0.5384
  379MOL0    Cl51074   7.698   4.385   8.397 -0.2724  0.3703 -0.2544
  379MOL0     C51075   8.575   4.987   8.647 -0.0939  0.3501 -0.5549
  379MOL0     C51076   8.679   5.051   8.581  0.2164  0.0059  0.7898
  379MOL0     O51077   8.925   5.247   8.642  0.1704 -0.1470 -0.3114
  379MOL0     C51078   9.042   5.193   8.311  0.9503 -0.0865  0.3729
  379MOL0     C51079   9.118   5.242   8.209  0.0296 -1.1769  0.5189
  379MOL0     N51080   9.721   5.567   8.215 -0.1833  0.2933 -0.0635
  379MOL0     N51081   9.844   5.586   8.242  0.1658  0.0319 -0.2547
  379MOL0     C51082   9.366   4.956   8.081  0.2549 -0.2407 -0.4314
  379MOL0     C51083   9.236   4.902   8.084  0.1564  0.1579 -0.1202
  379MOL0     C51084   8.789   4.894   8.003  0.2127  0.1166  0.5230
  379MOL0     C51085   8.763   4.772   7.933 -0.7070 -0.3033 -0.5645
  379MOL0     C51086   8.638   4.699   7.917 -0.1882 -0.7201 -0.1228
  379MOL0     C51087   8.527   4.749   7.986 -0.7033 -0.2694 -1.1951
  379MOL0     O51088   8.413   4.672   7.988 -0.5784  0.7312 -0.0190
  379MOL0     C51089   8.288   4.745   8.010 -0.0708 -0.3333 -0.1540
  379MOL0     C51090   8.171   4.683   7.925 -0.0949  0.1077 -0.8490
  379MOL0     C51091   8.149   4.532   7.953  0.1153  0.9255 -0.2447
  379MOL0     C51092   8.026   4.467   7.886  0.2373 -0.2518 -0.1071
  379MOL0     C51093   7.903   4.528   7.935 -0.5039 -0.2556 -0.3260
  379MOL0     C51094   7.804   4.574   7.986  0.4096  1.0321  0.0019
  379MOL0     C51095   8.549   4.866   8.055 -0.8583  0.3921 -0.1147
  379MOL0     C51096   8.671   4.941   8.060  0.7892 -0.4623 -0.7760
  379MOL0     C51097   8.669   5.069   8.139 -0.3292  0.0857  0.4214
  379MOL0     H51098   9.145   4.944   7.758  0.0519  0.0691  0.2717
  379MOL0     H51099   9.365   5.059   7.755 -2.0284 -0.6054  0.0497
  379MOL0     H51100   9.578   5.145   8.145  0.8707  2.2978 -1.5321
  379MOL0     H51101   9.634   4.981   8.106  2.4821 -0.2212 -0.0535
  379MOL0     H51102   9.762   5.216   7.973 -3.4862  1.9562  2.6578
  379MOL0     H51103   9.823   5.047   7.987 -0.7995  0.3065 -0.8959
  379MOL0     H51104   9.849   5.107   8.246  1.7430  0.9731  0.5182
  379MOL0     H51105   9.793   5.259   8.205 -2.0478 -1.1907 -0.5172
  379MOL0     H51106  10.039   5.226   8.226  0.7946  0.6045 -1.3334
  379MOL0     H51107  10.042   5.138   8.072 -1.4661 -2.6911  1.2685
  379MOL0     H51108  10.022   5.329   7.947 -0.3005  4.0998 -1.5434
  379MOL0     H51109   9.914   5.404   8.062  1.1593  0.9908 -2.3342
  379MOL0     H51110  10.124   5.437   8.212 -2.9149 -1.8345 -0.2320
  379MOL0     H51111  10.219   5.382   8.064  0.2428  1.4738 -2.1249
  379MOL0     H51112  10.108   5.576   7.948  3.0005 -2.6311 -1.6146
  379MOL0     H51113  10.245   5.601   8.054 -0.0321  2.1257  3.9456
  379MOL0     H51114  10.083   5.680   8.229 -2.0744 -0.4692  0.6594
  379MOL0     H51115  10.071   5.764   8.075 -0.4773 -1.9531 -1.7426
  379MOL0     H51116   9.812   5.701   7.937  0.1984 -0.2174 -0.2422
  379MOL0     H51117   9.482   5.642   8.048 -1.0118 -0.4647 -0.8785
  379MOL0     H51118   9.585   5.617   7.905  1.6691 -1.5264  0.3841
  379MOL0     H51119   9.622   5.408   7.932  1.2747 -0.0084  1.3317
  379MOL0     H51120   9.544   5.397   8.092  0.0864 -1.0349 -0.7674
  379MOL0     H51121   9.424   5.360   7.838 -0.3705  0.0636  0.5003
  379MOL0     H51122   9.352   5.516   7.902  1.7955  1.9363  2.2912
  379MOL0     H51123   9.368   5.251   8.057  0.4306 -0.2845  0.3839
  379MOL0     H51124   9.239   5.295   7.950  2.0516 -1.0327 -0.3462
  379MOL0     H51125   9.242   5.507   8.375  1.1622 -0.3038 -0.0205
  379MOL0     H51126   9.099   5.424   8.553  0.2443  0.2979  0.7381
  379MOL0     H51127   8.940   4.849   8.647 -0.7706 -2.4207  1.7649
  379MOL0     H51128   8.755   4.722   8.761  0.3884  0.3824 -0.3265
  379MOL0     H51129   8.379   4.758   8.598  0.8948 -0.4752 -0.3179
  379MOL0     H51130   8.468   4.633   8.642 -1.9894 -1.7207  0.6790
  379MOL0     H51131   8.327   4.588   8.848 -1.9080  0.4365  1.0230
  379MOL0     H51132   8.271   4.761   8.835  0.7424 -0.2481  0.8164
  379MOL0     H51133   8.138   4.713   8.648  1.1585 -1.0810 -1.1047
  379MOL0     H51134   8.216   4.558   8.613 -2.8998 -1.0999 -0.8299
  379MOL0     H51135   8.045   4.619   8.865 -1.0053 -1.9917  0.9389
  379MOL0     H51136   8.084   4.457   8.798 -3.3402 -0.7032 -1.2267
  379MOL0     H51137   7.905   4.673   8.694  0.2923 -0.1900 -0.5459
  379MOL0     H51138   7.859   4.521   8.761 -0.6393 -0.0804  0.0332
  379MOL0     H51139   7.840   4.568   8.505  0.2272 -1.6641 -0.9988
  379MOL0     H51140   8.012   4.563   8.491 -2.3302  3.0152 -3.0228
  379MOL0     H51141   7.863   4.330   8.631 -2.2548 -1.3224 -2.2173
  379MOL0     H51142   8.026   4.344   8.556 -0.1037  1.8412  2.2585
  379MOL0     H51143   7.927   4.337   8.337  0.3530 -0.9525 -0.7269
  379MOL0     H51144   7.862   4.206   8.433 -2.4695 -0.1804 -0.2248
  379MOL0     H51145   8.471   5.018   8.648 -0.7451 -1.6759 -0.1769
  379MOL0     H51146   8.658   5.148   8.537  1.9362 -0.3965 -1.0890
  379MOL0     H51147   8.984   5.107   8.279 -1.1725  2.2924 -2.7459
  379MOL0     H51148   9.130   5.188   8.116 -1.6364 -1.0802  0.2149
  379MOL0     H51149   9.418   4.949   8.176 -0.0891 -0.3304 -0.2506
  379MOL0     H51150   9.203   4.855   8.176  0.0618 -3.7274 -1.9636
  379MOL0     H51151   8.848   4.735   7.876 -1.3173  2.2040 -3.3719
  379MOL0     H51152   8.638   4.609   7.857 -2.2777 -0.3145 -0.7837
  379MOL0     H51153   8.287   4.853   7.996 -2.0780 -0.2043  0.5602
  379MOL0     H51154   8.265   4.738   8.117  0.3951  2.1438  0.1638
  379MOL0     H51155   8.178   4.710   7.819 -0.7493 -2.6032 -1.6596
  379MOL0     H51156   8.083   4.740   7.955  0.5715  2.7106 -3.4046
  379MOL0     H51157   8.139   4.515   8.060 -0.2653  1.4461 -0.1909
  379MOL0     H51158   8.235   4.470   7.926 -0.8251  0.0111 -1.2756
  379MOL0     H51159   8.036   4.458   7.778 -0.1276 -1.9406 -0.0375
  379MOL0     H51160   8.020   4.365   7.926 -2.2849  0.3417  1.2450
  379MOL0     H51161   7.710   4.609   8.024 -0.4726  0.9595 -1.9825
  379MOL0     H51162   8.464   4.896   8.116 -0.9101 -2.5040  1.4153
  379MOL0     H51163   8.566   5.097   8.163 -0.8692  1.1414 -2.6632
  379MOL0     H51164   8.734   5.051   8.225  2.4175  0.7002 -1.4132
  379MOL0     H51165   8.702   5.153   8.077 -0.3037  1.9763  2.8518
  380MOL0     O51166   5.499   5.243   9.790  0.3853 -0.0939  0.4040
  380MOL0     C51167   5.404   5.224   9.858  0.8042  0.1806 -0.9447
  380MOL0     O51168   5.351   5.108   9.892  0.1238 -0.4405  0.1751
  380MOL0     C51169   5.411   4.982   9.861 -0.2465 -0.1311  0.7276
  380MOL0     C51170   5.544   4.960   9.805  0.0690 -0.6355 -0.1974
  380MOL0     C51171   5.598   4.834   9.806 -0.2233 -0.0202  0.6677
  380MOL0     C51172   5.526   4.729   9.851  0.5110 -0.3510 -0.5502
  380MOL0     O51173   5.577   4.603   9.853 -0.6048  0.0455  0.1101
  380MOL0     C51174   5.506   4.497   9.921  0.6818  0.8307 -0.0352
  380MOL0     C51175   5.527   4.513  10.068 -0.3584 -0.9923  0.7387
  380MOL0     C51176   5.681   4.476  10.116 -1.0899 -0.2413 -0.3462
  380MOL0     C51177   5.730   4.603  10.196  0.2162  0.2685  0.5044
  380MOL0     C51178   5.862   4.546  10.249  0.2687 -0.3034 -0.2718
  380MOL0     C51179   5.919   4.636  10.356  0.0162 -0.9946  0.8064
  380MOL0     C51180   6.065   4.660  10.328 -0.6188  0.2901  0.0366
  380MOL0     C51181   6.085   4.765  10.217  0.4011 -0.0802 -0.5771
  380MOL0     N51182   6.223   4.765  10.153 -0.4399  0.5993 -0.3686
  380MOL0     C51183   6.333   4.684  10.181 -0.3001  0.0722 -0.4281
  380MOL0     C51184   6.422   4.702  10.076 -0.7330 -0.9332 -0.2535
  380MOL0     C51185   6.548   4.635  10.037  0.0861  0.2969  0.2759
  380MOL0     C51186   6.672   4.712  10.088  0.6309  0.2562  0.0353
  380MOL0     C51187   6.704   4.684  10.232  0.4923  0.6107  0.3200
  380MOL0     C51188   6.798   4.779  10.292  0.5013  0.5269  1.0243
  380MOL0     O51189   6.921   4.755  10.228 -0.2346 -0.3891  0.1756
  380MOL0     C51190   7.032   4.699  10.299 -0.3884  0.4039  0.8422
  380MOL0     C51191   7.100   4.584  10.263  0.4693 -0.2790 -0.2117
  380MOL0     C51192   7.209   4.533  10.337  0.3064  0.8322 -0.8019
  380MOL0     C51193   7.241   4.595  10.460 -0.4528  1.2946  0.7832
  380MOL0     C51194   7.348   4.526  10.542  0.3852 -0.0412  0.7949
  380MOL0     O51195   7.398   4.395  10.503 -0.2776  0.3204 -0.4200
  380MOL0     C51196   7.524   4.367  10.549 -0.0013 -0.0486 -0.4028
  380MOL0     C51197   7.629   4.364  10.458  0.0887 -0.4240  0.0408
  380MOL0     C51198   7.760   4.348  10.510  0.2736  0.2432  0.5209
  380MOL0     C51199   7.788   4.333  10.649 -0.5386 -0.1415 -0.2670
  380MOL0     O51200   7.907   4.293  10.708  0.9000  0.2417 -0.0570
  380MOL0     C51201   8.009   4.213  10.647  0.3457 -0.5544  0.4024
  380MOL0     C51202   8.124   4.183  10.746  0.2108 -0.5134  0.0875
  380MOL0     C51203   8.075   4.115  10.886 -0.1463  0.3598 -0.2128
  380MOL0     C51204   7.960   4.019  10.869 -0.3340 -0.6109 -0.6276
  380MOL0     C51205   7.932   3.933  10.995 -0.7793 -0.4307 -0.0971
  380MOL0     C51206   7.816   3.835  10.996  0.0353 -0.2066  1.0928
  380MOL0     C51207   7.682   3.915  10.976  0.4322  0.0256  0.2269
  380MOL0     C51208   7.629   3.899  10.839 -0.4431 -0.1422  0.4768
  380MOL0    Cl51209   7.487   4.002  10.819  0.1681  0.1016 -0.0278
  380MOL0     C51210   7.680   4.339  10.731 -0.4486  0.1344 -0.2228
  380MOL0     C51211   7.550   4.352  10.682  0.5701  0.6507 -0.3662
  380MOL0     O51212   7.392   4.593  10.638  0.5243 -0.5205  0.0646
  380MOL0     C51213   7.177   4.720  10.487 -0.4556 -0.8886 -0.0838
  380MOL0     C51214   7.065   4.764  10.418  0.4525 -0.3114 -0.2482
  380MOL0     N51215   6.378   4.809  10.009 -0.2193  0.0162 -0.0538
  380MOL0     N51216   6.259   4.842  10.047 -0.2473  1.0820 -0.6214
  380MOL0     C51217   5.396   4.750   9.907 -0.3981 -0.2545 -0.3661
  380MOL0     C51218   5.340   4.876   9.909 -0.0209 -0.0846 -0.3664
  380MOL0     C51219   5.352   5.340   9.934  0.2748 -0.1776 -0.1183
  380MOL0     C51220   5.219   5.329   9.968 -0.1993  0.1127  0.6976
  380MOL0     C51221   5.151   5.436  10.021 -0.0649 -0.3994 -0.2200
  380MOL0     C51222   5.218   5.556  10.044  0.5857 -1.1901 -0.1224
  380MOL0     O51223   5.145   5.663  10.102  0.6854  0.1968 -0.2449
  380MOL0     C51224   5.044   5.721  10.010 -0.2127 -0.0030 -0.6205
  380MOL0     C51225   5.087   5.860   9.955 -0.6241  0.4343  0.1972
  380MOL0     C51226   5.129   5.952  10.064  0.0577 -0.4828 -0.3009
  380MOL0     C51227   5.199   6.077  10.017 -0.2539 -0.3413 -0.1849
  380MOL0     C51228   5.166   6.183  10.115 -0.5325 -0.7430 -0.3791
  380MOL0     C51229   5.149   6.268  10.205  0.4966  0.5595  0.6595
  380MOL0     C51230   5.352   5.565  10.026 -0.2940  0.3679 -0.0026
  380MOL0     C51231   5.423   5.453   9.974 -0.3288  0.1424  0.5771
  380MOL0     C51232   5.574   5.465   9.940  1.0131 -0.2543 -0.4879
  380MOL0     H51233   5.609   5.039   9.768 -1.5309  0.4417 -0.8509
  380MOL0     H51234   5.695   4.830   9.757 -1.3037  0.2793 -1.6576
  380MOL0     H51235   5.402   4.481   9.892  0.8825 -0.7388  0.0226
  380MOL0     H51236   5.545   4.399   9.893 -2.1951 -1.2336  2.4928
  380MOL0     H51237   5.462   4.442  10.119 -0.8685 -0.3392  1.0002
  380MOL0     H51238   5.498   4.613  10.100  3.1473  0.2855  0.3993
  380MOL0     H51239   5.740   4.455  10.027 -0.1634  2.4312 -0.4528
  380MOL0     H51240   5.690   4.383  10.174 -0.7826 -0.4412 -0.7135
  380MOL0     H51241   5.733   4.690  10.130 -0.5342  0.4252  0.6661
  380MOL0     H51242   5.657   4.637  10.271  1.3256  0.4833  1.5146
  380MOL0     H51243   5.843   4.450  10.298 -0.4814 -0.6141 -1.1274
  380MOL0     H51244   5.932   4.539  10.165  0.0290  0.8182 -0.5749
  380MOL0     H51245   5.858   4.725  10.367  0.7199 -0.5178  0.8980
  380MOL0     H51246   5.907   4.596  10.457  0.5533  0.0739  1.3032
  380MOL0     H51247   6.121   4.572  10.294  1.0154  0.1277  2.8412
  380MOL0     H51248   6.105   4.699  10.422  1.6955  1.5452 -1.3706
  380MOL0     H51249   6.010   4.762  10.137  1.1917 -2.8319 -1.3282
  380MOL0     H51250   6.065   4.862  10.264 -0.9146 -0.5597 -0.0974
  380MOL0     H51251   6.343   4.613  10.263 -0.7548 -1.6155 -1.7781
  380MOL0     H51252   6.554   4.530  10.066  0.1185 -0.6187 -2.7139
  380MOL0     H51253   6.550   4.628   9.928 -2.6912 -2.1440  0.2440
  380MOL0     H51254   6.758   4.696  10.024 -0.4843  0.2786 -1.5267
  380MOL0     H51255   6.643   4.817  10.080  0.7581  0.2540 -0.4570
  380MOL0     H51256   6.760   4.590  10.241  1.1341  1.0799  1.4574
  380MOL0     H51257   6.612   4.681  10.290  1.1377  1.4934  1.4295
  380MOL0     H51258   6.811   4.768  10.400 -0.0502 -0.6953  0.9871
  380MOL0     H51259   6.774   4.884  10.273  0.1106  0.2424 -0.1913
  380MOL0     H51260   7.063   4.531  10.175  0.1429  0.5326 -0.5740
  380MOL0     H51261   7.272   4.449  10.310 -3.2021 -1.2076 -3.5113
  380MOL0     H51262   7.623   4.360  10.350 -0.1962 -2.2736  0.0814
  380MOL0     H51263   7.838   4.328  10.437  2.8872 -1.3567  3.5035
  380MOL0     H51264   7.967   4.125  10.597 -3.1437  0.7531  0.7453
  380MOL0     H51265   8.052   4.272  10.566 -2.1149 -1.1289 -1.4384
  380MOL0     H51266   8.204   4.124  10.699 -0.5457 -1.1519 -0.4225
  380MOL0     H51267   8.173   4.280  10.762  1.3580 -0.6500 -2.0893
  380MOL0     H51268   8.161   4.070  10.936  0.1863 -0.5249 -1.5102
  380MOL0     H51269   8.054   4.193  10.959  3.3542 -2.2064  4.0634
  380MOL0     H51270   7.967   3.953  10.782 -3.2320 -1.5736 -0.2425
  380MOL0     H51271   7.872   4.079  10.848 -1.0396 -1.7979 -1.1886
  380MOL0     H51272   7.942   3.998  11.082  3.3596 -0.4820 -0.3297
  380MOL0     H51273   8.019   3.866  10.992 -0.1807  0.3432 -2.7606
  380MOL0     H51274   7.831   3.767  10.912 -1.4558  0.5499  0.1705
  380MOL0     H51275   7.795   3.784  11.091 -1.0175  0.2158  1.1021
  380MOL0     H51276   7.687   4.023  10.995 -0.8974  0.1946 -0.2871
  380MOL0     H51277   7.608   3.878  11.047  0.6963  0.7854  0.9149
  380MOL0     H51278   7.706   3.924  10.766 -1.0569  1.7713  0.4332
  380MOL0     H51279   7.612   3.791  10.836  0.9937 -0.4951  2.5714
  380MOL0     H51280   7.699   4.336  10.838  1.3985 -2.1121 -0.5226
  380MOL0     H51281   7.477   4.350  10.762  1.7070  2.7465  0.8291
  380MOL0     H51282   7.210   4.787  10.566  0.3296 -0.0007 -1.1451
  380MOL0     H51283   7.013   4.855  10.449  0.7627  0.2507 -1.3085
  380MOL0     H51284   5.336   4.669   9.949 -2.5909  1.1919 -0.5657
  380MOL0     H51285   5.241   4.888   9.954 -1.3350  0.1363 -3.1075
  380MOL0     H51286   5.167   5.236   9.953  0.1818 -0.0617  0.4350
  380MOL0     H51287   5.045   5.422  10.040  0.0340 -0.6828  0.1387
  380MOL0     H51288   4.951   5.733  10.067 -1.0873 -2.1956 -1.4697
  380MOL0     H51289   5.022   5.651   9.929  1.0702  0.0089 -0.9912
  380MOL0     H51290   5.006   5.904   9.898  0.3289 -1.5304 -2.9346
  380MOL0     H51291   5.165   5.831   9.884  0.1754 -1.1261  1.6193
  380MOL0     H51292   5.206   5.900  10.123  2.2531 -0.1610 -2.7040
  380MOL0     H51293   5.050   5.958  10.140  0.3571 -2.2967  0.2147
  380MOL0     H51294   5.303   6.047  10.033  0.5052  2.7685  1.5733
  380MOL0     H51295   5.185   6.112   9.914  3.7359 -0.3090 -0.8630
  380MOL0     H51296   5.116   6.328  10.288  1.3634 -1.2613  2.4145
  380MOL0     H51297   5.404   5.657  10.051 -1.5713  2.4219 -3.9405
  380MOL0     H51298   5.578   5.484   9.832 -1.2491  1.5327 -0.3456
  380MOL0     H51299   5.622   5.552   9.986 -0.4056  0.2560  0.0749
  380MOL0     H51300   5.629   5.373   9.961 -0.5352 -0.8713  1.0862
  381MOL0     O51301   5.252  10.076   2.413 -0.1345  0.1714 -0.7197
  381MOL0     C51302   5.178   9.992   2.354 -0.9924  0.4577  0.1678
  381MOL0     O51303   5.238   9.887   2.279 -0.4034  0.5846  0.5488
  381MOL0     C51304   5.373   9.887   2.263 -0.1344 -0.2437 -0.3212
  381MOL0     C51305   5.442   9.773   2.316 -0.1843 -0.0536 -0.5788
  381MOL0     C51306   5.577   9.768   2.302 -0.5676  0.0486  0.5372
  381MOL0     C51307   5.649   9.876   2.242  0.9820 -0.2985  0.7951
  381MOL0     O51308   5.781   9.852   2.219  0.5506 -0.3722 -0.7995
  381MOL0     C51309   5.869   9.963   2.230 -0.1962 -0.2489  0.0523
  381MOL0     C51310   6.014   9.909   2.230 -0.5166  0.1093  0.0738
  381MOL0     C51311   6.125  10.008   2.196 -0.9881 -0.4678 -0.4576
  381MOL0     C51312   6.252   9.931   2.148  0.0793  0.1844 -1.3819
  381MOL0     C51313   6.369  10.031   2.104  0.1381  0.2680  0.3466
  381MOL0     C51314   6.503   9.967   2.087 -0.1228 -0.6650  0.2831
  381MOL0     C51315   6.608  10.049   2.017  0.4212  0.8430  0.3028
  381MOL0     C51316   6.745   9.982   2.020 -0.8077 -0.4902 -0.2183
  381MOL0     N51317   6.839  10.080   1.960  0.2446  0.8219 -0.3117
  381MOL0     C51318   6.980  10.075   1.972 -1.2524 -0.4328 -0.5659
  381MOL0     C51319   7.026  10.139   1.860 -0.7837  0.3410  0.2352
  381MOL0     C51320   7.170  10.151   1.808 -0.1772  0.1642  0.3655
  381MOL0     C51321   7.272  10.226   1.902  0.9605 -0.1183 -0.3218
  381MOL0     C51322   7.403  10.260   1.828 -0.0847  0.1868  1.0904
  381MOL0     C51323   7.490  10.132   1.830  0.4139 -0.2044 -0.3126
  381MOL0     O51324   7.481  10.041   1.716 -0.2833  0.4330  0.1873
  381MOL0     C51325   7.581   9.948   1.694  0.3912 -0.9532 -0.6869
  381MOL0     C51326   7.702   9.944   1.770  0.5200  1.0038  0.9119
  381MOL0     C51327   7.807   9.872   1.721  0.8475  0.2010 -1.1287
  381MOL0     C51328   7.795   9.820   1.588  0.1193  0.1565  0.0982
  381MOL0     C51329   7.921   9.776   1.525  0.8269  0.6746 -0.1312
  381MOL0     O51330   8.035   9.797   1.601  0.4301  0.3205  0.2685
  381MOL0     C51331   8.163   9.753   1.562  0.5049  1.0196 -0.3151
  381MOL0     C51332   8.237   9.723   1.676  0.2191 -0.0285  0.0343
  381MOL0     C51333   8.357   9.657   1.656 -0.7830  0.2596  0.3077
  381MOL0     C51334   8.400   9.613   1.529 -0.4421 -0.0277  0.3380
  381MOL0     O51335   8.521   9.564   1.488 -0.1759  0.1595 -0.2525
  381MOL0     C51336   8.633   9.559   1.577  0.0990  0.0020  0.0773
  381MOL0     C51337   8.761   9.513   1.503  0.9760  0.5258  0.2313
  381MOL0     C51338   8.886   9.530   1.595 -0.5848  0.0631 -0.2394
  381MOL0     C51339   9.015   9.489   1.515  0.1356  0.2174  0.3701
  381MOL0     C51340   9.143   9.519   1.591  0.3998  0.2493  0.3857
  381MOL0     C51341   9.166   9.451   1.726 -0.0245  0.2469 -0.4010
  381MOL0     C51342   9.294   9.498   1.798 -0.1613 -0.6966 -0.1397
  381MOL0     C51343   9.303   9.645   1.836 -0.4174  0.7566  0.6497
  381MOL0    Cl51344   9.194   9.702   1.948 -0.0017 -0.1945 -0.0573
  381MOL0     C51345   8.329   9.667   1.421  0.1625  0.0639 -0.0757
  381MOL0     C51346   8.217   9.739   1.438  0.2044  0.5999  0.4979
  381MOL0     O51347   7.917   9.725   1.415  0.2386 -0.2540  0.6208
  381MOL0     C51348   7.678   9.823   1.517  0.3514 -0.0971  0.2879
  381MOL0     C51349   7.570   9.881   1.574 -0.7009  1.4056  1.0910
  381MOL0     N51350   6.919  10.193   1.790 -0.1738 -0.4037  0.0584
  381MOL0     N51351   6.810  10.154   1.847  0.2780  0.5607  0.7569
  381MOL0     C51352   5.581   9.990   2.202  0.4529 -0.2066 -1.1135
  381MOL0     C51353   5.440   9.998   2.212  0.0188 -0.9591 -0.6491
  381MOL0     C51354   5.029  10.002   2.351 -0.2543 -0.1361  0.7167
  381MOL0     C51355   4.972   9.918   2.254  0.7185  0.5268  0.5286
  381MOL0     C51356   4.829   9.916   2.245 -0.3147  0.4074 -0.1939
  381MOL0     C51357   4.749   9.994   2.331  0.5193 -0.5525 -0.2573
  381MOL0     O51358   4.606   9.995   2.325 -0.4123  0.3019  0.2288
  381MOL0     C51359   4.550   9.918   2.217 -0.5305 -0.7942 -0.4822
  381MOL0     C51360   4.397   9.943   2.207 -0.4022  0.1815  0.0702
  381MOL0     C51361   4.315   9.884   2.318 -0.5951  0.3124  0.7017
  381MOL0     C51362   4.185   9.961   2.346  0.5039  0.6840  0.7810
  381MOL0     C51363   4.082   9.954   2.241 -0.0198  0.3422 -0.4292
  381MOL0     C51364   4.011   9.905   2.155 -0.3682  0.0067  0.0083
  381MOL0     C51365   4.811  10.084   2.417  0.4312  1.0918 -0.2100
  381MOL0     C51366   4.953  10.093   2.430 -0.6037  0.4389  0.4045
  381MOL0     C51367   5.025  10.175   2.533  0.2160  0.0614 -0.8606
  381MOL0     H51368   5.391   9.689   2.362  1.2070 -0.7563 -0.2678
  381MOL0     H51369   5.623   9.673   2.328 -1.8049 -1.0266 -0.9869
  381MOL0     H51370   5.856  10.032   2.146 -1.7752  0.1458  0.5832
  381MOL0     H51371   5.846  10.027   2.316  0.4224 -0.2803  0.2437
  381MOL0     H51372   6.010   9.826   2.158  0.2862  2.4111 -2.8435
  381MOL0     H51373   6.036   9.886   2.334 -1.2566  1.2769  0.5084
  381MOL0     H51374   6.140  10.070   2.285 -0.3557  2.4328 -2.4776
  381MOL0     H51375   6.094  10.079   2.120  3.4099  1.8660 -0.4339
  381MOL0     H51376   6.276   9.873   2.237 -1.1122  1.3916 -0.2352
  381MOL0     H51377   6.233   9.858   2.069 -3.3877  0.2593 -0.7824
  381MOL0     H51378   6.343  10.090   2.016 -1.8732  0.8685  1.2859
  381MOL0     H51379   6.389  10.103   2.185  1.3314 -0.3877  0.6575
  381MOL0     H51380   6.536   9.936   2.187  0.2772 -0.7009  0.1407
  381MOL0     H51381   6.497   9.875   2.029  0.7017  0.1667 -1.1630
  381MOL0     H51382   6.606  10.147   2.065 -2.0009  1.1398 -0.2926
  381MOL0     H51383   6.580  10.073   1.914  2.7158  0.5548 -0.4573
  381MOL0     H51384   6.778   9.951   2.120  1.3090 -0.8442 -0.9603
  381MOL0     H51385   6.753   9.891   1.959  2.2103 -1.7144  1.7664
  381MOL0     H51386   7.039  10.036   2.054  0.6393  2.1076 -0.6069
  381MOL0     H51387   7.197  10.048   1.784 -2.3169  0.0069 -1.7467
  381MOL0     H51388   7.158  10.209   1.716  0.9822  1.1025  0.7743
  381MOL0     H51389   7.222  10.312   1.947  1.3331  0.1845 -0.4827
  381MOL0     H51390   7.289  10.154   1.983 -0.7025 -1.0773 -0.7684
  381MOL0     H51391   7.443  10.331   1.901 -0.2523  1.8477 -0.3860
  381MOL0     H51392   7.387  10.306   1.730 -2.6395  0.0470  1.3632
  381MOL0     H51393   7.455  10.072   1.914  0.1915 -1.4119 -1.2476
  381MOL0     H51394   7.588  10.175   1.855  0.2892  0.5067 -0.9972
  381MOL0     H51395   7.719   9.997   1.864  3.6292 -1.1598  1.7572
  381MOL0     H51396   7.893   9.867   1.788 -1.2772  2.5313  2.0472
  381MOL0     H51397   8.202   9.751   1.775  1.5239 -3.7045  1.7320
  381MOL0     H51398   8.411   9.622   1.743  2.4808 -1.7510 -2.2707
  381MOL0     H51399   8.653   9.659   1.617 -0.7341  1.0064 -1.8372
  381MOL0     H51400   8.616   9.493   1.662 -0.3898  1.6617  1.3327
  381MOL0     H51401   8.754   9.409   1.471  0.1794  0.6878 -0.1540
  381MOL0     H51402   8.773   9.570   1.411  1.4981 -1.9116 -1.2949
  381MOL0     H51403   8.903   9.631   1.633  3.7885 -0.9563  1.1400
  381MOL0     H51404   8.871   9.470   1.686 -0.5564 -0.6879 -0.7180
  381MOL0     H51405   9.014   9.539   1.418 -3.7109 -0.7670 -0.2583
  381MOL0     H51406   9.007   9.381   1.498  0.1123 -0.0624  1.9613
  381MOL0     H51407   9.146   9.627   1.604 -0.5596  0.2183  0.9305
  381MOL0     H51408   9.227   9.489   1.528  2.4893  1.6393  2.3567
  381MOL0     H51409   9.081   9.463   1.793  0.9138  0.0567  0.8701
  381MOL0     H51410   9.177   9.343   1.715 -1.1424  0.0477  0.2842
  381MOL0     H51411   9.370   9.473   1.723  1.2768 -1.9618  1.6512
  381MOL0     H51412   9.317   9.440   1.888 -0.6094 -1.7302 -0.6755
  381MOL0     H51413   9.402   9.662   1.881  0.4461 -0.9550 -0.5063
  381MOL0     H51414   9.307   9.703   1.744  2.3855  0.4546  0.4703
  381MOL0     H51415   8.362   9.652   1.318 -1.3436 -0.2965 -0.5269
  381MOL0     H51416   8.150   9.763   1.355 -0.0705 -2.9627 -0.4737
  381MOL0     H51417   7.669   9.787   1.415 -0.4215 -1.1838  0.7198
  381MOL0     H51418   7.482   9.889   1.512  0.9006 -1.7814 -1.9277
  381MOL0     H51419   5.622  10.076   2.149  0.5650 -0.1847 -0.9899
  381MOL0     H51420   5.386  10.085   2.177  0.5668  0.6099  2.1256
  381MOL0     H51421   5.027   9.855   2.186  0.5655  0.8077  0.1439
  381MOL0     H51422   4.777   9.842   2.185 -2.5238 -1.1700  3.3645
  381MOL0     H51423   4.575   9.812   2.233  0.4288 -0.6842 -1.1503
  381MOL0     H51424   4.597   9.956   2.126  0.0040 -3.2032 -1.2997
  381MOL0     H51425   4.357   9.907   2.112 -0.9942 -1.9395  1.0568
  381MOL0     H51426   4.385  10.051   2.216  1.3436  0.6259 -2.0944
  381MOL0     H51427   4.373   9.889   2.411  1.3931 -2.3274 -0.2688
  381MOL0     H51428   4.289   9.785   2.279  2.0793 -1.4719  3.0359
  381MOL0     H51429   4.129   9.936   2.436  0.6748  3.9535  1.9305
  381MOL0     H51430   4.210  10.067   2.358  0.5318  0.6996  0.5913
  381MOL0     H51431   3.944   9.863   2.083 -2.4329 -3.1097  3.3862
  381MOL0     H51432   4.749  10.150   2.477  0.0185  0.9552 -0.4800
  381MOL0     H51433   5.100  10.110   2.579 -1.6767 -1.4374  0.3137
  381MOL0     H51434   5.082  10.257   2.491  1.6020  0.9764  2.4753
  381MOL0     H51435   4.947  10.215   2.599  0.8685  2.3427 -1.3894
  382MOL0     O51436  10.268   0.887  10.314 -0.1790  0.0947 -0.1689
  382MOL0     C51437  10.166   0.944  10.352  0.4920 -0.0866 -0.2851
  382MOL0     O51438  10.164   1.067  10.413  0.1027 -0.5441  0.5205
  382MOL0     C51439  10.276   1.139  10.414 -0.4444 -0.6126 -0.0209
  382MOL0     C51440  10.359   1.140  10.524 -0.0562 -0.5155 -0.4181
  382MOL0     C51441  10.466   1.234  10.533 -0.6715 -0.3420 -0.2737
  382MOL0     C51442  10.495   1.320  10.421  0.2216  0.1520 -0.7933
  382MOL0     O51443  10.588   1.417  10.419  0.0270 -0.0898 -0.7116
  382MOL0     C51444  10.668   1.448  10.535 -0.3144  0.6560 -0.5584
  382MOL0     C51445  10.754   1.562  10.485  0.1591 -0.0663  0.8104
  382MOL0     C51446  10.873   1.603  10.577  0.1127 -0.7235  0.0482
  382MOL0     C51447  10.948   1.731  10.534  0.1468  0.3398 -0.2936
  382MOL0     C51448  11.057   1.763  10.634  0.5774  0.2818  1.0791
  382MOL0     C51449  11.012   1.824  10.757  0.8214 -0.0732  0.1509
  382MOL0     C51450  11.118   1.909  10.818  0.1474  0.4521 -0.1765
  382MOL0     C51451  11.246   1.832  10.851 -0.1165  0.0804 -0.4165
  382MOL0     N51452  11.337   1.930  10.914 -0.8084  0.5847 -0.9134
  382MOL0     C51453  11.338   1.968  11.041  0.5324  0.4726 -0.1970
  382MOL0     C51454  11.437   2.059  11.053 -1.1749 -0.2569  0.2415
  382MOL0     C51455  11.467   2.135  11.173  0.1992  0.5429 -0.6481
  382MOL0     C51456  11.504   2.279  11.152 -0.0380 -0.0803 -0.6788
  382MOL0     C51457  11.517   2.369  11.281 -0.8722 -0.8261 -0.6572
  382MOL0     C51458  11.596   2.315  11.392 -0.1868 -0.1784 -0.1150
  382MOL0     O51459  11.725   2.276  11.335 -0.4263  0.0164  0.4621
  382MOL0     C51460  11.830   2.358  11.335 -0.1034 -0.1349 -0.6792
  382MOL0     C51461  11.953   2.303  11.308 -0.1738 -0.8684 -0.4522
  382MOL0     C51462  12.073   2.375  11.313  0.9277 -0.6605 -0.5589
  382MOL0     C51463  12.065   2.512  11.331  0.3535 -0.8288 -0.5218
  382MOL0     C51464  12.189   2.592  11.351  0.7860 -1.1400  0.7185
  382MOL0     O51465  12.307   2.527  11.315 -0.1677 -0.5081  0.1533
  382MOL0     C51466  12.437   2.582  11.320 -0.6730  1.2396  0.3993
  382MOL0     C51467  12.535   2.479  11.320  0.1475 -0.2272  0.1543
  382MOL0     C51468  12.669   2.516  11.351  0.5882 -0.2049 -0.7289
  382MOL0     C51469  12.708   2.651  11.363 -0.3758  0.2633  0.5308
  382MOL0     O51470  12.845   2.678  11.382  0.1916  0.1235  0.8620
  382MOL0     C51471  12.886   2.813  11.399  0.8738 -0.6394 -0.1258
  382MOL0     C51472  13.035   2.832  11.398  0.7334 -0.0814 -0.2956
  382MOL0     C51473  13.095   2.817  11.262  0.4992 -0.2175 -0.0133
  382MOL0     C51474  13.245   2.802  11.278 -0.1597  0.8067  0.9568
  382MOL0     C51475  13.306   2.666  11.253 -0.5020 -0.3627 -0.5266
  382MOL0     C51476  13.456   2.650  11.293 -0.1410  0.6478 -0.6120
  382MOL0     C51477  13.564   2.723  11.205  0.4148  0.1290  0.3098
  382MOL0     C51478  13.698   2.715  11.276 -0.3197 -0.5609  0.2556
  382MOL0    Cl51479  13.750   2.566  11.339 -0.0836  0.0002  0.0845
  382MOL0     C51480  12.604   2.751  11.355 -0.9101  0.7752  0.3876
  382MOL0     C51481  12.472   2.715  11.336  0.6341 -0.1775 -1.2861
  382MOL0     O51482  12.187   2.699  11.418  0.1620  0.0228  0.7977
  382MOL0     C51483  11.946   2.572  11.356 -0.9828 -0.0312 -0.7214
  382MOL0     C51484  11.836   2.491  11.361 -0.1293 -1.0147  0.7578
  382MOL0     N51485  11.493   2.072  10.926  0.0091  0.2802 -0.1185
  382MOL0     N51486  11.434   1.993  10.846 -0.3288 -0.0884  0.0403
  382MOL0     C51487  10.404   1.328  10.315  0.2060  0.8567  0.0991
  382MOL0     C51488  10.295   1.240  10.315  0.6611 -0.7730 -0.7419
  382MOL0     C51489  10.037   0.865  10.333 -0.2513 -0.6656 -0.8911
  382MOL0     C51490   9.925   0.923  10.388 -0.7065 -0.9996 -0.2748
  382MOL0     C51491   9.797   0.884  10.352 -0.0942 -0.2166 -0.1747
  382MOL0     C51492   9.776   0.765  10.273  0.1646 -0.0696 -0.4287
  382MOL0     O51493   9.656   0.696  10.265 -0.3606 -0.0883 -0.2264
  382MOL0     C51494   9.537   0.769  10.298  0.2719 -0.6986  0.7769
  382MOL0     C51495   9.519   0.763  10.449  0.3185  1.0529 -0.7915
  382MOL0     C51496   9.467   0.631  10.485 -0.3392 -0.1749  0.0922
  382MOL0     C51497   9.317   0.626  10.455 -0.2059 -0.5733 -0.1773
  382MOL0     C51498   9.263   0.519  10.533 -0.2755  0.6291 -0.0247
  382MOL0     C51499   9.233   0.427  10.602  0.7709  0.0402 -0.4472
  382MOL0     C51500   9.894   0.702  10.223 -0.4632  0.4886  0.6024
  382MOL0     C51501  10.019   0.750  10.253 -1.2863 -0.2523  0.5094
  382MOL0     C51502  10.134   0.676  10.185  0.0754 -0.2987 -0.4443
  382MOL0     H51503  10.334   1.079  10.610  1.2716 -0.1643  0.2302
  382MOL0     H51504  10.527   1.242  10.623 -4.2109 -0.3819  2.3624
  382MOL0     H51505  10.611   1.477  10.624  0.7512  0.5759  0.1736
  382MOL0     H51506  10.725   1.356  10.553 -2.5228 -0.4957  0.9317
  382MOL0     H51507  10.704   1.653  10.450  1.3400 -0.7093 -2.9286
  382MOL0     H51508  10.794   1.521  10.392 -0.9798 -0.7230  0.5993
  382MOL0     H51509  10.950   1.526  10.581  2.7209  1.7044  0.3469
  382MOL0     H51510  10.827   1.622  10.674  1.5669  1.7320  0.3570
  382MOL0     H51511  11.011   1.713  10.446  3.6834 -1.9437  2.3778
  382MOL0     H51512  10.873   1.808  10.519 -0.6377 -0.4072 -0.3105
  382MOL0     H51513  11.105   1.666  10.648 -0.0344 -0.2891 -0.4665
  382MOL0     H51514  11.123   1.835  10.584  1.0344 -1.1922 -0.5718
  382MOL0     H51515  10.929   1.892  10.737  0.4488  0.8609  4.0939
  382MOL0     H51516  10.979   1.755  10.835  0.9758 -1.7025 -1.1472
  382MOL0     H51517  11.083   1.973  10.900  1.7446  1.0730  0.0817
  382MOL0     H51518  11.144   1.981  10.739 -0.2232  0.7632 -0.0177
  382MOL0     H51519  11.221   1.754  10.923  0.7061 -0.0825 -0.2977
  382MOL0     H51520  11.284   1.793  10.756 -3.0466  1.3822 -2.2528
  382MOL0     H51521  11.272   1.929  11.117 -1.2106 -1.6115 -2.6088
  382MOL0     H51522  11.382   2.128  11.242 -0.8346 -1.4647 -2.0164
  382MOL0     H51523  11.560   2.098  11.217 -0.8773  0.9081  2.1369
  382MOL0     H51524  11.596   2.267  11.094  0.0333  1.7166 -0.9815
  382MOL0     H51525  11.424   2.322  11.091 -2.1845 -2.6802  0.1085
  382MOL0     H51526  11.418   2.397  11.318  1.6698  3.9359  3.8818
  382MOL0     H51527  11.561   2.463  11.245 -2.3571 -1.4336 -4.5838
  382MOL0     H51528  11.559   2.216  11.419 -0.0373 -0.3812 -0.6572
  382MOL0     H51529  11.595   2.383  11.478 -0.4520 -0.9419  0.5013
  382MOL0     H51530  11.951   2.196  11.287 -1.2809 -1.0003  0.2048
  382MOL0     H51531  12.173   2.336  11.298  2.1545  2.1474 -0.3511
  382MOL0     H51532  12.508   2.379  11.289  0.7526  0.5233 -3.1042
  382MOL0     H51533  12.745   2.440  11.361 -1.4056 -2.0079  1.7668
  382MOL0     H51534  12.839   2.881  11.328 -1.6208 -0.0945  1.8984
  382MOL0     H51535  12.857   2.855  11.496  0.7669  5.1402 -2.2690
  382MOL0     H51536  13.048   2.936  11.429  0.3933 -0.0431 -0.2719
  382MOL0     H51537  13.080   2.764  11.470 -0.2961  0.1522  0.5913
  382MOL0     H51538  13.048   2.727  11.223 -2.7437  1.6681 -0.8554
  382MOL0     H51539  13.062   2.905  11.206 -0.2367  1.2938  2.5860
  382MOL0     H51540  13.282   2.827  11.378 -1.2061  2.2565  1.0166
  382MOL0     H51541  13.298   2.866  11.207  1.6817 -1.2307  0.3883
  382MOL0     H51542  13.292   2.640  11.147 -0.5426  0.5864 -0.7626
  382MOL0     H51543  13.246   2.606  11.322  1.2570  2.0499  3.4019
  382MOL0     H51544  13.463   2.681  11.397 -0.1844 -0.9743 -0.1050
  382MOL0     H51545  13.485   2.545  11.294  1.1231  0.9838 -0.0499
  382MOL0     H51546  13.537   2.825  11.177 -2.1734 -1.0181 -1.8254
  382MOL0     H51547  13.573   2.674  11.108  3.3213 -0.4245  0.7888
  382MOL0     H51548  13.777   2.739  11.205 -0.5906  1.4893  0.5979
  382MOL0     H51549  13.706   2.787  11.358  3.1881  0.7192 -1.0396
  382MOL0     H51550  12.622   2.857  11.366 -0.7400  0.6751  1.0982
  382MOL0     H51551  12.395   2.790  11.316 -0.6304 -1.0987 -0.0109
  382MOL0     H51552  11.946   2.679  11.376  2.8626  0.4498 -2.2676
  382MOL0     H51553  11.744   2.537  11.396 -2.5658 -4.4532 -0.5544
  382MOL0     H51554  10.410   1.406  10.241 -2.0949 -1.5226 -2.8617
  382MOL0     H51555  10.228   1.246  10.230 -2.2089  0.3554  1.4566
  382MOL0     H51556   9.947   0.992  10.469  2.7466 -1.2334 -0.8794
  382MOL0     H51557   9.711   0.928  10.403 -0.6904  0.0702 -1.3967
  382MOL0     H51558   9.453   0.724  10.245  1.0937 -1.3347 -0.0108
  382MOL0     H51559   9.538   0.873  10.263  2.5213  0.3817  3.6075
  382MOL0     H51560   9.454   0.844  10.486 -1.8229 -0.1844 -1.6389
  382MOL0     H51561   9.603   0.779  10.517 -2.4740  2.4866  2.6628
  382MOL0     H51562   9.499   0.596  10.584  1.6626 -2.8804 -1.3884
  382MOL0     H51563   9.507   0.562  10.410 -2.2809  2.5765 -3.8281
  382MOL0     H51564   9.267   0.722  10.473 -1.2060 -1.3419  1.3058
  382MOL0     H51565   9.314   0.599  10.349  2.0052  0.8817 -0.6747
  382MOL0     H51566   9.183   0.358  10.668 -2.5752  2.5680 -0.0349
  382MOL0     H51567   9.878   0.604  10.178  4.4004 -0.9381  1.2896
  382MOL0     H51568  10.099   0.593  10.122 -1.1632 -1.2619  1.4473
  382MOL0     H51569  10.173   0.761  10.127 -2.8696  1.0224 -0.6526
  382MOL0     H51570  10.216   0.636  10.245 -0.3689 -0.9416 -0.2652
  383MOL0     O51571   9.584   0.706   2.489  0.0987 -0.5736 -0.5074
  383MOL0     C51572   9.519   0.665   2.393  0.6774 -0.0462  0.1336
  383MOL0     O51573   9.505   0.528   2.357 -0.0206 -0.6374 -1.0521
  383MOL0     C51574   9.562   0.431   2.438 -0.1341 -0.0648  0.2105
  383MOL0     C51575   9.521   0.398   2.572 -0.0788  0.6789 -0.0482
  383MOL0     C51576   9.613   0.334   2.659 -0.4982  0.7284  0.9348
  383MOL0     C51577   9.728   0.275   2.603 -0.2325 -0.3218 -0.3762
  383MOL0     O51578   9.817   0.221   2.685  0.5298  0.3945  0.6696
  383MOL0     C51579   9.906   0.120   2.627 -0.7877  0.4082 -0.0335
  383MOL0     C51580  10.009   0.084   2.740 -0.0515  0.5888 -0.3921
  383MOL0     C51581   9.962  -0.036   2.825 -0.0956  0.7514 -0.4470
  383MOL0     C51582   9.871   0.021   2.932  0.4259 -0.7850 -0.4366
  383MOL0     C51583   9.723  -0.021   2.918  1.1421  0.6059  0.3759
  383MOL0     C51584   9.637   0.045   3.027 -0.1287  0.2632 -0.3167
  383MOL0     C51585   9.610   0.192   2.995  0.5488 -0.2839 -0.5065
  383MOL0     C51586   9.544   0.266   3.123 -0.8212  0.1008  0.9533
  383MOL0     N51587   9.510   0.403   3.099  0.1765 -0.6081 -0.2454
  383MOL0     C51588   9.422   0.446   2.997 -0.9316 -0.8831 -0.0824
  383MOL0     C51589   9.431   0.581   3.003  0.6932 -0.4795  0.6056
  383MOL0     C51590   9.358   0.681   2.911  0.5233 -0.8116 -0.0950
  383MOL0     C51591   9.393   0.819   2.951 -0.1783 -1.1277  0.5384
  383MOL0     C51592   9.363   0.860   3.097  0.1082  0.2028 -0.3239
  383MOL0     C51593   9.219   0.875   3.129 -0.2629  0.0175  0.3075
  383MOL0     O51594   9.157   0.965   3.034 -0.2411 -0.2338 -0.1677
  383MOL0     C51595   9.035   0.921   2.993  0.3055  0.2871  0.8195
  383MOL0     C51596   9.003   0.942   2.862 -0.0771 -0.6038  0.7562
  383MOL0     C51597   8.881   0.920   2.801 -0.5359  0.3283 -0.4428
  383MOL0     C51598   8.777   0.868   2.874  0.0129 -0.9360 -0.6160
  383MOL0     C51599   8.651   0.833   2.812  1.3676  0.0117  0.4951
  383MOL0     O51600   8.656   0.743   2.707  0.3354  0.4131  0.1986
  383MOL0     C51601   8.530   0.699   2.667  0.4463  0.1437 -0.0330
  383MOL0     C51602   8.467   0.753   2.557  0.2222  0.1980 -0.4923
  383MOL0     C51603   8.345   0.701   2.508  0.2290 -0.1021  0.3423
  383MOL0     C51604   8.281   0.592   2.570  0.0278  0.0881 -0.4465
  383MOL0     O51605   8.162   0.546   2.521 -0.4289  0.0395 -0.2281
  383MOL0     C51606   8.059   0.496   2.616 -0.4268 -0.7675 -0.0866
  383MOL0     C51607   7.932   0.488   2.539 -0.2178  0.2557  0.2856
  383MOL0     C51608   7.819   0.440   2.625 -0.1314  0.1301 -0.1802
  383MOL0     C51609   7.691   0.417   2.539  1.0011  0.6976  0.2461
  383MOL0     C51610   7.704   0.294   2.452  0.3456  0.3061  0.6188
  383MOL0     C51611   7.574   0.218   2.422 -0.3647  0.2202  0.2121
  383MOL0     C51612   7.450   0.311   2.383 -0.4841 -0.6804 -0.1001
  383MOL0     C51613   7.337   0.236   2.314 -0.4593  0.5708  0.4839
  383MOL0    Cl51614   7.196   0.336   2.286  0.3569  0.3382  0.0933
  383MOL0     C51615   8.341   0.536   2.684  0.1810  0.5142 -0.4602
  383MOL0     C51616   8.462   0.585   2.729 -0.2973 -0.7896 -0.3443
  383MOL0     O51617   8.546   0.870   2.872  0.1252  0.2881  0.2688
  383MOL0     C51618   8.798   0.863   3.024  0.4639 -0.1139 -0.3220
  383MOL0     C51619   8.929   0.882   3.073  0.2588 -0.2102  0.0109
  383MOL0     N51620   9.531   0.616   3.085  0.1264  0.3354  0.2725
  383MOL0     N51621   9.582   0.510   3.143 -0.2261  0.0019 -0.6438
  383MOL0     C51622   9.756   0.290   2.465  0.2132  0.1747 -0.1353
  383MOL0     C51623   9.672   0.366   2.385 -0.6956 -0.6971 -0.6136
  383MOL0     C51624   9.437   0.761   2.310  0.3453  0.7092  0.5108
  383MOL0     C51625   9.362   0.705   2.217 -0.0892  0.2274  0.0369
  383MOL0     C51626   9.272   0.783   2.144  0.6437  1.5576  0.8311
  383MOL0     C51627   9.263   0.923   2.153  0.0616  0.2476  0.5655
  383MOL0     O51628   9.174   1.009   2.092  0.0049  0.0558  0.3021
  383MOL0     C51629   9.051   0.952   2.045 -0.2845 -0.6107 -0.5759
  383MOL0     C51630   9.053   0.907   1.894  0.4457  0.0930 -0.2878
  383MOL0     C51631   8.923   0.827   1.862  0.1332  0.6981 -0.3286
  383MOL0     C51632   8.908   0.771   1.718 -0.1350 -0.0827 -0.2868
  383MOL0     C51633   8.896   0.882   1.621 -0.5726 -0.4391 -0.5727
  383MOL0     C51634   8.911   0.976   1.550 -0.2999  0.3336  0.7141
  383MOL0     C51635   9.356   0.981   2.232 -0.1265 -0.3735 -0.5107
  383MOL0     C51636   9.440   0.904   2.315 -0.7791 -0.3449  0.0531
  383MOL0     C51637   9.545   0.995   2.397 -0.2667  0.4121  0.0738
  383MOL0     H51638   9.433   0.442   2.616 -0.2606 -1.9079  2.5161
  383MOL0     H51639   9.610   0.342   2.767 -2.0631  1.1835  0.8858
  383MOL0     H51640   9.852   0.036   2.581 -1.4836  2.2483 -2.8627
  383MOL0     H51641   9.972   0.161   2.550  1.0959  1.0795  1.8684
  383MOL0     H51642  10.029   0.166   2.809 -0.4074  1.1709 -0.9731
  383MOL0     H51643  10.095   0.040   2.689  0.7478 -0.3318  1.6372
  383MOL0     H51644  10.044  -0.089   2.874 -0.0815 -1.2864 -2.5305
  383MOL0     H51645   9.919  -0.119   2.769 -0.0079 -0.0140  0.5909
  383MOL0     H51646   9.901  -0.018   3.029 -3.4733  1.2034  1.8466
  383MOL0     H51647   9.870   0.131   2.931 -4.6563 -0.5800 -0.2507
  383MOL0     H51648   9.687   0.012   2.820  1.1278 -1.6655 -0.4420
  383MOL0     H51649   9.713  -0.130   2.922 -0.3380  0.7396  0.7513
  383MOL0     H51650   9.540  -0.007   3.031 -1.4115  2.5710  1.6517
  383MOL0     H51651   9.677   0.036   3.129  0.6048 -3.2657 -0.7781
  383MOL0     H51652   9.547   0.196   2.906  0.8435  1.1513 -0.6686
  383MOL0     H51653   9.700   0.248   2.968  0.7528  1.0835  2.5613
  383MOL0     H51654   9.452   0.215   3.155  0.6971 -2.6691  1.2151
  383MOL0     H51655   9.620   0.261   3.201 -0.7466 -0.4980  0.8443
  383MOL0     H51656   9.358   0.378   2.942 -1.4060 -2.1558  1.9355
  383MOL0     H51657   9.392   0.654   2.810  0.4436 -2.7504  0.3638
  383MOL0     H51658   9.251   0.659   2.911  0.3916 -0.1942 -0.4425
  383MOL0     H51659   9.498   0.843   2.932 -0.5135  1.4760  1.5502
  383MOL0     H51660   9.348   0.889   2.880  1.4865  1.4928  1.9058
  383MOL0     H51661   9.411   0.954   3.126 -0.2578 -0.1614  1.6242
  383MOL0     H51662   9.409   0.797   3.174  2.6035  0.4377 -1.5339
  383MOL0     H51663   9.195   0.923   3.225  0.2377 -0.6228  0.7681
  383MOL0     H51664   9.174   0.776   3.131  1.4861 -0.8429  3.1647
  383MOL0     H51665   9.079   0.980   2.795  0.7630  1.2359  2.6248
  383MOL0     H51666   8.870   0.941   2.695  1.1687 -0.8528 -0.8932
  383MOL0     H51667   8.520   0.836   2.510 -0.2722 -0.5880 -2.5196
  383MOL0     H51668   8.305   0.745   2.417  1.1807  1.7362  0.7561
  383MOL0     H51669   8.077   0.403   2.670  0.9121  0.1340  1.0997
  383MOL0     H51670   8.045   0.562   2.702  1.5194  1.9323 -1.7081
  383MOL0     H51671   7.904   0.589   2.508  1.8694  0.6804 -0.3371
  383MOL0     H51672   7.947   0.444   2.440 -2.7271  2.4050 -1.1913
  383MOL0     H51673   7.849   0.350   2.679  2.3622  1.8394  1.4597
  383MOL0     H51674   7.799   0.522   2.695 -2.7045 -0.4150 -0.1551
  383MOL0     H51675   7.659   0.493   2.468 -2.7408 -1.3482 -0.4866
  383MOL0     H51676   7.609   0.410   2.611  0.5094 -1.0599 -0.4332
  383MOL0     H51677   7.779   0.232   2.503  3.8584  3.2863 -0.4872
  383MOL0     H51678   7.756   0.331   2.364 -2.3242  1.0743 -0.7261
  383MOL0     H51679   7.604   0.147   2.344 -0.8555  1.6375 -1.3213
  383MOL0     H51680   7.534   0.164   2.508 -1.4377 -0.1468 -0.4827
  383MOL0     H51681   7.492   0.393   2.325  0.5351 -1.1322 -0.0229
  383MOL0     H51682   7.410   0.370   2.466 -1.6037  1.0308 -1.7788
  383MOL0     H51683   7.379   0.194   2.222 -0.6569 -1.9168  1.4493
  383MOL0     H51684   7.305   0.147   2.368 -1.5076 -0.5030 -1.7839
  383MOL0     H51685   8.294   0.454   2.737 -0.5833  0.0419 -1.8198
  383MOL0     H51686   8.503   0.531   2.814 -1.3994 -2.5699 -0.8810
  383MOL0     H51687   8.716   0.846   3.093  1.9584 -1.4350  1.2327
  383MOL0     H51688   8.929   0.876   3.182  1.8424 -1.2021  0.0031
  383MOL0     H51689   9.834   0.234   2.415  0.0663  1.2756 -1.6367
  383MOL0     H51690   9.690   0.376   2.278 -1.2833  1.4887 -0.5564
  383MOL0     H51691   9.352   0.598   2.202  5.3730 -0.7139  1.0213
  383MOL0     H51692   9.201   0.728   2.083  0.9159  0.7719  1.2186
  383MOL0     H51693   8.978   1.032   2.055 -0.6757 -1.2443  2.9764
  383MOL0     H51694   9.008   0.873   2.106 -0.8281  0.1989  0.1051
  383MOL0     H51695   9.142   0.845   1.878 -1.2740 -2.7225  0.4419
  383MOL0     H51696   9.057   1.001   1.837  0.1375  0.1133 -0.2771
  383MOL0     H51697   8.830   0.874   1.893  0.0948  1.2326 -1.2127
  383MOL0     H51698   8.918   0.736   1.922  0.7445 -0.6577 -2.2414
  383MOL0     H51699   8.998   0.717   1.687 -0.1280  0.5677 -1.4615
  383MOL0     H51700   8.816   0.713   1.717  0.2958 -0.7719 -0.4146
  383MOL0     H51701   8.904   1.050   1.472  0.3774  0.7164  1.0092
  383MOL0     H51702   9.354   1.089   2.236 -3.4513 -0.3666  2.6442
  383MOL0     H51703   9.535   1.091   2.344 -5.4959 -1.8346 -3.9161
  383MOL0     H51704   9.521   1.002   2.503  0.3194  0.2687  0.2196
  383MOL0     H51705   9.650   0.966   2.386 -0.5082 -0.0223 -1.2520
  384MOL0     O51706   0.859   5.979   7.244 -0.9372  0.5171 -0.4335
  384MOL0     C51707   0.897   5.932   7.357  0.3049 -0.3922 -1.0915
  384MOL0     O51708   1.026   5.951   7.405 -0.3029  0.0419 -0.5984
  384MOL0     C51709   1.119   6.016   7.330 -0.3871  0.0710  0.5426
  384MOL0     C51710   1.221   6.084   7.405  0.6133 -0.2997 -0.9362
  384MOL0     C51711   1.331   6.144   7.345 -0.6914  0.4123 -0.0552
  384MOL0     C51712   1.348   6.152   7.207 -0.4748  0.5948 -0.2450
  384MOL0     O51713   1.458   6.207   7.156  0.0400 -0.4720  0.2694
  384MOL0     C51714   1.560   6.111   7.167  0.5120  0.4892 -0.1267
  384MOL0     C51715   1.673   6.144   7.062  1.0265 -0.3245  0.2140
  384MOL0     C51716   1.750   6.021   7.029 -0.0395  0.2754  0.1367
  384MOL0     C51717   1.865   5.978   7.119 -0.0349  0.8933  0.2997
  384MOL0     C51718   2.012   6.011   7.075  0.1423  0.8242 -0.0246
  384MOL0     C51719   2.072   5.906   6.976  0.5251  0.0968  0.9074
  384MOL0     C51720   2.214   5.950   6.938  0.8280 -0.7240 -0.4658
  384MOL0     C51721   2.258   5.892   6.796 -0.0726  0.0214 -0.1097
  384MOL0     N51722   2.261   5.746   6.793 -0.0007 -0.2902  0.4228
  384MOL0     C51723   2.368   5.666   6.816  0.0790 -0.0004 -0.6145
  384MOL0     C51724   2.310   5.542   6.821  0.4154 -0.2670 -0.1914
  384MOL0     C51725   2.363   5.413   6.887 -0.0189  0.4126  0.4713
  384MOL0     C51726   2.508   5.428   6.900 -0.4710  0.5256  0.1060
  384MOL0     C51727   2.551   5.501   7.030  0.2802 -0.1445  0.6331
  384MOL0     C51728   2.699   5.489   7.031  0.2197 -0.5166 -0.0558
  384MOL0     O51729   2.755   5.588   6.945  0.9197 -0.4537  0.3565
  384MOL0     C51730   2.887   5.607   6.941 -0.8875 -0.4684 -0.8956
  384MOL0     C51731   2.940   5.726   6.884  0.7035 -0.2001  0.1187
  384MOL0     C51732   3.073   5.742   6.847 -0.3411  1.4272 -0.1319
  384MOL0     C51733   3.161   5.634   6.878 -0.3997  0.3629  0.4878
  384MOL0     C51734   3.302   5.649   6.860 -0.4871  0.0712 -0.0889
  384MOL0     O51735   3.343   5.744   6.770 -0.1235 -0.1466 -0.1227
  384MOL0     C51736   3.480   5.759   6.758  0.0657  0.2385 -0.6155
  384MOL0     C51737   3.563   5.841   6.846 -0.1668  0.7231  0.3675
  384MOL0     C51738   3.702   5.853   6.825  0.9973  0.7178 -0.7298
  384MOL0     C51739   3.758   5.786   6.723 -0.2113  0.2762  0.6949
  384MOL0     O51740   3.893   5.811   6.700  0.1996 -0.4145 -0.7606
  384MOL0     C51741   3.916   5.840   6.565  0.3738  0.2260  0.3370
  384MOL0     C51742   4.026   5.929   6.550 -0.3296 -0.4961  0.0709
  384MOL0     C51743   3.991   6.078   6.591 -0.4092 -0.3214  0.2372
  384MOL0     C51744   4.043   6.096   6.734  0.4734 -0.1148 -0.1072
  384MOL0     C51745   3.971   6.210   6.803  0.7847 -0.5949 -0.3207
  384MOL0     C51746   3.989   6.341   6.728  0.5784  0.0623 -0.4710
  384MOL0     C51747   3.918   6.462   6.784  1.0234 -1.1460 -0.4427
  384MOL0     C51748   3.940   6.593   6.705  0.0229 -0.4611  0.4871
  384MOL0    Cl51749   4.111   6.654   6.689 -0.1999  0.3444 -0.5093
  384MOL0     C51750   3.683   5.694   6.645  0.5922  0.1008  0.7701
  384MOL0     C51751   3.546   5.681   6.657 -0.7044  1.0687  0.6505
  384MOL0     O51752   3.376   5.569   6.913  0.4992  0.6075 -0.6038
  384MOL0     C51753   3.118   5.518   6.931  0.3330  1.2131 -0.2823
  384MOL0     C51754   2.986   5.505   6.968 -0.7190  0.2377  0.0156
  384MOL0     N51755   2.176   5.548   6.790  0.4172 -0.5575 -0.3016
  384MOL0     N51756   2.145   5.671   6.767 -0.4599  0.6332 -0.3854
  384MOL0     C51757   1.248   6.089   7.127 -0.5032  0.1670  0.3544
  384MOL0     C51758   1.143   6.017   7.191 -0.1001 -0.3408  0.5261
  384MOL0     C51759   0.812   5.836   7.433  0.1059  0.9290  0.1786
  384MOL0     C51760   0.868   5.788   7.555 -0.6930 -0.4039  0.2805
  384MOL0     C51761   0.811   5.692   7.631  0.0438  0.0934  1.1843
  384MOL0     C51762   0.682   5.643   7.589  0.3416  0.3791  0.3437
  384MOL0     O51763   0.635   5.536   7.667 -0.0659  0.8803 -0.7125
  384MOL0     C51764   0.494   5.497   7.648 -0.9066  0.5960 -0.1500
  384MOL0     C51765   0.453   5.382   7.735  0.8813  0.4880 -0.1296
  384MOL0     C51766   0.484   5.238   7.688  0.2718 -0.2764 -0.1864
  384MOL0     C51767   0.635   5.208   7.712  0.2811  0.7444 -0.4176
  384MOL0     C51768   0.699   5.149   7.590  0.5873 -0.4689 -0.7099
  384MOL0     C51769   0.751   5.081   7.512 -0.8220 -0.0496 -0.1308
  384MOL0     C51770   0.627   5.692   7.473  0.3502  0.4404 -0.0766
  384MOL0     C51771   0.688   5.784   7.383  0.5503 -0.1899 -0.0826
  384MOL0     C51772   0.611   5.838   7.264  0.2497  0.5378 -0.1326
  384MOL0     H51773   1.221   6.090   7.513  0.1448 -1.4500 -0.8538
  384MOL0     H51774   1.407   6.188   7.408  0.6245 -0.6686 -0.8378
  384MOL0     H51775   1.603   6.099   7.266 -0.0379 -2.2491 -0.1378
  384MOL0     H51776   1.520   6.010   7.152  0.7904  0.5457 -1.3457
  384MOL0     H51777   1.734   6.223   7.107 -1.9690  0.1408  4.1118
  384MOL0     H51778   1.629   6.185   6.971  1.3726  2.3749  1.1542
  384MOL0     H51779   1.786   6.028   6.926 -0.9035 -1.8315 -0.3694
  384MOL0     H51780   1.678   5.938   7.031 -1.1511  1.2327  1.7565
  384MOL0     H51781   1.853   6.038   7.209  0.1561 -0.7464  1.4696
  384MOL0     H51782   1.851   5.873   7.147  3.2517  0.3205  0.1144
  384MOL0     H51783   2.005   6.110   7.030 -2.8595  0.5362 -0.4376
  384MOL0     H51784   2.082   6.005   7.158 -0.2505  2.1937  0.4295
  384MOL0     H51785   2.066   5.813   7.033 -0.7074 -1.1786 -1.1477
  384MOL0     H51786   2.012   5.906   6.884  1.0595 -1.1528  0.5371
  384MOL0     H51787   2.284   5.934   7.020  2.0936 -0.6986 -1.5052
  384MOL0     H51788   2.212   6.059   6.928  0.2007 -0.4676  1.9073
  384MOL0     H51789   2.194   5.924   6.713 -2.0832 -0.7304  1.0603
  384MOL0     H51790   2.357   5.931   6.769 -1.3401  4.0223  0.3412
  384MOL0     H51791   2.463   5.706   6.852 -0.3902  0.4733  0.1234
  384MOL0     H51792   2.302   5.385   6.973  2.1502 -0.3009  1.8588
  384MOL0     H51793   2.357   5.330   6.817  2.9784  1.4431 -1.2056
  384MOL0     H51794   2.559   5.331   6.898  0.7711  1.1680  0.1901
  384MOL0     H51795   2.550   5.488   6.819  1.1785  2.5666  2.3379
  384MOL0     H51796   2.497   5.442   7.106 -0.1916  1.8035  1.8915
  384MOL0     H51797   2.523   5.606   7.020  0.6082 -0.1856 -0.9615
  384MOL0     H51798   2.727   5.386   7.006  0.7957  0.0503 -1.9293
  384MOL0     H51799   2.725   5.517   7.133  0.2576 -0.7267 -0.0088
  384MOL0     H51800   2.877   5.808   6.849  0.2461 -0.7389 -0.3362
  384MOL0     H51801   3.108   5.838   6.810 -0.9749  1.9313  0.5544
  384MOL0     H51802   3.525   5.888   6.937 -1.2502 -1.1240  0.9228
  384MOL0     H51803   3.757   5.913   6.896  0.5618  1.3962 -0.9578
  384MOL0     H51804   3.930   5.751   6.504  1.0127  1.7220 -1.8098
  384MOL0     H51805   3.841   5.891   6.505  1.8705  2.8741  0.5194
  384MOL0     H51806   4.113   5.884   6.600  1.1488 -0.5436 -2.3494
  384MOL0     H51807   4.059   5.931   6.446  2.0835  1.3569  0.7566
  384MOL0     H51808   4.037   6.155   6.529 -0.6485 -2.0604 -2.2672
  384MOL0     H51809   3.883   6.088   6.589 -0.4200 -0.4651 -0.0375
  384MOL0     H51810   4.149   6.120   6.732 -0.1314  3.0893  0.6117
  384MOL0     H51811   4.014   6.008   6.792 -1.6657 -0.0054 -0.9255
  384MOL0     H51812   4.003   6.219   6.908 -1.2594  0.4313  0.2769
  384MOL0     H51813   3.867   6.179   6.819  1.9310 -4.7094  0.4237
  384MOL0     H51814   4.095   6.368   6.718  0.2723  2.5697  1.8278
  384MOL0     H51815   3.951   6.326   6.626 -1.1643 -0.9002  0.2708
  384MOL0     H51816   3.949   6.483   6.887 -1.9507 -0.1245  0.3338
  384MOL0     H51817   3.810   6.447   6.786  0.5951  1.4918 -0.1302
  384MOL0     H51818   3.903   6.567   6.605 -2.8220 -1.4136  1.6986
  384MOL0     H51819   3.870   6.669   6.742 -2.1503 -1.8681 -0.5048
  384MOL0     H51820   3.722   5.641   6.558 -2.5686  0.1109 -0.7695
  384MOL0     H51821   3.498   5.621   6.581  2.6711 -0.0160 -0.8365
  384MOL0     H51822   3.187   5.435   6.947 -0.2697  0.5366 -1.1219
  384MOL0     H51823   2.963   5.406   7.006  1.7836 -0.2756  0.3410
  384MOL0     H51824   1.278   6.099   7.024 -0.6108 -0.4782  0.2573
  384MOL0     H51825   1.072   5.963   7.130  1.0041 -1.1125 -0.1103
  384MOL0     H51826   0.966   5.824   7.583 -0.1861  1.2234 -3.0732
  384MOL0     H51827   0.862   5.641   7.712 -2.5815 -2.0819  1.6016
  384MOL0     H51828   0.462   5.466   7.548 -2.6106 -0.4861  0.6767
  384MOL0     H51829   0.436   5.587   7.674 -0.4396  0.1272  2.7362
  384MOL0     H51830   0.344   5.376   7.746  0.9831 -0.0048  0.7268
  384MOL0     H51831   0.502   5.408   7.829  1.9505  0.0576 -0.5539
  384MOL0     H51832   0.457   5.228   7.582  1.8317 -0.6237 -0.5828
  384MOL0     H51833   0.427   5.175   7.756  0.7763 -2.1992 -1.4577
  384MOL0     H51834   0.684   5.295   7.756  2.0031 -1.6173  2.6802
  384MOL0     H51835   0.633   5.124   7.781 -1.3125  2.1875  1.3994
  384MOL0     H51836   0.800   5.021   7.438 -0.2070  0.0153  0.2248
  384MOL0     H51837   0.529   5.664   7.435  0.6925  0.1202 -0.7492
  384MOL0     H51838   0.567   5.934   7.292 -1.8993 -0.0270 -1.3220
  384MOL0     H51839   0.672   5.845   7.173  0.1671  2.4866 -0.0920
  384MOL0     H51840   0.532   5.769   7.234 -0.1136  1.2491 -0.8851
  385MOL0     O51841   0.334   0.198   9.734 -0.2016 -0.1337  0.6294
  385MOL0     C51842   0.331   0.274   9.634  0.0403 -0.4750 -0.4023
  385MOL0     O51843   0.428   0.282   9.537  0.3337  0.3593 -0.0990
  385MOL0     C51844   0.557   0.229   9.558  0.9218 -1.0595  0.0464
  385MOL0     C51845   0.620   0.161   9.458 -0.0012 -0.7401 -0.1051
  385MOL0     C51846   0.744   0.104   9.472  0.3348 -0.4928 -0.4246
  385MOL0     C51847   0.808   0.115   9.599 -0.7260  0.0278 -1.0380
  385MOL0     O51848   0.918   0.035   9.617 -0.4322 -0.0397 -0.5146
  385MOL0     C51849   0.962  -0.007   9.752 -0.8786  0.0396 -0.2418
  385MOL0     C51850   1.062   0.098   9.804 -0.4322 -0.5974 -0.3446
  385MOL0     C51851   1.203   0.096   9.756 -0.7225  0.4010  0.5197
  385MOL0     C51852   1.297   0.172   9.839 -0.3034 -0.0599 -0.3795
  385MOL0     C51853   1.431   0.106   9.837  0.0495  0.0819 -0.6334
  385MOL0     C51854   1.541   0.193   9.912  0.6518  1.0780  0.3419
  385MOL0     C51855   1.504   0.195  10.059  0.6967  1.0046 -0.2491
  385MOL0     C51856   1.590   0.291  10.145  0.1303 -0.1964  0.3005
  385MOL0     N51857   1.544   0.292  10.287  0.2271 -0.6227  0.2146
  385MOL0     C51858   1.601   0.226  10.387  0.3321 -0.3736  1.3748
  385MOL0     C51859   1.561   0.278  10.505 -0.3582 -0.2202 -0.2470
  385MOL0     C51860   1.597   0.220  10.636  0.3951 -0.1856 -0.8153
  385MOL0     C51861   1.734   0.281  10.682  0.0609 -0.3482 -0.0723
  385MOL0     C51862   1.726   0.429  10.719  0.5398  0.4352 -0.0466
  385MOL0     C51863   1.854   0.491  10.770 -0.7460 -0.6824  0.1009
  385MOL0     O51864   1.954   0.467  10.667  0.3799 -0.0013 -0.2285
  385MOL0     C51865   2.056   0.377  10.681  0.6370  0.2265 -0.7520
  385MOL0     C51866   2.134   0.372  10.567  0.0489  1.1756  0.0851
  385MOL0     C51867   2.236   0.273  10.562  0.4883  0.1954  1.0466
  385MOL0     C51868   2.274   0.187  10.670 -0.0803 -0.3394  0.1748
  385MOL0     C51869   2.397   0.099  10.670 -0.4155 -1.2451  0.1646
  385MOL0     O51870   2.410   0.006  10.772  0.2821 -0.2837 -0.4971
  385MOL0     C51871   2.520  -0.085  10.776 -0.5365 -0.4344 -0.6918
  385MOL0     C51872   2.556  -0.118  10.913 -1.0447  0.2416 -0.2564
  385MOL0     C51873   2.651  -0.224  10.932 -0.1589  0.3580  0.0020
  385MOL0     C51874   2.716  -0.290  10.824 -0.1717  0.2159  0.6860
  385MOL0     O51875   2.808  -0.391  10.845  0.1711  0.3765 -0.3549
  385MOL0     C51876   2.839  -0.428  10.980 -0.1885 -0.5719 -0.0532
  385MOL0     C51877   2.929  -0.545  10.958 -0.6829 -0.0629 -0.8985
  385MOL0     C51878   2.988  -0.621  11.086  0.3572  0.6241  0.5579
  385MOL0     C51879   3.045  -0.754  11.033 -0.3984 -1.0530 -0.0160
  385MOL0     C51880   3.125  -0.826  11.146  0.1021 -0.0212 -0.4525
  385MOL0     C51881   3.193  -0.953  11.102  0.6274  0.6015  0.8382
  385MOL0     C51882   3.288  -1.005  11.221  0.7789 -0.7532  0.0007
  385MOL0     C51883   3.352  -1.137  11.179  0.5263 -0.1074 -0.6213
  385MOL0    Cl51884   3.507  -1.141  11.271 -0.0392 -0.5431 -0.5030
  385MOL0     C51885   2.685  -0.244  10.691 -0.7527  0.7061  0.6463
  385MOL0     C51886   2.585  -0.147  10.669  0.3695  0.1781  0.7172
  385MOL0     O51887   2.479   0.120  10.574 -0.1423 -0.0862 -0.2416
  385MOL0     C51888   2.191   0.199  10.784  0.0861  0.5679  0.0378
  385MOL0     C51889   2.086   0.289  10.792  0.6366 -0.2203 -0.1890
  385MOL0     N51890   1.477   0.379  10.484  0.1820  0.3056  0.9925
  385MOL0     N51891   1.474   0.393  10.349  0.0135  0.4447  0.0984
  385MOL0     C51892   0.760   0.211   9.683  0.1596  0.1513 -0.8294
  385MOL0     C51893   0.625   0.255   9.674 -0.0323  0.2328 -0.3401
  385MOL0     C51894   0.228   0.384   9.638 -0.3010  0.5163  0.0457
  385MOL0     C51895   0.250   0.509   9.576 -0.2624 -0.2141  0.0728
  385MOL0     C51896   0.159   0.614   9.594 -0.6209 -0.5245 -0.0697
  385MOL0     C51897   0.049   0.597   9.672  0.2949  0.0039  0.0287
  385MOL0     O51898  -0.029   0.707   9.693  0.0303  0.4763 -0.0118
  385MOL0     C51899  -0.170   0.698   9.667 -0.0042  0.4534 -0.2431
  385MOL0     C51900  -0.240   0.838   9.666 -1.5050  0.4818 -0.4923
  385MOL0     C51901  -0.217   0.928   9.785 -0.6549  0.8882  0.0574
  385MOL0     C51902  -0.239   1.076   9.757 -0.2054 -1.3365  0.3188
  385MOL0     C51903  -0.378   1.090   9.703 -0.4267 -0.2959  0.1445
  385MOL0     C51904  -0.492   1.069   9.667  0.9313  0.3925  0.3710
  385MOL0     C51905   0.019   0.467   9.722 -0.0293 -0.7479  0.3035
  385MOL0     C51906   0.113   0.365   9.709 -0.3801  0.8350  0.5256
  385MOL0     C51907   0.067   0.234   9.770  0.7916 -0.8366  0.3889
  385MOL0     H51908   0.560   0.143   9.369  0.0973 -4.0348  0.3513
  385MOL0     H51909   0.780   0.040   9.393 -1.3952 -2.6922  0.4728
  385MOL0     H51910   0.869   0.001   9.808 -1.6165 -0.5936 -1.3293
  385MOL0     H51911   1.004  -0.108   9.741 -2.5288 -0.6824 -0.2185
  385MOL0     H51912   1.062   0.077   9.911 -0.7262  0.4632 -0.1334
  385MOL0     H51913   1.015   0.196   9.797 -0.6140 -0.6976 -0.5409
  385MOL0     H51914   1.211   0.130   9.652  0.1500 -1.3307 -0.0194
  385MOL0     H51915   1.238  -0.007   9.758  5.8940  2.1803  0.6015
  385MOL0     H51916   1.308   0.273   9.799 -0.6777  0.1915  0.1324
  385MOL0     H51917   1.261   0.188   9.941  0.6496 -3.7597  0.6829
  385MOL0     H51918   1.424   0.007   9.884 -2.0756  1.3905  2.1693
  385MOL0     H51919   1.468   0.082   9.737  1.0554 -0.4703 -0.1402
  385MOL0     H51920   1.640   0.148   9.905 -0.6858 -1.8602 -4.2609
  385MOL0     H51921   1.534   0.288   9.858  1.6950 -0.3301 -2.4417
  385MOL0     H51922   1.501   0.090  10.091 -2.4832  0.2909 -2.4254
  385MOL0     H51923   1.405   0.238  10.074  0.2206  1.2446 -3.5082
  385MOL0     H51924   1.689   0.246  10.143 -0.5129 -1.6440 -1.1390
  385MOL0     H51925   1.593   0.391  10.101 -0.2009  0.0916  0.9065
  385MOL0     H51926   1.673   0.145  10.373  0.9929  0.0217  2.3856
  385MOL0     H51927   1.527   0.242  10.717 -0.2058 -0.7210 -1.1826
  385MOL0     H51928   1.607   0.111  10.626 -1.2190 -0.4348 -0.0600
  385MOL0     H51929   1.764   0.226  10.771  3.1685  0.5781 -0.4089
  385MOL0     H51930   1.805   0.274  10.599  0.3431 -1.6204  0.2577
  385MOL0     H51931   1.657   0.431  10.804  1.1167  0.9214  0.4208
  385MOL0     H51932   1.681   0.484  10.636  3.1012  2.4685 -0.1967
  385MOL0     H51933   1.880   0.446  10.866 -1.3887  0.2122  0.7063
  385MOL0     H51934   1.832   0.598  10.777  1.9026 -0.0389 -0.4495
  385MOL0     H51935   2.097   0.427  10.481  1.6236  1.1570 -0.6348
  385MOL0     H51936   2.287   0.271  10.466  1.1374  1.6357  1.3317
  385MOL0     H51937   2.504  -0.061  10.989 -0.3000  0.8910 -0.2144
  385MOL0     H51938   2.684  -0.247  11.033 -0.6937 -2.2538 -0.3413
  385MOL0     H51939   2.892  -0.349  11.035 -0.9308 -1.0441  1.4013
  385MOL0     H51940   2.747  -0.459  11.031  0.8884 -3.4966  0.2863
  385MOL0     H51941   2.869  -0.621  10.908  2.1883 -2.6791 -0.7043
  385MOL0     H51942   3.012  -0.515  10.893  0.0904  1.9394  0.8881
  385MOL0     H51943   3.064  -0.559  11.135  0.6449  1.1968 -0.5609
  385MOL0     H51944   2.910  -0.627  11.162  0.0247 -0.5846  0.1442
  385MOL0     H51945   3.117  -0.742  10.952 -1.3388  1.5023 -0.5760
  385MOL0     H51946   2.957  -0.812  11.004 -1.0708  0.6280 -1.5374
  385MOL0     H51947   3.055  -0.851  11.227 -0.9401 -1.1928 -1.6561
  385MOL0     H51948   3.194  -0.757  11.193 -1.5008  0.3592  1.5013
  385MOL0     H51949   3.122  -1.030  11.071  0.0331  2.4139 -2.7805
  385MOL0     H51950   3.251  -0.930  11.013 -2.3047 -0.2858 -1.4709
  385MOL0     H51951   3.216  -1.021  11.302 -0.2306  1.7418 -0.3096
  385MOL0     H51952   3.355  -0.922  11.244 -1.9530  2.6502 -3.0579
  385MOL0     H51953   3.289  -1.217  11.219 -0.9662  0.4401 -1.7861
  385MOL0     H51954   3.360  -1.150  11.071 -0.5870  0.5467 -0.8045
  385MOL0     H51955   2.743  -0.297  10.615  0.2605  0.8586  1.2869
  385MOL0     H51956   2.537  -0.122  10.575 -0.3836  0.5187  1.1805
  385MOL0     H51957   2.197   0.131  10.869  0.6971  0.8731  0.2405
  385MOL0     H51958   2.018   0.289  10.877 -0.4930 -1.1432 -1.0529
  385MOL0     H51959   0.822   0.227   9.771  0.9229  0.6272 -1.4402
  385MOL0     H51960   0.579   0.311   9.754  0.9049 -0.2619  0.5793
  385MOL0     H51961   0.334   0.530   9.510 -1.4303 -1.5994 -1.9791
  385MOL0     H51962   0.174   0.714   9.555  1.6563 -0.4896  0.7502
  385MOL0     H51963  -0.220   0.649   9.751 -1.2593 -1.1460 -1.8531
  385MOL0     H51964  -0.185   0.645   9.573  4.3797  1.6661 -1.8706
  385MOL0     H51965  -0.348   0.825   9.652 -1.6400 -0.4206  1.1734
  385MOL0     H51966  -0.209   0.894   9.578 -3.8075  0.6983 -1.2431
  385MOL0     H51967  -0.112   0.917   9.815 -1.3704  1.0390  2.9199
  385MOL0     H51968  -0.274   0.906   9.876  0.9854 -0.4823  0.8246
  385MOL0     H51969  -0.225   1.143   9.842 -2.4832 -0.1510 -0.1415
  385MOL0     H51970  -0.172   1.108   9.676  1.0765  1.1163  2.1996
  385MOL0     H51971  -0.583   1.066   9.612  2.5932 -0.3940 -2.5775
  385MOL0     H51972  -0.070   0.445   9.781 -0.9443 -1.3202 -1.2247
  385MOL0     H51973   0.116   0.231   9.868  1.1263  2.2042  0.3985
  385MOL0     H51974  -0.041   0.224   9.789  1.0872 -0.5073  2.4274
  385MOL0     H51975   0.105   0.147   9.715  0.0552 -0.0317 -1.4898
  386MOL0     O51976   8.678   9.830   8.299 -0.4179  0.8000  0.1150
  386MOL0     C51977   8.778   9.786   8.354 -0.0397  0.2209  0.2376
  386MOL0     O51978   8.911   9.801   8.309  0.0674  0.0795  0.9904
  386MOL0     C51979   8.932   9.888   8.198 -0.1303  0.6543 -0.4280
  386MOL0     C51980   8.997  10.012   8.228 -0.2872 -0.8576  0.3062
  386MOL0     C51981   9.028  10.099   8.131 -0.1184  0.0209 -0.1491
  386MOL0     C51982   8.990  10.074   7.997 -0.1002  0.2473 -0.6423
  386MOL0     O51983   9.024  10.152   7.889 -0.2737 -0.1467 -0.2097
  386MOL0     C51984   9.094  10.272   7.924  0.0558  0.4326 -0.0938
  386MOL0     C51985   9.140  10.346   7.794 -0.0126 -0.3759 -0.4169
  386MOL0     C51986   9.265  10.283   7.732 -0.7016 -1.1980  0.1230
  386MOL0     C51987   9.281  10.325   7.582 -0.9255 -0.1618  0.2794
  386MOL0     C51988   9.417  10.272   7.524  0.2480  0.1653 -0.4921
  386MOL0     C51989   9.440  10.307   7.379  0.9051  0.3227 -0.9638
  386MOL0     C51990   9.587  10.297   7.326 -0.2068  0.4126  0.4278
  386MOL0     C51991   9.565  10.303   7.173 -0.1682 -0.1131 -0.3556
  386MOL0     N51992   9.697  10.289   7.102 -0.0431 -0.2536 -0.1633
  386MOL0     C51993   9.812  10.354   7.135 -0.8311 -0.2430  0.9714
  386MOL0     C51994   9.899  10.328   7.035 -0.4552  0.5787 -0.8059
  386MOL0     C51995  10.037  10.394   7.046 -0.0088  0.4853 -0.1548
  386MOL0     C51996  10.103  10.381   6.910 -0.3724 -0.2703  0.7874
  386MOL0     C51997  10.159  10.242   6.872 -0.0182 -0.0974  0.2440
  386MOL0     C51998  10.320  10.236   6.901 -0.4775 -0.4393  0.3379
  386MOL0     O51999  10.389  10.307   6.795  0.4033 -0.2267  0.3389
  386MOL0     C52000  10.523  10.299   6.788  0.6039 -0.5681 -0.2058
  386MOL0     C52001  10.603  10.256   6.890  0.8837  0.4548  0.4949
  386MOL0     C52002  10.737  10.267   6.873 -0.5682  0.1901  0.5497
  386MOL0     C52003  10.797  10.327   6.761  0.2654  0.0608 -0.2238
  386MOL0     C52004  10.943  10.331   6.751  0.6187  0.0294 -0.8255
  386MOL0     O52005  11.005  10.282   6.858  0.2766  0.1465 -0.0421
  386MOL0     C52006  11.135  10.235   6.858 -0.8068 -0.1477 -0.6334
  386MOL0     C52007  11.229  10.223   6.747  0.0219 -0.3419  0.1950
  386MOL0     C52008  11.359  10.179   6.763  0.0063  1.4484  0.3105
  386MOL0     C52009  11.399  10.149   6.889 -0.4731  0.7573  0.2239
  386MOL0     O52010  11.517  10.086   6.904  0.0708 -0.5748 -0.1441
  386MOL0     C52011  11.627  10.162   6.958  0.3604  0.9025 -0.7967
  386MOL0     C52012  11.751  10.061   6.985 -0.5100 -0.8940  0.2772
  386MOL0     C52013  11.866  10.129   7.055 -0.6630 -0.4802 -1.0066
  386MOL0     C52014  11.995  10.043   7.075 -0.4273  0.9057  0.2324
  386MOL0     C52015  11.993   9.946   7.191 -0.9975  0.7668 -0.3672
  386MOL0     C52016  11.997  10.019   7.333 -0.0957 -0.3810  0.2304
  386MOL0     C52017  11.964   9.915   7.450 -0.1715  0.0393  1.5165
  386MOL0     C52018  12.019   9.959   7.584  1.1279 -0.3003  0.4763
  386MOL0    Cl52019  11.979  10.122   7.623 -0.1280  0.1771 -0.1191
  386MOL0     C52020  11.317  10.159   7.004  0.7174 -0.1414  0.0674
  386MOL0     C52021  11.187  10.200   6.989 -0.3510 -0.2372  0.8183
  386MOL0     O52022  10.999  10.379   6.658  0.5040 -0.4758  0.1112
  386MOL0     C52023  10.714  10.371   6.660 -0.3514 -0.7506 -0.5724
  386MOL0     C52024  10.584  10.373   6.684  0.2460  0.6610 -0.3689
  386MOL0     N52025   9.838  10.237   6.945  0.8196  0.0315 -0.1318
  386MOL0     N52026   9.715  10.225   6.987  0.4402  0.3442  0.4688
  386MOL0     C52027   8.937   9.950   7.966  0.2566 -0.0743 -0.2474
  386MOL0     C52028   8.910   9.862   8.068  0.5909  0.1793 -0.0815
  386MOL0     C52029   8.767   9.674   8.451 -1.1576  0.1950 -0.1208
  386MOL0     C52030   8.880   9.591   8.471  0.0941 -0.4436  0.2956
  386MOL0     C52031   8.866   9.472   8.534  0.3783  0.4153  0.6167
  386MOL0     C52032   8.738   9.428   8.584  0.0145 -0.3197  0.3523
  386MOL0     O52033   8.719   9.316   8.658 -0.2607 -0.2354 -0.1554
  386MOL0     C52034   8.824   9.216   8.643 -0.5137 -0.2267  0.1171
  386MOL0     C52035   8.770   9.072   8.670  0.1692 -0.5597 -0.5721
  386MOL0     C52036   8.659   9.040   8.573 -0.0623 -0.0491 -0.3885
  386MOL0     C52037   8.708   9.036   8.429 -0.3428  0.4038  0.1699
  386MOL0     C52038   8.607   8.990   8.331 -0.4397 -0.0275  0.0448
  386MOL0     C52039   8.529   8.942   8.254  0.1321  0.5636  1.1310
  386MOL0     C52040   8.628   9.517   8.574  0.5226  0.1651 -0.6763
  386MOL0     C52041   8.637   9.640   8.513 -0.3588 -0.2127  0.1209
  386MOL0     C52042   8.526   9.743   8.523 -0.1818  0.2511 -0.7703
  386MOL0     H52043   9.010  10.027   8.335  0.4268  0.6228  0.0262
  386MOL0     H52044   9.062  10.197   8.164 -1.4030  0.6155 -0.5042
  386MOL0     H52045   9.029  10.328   7.991  2.6507  0.2900  2.7626
  386MOL0     H52046   9.181  10.240   7.982  0.8417  0.3370 -1.2763
  386MOL0     H52047   9.159  10.452   7.813  0.8210 -1.0423  3.0312
  386MOL0     H52048   9.060  10.347   7.720  1.7158  2.8548 -2.5180
  386MOL0     H52049   9.268  10.173   7.737  1.5113 -1.1293  1.7682
  386MOL0     H52050   9.350  10.325   7.785 -1.3198 -0.3670  0.4849
  386MOL0     H52051   9.201  10.277   7.525 -1.2559 -0.1098  0.6967
  386MOL0     H52052   9.271  10.431   7.560 -0.4373 -0.5472 -2.0061
  386MOL0     H52053   9.501  10.314   7.579 -1.4270  0.5270  1.9475
  386MOL0     H52054   9.419  10.163   7.530 -1.6987  0.1003 -0.2470
  386MOL0     H52055   9.375  10.241   7.320  0.7842  0.4871 -1.0129
  386MOL0     H52056   9.415  10.412   7.363  1.5333  0.9037  1.4844
  386MOL0     H52057   9.623  10.197   7.351  0.0929  0.7223  1.2858
  386MOL0     H52058   9.648  10.374   7.373 -1.2869  1.1628  0.6545
  386MOL0     H52059   9.492  10.232   7.134  0.8983 -0.9557 -0.8631
  386MOL0     H52060   9.520  10.400   7.150  1.5453  1.4214  2.2173
  386MOL0     H52061   9.836  10.426   7.212 -2.4996  3.3675 -1.6213
  386MOL0     H52062  10.020  10.500   7.068 -0.6123  0.3539  0.0320
  386MOL0     H52063  10.093  10.351   7.129  0.7113  3.7189  1.1927
  386MOL0     H52064  10.017  10.393   6.843 -0.1217  0.6407  0.6248
  386MOL0     H52065  10.174  10.462   6.892 -0.2388 -0.4283  0.6006
  386MOL0     H52066  10.129  10.206   6.773  0.5525 -3.0495  1.0399
  386MOL0     H52067  10.109  10.171   6.938 -0.1440  1.3457  1.7650
  386MOL0     H52068  10.357  10.133   6.895 -1.2075 -0.6625 -0.7631
  386MOL0     H52069  10.344  10.276   7.000 -1.8008  2.6385 -0.4661
  386MOL0     H52070  10.572  10.215   6.986  2.4614 -1.8004  0.1381
  386MOL0     H52071  10.804  10.233   6.951 -0.4558  1.9927  1.2829
  386MOL0     H52072  11.198  10.255   6.649 -2.5865  1.3242  1.4522
  386MOL0     H52073  11.411  10.154   6.671  3.7985 -2.3693  3.1309
  386MOL0     H52074  11.667  10.245   6.898  1.3026  0.5019 -0.7516
  386MOL0     H52075  11.589  10.199   7.053 -2.8019  0.4321 -1.7606
  386MOL0     H52076  11.718   9.983   7.054  1.5426 -1.1633  1.0182
  386MOL0     H52077  11.793  10.022   6.892  1.3529  1.4812  0.0178
  386MOL0     H52078  11.896  10.216   6.995  3.0485 -0.1062  1.1062
  386MOL0     H52079  11.837  10.180   7.147  0.0418 -2.0133  0.1049
  386MOL0     H52080  12.081  10.111   7.081  0.8225 -0.3711 -1.9340
  386MOL0     H52081  12.001   9.988   6.981 -2.4650 -0.7413  1.0018
  386MOL0     H52082  12.085   9.887   7.188 -1.0458  0.6218  0.6395
  386MOL0     H52083  11.905   9.881   7.196  0.8709 -1.7500  2.6948
  386MOL0     H52084  12.096  10.064   7.350  0.5905 -1.4366 -0.8256
  386MOL0     H52085  11.929  10.104   7.336  1.9376  1.2995  1.3749
  386MOL0     H52086  11.992   9.814   7.420 -1.3929 -0.0098  0.4482
  386MOL0     H52087  11.856   9.903   7.465 -0.1306 -1.0682  1.0103
  386MOL0     H52088  11.985   9.889   7.660 -1.1391 -0.3966 -0.5296
  386MOL0     H52089  12.127   9.944   7.572  0.7715 -1.3086 -2.2067
  386MOL0     H52090  11.351  10.147   7.107  0.5512  1.7225  0.3730
  386MOL0     H52091  11.139  10.199   7.086  1.3555  2.5418  1.8230
  386MOL0     H52092  10.762  10.412   6.572 -1.7427  1.2739 -0.4354
  386MOL0     H52093  10.510  10.414   6.616  0.0817 -0.9827 -1.2358
  386MOL0     H52094   8.919   9.929   7.861 -1.7133 -2.3666  0.4776
  386MOL0     H52095   8.863   9.766   8.052 -0.5404  0.4660  1.2978
  386MOL0     H52096   8.975   9.621   8.429 -0.1143 -1.4832 -1.0161
  386MOL0     H52097   8.960   9.421   8.548  0.6912  0.9268  0.4210
  386MOL0     H52098   8.898   9.244   8.719  0.2711 -0.0343 -0.6927
  386MOL0     H52099   8.882   9.218   8.550  0.4550  1.0433  0.7111
  386MOL0     H52100   8.723   9.071   8.769 -1.8876 -0.0960 -1.4881
  386MOL0     H52101   8.849   8.997   8.681  0.2963 -0.4113 -0.4572
  386MOL0     H52102   8.578   9.113   8.574  0.0823  0.4455 -5.0088
  386MOL0     H52103   8.622   8.947   8.617  1.5390  0.0178  1.2453
  386MOL0     H52104   8.731   9.139   8.401  0.2566  0.2487  0.0758
  386MOL0     H52105   8.795   8.970   8.419 -1.0474 -0.2410 -2.4183
  386MOL0     H52106   8.463   8.890   8.188  0.0565  0.8061  1.0173
  386MOL0     H52107   8.538   9.485   8.624 -0.7001  2.6670 -1.0933
  386MOL0     H52108   8.464   9.727   8.611  0.6985 -0.7457 -0.3131
  386MOL0     H52109   8.556   9.848   8.516 -6.0331  2.4001  0.5997
  386MOL0     H52110   8.451   9.736   8.443 -1.7442 -0.4477  0.6993
  387MOL0     O52111   7.836   1.083   9.543 -0.0123 -0.1263  0.3520
  387MOL0     C52112   7.783   0.979   9.513 -0.1397  0.1347  0.2108
  387MOL0     O52113   7.838   0.848   9.496 -0.2751 -0.6968 -0.0722
  387MOL0     C52114   7.970   0.830   9.499  0.3933 -0.5884  0.1928
  387MOL0     C52115   8.059   0.884   9.584  0.1332 -0.0112  0.3786
  387MOL0     C52116   8.202   0.855   9.578  0.9088  0.6123 -0.4407
  387MOL0     C52117   8.243   0.764   9.483  0.1769 -0.5211  1.1798
  387MOL0     O52118   8.374   0.725   9.487 -0.0610  0.5509 -0.2210
  387MOL0     C52119   8.440   0.744   9.362 -0.0629 -0.8910 -0.0946
  387MOL0     C52120   8.591   0.744   9.387  0.3359 -0.1948 -0.0746
  387MOL0     C52121   8.647   0.866   9.451  0.5404 -0.4674 -0.7992
  387MOL0     C52122   8.742   0.808   9.557 -0.2321  0.0536  0.3404
  387MOL0     C52123   8.848   0.907   9.600 -0.0411  0.1786 -0.8546
  387MOL0     C52124   8.804   1.041   9.629  0.1610 -0.0798  0.6437
  387MOL0     C52125   8.898   1.150   9.666 -0.1714  0.5472 -0.5074
  387MOL0     C52126   8.996   1.097   9.776  0.6888  0.4658  0.3859
  387MOL0     N52127   9.081   1.207   9.813 -0.0723  0.3013  0.0913
  387MOL0     C52128   9.185   1.264   9.738  1.0184 -0.5159  0.0980
  387MOL0     C52129   9.230   1.365   9.814  0.0289 -0.2094 -0.6818
  387MOL0     C52130   9.333   1.458   9.763  0.7369 -0.9564  0.4172
  387MOL0     C52131   9.470   1.399   9.786  0.3611 -0.7258 -0.1853
  387MOL0     C52132   9.576   1.501   9.739 -0.7671 -0.2579  0.0811
  387MOL0     C52133   9.728   1.465   9.738 -0.4195 -0.1238  0.6202
  387MOL0     O52134   9.805   1.569   9.674 -0.3267 -0.4644 -0.1278
  387MOL0     C52135   9.938   1.562   9.663 -0.1750  0.3556  0.4038
  387MOL0     C52136  10.025   1.470   9.721  0.0189  0.5900 -0.1833
  387MOL0     C52137  10.157   1.463   9.682  0.0083  0.4530  0.0940
  387MOL0     C52138  10.215   1.549   9.593 -0.1905 -0.9239 -0.2898
  387MOL0     C52139  10.358   1.533   9.564  0.1680 -0.2728  0.1840
  387MOL0     O52140  10.428   1.421   9.606 -0.0273 -0.3704 -0.0354
  387MOL0     C52141  10.555   1.402   9.558  0.3621  0.6641  0.5092
  387MOL0     C52142  10.672   1.470   9.608  0.9525  1.5693  0.4464
  387MOL0     C52143  10.799   1.455   9.551  0.3755 -0.4439  0.2904
  387MOL0     C52144  10.823   1.351   9.458 -0.0752  0.2094 -0.0297
  387MOL0     O52145  10.934   1.310   9.391 -0.1392  0.0933  0.0976
  387MOL0     C52146  11.060   1.350   9.454  1.1090 -0.2820  0.2293
  387MOL0     C52147  11.173   1.254   9.428  0.3112  0.2960 -0.0899
  387MOL0     C52148  11.304   1.310   9.495  0.0431  0.4864 -0.1815
  387MOL0     C52149  11.426   1.227   9.447  1.0990 -0.2861  0.1175
  387MOL0     C52150  11.554   1.249   9.527 -0.8208  0.1490  0.5657
  387MOL0     C52151  11.552   1.207   9.678  0.6818 -0.3026 -0.0203
  387MOL0     C52152  11.517   1.056   9.699 -0.2573 -0.1345 -0.1949
  387MOL0     C52153  11.549   1.021   9.850  0.4518  0.2300  0.2636
  387MOL0    Cl52154  11.457   1.128   9.960  0.3979  0.3230 -0.2398
  387MOL0     C52155  10.706   1.272   9.422  0.4801  0.4420  0.1316
  387MOL0     C52156  10.576   1.296   9.471 -0.5529 -0.9359  0.9068
  387MOL0     O52157  10.412   1.625   9.509  0.5814  0.0164 -0.1507
  387MOL0     C52158  10.136   1.659   9.547 -0.7712 -0.1366 -1.1017
  387MOL0     C52159   9.992   1.664   9.579 -0.0817 -0.4511  0.8565
  387MOL0     N52160   9.140   1.372   9.926  0.5931  0.1726  0.3186
  387MOL0     N52161   9.051   1.280   9.920  0.6997  0.2337 -0.7921
  387MOL0     C52162   8.151   0.703   9.401  0.1916 -0.6737  0.3922
  387MOL0     C52163   8.016   0.738   9.407  1.4480 -0.0583 -0.0110
  387MOL0     C52164   7.629   0.985   9.495 -0.6550 -0.0548 -0.0982
  387MOL0     C52165   7.556   0.865   9.527  0.3990  0.0301  0.4428
  387MOL0     C52166   7.413   0.866   9.526  0.6338  0.7443 -0.0711
  387MOL0     C52167   7.341   0.980   9.494 -0.8219 -0.2568 -0.0927
  387MOL0     O52168   7.208   0.988   9.493  0.6644 -0.3090  0.7150
  387MOL0     C52169   7.125   0.924   9.595  0.9713  0.5770  0.5137
  387MOL0     C52170   6.991   0.885   9.545  0.1776  0.1660 -0.4791
  387MOL0     C52171   7.000   0.775   9.435  0.2332  0.2411 -0.1242
  387MOL0     C52172   6.868   0.711   9.385 -0.3281 -0.2358  0.1788
  387MOL0     C52173   6.892   0.619   9.269 -1.3359 -0.6321  0.4697
  387MOL0     C52174   6.893   0.547   9.170 -0.1556  0.4599  0.5169
  387MOL0     C52175   7.418   1.092   9.451  0.0973  0.2205 -1.4500
  387MOL0     C52176   7.553   1.097   9.447  0.0464 -0.4331 -0.4570
  387MOL0     C52177   7.615   1.218   9.382  0.3176 -0.1710  0.7328
  387MOL0     H52178   8.022   0.965   9.646 -0.9295  2.1677 -2.8158
  387MOL0     H52179   8.277   0.884   9.651  0.9857  3.2339 -1.4666
  387MOL0     H52180   8.407   0.673   9.286  3.6221 -1.0516 -1.7796
  387MOL0     H52181   8.419   0.850   9.346 -0.5080 -0.0944  4.5006
  387MOL0     H52182   8.626   0.739   9.284  0.2178  0.1949 -0.1380
  387MOL0     H52183   8.601   0.650   9.442  0.2274  1.0532  2.2394
  387MOL0     H52184   8.564   0.928   9.485  0.9261 -0.0647 -0.5775
  387MOL0     H52185   8.707   0.917   9.374  2.5387 -1.7848 -0.1841
  387MOL0     H52186   8.682   0.777   9.643 -0.8470 -1.7344 -0.6811
  387MOL0     H52187   8.795   0.719   9.523 -2.4888  0.0428 -3.8313
  387MOL0     H52188   8.888   0.860   9.691 -2.6015  0.3883  0.4745
  387MOL0     H52189   8.927   0.907   9.524  0.6559  1.3954 -0.1756
  387MOL0     H52190   8.776   1.072   9.528  0.1434 -1.9752  0.0281
  387MOL0     H52191   8.709   1.031   9.682 -0.1670  1.9688  0.5104
  387MOL0     H52192   8.840   1.227   9.717  1.0784 -0.8417  3.3748
  387MOL0     H52193   8.947   1.195   9.579  1.2255  1.2785  0.6085
  387MOL0     H52194   8.944   1.055   9.863  0.6473 -0.1944  0.0424
  387MOL0     H52195   9.051   1.012   9.735 -0.3550 -0.1213  0.1724
  387MOL0     H52196   9.234   1.228   9.649  2.0265 -2.3831  1.3327
  387MOL0     H52197   9.319   1.480   9.657 -0.5125 -2.0488  0.3333
  387MOL0     H52198   9.336   1.550   9.821  0.8908 -1.1051  0.6487
  387MOL0     H52199   9.496   1.380   9.890 -2.3389 -0.2492  0.6615
  387MOL0     H52200   9.468   1.311   9.722  0.7661 -0.8704  0.0009
  387MOL0     H52201   9.559   1.590   9.799 -0.5276 -0.1478 -0.0127
  387MOL0     H52202   9.555   1.518   9.633  0.5043 -3.8553 -0.9031
  387MOL0     H52203   9.752   1.367   9.695  0.3097 -1.7638  4.3835
  387MOL0     H52204   9.768   1.456   9.840 -2.0614 -2.8647  1.1142
  387MOL0     H52205   9.989   1.403   9.799 -0.7936  2.0834  0.7682
  387MOL0     H52206  10.218   1.387   9.729  0.5367  0.3237 -0.7933
  387MOL0     H52207  10.651   1.538   9.690 -3.0229 -1.1225  2.0069
  387MOL0     H52208  10.879   1.525   9.572 -0.1558  0.9544 -1.9839
  387MOL0     H52209  11.091   1.446   9.412 -0.7046 -1.5254 -4.7241
  387MOL0     H52210  11.054   1.346   9.563  2.0245  1.7158  0.4024
  387MOL0     H52211  11.139   1.159   9.470 -2.1289  2.1766  2.5278
  387MOL0     H52212  11.181   1.260   9.319  1.1805  1.6566  0.0239
  387MOL0     H52213  11.319   1.411   9.457  2.8264 -0.2186 -1.1903
  387MOL0     H52214  11.299   1.305   9.604 -1.1386 -1.0372 -0.2821
  387MOL0     H52215  11.445   1.253   9.342  0.1493 -1.9702 -0.5097
  387MOL0     H52216  11.399   1.122   9.432  0.8870  0.0908 -2.7800
  387MOL0     H52217  11.593   1.350   9.512  1.7207 -1.0874 -2.1238
  387MOL0     H52218  11.622   1.174   9.484  0.7181  1.4347  0.7072
  387MOL0     H52219  11.653   1.226   9.715  1.5726 -2.2294 -1.2911
  387MOL0     H52220  11.475   1.263   9.731 -0.2878  0.2110 -1.9055
  387MOL0     H52221  11.580   0.999   9.630 -2.7036 -0.5911 -2.1810
  387MOL0     H52222  11.412   1.039   9.675 -0.3738 -0.6127  0.6105
  387MOL0     H52223  11.525   0.915   9.861  1.9143  0.0474  2.1687
  387MOL0     H52224  11.656   1.041   9.863  1.3632 -4.3973  1.7371
  387MOL0     H52225  10.715   1.184   9.359 -1.4287  0.3338 -0.0664
  387MOL0     H52226  10.506   1.217   9.445 -0.8652 -0.7836  1.2784
  387MOL0     H52227  10.196   1.742   9.512 -1.7745  0.5579 -1.2324
  387MOL0     H52228   9.940   1.746   9.531  0.3318 -1.2341 -1.0213
  387MOL0     H52229   8.174   0.614   9.344 -0.8530 -0.4800 -0.3425
  387MOL0     H52230   7.943   0.683   9.349  2.2437  1.2541 -2.3955
  387MOL0     H52231   7.606   0.777   9.567  3.1884  1.4586  0.3344
  387MOL0     H52232   7.354   0.780   9.557  0.5085  0.7660 -0.2438
  387MOL0     H52233   7.113   0.991   9.680  0.9512  1.1607  0.0634
  387MOL0     H52234   7.172   0.840   9.648 -1.3342 -0.4669  1.0164
  387MOL0     H52235   6.945   0.979   9.513 -0.5351  0.1628  0.4975
  387MOL0     H52236   6.925   0.837   9.618  0.9340 -1.9521 -1.0851
  387MOL0     H52237   7.063   0.694   9.474 -0.5643 -0.8415 -1.0297
  387MOL0     H52238   7.054   0.819   9.350 -0.9512  0.8415 -0.5926
  387MOL0     H52239   6.820   0.667   9.474 -0.4782  1.9574  1.2494
  387MOL0     H52240   6.802   0.794   9.361  2.2970  1.1962 -2.6905
  387MOL0     H52241   6.884   0.470   9.096 -1.0999 -0.2762  1.3660
  387MOL0     H52242   7.358   1.178   9.425 -1.6522 -0.5682 -0.2744
  387MOL0     H52243   7.650   1.293   9.454  2.1293  0.0121 -0.2987
  387MOL0     H52244   7.701   1.186   9.324 -0.9448  0.6287 -1.7144
  387MOL0     H52245   7.544   1.267   9.314 -0.3514 -0.7111  1.0223
  388MOL0     O52246   9.676   2.526   9.443 -0.9935 -0.1668  0.2988
  388MOL0     C52247   9.638   2.426   9.404  0.6153  0.3597  0.3704
  388MOL0     O52248   9.714   2.319   9.353 -0.3726  0.1536 -0.2379
  388MOL0     C52249   9.853   2.309   9.345 -1.3598 -0.8461 -0.4638
  388MOL0     C52250   9.905   2.182   9.371 -0.4571 -0.1495 -0.4621
  388MOL0     C52251  10.045   2.161   9.376  0.4661 -0.0571 -0.0716
  388MOL0     C52252  10.142   2.267   9.375  1.0569  0.3529  0.0113
  388MOL0     O52253  10.272   2.242   9.383  0.0283  0.3126 -0.7190
  388MOL0     C52254  10.351   2.355   9.402 -0.5069 -0.6329 -0.8302
  388MOL0     C52255  10.488   2.316   9.403 -1.0195  0.3396 -0.4928
  388MOL0     C52256  10.548   2.347   9.544  0.1919 -1.1144 -0.1658
  388MOL0     C52257  10.701   2.341   9.530  0.8515  0.3969  0.2790
  388MOL0     C52258  10.762   2.351   9.666 -0.5372  1.2586 -0.1932
  388MOL0     C52259  10.911   2.326   9.677 -0.6827  0.0440 -0.4194
  388MOL0     C52260  10.972   2.366   9.814 -1.0207  0.7202  0.5505
  388MOL0     C52261  11.011   2.238   9.901  0.2957  0.2993  0.5620
  388MOL0     N52262  11.131   2.164   9.858  0.8021 -0.6559  0.4116
  388MOL0     C52263  11.254   2.214   9.816 -0.6633 -0.4690 -0.3543
  388MOL0     C52264  11.329   2.113   9.785  0.3114 -0.6392 -0.2200
  388MOL0     C52265  11.475   2.111   9.740 -0.3699 -0.5181 -0.4502
  388MOL0     C52266  11.576   2.077   9.847  0.6015  0.2189 -0.0286
  388MOL0     C52267  11.712   2.040   9.775 -0.1107  0.3563 -0.1078
  388MOL0     C52268  11.825   2.019   9.870  0.4179 -0.8118 -0.7456
  388MOL0     O52269  11.948   2.047   9.796 -0.1215  1.1003 -0.6046
  388MOL0     C52270  12.076   2.009   9.854  0.4076  1.7216  0.4703
  388MOL0     C52271  12.093   1.925   9.967 -0.5457 -0.0860 -0.0937
  388MOL0     C52272  12.221   1.898  10.020  1.2049  0.1469  0.4563
  388MOL0     C52273  12.332   1.964   9.962 -0.5231  0.9296 -0.4787
  388MOL0     C52274  12.469   1.950  10.021  0.1580 -1.5279 -0.2896
  388MOL0     O52275  12.553   2.043   9.974 -0.5697 -0.6092  0.0865
  388MOL0     C52276  12.685   2.024  10.000 -0.1129  1.1851 -0.0380
  388MOL0     C52277  12.766   1.986   9.885 -0.2470  0.0733  0.1734
  388MOL0     C52278  12.908   1.972   9.899 -0.1811 -0.1816 -0.0183
  388MOL0     C52279  12.972   2.004  10.015  0.0321  0.6614  0.8883
  388MOL0     O52280  13.109   1.990  10.034 -0.1651  0.5665  0.4209
  388MOL0     C52281  13.191   1.955   9.918 -0.2794  0.3129 -0.7902
  388MOL0     C52282  13.343   1.949   9.954 -0.0981 -0.3755 -0.6956
  388MOL0     C52283  13.436   1.877   9.866  0.1588  0.1513 -0.9310
  388MOL0     C52284  13.436   1.925   9.726 -0.1166  0.6512  0.6098
  388MOL0     C52285  13.545   1.846   9.645 -0.6251  0.4261 -0.5070
  388MOL0     C52286  13.531   1.861   9.490 -0.2085 -0.8210 -0.1218
  388MOL0     C52287  13.490   2.003   9.453 -0.7934 -0.2400 -0.1333
  388MOL0     C52288  13.601   2.111   9.487  0.0295  0.8963  0.3906
  388MOL0    Cl52289  13.771   2.056   9.464  0.0269 -0.1002  0.1574
  388MOL0     C52290  12.900   2.060  10.124 -0.0732 -0.1645  0.5121
  388MOL0     C52291  12.753   2.057  10.116  0.2436  0.3968 -0.3248
  388MOL0     O52292  12.495   1.873  10.111  0.0677  0.3021  0.6795
  388MOL0     C52293  12.314   2.039   9.843 -0.4147  0.3496  0.3865
  388MOL0     C52294  12.185   2.059   9.794 -0.1184 -0.0897  1.2674
  388MOL0     N52295  11.266   2.001   9.822 -0.3648 -0.4727 -0.2507
  388MOL0     N52296  11.145   2.032   9.854  0.1953 -0.7658 -0.8265
  388MOL0     C52297  10.086   2.395   9.354 -0.1265 -0.2089 -0.1554
  388MOL0     C52298   9.947   2.409   9.340 -1.0493 -0.6438 -1.1129
  388MOL0     C52299   9.490   2.407   9.413  0.5592 -0.0062 -0.1867
  388MOL0     C52300   9.442   2.271   9.411  0.0571  0.2972 -0.2050
  388MOL0     C52301   9.300   2.241   9.407 -0.6121  0.1303 -0.1185
  388MOL0     C52302   9.213   2.348   9.397  0.8499  0.4731 -0.3231
  388MOL0     O52303   9.080   2.334   9.378 -0.4326  0.5021 -0.1359
  388MOL0     C52304   9.013   2.214   9.429  0.8739 -0.6086 -0.3452
  388MOL0     C52305   8.876   2.260   9.478 -0.6947 -0.2392 -0.1295
  388MOL0     C52306   8.807   2.140   9.519  0.1671 -0.0501 -0.2497
  388MOL0     C52307   8.654   2.169   9.538  0.2762  0.1028  0.2380
  388MOL0     C52308   8.573   2.125   9.422  0.0666  0.1421  0.0896
  388MOL0     C52309   8.502   2.075   9.339  0.0212 -0.0232 -0.0307
  388MOL0     C52310   9.265   2.473   9.390 -0.1127 -0.2285 -0.1606
  388MOL0     C52311   9.397   2.512   9.402  0.0922 -0.6933 -0.1954
  388MOL0     C52312   9.441   2.655   9.380  0.6741 -0.5982 -0.0895
  388MOL0     H52313   9.845   2.094   9.393  0.8146 -0.2290  3.3787
  388MOL0     H52314  10.094   2.065   9.385 -1.2301 -0.8898  0.5352
  388MOL0     H52315  10.344   2.432   9.324 -0.3823  2.1889  1.7647
  388MOL0     H52316  10.317   2.410   9.490  0.8388  1.2959 -1.4443
  388MOL0     H52317  10.539   2.367   9.321 -0.9032 -2.7342 -2.4918
  388MOL0     H52318  10.496   2.210   9.378 -3.9647 -0.3544  0.9888
  388MOL0     H52319  10.498   2.291   9.624 -4.7222  3.0888  0.1895
  388MOL0     H52320  10.532   2.450   9.578  4.6602  0.3089 -1.5815
  388MOL0     H52321  10.726   2.249   9.476 -0.0722  1.2489 -1.7211
  388MOL0     H52322  10.736   2.425   9.469  2.3278  1.2622  2.2192
  388MOL0     H52323  10.737   2.451   9.705  0.2555  0.9635  1.1433
  388MOL0     H52324  10.712   2.273   9.724 -2.7429  0.1037 -3.3828
  388MOL0     H52325  10.944   2.228   9.641 -1.8292 -0.0906 -1.1422
  388MOL0     H52326  10.956   2.406   9.616 -1.1887  1.9032  1.5275
  388MOL0     H52327  10.900   2.409   9.883  1.6923  1.0667  3.4204
  388MOL0     H52328  11.063   2.427   9.806  1.3605 -2.7537 -1.8403
  388MOL0     H52329  11.029   2.269  10.004 -1.6016  0.1947  0.9564
  388MOL0     H52330  10.937   2.158   9.892  1.3038 -0.4531 -2.1404
  388MOL0     H52331  11.270   2.319   9.792  0.1042  0.2330  2.6811
  388MOL0     H52332  11.488   2.028   9.670 -1.9870 -0.9281 -0.3008
  388MOL0     H52333  11.497   2.209   9.698 -3.0104  1.5902  2.5958
  388MOL0     H52334  11.586   2.176   9.894  0.3244 -0.8625  2.4442
  388MOL0     H52335  11.540   1.997   9.913 -0.2665  1.4783  1.0991
  388MOL0     H52336  11.748   2.114   9.704  1.6979  1.5445  1.9021
  388MOL0     H52337  11.700   1.947   9.719 -0.2449 -1.2816  2.4381
  388MOL0     H52338  11.822   1.920   9.915  1.1741 -1.1099 -1.3222
  388MOL0     H52339  11.815   2.088   9.954 -4.5137  2.7828 -3.6791
  388MOL0     H52340  12.005   1.874  10.005 -2.0386 -0.9533 -4.2068
  388MOL0     H52341  12.246   1.830  10.100  0.9837  0.2284  0.5929
  388MOL0     H52342  12.731   1.976   9.783  3.9577 -0.0332 -1.4660
  388MOL0     H52343  12.960   1.956   9.804  0.3905  2.5124 -0.2425
  388MOL0     H52344  13.162   1.854   9.887 -0.9160  0.2775 -0.1048
  388MOL0     H52345  13.192   2.036   9.844  2.2517  2.4277  1.3408
  388MOL0     H52346  13.370   2.054   9.966 -2.0650  0.2124 -1.1566
  388MOL0     H52347  13.342   1.906  10.055  1.5890  0.0788 -0.4453
  388MOL0     H52348  13.536   1.874   9.908 -0.2902  1.3959  0.2866
  388MOL0     H52349  13.402   1.774   9.880  0.8037  0.0708  0.0943
  388MOL0     H52350  13.451   2.034   9.719  1.2404  0.5117  1.0198
  388MOL0     H52351  13.340   1.909   9.677  0.3604  1.6590 -0.7299
  388MOL0     H52352  13.537   1.739   9.664  0.9744  0.0554 -1.7429
  388MOL0     H52353  13.643   1.878   9.680 -2.3613  2.5548  3.0230
  388MOL0     H52354  13.627   1.830   9.447 -1.5976 -3.4488 -1.6658
  388MOL0     H52355  13.470   1.777   9.454  0.5878 -1.3069 -0.3924
  388MOL0     H52356  13.393   2.027   9.497 -2.0110 -0.7776 -2.3536
  388MOL0     H52357  13.478   2.003   9.344  1.3778  1.3852 -0.4408
  388MOL0     H52358  13.580   2.197   9.422 -1.1659  0.9478  0.8219
  388MOL0     H52359  13.586   2.147   9.589 -0.6695  0.6041  0.3959
  388MOL0     H52360  12.954   2.093  10.212 -1.2232 -2.1503  2.0616
  388MOL0     H52361  12.696   2.096  10.200 -0.8897  2.8875 -2.1312
  388MOL0     H52362  12.395   2.096   9.798  1.7581 -2.6915  0.1728
  388MOL0     H52363  12.180   2.123   9.706  0.7642 -2.3575 -0.5454
  388MOL0     H52364  10.143   2.485   9.331  2.0560 -1.6138 -0.5696
  388MOL0     H52365   9.907   2.510   9.329  0.2272  0.2774  1.8368
  388MOL0     H52366   9.516   2.192   9.402  2.0418  1.8880  1.2498
  388MOL0     H52367   9.269   2.137   9.409 -0.3386 -0.0112 -1.7010
  388MOL0     H52368   9.056   2.160   9.514  1.1781  0.1418 -0.0129
  388MOL0     H52369   9.007   2.134   9.355  0.2746  0.5207 -1.5586
  388MOL0     H52370   8.821   2.305   9.394 -1.7474 -2.0671 -0.4766
  388MOL0     H52371   8.885   2.323   9.567  0.2598 -1.2294  0.4950
  388MOL0     H52372   8.855   2.112   9.613  2.4419  0.1947 -1.2722
  388MOL0     H52373   8.818   2.056   9.449 -0.3594  0.0223 -0.4289
  388MOL0     H52374   8.608   2.110   9.618 -2.5137 -2.7291 -3.1391
  388MOL0     H52375   8.645   2.278   9.545 -0.0444  0.4331 -3.4284
  388MOL0     H52376   8.443   2.048   9.254 -0.2170  0.8953 -0.1639
  388MOL0     H52377   9.192   2.552   9.376 -1.5126 -1.5647 -0.6714
  388MOL0     H52378   9.501   2.652   9.289  0.2547  0.8351 -0.4506
  388MOL0     H52379   9.361   2.721   9.344 -1.6539 -2.3877  1.5158
  388MOL0     H52380   9.503   2.700   9.459 -0.0161 -1.2854  0.8714
  389MOL0     O52381   8.428  11.233   8.811 -0.5682 -0.1125  0.7882
  389MOL0     C52382   8.412  11.228   8.689  0.1419 -0.7191  0.3946
  389MOL0     O52383   8.487  11.300   8.599 -0.6648  0.0237  0.0555
  389MOL0     C52384   8.614  11.333   8.630  0.2772  0.0777  1.0047
  389MOL0     C52385   8.699  11.260   8.720 -0.1793 -0.5959 -0.8501
  389MOL0     C52386   8.828  11.305   8.742 -0.3673 -0.2623 -0.1329
  389MOL0     C52387   8.882  11.420   8.676 -0.1927 -0.9600  0.3728
  389MOL0     O52388   9.004  11.477   8.699 -0.0941 -0.3908 -0.6503
  389MOL0     C52389   9.051  11.483   8.841 -0.1989 -0.3240  0.0967
  389MOL0     C52390   8.949  11.563   8.927 -0.0698  1.3205 -0.0036
  389MOL0     C52391   8.997  11.557   9.075 -0.2805  0.8723  0.4981
  389MOL0     C52392   8.889  11.564   9.182 -0.0591 -0.1213 -0.4559
  389MOL0     C52393   8.935  11.516   9.319  0.1575 -0.4783  0.1176
  389MOL0     C52394   9.068  11.587   9.353 -0.1069  0.2700 -0.3652
  389MOL0     C52395   9.114  11.539   9.494  0.0958 -0.1029  0.0499
  389MOL0     C52396   9.224  11.637   9.551 -0.0086 -0.6757  0.2590
  389MOL0     N52397   9.336  11.663   9.462 -0.2179  0.2811 -0.3971
  389MOL0     C52398   9.343  11.745   9.351 -0.2545 -0.3203 -0.2143
  389MOL0     C52399   9.420  11.684   9.264 -0.0848  0.7253 -0.2835
  389MOL0     C52400   9.476  11.754   9.135  0.0441 -0.5639 -0.9200
  389MOL0     C52401   9.625  11.771   9.152  0.4052 -0.5300 -0.0793
  389MOL0     C52402   9.685  11.832   9.021 -0.8173  0.1568  0.1742
  389MOL0     C52403   9.833  11.843   9.055  0.5241  1.1424  0.1932
  389MOL0     O52404   9.895  11.716   9.069  0.4132  0.5345 -0.2453
  389MOL0     C52405  10.026  11.738   9.085  0.0916 -0.5862  0.6426
  389MOL0     C52406  10.081  11.800   9.200  0.3794 -0.3013 -0.1195
  389MOL0     C52407  10.226  11.812   9.211  1.4992  0.2566 -1.3986
  389MOL0     C52408  10.311  11.792   9.110  0.2658 -1.5585  1.2977
  389MOL0     C52409  10.460  11.819   9.119  0.0675 -0.4184 -0.2700
  389MOL0     O52410  10.544  11.752   9.039 -0.0202  0.1733 -0.1609
  389MOL0     C52411  10.681  11.761   9.030  0.4043  0.0973 -0.8869
  389MOL0     C52412  10.766  11.835   9.120  0.6870 -0.5834 -1.3643
  389MOL0     C52413  10.903  11.841   9.113  0.2108 -0.1726  0.8052
  389MOL0     C52414  10.964  11.772   8.999 -0.0112 -0.2501 -0.0332
  389MOL0     O52415  11.100  11.755   8.998  0.1348 -0.3662  0.0012
  389MOL0     C52416  11.187  11.856   8.952  0.3643 -1.1076  0.4414
  389MOL0     C52417  11.338  11.830   8.990  0.6794  0.0455  0.1703
  389MOL0     C52418  11.426  11.923   8.908 -1.0901 -0.1700  0.3374
  389MOL0     C52419  11.576  11.891   8.913 -1.0120  0.5539  0.0198
  389MOL0     C52420  11.644  11.946   9.038 -0.7328  0.0570 -0.2795
  389MOL0     C52421  11.795  11.916   9.029 -0.5138 -0.0968  0.8021
  389MOL0     C52422  11.868  11.930   9.166  0.3910 -1.2210  0.8833
  389MOL0     C52423  12.018  11.910   9.160  0.1705 -0.4257  0.2934
  389MOL0    Cl52424  12.056  11.735   9.209  0.3903 -0.1818  0.1896
  389MOL0     C52425  10.883  11.694   8.912  0.1550  0.6324  0.5608
  389MOL0     C52426  10.739  11.685   8.931  0.1778 -0.9974 -0.2743
  389MOL0     O52427  10.493  11.894   9.209  0.0846  0.4169 -0.1815
  389MOL0     C52428  10.247  11.736   8.991  1.0588 -0.9006 -0.2223
  389MOL0     C52429  10.109  11.704   8.975  0.0121  0.9826 -0.0360
  389MOL0     N52430   9.466  11.564   9.315  0.4167 -0.2351  0.1408
  389MOL0     N52431   9.427  11.552   9.440  0.4277 -0.0060 -0.0111
  389MOL0     C52432   8.799  11.489   8.581 -0.1748 -0.0435 -0.2308
  389MOL0     C52433   8.670  11.434   8.560  0.2373 -0.3283  0.3201
  389MOL0     C52434   8.274  11.167   8.648 -0.8973  0.5541 -0.2743
  389MOL0     C52435   8.170  11.142   8.734 -0.0634 -0.4095  0.6155
  389MOL0     C52436   8.046  11.107   8.690 -0.8776  0.3810  0.2272
  389MOL0     C52437   8.021  11.063   8.556 -0.3133 -0.0038 -0.5283
  389MOL0     O52438   7.898  11.020   8.538 -0.1130  0.0030 -0.0705
  389MOL0     C52439   7.863  10.988   8.405  0.3653 -0.1073  0.7539
  389MOL0     C52440   7.829  11.114   8.320  0.5356 -0.1459 -0.2705
  389MOL0     C52441   7.754  11.070   8.196  0.6625  0.4506 -0.0131
  389MOL0     C52442   7.744  11.178   8.090  0.0404 -0.3416  0.3471
  389MOL0     C52443   7.634  11.269   8.116 -0.0343 -0.3623 -0.8880
  389MOL0     C52444   7.540  11.345   8.148  0.3319  0.5863 -0.7492
  389MOL0     C52445   8.126  11.088   8.463 -0.1836 -0.3706 -0.5328
  389MOL0     C52446   8.255  11.131   8.511  0.3849  0.5852 -0.5188
  389MOL0     C52447   8.361  11.143   8.402  0.8188  0.8954 -0.7553
  389MOL0     H52448   8.657  11.181   8.781 -1.4395  0.9724  0.4420
  389MOL0     H52449   8.880  11.241   8.812  2.4018 -1.0225 -2.6642
  389MOL0     H52450   9.064  11.381   8.878  1.4641 -0.2517 -0.2397
  389MOL0     H52451   9.141  11.543   8.855 -0.7652  0.9260 -1.3685
  389MOL0     H52452   8.852  11.513   8.917  0.3754  0.6135 -0.8915
  389MOL0     H52453   8.949  11.668   8.896  1.3733  1.4841  0.4703
  389MOL0     H52454   9.076  11.632   9.080  1.9330 -1.3718  1.4733
  389MOL0     H52455   9.054  11.466   9.095 -0.8903  0.2007 -0.7040
  389MOL0     H52456   8.858  11.669   9.188  1.4580  0.4140 -1.3254
  389MOL0     H52457   8.802  11.504   9.153  1.6612 -3.5163  0.8545
  389MOL0     H52458   8.854  11.548   9.385 -3.8354 -1.0948 -3.9595
  389MOL0     H52459   8.943  11.407   9.311  0.8924 -0.3540 -0.9396
  389MOL0     H52460   9.145  11.558   9.281 -0.2202 -0.4346 -0.2109
  389MOL0     H52461   9.040  11.692   9.352 -1.7104 -0.1269  0.0516
  389MOL0     H52462   9.158  11.440   9.479 -2.2197 -1.0180 -1.1825
  389MOL0     H52463   9.026  11.542   9.561  0.4489  4.5386  0.6590
  389MOL0     H52464   9.171  11.730   9.575  0.8961 -0.6153  2.0978
  389MOL0     H52465   9.269  11.604   9.644  2.9220 -0.5640 -1.0207
  389MOL0     H52466   9.278  11.828   9.325  1.2708  0.6229 -1.1536
  389MOL0     H52467   9.460  11.687   9.050  1.6459 -0.0123 -1.6950
  389MOL0     H52468   9.446  11.859   9.121  0.1757 -0.7307 -2.7811
  389MOL0     H52469   9.645  11.826   9.245  0.1973 -1.5248  0.5706
  389MOL0     H52470   9.666  11.672   9.174  2.1065 -0.0472 -0.8561
  389MOL0     H52471   9.645  11.930   8.992  1.0643  0.5464 -1.3508
  389MOL0     H52472   9.677  11.773   8.929 -2.4451  0.1740  0.2769
  389MOL0     H52473   9.849  11.904   9.144  1.8249  1.2911 -0.1098
  389MOL0     H52474   9.886  11.892   8.972 -0.2175  2.8434  0.6817
  389MOL0     H52475  10.026  11.834   9.287  2.7359  2.4200  0.4656
  389MOL0     H52476  10.251  11.848   9.311  3.2229 -3.8986 -0.1425
  389MOL0     H52477  10.735  11.901   9.201 -1.2906 -2.3815 -0.5719
  389MOL0     H52478  10.971  11.896   9.177  2.7369 -0.7710 -1.1679
  389MOL0     H52479  11.186  11.860   8.843 -1.3966 -1.6576  0.4106
  389MOL0     H52480  11.144  11.952   8.983  1.6606 -0.1187 -0.6780
  389MOL0     H52481  11.356  11.845   9.097  0.1416 -3.5811  0.9333
  389MOL0     H52482  11.364  11.729   8.955  0.5736  0.3110 -0.6897
  389MOL0     H52483  11.393  11.922   8.804 -2.0163 -0.1411  0.6204
  389MOL0     H52484  11.429  12.027   8.940 -2.1431  0.2317 -0.8208
  389MOL0     H52485  11.624  11.947   8.833 -0.3106 -0.1956 -0.0980
  389MOL0     H52486  11.594  11.784   8.895  0.8175  1.0249 -1.1659
  389MOL0     H52487  11.607  11.891   9.125  3.1966  0.5388  1.9401
  389MOL0     H52488  11.624  12.053   9.050  0.6552  0.2886  0.1383
  389MOL0     H52489  11.808  11.813   8.995  1.1032 -0.4024  2.2049
  389MOL0     H52490  11.841  11.985   8.957  2.3960  0.4423  2.9968
  389MOL0     H52491  11.820  11.862   9.237  0.0256 -0.9246  0.9273
  389MOL0     H52492  11.856  12.036   9.190  0.8079 -0.2919 -2.4630
  389MOL0     H52493  12.059  11.932   9.061 -0.0650  2.0882  0.7001
  389MOL0     H52494  12.070  11.965   9.238  1.9317 -2.3133  0.5385
  389MOL0     H52495  10.936  11.645   8.831  0.7060  1.9300  0.1153
  389MOL0     H52496  10.686  11.639   8.849  1.0831 -0.8448 -0.9654
  389MOL0     H52497  10.304  11.723   8.899  3.0758  0.9631  0.6704
  389MOL0     H52498  10.088  11.661   8.877  2.2993  0.0674 -0.1760
  389MOL0     H52499   8.829  11.576   8.523 -0.5671 -0.7365 -1.5089
  389MOL0     H52500   8.611  11.486   8.487  0.0191  1.3915  1.6617
  389MOL0     H52501   8.208  11.170   8.832  1.1165  0.0558  0.0423
  389MOL0     H52502   7.963  11.086   8.756 -1.1612  2.6550  0.6753
  389MOL0     H52503   7.776  10.922   8.404  0.6803 -0.5334 -0.7073
  389MOL0     H52504   7.945  10.942   8.349  0.0854  1.7854 -1.2985
  389MOL0     H52505   7.920  11.162   8.282  1.0874 -0.1180  1.0201
  389MOL0     H52506   7.768  11.183   8.379  1.2139  2.0374 -1.9487
  389MOL0     H52507   7.657  11.031   8.227  2.6078 -3.2248  2.1639
  389MOL0     H52508   7.805  10.988   8.145 -0.6036  1.8774 -3.9621
  389MOL0     H52509   7.838  11.233   8.079 -1.2497  1.9006 -0.1392
  389MOL0     H52510   7.726  11.126   7.995 -1.0111  2.3365 -1.0283
  389MOL0     H52511   7.452  11.393   8.184  0.2382 -0.4677  0.5055
  389MOL0     H52512   8.119  11.075   8.355 -0.6983 -1.1126 -0.4146
  389MOL0     H52513   8.374  11.243   8.361 -1.2149  0.5042 -2.5634
  389MOL0     H52514   8.456  11.109   8.442  0.1879 -0.2830 -0.1856
  389MOL0     H52515   8.339  11.071   8.321  1.5849 -0.0873 -0.1067
  390MOL0     O52516   8.094   1.927   3.807  0.0108  0.0802  0.6622
  390MOL0     C52517   8.142   2.032   3.766 -0.8444 -0.7005  0.2672
  390MOL0     O52518   8.082   2.145   3.749  0.4101  0.3904 -0.0172
  390MOL0     C52519   7.937   2.136   3.762 -0.4319 -0.5863 -0.0617
  390MOL0     C52520   7.876   2.195   3.878 -0.3788  0.0943 -0.6436
  390MOL0     C52521   7.739   2.200   3.883 -0.5976  0.0299 -0.1041
  390MOL0     C52522   7.655   2.143   3.787  0.0407 -0.2611 -0.0437
  390MOL0     O52523   7.519   2.142   3.812  0.0722  0.1775 -0.3258
  390MOL0     C52524   7.429   2.168   3.700 -0.0115 -0.2173 -0.7299
  390MOL0     C52525   7.288   2.136   3.735  0.4335 -0.2659 -0.6404
  390MOL0     C52526   7.185   2.215   3.650  0.2099 -0.7606  1.2256
  390MOL0     C52527   7.036   2.202   3.704  0.4375 -0.8037  0.2582
  390MOL0     C52528   6.959   2.072   3.682  0.1781 -1.0737  0.1645
  390MOL0     C52529   6.809   2.078   3.701  1.0881  0.4349 -0.1882
  390MOL0     C52530   6.748   2.148   3.581  0.3893  0.0676  0.3482
  390MOL0     C52531   6.602   2.104   3.572  0.5738 -0.4863 -0.4287
  390MOL0     N52532   6.533   2.169   3.686 -0.1680  0.3416  0.1139
  390MOL0     C52533   6.524   2.119   3.813 -0.0981 -0.5780  0.0948
  390MOL0     C52534   6.490   2.230   3.882 -0.4027  0.4225  0.7621
  390MOL0     C52535   6.460   2.225   4.024  0.5353  0.0705  0.4631
  390MOL0     C52536   6.563   2.279   4.123  0.6937  0.1754 -0.0305
  390MOL0     C52537   6.567   2.427   4.128  0.7492  0.2642 -0.1707
  390MOL0     C52538   6.671   2.471   4.223  0.2023 -0.2961 -0.2783
  390MOL0     O52539   6.629   2.453   4.360 -0.2090  0.4109  0.2316
  390MOL0     C52540   6.733   2.428   4.448 -0.2121  0.3226  0.3453
  390MOL0     C52541   6.783   2.300   4.474 -0.2021  0.1915  0.6970
  390MOL0     C52542   6.897   2.286   4.548  0.4296  0.4982  0.0720
  390MOL0     C52543   6.959   2.394   4.601 -0.4743 -0.5703  0.4837
  390MOL0     C52544   7.091   2.376   4.674  0.0913  0.0265 -0.7292
  390MOL0     O52545   7.156   2.495   4.725 -0.6422  0.2253 -0.7878
  390MOL0     C52546   7.284   2.486   4.776 -0.0484  0.4727 -0.4638
  390MOL0     C52547   7.314   2.598   4.860 -0.5283  0.1343  0.4217
  390MOL0     C52548   7.441   2.607   4.909  1.1232  0.1318  0.0472
  390MOL0     C52549   7.544   2.515   4.872  0.0446  0.3540  0.3460
  390MOL0     O52550   7.664   2.538   4.941  0.1650 -0.5375 -0.5401
  390MOL0     C52551   7.790   2.500   4.891 -0.5197 -0.5372 -0.1159
  390MOL0     C52552   7.895   2.538   4.983 -0.5488  0.2481  0.4742
  390MOL0     C52553   7.883   2.689   5.025  0.0458 -0.1853 -0.2624
  390MOL0     C52554   8.018   2.711   5.097 -0.1148 -0.4225 -0.5602
  390MOL0     C52555   8.018   2.858   5.142  0.1071 -0.5442  0.0628
  390MOL0     C52556   8.153   2.915   5.171 -0.6256 -0.4087  0.1239
  390MOL0     C52557   8.236   2.830   5.264 -0.4794  0.3927  0.5547
  390MOL0     C52558   8.359   2.904   5.287  0.3366 -0.0567 -0.1805
  390MOL0    Cl52559   8.457   2.852   5.428 -0.7588 -0.1636 -0.2406
  390MOL0     C52560   7.521   2.425   4.772 -0.7472  0.3918  0.2884
  390MOL0     C52561   7.395   2.420   4.720 -0.1302 -0.7846 -0.0659
  390MOL0     O52562   7.147   2.264   4.673 -0.1072  0.2770  0.4411
  390MOL0     C52563   6.905   2.523   4.594  0.0007  0.6362  1.2078
  390MOL0     C52564   6.790   2.538   4.511  0.6149 -0.3273  0.6085
  390MOL0     N52565   6.472   2.340   3.801 -0.1905 -0.3643 -0.4903
  390MOL0     N52566   6.508   2.299   3.683  0.0486 -0.4121  0.3720
  390MOL0     C52567   7.722   2.074   3.679  0.2477  0.2108 -0.2264
  390MOL0     C52568   7.861   2.073   3.661 -0.2421  0.5288  0.3844
  390MOL0     C52569   8.290   2.041   3.744 -0.9143 -0.2613 -0.1635
  390MOL0     C52570   8.365   1.935   3.791 -0.3415 -0.7323 -0.3486
  390MOL0     C52571   8.505   1.934   3.770 -0.1895  0.1936  0.5416
  390MOL0     C52572   8.575   2.031   3.700 -0.1566  0.0483 -0.1142
  390MOL0     O52573   8.705   2.013   3.670  0.7823 -0.1728  0.2819
  390MOL0     C52574   8.801   2.118   3.655 -0.3721  0.0718 -0.8016
  390MOL0     C52575   8.792   2.217   3.776 -1.5210 -0.3701 -0.1285
  390MOL0     C52576   8.898   2.335   3.759 -0.6715  0.2337  0.5605
  390MOL0     C52577   8.926   2.413   3.888  1.1087 -1.1590 -0.9409
  390MOL0     C52578   9.034   2.500   3.864 -0.0550  0.3633  0.1195
  390MOL0     C52579   9.119   2.586   3.847  0.5278 -0.3310  0.1063
  390MOL0     C52580   8.498   2.139   3.655 -0.4522 -0.8044 -0.2895
  390MOL0     C52581   8.358   2.145   3.677 -0.5770 -0.0821  0.8888
  390MOL0     C52582   8.292   2.270   3.634  0.7738 -0.7257  0.4899
  390MOL0     H52583   7.939   2.256   3.942 -1.8782  3.7707 -2.4118
  390MOL0     H52584   7.692   2.260   3.960 -1.3496  2.6148 -2.4255
  390MOL0     H52585   7.425   2.274   3.673 -1.7079  0.2763  1.2633
  390MOL0     H52586   7.453   2.111   3.609  1.1176  0.4464 -0.8781
  390MOL0     H52587   7.265   2.154   3.840 -0.2821 -0.1088 -0.8212
  390MOL0     H52588   7.269   2.029   3.723 -0.7181 -0.1298 -0.1232
  390MOL0     H52589   7.189   2.204   3.541  2.4265  1.6009  0.9643
  390MOL0     H52590   7.207   2.320   3.672  2.7778 -0.8794 -0.2800
  390MOL0     H52591   7.043   2.235   3.808  1.5113  1.0791 -0.3547
  390MOL0     H52592   6.983   2.286   3.659 -1.1234 -1.6176  0.5092
  390MOL0     H52593   6.967   2.040   3.578 -1.1280 -0.5961 -0.0993
  390MOL0     H52594   6.999   1.985   3.735 -0.8452 -1.4213  0.3777
  390MOL0     H52595   6.774   1.975   3.710 -1.3884  0.9006 -2.8725
  390MOL0     H52596   6.778   2.120   3.797 -1.3120  2.5747 -1.7826
  390MOL0     H52597   6.797   2.122   3.487 -0.8627 -0.0097 -0.3127
  390MOL0     H52598   6.740   2.256   3.596 -0.6490 -0.0256  0.5587
  390MOL0     H52599   6.561   2.153   3.484  2.6191 -0.5658 -1.5036
  390MOL0     H52600   6.591   1.995   3.573 -0.0303 -0.4347  0.9569
  390MOL0     H52601   6.543   2.018   3.848  1.1446  0.6925  3.5032
  390MOL0     H52602   6.364   2.278   4.029  1.1475  1.7044 -2.8333
  390MOL0     H52603   6.430   2.124   4.052 -0.9819  0.2028 -0.5680
  390MOL0     H52604   6.525   2.232   4.214 -2.0362 -0.3174 -1.3022
  390MOL0     H52605   6.658   2.230   4.097  0.1121 -0.8757 -0.2570
  390MOL0     H52606   6.472   2.478   4.150  1.4657  2.2148 -1.3056
  390MOL0     H52607   6.605   2.472   4.036  1.2940 -0.6015 -0.3784
  390MOL0     H52608   6.684   2.579   4.216  1.3885 -0.4541 -0.8146
  390MOL0     H52609   6.768   2.422   4.204 -0.2483 -2.0583  1.5732
  390MOL0     H52610   6.731   2.231   4.409  3.0191 -1.4628 -0.3088
  390MOL0     H52611   6.935   2.185   4.555 -0.3201  0.0749 -1.4066
  390MOL0     H52612   7.247   2.681   4.879 -0.5799  0.1499  0.1638
  390MOL0     H52613   7.483   2.682   4.975  2.1970  1.5666 -2.1571
  390MOL0     H52614   7.816   2.395   4.879  4.2646 -0.0082  2.7679
  390MOL0     H52615   7.795   2.547   4.793  0.7300  0.9811  0.6175
  390MOL0     H52616   7.900   2.477   5.073  2.1690 -0.4577 -0.0595
  390MOL0     H52617   7.990   2.514   4.934 -1.0100 -1.3451  0.3226
  390MOL0     H52618   7.876   2.758   4.941  2.7317 -1.2659 -1.4899
  390MOL0     H52619   7.805   2.704   5.101  0.1464  1.5185 -0.4621
  390MOL0     H52620   8.095   2.699   5.021  0.6110 -1.9669  0.3735
  390MOL0     H52621   8.038   2.650   5.186 -0.0169  0.7263  0.2271
  390MOL0     H52622   7.948   2.871   5.225  1.5061 -1.1591  1.4020
  390MOL0     H52623   7.987   2.915   5.054 -1.7967  0.7021  1.4815
  390MOL0     H52624   8.208   2.927   5.078 -0.6203 -0.9793  0.0503
  390MOL0     H52625   8.127   3.009   5.220  0.6775  0.6976 -1.2325
  390MOL0     H52626   8.252   2.725   5.235 -5.1988 -1.5138  3.5885
  390MOL0     H52627   8.192   2.817   5.364 -0.7364 -1.0209  0.2877
  390MOL0     H52628   8.422   2.905   5.198  1.7559 -2.2858  0.7021
  390MOL0     H52629   8.333   3.006   5.315 -1.6089 -1.0513  1.9741
  390MOL0     H52630   7.602   2.366   4.730 -1.3588  0.4007 -0.9571
  390MOL0     H52631   7.379   2.355   4.635  3.2058 -0.6499 -0.9659
  390MOL0     H52632   6.956   2.608   4.639  1.6948 -1.6864  4.1177
  390MOL0     H52633   6.749   2.636   4.489  1.8223 -0.3639 -2.1300
  390MOL0     H52634   7.666   2.034   3.595  0.8061  2.4142 -1.7189
  390MOL0     H52635   7.912   2.029   3.576 -1.5546  1.3405 -0.8501
  390MOL0     H52636   8.322   1.856   3.852  2.1434  0.7438  3.8185
  390MOL0     H52637   8.560   1.841   3.785 -3.0289 -1.7601 -0.2447
  390MOL0     H52638   8.801   2.170   3.559 -0.1706  1.8659  0.1176
  390MOL0     H52639   8.897   2.066   3.663 -1.5531 -2.3094 -1.3084
  390MOL0     H52640   8.822   2.157   3.862  0.3424  2.4758  1.3757
  390MOL0     H52641   8.692   2.252   3.805 -2.5727 -4.5717  2.2116
  390MOL0     H52642   8.857   2.399   3.681 -1.0741 -2.5973 -1.7154
  390MOL0     H52643   8.993   2.290   3.731  0.0568  1.0676  1.5938
  390MOL0     H52644   8.843   2.471   3.928  1.6096  0.6507 -2.4018
  390MOL0     H52645   8.962   2.340   3.961  0.8619  0.5598  0.9869
  390MOL0     H52646   9.185   2.670   3.852 -0.2685  0.3011  0.0704
  390MOL0     H52647   8.548   2.221   3.604 -0.0555 -1.7377 -1.4411
  390MOL0     H52648   8.354   2.332   3.569  0.9476 -0.1782  1.1584
  390MOL0     H52649   8.210   2.245   3.567  0.9429 -0.2290  0.0975
  390MOL0     H52650   8.264   2.325   3.724  2.9128 -0.2599  0.9429
  391MOL0     O52651   4.996   6.986   3.911 -0.8072  0.1553  0.0755
  391MOL0     C52652   4.933   6.896   3.865  0.2992  0.0343 -0.0494
  391MOL0     O52653   4.986   6.788   3.802  0.0945  0.5720 -0.7422
  391MOL0     C52654   5.118   6.784   3.771  0.2059 -0.1883 -0.4094
  391MOL0     C52655   5.178   6.674   3.813  0.1587 -0.1672  0.3462
  391MOL0     C52656   5.314   6.646   3.787  1.1626 -0.0670  0.2320
  391MOL0     C52657   5.382   6.716   3.698  0.0503  0.1675  0.7303
  391MOL0     O52658   5.511   6.671   3.666 -0.1421  0.1604 -0.0399
  391MOL0     C52659   5.605   6.775   3.631 -0.0568 -0.2294 -0.0670
  391MOL0     C52660   5.648   6.861   3.752  0.3373  0.6680  0.6960
  391MOL0     C52661   5.755   6.962   3.714  0.1806  1.1622  0.6923
  391MOL0     C52662   5.884   6.898   3.658 -0.4016  0.4903  1.0588
  391MOL0     C52663   5.992   7.006   3.650  0.0320  0.1189 -0.5954
  391MOL0     C52664   6.131   6.942   3.644  0.3464 -0.3177 -0.5077
  391MOL0     C52665   6.219   7.012   3.545  0.4547  0.6106  0.3782
  391MOL0     C52666   6.344   6.941   3.513  0.9212  0.2153  0.1638
  391MOL0     N52667   6.376   7.002   3.381  0.5215 -1.2376 -0.0243
  391MOL0     C52668   6.477   7.101   3.349  0.3511 -0.2849  0.5215
  391MOL0     C52669   6.478   7.117   3.214  0.2282 -0.2527  0.0320
  391MOL0     C52670   6.577   7.198   3.133  0.6151 -0.4980 -0.0609
  391MOL0     C52671   6.709   7.122   3.148  1.0643 -0.4073  0.7244
  391MOL0     C52672   6.705   6.979   3.083  0.0653 -0.5517  1.0227
  391MOL0     C52673   6.847   6.927   3.058  0.1561  0.0379 -0.2746
  391MOL0     O52674   6.919   7.001   2.952  0.8901  0.1664  0.7733
  391MOL0     C52675   7.039   7.041   2.993  0.1864  0.0787 -0.1158
  391MOL0     C52676   7.070   7.179   3.000  0.5500  0.2307 -0.1226
  391MOL0     C52677   7.200   7.222   3.033  0.1389 -0.3521 -0.0908
  391MOL0     C52678   7.311   7.140   3.059  0.5191 -0.7119  1.0148
  391MOL0     C52679   7.443   7.191   3.083 -0.2619  0.0439  0.3668
  391MOL0     O52680   7.556   7.101   3.075  0.7131 -0.5888 -0.4533
  391MOL0     C52681   7.670   7.164   3.119 -0.3615 -0.3739  0.5844
  391MOL0     C52682   7.719   7.126   3.242  0.6197 -0.0762  0.5251
  391MOL0     C52683   7.833   7.189   3.299  0.6912  0.1717 -0.3765
  391MOL0     C52684   7.896   7.288   3.229 -0.4846 -0.0661  0.0916
  391MOL0     O52685   7.995   7.340   3.303 -1.0460  0.0339 -0.0667
  391MOL0     C52686   8.094   7.406   3.236 -0.0519 -0.2811 -0.3070
  391MOL0     C52687   8.212   7.435   3.333  0.0392  1.4207  0.2757
  391MOL0     C52688   8.166   7.499   3.456  0.1135 -0.4444 -1.0720
  391MOL0     C52689   8.284   7.526   3.558  0.9793 -0.3962  0.2905
  391MOL0     C52690   8.247   7.574   3.695  0.5230  0.0082 -0.2695
  391MOL0     C52691   8.165   7.707   3.693  0.6313  0.2448 -0.1016
  391MOL0     C52692   8.217   7.822   3.602 -0.0466  0.2671  0.1154
  391MOL0     C52693   8.336   7.897   3.663  0.4715 -0.8662  0.4780
  391MOL0    Cl52694   8.503   7.859   3.628 -0.4349 -0.4935  0.5113
  391MOL0     C52695   7.857   7.322   3.098 -0.0697 -0.7341  0.5251
  391MOL0     C52696   7.742   7.262   3.045  0.2141  0.9118  0.1380
  391MOL0     O52697   7.448   7.315   3.103 -1.1655 -0.0621  0.1461
  391MOL0     C52698   7.276   7.008   3.045  0.8420 -0.6050  0.5696
  391MOL0     C52699   7.147   6.959   3.018 -1.5473  0.0515 -1.3026
  391MOL0     N52700   6.384   7.031   3.170 -0.4655  0.8226 -0.8939
  391MOL0     N52701   6.327   6.960   3.262  1.0783 -0.5371 -0.5032
  391MOL0     C52702   5.311   6.828   3.645 -0.4482  0.2058 -0.1579
  391MOL0     C52703   5.183   6.875   3.685 -0.1941  0.2880 -0.0128
  391MOL0     C52704   4.788   6.888   3.870  0.4825 -0.0223 -0.0918
  391MOL0     C52705   4.726   6.939   3.986  0.0754 -0.8178  0.0309
  391MOL0     C52706   4.591   6.944   4.010 -0.2046 -0.2162  0.6202
  391MOL0     C52707   4.511   6.887   3.909 -0.9322  0.1141  0.0515
  391MOL0     O52708   4.377   6.910   3.936  0.2710 -0.1096  0.0309
  391MOL0     C52709   4.288   6.805   3.892 -0.9105 -0.3912  0.3193
  391MOL0     C52710   4.299   6.676   3.981  0.5081  0.0274 -0.4534
  391MOL0     C52711   4.271   6.719   4.128 -0.0805 -0.6998 -0.1769
  391MOL0     C52712   4.131   6.732   4.189 -0.1908 -0.0618 -0.1611
  391MOL0     C52713   4.151   6.779   4.332 -0.3625 -0.6705  0.8940
  391MOL0     C52714   4.165   6.804   4.446 -0.0887 -0.7482 -0.8747
  391MOL0     C52715   4.562   6.831   3.792 -0.7580 -0.5032 -0.1627
  391MOL0     C52716   4.708   6.833   3.770  0.4619  0.7816  0.0268
  391MOL0     C52717   4.759   6.784   3.634 -0.1654  0.2816 -0.4555
  391MOL0     H52718   5.120   6.603   3.872 -0.0026 -1.6342 -1.4657
  391MOL0     H52719   5.348   6.546   3.814  1.6938 -0.1755 -0.7514
  391MOL0     H52720   5.690   6.713   3.603  0.7013  0.2884  1.0503
  391MOL0     H52721   5.576   6.832   3.541  0.3605 -0.7633 -0.5464
  391MOL0     H52722   5.678   6.787   3.826  1.6768  1.3282  0.8450
  391MOL0     H52723   5.565   6.923   3.789  1.4158  2.4898  0.1604
  391MOL0     H52724   5.761   7.029   3.800  1.7190 -0.3870  1.8545
  391MOL0     H52725   5.711   7.011   3.627 -0.0720 -0.7334 -0.3037
  391MOL0     H52726   5.908   6.818   3.729  0.7762  0.9469  1.1848
  391MOL0     H52727   5.864   6.841   3.567  1.7072 -3.8249  3.0014
  391MOL0     H52728   5.977   7.072   3.564  0.8733 -0.7944 -1.4745
  391MOL0     H52729   5.980   7.061   3.743  2.3004 -0.9304  0.4049
  391MOL0     H52730   6.184   6.946   3.739 -0.3205 -3.1277  0.0689
  391MOL0     H52731   6.119   6.837   3.619 -4.2137  0.3639 -2.1580
  391MOL0     H52732   6.236   7.112   3.584 -0.2229  2.0223 -2.6957
  391MOL0     H52733   6.164   7.023   3.451  0.2666 -0.7390  0.3049
  391MOL0     H52734   6.427   6.968   3.579  1.3374 -1.0520  0.1864
  391MOL0     H52735   6.330   6.833   3.500  3.8184 -0.1243 -0.9411
  391MOL0     H52736   6.539   7.151   3.422  1.7307 -2.1887  0.7424
  391MOL0     H52737   6.547   7.202   3.028 -0.9106 -0.4990  0.3473
  391MOL0     H52738   6.581   7.299   3.173 -0.3632 -1.6438  3.3532
  391MOL0     H52739   6.769   7.192   3.088 -4.6739  1.9068 -3.2031
  391MOL0     H52740   6.750   7.129   3.249 -0.4109  0.9938  1.2546
  391MOL0     H52741   6.658   6.973   2.984  2.7129  0.6039 -0.3835
  391MOL0     H52742   6.655   6.916   3.158 -0.3463  0.4203  1.5812
  391MOL0     H52743   6.844   6.823   3.025 -0.5304  0.1994 -0.7515
  391MOL0     H52744   6.901   6.937   3.152 -0.3248 -1.0330  0.1375
  391MOL0     H52745   6.989   7.248   2.978 -0.2833 -0.4345  0.7869
  391MOL0     H52746   7.211   7.330   3.031  1.8261 -0.5083 -0.2557
  391MOL0     H52747   7.676   7.041   3.294  1.5076 -1.0364 -0.2590
  391MOL0     H52748   7.864   7.159   3.398 -0.7055  1.0526  0.3705
  391MOL0     H52749   8.120   7.353   3.143 -1.5254 -1.4741 -0.0801
  391MOL0     H52750   8.054   7.506   3.216  1.1490  0.6194  1.5319
  391MOL0     H52751   8.252   7.335   3.355 -1.2410  1.2320  1.9382
  391MOL0     H52752   8.289   7.492   3.280 -1.1537  2.7269 -0.1186
  391MOL0     H52753   8.103   7.585   3.429 -0.4852 -0.7242 -0.5811
  391MOL0     H52754   8.099   7.428   3.505  1.0140 -0.0841  0.7683
  391MOL0     H52755   8.363   7.588   3.515 -1.2063  0.6892 -2.5271
  391MOL0     H52756   8.333   7.428   3.562 -2.8321 -2.5408 -0.7425
  391MOL0     H52757   8.337   7.585   3.756 -0.5245  3.1789  0.9541
  391MOL0     H52758   8.177   7.500   3.734  0.8745 -0.9237 -1.3552
  391MOL0     H52759   8.073   7.686   3.639  0.4065  2.7901 -0.8682
  391MOL0     H52760   8.148   7.740   3.796 -0.4566  2.2051 -0.8476
  391MOL0     H52761   8.139   7.895   3.578  1.3156  1.0615 -2.2507
  391MOL0     H52762   8.253   7.782   3.506 -3.6567  2.3426 -2.3511
  391MOL0     H52763   8.323   7.994   3.615 -2.8637 -1.0546  0.7868
  391MOL0     H52764   8.328   7.903   3.772  3.6350  0.4352  0.7272
  391MOL0     H52765   7.894   7.403   3.037 -3.6446  0.0917 -0.7370
  391MOL0     H52766   7.697   7.291   2.951 -3.5452 -1.1497  1.1107
  391MOL0     H52767   7.346   6.927   3.061  1.2061 -0.4896 -0.3557
  391MOL0     H52768   7.132   6.852   3.018  0.2194 -0.3402  2.1056
  391MOL0     H52769   5.359   6.885   3.565 -0.5352  0.5330  0.0214
  391MOL0     H52770   5.131   6.966   3.657 -0.7351  0.6331  1.9552
  391MOL0     H52771   4.778   7.001   4.059 -0.3197 -0.7459  0.2515
  391MOL0     H52772   4.553   6.991   4.100 -0.5617  0.1196  0.2932
  391MOL0     H52773   4.307   6.781   3.787 -0.9167 -1.1653  0.4918
  391MOL0     H52774   4.186   6.844   3.890 -0.3987  1.0190 -1.2994
  391MOL0     H52775   4.398   6.630   3.980 -0.1642 -1.5194 -3.0907
  391MOL0     H52776   4.227   6.600   3.950 -0.8211 -1.1248  4.4742
  391MOL0     H52777   4.313   6.819   4.141 -1.5635  0.1511 -1.5827
  391MOL0     H52778   4.329   6.657   4.197  2.8764  1.9485 -0.0362
  391MOL0     H52779   4.070   6.798   4.126 -1.3531  0.6150  1.5892
  391MOL0     H52780   4.081   6.635   4.188  1.5863 -1.0882  1.7930
  391MOL0     H52781   4.180   6.811   4.552 -0.4300 -0.0365 -0.8681
  391MOL0     H52782   4.494   6.806   3.711 -1.1113 -2.3434  0.6489
  391MOL0     H52783   4.676   6.783   3.563  1.0294  0.8308 -1.8900
  391MOL0     H52784   4.833   6.855   3.598  1.2504 -0.8973  0.0068
  391MOL0     H52785   4.810   6.687   3.640  2.3261  1.5947  2.4852
  392MOL0     O52786   0.904   8.332   0.578 -0.4753 -0.6664 -0.5728
  392MOL0     C52787   0.793   8.344   0.536  0.6354  0.1574  0.4346
  392MOL0     O52788   0.758   8.398   0.413 -0.1014 -0.0995 -0.2466
  392MOL0     C52789   0.864   8.432   0.330  0.3736 -0.4447  0.5407
  392MOL0     C52790   0.915   8.335   0.243  0.1982 -0.1089 -0.2285
  392MOL0     C52791   1.003   8.369   0.142  0.4705  0.7724 -0.2496
  392MOL0     C52792   1.061   8.494   0.144 -0.3106  0.4623 -0.2104
  392MOL0     O52793   1.165   8.508   0.056  0.4231  0.0259 -0.4733
  392MOL0     C52794   1.282   8.584   0.081  0.2460  0.6436  0.7388
  392MOL0     C52795   1.408   8.527   0.006  0.3257  0.3486 -0.2380
  392MOL0     C52796   1.511   8.641   0.022 -0.1975  0.8061  0.1923
  392MOL0     C52797   1.654   8.600  -0.045 -0.6372  1.3329  0.3823
  392MOL0     C52798   1.732   8.715  -0.099 -0.0576  0.0462 -0.2255
  392MOL0     C52799   1.884   8.682  -0.081  0.3665 -0.4231  0.7171
  392MOL0     C52800   1.971   8.798  -0.142 -0.2928 -0.0295  0.9329
  392MOL0     C52801   1.973   8.790  -0.296 -0.0745 -0.1406  0.2465
  392MOL0     N52802   2.091   8.869  -0.345 -0.4181  0.7692  0.3047
  392MOL0     C52803   2.193   8.807  -0.415 -0.1221  0.9205 -0.4572
  392MOL0     C52804   2.291   8.895  -0.419  0.1838 -0.0430  0.3982
  392MOL0     C52805   2.427   8.862  -0.475  1.1942  0.1131 -0.1886
  392MOL0     C52806   2.501   8.993  -0.486 -0.7958 -0.1074 -1.0149
  392MOL0     C52807   2.635   8.968  -0.571 -1.0031 -0.1871  0.0499
  392MOL0     C52808   2.713   9.100  -0.611  1.6691 -0.0499 -0.3673
  392MOL0     O52809   2.734   9.176  -0.491 -0.4593 -0.3980  0.0019
  392MOL0     C52810   2.852   9.247  -0.493 -0.1162 -0.1417 -0.3183
  392MOL0     C52811   2.871   9.319  -0.611 -0.8705 -0.2592 -0.7343
  392MOL0     C52812   2.999   9.382  -0.621  0.7665  0.5449 -1.0371
  392MOL0     C52813   3.098   9.380  -0.520 -0.4095 -0.3146  0.0025
  392MOL0     C52814   3.238   9.422  -0.549 -0.5568 -0.6117 -0.1266
  392MOL0     O52815   3.279   9.483  -0.665 -0.1510  0.4865 -0.0559
  392MOL0     C52816   3.377   9.573  -0.664 -0.5163 -0.5001 -0.7081
  392MOL0     C52817   3.340   9.704  -0.702  0.4977 -0.1786 -1.2778
  392MOL0     C52818   3.427   9.818  -0.704 -0.0866  0.3320  0.2909
  392MOL0     C52819   3.557   9.804  -0.668  0.0314 -0.0168 -0.7834
  392MOL0     O52820   3.643   9.915  -0.668  0.3356  0.4177  0.6679
  392MOL0     C52821   3.784   9.896  -0.666 -0.1031 -0.3383 -0.9958
  392MOL0     C52822   3.836  10.040  -0.658 -0.7882  0.0028  0.4136
  392MOL0     C52823   3.991  10.036  -0.634  0.1012  0.4302 -0.1037
  392MOL0     C52824   4.037  10.156  -0.554  0.2636  0.0851  0.6068
  392MOL0     C52825   4.026  10.171  -0.401  0.4575 -0.0673  0.3443
  392MOL0     C52826   4.070  10.305  -0.346  0.2018  0.4612 -0.4631
  392MOL0     C52827   4.049  10.321  -0.181 -0.1406 -0.3603  0.0889
  392MOL0     C52828   3.906  10.295  -0.131 -0.1475  0.1577 -0.1412
  392MOL0    Cl52829   3.859  10.409   0.006 -0.1734  0.0729  0.0277
  392MOL0     C52830   3.598   9.671  -0.621  0.0420  0.6061 -0.2650
  392MOL0     C52831   3.511   9.552  -0.630 -0.2790  0.0974  0.2705
  392MOL0     O52832   3.307   9.417  -0.450  0.3793 -0.1661 -0.2848
  392MOL0     C52833   3.062   9.308  -0.398  0.2655  0.1777  0.6446
  392MOL0     C52834   2.946   9.237  -0.390  0.4854 -0.0914  0.1079
  392MOL0     N52835   2.238   9.016  -0.368 -0.5996  0.4564 -0.3910
  392MOL0     N52836   2.113   9.000  -0.320 -0.1448  0.1838  0.4384
  392MOL0     C52837   1.021   8.589   0.231  0.9473 -0.2039 -0.2350
  392MOL0     C52838   0.917   8.562   0.318  0.3302 -0.4326 -0.2100
  392MOL0     C52839   0.677   8.308   0.629 -0.1303  0.0574  0.7887
  392MOL0     C52840   0.560   8.277   0.569 -0.6208 -0.1594  0.2522
  392MOL0     C52841   0.451   8.227   0.647  0.3033 -0.1189  0.1606
  392MOL0     C52842   0.471   8.210   0.784 -0.1341  0.1436  0.3888
  392MOL0     O52843   0.359   8.167   0.848 -0.3909 -0.2217  0.0345
  392MOL0     C52844   0.352   8.168   0.995  0.8104 -0.7406 -0.3823
  392MOL0     C52845   0.206   8.134   1.036 -0.2503  0.9332 -0.2178
  392MOL0     C52846   0.110   8.219   0.962  0.7173 -0.6290 -0.4303
  392MOL0     C52847  -0.035   8.186   1.017  0.0533  0.1253  0.1509
  392MOL0     C52848  -0.057   8.251   1.146 -0.7225  0.6344 -1.2224
  392MOL0     C52849  -0.082   8.308   1.257 -0.3387  0.5220 -0.0172
  392MOL0     C52850   0.595   8.230   0.848  0.0214 -0.7400 -0.8554
  392MOL0     C52851   0.695   8.292   0.772 -0.6314  0.5943  0.8537
  392MOL0     C52852   0.822   8.338   0.842  0.0309 -0.9089  0.1654
  392MOL0     H52853   0.871   8.236   0.240  0.7875 -0.7118  4.2496
  392MOL0     H52854   1.023   8.283   0.079 -2.2111  0.5244 -0.8931
  392MOL0     H52855   1.258   8.687   0.051  1.1496  0.3682 -1.0248
  392MOL0     H52856   1.304   8.582   0.188  0.5792  2.0195  0.7146
  392MOL0     H52857   1.390   8.512  -0.101  2.0748  1.8245 -0.7820
  392MOL0     H52858   1.437   8.436   0.061 -1.6536 -0.4922 -0.5037
  392MOL0     H52859   1.534   8.673   0.124  2.2775 -0.5922  0.1563
  392MOL0     H52860   1.478   8.728  -0.035  2.1338  0.4614 -1.8877
  392MOL0     H52861   1.711   8.543   0.029 -4.4283 -1.1112  1.6711
  392MOL0     H52862   1.631   8.535  -0.129 -4.0759 -1.5361  3.2194
  392MOL0     H52863   1.701   8.734  -0.202  3.0526  0.7072 -1.1506
  392MOL0     H52864   1.705   8.801  -0.037 -1.9774  0.7293 -1.8908
  392MOL0     H52865   1.902   8.666   0.025  0.3114 -0.8834  0.6613
  392MOL0     H52866   1.909   8.585  -0.125 -2.2578  0.2488 -2.7028
  392MOL0     H52867   2.071   8.783  -0.100 -0.7806  0.4849  2.3309
  392MOL0     H52868   1.945   8.899  -0.109  2.0970  0.2061  2.3243
  392MOL0     H52869   1.992   8.687  -0.325 -0.8051 -0.1948 -0.0518
  392MOL0     H52870   1.879   8.829  -0.336  0.4481  0.9478  0.0342
  392MOL0     H52871   2.193   8.700  -0.429 -0.0558  1.0203 -1.2506
  392MOL0     H52872   2.481   8.791  -0.412  2.9493  0.6696 -1.0062
  392MOL0     H52873   2.429   8.818  -0.575  2.6220  0.4802 -0.3412
  392MOL0     H52874   2.442   9.069  -0.537 -1.7402  0.5997  1.0233
  392MOL0     H52875   2.537   9.024  -0.388  2.3457 -1.9984 -1.4212
  392MOL0     H52876   2.596   8.917  -0.660  0.3154  1.6543 -1.6757
  392MOL0     H52877   2.713   8.906  -0.526  0.2515  3.4522  3.4018
  392MOL0     H52878   2.651   9.159  -0.679 -1.9059 -1.9332  1.0000
  392MOL0     H52879   2.795   9.056  -0.668 -0.4393 -3.0520 -1.3304
  392MOL0     H52880   2.781   9.325  -0.672 -2.9829 -2.8064  1.8287
  392MOL0     H52881   3.024   9.433  -0.714  0.0269  1.1459 -0.9119
  392MOL0     H52882   3.238   9.740  -0.717  0.2084  0.4106  1.6113
  392MOL0     H52883   3.397   9.916  -0.739 -0.6486  0.4329  1.0365
  392MOL0     H52884   3.810   9.845  -0.572  0.0813  0.4212 -0.6291
  392MOL0     H52885   3.818   9.832  -0.748 -2.5431 -1.5581 -1.1587
  392MOL0     H52886   3.809  10.086  -0.754 -2.1734 -0.6504  0.4540
  392MOL0     H52887   3.784  10.104  -0.586 -0.4395  0.9002 -0.1136
  392MOL0     H52888   4.035   9.950  -0.583  1.0093  0.8294 -0.1840
  392MOL0     H52889   4.026  10.036  -0.738 -1.4298 -3.8859 -0.8151
  392MOL0     H52890   3.984  10.240  -0.601  2.1391  1.0233  0.0671
  392MOL0     H52891   4.143  10.162  -0.581 -0.4808 -2.4639 -4.1148
  392MOL0     H52892   4.088  10.100  -0.345 -2.2994 -0.1690  3.5972
  392MOL0     H52893   3.922  10.145  -0.381  0.8750 -2.8668 -0.7302
  392MOL0     H52894   4.176  10.314  -0.373  0.1475  0.1129 -0.8086
  392MOL0     H52895   4.004  10.382  -0.386  3.1564  2.5368 -1.6813
  392MOL0     H52896   4.083  10.422  -0.157 -2.4052  0.8663 -1.4823
  392MOL0     H52897   4.106  10.240  -0.135 -0.3253 -1.5952 -1.7663
  392MOL0     H52898   3.836  10.311  -0.213  0.0841  2.2823  0.0087
  392MOL0     H52899   3.884  10.192  -0.102 -1.4129 -0.7407 -3.7911
  392MOL0     H52900   3.694   9.652  -0.572  1.0574  0.2276 -2.2922
  392MOL0     H52901   3.527   9.452  -0.590 -1.0499  0.6706  2.1494
  392MOL0     H52902   3.131   9.299  -0.315 -0.2860  1.1524  1.2302
  392MOL0     H52903   2.931   9.181  -0.299 -0.9610  0.8601  0.4867
  392MOL0     H52904   1.059   8.690   0.247 -0.1777  0.3658 -1.0585
  392MOL0     H52905   0.871   8.652   0.359 -1.5004 -0.4173 -2.1188
  392MOL0     H52906   0.553   8.294   0.462  1.5696 -3.7119 -0.6495
  392MOL0     H52907   0.356   8.200   0.602  1.1053  0.4926 -2.0287
  392MOL0     H52908   0.366   8.269   1.035  0.6312 -0.3034 -1.4114
  392MOL0     H52909   0.429   8.105   1.040  2.0033  0.6081 -0.4329
  392MOL0     H52910   0.200   8.147   1.144  2.3741  0.2224  0.0708
  392MOL0     H52911   0.186   8.028   1.019 -1.5227  0.5286  3.0261
  392MOL0     H52912   0.120   8.190   0.857  0.5693 -0.4629 -0.4884
  392MOL0     H52913   0.111   8.327   0.975 -2.1000 -0.5735 -0.0816
  392MOL0     H52914  -0.112   8.216   0.946 -1.9245  1.0290  2.5436
  392MOL0     H52915  -0.030   8.077   1.026  2.3653  0.3495  3.4290
  392MOL0     H52916  -0.094   8.362   1.349 -2.5818  0.7866 -0.3973
  392MOL0     H52917   0.605   8.219   0.956 -1.0683  0.5159 -0.5946
  392MOL0     H52918   0.899   8.261   0.836  0.6909 -0.1796 -1.5117
  392MOL0     H52919   0.856   8.439   0.817  2.2329 -1.0756  2.1853
  392MOL0     H52920   0.796   8.345   0.948 -1.0403  2.6781 -0.1996
  393MOL0     O52921   1.815   6.880   3.443  0.6046  0.2946 -0.0591
  393MOL0     C52922   1.879   6.955   3.523  0.5281  0.0723 -0.3150
  393MOL0     O52923   2.012   6.956   3.537 -0.2370  0.3819  0.2962
  393MOL0     C52924   2.097   6.947   3.431  0.5299 -0.0637  0.4961
  393MOL0     C52925   2.222   6.902   3.463 -0.4340  0.2672 -0.1382
  393MOL0     C52926   2.312   6.861   3.361  0.4109 -0.5395  0.2987
  393MOL0     C52927   2.269   6.858   3.227 -0.1264 -1.5671  0.2106
  393MOL0     O52928   2.353   6.807   3.132 -0.1114  0.5746 -0.5280
  393MOL0     C52929   2.332   6.823   2.991  1.2802 -0.0504  0.3680
  393MOL0     C52930   2.462   6.785   2.925  0.3562 -0.1448 -0.0165
  393MOL0     C52931   2.583   6.869   2.967 -0.6325  0.2580 -0.8103
  393MOL0     C52932   2.706   6.818   2.895  0.3809  0.3473  0.6427
  393MOL0     C52933   2.827   6.899   2.942 -0.5355  0.6512  0.3400
  393MOL0     C52934   2.960   6.831   2.912  0.0149  0.4246  0.1341
  393MOL0     C52935   3.076   6.894   2.989 -0.3661  0.0677  0.9076
  393MOL0     C52936   3.099   7.041   2.934  0.4711 -0.3180  0.1789
  393MOL0     N52937   3.215   7.091   3.012  0.0997  0.6146 -0.2347
  393MOL0     C52938   3.342   7.113   2.975  0.5795  0.8044  0.1703
  393MOL0     C52939   3.394   7.154   3.087 -0.5633  0.0782  0.2911
  393MOL0     C52940   3.545   7.192   3.090 -0.3789 -0.6605 -0.5489
  393MOL0     C52941   3.571   7.272   3.216  0.0054 -0.8958 -1.0043
  393MOL0     C52942   3.515   7.409   3.217 -0.7879 -0.0830  0.4294
  393MOL0     C52943   3.609   7.531   3.189 -0.8907 -0.0056  0.2634
  393MOL0     O52944   3.695   7.516   3.073  0.6431  0.1199 -0.2155
  393MOL0     C52945   3.818   7.583   3.076  1.1060 -0.3705  0.2231
  393MOL0     C52946   3.848   7.702   3.144 -0.8693  0.5454  0.6746
  393MOL0     C52947   3.977   7.750   3.145 -0.9631  0.3745  0.0283
  393MOL0     C52948   4.078   7.679   3.074  0.0386 -0.2695  0.3846
  393MOL0     C52949   4.215   7.729   3.054  0.6247 -0.1288  1.1073
  393MOL0     O52950   4.256   7.746   2.929  0.1922  0.3160  0.1495
  393MOL0     C52951   4.393   7.798   2.918  0.6335  0.3586 -0.8065
  393MOL0     C52952   4.495   7.721   2.859  0.4593 -1.3583  0.8211
  393MOL0     C52953   4.627   7.762   2.874  0.2878 -0.4930  0.0566
  393MOL0     C52954   4.669   7.889   2.921  0.9312 -0.5909  0.1674
  393MOL0     O52955   4.802   7.926   2.901  0.3445  0.5297  0.6282
  393MOL0     C52956   4.853   8.025   2.999  0.8656 -0.2733  0.2553
  393MOL0     C52957   4.998   8.024   2.960 -0.7955  0.8550  0.7270
  393MOL0     C52958   5.075   8.119   3.047  0.6835  0.0681 -0.5539
  393MOL0     C52959   5.219   8.098   3.057  0.2855  0.0127  0.1507
  393MOL0     C52960   5.280   8.190   3.171  0.4474 -0.0504  0.4595
  393MOL0     C52961   5.419   8.151   3.206  0.6323  0.6977  0.0761
  393MOL0     C52962   5.491   8.262   3.283  1.8145 -1.4617 -0.3961
  393MOL0     C52963   5.640   8.228   3.326 -0.3805  0.8693  0.5040
  393MOL0    Cl52964   5.654   8.082   3.422 -0.1160 -0.4708 -0.0629
  393MOL0     C52965   4.572   7.968   2.991  0.3429 -0.0955 -0.1065
  393MOL0     C52966   4.438   7.917   2.985 -0.5144  0.0017 -0.4548
  393MOL0     O52967   4.273   7.770   3.155  0.2611 -1.0269 -0.2161
  393MOL0     C52968   4.045   7.561   3.009 -0.4723  0.0794  0.7449
  393MOL0     C52969   3.915   7.511   3.009  0.6073  0.2226 -0.2172
  393MOL0     N52970   3.302   7.162   3.189 -0.4910  0.1563  0.1167
  393MOL0     N52971   3.199   7.113   3.141  0.6984 -0.2153  0.2873
  393MOL0     C52972   2.136   6.905   3.193 -0.7332  0.9459  0.9714
  393MOL0     C52973   2.057   6.955   3.297  0.9918 -0.1661  0.3676
  393MOL0     C52974   1.805   7.054   3.605 -1.0693  0.7754  0.1362
  393MOL0     C52975   1.884   7.161   3.656  0.0800 -0.4538 -0.5134
  393MOL0     C52976   1.822   7.258   3.738 -0.3252 -0.1693 -1.0468
  393MOL0     C52977   1.688   7.237   3.780 -0.4857 -0.1161 -0.8698
  393MOL0     O52978   1.631   7.329   3.867  0.1161  0.8369  0.0595
  393MOL0     C52979   1.640   7.467   3.832 -0.1414 -0.0786 -0.1157
  393MOL0     C52980   1.500   7.528   3.821  0.3530  0.9251 -0.3367
  393MOL0     C52981   1.512   7.680   3.817  0.9120  0.5155  0.4299
  393MOL0     C52982   1.381   7.758   3.831  0.6011  0.6560  0.0006
  393MOL0     C52983   1.283   7.740   3.723 -0.0614  0.5486  0.0620
  393MOL0     C52984   1.206   7.731   3.628  1.0454 -0.0450 -1.0350
  393MOL0     C52985   1.623   7.126   3.738 -0.1487 -0.1263 -0.3337
  393MOL0     C52986   1.678   7.039   3.646  1.1129  0.1125  0.9599
  393MOL0     C52987   1.583   6.929   3.604 -0.1965 -1.3276 -0.2729
  393MOL0     H52988   2.251   6.896   3.567 -1.6656  1.8858  0.3368
  393MOL0     H52989   2.413   6.825   3.376  1.4061  2.6525  2.0510
  393MOL0     H52990   2.248   6.768   2.947 -0.3364  2.7188 -0.2717
  393MOL0     H52991   2.314   6.930   2.975 -0.5223 -0.5372 -1.1884
  393MOL0     H52992   2.449   6.794   2.817 -0.5221 -0.6346  0.0428
  393MOL0     H52993   2.497   6.683   2.944  1.7045  0.4935  1.1268
  393MOL0     H52994   2.604   6.837   3.069 -2.6198 -0.2596 -0.5029
  393MOL0     H52995   2.577   6.978   2.963  0.7505  0.3413 -1.0233
  393MOL0     H52996   2.733   6.714   2.917 -0.2797 -0.1942 -0.9509
  393MOL0     H52997   2.697   6.831   2.787 -1.1295 -1.6333  0.4867
  393MOL0     H52998   2.836   7.000   2.904  1.7572  1.7502  3.3678
  393MOL0     H52999   2.825   6.895   3.052 -1.0098  1.9652  0.3915
  393MOL0     H53000   2.960   6.728   2.947 -1.7879  0.2106 -0.3922
  393MOL0     H53001   2.980   6.820   2.805 -0.3933  2.0347 -0.1435
  393MOL0     H53002   3.165   6.831   2.973  0.3409  1.0444  0.9079
  393MOL0     H53003   3.057   6.889   3.096  0.3037 -3.9499  0.9941
  393MOL0     H53004   3.121   7.037   2.827 -2.1246  0.8167 -0.4802
  393MOL0     H53005   3.011   7.101   2.958 -1.0594 -2.6259  0.6298
  393MOL0     H53006   3.374   7.106   2.872 -2.6597  0.6380 -0.9472
  393MOL0     H53007   3.601   7.099   3.088 -0.4495 -0.6913 -1.6779
  393MOL0     H53008   3.583   7.254   3.008  0.6618  0.5092  0.7591
  393MOL0     H53009   3.539   7.210   3.300  0.5157 -0.1891 -0.2709
  393MOL0     H53010   3.677   7.297   3.221 -0.5968  1.9857 -0.3229
  393MOL0     H53011   3.470   7.427   3.315 -1.0034 -1.6985  0.6497
  393MOL0     H53012   3.432   7.414   3.147 -1.6085  1.1418  1.4342
  393MOL0     H53013   3.669   7.538   3.281 -1.0646  1.9503  0.2842
  393MOL0     H53014   3.550   7.622   3.180  0.1056  0.5161 -1.4592
  393MOL0     H53015   3.766   7.747   3.199 -0.5829  1.9492 -0.0049
  393MOL0     H53016   4.001   7.838   3.205 -1.3414  0.5374 -0.0578
  393MOL0     H53017   4.463   7.636   2.798 -1.0838 -1.4324  1.6885
  393MOL0     H53018   4.702   7.699   2.828 -1.4824 -1.3071 -1.8534
  393MOL0     H53019   4.818   8.128   2.984  0.9909 -0.1030  1.0609
  393MOL0     H53020   4.845   7.984   3.100  1.0720 -3.1717 -0.8107
  393MOL0     H53021   5.028   7.922   2.985 -0.8805  0.6711  0.1109
  393MOL0     H53022   5.014   8.050   2.854  2.2504  0.2249  0.9491
  393MOL0     H53023   5.062   8.213   2.993 -2.3189 -0.9425 -1.8088
  393MOL0     H53024   5.029   8.120   3.147  1.7684 -1.0632 -0.0144
  393MOL0     H53025   5.261   8.129   2.961 -0.6458  2.6571  0.4997
  393MOL0     H53026   5.246   7.995   3.082  0.1998  0.2644  1.3289
  393MOL0     H53027   5.214   8.187   3.258 -1.2982  4.7354 -0.4031
  393MOL0     H53028   5.276   8.292   3.133  0.0334  0.0143  0.6775
  393MOL0     H53029   5.411   8.058   3.264 -1.9595  0.1399 -1.0182
  393MOL0     H53030   5.468   8.131   3.110 -0.0324  1.6573 -0.4840
  393MOL0     H53031   5.441   8.280   3.378 -0.4701 -0.4735 -1.7100
  393MOL0     H53032   5.479   8.351   3.220  0.1487 -1.0935  0.4033
  393MOL0     H53033   5.694   8.210   3.232  1.7818  1.9136  1.4882
  393MOL0     H53034   5.690   8.316   3.366 -1.0431  2.4454 -1.9240
  393MOL0     H53035   4.601   8.054   3.050 -2.2306  1.7632 -1.3552
  393MOL0     H53036   4.364   7.976   3.038 -1.7598 -1.6696 -0.2416
  393MOL0     H53037   4.125   7.508   2.958  1.8835  2.0024  2.2314
  393MOL0     H53038   3.899   7.419   2.954  1.1745 -1.0990  1.7267
  393MOL0     H53039   2.100   6.894   3.092  1.1691  0.4763  0.3065
  393MOL0     H53040   1.961   6.985   3.256  1.6504  0.2954 -0.8803
  393MOL0     H53041   1.987   7.175   3.627  0.4130 -0.2196  0.7149
  393MOL0     H53042   1.891   7.338   3.760  1.6830 -2.1495  0.3395
  393MOL0     H53043   1.702   7.479   3.743  1.8432 -1.9011  0.9200
  393MOL0     H53044   1.692   7.524   3.910 -1.4778 -0.9079  1.4658
  393MOL0     H53045   1.444   7.518   3.914  2.2474 -2.1169  0.5897
  393MOL0     H53046   1.438   7.488   3.740  1.2586 -1.5971  0.1205
  393MOL0     H53047   1.568   7.717   3.730  2.2316 -3.1044 -0.4494
  393MOL0     H53048   1.590   7.701   3.891  2.9335  2.1487 -1.9794
  393MOL0     H53049   1.340   7.742   3.931  0.0190  4.4554  0.4876
  393MOL0     H53050   1.405   7.864   3.828  1.5204  0.4646  0.2810
  393MOL0     H53051   1.147   7.723   3.539 -0.9616  1.0752  0.1317
  393MOL0     H53052   1.521   7.124   3.777  1.4235  2.1900  4.6986
  393MOL0     H53053   1.478   6.952   3.626 -0.7143 -1.6224 -2.2096
  393MOL0     H53054   1.577   6.924   3.495  2.7121 -2.6563 -0.4549
  393MOL0     H53055   1.607   6.833   3.649 -0.0558  0.4614  3.9803
  394MOL0     O53056   8.532   1.075   5.458 -0.0456  0.3150  0.2543
  394MOL0     C53057   8.493   1.135   5.555 -0.5497  0.0824  0.1366
  394MOL0     O53058   8.550   1.141   5.672 -0.5038  0.0664 -0.5462
  394MOL0     C53059   8.680   1.086   5.688  0.1089 -0.7804  0.1877
  394MOL0     C53060   8.705   1.037   5.815  0.4127  1.2252 -1.7036
  394MOL0     C53061   8.833   0.988   5.855  0.7737 -1.0718  0.1376
  394MOL0     C53062   8.941   0.999   5.766 -0.0654  0.4423  0.0751
  394MOL0     O53063   9.073   0.964   5.791  0.0257  0.1884 -0.5029
  394MOL0     C53064   9.107   0.873   5.898  1.3046 -0.1509 -0.4370
  394MOL0     C53065   9.232   0.794   5.856  1.0644 -0.2203 -0.1898
  394MOL0     C53066   9.277   0.730   5.982 -0.1849 -0.1674 -0.2789
  394MOL0     C53067   9.385   0.624   5.968 -0.8117 -0.6979 -0.1526
  394MOL0     C53068   9.505   0.666   5.892 -0.4936 -0.4871  0.4781
  394MOL0     C53069   9.575   0.803   5.930  0.5395 -0.2170  0.4244
  394MOL0     C53070   9.646   0.788   6.061 -0.4818  0.5299  0.3416
  394MOL0     C53071   9.699   0.915   6.121  0.7677 -0.5298  0.5049
  394MOL0     N53072   9.787   0.879   6.234 -0.3480  0.5335  0.1668
  394MOL0     C53073   9.912   0.821   6.221  0.3862  0.1269 -0.2978
  394MOL0     C53074   9.944   0.765   6.348 -0.0885  0.4662 -0.1051
  394MOL0     C53075  10.053   0.688   6.389 -0.1313 -0.2226 -0.7414
  394MOL0     C53076  10.160   0.778   6.436 -0.2457  1.1881 -0.1372
  394MOL0     C53077  10.262   0.702   6.530 -0.3741  0.0487 -0.9179
  394MOL0     C53078  10.375   0.797   6.570  0.1553 -0.1177 -0.0852
  394MOL0     O53079  10.446   0.835   6.458 -0.3631 -0.5497  0.1262
  394MOL0     C53080  10.563   0.774   6.425  0.3244  0.1057  0.1344
  394MOL0     C53081  10.587   0.640   6.468  0.7098 -0.7119  0.0352
  394MOL0     C53082  10.683   0.565   6.409 -0.4051 -0.2567 -0.4401
  394MOL0     C53083  10.771   0.627   6.318  0.7528 -0.2489  0.2062
  394MOL0     C53084  10.882   0.541   6.256 -0.5995  0.2562 -0.3469
  394MOL0     O53085  10.984   0.602   6.193 -0.0511 -0.2211  0.3610
  394MOL0     C53086  11.080   0.533   6.130  0.8320 -0.4883  0.5200
  394MOL0     C53087  11.207   0.548   6.170 -0.7573 -0.7485 -0.0951
  394MOL0     C53088  11.318   0.474   6.125  0.3863 -0.7420  0.2215
  394MOL0     C53089  11.289   0.376   6.034  1.0763  0.5338 -0.3572
  394MOL0     O53090  11.399   0.302   6.003  0.2427 -0.2701  0.4082
  394MOL0     C53091  11.405   0.211   5.887 -0.9089  0.0842 -0.4723
  394MOL0     C53092  11.553   0.158   5.893 -0.1713  0.8732  0.7321
  394MOL0     C53093  11.576   0.030   5.814 -0.1670 -0.7572 -0.1995
  394MOL0     C53094  11.727  -0.006   5.812  0.5331 -0.2254 -0.9103
  394MOL0     C53095  11.809   0.076   5.724  0.0030 -1.1791  0.7726
  394MOL0     C53096  11.751   0.097   5.585  0.4031 -0.9280 -0.4234
  394MOL0     C53097  11.860   0.160   5.488 -0.3515 -0.1971 -0.4254
  394MOL0     C53098  11.962   0.048   5.435  0.2719  0.2525  0.2627
  394MOL0    Cl53099  12.076   0.112   5.311  0.2178  0.2890 -0.0974
  394MOL0     C53100  11.156   0.354   5.986  0.1432 -0.9684  0.2323
  394MOL0     C53101  11.055   0.427   6.037 -0.5248 -0.4165  0.5463
  394MOL0     O53102  10.878   0.418   6.286  0.3122  0.6466  0.0570
  394MOL0     C53103  10.749   0.756   6.268  0.4894 -0.0674  0.3552
  394MOL0     C53104  10.648   0.831   6.331  0.6386 -0.1854  0.0725
  394MOL0     N53105   9.837   0.800   6.430  0.3282 -1.1412  0.3943
  394MOL0     N53106   9.752   0.872   6.363  0.4339 -0.4809 -0.0376
  394MOL0     C53107   8.916   1.047   5.640  0.1598 -0.0157  0.0804
  394MOL0     C53108   8.795   1.098   5.597  0.1404  0.1162  0.4859
  394MOL0     C53109   8.366   1.204   5.536  1.0304 -0.7710 -0.3877
  394MOL0     C53110   8.280   1.226   5.645 -0.1747 -0.3736 -0.8099
  394MOL0     C53111   8.167   1.305   5.638 -0.4923 -0.1428 -0.3273
  394MOL0     C53112   8.130   1.380   5.527 -0.8743  0.3016 -0.2191
  394MOL0     O53113   8.011   1.459   5.516 -0.6086  0.2713 -0.4518
  394MOL0     C53114   8.015   1.568   5.430  0.0171 -0.4594 -0.1402
  394MOL0     C53115   7.888   1.575   5.357  0.0541 -0.4544  0.2843
  394MOL0     C53116   7.777   1.611   5.458  0.7720 -0.0288  0.9779
  394MOL0     C53117   7.655   1.646   5.374 -1.5853  0.4073 -0.3202
  394MOL0     C53118   7.541   1.681   5.458 -0.0501  0.6391 -0.2465
  394MOL0     C53119   7.442   1.718   5.522 -0.5577  0.3832  0.4557
  394MOL0     C53120   8.203   1.345   5.412 -1.1242  0.3414 -0.5185
  394MOL0     C53121   8.322   1.269   5.415 -0.6349  0.6599 -1.0201
  394MOL0     C53122   8.403   1.262   5.290  0.3172  0.2052  0.0844
  394MOL0     H53123   8.621   1.024   5.882  0.1611  3.0746 -1.6119
  394MOL0     H53124   8.842   0.939   5.952 -1.3320 -0.4129  0.7104
  394MOL0     H53125   9.142   0.930   5.985  1.9686 -2.4463  0.8669
  394MOL0     H53126   9.027   0.802   5.920  3.0085 -2.2049 -0.5317
  394MOL0     H53127   9.305   0.862   5.810  1.5458  1.2882  2.5744
  394MOL0     H53128   9.209   0.716   5.783  1.4841 -0.0748 -0.4804
  394MOL0     H53129   9.192   0.686   6.036  0.0882 -0.1781  0.1429
  394MOL0     H53130   9.317   0.800   6.055  0.9452  1.9892 -2.7799
  394MOL0     H53131   9.412   0.600   6.072 -0.5389 -1.1216 -0.3184
  394MOL0     H53132   9.348   0.531   5.924  1.3727 -0.4140 -2.8326
  394MOL0     H53133   9.580   0.588   5.901  1.0029  0.8885  0.3678
  394MOL0     H53134   9.482   0.675   5.785  1.9104  0.4517 -0.0219
  394MOL0     H53135   9.637   0.835   5.846  2.9931 -4.6238  0.2530
  394MOL0     H53136   9.498   0.880   5.939 -1.3819 -1.7569 -1.7235
  394MOL0     H53137   9.726   0.715   6.050 -1.3983 -0.6735  1.3362
  394MOL0     H53138   9.587   0.724   6.128  1.8165 -1.6577  0.4159
  394MOL0     H53139   9.763   0.980   6.060  0.7774 -1.3793 -0.4119
  394MOL0     H53140   9.610   0.969   6.156  0.0584  1.2995 -3.5550
  394MOL0     H53141   9.971   0.811   6.131  2.6474  3.2608  0.6376
  394MOL0     H53142  10.020   0.628   6.475 -2.3361 -0.2552 -1.5324
  394MOL0     H53143  10.099   0.624   6.313  1.8390  0.7488 -0.4381
  394MOL0     H53144  10.218   0.807   6.348  1.2415  1.6768  0.9506
  394MOL0     H53145  10.126   0.877   6.469  1.3643  1.9882 -0.7211
  394MOL0     H53146  10.305   0.613   6.484  1.1458 -1.6737  3.3168
  394MOL0     H53147  10.211   0.667   6.620  0.8652  0.7468  0.0845
  394MOL0     H53148  10.441   0.758   6.647  2.6880 -0.5520 -2.3291
  394MOL0     H53149  10.335   0.889   6.614  0.4143 -0.6604  1.3354
  394MOL0     H53150  10.517   0.585   6.530 -1.8048  1.6267 -0.5524
  394MOL0     H53151  10.706   0.468   6.450  0.5331 -0.0699 -0.4973
  394MOL0     H53152  11.229   0.620   6.249  0.0824  1.3233 -2.1119
  394MOL0     H53153  11.420   0.484   6.162  1.0527 -0.8038 -1.5253
  394MOL0     H53154  11.327   0.134   5.888  0.8044 -1.7884 -2.1024
  394MOL0     H53155  11.399   0.272   5.797  0.4369  1.5009  0.3442
  394MOL0     H53156  11.615   0.236   5.848 -0.0902  1.0145  1.0794
  394MOL0     H53157  11.593   0.148   5.995 -0.2943  3.4002  1.0998
  394MOL0     H53158  11.517  -0.049   5.860 -3.4900  1.2303 -0.6971
  394MOL0     H53159  11.533   0.050   5.715  2.1708  2.7384 -0.6812
  394MOL0     H53160  11.740  -0.113   5.795  2.4962 -0.1554 -0.1029
  394MOL0     H53161  11.756   0.010   5.916 -3.7159  1.4074  0.2202
  394MOL0     H53162  11.909   0.032   5.720  0.9314  0.9331 -1.8169
  394MOL0     H53163  11.809   0.177   5.767 -3.8098 -1.4477  1.7883
  394MOL0     H53164  11.717   0.004   5.538  0.3093 -1.9142  1.4816
  394MOL0     H53165  11.670   0.170   5.594  0.5427 -0.5543 -1.9420
  394MOL0     H53166  11.910   0.244   5.539 -0.1714 -0.1901 -0.6110
  394MOL0     H53167  11.799   0.199   5.406 -1.8216 -0.8979  0.2961
  394MOL0     H53168  12.040   0.018   5.506  1.8627 -2.2942 -2.3211
  394MOL0     H53169  11.917  -0.049   5.411 -0.2202  0.4271  0.4722
  394MOL0     H53170  11.130   0.271   5.922 -2.3047 -0.1787  0.0973
  394MOL0     H53171  10.954   0.393   6.014  0.0137 -1.7344  0.0204
  394MOL0     H53172  10.799   0.793   6.179  0.1660 -1.4770 -0.4517
  394MOL0     H53173  10.614   0.931   6.307 -1.2783 -0.0126  3.0020
  394MOL0     H53174   9.004   1.047   5.576  0.9940  1.7898  1.1739
  394MOL0     H53175   8.785   1.142   5.498  0.4260 -1.9400 -0.5108
  394MOL0     H53176   8.305   1.188   5.744 -3.4646  0.5078  0.4724
  394MOL0     H53177   8.109   1.322   5.727 -1.8404  0.6762 -1.3217
  394MOL0     H53178   8.097   1.573   5.358  0.5712  0.1695  0.5240
  394MOL0     H53179   8.017   1.662   5.487 -2.5855 -0.0079 -0.6763
  394MOL0     H53180   7.873   1.489   5.291 -1.2853 -1.2116  1.5168
  394MOL0     H53181   7.904   1.661   5.291  0.1198  0.1836  1.1184
  394MOL0     H53182   7.810   1.692   5.523 -1.9415  0.4088  1.9315
  394MOL0     H53183   7.763   1.522   5.521  4.3292 -1.0766  0.5302
  394MOL0     H53184   7.689   1.725   5.307 -1.0342 -0.6911 -1.3733
  394MOL0     H53185   7.623   1.567   5.306  0.7828 -1.1585  0.2361
  394MOL0     H53186   7.360   1.753   5.581  0.0784  1.5867  0.6515
  394MOL0     H53187   8.168   1.379   5.316 -0.7832 -1.1678 -1.2104
  394MOL0     H53188   8.350   1.315   5.210  1.0307 -2.5076 -2.3306
  394MOL0     H53189   8.499   1.314   5.297 -0.7179  2.5911 -1.9124
  394MOL0     H53190   8.420   1.161   5.253 -3.1593 -0.8167  0.8208
  395MOL0     O53191  11.291   9.412   0.123  0.5330  0.1544 -0.3952
  395MOL0     C53192  11.289   9.294   0.151 -1.2273  0.2735 -0.0064
  395MOL0     O53193  11.370   9.235   0.254  0.3983 -0.9775 -0.2247
  395MOL0     C53194  11.469   9.319   0.303 -1.1663 -0.0540 -0.6689
  395MOL0     C53195  11.604   9.279   0.307 -0.2991 -0.1500  0.0918
  395MOL0     C53196  11.698   9.369   0.358  0.3910  0.0200  0.4898
  395MOL0     C53197  11.671   9.487   0.424  0.7067 -0.0139  1.6163
  395MOL0     O53198  11.776   9.566   0.466  0.2900  0.5287  0.2116
  395MOL0     C53199  11.745   9.701   0.505 -0.0496 -1.0833  0.4585
  395MOL0     C53200  11.874   9.786   0.543  0.0426 -0.2986  0.5437
  395MOL0     C53201  11.967   9.706   0.632 -0.3081  0.7556 -0.4271
  395MOL0     C53202  12.080   9.796   0.699 -0.5940 -0.1711 -0.3499
  395MOL0     C53203  12.164   9.724   0.800  0.0501  0.3869  0.7897
  395MOL0     C53204  12.271   9.811   0.851  0.0931 -0.1444 -0.8697
  395MOL0     C53205  12.351   9.757   0.973  0.4452  0.0078  0.0941
  395MOL0     C53206  12.431   9.626   0.937  0.1097  0.2323 -0.0638
  395MOL0     N53207  12.330   9.517   0.936  0.2718 -0.4994 -0.4286
  395MOL0     C53208  12.308   9.424   0.834  0.6723  0.1094  0.2015
  395MOL0     C53209  12.226   9.326   0.890  0.6321  0.4382  1.0331
  395MOL0     C53210  12.173   9.217   0.810 -0.5759 -0.3572 -0.4064
  395MOL0     C53211  12.107   9.261   0.682  0.2941 -0.1665 -0.4603
  395MOL0     C53212  11.999   9.361   0.707  0.0204 -0.6986  0.4266
  395MOL0     C53213  11.874   9.304   0.753  0.6739  0.1197 -0.6199
  395MOL0     O53214  11.774   9.401   0.789  0.4241  0.0446 -0.0028
  395MOL0     C53215  11.787   9.490   0.898  0.5405 -0.1763 -0.1644
  395MOL0     C53216  11.709   9.598   0.891 -0.7741 -0.9394  0.4190
  395MOL0     C53217  11.716   9.699   0.984 -0.0472  0.0207  0.1536
  395MOL0     C53218  11.810   9.687   1.094  0.1336  0.2267  0.3306
  395MOL0     C53219  11.828   9.777   1.209  0.0158 -1.1099 -0.4386
  395MOL0     O53220  11.918   9.750   1.304  0.7282 -0.5034 -0.6437
  395MOL0     C53221  11.948   9.832   1.406  0.5436  0.0726 -0.0093
  395MOL0     C53222  11.957   9.978   1.383  0.2939 -0.0043 -0.8368
  395MOL0     C53223  11.986  10.072   1.485 -0.0755 -0.6705  0.4219
  395MOL0     C53224  12.024  10.028   1.610  0.1142  0.5040  0.6256
  395MOL0     O53225  12.059  10.111   1.719 -0.6584 -0.2592 -0.0962
  395MOL0     C53226  12.085  10.056   1.853 -0.4688 -0.1336  0.5536
  395MOL0     C53227  12.096  10.169   1.952 -0.5160 -0.2126 -0.1124
  395MOL0     C53228  12.126  10.134   2.101  0.3799 -0.4476  0.2469
  395MOL0     C53229  12.132  10.268   2.183  0.4672 -0.4215 -0.6538
  395MOL0     C53230  12.159  10.248   2.335  0.1312 -0.3031 -0.1871
  395MOL0     C53231  12.152  10.385   2.410  0.7913  0.7081 -0.0275
  395MOL0     C53232  12.171  10.374   2.565  0.2169 -0.3966  0.1742
  395MOL0     C53233  12.193  10.508   2.640 -0.5725  0.4720  0.4226
  395MOL0    Cl53234  12.064  10.623   2.621  0.4140 -0.0299  0.6020
  395MOL0     C53235  12.043   9.882   1.626 -0.3415 -0.1948  0.7300
  395MOL0     C53236  12.005   9.794   1.526 -0.3541  0.0439  0.7932
  395MOL0     O53237  11.759   9.881   1.205 -0.5025 -0.0724  0.3214
  395MOL0     C53238  11.886   9.566   1.101 -1.0156  0.8834  0.5376
  395MOL0     C53239  11.873   9.463   1.002  0.6528 -0.3718 -0.2281
  395MOL0     N53240  12.199   9.366   1.021  0.2049  0.2237  0.7539
  395MOL0     N53241  12.266   9.472   1.048  0.8151  0.3994 -0.2024
  395MOL0     C53242  11.534   9.510   0.445 -0.5083  0.4696  0.7914
  395MOL0     C53243  11.436   9.430   0.378  0.3035  1.3927 -0.2139
  395MOL0     C53244  11.191   9.196   0.069 -0.0561 -0.5035 -0.5077
  395MOL0     C53245  11.204   9.200  -0.068  0.0315  0.5359 -0.0125
  395MOL0     C53246  11.128   9.120  -0.145 -0.6153 -0.0022 -0.1748
  395MOL0     C53247  11.014   9.049  -0.093  1.2267 -0.3149 -1.1891
  395MOL0     O53248  10.945   8.974  -0.178  0.1465  0.5186 -1.0209
  395MOL0     C53249  10.935   8.833  -0.145 -0.2958  0.1851  0.5443
  395MOL0     C53250  10.903   8.753  -0.268 -0.9094  0.0027 -0.5904
  395MOL0     C53251  10.752   8.765  -0.294 -0.3517  0.3460 -0.5951
  395MOL0     C53252  10.669   8.707  -0.182 -1.2977 -0.6364  0.3627
  395MOL0     C53253  10.529   8.724  -0.197 -0.1567  0.1829 -0.9169
  395MOL0     C53254  10.413   8.697  -0.198  0.2935  0.9372  0.2170
  395MOL0     C53255  10.994   9.053   0.051  0.2590 -0.2384  0.9503
  395MOL0     C53256  11.085   9.125   0.130 -0.5653  0.1972  1.2770
  395MOL0     C53257  11.065   9.138   0.266  0.6797  0.2004 -0.6850
  395MOL0     H53258  11.641   9.198   0.246  2.3828  0.4439  0.8053
  395MOL0     H53259  11.803   9.342   0.354  0.5127  0.6132 -0.7920
  395MOL0     H53260  11.689   9.756   0.429  0.8098  0.8955  1.1698
  395MOL0     H53261  11.683   9.705   0.595  2.1096  5.9886  2.3215
  395MOL0     H53262  11.845   9.880   0.590  1.8406  1.1128 -1.0274
  395MOL0     H53263  11.926   9.818   0.453  0.2953 -0.8166  0.5020
  395MOL0     H53264  12.011   9.622   0.577  2.4044  1.8837 -0.1189
  395MOL0     H53265  11.903   9.663   0.710  0.7356  1.7325  1.0128
  395MOL0     H53266  12.146   9.832   0.619 -0.5318  0.3994 -0.0415
  395MOL0     H53267  12.028   9.874   0.755 -0.2955  0.0664 -0.4000
  395MOL0     H53268  12.100   9.693   0.883 -1.2979 -0.7814 -0.6430
  395MOL0     H53269  12.205   9.640   0.744 -0.2216 -0.0282  1.2105
  395MOL0     H53270  12.349   9.836   0.778 -1.1600  1.7007 -1.6403
  395MOL0     H53271  12.222   9.904   0.882  2.1115  0.1907  1.7142
  395MOL0     H53272  12.286   9.745   1.060 -2.7554 -0.2935 -2.1497
  395MOL0     H53273  12.415   9.844   0.993 -1.4410  1.0162  2.1469
  395MOL0     H53274  12.491   9.642   0.847  0.2878  1.9978  0.3168
  395MOL0     H53275  12.498   9.601   1.019  0.2517 -1.4412 -0.6585
  395MOL0     H53276  12.342   9.440   0.732  2.1874 -0.1085  0.6494
  395MOL0     H53277  12.250   9.139   0.803  3.0640  2.7334  1.3851
  395MOL0     H53278  12.092   9.174   0.869 -1.4891  2.1700  0.3117
  395MOL0     H53279  12.179   9.317   0.621 -0.5131  0.2734 -1.0325
  395MOL0     H53280  12.067   9.181   0.620 -2.9703  0.9329  0.0648
  395MOL0     H53281  11.980   9.406   0.609 -0.0453  1.7167  1.4936
  395MOL0     H53282  12.031   9.445   0.768 -0.1198  0.8911 -1.5816
  395MOL0     H53283  11.884   9.240   0.841 -0.4049  1.7767  0.7846
  395MOL0     H53284  11.833   9.249   0.668 -2.8083  1.9447 -0.2902
  395MOL0     H53285  11.642   9.593   0.806  2.2293 -4.1263 -2.0547
  395MOL0     H53286  11.634   9.769   0.969 -2.2782 -2.7457 -1.5260
  395MOL0     H53287  11.919  10.027   1.294 -1.7501 -0.8672 -0.5094
  395MOL0     H53288  11.981  10.176   1.454 -1.0046 -1.6597 -3.2285
  395MOL0     H53289  12.008   9.984   1.885 -0.9920  0.6947  1.1983
  395MOL0     H53290  12.178   9.999   1.852 -0.9421 -0.9630 -1.6237
  395MOL0     H53291  12.182  10.233   1.932  0.9251 -1.8351  0.6834
  395MOL0     H53292  12.006  10.231   1.955 -1.0374 -0.9840  0.7074
  395MOL0     H53293  12.045  10.070   2.138 -1.0526  2.1917  1.9517
  395MOL0     H53294  12.212  10.067   2.114  1.1056  0.2816 -0.6815
  395MOL0     H53295  12.035  10.318   2.181  1.8209  2.4359 -1.0552
  395MOL0     H53296  12.206  10.339   2.144  1.7682  0.7566  3.4020
  395MOL0     H53297  12.254  10.196   2.351  0.7977  1.4871  2.4149
  395MOL0     H53298  12.078  10.190   2.379  0.1419  1.0254  1.7216
  395MOL0     H53299  12.230  10.449   2.368  1.2257  1.3834  1.7351
  395MOL0     H53300  12.058  10.435   2.384  0.1876 -0.8052 -0.9418
  395MOL0     H53301  12.266  10.327   2.590  0.8051  1.0721  0.8508
  395MOL0     H53302  12.081  10.324   2.602 -2.0324  2.2584 -1.2751
  395MOL0     H53303  12.213  10.493   2.747 -1.0738  1.4689  0.6650
  395MOL0     H53304  12.280  10.553   2.593 -2.5134  2.5604 -1.3927
  395MOL0     H53305  12.069   9.836   1.720  0.5075 -1.5446 -0.1328
  395MOL0     H53306  12.016   9.687   1.539 -0.3789 -0.2071 -1.0002
  395MOL0     H53307  11.953   9.549   1.185 -2.7128 -1.7328  1.4975
  395MOL0     H53308  11.929   9.371   1.017  2.1532  0.7242  1.3010
  395MOL0     H53309  11.512   9.596   0.507 -1.1160  0.7715  0.1614
  395MOL0     H53310  11.333   9.463   0.385  0.8458  3.0770  0.2099
  395MOL0     H53311  11.272   9.271  -0.115 -0.0532  0.7551  0.1946
  395MOL0     H53312  11.144   9.121  -0.252  2.2399 -0.8705  0.1381
  395MOL0     H53313  10.874   8.816  -0.056  0.8787 -2.5769  0.9053
  395MOL0     H53314  11.038   8.807  -0.117 -0.6619  0.7900  2.6751
  395MOL0     H53315  10.936   8.649  -0.252 -0.1198  0.3309 -0.0019
  395MOL0     H53316  10.959   8.799  -0.349 -0.4645 -0.2508 -0.4373
  395MOL0     H53317  10.726   8.724  -0.392 -1.5380  0.2878 -0.2692
  395MOL0     H53318  10.730   8.872  -0.305 -4.7949 -0.0165  2.3534
  395MOL0     H53319  10.708   8.605  -0.172 -3.4347 -1.5689 -0.1291
  395MOL0     H53320  10.683   8.755  -0.085 -0.2146 -0.9455  0.3734
  395MOL0     H53321  10.309   8.673  -0.200 -0.0175  2.2376 -1.1079
  395MOL0     H53322  10.908   9.000   0.091 -0.0138  0.5016  1.3549
  395MOL0     H53323  11.152   9.116   0.329  0.1909 -0.9354 -0.3786
  395MOL0     H53324  11.029   9.240   0.282 -0.0451  0.1327 -1.7532
  395MOL0     H53325  10.991   9.065   0.301 -0.6918  1.8656  0.0155
  396MOL0     O53326   4.648   4.020   6.487  0.7939 -1.2315 -0.3200
  396MOL0     C53327   4.605   4.137   6.503  1.3619 -0.4273 -0.5365
  396MOL0     O53328   4.661   4.229   6.591  0.8067  0.2643  0.5340
  396MOL0     C53329   4.767   4.189   6.666  0.1368 -0.4418 -0.9021
  396MOL0     C53330   4.757   4.211   6.805 -0.8724  0.0591 -1.5254
  396MOL0     C53331   4.866   4.173   6.882 -0.2788  0.1910  0.0359
  396MOL0     C53332   4.984   4.118   6.822  0.4187 -0.9671  0.8051
  396MOL0     O53333   5.087   4.101   6.917  0.1631  0.6978  0.5101
  396MOL0     C53334   5.213   4.105   6.849  0.3909 -0.0455  0.2324
  396MOL0     C53335   5.238   4.250   6.787 -0.2167  0.0773 -0.3476
  396MOL0     C53336   5.388   4.273   6.752 -0.4620  0.0145 -0.4967
  396MOL0     C53337   5.471   4.165   6.679  0.3639  0.5404  1.0779
  396MOL0     C53338   5.622   4.206   6.674 -0.4254  0.3125 -1.2397
  396MOL0     C53339   5.687   4.205   6.539  0.0973  0.6333 -0.3817
  396MOL0     C53340   5.841   4.192   6.570  1.1489 -0.8672  0.4084
  396MOL0     C53341   5.919   4.209   6.440 -0.1473 -0.4833 -0.1645
  396MOL0     N53342   6.060   4.183   6.459  0.1850  0.0589 -0.1390
  396MOL0     C53343   6.158   4.274   6.503  0.5210  0.7339  0.2412
  396MOL0     C53344   6.276   4.198   6.484 -0.9665  0.0862 -0.3569
  396MOL0     C53345   6.423   4.235   6.501 -0.6897 -1.3722 -0.0063
  396MOL0     C53346   6.456   4.275   6.645 -0.0307 -0.2261 -0.4696
  396MOL0     C53347   6.417   4.155   6.735 -0.2271 -0.3089 -0.1372
  396MOL0     C53348   6.414   4.202   6.879  0.3843  0.1642 -0.7338
  396MOL0     O53349   6.319   4.314   6.899 -0.5052  0.0680  0.5984
  396MOL0     C53350   6.182   4.290   6.906 -1.4689 -0.0578 -0.5500
  396MOL0     C53351   6.099   4.404   6.922 -0.4484 -0.3741 -0.4399
  396MOL0     C53352   5.966   4.392   6.948 -0.1709 -0.9820 -0.0942
  396MOL0     C53353   5.900   4.267   6.959 -0.5374  0.8304  0.3500
  396MOL0     C53354   5.749   4.264   6.994  0.0956 -0.3422 -0.5828
  396MOL0     O53355   5.682   4.145   6.993 -0.2126 -0.8735 -0.3924
  396MOL0     C53356   5.569   4.124   7.064  0.6992  0.9220 -0.5800
  396MOL0     C53357   5.509   3.994   7.051 -0.2986 -0.6627 -0.6815
  396MOL0     C53358   5.403   3.958   7.130  0.0406  0.0107 -0.7089
  396MOL0     C53359   5.337   4.041   7.217 -0.1705 -0.2810  0.0265
  396MOL0     O53360   5.220   3.998   7.279 -0.1992  0.7376  0.0599
  396MOL0     C53361   5.117   4.094   7.282  0.1602  0.4337  0.3390
  396MOL0     C53362   4.972   4.027   7.297  0.1277 -0.1303  0.7011
  396MOL0     C53363   4.945   3.929   7.189 -0.4198  0.0370 -0.1238
  396MOL0     C53364   4.820   3.839   7.222 -0.4611 -0.9372  0.6413
  396MOL0     C53365   4.763   3.767   7.103  0.8037  0.1640  0.6210
  396MOL0     C53366   4.729   3.857   6.984 -0.2064  0.2046 -0.2928
  396MOL0     C53367   4.650   3.784   6.876  0.1971  0.7087 -0.1461
  396MOL0     C53368   4.715   3.799   6.737 -1.0311 -0.5664 -0.2837
  396MOL0    Cl53369   4.858   3.691   6.710  0.1549  0.1940 -0.2314
  396MOL0     C53370   5.391   4.172   7.223  0.6014  0.1764  0.6424
  396MOL0     C53371   5.506   4.207   7.159 -0.9629  0.2567 -0.1837
  396MOL0     O53372   5.698   4.379   7.007 -0.2759  0.1145  0.2923
  396MOL0     C53373   5.983   4.152   6.931  0.3792  0.2739 -0.1061
  396MOL0     C53374   6.124   4.164   6.903  0.3418  0.7306 -0.7764
  396MOL0     N53375   6.249   4.075   6.429  0.0585 -0.0019  0.0779
  396MOL0     N53376   6.119   4.065   6.414  0.5210  0.0020  0.8629
  396MOL0     C53377   4.982   4.093   6.685  0.3253  0.8494 -0.1932
  396MOL0     C53378   4.878   4.130   6.603  0.4894 -0.7022 -0.3219
  396MOL0     C53379   4.477   4.182   6.432 -0.0773  0.3410  0.7267
  396MOL0     C53380   4.455   4.321   6.427  0.0444  0.6957  0.4036
  396MOL0     C53381   4.341   4.380   6.369 -0.1449 -0.3105  0.7981
  396MOL0     C53382   4.252   4.299   6.295 -0.3565 -0.3916 -0.3177
  396MOL0     O53383   4.149   4.368   6.235  0.4715 -1.0371  0.0101
  396MOL0     C53384   4.066   4.294   6.147  0.0695 -0.6339 -0.1333
  396MOL0     C53385   3.944   4.375   6.113  0.6603 -0.1057  0.7440
  396MOL0     C53386   3.822   4.300   6.057  0.3255 -0.3630  0.2497
  396MOL0     C53387   3.845   4.256   5.915 -0.2890 -0.0190  0.0689
  396MOL0     C53388   3.796   4.347   5.813  0.4653  0.9064 -0.1405
  396MOL0     C53389   3.748   4.430   5.739  0.4802 -0.4566 -0.3634
  396MOL0     C53390   4.276   4.161   6.299 -0.2992  0.0332  0.1363
  396MOL0     C53391   4.386   4.100   6.364  0.0913 -0.0325  0.2570
  396MOL0     C53392   4.400   3.946   6.358 -0.3415 -0.3989 -0.1683
  396MOL0     H53393   4.672   4.258   6.852  0.2823  2.9729 -2.1092
  396MOL0     H53394   4.871   4.204   6.986 -0.3621  1.5128 -0.3294
  396MOL0     H53395   5.277   4.076   6.933  0.6982 -0.9353 -0.2982
  396MOL0     H53396   5.237   4.033   6.769 -1.6144  0.4522 -0.8864
  396MOL0     H53397   5.200   4.325   6.857 -0.9376  0.9059 -1.6050
  396MOL0     H53398   5.184   4.270   6.694  0.3210 -0.4662 -0.7847
  396MOL0     H53399   5.426   4.293   6.853 -1.6972 -1.0143  0.2064
  396MOL0     H53400   5.405   4.365   6.696  3.1098 -1.6343 -2.4344
  396MOL0     H53401   5.457   4.065   6.721 -1.7463  0.3998  0.1175
  396MOL0     H53402   5.440   4.171   6.575 -0.2163 -0.4093  1.1844
  396MOL0     H53403   5.628   4.305   6.720 -1.6245 -0.6957  1.2882
  396MOL0     H53404   5.677   4.139   6.742 -0.6657 -0.4303 -1.7613
  396MOL0     H53405   5.658   4.113   6.487 -1.1496  1.2085 -0.7427
  396MOL0     H53406   5.651   4.295   6.489  0.8692  1.6226  0.7999
  396MOL0     H53407   5.856   4.090   6.608  0.4810 -1.0470  0.1997
  396MOL0     H53408   5.865   4.276   6.635  0.9896  0.5381 -1.2607
  396MOL0     H53409   5.881   4.148   6.358  2.6286 -2.9864  0.2598
  396MOL0     H53410   5.911   4.316   6.417 -3.4082 -0.0797  2.0170
  396MOL0     H53411   6.136   4.377   6.527 -0.3020  0.9722 -1.4056
  396MOL0     H53412   6.496   4.164   6.459  1.4787  1.4284 -1.2880
  396MOL0     H53413   6.437   4.321   6.435 -4.8854 -0.5568 -0.0924
  396MOL0     H53414   6.560   4.309   6.651 -0.4491  1.7441 -2.9347
  396MOL0     H53415   6.394   4.363   6.667 -0.5321 -0.8859  0.8527
  396MOL0     H53416   6.504   4.090   6.723  2.7387  3.3005 -0.1024
  396MOL0     H53417   6.325   4.102   6.708  0.2573 -0.4733 -1.5763
  396MOL0     H53418   6.512   4.249   6.897  0.9797 -0.4435 -2.1953
  396MOL0     H53419   6.399   4.110   6.935 -2.5676  0.2720 -1.2212
  396MOL0     H53420   6.153   4.497   6.932 -0.2164 -0.6271  0.7844
  396MOL0     H53421   5.921   4.484   6.985  1.2218 -0.0105 -0.7128
  396MOL0     H53422   5.550   3.932   6.973 -2.0406  0.7818 -2.8835
  396MOL0     H53423   5.356   3.861   7.117 -2.3639  1.1372 -0.8476
  396MOL0     H53424   5.149   4.153   7.368  5.1121 -4.0725  2.1572
  396MOL0     H53425   5.106   4.146   7.187  0.6338 -1.5151 -0.8357
  396MOL0     H53426   4.978   3.974   7.392  1.9879  0.4890  0.9755
  396MOL0     H53427   4.892   4.101   7.293 -0.8560 -1.1377 -3.6066
  396MOL0     H53428   4.931   3.983   7.095 -1.5474  0.0171  0.0217
  396MOL0     H53429   5.033   3.869   7.168 -0.9336 -1.2967  1.3072
  396MOL0     H53430   4.749   3.904   7.273  3.2138  3.0778  1.2835
  396MOL0     H53431   4.851   3.763   7.294  0.7109 -1.0230  0.0697
  396MOL0     H53432   4.668   3.719   7.126  0.9227 -1.3904 -1.8440
  396MOL0     H53433   4.836   3.691   7.073  0.5189  0.7834 -1.8827
  396MOL0     H53434   4.674   3.946   7.018 -1.8914 -0.4903 -1.0619
  396MOL0     H53435   4.828   3.890   6.950  1.0792 -0.7536  2.2655
  396MOL0     H53436   4.547   3.819   6.877 -0.8787 -2.2511 -0.2469
  396MOL0     H53437   4.653   3.679   6.906  0.4497  0.8642  0.3952
  396MOL0     H53438   4.650   3.772   6.654  1.8299  0.2229 -2.9673
  396MOL0     H53439   4.740   3.903   6.715  0.4941 -0.8817 -0.1504
  396MOL0     H53440   5.351   4.238   7.299  2.0074  1.2933  0.4635
  396MOL0     H53441   5.540   4.305   7.191  1.8759 -1.6038  3.1357
  396MOL0     H53442   5.938   4.053   6.924  2.4491 -0.6931 -0.4068
  396MOL0     H53443   6.168   4.069   6.878  0.0423  0.8268 -1.6948
  396MOL0     H53444   5.065   4.047   6.632 -2.1627 -2.3309 -1.6606
  396MOL0     H53445   4.878   4.105   6.497 -4.8286  1.0804 -1.0350
  396MOL0     H53446   4.521   4.386   6.483 -1.9090  1.2155  2.2748
  396MOL0     H53447   4.342   4.487   6.382 -3.3589  0.2785 -2.2232
  396MOL0     H53448   4.027   4.202   6.191  3.8357 -2.2240  0.2937
  396MOL0     H53449   4.118   4.268   6.055 -0.0816  1.1238 -0.7491
  396MOL0     H53450   3.968   4.455   6.043  2.3666 -1.3411 -0.1669
  396MOL0     H53451   3.914   4.437   6.198  0.0567  2.2257 -1.0833
  396MOL0     H53452   3.739   4.370   6.071  2.7032  2.2345  2.5506
  396MOL0     H53453   3.788   4.216   6.118 -1.1575  1.3138  1.8222
  396MOL0     H53454   3.948   4.229   5.887  0.3065  0.6095  1.5871
  396MOL0     H53455   3.789   4.164   5.895  3.8412 -2.7985  0.0908
  396MOL0     H53456   3.703   4.503   5.675  1.1688  0.0554 -0.2829
  396MOL0     H53457   4.213   4.095   6.241  1.1241  0.9718 -2.6698
  396MOL0     H53458   4.412   3.913   6.462  0.3460 -0.1802 -0.1755
  396MOL0     H53459   4.308   3.898   6.323  0.1090 -1.0211 -0.5119
  396MOL0     H53460   4.483   3.913   6.295 -2.0189 -0.0785 -2.6729
  397MOL0     O53461   9.905   8.974   3.269  0.4080 -0.2053 -0.4524
  397MOL0     C53462   9.849   9.084   3.281 -0.0201 -1.5510 -0.7558
  397MOL0     O53463   9.882   9.167   3.387 -0.5761  0.1510 -0.3757
  397MOL0     C53464  10.017   9.176   3.428  0.0353  0.4010  0.9247
  397MOL0     C53465  10.136   9.111   3.376  0.4530 -0.0346 -0.3571
  397MOL0     C53466  10.265   9.143   3.432  0.5014 -0.5757  0.8043
  397MOL0     C53467  10.273   9.216   3.551 -0.5545  0.3494  0.2704
  397MOL0     O53468  10.394   9.237   3.625  0.3492 -0.1504 -0.1593
  397MOL0     C53469  10.513   9.177   3.580 -0.8481 -0.2792  0.0100
  397MOL0     C53470  10.621   9.212   3.676  0.4537 -0.4114 -0.8002
  397MOL0     C53471  10.739   9.120   3.648 -0.0434  0.6849  0.1949
  397MOL0     C53472  10.874   9.135   3.726  0.4161 -0.1019 -0.0816
  397MOL0     C53473  10.966   9.009   3.716  0.0999  0.9963  0.0287
  397MOL0     C53474  11.116   9.039   3.764  0.2034  0.1583  0.3364
  397MOL0     C53475  11.203   8.919   3.743 -1.0307 -0.0978 -0.4875
  397MOL0     C53476  11.339   8.947   3.779 -0.1502  0.2871 -0.4740
  397MOL0     N53477  11.426   8.826   3.797 -0.1354  0.8551  0.5075
  397MOL0     C53478  11.405   8.727   3.893 -0.8510  1.3562  0.2791
  397MOL0     C53479  11.523   8.662   3.888 -0.2882  0.3453  0.4553
  397MOL0     C53480  11.556   8.543   3.972  1.1729  0.9866  0.3980
  397MOL0     C53481  11.666   8.587   4.066 -0.1142  0.0338 -0.2968
  397MOL0     C53482  11.688   8.464   4.167 -0.6577  0.1380 -0.1188
  397MOL0     C53483  11.794   8.495   4.268 -0.5307 -0.3405  0.8681
  397MOL0     O53484  11.799   8.378   4.348 -0.8401 -0.3049  0.0217
  397MOL0     C53485  11.916   8.354   4.419  0.5454  0.8572 -0.1180
  397MOL0     C53486  12.001   8.456   4.458  0.2618 -0.1839  1.3139
  397MOL0     C53487  12.116   8.435   4.545  1.0774  0.0469  0.2167
  397MOL0     C53488  12.139   8.302   4.594  0.2778 -0.7921 -0.8320
  397MOL0     C53489  12.248   8.276   4.686  0.5652  0.2699  0.1036
  397MOL0     O53490  12.332   8.379   4.694 -0.5065 -0.8198 -0.0554
  397MOL0     C53491  12.444   8.371   4.784 -0.3433 -1.2506  0.1824
  397MOL0     C53492  12.481   8.491   4.849 -0.1788  0.0056 -0.3413
  397MOL0     C53493  12.601   8.503   4.926 -0.2249 -0.1452  0.7482
  397MOL0     C53494  12.685   8.396   4.930  0.9391  0.7538 -0.7448
  397MOL0     O53495  12.796   8.421   5.006  0.0324 -0.5942  0.1640
  397MOL0     C53496  12.881   8.312   5.026  0.2556 -0.7364  0.4709
  397MOL0     C53497  12.990   8.374   5.108  0.0939  0.7278  0.4519
  397MOL0     C53498  13.086   8.253   5.151  0.0972  0.6674 -0.4537
  397MOL0     C53499  13.205   8.310   5.231 -0.3592  0.1494  0.7493
  397MOL0     C53500  13.185   8.317   5.381  0.1294 -0.0857 -0.4115
  397MOL0     C53501  13.304   8.392   5.459  0.2511  0.4442 -0.0153
  397MOL0     C53502  13.296   8.367   5.615 -0.7903  0.2138 -0.1993
  397MOL0     C53503  13.386   8.459   5.691  0.1817 -0.0973 -0.4382
  397MOL0    Cl53504  13.557   8.443   5.639 -0.1455 -0.0071  0.2213
  397MOL0     C53505  12.639   8.272   4.882 -0.5318 -0.4615  0.1039
  397MOL0     C53506  12.529   8.259   4.806  0.1355 -0.4574 -0.1696
  397MOL0     O53507  12.267   8.167   4.741  0.2976  0.6647  1.2171
  397MOL0     C53508  12.058   8.199   4.552  0.9424  0.0281 -0.0648
  397MOL0     C53509  11.946   8.229   4.467 -0.1241 -0.0169  0.4735
  397MOL0     N53510  11.613   8.727   3.802  0.5541  0.4960  0.5196
  397MOL0     N53511  11.545   8.817   3.742  0.6252 -0.0538  0.7568
  397MOL0     C53512  10.156   9.267   3.604 -0.2637 -0.4168 -0.8342
  397MOL0     C53513  10.029   9.250   3.547 -0.3302  0.4054 -0.2980
  397MOL0     C53514   9.733   9.115   3.196 -0.0546  0.3942  0.6304
  397MOL0     C53515   9.628   9.038   3.226  0.7053  0.2385  0.9012
  397MOL0     C53516   9.507   9.060   3.153  0.2581  0.1894 -0.4071
  397MOL0     C53517   9.495   9.165   3.060 -0.0526  0.8495 -0.2102
  397MOL0     O53518   9.376   9.202   2.993 -0.5485  0.8146  0.3004
  397MOL0     C53519   9.250   9.146   3.039 -1.2215  0.0691  0.5714
  397MOL0     C53520   9.139   9.236   2.964 -0.2065 -0.0094  0.0131
  397MOL0     C53521   9.006   9.167   2.972 -0.3237  0.1519 -0.2308
  397MOL0     C53522   8.895   9.262   2.934 -0.1255 -0.0553 -0.6443
  397MOL0     C53523   8.769   9.189   2.947  0.1532  0.1607 -0.6082
  397MOL0     C53524   8.660   9.141   2.945 -0.4962  0.1456  0.5519
  397MOL0     C53525   9.607   9.253   3.048 -0.5369 -0.8996  0.2620
  397MOL0     C53526   9.729   9.218   3.109 -0.5620  0.5550 -0.5804
  397MOL0     C53527   9.842   9.307   3.072 -0.7588 -0.3164 -0.5021
  397MOL0     H53528  10.127   9.060   3.280 -2.2175  1.3619 -0.9520
  397MOL0     H53529  10.341   9.084   3.381  0.5361  0.6733 -0.6645
  397MOL0     H53530  10.495   9.070   3.587 -0.9549 -0.2475  0.2433
  397MOL0     H53531  10.539   9.203   3.477  0.3532 -0.2782  0.2970
  397MOL0     H53532  10.593   9.188   3.778  0.3170  2.3762 -0.0995
  397MOL0     H53533  10.650   9.317   3.676  1.1319 -0.5723  0.8983
  397MOL0     H53534  10.776   9.134   3.546 -1.0827 -0.2526 -0.3345
  397MOL0     H53535  10.701   9.020   3.671  0.6480 -0.7454 -4.0014
  397MOL0     H53536  10.928   9.224   3.693  3.7235 -1.2126  1.8982
  397MOL0     H53537  10.858   9.138   3.834 -1.6813 -4.5964 -0.0396
  397MOL0     H53538  10.924   8.928   3.777  2.1308 -1.5770 -1.7621
  397MOL0     H53539  10.975   8.964   3.617  1.6493  3.1312 -0.8533
  397MOL0     H53540  11.138   9.117   3.691 -1.6216 -0.5098 -0.9981
  397MOL0     H53541  11.126   9.077   3.866 -3.6992  2.6543 -0.0272
  397MOL0     H53542  11.197   8.880   3.641 -0.7217 -0.2650 -0.4432
  397MOL0     H53543  11.160   8.841   3.806  0.3575 -1.0379 -0.6478
  397MOL0     H53544  11.384   9.015   3.706 -0.4007 -3.1361 -4.1708
  397MOL0     H53545  11.343   9.002   3.874  1.3082  1.0612 -0.9431
  397MOL0     H53546  11.316   8.688   3.941 -0.4369 -2.7687 -1.8942
  397MOL0     H53547  11.464   8.517   4.024  0.9805 -2.0898 -1.2746
  397MOL0     H53548  11.587   8.454   3.917 -3.2400 -2.3878  2.7324
  397MOL0     H53549  11.753   8.628   4.014  1.6046 -1.7739  0.9883
  397MOL0     H53550  11.621   8.668   4.123  0.5508  2.1165 -2.5538
  397MOL0     H53551  11.720   8.382   4.102 -0.6996  0.2175 -0.2394
  397MOL0     H53552  11.594   8.431   4.210 -0.3784  0.6137  0.8855
  397MOL0     H53553  11.779   8.585   4.328 -0.4943 -0.9838  1.8638
  397MOL0     H53554  11.888   8.496   4.212 -2.1839 -2.4034 -2.1789
  397MOL0     H53555  11.987   8.559   4.427  2.5780 -0.5998 -1.4903
  397MOL0     H53556  12.173   8.520   4.581 -0.0371  1.3254 -0.9294
  397MOL0     H53557  12.421   8.581   4.858  0.4419  0.3495  0.4246
  397MOL0     H53558  12.634   8.594   4.975 -2.3411  0.8814  0.3482
  397MOL0     H53559  12.829   8.230   5.075 -2.1622 -2.0843 -3.7806
  397MOL0     H53560  12.917   8.277   4.929 -0.0510  0.3811 -0.0718
  397MOL0     H53561  13.060   8.444   5.060  3.3075 -1.6766  1.2641
  397MOL0     H53562  12.944   8.422   5.194  1.6413  1.9145  0.6734
  397MOL0     H53563  13.029   8.181   5.210  1.1766  1.5506  1.7695
  397MOL0     H53564  13.121   8.201   5.061  1.3150  1.6128 -0.5506
  397MOL0     H53565  13.238   8.409   5.198  0.9939 -0.0522  1.4155
  397MOL0     H53566  13.284   8.234   5.224 -1.6746 -1.6964  3.8633
  397MOL0     H53567  13.164   8.219   5.425  0.2225  0.8881  1.9376
  397MOL0     H53568  13.091   8.369   5.401  0.1249 -1.0017  2.2880
  397MOL0     H53569  13.398   8.347   5.426  0.4119  0.1658  0.7924
  397MOL0     H53570  13.308   8.495   5.423 -0.1036  0.1574 -0.9042
  397MOL0     H53571  13.314   8.260   5.630  3.4254  0.4605 -1.9217
  397MOL0     H53572  13.197   8.393   5.652 -1.0340 -2.6142  1.3773
  397MOL0     H53573  13.361   8.565   5.679 -1.6807 -0.6662 -2.1230
  397MOL0     H53574  13.377   8.437   5.798 -0.8737  0.4736 -0.3922
  397MOL0     H53575  12.701   8.183   4.890  0.5865  0.3708  1.1765
  397MOL0     H53576  12.507   8.166   4.753 -1.7266  0.7078 -1.5578
  397MOL0     H53577  12.072   8.098   4.589  0.0853  0.7046  2.2990
  397MOL0     H53578  11.881   8.146   4.441 -1.7056  0.7756  1.6920
  397MOL0     H53579  10.154   9.308   3.705  0.7559 -1.0582 -0.5291
  397MOL0     H53580   9.937   9.279   3.596 -0.4696  0.2854 -0.4879
  397MOL0     H53581   9.642   8.958   3.298  1.9858  0.4944  0.9709
  397MOL0     H53582   9.434   8.980   3.161  0.6752 -0.3661 -1.8671
  397MOL0     H53583   9.255   9.160   3.148  0.9474 -0.6433  0.6141
  397MOL0     H53584   9.236   9.041   3.012 -1.7941  0.4596 -0.7504
  397MOL0     H53585   9.174   9.245   2.861 -1.6969  1.6981 -0.3729
  397MOL0     H53586   9.146   9.338   3.002 -3.1162  0.3216 -0.1442
  397MOL0     H53587   9.005   9.144   3.078  1.4437  1.0908  0.0329
  397MOL0     H53588   9.007   9.088   2.896  3.4448  1.9933 -2.4179
  397MOL0     H53589   8.882   9.352   2.995 -2.1784 -1.1432  0.6434
  397MOL0     H53590   8.923   9.290   2.832  2.0739  1.1371  0.2016
  397MOL0     H53591   8.565   9.093   2.930  0.0725 -1.4031  1.6652
  397MOL0     H53592   9.603   9.339   2.983 -2.6426 -1.4226 -0.3812
  397MOL0     H53593   9.863   9.293   2.965  0.1207 -1.1563 -0.2326
  397MOL0     H53594   9.827   9.413   3.094 -0.9941 -0.4176 -0.1646
  397MOL0     H53595   9.933   9.287   3.129 -1.5755 -1.9320  0.3031
  398MOL0     O53596   6.768   9.065   7.639 -0.2021  0.2196 -0.3679
  398MOL0     C53597   6.658   9.037   7.693 -1.1920 -0.6740 -0.2992
  398MOL0     O53598   6.656   8.941   7.788 -0.0282 -0.5061 -0.0761
  398MOL0     C53599   6.757   8.838   7.787  0.6910 -0.5976 -0.4582
  398MOL0     C53600   6.890   8.866   7.792 -0.0174 -0.4777 -0.9501
  398MOL0     C53601   6.981   8.759   7.795  0.3994 -0.3313  0.6771
  398MOL0     C53602   6.941   8.627   7.785  0.8568 -1.0557  0.6361
  398MOL0     O53603   7.008   8.509   7.799 -0.5451  0.6225  0.0858
  398MOL0     C53604   7.153   8.516   7.757  0.2451 -1.0502  0.0551
  398MOL0     C53605   7.228   8.375   7.748 -0.6396 -0.1420  0.1383
  398MOL0     C53606   7.143   8.268   7.685 -0.4487 -0.1391  0.4500
  398MOL0     C53607   7.224   8.144   7.659 -0.0612  0.9506  1.1107
  398MOL0     C53608   7.134   8.030   7.598 -0.3529 -0.9012 -0.0727
  398MOL0     C53609   7.189   7.890   7.619 -0.0110 -0.4213  0.5308
  398MOL0     C53610   7.090   7.778   7.566  1.0787 -0.3544 -0.5447
  398MOL0     C53611   7.054   7.789   7.413 -0.0773  0.8022 -0.0208
  398MOL0     N53612   7.172   7.780   7.325  0.3150 -0.1895 -0.3780
  398MOL0     C53613   7.256   7.878   7.288  0.3748  0.3145  0.3233
  398MOL0     C53614   7.355   7.822   7.213  0.1208  0.6657 -0.1776
  398MOL0     C53615   7.462   7.903   7.156  0.3948 -0.2142  0.3185
  398MOL0     C53616   7.501   7.836   7.022 -0.4793 -0.1734 -0.0266
  398MOL0     C53617   7.586   7.930   6.936  0.3297 -0.8957 -0.1957
  398MOL0     C53618   7.737   7.922   6.967  0.1184  0.5343  0.3788
  398MOL0     O53619   7.808   8.030   6.902  0.0108  0.1210 -0.3824
  398MOL0     C53620   7.943   8.065   6.941 -0.0783  0.8341  0.0278
  398MOL0     C53621   8.006   8.002   7.049 -0.0225 -0.1278  0.0043
  398MOL0     C53622   8.133   8.051   7.081  1.5321  0.3087 -0.8410
  398MOL0     C53623   8.214   8.145   7.010  1.0295 -1.1428 -0.4308
  398MOL0     C53624   8.348   8.183   7.057  0.5221  0.0120  0.1185
  398MOL0     O53625   8.394   8.112   7.157  0.2817  0.1369 -0.1397
  398MOL0     C53626   8.521   8.140   7.192 -0.8048 -1.1013 -0.4548
  398MOL0     C53627   8.555   8.258   7.269  0.1171  0.2383 -0.2586
  398MOL0     C53628   8.687   8.277   7.315  0.3680 -0.9666 -0.0166
  398MOL0     C53629   8.795   8.199   7.273  0.8941 -0.1876  0.7959
  398MOL0     O53630   8.920   8.223   7.309 -0.5986 -0.1115  0.1459
  398MOL0     C53631   8.978   8.348   7.290  0.3672  0.0633  0.7094
  398MOL0     C53632   9.036   8.400   7.415  0.0211  0.0065  0.4649
  398MOL0     C53633   8.938   8.437   7.526 -0.3743  0.9618 -0.6806
  398MOL0     C53634   9.015   8.447   7.654 -0.4491 -0.0126 -0.1623
  398MOL0     C53635   8.925   8.513   7.768 -0.6837 -0.0690 -0.8909
  398MOL0     C53636   9.004   8.585   7.880  0.4693  0.2907  0.1116
  398MOL0     C53637   9.091   8.489   7.969  0.1282  0.0147 -0.3264
  398MOL0     C53638   9.141   8.557   8.093  0.2360 -0.3242 -0.3031
  398MOL0    Cl53639   9.278   8.471   8.168  0.0255  0.3229 -0.1784
  398MOL0     C53640   8.763   8.100   7.181 -0.5401  0.7502  1.7787
  398MOL0     C53641   8.630   8.073   7.142 -0.9720 -0.1758  0.4402
  398MOL0     O53642   8.406   8.278   7.004 -0.1800 -0.0683  0.5571
  398MOL0     C53643   8.140   8.208   6.916 -1.0228  0.8022 -0.1171
  398MOL0     C53644   8.008   8.171   6.883  0.8593 -0.3866  0.7257
  398MOL0     N53645   7.315   7.688   7.200 -0.1786  0.6551 -0.0526
  398MOL0     N53646   7.221   7.658   7.277 -1.3375 -0.2440 -0.1178
  398MOL0     C53647   6.800   8.606   7.781 -0.0257  0.2349  1.6235
  398MOL0     C53648   6.705   8.712   7.782  0.1005  0.2890 -0.0448
  398MOL0     C53649   6.546   9.121   7.662 -0.4103 -1.0858 -0.1562
  398MOL0     C53650   6.450   9.134   7.764  0.9763 -0.3673  0.4795
  398MOL0     C53651   6.349   9.228   7.751  0.0447  0.6878  0.9939
  398MOL0     C53652   6.320   9.298   7.627  0.4406  0.5701 -0.0948
  398MOL0     O53653   6.199   9.364   7.630 -0.1356  0.5910  0.4795
  398MOL0     C53654   6.172   9.434   7.506 -0.5621 -0.4872 -0.4393
  398MOL0     C53655   6.078   9.546   7.538  1.0063  0.5629  0.3998
  398MOL0     C53656   6.143   9.680   7.572 -0.2765  0.6637 -0.7981
  398MOL0     C53657   6.147   9.776   7.450  0.3491 -0.0544 -0.4560
  398MOL0     C53658   6.199   9.718   7.332 -0.6117 -1.4476 -0.9371
  398MOL0     C53659   6.253   9.678   7.240  0.3783 -0.1910  0.6607
  398MOL0     C53660   6.394   9.265   7.517  0.8717 -0.4744 -0.1329
  398MOL0     C53661   6.517   9.187   7.534  0.5761 -0.3556  0.1748
  398MOL0     C53662   6.602   9.166   7.416 -0.1860 -0.7133  0.3689
  398MOL0     H53663   6.924   8.969   7.794 -0.0902 -0.4605 -0.4677
  398MOL0     H53664   7.087   8.770   7.817 -0.2079  4.0921  2.2905
  398MOL0     H53665   7.148   8.568   7.661  0.6045 -1.3536 -0.1323
  398MOL0     H53666   7.211   8.585   7.818 -0.8201 -0.6797  0.6738
  398MOL0     H53667   7.265   8.355   7.849  1.5506  1.4361 -0.2810
  398MOL0     H53668   7.317   8.390   7.687 -0.3607 -0.3203  0.4983
  398MOL0     H53669   7.099   8.302   7.591  0.5570  0.9568  0.3462
  398MOL0     H53670   7.061   8.235   7.749 -1.3010 -1.5057 -1.2706
  398MOL0     H53671   7.318   8.161   7.606  1.4968 -0.3020  3.2947
  398MOL0     H53672   7.260   8.115   7.759  2.9850  0.5910  0.0382
  398MOL0     H53673   7.033   8.046   7.637  0.3803 -0.5480  1.7345
  398MOL0     H53674   7.129   8.044   7.489  2.1753 -1.7228 -0.3570
  398MOL0     H53675   7.286   7.865   7.575  0.9849  0.0375  2.3648
  398MOL0     H53676   7.213   7.871   7.724  3.0932  0.1113  0.0233
  398MOL0     H53677   6.997   7.786   7.623  1.2495 -0.0072 -0.3100
  398MOL0     H53678   7.125   7.678   7.592  0.3220 -0.2307  1.0687
  398MOL0     H53679   6.985   7.706   7.393 -3.9623  3.0048  2.7847
  398MOL0     H53680   6.998   7.883   7.409 -1.4182  0.0347 -0.1342
  398MOL0     H53681   7.250   7.980   7.324  0.1686  0.1712  0.6982
  398MOL0     H53682   7.428   8.002   7.124  1.4354 -0.0083 -0.1864
  398MOL0     H53683   7.549   7.912   7.222 -1.0822  1.5851  2.1579
  398MOL0     H53684   7.568   7.752   7.042 -0.1073  0.1831  0.2438
  398MOL0     H53685   7.421   7.793   6.961 -0.1573  0.1047 -0.6549
  398MOL0     H53686   7.553   8.034   6.944 -0.2699 -1.0970 -0.0386
  398MOL0     H53687   7.573   7.897   6.833 -3.3439  0.8445 -0.4430
  398MOL0     H53688   7.780   7.830   6.926 -0.3064  0.1731  0.7351
  398MOL0     H53689   7.760   7.926   7.074  0.7170  1.5992  0.2347
  398MOL0     H53690   7.963   7.918   7.101  0.7473  0.0874  1.0277
  398MOL0     H53691   8.176   8.008   7.172  0.8236  0.2209 -0.5373
  398MOL0     H53692   8.473   8.317   7.308  1.8947  0.9506  2.6655
  398MOL0     H53693   8.707   8.360   7.382  1.9815 -0.7585 -0.7232
  398MOL0     H53694   9.051   8.340   7.209 -0.7060 -3.3930 -0.0830
  398MOL0     H53695   8.906   8.425   7.263 -0.4012 -1.5042 -2.1939
  398MOL0     H53696   9.093   8.314   7.452 -2.2184 -1.3134  1.1165
  398MOL0     H53697   9.106   8.480   7.392  1.4631 -1.0779  0.8975
  398MOL0     H53698   8.895   8.536   7.506 -0.8545  1.3301  1.8185
  398MOL0     H53699   8.861   8.359   7.536  0.3431  0.5078  1.8637
  398MOL0     H53700   9.106   8.505   7.638 -0.8987  1.2883  1.6313
  398MOL0     H53701   9.042   8.348   7.692  3.3350  1.0327  0.2494
  398MOL0     H53702   8.861   8.440   7.819  0.7449 -0.7691 -0.0412
  398MOL0     H53703   8.863   8.587   7.717  0.6394  0.0803 -2.3704
  398MOL0     H53704   9.071   8.658   7.835  1.0894 -0.4180 -0.1322
  398MOL0     H53705   8.927   8.632   7.942 -0.0412 -2.4720  1.7480
  398MOL0     H53706   9.173   8.453   7.906  0.2620 -2.2108  0.9899
  398MOL0     H53707   9.038   8.401   8.006  2.8803 -0.4825  3.0204
  398MOL0     H53708   9.183   8.652   8.060  0.0663 -0.5501 -1.1722
  398MOL0     H53709   9.072   8.578   8.175  0.6477  2.0275 -0.4941
  398MOL0     H53710   8.839   8.030   7.146 -1.3039  1.5145 -1.8533
  398MOL0     H53711   8.608   7.992   7.073  1.8317  0.5477 -1.4929
  398MOL0     H53712   8.196   8.285   6.864  0.3513  0.5259  0.9124
  398MOL0     H53713   7.955   8.232   6.810  0.9585  1.0288  1.7837
  398MOL0     H53714   6.759   8.506   7.775 -0.5199  0.5229 -1.0902
  398MOL0     H53715   6.599   8.698   7.762  0.0342 -1.3449  1.2906
  398MOL0     H53716   6.461   9.093   7.864  1.7903  0.3445  0.6961
  398MOL0     H53717   6.268   9.239   7.823 -1.0059  1.1186 -0.2156
  398MOL0     H53718   6.133   9.368   7.427  0.3710  1.9190 -3.0975
  398MOL0     H53719   6.267   9.475   7.470 -0.2107  0.5500  1.5318
  398MOL0     H53720   6.015   9.524   7.624  2.2710 -0.5063  1.1019
  398MOL0     H53721   5.999   9.545   7.463 -0.3192  2.3216  1.6708
  398MOL0     H53722   6.237   9.655   7.621 -1.4137 -0.6023  0.8550
  398MOL0     H53723   6.086   9.728   7.651  0.3018  0.0170  0.0258
  398MOL0     H53724   6.044   9.797   7.420  0.5816 -0.9251 -1.9971
  398MOL0     H53725   6.206   9.860   7.488 -0.6861  0.9136 -0.9209
  398MOL0     H53726   6.300   9.639   7.152  1.4801  0.4582  0.9366
  398MOL0     H53727   6.364   9.311   7.423 -1.5729  2.8116  2.0289
  398MOL0     H53728   6.551   9.188   7.322 -0.2232  1.6038  0.8716
  398MOL0     H53729   6.686   9.234   7.430 -2.2243  1.6908  1.5612
  398MOL0     H53730   6.637   9.062   7.404  1.2201 -0.1709 -0.5350
  399MOL0     O53731   7.845   7.001   7.191  0.1446  0.8301 -0.2139
  399MOL0     C53732   7.785   7.061   7.111  0.2553  0.1466 -0.3646
  399MOL0     O53733   7.841   7.125   7.003 -0.3363  0.5663 -0.0721
  399MOL0     C53734   7.980   7.126   6.997  0.7812 -0.5231  0.1326
  399MOL0     C53735   8.034   7.128   6.870  0.7250  0.6382 -0.2266
  399MOL0     C53736   8.168   7.131   6.844  0.1852 -0.8150 -0.3997
  399MOL0     C53737   8.260   7.135   6.948 -0.1404  0.2835 -0.0311
  399MOL0     O53738   8.385   7.152   6.904 -0.1734 -0.3727 -0.4479
  399MOL0     C53739   8.488   7.144   7.004  0.3609 -0.0205  0.8620
  399MOL0     C53740   8.627   7.177   6.947 -0.6267  0.1012  0.1795
  399MOL0     C53741   8.628   7.323   6.893 -0.4184  0.4623 -0.1051
  399MOL0     C53742   8.745   7.411   6.948  0.3943  0.4899  0.2841
  399MOL0     C53743   8.711   7.555   6.910 -0.4686 -0.8396 -0.6267
  399MOL0     C53744   8.811   7.658   6.967  0.3128 -0.8582  0.3081
  399MOL0     C53745   8.947   7.646   6.898  0.3234  0.2861  0.5314
  399MOL0     C53746   9.060   7.718   6.970  0.1062  0.4868  0.5569
  399MOL0     N53747   9.190   7.656   6.924  0.1618  0.4001  0.4069
  399MOL0     C53748   9.247   7.660   6.801 -0.4824  0.0769 -0.3061
  399MOL0     C53749   9.370   7.610   6.829  0.6850 -0.1466 -0.1721
  399MOL0     C53750   9.485   7.611   6.731 -0.5649 -0.2693  0.6061
  399MOL0     C53751   9.559   7.741   6.767 -0.0670 -0.0890 -0.2879
  399MOL0     C53752   9.653   7.780   6.645 -0.4646 -0.6432  1.0652
  399MOL0     C53753   9.590   7.900   6.576  0.8041  0.0291  0.6733
  399MOL0     O53754   9.675   7.999   6.509 -0.1706 -0.2621 -0.5516
  399MOL0     C53755   9.730   7.966   6.391  0.5400 -0.6462 -0.4068
  399MOL0     C53756   9.657   7.925   6.287 -0.2184 -0.3808 -0.3989
  399MOL0     C53757   9.720   7.884   6.168  0.4420  0.7285  0.1364
  399MOL0     C53758   9.859   7.878   6.161 -0.9978 -0.3512 -0.7560
  399MOL0     C53759   9.924   7.839   6.035 -0.3139  0.4570 -0.1035
  399MOL0     O53760  10.045   7.900   6.000 -0.0521 -0.0504  0.3246
  399MOL0     C53761  10.112   7.895   5.885 -1.0724 -0.1497  0.0771
  399MOL0     C53762  10.157   8.028   5.834 -0.7369 -0.3540  0.7025
  399MOL0     C53763  10.243   8.038   5.719 -0.1828  0.1169  0.2027
  399MOL0     C53764  10.289   7.920   5.655  0.4755 -0.2683 -0.0296
  399MOL0     O53765  10.382   7.945   5.553 -0.3842 -0.5699 -0.0001
  399MOL0     C53766  10.499   7.858   5.542 -0.1405  0.6473  0.7076
  399MOL0     C53767  10.583   7.858   5.667  0.3826 -0.6350  0.1991
  399MOL0     C53768  10.684   7.743   5.683 -0.3430  0.0238  1.4885
  399MOL0     C53769  10.747   7.738   5.820 -1.0112 -0.2212  0.4995
  399MOL0     C53770  10.821   7.872   5.862  0.0296 -0.0581 -0.0867
  399MOL0     C53771  10.943   7.840   5.960  1.4176 -0.7244  0.2960
  399MOL0     C53772  11.064   7.770   5.898 -0.8665 -0.7656  0.8169
  399MOL0     C53773  11.125   7.833   5.770 -1.0777 -0.4098 -0.6964
  399MOL0    Cl53774  11.138   8.009   5.782  0.2079 -0.3529 -0.2034
  399MOL0     C53775  10.244   7.794   5.704 -0.8739 -0.3365  0.9150
  399MOL0     C53776  10.155   7.783   5.818  0.4308  0.2001  0.3570
  399MOL0     O53777   9.868   7.760   5.957 -0.1036 -0.4836  0.0069
  399MOL0     C53778   9.940   7.913   6.271 -0.5770  0.3860 -1.0498
  399MOL0     C53779   9.875   7.947   6.391  0.3231 -1.2684 -0.2680
  399MOL0     N53780   9.382   7.567   6.961 -0.4040  0.0866  0.1715
  399MOL0     N53781   9.273   7.595   7.016 -0.0598  0.1957 -0.4319
  399MOL0     C53782   8.215   7.124   7.076  0.2335  0.3149  0.1453
  399MOL0     C53783   8.080   7.131   7.099 -0.1323  0.3747  0.7578
  399MOL0     C53784   7.639   7.062   7.136  0.3481  0.2287 -0.5976
  399MOL0     C53785   7.590   6.994   7.255 -0.4188  0.3773  0.1463
  399MOL0     C53786   7.460   7.000   7.290 -0.3206 -0.4794 -0.1468
  399MOL0     C53787   7.371   7.077   7.217  0.0138  0.8137 -0.0881
  399MOL0     O53788   7.239   7.066   7.244  0.4151  0.6419  0.4237
  399MOL0     C53789   7.128   7.099   7.155  0.2809  0.5974  0.3038
  399MOL0     C53790   7.002   7.023   7.191 -1.2424 -0.8504 -0.1955
  399MOL0     C53791   6.927   7.100   7.304 -0.0021  0.3678  0.5923
  399MOL0     C53792   6.838   6.998   7.390 -0.3980  0.5729  0.3438
  399MOL0     C53793   6.718   6.958   7.322  0.1259  0.6949  0.7097
  399MOL0     C53794   6.614   6.936   7.272  0.1692  0.1719  0.7039
  399MOL0     C53795   7.410   7.145   7.101 -0.3810 -0.6822 -0.1056
  399MOL0     C53796   7.545   7.147   7.060 -0.0279  0.9140  0.2627
  399MOL0     C53797   7.574   7.216   6.930 -0.1576  0.1876 -0.3175
  399MOL0     H53798   7.966   7.139   6.787 -2.6336 -1.9280  1.8741
  399MOL0     H53799   8.194   7.136   6.739 -1.7061  0.3722 -0.8617
  399MOL0     H53800   8.466   7.205   7.092 -1.2756 -1.1167  1.2575
  399MOL0     H53801   8.490   7.038   7.032  0.6939  0.1789  1.6277
  399MOL0     H53802   8.627   7.116   6.857 -3.0150 -1.0208  0.8616
  399MOL0     H53803   8.711   7.157   7.014  1.1107  1.4594 -1.4857
  399MOL0     H53804   8.531   7.367   6.916 -0.2943  0.3438  0.6666
  399MOL0     H53805   8.633   7.332   6.784 -1.1359  0.3335 -0.1518
  399MOL0     H53806   8.770   7.392   7.053  1.1485  0.0268  0.0284
  399MOL0     H53807   8.838   7.377   6.902  0.1169 -0.4391  0.4036
  399MOL0     H53808   8.703   7.579   6.804  5.5599 -0.0913 -1.2897
  399MOL0     H53809   8.619   7.580   6.963 -0.2736  1.5590 -1.3364
  399MOL0     H53810   8.773   7.760   6.959 -3.4904 -2.2577 -1.6666
  399MOL0     H53811   8.825   7.630   7.072 -0.6003 -1.8770  0.1640
  399MOL0     H53812   8.928   7.684   6.797 -0.2023  1.3163  1.0070
  399MOL0     H53813   8.969   7.539   6.891  1.1362  0.4589  0.2468
  399MOL0     H53814   9.062   7.825   6.944  2.7555  0.7324  1.4656
  399MOL0     H53815   9.047   7.703   7.078 -3.7096 -4.9755 -0.2586
  399MOL0     H53816   9.218   7.703   6.705  0.7362  3.1068  0.5773
  399MOL0     H53817   9.549   7.523   6.740 -1.5126 -0.9588  0.7626
  399MOL0     H53818   9.452   7.612   6.626  1.6509  2.5122 -0.2102
  399MOL0     H53819   9.486   7.817   6.796 -0.7969 -1.1161  0.6748
  399MOL0     H53820   9.629   7.732   6.851 -1.2530 -0.3472  0.7024
  399MOL0     H53821   9.668   7.706   6.566  2.4069  2.0831 -1.2374
  399MOL0     H53822   9.752   7.814   6.677 -0.7568  0.6845  0.6346
  399MOL0     H53823   9.547   7.966   6.652 -0.1578 -0.1762  0.3110
  399MOL0     H53824   9.510   7.868   6.509  1.6113  0.2979 -0.4403
  399MOL0     H53825   9.550   7.927   6.304 -0.1096 -0.0048  0.2602
  399MOL0     H53826   9.659   7.852   6.084  1.4183 -0.6489 -0.0764
  399MOL0     H53827  10.132   8.119   5.888  0.5227  2.2101 -2.6272
  399MOL0     H53828  10.280   8.128   5.672  1.2148 -0.8630 -0.6504
  399MOL0     H53829  10.473   7.755   5.516  2.2330  0.5918 -1.8755
  399MOL0     H53830  10.566   7.879   5.459  1.4924  0.0616  1.8140
  399MOL0     H53831  10.638   7.953   5.673 -2.0465  0.8724 -0.0962
  399MOL0     H53832  10.514   7.839   5.750 -0.1901 -1.6358 -0.4973
  399MOL0     H53833  10.636   7.648   5.657  0.3724  0.0909 -0.2299
  399MOL0     H53834  10.764   7.765   5.611  0.9516 -2.9584  1.8574
  399MOL0     H53835  10.814   7.652   5.810 -2.2995 -1.2086  0.0861
  399MOL0     H53836  10.672   7.716   5.896 -0.3599  0.4112  1.3416
  399MOL0     H53837  10.751   7.934   5.918 -0.7489 -0.5818 -0.4647
  399MOL0     H53838  10.857   7.928   5.775  0.8021 -0.2018  0.1266
  399MOL0     H53839  10.981   7.935   5.997  0.7040 -0.8531  1.4075
  399MOL0     H53840  10.905   7.794   6.052 -0.2987  1.3137  0.6990
  399MOL0     H53841  11.033   7.669   5.868 -1.2755 -0.4613  0.2099
  399MOL0     H53842  11.144   7.763   5.972  0.6896 -2.5254 -0.9212
  399MOL0     H53843  11.224   7.791   5.751  0.2402  0.4320  3.4326
  399MOL0     H53844  11.062   7.810   5.683  0.5380  0.1989 -2.0822
  399MOL0     H53845  10.280   7.705   5.654  0.3106  0.6355 -0.0456
  399MOL0     H53846  10.130   7.682   5.849 -0.7300  1.2887  3.2729
  399MOL0     H53847  10.047   7.900   6.261 -0.1581  0.7162  2.0286
  399MOL0     H53848   9.932   7.962   6.482 -0.8019 -0.7119  0.3622
  399MOL0     H53849   8.284   7.109   7.158  3.1181 -0.1699 -2.2208
  399MOL0     H53850   8.041   7.132   7.200 -0.9910 -3.9995  0.6987
  399MOL0     H53851   7.648   6.934   7.324 -1.8574 -0.7510  0.4177
  399MOL0     H53852   7.421   6.950   7.379 -0.9983 -2.4312 -1.4492
  399MOL0     H53853   7.159   7.068   7.055 -0.7738 -5.0028  1.4028
  399MOL0     H53854   7.113   7.207   7.165  0.9613  0.7760 -0.4360
  399MOL0     H53855   7.034   6.921   7.217  3.2036  0.7254  1.4840
  399MOL0     H53856   6.931   7.023   7.107 -1.3708 -3.0144 -0.1394
  399MOL0     H53857   6.866   7.182   7.265 -1.1182 -0.0809  1.3656
  399MOL0     H53858   6.998   7.149   7.372 -1.2571  0.0928  2.1404
  399MOL0     H53859   6.895   6.909   7.419 -1.8394 -0.4681  0.0454
  399MOL0     H53860   6.793   7.044   7.479 -2.2034 -0.0060 -0.2277
  399MOL0     H53861   6.521   6.920   7.220  0.2934  1.9558 -0.1161
  399MOL0     H53862   7.341   7.204   7.042  1.1427  0.4917 -0.7903
  399MOL0     H53863   7.480   7.255   6.889 -1.1960 -0.9837  0.8986
  399MOL0     H53864   7.653   7.290   6.947 -0.8977  1.0519 -0.5716
  399MOL0     H53865   7.613   7.138   6.864 -1.2949 -1.0141  0.4047
  400MOL0     O53866   7.932   3.027   6.830 -0.2141 -0.6574  0.2481
  400MOL0     C53867   7.892   2.907   6.837 -0.6214  0.3280  0.0820
  400MOL0     O53868   7.973   2.799   6.855 -0.6093 -0.2188  0.2449
  400MOL0     C53869   8.107   2.818   6.877  0.1857  0.1861 -0.3145
  400MOL0     C53870   8.182   2.887   6.777  0.8685  0.4490 -0.4210
  400MOL0     C53871   8.313   2.879   6.778 -0.6533 -0.0932  0.6023
  400MOL0     C53872   8.388   2.840   6.891 -0.5469 -0.8757  0.7429
  400MOL0     O53873   8.526   2.865   6.906 -0.1550 -0.4060  0.6948
  400MOL0     C53874   8.589   2.857   6.778 -0.8048 -0.1540 -0.0238
  400MOL0     C53875   8.737   2.859   6.792 -0.5157 -0.5978 -0.1037
  400MOL0     C53876   8.789   2.727   6.857  0.0955  0.0597 -0.4736
  400MOL0     C53877   8.911   2.757   6.947  1.0782 -0.2845 -0.2533
  400MOL0     C53878   9.047   2.774   6.869  0.0185 -0.6150 -0.0008
  400MOL0     C53879   9.158   2.815   6.963 -0.7423  0.6634  0.1623
  400MOL0     C53880   9.287   2.815   6.878 -0.0371 -0.4823  1.5674
  400MOL0     C53881   9.408   2.794   6.966 -0.2689 -0.1981  0.8746
  400MOL0     N53882   9.539   2.824   6.891 -0.1037 -0.8381 -0.4921
  400MOL0     C53883   9.583   2.952   6.875 -0.5734 -0.1968  0.4329
  400MOL0     C53884   9.682   2.936   6.787 -0.0987  0.3429  0.0527
  400MOL0     C53885   9.768   3.056   6.741  0.4888 -0.1434  0.6151
  400MOL0     C53886   9.905   3.033   6.802  0.6183 -0.6915  0.7332
  400MOL0     C53887   9.987   2.903   6.762  0.5357  0.1664 -0.7230
  400MOL0     C53888   9.974   2.878   6.611  0.1602  0.2059 -1.0500
  400MOL0     O53889  10.029   2.983   6.522 -0.3159  0.5202 -0.4853
  400MOL0     C53890  10.162   3.012   6.490  0.5757  0.0129 -0.9196
  400MOL0     C53891  10.192   3.121   6.416  0.8556  0.4517  0.7723
  400MOL0     C53892  10.317   3.143   6.378 -0.2607 -0.1767 -0.6160
  400MOL0     C53893  10.427   3.055   6.406  0.5656 -0.1308  0.1432
  400MOL0     C53894  10.564   3.088   6.368  0.0153  0.2087 -0.9395
  400MOL0     O53895  10.659   3.011   6.429  0.6682  0.1925  0.4229
  400MOL0     C53896  10.789   3.016   6.380  0.0009  0.4096  0.1471
  400MOL0     C53897  10.859   3.131   6.416 -0.6694 -1.5197 -0.3813
  400MOL0     C53898  10.991   3.156   6.371 -0.2455  0.5092  0.3216
  400MOL0     C53899  11.052   3.051   6.308  0.4959  0.0676 -0.6002
  400MOL0     O53900  11.189   3.048   6.265 -0.0847  0.1034 -0.2754
  400MOL0     C53901  11.289   3.127   6.332  0.2580 -0.2032  0.8291
  400MOL0     C53902  11.424   3.091   6.293  0.4289  0.5696  0.1233
  400MOL0     C53903  11.535   3.174   6.356  0.0119 -0.4782 -0.2028
  400MOL0     C53904  11.659   3.101   6.328 -0.9265 -0.4785  0.4055
  400MOL0     C53905  11.751   3.102   6.449 -0.0380  0.0717 -1.0009
  400MOL0     C53906  11.883   3.051   6.414 -0.0815 -0.1744  0.1785
  400MOL0     C53907  11.964   3.153   6.330  0.1478  0.7084  0.2067
  400MOL0     C53908  12.108   3.157   6.363  0.1502 -0.2240 -0.0760
  400MOL0    Cl53909  12.184   3.280   6.252 -0.6660 -0.4867 -0.5165
  400MOL0     C53910  10.988   2.934   6.271  0.5135 -0.7054 -0.0868
  400MOL0     C53911  10.858   2.916   6.313  0.2621 -0.4544 -0.7838
  400MOL0     O53912  10.582   3.181   6.303  0.2665 -0.6765  0.0509
  400MOL0     C53913  10.394   2.952   6.494  0.0063 -0.6512  0.5505
  400MOL0     C53914  10.263   2.933   6.542  0.3187  0.0110  0.2626
  400MOL0     N53915   9.694   2.804   6.752 -0.6749  0.2011 -0.4956
  400MOL0     N53916   9.600   2.736   6.813 -0.2412 -0.2084 -0.3711
  400MOL0     C53917   8.310   2.786   6.998 -0.9862 -0.0604 -0.0491
  400MOL0     C53918   8.171   2.770   6.989  0.1658  0.3377  0.9848
  400MOL0     C53919   7.749   2.876   6.819 -0.5547 -1.4050 -0.2879
  400MOL0     C53920   7.713   2.747   6.777 -0.6105 -0.3179  0.9306
  400MOL0     C53921   7.584   2.723   6.730 -0.0088 -0.2358 -0.2719
  400MOL0     C53922   7.481   2.826   6.736  0.5468  0.0248 -0.1025
  400MOL0     O53923   7.352   2.802   6.704 -0.1031  0.1645  0.6696
  400MOL0     C53924   7.319   2.848   6.574 -0.5546  0.0498 -0.5265
  400MOL0     C53925   7.228   2.971   6.587 -0.3957  0.4088  0.1016
  400MOL0     C53926   7.207   3.033   6.450  0.3267 -1.6954  0.0249
  400MOL0     C53927   7.154   3.178   6.466 -0.4027 -0.0131  0.6197
  400MOL0     C53928   7.266   3.247   6.519 -0.4269  0.6880 -0.7283
  400MOL0     C53929   7.359   3.316   6.559 -0.2728 -0.3424  0.5406
  400MOL0     C53930   7.518   2.942   6.787  0.9344 -0.4260 -0.3364
  400MOL0     C53931   7.643   2.971   6.827  1.6406 -0.8995  0.3615
  400MOL0     C53932   7.666   3.117   6.883  0.2156  0.7360 -0.5913
  400MOL0     H53933   8.134   2.919   6.685 -0.7651 -2.8996 -0.8958
  400MOL0     H53934   8.366   2.911   6.689  0.7581  1.2985  1.8860
  400MOL0     H53935   8.554   2.764   6.731  1.3535 -0.2383 -1.6177
  400MOL0     H53936   8.557   2.949   6.727 -0.7706 -0.3478 -0.4012
  400MOL0     H53937   8.760   2.944   6.858 -1.1365 -0.8421  0.4413
  400MOL0     H53938   8.782   2.881   6.695 -3.1393  1.9146 -0.9065
  400MOL0     H53939   8.815   2.646   6.788  2.4272  0.9734 -0.7520
  400MOL0     H53940   8.721   2.692   6.935  0.3603  2.7237  1.0712
  400MOL0     H53941   8.891   2.854   6.992 -1.6202 -0.6930 -0.3686
  400MOL0     H53942   8.923   2.678   7.022  1.4943 -0.9513 -1.0106
  400MOL0     H53943   9.080   2.677   6.831  2.3878  0.0327  0.2865
  400MOL0     H53944   9.042   2.842   6.783 -1.5584  4.3784  3.5684
  400MOL0     H53945   9.140   2.913   7.008 -2.8487 -0.4086  1.8303
  400MOL0     H53946   9.169   2.737   7.040 -0.2451  0.6061  0.0419
  400MOL0     H53947   9.301   2.910   6.827  1.6180 -0.8663  1.2598
  400MOL0     H53948   9.293   2.741   6.797  4.0505  2.1124 -0.8459
  400MOL0     H53949   9.400   2.856   7.056 -1.8763  1.7082 -0.4801
  400MOL0     H53950   9.418   2.689   6.994  0.6619 -0.0671  1.0725
  400MOL0     H53951   9.548   3.044   6.921 -0.7277  0.6086 -1.2230
  400MOL0     H53952   9.765   3.051   6.632 -1.3947 -0.4910  0.6422
  400MOL0     H53953   9.720   3.149   6.774 -2.1503 -0.4234 -1.9856
  400MOL0     H53954   9.971   3.117   6.778 -1.9798  1.2486 -0.1765
  400MOL0     H53955   9.889   3.036   6.910  2.5725 -0.9149  1.0630
  400MOL0     H53956   9.947   2.815   6.814 -0.6935  0.1658 -1.6358
  400MOL0     H53957  10.092   2.914   6.790  0.2648 -1.4235  1.1856
  400MOL0     H53958   9.869   2.868   6.585 -0.0998  2.1589 -0.8901
  400MOL0     H53959  10.028   2.784   6.593 -2.3388 -1.1230 -2.0209
  400MOL0     H53960  10.112   3.188   6.388  0.4374 -0.9260 -1.6800
  400MOL0     H53961  10.333   3.225   6.309  0.3344  1.0945  0.9828
  400MOL0     H53962  10.810   3.212   6.470  2.8116  0.3837  0.2144
  400MOL0     H53963  11.031   3.253   6.400 -0.6670  1.0017 -0.7132
  400MOL0     H53964  11.278   3.236   6.329 -0.0934 -0.2487  0.4102
  400MOL0     H53965  11.268   3.108   6.438  1.4573 -0.4209  1.0390
  400MOL0     H53966  11.434   2.986   6.320 -1.2894  0.2749 -0.2672
  400MOL0     H53967  11.431   3.098   6.184 -0.9991 -1.5517 -0.1555
  400MOL0     H53968  11.522   3.274   6.314 -0.0721  0.1676  1.2851
  400MOL0     H53969  11.540   3.184   6.465  3.5659  0.6545 -0.3506
  400MOL0     H53970  11.701   3.150   6.239 -3.1452  0.4497 -0.2063
  400MOL0     H53971  11.640   2.997   6.300 -0.3038 -0.6135  0.4675
  400MOL0     H53972  11.709   3.047   6.533  0.7144 -1.2574 -1.4620
  400MOL0     H53973  11.752   3.206   6.485 -0.0267  0.0616 -0.9715
  400MOL0     H53974  11.932   3.032   6.510 -2.5555  1.2021  1.8208
  400MOL0     H53975  11.877   2.952   6.368 -0.2421 -1.0430  1.9962
  400MOL0     H53976  11.925   3.253   6.347 -0.2850  0.5298  0.2684
  400MOL0     H53977  11.964   3.117   6.227 -1.4441 -0.4454  0.5638
  400MOL0     H53978  12.121   3.201   6.462  2.9685  2.1691 -1.3451
  400MOL0     H53979  12.147   3.055   6.361  3.6834  0.9374  0.9569
  400MOL0     H53980  11.044   2.863   6.211  2.1625  1.1942 -0.9138
  400MOL0     H53981  10.806   2.823   6.287 -1.0214  0.3117 -1.0820
  400MOL0     H53982  10.467   2.878   6.524  0.4713 -1.4087 -2.1479
  400MOL0     H53983  10.232   2.849   6.604 -2.0445  2.3990  2.6045
  400MOL0     H53984   8.362   2.752   7.087  1.3643 -2.7627 -2.2472
  400MOL0     H53985   8.118   2.708   7.061 -1.7562 -2.4722 -2.5239
  400MOL0     H53986   7.786   2.670   6.753  0.5258  0.9406  0.1874
  400MOL0     H53987   7.566   2.628   6.681  2.0303 -0.7520 -0.1459
  400MOL0     H53988   7.265   2.773   6.515  2.9617 -0.5645 -3.2861
  400MOL0     H53989   7.412   2.871   6.521  2.2845 -5.1034  1.4626
  400MOL0     H53990   7.285   3.036   6.654  0.3611  0.3143 -0.4364
  400MOL0     H53991   7.128   2.948   6.624  0.6666 -0.4195  2.6661
  400MOL0     H53992   7.131   2.979   6.393 -1.7777  0.2639  0.8464
  400MOL0     H53993   7.301   3.034   6.393 -0.1529 -0.2300 -0.7929
  400MOL0     H53994   7.137   3.226   6.369 -1.7585  1.2921  1.4551
  400MOL0     H53995   7.064   3.182   6.527 -0.0874 -2.1179  1.2885
  400MOL0     H53996   7.437   3.379   6.596  0.4601 -0.5014 -0.6685
  400MOL0     H53997   7.430   3.003   6.805 -0.0447 -2.1285  0.9473
  400MOL0     H53998   7.575   3.159   6.926 -1.2686 -1.6867 -1.2018
  400MOL0     H53999   7.738   3.113   6.965  0.3289  3.4952 -0.4472
  400MOL0     H54000   7.713   3.183   6.809  2.5620 -0.7841 -0.5494
  401MOL0     O54001  10.838  10.467   5.465  0.3601  0.2863  0.8747
  401MOL0     C54002  10.761  10.384   5.428 -0.0895 -0.3154 -0.1556
  401MOL0     O54003  10.799  10.274   5.356 -0.3178 -0.0351 -0.4636
  401MOL0     C54004  10.920  10.270   5.304  0.3601 -0.5206  0.1443
  401MOL0     C54005  10.934  10.226   5.164  0.7978  0.6394 -0.7826
  401MOL0     C54006  11.060  10.228   5.104  0.5919 -0.1381 -0.4006
  401MOL0     C54007  11.176  10.247   5.171 -1.4840 -1.0029 -0.5888
  401MOL0     O54008  11.296  10.240   5.105 -0.8799 -0.2300 -0.2555
  401MOL0     C54009  11.406  10.307   5.171 -0.6497 -0.2252  0.2597
  401MOL0     C54010  11.519  10.309   5.077  0.0261  0.0912  0.1579
  401MOL0     C54011  11.657  10.331   5.141  0.9944 -0.1516 -0.0799
  401MOL0     C54012  11.762  10.296   5.035 -0.0464 -0.5285  0.5858
  401MOL0     C54013  11.901  10.350   5.076  0.2073 -0.9556  0.1710
  401MOL0     C54014  11.952  10.282   5.203  0.4328 -0.4379  1.0378
  401MOL0     C54015  12.092  10.331   5.231 -1.0239 -0.3987 -0.1944
  401MOL0     C54016  12.150  10.299   5.373 -0.3761  0.1225 -0.7269
  401MOL0     N54017  12.288  10.361   5.387 -0.1867 -0.0245  0.6167
  401MOL0     C54018  12.391  10.311   5.457  0.2005 -0.0327  0.0594
  401MOL0     C54019  12.472  10.414   5.480 -0.1519 -0.2688 -1.6378
  401MOL0     C54020  12.594  10.410   5.568 -0.0089  0.1086  0.3200
  401MOL0     C54021  12.557  10.412   5.722 -0.1671 -0.0544  0.0753
  401MOL0     C54022  12.675  10.377   5.815  0.1182 -0.4259  0.0397
  401MOL0     C54023  12.771  10.501   5.820 -0.0665  0.1267  0.0425
  401MOL0     O54024  12.877  10.472   5.915  0.6790 -0.4412 -0.1437
  401MOL0     C54025  12.992  10.541   5.899 -0.5618 -0.2247 -0.1688
  401MOL0     C54026  13.110  10.494   5.964  0.1340  0.4455  0.4526
  401MOL0     C54027  13.228  10.566   5.962  0.0761  0.1827 -0.1728
  401MOL0     C54028  13.238  10.688   5.889 -0.5186  0.3012 -0.5581
  401MOL0     C54029  13.361  10.751   5.859 -1.1029 -0.4084  0.2339
  401MOL0     O54030  13.459  10.728   5.959  0.5718  0.6103  0.7022
  401MOL0     C54031  13.591  10.773   5.957  0.8941 -0.3842  0.4404
  401MOL0     C54032  13.640  10.876   5.880 -0.1023 -0.6453 -0.0848
  401MOL0     C54033  13.777  10.915   5.896  0.7081  0.9285 -0.2992
  401MOL0     C54034  13.866  10.835   5.968 -0.1787  0.3841 -0.3817
  401MOL0     O54035  13.986  10.889   5.980  0.0360  0.2457  0.4330
  401MOL0     C54036  14.038  10.907   6.118 -0.1240 -0.5777  0.1193
  401MOL0     C54037  14.154  11.004   6.130  0.8676 -0.1763 -0.3624
  401MOL0     C54038  14.254  10.995   6.023 -0.3967  0.0773  0.5130
  401MOL0     C54039  14.358  11.098   6.053 -0.2479 -0.5296 -0.4317
  401MOL0     C54040  14.473  11.042   6.141  0.6108 -1.7346 -0.0930
  401MOL0     C54041  14.572  11.155   6.145  0.4561  0.1328 -0.7941
  401MOL0     C54042  14.682  11.122   6.224 -1.6580 -0.6514 -0.5031
  401MOL0     C54043  14.792  11.236   6.212  0.2435  0.0203 -0.7020
  401MOL0    Cl54044  14.925  11.159   6.302 -0.2443 -0.3878 -0.4075
  401MOL0     C54045  13.822  10.730   6.041 -0.9886  0.7499  0.3315
  401MOL0     C54046  13.680  10.708   6.038 -0.4617 -0.1684  0.4323
  401MOL0     O54047  13.376  10.817   5.754 -0.4548 -0.2134  0.3225
  401MOL0     C54048  13.126  10.730   5.822  1.0988 -0.2134  0.0967
  401MOL0     C54049  13.010  10.655   5.825 -0.0469 -0.8733  0.0455
  401MOL0     N54050  12.428  10.516   5.406 -0.5247  0.1158 -0.6542
  401MOL0     N54051  12.317  10.489   5.354  0.0933 -0.6721  0.3271
  401MOL0     C54052  11.163  10.270   5.313 -1.1419  0.7150  0.1206
  401MOL0     C54053  11.040  10.283   5.379  0.2156  0.0192  0.2310
  401MOL0     C54054  10.617  10.409   5.471  0.6291 -0.2237 -0.1410
  401MOL0     C54055  10.580  10.487   5.585 -0.5603  0.4116 -0.1153
  401MOL0     C54056  10.446  10.499   5.623  0.3308 -0.3125  0.3134
  401MOL0     C54057  10.344  10.433   5.558 -0.5920 -0.5071  1.0323
  401MOL0     O54058  10.215  10.427   5.603  0.3693 -0.0217 -0.0541
  401MOL0     C54059  10.158  10.534   5.670  0.6651  0.0656 -0.5853
  401MOL0     C54060  10.008  10.516   5.677 -0.5256 -0.5172 -0.4931
  401MOL0     C54061   9.923  10.553   5.550 -0.8870  0.0710  0.0890
  401MOL0     C54062   9.970  10.484   5.421 -0.0769  0.5625 -0.2339
  401MOL0     C54063   9.878  10.501   5.309  0.4583 -0.2965 -0.3929
  401MOL0     C54064   9.792  10.500   5.225 -0.0103 -0.6396  0.0708
  401MOL0     C54065  10.378  10.347   5.454  0.4738  0.3282 -0.2317
  401MOL0     C54066  10.506  10.333   5.402  0.3520 -1.2246 -0.3175
  401MOL0     C54067  10.522  10.234   5.283 -0.1778  0.5369 -0.5511
  401MOL0     H54068  10.849  10.211   5.098 -1.0033  0.7209  1.4011
  401MOL0     H54069  11.067  10.209   4.997 -1.8012  0.5770 -0.7489
  401MOL0     H54070  11.379  10.407   5.204 -3.7774  0.3943 -3.5109
  401MOL0     H54071  11.439  10.244   5.255 -2.9595  2.4539  3.4302
  401MOL0     H54072  11.498  10.373   4.991  0.0857 -2.5817 -1.9808
  401MOL0     H54073  11.521  10.208   5.036 -3.9916 -0.7122  1.4627
  401MOL0     H54074  11.673  10.272   5.232 -0.7758  5.6334  4.6453
  401MOL0     H54075  11.669  10.434   5.178 -0.0950  1.5476 -3.9582
  401MOL0     H54076  11.760  10.187   5.032 -4.4229 -0.6301  1.1339
  401MOL0     H54077  11.733  10.323   4.933  2.8537  2.0108  0.3034
  401MOL0     H54078  11.970  10.338   4.992  0.5770 -1.0457  0.4829
  401MOL0     H54079  11.906  10.459   5.086 -0.0258 -0.9589  0.3281
  401MOL0     H54080  11.889  10.313   5.287 -1.3138  3.8534 -1.5190
  401MOL0     H54081  11.952  10.173   5.188 -2.8188 -0.1069 -3.6651
  401MOL0     H54082  12.083  10.440   5.230 -1.0744 -0.2817  2.9248
  401MOL0     H54083  12.166  10.314   5.152 -2.0732 -0.9355 -1.0902
  401MOL0     H54084  12.083  10.348   5.444  1.7901  0.8008  0.9326
  401MOL0     H54085  12.148  10.192   5.397  1.3250 -0.0720 -1.2811
  401MOL0     H54086  12.426  10.223   5.510  3.3860  2.0142  1.6724
  401MOL0     H54087  12.661  10.326   5.545  0.5823  0.5246  0.4959
  401MOL0     H54088  12.656  10.493   5.534  0.8372 -1.6781 -2.8456
  401MOL0     H54089  12.515  10.503   5.765 -0.0209  0.2900 -0.4945
  401MOL0     H54090  12.479  10.336   5.737  0.6487 -0.7700  0.8437
  401MOL0     H54091  12.725  10.298   5.758 -0.9980 -0.8209 -0.4210
  401MOL0     H54092  12.649  10.348   5.917  0.7470 -1.1813 -0.0037
  401MOL0     H54093  12.713  10.592   5.841 -1.2908 -0.2390 -1.6112
  401MOL0     H54094  12.813  10.517   5.721 -0.8962  2.1933 -0.0475
  401MOL0     H54095  13.108  10.397   6.014  1.1490 -0.3483 -0.9610
  401MOL0     H54096  13.316  10.509   5.990 -0.6985 -1.5697 -1.1604
  401MOL0     H54097  13.578  10.931   5.810 -1.1022  0.7416  1.7941
  401MOL0     H54098  13.821  11.004   5.852  1.3226  0.0462 -1.5276
  401MOL0     H54099  13.960  10.936   6.190  0.6501  0.7553  0.4562
  401MOL0     H54100  14.069  10.807   6.150  0.4687 -1.1353 -2.0561
  401MOL0     H54101  14.110  11.104   6.121  0.1760 -0.3925  0.5519
  401MOL0     H54102  14.204  10.988   6.225  1.1925 -2.8907 -0.8870
  401MOL0     H54103  14.291  10.894   6.002 -4.1509 -0.7914 -3.7042
  401MOL0     H54104  14.204  11.021   5.929  0.9129 -1.2201 -0.5886
  401MOL0     H54105  14.322  11.190   6.098 -2.4535 -0.1679 -2.7033
  401MOL0     H54106  14.395  11.122   5.953 -1.1253 -0.3283 -0.7159
  401MOL0     H54107  14.517  10.957   6.089 -0.5455 -2.0588 -0.5731
  401MOL0     H54108  14.451  11.006   6.241 -2.2694 -2.1336 -0.7777
  401MOL0     H54109  14.606  11.170   6.042 -1.4618 -0.6547 -1.5932
  401MOL0     H54110  14.530  11.245   6.190 -2.2948 -1.4700  0.1016
  401MOL0     H54111  14.723  11.026   6.192  4.6410  2.0924 -2.3679
  401MOL0     H54112  14.664  11.123   6.332  0.6322 -1.2416 -0.0613
  401MOL0     H54113  14.819  11.257   6.108 -1.5454 -0.5623 -1.3277
  401MOL0     H54114  14.760  11.332   6.253 -3.2467 -0.9788 -0.7522
  401MOL0     H54115  13.879  10.675   6.115 -1.6755 -0.3639  0.0524
  401MOL0     H54116  13.651  10.633   6.110 -1.8329  1.1313  1.2858
  401MOL0     H54117  13.131  10.815   5.755 -2.2387  0.8605  0.9793
  401MOL0     H54118  12.935  10.706   5.766  1.4265  2.0782  0.5491
  401MOL0     H54119  11.254  10.295   5.365  0.8723 -0.9563 -2.3836
  401MOL0     H54120  11.045  10.290   5.487 -1.3642  2.7296  0.2001
  401MOL0     H54121  10.656  10.532   5.648  1.7156 -1.7140 -1.2051
  401MOL0     H54122  10.415  10.539   5.719 -1.6260 -1.3516  0.1623
  401MOL0     H54123  10.191  10.625   5.619  1.4865 -0.2257 -0.5928
  401MOL0     H54124  10.195  10.529   5.773  0.8055 -3.2264 -0.7050
  401MOL0     H54125   9.970  10.575   5.762 -0.2944  1.3261 -1.6048
  401MOL0     H54126   9.997  10.410   5.701 -0.8537 -0.2021  0.8160
  401MOL0     H54127   9.926  10.662   5.542 -3.7326  0.3872  1.8446
  401MOL0     H54128   9.816  10.536   5.565 -0.9255  0.0938 -0.1494
  401MOL0     H54129  10.064  10.532   5.392 -0.5739  1.1321 -0.9305
  401MOL0     H54130   9.996  10.379   5.438 -0.8338  0.5386  0.8946
  401MOL0     H54131   9.727  10.511   5.140  1.3306 -1.1495 -1.0653
  401MOL0     H54132  10.297  10.286   5.416  0.3819  0.0235  0.4325
  401MOL0     H54133  10.531  10.281   5.184  1.3955 -0.0260 -0.7030
  401MOL0     H54134  10.599  10.160   5.306  0.1487  1.9210  3.5178
  401MOL0     H54135  10.434  10.169   5.276  0.1799 -0.1515  0.9428
  402MOL0     O54136   6.787  10.239   8.945  0.4189 -0.6144  0.3057
  402MOL0     C54137   6.696  10.225   9.031 -0.1467  0.8725 -0.2910
  402MOL0     O54138   6.708  10.191   9.162  0.6570 -0.2132 -0.0529
  402MOL0     C54139   6.839  10.195   9.207 -0.5400 -0.8655  0.5217
  402MOL0     C54140   6.894  10.320   9.247  0.7937 -0.6746 -0.4844
  402MOL0     C54141   7.027  10.327   9.290  0.4472 -0.0334  0.2964
  402MOL0     C54142   7.107  10.219   9.299 -0.0248 -0.8589 -0.3344
  402MOL0     O54143   7.232  10.241   9.351 -0.2412 -0.8353 -0.9229
  402MOL0     C54144   7.321  10.142   9.394  0.0983 -0.1053  0.4832
  402MOL0     C54145   7.460  10.201   9.386  0.3609 -0.3855 -0.6087
  402MOL0     C54146   7.473  10.310   9.487 -0.1362  0.0452 -0.5280
  402MOL0     C54147   7.546  10.264   9.617  0.3264 -0.2373  0.1423
  402MOL0     C54148   7.577  10.379   9.713 -0.5992 -1.3566 -0.4743
  402MOL0     C54149   7.638  10.320   9.846 -0.3848  1.0873 -0.2402
  402MOL0     C54150   7.631  10.431   9.948 -0.6157  0.2792  0.1426
  402MOL0     C54151   7.663  10.363  10.082 -1.1042 -0.3383  0.2411
  402MOL0     N54152   7.809  10.328  10.082  0.2591 -0.0872 -0.2512
  402MOL0     C54153   7.914  10.412  10.074 -0.0308 -0.6555 -0.3752
  402MOL0     C54154   8.014  10.335  10.119  0.7411 -0.0382  0.6381
  402MOL0     C54155   8.158  10.388  10.137 -0.1902 -0.2487 -0.2916
  402MOL0     C54156   8.254  10.268  10.152 -0.5568  0.0516 -0.2217
  402MOL0     C54157   8.391  10.318  10.148 -0.6210 -0.5604  0.1361
  402MOL0     C54158   8.432  10.349   9.999 -0.1978  0.4358 -0.3598
  402MOL0     O54159   8.557  10.418   9.992  0.2390  0.2352  0.5315
  402MOL0     C54160   8.680  10.352  10.002  0.5376  0.8568  0.0827
  402MOL0     C54161   8.696  10.223  10.039 -0.6304 -0.1120  0.3360
  402MOL0     C54162   8.816  10.153  10.036  0.6677  0.4801 -0.5589
  402MOL0     C54163   8.931  10.225   9.992 -0.4915  0.7146  0.3216
  402MOL0     C54164   9.059  10.149   9.966  0.4606 -0.1666  0.8315
  402MOL0     O54165   9.177  10.221   9.968  0.2802  0.3371 -0.3649
  402MOL0     C54166   9.296  10.158   9.979 -0.2777 -0.2040 -0.6880
  402MOL0     C54167   9.318  10.046  10.052  0.9835 -0.8448  1.2264
  402MOL0     C54168   9.436   9.979  10.052 -0.4643  0.8908  0.6733
  402MOL0     C54169   9.543  10.022   9.978  0.0939  0.2880 -0.0320
  402MOL0     O54170   9.665   9.957   9.967 -0.4586  0.0798 -0.3495
  402MOL0     C54171   9.678   9.821   9.932  0.6406 -0.4199 -0.2315
  402MOL0     C54172   9.821   9.772   9.933 -0.6083 -0.4415  0.4725
  402MOL0     C54173   9.890   9.846   9.809  0.4083  0.1882 -0.2187
  402MOL0     C54174  10.040   9.826   9.813 -0.5771 -0.3196  0.5630
  402MOL0     C54175  10.119   9.889   9.695 -0.1290  0.1778  0.6398
  402MOL0     C54176  10.266   9.858   9.704  0.9255  0.9375  0.2519
  402MOL0     C54177  10.361   9.952   9.628 -0.4477  0.4168  0.5548
  402MOL0     C54178  10.510   9.937   9.679 -0.4671 -0.6614  0.1300
  402MOL0    Cl54179  10.582   9.772   9.660 -0.1684 -0.5555  0.0961
  402MOL0     C54180   9.522  10.138   9.900 -0.1987 -0.0877  1.0932
  402MOL0     C54181   9.397  10.205   9.894  0.9109  0.1423 -0.3067
  402MOL0     O54182   9.046  10.030   9.941  0.1756  0.7099 -0.3435
  402MOL0     C54183   8.924  10.356   9.960  0.7972 -0.2433 -0.5178
  402MOL0     C54184   8.801  10.427   9.971  0.4673  0.2989  0.2612
  402MOL0     N54185   7.969  10.201  10.150  0.2811  0.3125 -1.0482
  402MOL0     N54186   7.846  10.193  10.110 -0.8002  0.7789  0.2976
  402MOL0     C54187   7.047  10.094   9.278 -0.6160 -0.6711 -0.2930
  402MOL0     C54188   6.919  10.082   9.230  0.3838 -0.9594  0.4141
  402MOL0     C54189   6.553  10.266   8.983 -0.0115  0.2910 -0.0863
  402MOL0     C54190   6.471  10.176   8.914 -0.1059 -0.6718  0.5441
  402MOL0     C54191   6.351  10.214   8.857  0.7689 -0.5827 -0.2517
  402MOL0     C54192   6.303  10.345   8.877  0.5372 -0.1378 -0.3820
  402MOL0     O54193   6.181  10.381   8.828 -0.9871 -0.3336  0.1623
  402MOL0     C54194   6.137  10.517   8.855  1.0868  0.1363  0.0580
  402MOL0     C54195   6.197  10.605   8.740 -0.3022 -0.3170 -0.4158
  402MOL0     C54196   6.182  10.760   8.765 -0.5053  0.0383  0.6436
  402MOL0     C54197   6.199  10.841   8.636 -0.1776  0.4148  0.1548
  402MOL0     C54198   6.193  10.988   8.643  0.3416  0.3721 -0.4198
  402MOL0     C54199   6.191  11.101   8.670  0.0202 -0.1023 -0.6814
  402MOL0     C54200   6.390  10.432   8.945 -0.3216 -0.4773 -0.1978
  402MOL0     C54201   6.517  10.402   8.992  0.8629 -0.1273  0.4531
  402MOL0     C54202   6.596  10.503   9.076  0.0154 -0.3306 -0.0238
  402MOL0     H54203   6.831  10.405   9.224 -0.3351 -0.6252  2.3662
  402MOL0     H54204   7.071  10.427   9.295  0.8058 -0.2567  2.5660
  402MOL0     H54205   7.304  10.112   9.498  2.2115  0.6943  1.1220
  402MOL0     H54206   7.329  10.056   9.327  1.7051 -2.6135  3.6166
  402MOL0     H54207   7.475  10.228   9.281 -2.8505  0.2585 -0.9862
  402MOL0     H54208   7.533  10.122   9.407 -0.2173 -0.6924  0.2583
  402MOL0     H54209   7.378  10.360   9.509 -0.5312 -0.7921 -0.3113
  402MOL0     H54210   7.529  10.391   9.440  0.9037 -1.1597 -1.4304
  402MOL0     H54211   7.487  10.187   9.669 -0.8258 -0.3229 -1.2266
  402MOL0     H54212   7.636  10.209   9.590  0.0797 -1.4178  1.5450
  402MOL0     H54213   7.646  10.452   9.669 -1.2039 -1.2686 -1.2868
  402MOL0     H54214   7.485  10.433   9.737  0.7716  0.6737  0.4907
  402MOL0     H54215   7.592  10.225   9.874 -0.9933  1.7839  1.2570
  402MOL0     H54216   7.744  10.299   9.831 -0.5166 -0.9527  1.2743
  402MOL0     H54217   7.529  10.469   9.945  0.4901  3.5042 -0.5055
  402MOL0     H54218   7.691  10.517   9.918 -1.1953  0.3504 -0.8578
  402MOL0     H54219   7.635  10.433  10.161 -2.5239  0.4081 -0.8795
  402MOL0     H54220   7.609  10.268  10.087  0.2234 -1.1655 -0.4722
  402MOL0     H54221   7.908  10.515  10.040  0.5624 -0.8932 -1.2491
  402MOL0     H54222   8.195  10.449  10.055  0.4572 -2.4031 -1.6938
  402MOL0     H54223   8.163  10.449  10.228  3.5352 -1.0792  0.2240
  402MOL0     H54224   8.234  10.233  10.254 -2.4590  1.3815 -0.0858
  402MOL0     H54225   8.228  10.194  10.075  1.2992  0.6982 -1.5368
  402MOL0     H54226   8.470  10.261  10.198  0.2096 -0.8911 -1.4867
  402MOL0     H54227   8.386  10.416  10.197 -0.7494 -0.6003  0.2047
  402MOL0     H54228   8.352  10.399   9.943 -0.5762 -0.5150 -0.6767
  402MOL0     H54229   8.437  10.259   9.938  0.4803 -0.0334  0.3642
  402MOL0     H54230   8.614  10.164  10.079  1.1730 -2.9167  0.2055
  402MOL0     H54231   8.829  10.048  10.062  3.2241  1.2036  1.6567
  402MOL0     H54232   9.240  10.001  10.113  0.8558 -3.0641 -0.4647
  402MOL0     H54233   9.448   9.882  10.099 -0.8552  0.3275 -0.3635
  402MOL0     H54234   9.602   9.777   9.997 -0.9186  2.7636  0.3123
  402MOL0     H54235   9.639   9.807   9.830  1.4779 -2.0392 -0.3559
  402MOL0     H54236   9.862   9.800  10.030 -0.9824  0.6031  0.3403
  402MOL0     H54237   9.839   9.666   9.909  1.2877  0.1881 -1.1805
  402MOL0     H54238   9.859   9.809   9.711  0.5942 -1.8841  0.4407
  402MOL0     H54239   9.868   9.953   9.818 -0.9884 -0.2381  4.3173
  402MOL0     H54240  10.066   9.720   9.822 -0.2215 -0.2884 -0.0337
  402MOL0     H54241  10.074   9.883   9.900 -1.6116 -0.2662  0.9422
  402MOL0     H54242  10.104   9.996   9.713  1.0746  0.6566 -0.9797
  402MOL0     H54243  10.084   9.869   9.594  1.9451 -0.3860 -0.0132
  402MOL0     H54244  10.288   9.856   9.811 -1.4020  0.8932  0.7845
  402MOL0     H54245  10.286   9.753   9.679  0.7188  0.9113  0.1929
  402MOL0     H54246  10.331  10.056   9.642 -3.0020 -0.5230  3.1911
  402MOL0     H54247  10.366   9.915   9.525  0.3186 -4.0804  1.9687
  402MOL0     H54248  10.566  10.003   9.611 -1.3454 -2.1347 -2.1639
  402MOL0     H54249  10.519   9.967   9.783 -0.3614 -2.5786  0.6962
  402MOL0     H54250   9.595  10.166   9.825 -0.2675  1.2756  1.5017
  402MOL0     H54251   9.380  10.280   9.818 -0.4549 -1.1023 -1.3000
  402MOL0     H54252   9.017  10.407   9.939  1.4911  0.8043  4.0468
  402MOL0     H54253   8.799  10.533   9.950  2.1583  0.6851  1.8250
  402MOL0     H54254   7.112  10.012   9.309  1.2150 -0.2471 -2.7617
  402MOL0     H54255   6.870   9.987   9.210 -5.3273  1.5245  0.7482
  402MOL0     H54256   6.509  10.076   8.899 -3.1349 -1.8974  0.3075
  402MOL0     H54257   6.287  10.138   8.814  2.1057 -2.0682  0.2807
  402MOL0     H54258   6.182  10.558   8.946  1.1087  0.0895  0.0678
  402MOL0     H54259   6.028  10.522   8.862  1.1492  1.1809  0.3765
  402MOL0     H54260   6.148  10.578   8.646 -1.5502 -0.9830  0.3851
  402MOL0     H54261   6.305  10.588   8.730 -0.0119  0.1856  1.3869
  402MOL0     H54262   6.259  10.789   8.837 -2.4336  2.2078  1.9673
  402MOL0     H54263   6.085  10.776   8.814 -0.1819 -3.9267  2.9901
  402MOL0     H54264   6.297  10.813   8.598 -1.0841 -3.1779  0.1876
  402MOL0     H54265   6.122  10.821   8.561 -0.9608  2.4460  0.3306
  402MOL0     H54266   6.177  11.204   8.695  0.5471  0.3905 -2.3078
  402MOL0     H54267   6.355  10.532   8.970 -2.1617 -1.1098 -0.0909
  402MOL0     H54268   6.581  10.605   9.038  1.3868 -0.0739  0.0599
  402MOL0     H54269   6.567  10.492   9.181  1.5640 -3.2971  0.1986
  402MOL0     H54270   6.704  10.486   9.067 -0.2547 -1.4176 -1.5390
  403MOL0     O54271   0.493   0.471   6.808  0.0758 -0.6218  0.8250
  403MOL0     C54272   0.455   0.360   6.766 -1.0780 -0.1952  0.0720
  403MOL0     O54273   0.522   0.278   6.682 -1.7225  0.0488  0.0524
  403MOL0     C54274   0.635   0.316   6.613  1.0553 -0.4235 -0.3125
  403MOL0     C54275   0.763   0.300   6.671 -0.2665  0.2637 -0.0219
  403MOL0     C54276   0.879   0.340   6.598 -0.9371  0.1883  0.0395
  403MOL0     C54277   0.870   0.370   6.460  0.6494  0.2602 -0.3853
  403MOL0     O54278   0.970   0.401   6.373 -0.3241  0.6492 -0.0051
  403MOL0     C54279   1.105   0.364   6.401  0.6031  0.1467  0.6898
  403MOL0     C54280   1.184   0.485   6.430  0.1645 -1.0118  0.4374
  403MOL0     C54281   1.317   0.470   6.360 -1.3661 -0.6667  0.5037
  403MOL0     C54282   1.401   0.594   6.413 -0.4426 -0.5319 -0.4654
  403MOL0     C54283   1.553   0.571   6.404 -0.2066  0.0228 -0.8362
  403MOL0     C54284   1.599   0.529   6.548  0.5550 -0.4160  0.0397
  403MOL0     C54285   1.752   0.510   6.562 -0.2289 -0.2581 -0.9250
  403MOL0     C54286   1.839   0.632   6.554  0.2115  0.1648  0.0279
  403MOL0     N54287   1.976   0.592   6.550  0.3253  0.3666  0.1915
  403MOL0     C54288   2.054   0.540   6.655  0.5347  0.8618  0.7180
  403MOL0     C54289   2.174   0.516   6.588  0.1151 -0.8148 -0.2229
  403MOL0     C54290   2.303   0.463   6.643  0.7042  0.6895 -0.2468
  403MOL0     C54291   2.405   0.566   6.694 -1.2326  0.2759  0.1878
  403MOL0     C54292   2.486   0.648   6.592  0.0636  0.4708  0.0041
  403MOL0     C54293   2.570   0.568   6.497  0.1589 -0.1807  0.6129
  403MOL0     O54294   2.650   0.469   6.561 -0.9227 -0.4662 -0.1108
  403MOL0     C54295   2.778   0.504   6.611  0.2715 -0.4842  0.0986
  403MOL0     C54296   2.851   0.403   6.668 -0.5094  0.0689 -0.2977
  403MOL0     C54297   2.976   0.429   6.735  0.7865  0.4112  0.2907
  403MOL0     C54298   3.026   0.557   6.738 -0.9058  0.2697  0.6155
  403MOL0     C54299   3.158   0.575   6.800  0.1052 -0.1929  0.3211
  403MOL0     O54300   3.220   0.464   6.838 -0.2905 -0.7010 -0.0825
  403MOL0     C54301   3.360   0.461   6.866  0.9096  0.0964  0.6419
  403MOL0     C54302   3.401   0.382   6.977  0.5505 -0.6091 -0.8383
  403MOL0     C54303   3.538   0.370   7.004 -0.3649 -0.1325 -1.1820
  403MOL0     C54304   3.631   0.443   6.938  0.5646 -1.3835  0.4475
  403MOL0     O54305   3.757   0.438   6.988 -0.3288  0.3801  0.2706
  403MOL0     C54306   3.875   0.454   6.897 -0.0138  0.7748  0.9208
  403MOL0     C54307   3.930   0.587   6.938 -0.3274  0.2192 -0.1509
  403MOL0     C54308   4.072   0.608   6.878  0.2688  0.2324 -0.2538
  403MOL0     C54309   4.137   0.740   6.918 -0.1452  0.0409 -0.7056
  403MOL0     C54310   4.275   0.769   6.875 -0.4942  0.1181 -0.3141
  403MOL0     C54311   4.365   0.645   6.896 -0.0143 -0.8591  0.3183
  403MOL0     C54312   4.507   0.707   6.892 -0.7142  0.5374 -0.0532
  403MOL0     C54313   4.619   0.596   6.888  0.5390  0.3229 -0.1334
  403MOL0    Cl54314   4.605   0.528   7.050 -0.0193 -0.3243  0.4594
  403MOL0     C54315   3.581   0.511   6.816 -0.6888  0.2862 -0.6011
  403MOL0     C54316   3.447   0.523   6.794  0.4944  0.1554 -0.0239
  403MOL0     O54317   3.193   0.687   6.827 -0.2819 -0.0370 -0.0904
  403MOL0     C54318   2.952   0.663   6.680 -0.4112  0.8946 -0.4462
  403MOL0     C54319   2.828   0.632   6.617 -0.5109  0.4059 -0.6779
  403MOL0     N54320   2.165   0.571   6.460 -0.3377  0.7650  0.0204
  403MOL0     N54321   2.049   0.621   6.437  0.4245  0.4856 -0.0632
  403MOL0     C54322   0.737   0.385   6.401  0.5526  0.2076 -0.5138
  403MOL0     C54323   0.618   0.351   6.480 -0.5991  0.7692  0.4106
  403MOL0     C54324   0.322   0.322   6.803  0.7880  0.0270  0.2035
  403MOL0     C54325   0.274   0.195   6.760 -0.7787  0.3181 -1.2693
  403MOL0     C54326   0.151   0.146   6.794  0.1236  0.4170 -0.2689
  403MOL0     C54327   0.069   0.213   6.884  0.0129  0.7015 -0.1983
  403MOL0     O54328  -0.051   0.158   6.929 -0.4452  0.4453  0.1730
  403MOL0     C54329  -0.157   0.244   6.952  0.2681  0.1452 -0.7414
  403MOL0     C54330  -0.292   0.175   6.958  0.0736 -0.2091  0.4283
  403MOL0     C54331  -0.291   0.060   7.057 -0.8418  0.6615  0.1057
  403MOL0     C54332  -0.390  -0.050   7.024  0.1010  0.1108 -0.1199
  403MOL0     C54333  -0.501  -0.031   7.116  0.0198  0.1311  0.3295
  403MOL0     C54334  -0.590  -0.011   7.191  0.0309 -0.7398  1.2921
  403MOL0     C54335   0.115   0.335   6.935  0.2582 -0.2399  0.7784
  403MOL0     C54336   0.237   0.397   6.892  0.4946  0.1916 -0.4413
  403MOL0     C54337   0.271   0.524   6.975  0.0364  0.1927  0.5574
  403MOL0     H54338   0.774   0.286   6.778  0.7788  2.8440  0.2944
  403MOL0     H54339   0.974   0.339   6.649 -0.3020  0.0683 -1.1126
  403MOL0     H54340   1.107   0.288   6.479  0.3914  0.3850  0.9266
  403MOL0     H54341   1.140   0.306   6.314  1.2598  1.8869 -0.2666
  403MOL0     H54342   1.211   0.490   6.536 -1.7571 -2.8626  1.0887
  403MOL0     H54343   1.135   0.577   6.397  3.2965 -0.1341 -2.3623
  403MOL0     H54344   1.304   0.483   6.252 -1.3699  0.6256  0.6449
  403MOL0     H54345   1.365   0.376   6.387 -2.7642 -1.6278 -0.2539
  403MOL0     H54346   1.347   0.680   6.372 -1.9130  0.9133  3.8766
  403MOL0     H54347   1.386   0.616   6.519  0.0532  0.0748 -0.5125
  403MOL0     H54348   1.567   0.494   6.327 -2.1985 -1.9543  0.6468
  403MOL0     H54349   1.584   0.673   6.379 -0.8178  1.2076  2.6915
  403MOL0     H54350   1.562   0.603   6.620 -4.6831 -0.8197 -1.7607
  403MOL0     H54351   1.536   0.449   6.588 -0.4771  1.2592  2.0050
  403MOL0     H54352   1.779   0.440   6.483  0.8082 -2.1521  0.9959
  403MOL0     H54353   1.768   0.466   6.661 -2.0961 -1.0842 -0.9463
  403MOL0     H54354   1.813   0.685   6.462  1.6838 -1.5821 -1.4729
  403MOL0     H54355   1.818   0.699   6.639 -1.8051 -1.3406  0.7988
  403MOL0     H54356   2.027   0.537   6.760  1.1411  0.1665  0.8643
  403MOL0     H54357   2.287   0.387   6.720  1.0786  1.1936  0.3347
  403MOL0     H54358   2.330   0.406   6.554 -2.5052 -1.2895 -0.1343
  403MOL0     H54359   2.355   0.639   6.757 -2.4128 -0.6666  0.3777
  403MOL0     H54360   2.484   0.526   6.758 -2.7312 -0.2330  1.7859
  403MOL0     H54361   2.534   0.738   6.631  0.3816  1.1861 -1.9274
  403MOL0     H54362   2.411   0.694   6.527  1.5731  2.0832 -0.6666
  403MOL0     H54363   2.631   0.620   6.422 -0.3788 -1.1730 -0.5475
  403MOL0     H54364   2.499   0.507   6.440 -2.2565  1.8660  1.2171
  403MOL0     H54365   2.810   0.303   6.663 -1.2883  0.3577  0.2026
  403MOL0     H54366   3.034   0.344   6.769 -0.8627 -1.4909 -1.3869
  403MOL0     H54367   3.332   0.314   7.027  0.9393 -0.5151 -0.1490
  403MOL0     H54368   3.570   0.328   7.098  0.4261  4.5761  0.9451
  403MOL0     H54369   3.953   0.382   6.920  1.2457  0.9451 -2.3319
  403MOL0     H54370   3.855   0.451   6.790 -1.7324  0.0786  1.2290
  403MOL0     H54371   3.875   0.673   6.900  0.5885  1.8925  2.0646
  403MOL0     H54372   3.951   0.606   7.044 -1.0406  1.7713 -0.2684
  403MOL0     H54373   4.130   0.525   6.919 -1.1845 -1.9863 -2.4634
  403MOL0     H54374   4.059   0.609   6.770  2.2867  2.8093 -0.5921
  403MOL0     H54375   4.131   0.738   7.027  1.4832 -2.2463 -0.6022
  403MOL0     H54376   4.070   0.816   6.877 -0.2120  0.5257  0.2707
  403MOL0     H54377   4.313   0.856   6.929  0.7485  0.6706 -1.9939
  403MOL0     H54378   4.271   0.801   6.770 -0.7974  1.9610  0.2203
  403MOL0     H54379   4.345   0.615   7.000  0.9507  1.8830  1.4055
  403MOL0     H54380   4.354   0.565   6.822 -0.2205 -0.8211  0.3072
  403MOL0     H54381   4.519   0.759   6.988  0.9547 -0.7274  0.4779
  403MOL0     H54382   4.518   0.775   6.807  3.2463  0.8453  0.4874
  403MOL0     H54383   4.620   0.527   6.803  2.6220  0.9165 -0.6672
  403MOL0     H54384   4.719   0.641   6.878  1.1061 -0.4982  1.5472
  403MOL0     H54385   3.655   0.554   6.749  0.4323 -0.9751 -0.2222
  403MOL0     H54386   3.428   0.589   6.709 -1.7747  1.6152  1.4895
  403MOL0     H54387   3.002   0.759   6.679 -0.0968  0.7287 -1.1161
  403MOL0     H54388   2.780   0.721   6.578 -0.3714  0.8868  0.2064
  403MOL0     H54389   0.715   0.415   6.299  2.1124 -1.5352 -1.4135
  403MOL0     H54390   0.518   0.365   6.441 -1.0243 -1.3708  0.6257
  403MOL0     H54391   0.330   0.133   6.691  0.1242 -2.4421  1.6749
  403MOL0     H54392   0.113   0.051   6.758 -0.0625  1.3970 -2.8694
  403MOL0     H54393  -0.154   0.310   6.865  2.7500  0.3167 -0.6145
  403MOL0     H54394  -0.131   0.291   7.047 -1.9192  1.3773 -0.6788
  403MOL0     H54395  -0.308   0.136   6.857  1.4300  0.2729  0.0180
  403MOL0     H54396  -0.372   0.243   6.990 -0.3414  1.0631 -2.9062
  403MOL0     H54397  -0.295   0.090   7.163  0.8512 -0.5696  0.5617
  403MOL0     H54398  -0.194   0.014   7.037 -0.8516  0.9442 -0.5881
  403MOL0     H54399  -0.439  -0.033   6.927 -0.6929  2.9836  0.6814
  403MOL0     H54400  -0.357  -0.152   7.043 -0.2259  0.2406  1.1987
  403MOL0     H54401  -0.678  -0.002   7.252  0.4743 -0.5385  1.9131
  403MOL0     H54402   0.062   0.380   7.019  0.2331  1.6102 -0.1768
  403MOL0     H54403   0.187   0.575   7.022 -0.7900 -0.5815 -0.0615
  403MOL0     H54404   0.340   0.490   7.053  1.4258  0.8576 -0.3256
  403MOL0     H54405   0.317   0.602   6.913  0.5058 -0.5906 -0.1057
  404MOL0     O54406   3.639   8.267   9.515 -0.3291 -1.0931 -0.7570
  404MOL0     C54407   3.580   8.252   9.620  0.2283 -0.5007 -0.5473
  404MOL0     O54408   3.643   8.247   9.740 -0.4046 -0.0762  0.1855
  404MOL0     C54409   3.747   8.339   9.743  0.0404  0.2338  0.8836
  404MOL0     C54410   3.869   8.290   9.741 -0.4951 -0.3589 -1.0182
  404MOL0     C54411   3.981   8.375   9.757 -0.2826  0.3022  0.6297
  404MOL0     C54412   3.978   8.510   9.768 -0.5628 -0.1507 -0.1738
  404MOL0     O54413   4.085   8.595   9.782  0.2423 -0.1472 -0.9916
  404MOL0     C54414   4.199   8.535   9.836  0.7680 -1.0777 -0.9943
  404MOL0     C54415   4.322   8.627   9.835  0.6818  0.5731 -0.4508
  404MOL0     C54416   4.293   8.762   9.905  0.1472 -0.0690  0.8569
  404MOL0     C54417   4.399   8.859   9.883 -0.3686 -0.0456 -0.3532
  404MOL0     C54418   4.376   9.005   9.930  0.5051 -0.2699 -0.2041
  404MOL0     C54419   4.316   9.025  10.071 -0.8416  0.2910  0.4959
  404MOL0     C54420   4.318   9.176  10.117 -0.3845  0.7062 -0.0839
  404MOL0     C54421   4.251   9.211  10.248  0.9212 -1.2363  0.2987
  404MOL0     N54422   4.341   9.200  10.363 -1.1302  1.2635 -0.3121
  404MOL0     C54423   4.292   9.190  10.488  0.3468 -0.2116 -1.3565
  404MOL0     C54424   4.398   9.169  10.562  0.0583 -0.5702 -0.4856
  404MOL0     C54425   4.402   9.176  10.715 -0.0898  0.5020  0.2762
  404MOL0     C54426   4.438   9.312  10.778  1.1456  0.3787 -0.3505
  404MOL0     C54427   4.471   9.300  10.929 -0.4747  0.3857  0.1426
  404MOL0     C54428   4.533   9.424  11.010 -0.2989 -0.6528 -0.3672
  404MOL0     O54429   4.655   9.458  10.942 -0.2908  0.2101  0.0391
  404MOL0     C54430   4.720   9.573  10.948  0.1951 -0.3836  0.3694
  404MOL0     C54431   4.678   9.678  11.022  0.5911  0.1712  0.1343
  404MOL0     C54432   4.760   9.788  11.033  0.1471 -0.3153  0.6633
  404MOL0     C54433   4.878   9.802  10.958 -0.2451 -0.3104  0.3248
  404MOL0     C54434   4.967   9.921  10.975  0.2002 -0.7590 -0.1911
  404MOL0     O54435   5.075   9.924  10.890  0.1053 -0.1460 -0.1142
  404MOL0     C54436   5.156  10.035  10.896 -0.4757  0.1190  0.1911
  404MOL0     C54437   5.292  10.001  10.926 -0.3485 -0.1109 -0.1487
  404MOL0     C54438   5.385  10.107  10.921  0.5370  0.1949 -0.0164
  404MOL0     C54439   5.347  10.243  10.893  0.3836  0.7300 -0.8423
  404MOL0     O54440   5.434  10.348  10.884  0.3900 -0.3718  0.2528
  404MOL0     C54441   5.547  10.331  10.967  0.0359 -0.3761  0.9832
  404MOL0     C54442   5.580  10.477  11.001  1.0440  0.8130  0.0118
  404MOL0     C54443   5.698  10.495  11.101  0.3305  0.1633  0.4443
  404MOL0     C54444   5.782  10.615  11.069 -0.4115  0.5712  0.7716
  404MOL0     C54445   5.897  10.625  11.165 -0.4002  0.2962  0.3976
  404MOL0     C54446   5.960  10.757  11.190  0.9455 -0.3992  0.4883
  404MOL0     C54447   6.100  10.743  11.260  0.3989  0.0015  0.4568
  404MOL0     C54448   6.146  10.879  11.284  0.1334 -1.0256  0.0673
  404MOL0    Cl54449   6.269  10.887  11.416  0.0720  0.0943  0.3283
  404MOL0     C54450   5.206  10.275  10.885 -1.8090  0.0335  0.1099
  404MOL0     C54451   5.116  10.172  10.890  0.9929  1.2358  0.3440
  404MOL0     O54452   4.940  10.009  11.062 -0.2605 -0.0995  0.1289
  404MOL0     C54453   4.909   9.698  10.868  0.3377 -0.8675  0.0024
  404MOL0     C54454   4.836   9.586  10.861  0.5791 -0.2813 -0.8017
  404MOL0     N54455   4.505   9.127  10.483  0.0870  0.4345 -0.0407
  404MOL0     N54456   4.469   9.152  10.358  0.3970  0.2253  0.0966
  404MOL0     C54457   3.845   8.563   9.768  0.7054 -0.0615  0.9908
  404MOL0     C54458   3.737   8.484   9.741  0.5577  0.7127  0.6427
  404MOL0     C54459   3.425   8.249   9.634 -1.0576  0.2357 -0.0303
  404MOL0     C54460   3.362   8.269   9.761  0.8599  0.2658  0.4003
  404MOL0     C54461   3.226   8.249   9.773 -0.0244 -0.2202 -0.2833
  404MOL0     C54462   3.148   8.243   9.666  0.6829  0.0146 -0.1022
  404MOL0     O54463   3.006   8.260   9.666  0.3408 -0.2860 -0.1814
  404MOL0     C54464   2.940   8.259   9.795  0.5341  0.1132  0.0444
  404MOL0     C54465   2.784   8.278   9.773  0.7718 -0.7602 -0.0584
  404MOL0     C54466   2.722   8.160   9.687 -0.3589 -0.8225  0.7126
  404MOL0     C54467   2.568   8.163   9.688  0.8935 -0.9288 -0.1011
  404MOL0     C54468   2.518   8.117   9.817  0.3811 -0.3608  0.0528
  404MOL0     C54469   2.471   8.091   9.926 -0.1935  0.3508 -0.9232
  404MOL0     C54470   3.204   8.220   9.540 -0.4729 -0.5609 -0.0894
  404MOL0     C54471   3.344   8.219   9.523  0.4143  0.0313 -0.1277
  404MOL0     C54472   3.386   8.194   9.381 -0.2073 -0.2049 -0.1620
  404MOL0     H54473   3.882   8.183   9.726  1.1610 -0.5953  1.5036
  404MOL0     H54474   4.071   8.315   9.767  0.1288  0.6809 -0.5952
  404MOL0     H54475   4.171   8.526   9.942  0.5583  0.2960 -0.9207
  404MOL0     H54476   4.221   8.442   9.783 -1.9033 -0.7724 -2.8438
  404MOL0     H54477   4.347   8.647   9.730 -2.7727 -2.5314 -2.1309
  404MOL0     H54478   4.409   8.580   9.880  0.2064  1.7460  1.8398
  404MOL0     H54479   4.277   8.756  10.013  0.4621  1.8973  1.0403
  404MOL0     H54480   4.205   8.808   9.860 -3.1389 -0.4780  6.0237
  404MOL0     H54481   4.480   8.813   9.941 -1.7036 -2.0893 -0.0104
  404MOL0     H54482   4.428   8.870   9.778 -0.9157  2.7518 -0.2891
  404MOL0     H54483   4.470   9.057   9.907 -0.6417  1.3491 -1.4618
  404MOL0     H54484   4.302   9.056   9.868 -1.4362  1.0140  2.9251
  404MOL0     H54485   4.211   8.995  10.080 -1.7950  2.8195 -1.1267
  404MOL0     H54486   4.385   8.971  10.135  2.8484  3.6295 -0.2638
  404MOL0     H54487   4.258   9.225  10.040 -0.9718  1.7591  1.0145
  404MOL0     H54488   4.419   9.217  10.118  0.1129 -0.4631  1.2481
  404MOL0     H54489   4.226   9.317  10.246  4.0330 -0.3711  0.6831
  404MOL0     H54490   4.164   9.146  10.256 -0.6267  0.6766 -0.2859
  404MOL0     H54491   4.196   9.205  10.535  0.5923 -0.4727 -0.7653
  404MOL0     H54492   4.302   9.137  10.735 -0.8970  0.3631 -3.2916
  404MOL0     H54493   4.468   9.098  10.755  1.4741  0.5676 -1.9480
  404MOL0     H54494   4.530   9.348  10.732  3.0845  0.0547  2.9076
  404MOL0     H54495   4.359   9.387  10.763 -1.8282 -2.2630  0.9117
  404MOL0     H54496   4.526   9.209  10.953 -2.0985 -0.4569  0.8265
  404MOL0     H54497   4.372   9.283  10.973  0.1070  2.2221  2.3802
  404MOL0     H54498   4.562   9.398  11.112 -0.7591 -3.6093 -0.8879
  404MOL0     H54499   4.462   9.506  10.996  0.1491 -0.5274 -2.2006
  404MOL0     H54500   4.583   9.671  11.074  0.1965  0.2068 -0.5685
  404MOL0     H54501   4.739   9.867  11.104  2.5895  1.2701 -0.2296
  404MOL0     H54502   5.315   9.896  10.938 -4.2001 -0.8530  2.7270
  404MOL0     H54503   5.488  10.080  10.940  1.5794  3.3189 -0.6490
  404MOL0     H54504   5.520  10.279  11.059 -3.0051  0.4886  0.6919
  404MOL0     H54505   5.632  10.277  10.924 -0.7134 -0.7356 -0.0595
  404MOL0     H54506   5.606  10.517  10.903  0.1226 -0.8847 -0.9686
  404MOL0     H54507   5.488  10.530  11.026  1.6174  1.9052 -0.1166
  404MOL0     H54508   5.672  10.490  11.207 -0.8085  1.1784  0.2332
  404MOL0     H54509   5.771  10.415  11.087  1.1189  0.7677  0.9826
  404MOL0     H54510   5.723  10.706  11.083  1.4972  1.5197  3.4933
  404MOL0     H54511   5.816  10.626  10.966 -0.2820  1.2125  0.8743
  404MOL0     H54512   5.974  10.559  11.125 -0.3820  0.4281  0.2132
  404MOL0     H54513   5.861  10.591  11.263 -3.5893  2.6697  0.2364
  404MOL0     H54514   5.980  10.820  11.103  1.5591 -2.7921 -1.2123
  404MOL0     H54515   5.891  10.817  11.251  0.0503  1.7640 -2.4232
  404MOL0     H54516   6.172  10.679  11.209 -1.6424 -1.1396 -1.1350
  404MOL0     H54517   6.089  10.696  11.358  0.9322 -4.0721 -1.2437
  404MOL0     H54518   6.189  10.914  11.190 -0.5955 -0.8566 -0.2133
  404MOL0     H54519   6.066  10.951  11.306  2.7120  2.1601 -0.1455
  404MOL0     H54520   5.178  10.380  10.889  1.2314  0.9799 -0.8622
  404MOL0     H54521   5.009  10.185  10.888  0.7703 -0.3173 -2.6029
  404MOL0     H54522   4.995   9.706  10.803 -1.8954 -1.4384 -3.2660
  404MOL0     H54523   4.872   9.506  10.797 -0.5268  0.2243 -2.0694
  404MOL0     H54524   3.830   8.668   9.789  1.7572  0.1706  0.6697
  404MOL0     H54525   3.638   8.524   9.725  0.1252 -0.2423  0.8396
  404MOL0     H54526   3.421   8.291   9.850  0.1957 -0.9460  1.1651
  404MOL0     H54527   3.193   8.265   9.875  1.7647  2.3003 -0.0101
  404MOL0     H54528   2.977   8.345   9.852  2.7525 -1.8421  1.7519
  404MOL0     H54529   2.969   8.169   9.850  0.8157  1.3853  2.0590
  404MOL0     H54530   2.765   8.368   9.714 -4.4018 -0.4608  1.5682
  404MOL0     H54531   2.729   8.287   9.867  0.9302  0.6410 -0.0794
  404MOL0     H54532   2.766   8.065   9.719  0.5837 -1.0494 -1.1519
  404MOL0     H54533   2.761   8.168   9.585  1.6914 -2.1685  1.3362
  404MOL0     H54534   2.539   8.266   9.666  1.8873 -0.3557  1.1461
  404MOL0     H54535   2.532   8.092   9.613 -3.2987  0.5015  0.3164
  404MOL0     H54536   2.437   8.062  10.023  1.4857  1.4094  0.0250
  404MOL0     H54537   3.128   8.222   9.462  1.5113 -0.5807 -2.1105
  404MOL0     H54538   3.313   8.131   9.330  0.8582 -2.2481  0.6818
  404MOL0     H54539   3.406   8.289   9.331 -0.4009  0.4191  0.9091
  404MOL0     H54540   3.475   8.130   9.382  0.8642  1.1577  2.4183
  405MOL0     O54541   5.578   5.319   2.302  0.4335 -0.5960 -0.2204
  405MOL0     C54542   5.587   5.255   2.195 -0.4728  0.0138  0.2690
  405MOL0     O54543   5.543   5.125   2.186  0.1755  0.4767 -0.0560
  405MOL0     C54544   5.482   5.050   2.287 -0.4506 -0.1452  0.4088
  405MOL0     C54545   5.541   5.049   2.419  0.4697  0.6024 -0.2098
  405MOL0     C54546   5.486   4.968   2.517 -0.1768  0.3551 -0.0597
  405MOL0     C54547   5.367   4.900   2.496  0.4772  0.4615 -0.0802
  405MOL0     O54548   5.314   4.831   2.605  0.1808 -0.2533 -0.3875
  405MOL0     C54549   5.174   4.803   2.608 -0.0467  0.6470 -0.7692
  405MOL0     C54550   5.117   4.766   2.750  0.0882 -1.0430 -0.0521
  405MOL0     C54551   5.002   4.666   2.746 -0.1090 -0.0048  0.2723
  405MOL0     C54552   4.868   4.718   2.683  0.9776  1.9955 -0.3279
  405MOL0     C54553   4.763   4.614   2.671  1.1539  0.3759 -0.3694
  405MOL0     C54554   4.678   4.581   2.801 -0.8014 -0.8405  0.2118
  405MOL0     C54555   4.591   4.457   2.788  0.2084 -0.1141 -0.3505
  405MOL0     C54556   4.481   4.450   2.679 -0.0704  0.6424 -0.4133
  405MOL0     N54557   4.381   4.560   2.699  0.3900  0.4243  0.6451
  405MOL0     C54558   4.258   4.537   2.759 -0.4634 -0.3879  0.1274
  405MOL0     C54559   4.193   4.660   2.743  1.2706  0.6186 -0.8430
  405MOL0     C54560   4.052   4.673   2.811  0.2827 -0.2892  0.5992
  405MOL0     C54561   4.046   4.650   2.967  0.0824 -0.2303 -0.8313
  405MOL0     C54562   4.154   4.731   3.043 -0.1710  0.5311  0.7037
  405MOL0     C54563   4.151   4.699   3.186 -0.3590 -0.0267  0.7731
  405MOL0     O54564   4.260   4.774   3.248 -0.2498 -0.5059  0.2591
  405MOL0     C54565   4.393   4.752   3.220 -0.2578 -0.0663 -0.8841
  405MOL0     C54566   4.485   4.858   3.239  0.4670  0.1940  0.6157
  405MOL0     C54567   4.627   4.841   3.244 -0.6271 -0.0903 -0.9767
  405MOL0     C54568   4.680   4.709   3.242  0.9850 -0.1517 -0.4270
  405MOL0     C54569   4.815   4.682   3.262  0.5380  0.4406  1.0296
  405MOL0     O54570   4.904   4.768   3.202  0.1949 -0.8342  0.1958
  405MOL0     C54571   5.034   4.769   3.251 -0.1051 -0.2467 -0.1593
  405MOL0     C54572   5.078   4.770   3.381 -0.2846 -0.0592 -0.5620
  405MOL0     C54573   5.211   4.761   3.415  0.1440  0.1517 -0.3266
  405MOL0     C54574   5.312   4.751   3.317 -0.1370 -0.0500 -0.2414
  405MOL0     O54575   5.445   4.726   3.330  0.1756 -0.4283  0.0555
  405MOL0     C54576   5.507   4.737   3.455 -0.3625 -0.3405 -0.2089
  405MOL0     C54577   5.647   4.688   3.456 -1.1283 -0.4439 -0.0982
  405MOL0     C54578   5.716   4.760   3.566 -0.8082 -0.0824 -0.7663
  405MOL0     C54579   5.869   4.726   3.566 -0.2060  0.0811 -0.4725
  405MOL0     C54580   5.941   4.750   3.700 -0.8612 -0.1276 -0.5644
  405MOL0     C54581   5.888   4.650   3.800 -0.1921  0.3560 -0.7476
  405MOL0     C54582   5.985   4.636   3.916  0.1796 -0.6468 -0.2709
  405MOL0     C54583   5.941   4.531   4.021 -0.1827  0.5296  0.9004
  405MOL0    Cl54584   6.059   4.507   4.156 -0.1262  0.2951 -0.5359
  405MOL0     C54585   5.260   4.754   3.182  0.0544  0.4995  0.3169
  405MOL0     C54586   5.122   4.758   3.154 -0.3868  0.6979 -0.1272
  405MOL0     O54587   4.843   4.573   3.312  0.5416 -0.1408  0.2905
  405MOL0     C54588   4.588   4.606   3.220  0.6584 -0.3896  0.6446
  405MOL0     C54589   4.450   4.623   3.214  0.8252 -0.2983 -0.5924
  405MOL0     N54590   4.264   4.743   2.667  0.3245 -0.1557  0.9782
  405MOL0     N54591   4.380   4.685   2.646  0.7633 -0.0137  0.0557
  405MOL0     C54592   5.315   4.893   2.367 -0.2893 -0.2770  0.2205
  405MOL0     C54593   5.376   4.965   2.262 -0.1986  0.1437 -0.3412
  405MOL0     C54594   5.667   5.308   2.080  0.0506 -0.0788 -0.0351
  405MOL0     C54595   5.708   5.211   1.985  0.0808  0.4529 -0.5833
  405MOL0     C54596   5.767   5.245   1.866 -0.9431 -0.1095  0.2963
  405MOL0     C54597   5.811   5.381   1.839  0.3723  0.1367  0.0635
  405MOL0     O54598   5.875   5.401   1.711 -0.3388  0.3472  0.5285
  405MOL0     C54599   5.957   5.517   1.715  0.3323  0.0508  0.5931
  405MOL0     C54600   6.024   5.526   1.573  1.8463 -0.2492  1.0049
  405MOL0     C54601   6.139   5.423   1.554 -0.5869 -0.0127 -0.1001
  405MOL0     C54602   6.213   5.437   1.421 -0.4155 -0.7657 -0.4756
  405MOL0     C54603   6.306   5.327   1.402  0.7253 -0.2985  0.2044
  405MOL0     C54604   6.388   5.244   1.380 -0.6276 -0.4770 -0.0751
  405MOL0     C54605   5.775   5.477   1.938  0.4154 -0.9359 -0.5554
  405MOL0     C54606   5.700   5.448   2.051  0.1287  0.3114  0.9221
  405MOL0     C54607   5.667   5.561   2.141 -0.3556 -0.2419  1.1639
  405MOL0     H54608   5.632   5.104   2.445  1.5727 -1.9190  1.7297
  405MOL0     H54609   5.539   4.966   2.611  0.9105  2.3431 -0.5714
  405MOL0     H54610   5.120   4.891   2.574 -4.7097 -1.7833 -0.4801
  405MOL0     H54611   5.149   4.719   2.542 -0.1321  0.3883 -0.4095
  405MOL0     H54612   5.083   4.856   2.801 -0.3591 -0.6227 -1.0624
  405MOL0     H54613   5.193   4.716   2.811 -0.5053 -3.1143 -0.9006
  405MOL0     H54614   4.983   4.638   2.850  4.2019  2.6824  2.0490
  405MOL0     H54615   5.038   4.579   2.690 -1.8259 -0.1447 -0.6789
  405MOL0     H54616   4.823   4.796   2.746  0.7021  0.6865  1.1767
  405MOL0     H54617   4.890   4.762   2.586  0.8269 -0.8293 -1.7449
  405MOL0     H54618   4.691   4.642   2.594  0.2149 -0.3890  0.2008
  405MOL0     H54619   4.819   4.521   2.662 -1.1552 -1.2064  0.6692
  405MOL0     H54620   4.746   4.557   2.884 -1.9168  0.0196  1.4084
  405MOL0     H54621   4.622   4.668   2.837  1.0959  0.1300  0.9684
  405MOL0     H54622   4.531   4.443   2.878 -0.0957  0.3845 -0.4701
  405MOL0     H54623   4.658   4.371   2.784 -1.0677 -1.1909  0.2996
  405MOL0     H54624   4.528   4.460   2.581  1.5968 -0.2061  0.2689
  405MOL0     H54625   4.432   4.352   2.670  1.2337 -0.0009 -0.7337
  405MOL0     H54626   4.232   4.443   2.807 -1.5435 -0.6373 -0.8908
  405MOL0     H54627   4.020   4.775   2.787 -0.6360 -0.9680 -1.3130
  405MOL0     H54628   3.992   4.602   2.754  0.9776  0.1338 -0.7156
  405MOL0     H54629   3.945   4.668   3.004  0.0972 -1.4771 -0.1635
  405MOL0     H54630   4.070   4.546   2.990  1.1748  0.0736 -0.5102
  405MOL0     H54631   4.134   4.838   3.033 -1.9276  0.1120 -0.6705
  405MOL0     H54632   4.248   4.705   2.993 -2.0575  0.1000 -2.8791
  405MOL0     H54633   4.151   4.592   3.210  0.8174 -0.7521 -2.0484
  405MOL0     H54634   4.054   4.739   3.217 -1.7243  2.5025 -5.3147
  405MOL0     H54635   4.438   4.953   3.261  0.9177 -0.0741  2.9892
  405MOL0     H54636   4.683   4.934   3.253  0.0442 -0.3167 -2.5061
  405MOL0     H54637   5.006   4.781   3.462  0.0039  0.3584 -0.3593
  405MOL0     H54638   5.225   4.767   3.522 -0.1453  0.9584 -0.3281
  405MOL0     H54639   5.504   4.839   3.496  2.7431 -0.7901  1.4573
  405MOL0     H54640   5.439   4.675   3.514 -1.5353  2.1772  1.2912
  405MOL0     H54641   5.648   4.582   3.485  1.5869 -0.0764  1.4308
  405MOL0     H54642   5.695   4.711   3.361 -1.5893  2.4067  0.2737
  405MOL0     H54643   5.717   4.870   3.569  0.7873 -0.0864  0.2356
  405MOL0     H54644   5.667   4.734   3.660  2.5807  0.8416  1.4629
  405MOL0     H54645   5.920   4.796   3.499 -0.7334  0.1888 -0.7646
  405MOL0     H54646   5.872   4.622   3.532  2.5513 -0.2212  0.3894
  405MOL0     H54647   5.933   4.847   3.749 -0.5971 -0.9583  1.2297
  405MOL0     H54648   6.046   4.731   3.678 -0.9430  0.2228 -1.2641
  405MOL0     H54649   5.794   4.696   3.832 -0.1732  1.3811 -2.0405
  405MOL0     H54650   5.861   4.556   3.752 -0.7288  0.3975 -0.5342
  405MOL0     H54651   6.002   4.734   3.962  0.4401  1.1863 -3.9444
  405MOL0     H54652   6.085   4.608   3.883  1.1779  2.5392 -0.2077
  405MOL0     H54653   5.843   4.557   4.060 -0.1703  2.1650 -0.0878
  405MOL0     H54654   5.937   4.441   3.959 -1.1414  2.0026 -1.2901
  405MOL0     H54655   5.335   4.736   3.106  2.5013 -2.6201  3.1171
  405MOL0     H54656   5.082   4.755   3.053 -0.8530 -0.5314  0.0745
  405MOL0     H54657   4.626   4.505   3.233 -0.3989 -0.8247  0.4540
  405MOL0     H54658   4.386   4.538   3.194 -0.4225  0.9997 -2.5072
  405MOL0     H54659   5.219   4.844   2.353 -0.6992  1.0325 -1.8880
  405MOL0     H54660   5.335   4.969   2.161  1.4159  0.2963 -1.0235
  405MOL0     H54661   5.673   5.110   2.003 -1.2956  0.7555 -1.3997
  405MOL0     H54662   5.811   5.173   1.798  3.2063  1.9257  0.5515
  405MOL0     H54663   6.028   5.521   1.799  1.2687 -3.0156  0.0665
  405MOL0     H54664   5.887   5.601   1.720 -0.3296 -0.2669 -2.1457
  405MOL0     H54665   6.057   5.630   1.562  1.1076 -0.0576  0.5203
  405MOL0     H54666   5.949   5.510   1.495  3.4261  0.6724 -0.7632
  405MOL0     H54667   6.111   5.318   1.566  3.4241 -1.1637  0.8382
  405MOL0     H54668   6.209   5.442   1.636 -2.2908 -1.0154  1.6438
  405MOL0     H54669   6.150   5.425   1.332 -1.0657 -1.2243  0.0275
  405MOL0     H54670   6.270   5.530   1.411  0.8326 -1.5217 -0.6146
  405MOL0     H54671   6.466   5.173   1.364  0.2391  0.5645 -0.6410
  405MOL0     H54672   5.805   5.580   1.921  4.9711 -2.1340 -1.0582
  405MOL0     H54673   5.561   5.551   2.163 -0.4972  1.8516  1.6669
  405MOL0     H54674   5.725   5.538   2.231 -1.1936 -3.7511  0.9606
  405MOL0     H54675   5.691   5.663   2.109  2.4700 -1.2315 -0.2167
  406MOL0     O54676   8.678   6.666  10.878  0.0258  0.2902 -0.1336
  406MOL0     C54677   8.605   6.748  10.828 -0.4644 -0.8526  0.2258
  406MOL0     O54678   8.651   6.874  10.786  1.2297  0.0270 -0.0336
  406MOL0     C54679   8.783   6.905  10.748  0.7837  0.6594  0.2855
  406MOL0     C54680   8.889   6.810  10.735  0.1512 -0.0576 -0.1668
  406MOL0     C54681   9.021   6.848  10.717  0.2831 -0.7095  0.1014
  406MOL0     C54682   9.051   6.990  10.701 -1.0390 -0.5294  0.4742
  406MOL0     O54683   9.179   7.039  10.686  0.1592  0.9136 -0.7015
  406MOL0     C54684   9.274   6.975  10.760 -0.2474  0.0337 -0.9006
  406MOL0     C54685   9.405   7.063  10.760 -0.0085  0.2822  0.3146
  406MOL0     C54686   9.519   6.981  10.819  0.2667  0.8149 -0.3453
  406MOL0     C54687   9.646   7.032  10.781 -0.2139 -0.5940  0.8771
  406MOL0     C54688   9.760   6.959  10.841  0.2829 -1.1367  1.1950
  406MOL0     C54689   9.894   7.011  10.788 -0.0346 -1.0267  0.0407
  406MOL0     C54690  10.004   6.928  10.841 -0.0560  0.5421  0.2659
  406MOL0     C54691  10.133   6.995  10.884 -0.2467 -0.2067 -0.3639
  406MOL0     N54692  10.233   6.914  10.950  0.3243 -0.3264  0.2849
  406MOL0     C54693  10.268   6.786  10.911  0.5665 -0.3821  0.2559
  406MOL0     C54694  10.386   6.767  10.978 -0.0499 -0.7001 -0.5148
  406MOL0     C54695  10.476   6.644  10.990  0.8314 -0.5190 -0.2704
  406MOL0     C54696  10.548   6.620  10.862 -0.9120  0.4478 -0.4917
  406MOL0     C54697  10.630   6.499  10.863  0.0410  1.1394 -0.1900
  406MOL0     C54698  10.680   6.440  10.728  0.6575 -0.1182  0.4137
  406MOL0     O54699  10.772   6.332  10.747  0.0983  0.3718 -0.1104
  406MOL0     C54700  10.747   6.237  10.659 -0.3179  0.1899  0.1624
  406MOL0     C54701  10.748   6.107  10.705 -0.2252 -0.8911  0.6728
  406MOL0     C54702  10.729   6.004  10.612 -0.8981  0.6095 -0.1181
  406MOL0     C54703  10.708   6.022  10.469 -1.0273  0.4454 -0.7492
  406MOL0     C54704  10.677   5.910  10.378 -0.0770 -0.3093  0.2438
  406MOL0     O54705  10.630   5.941  10.252  0.2881 -0.4691 -0.4134
  406MOL0     C54706  10.584   5.837  10.176  0.5707  0.8002 -0.2961
  406MOL0     C54707  10.451   5.798  10.178 -0.1921 -0.4088  0.4134
  406MOL0     C54708  10.406   5.694  10.101 -0.0711  1.2286  0.9750
  406MOL0     C54709  10.490   5.635  10.013  0.9724  0.6088 -0.1663
  406MOL0     O54710  10.440   5.543   9.929  0.0580 -0.5326 -0.1815
  406MOL0     C54711  10.333   5.580   9.838 -0.0191  0.1053 -0.7153
  406MOL0     C54712  10.218   5.476   9.842 -0.3161 -0.6226 -0.0927
  406MOL0     C54713  10.271   5.346   9.774 -0.2640 -0.9003 -0.6549
  406MOL0     C54714  10.158   5.243   9.771  0.6775 -0.2106  0.0963
  406MOL0     C54715  10.195   5.102   9.742 -0.1088 -0.7405 -0.2410
  406MOL0     C54716  10.230   5.084   9.595 -0.3033  0.4711 -0.0956
  406MOL0     C54717  10.271   4.940   9.580 -1.2668 -0.0638  1.3122
  406MOL0     C54718  10.265   4.907   9.428  0.2609  0.1788  0.2679
  406MOL0    Cl54719  10.339   5.034   9.337  0.1650  0.1567  0.2350
  406MOL0     C54720  10.625   5.667  10.005  0.0915  0.0626  0.0107
  406MOL0     C54721  10.670   5.764  10.090  0.0140  0.0394 -0.4242
  406MOL0     O54722  10.714   5.790  10.410 -0.4666 -0.5559  0.2360
  406MOL0     C54723  10.726   6.158  10.428  0.0641 -0.3974 -0.1477
  406MOL0     C54724  10.751   6.252  10.528 -0.5355 -0.0063  0.7914
  406MOL0     N54725  10.413   6.871  11.054  0.9183 -0.2355  0.6724
  406MOL0     N54726  10.317   6.956  11.042  0.1643 -0.0598  0.6332
  406MOL0     C54727   8.949   7.085  10.722  0.3074  0.4233  0.5468
  406MOL0     C54728   8.815   7.042  10.737  0.4528 -0.0359 -0.1455
  406MOL0     C54729   8.462   6.705  10.817 -0.2778  0.7664  0.7127
  406MOL0     C54730   8.416   6.575  10.859  0.3880 -0.8399 -0.1126
  406MOL0     C54731   8.277   6.552  10.881  0.8899 -0.3027  0.1250
  406MOL0     C54732   8.180   6.634  10.826 -0.5068 -0.2011 -0.7129
  406MOL0     O54733   8.055   6.590  10.844  0.6078 -0.0925  0.4038
  406MOL0     C54734   7.958   6.638  10.740  0.4158  0.4516  0.4457
  406MOL0     C54735   7.865   6.748  10.792 -0.2621  0.9036  0.5721
  406MOL0     C54736   7.761   6.692  10.888  0.8297  0.3497 -0.3575
  406MOL0     C54737   7.667   6.807  10.930 -0.1418 -0.2877  0.2547
  406MOL0     C54738   7.734   6.888  11.034  0.6288 -0.4853  0.1060
  406MOL0     C54739   7.772   6.969  11.113  0.2979 -0.2218 -0.0642
  406MOL0     C54740   8.222   6.757  10.774  0.2655 -0.8999 -0.6072
  406MOL0     C54741   8.358   6.790  10.760 -0.5992  0.8835 -0.3157
  406MOL0     C54742   8.388   6.926  10.705 -0.3927 -0.3249 -0.0160
  406MOL0     H54743   8.886   6.701  10.739  1.0632 -0.0615  1.3804
  406MOL0     H54744   9.102   6.776  10.719  1.0972  0.1921  0.6153
  406MOL0     H54745   9.252   6.959  10.866  1.1798 -2.7129 -0.9358
  406MOL0     H54746   9.295   6.881  10.708  2.3004  0.2031 -0.3131
  406MOL0     H54747   9.383   7.145  10.829 -3.1379 -0.9433  0.9129
  406MOL0     H54748   9.424   7.088  10.655  0.3205 -0.1235  0.2764
  406MOL0     H54749   9.521   6.882  10.772 -1.8239  0.8763 -0.6656
  406MOL0     H54750   9.507   6.983  10.928 -1.1580 -0.4457 -0.4332
  406MOL0     H54751   9.651   7.029  10.672  0.0123 -0.2310  0.8754
  406MOL0     H54752   9.657   7.138  10.804 -1.9032 -0.4932  1.3911
  406MOL0     H54753   9.760   6.984  10.947  0.2925 -0.2214  0.9879
  406MOL0     H54754   9.754   6.852  10.818  0.4387 -1.4960  2.7246
  406MOL0     H54755   9.905   7.033  10.681  2.2115  3.8640  1.0005
  406MOL0     H54756   9.906   7.112  10.829  4.2537 -1.6122  0.6489
  406MOL0     H54757  10.027   6.846  10.773 -1.7094  0.3521 -0.1064
  406MOL0     H54758   9.973   6.886  10.938  1.3916  2.9068  1.8604
  406MOL0     H54759  10.185   7.042  10.800 -0.2296 -0.3900 -0.4564
  406MOL0     H54760  10.107   7.077  10.951 -0.9505 -0.8127  0.1258
  406MOL0     H54761  10.203   6.725  10.849 -1.1314  1.1152  0.4814
  406MOL0     H54762  10.545   6.654  11.074 -1.5477 -1.0858  1.8935
  406MOL0     H54763  10.424   6.552  11.019  0.9666 -0.4890  0.0718
  406MOL0     H54764  10.476   6.605  10.781  1.9842 -0.0801 -3.1941
  406MOL0     H54765  10.614   6.707  10.852 -1.6860  1.5589  2.7160
  406MOL0     H54766  10.576   6.421  10.917 -1.0237  1.7839 -0.2691
  406MOL0     H54767  10.717   6.512  10.927 -0.2844  0.2800  0.4464
  406MOL0     H54768  10.736   6.519  10.677  1.5868 -0.0640  1.4868
  406MOL0     H54769  10.597   6.408  10.665  1.1793 -0.3369 -0.1725
  406MOL0     H54770  10.747   6.079  10.810  0.0160 -1.3701  0.5499
  406MOL0     H54771  10.729   5.901  10.647  1.2956  0.4054 -0.5784
  406MOL0     H54772  10.375   5.839  10.244 -1.8593  0.2955 -1.7974
  406MOL0     H54773  10.300   5.675  10.110  0.0250 -0.5453 -0.8033
  406MOL0     H54774  10.288   5.673   9.876  1.4565  2.2369 -3.7675
  406MOL0     H54775  10.370   5.603   9.738  0.5198 -0.5542 -0.6696
  406MOL0     H54776  10.193   5.453   9.946  0.5455 -1.7073 -0.1084
  406MOL0     H54777  10.128   5.516   9.794 -0.7763  3.1812  3.3809
  406MOL0     H54778  10.290   5.384   9.673  0.7731  1.1596  0.2749
  406MOL0     H54779  10.364   5.319   9.824 -1.2860  0.1169  1.9488
  406MOL0     H54780  10.079   5.267   9.699 -1.9982 -0.0082  2.8864
  406MOL0     H54781  10.106   5.247   9.867  0.3008  2.6720 -0.1595
  406MOL0     H54782  10.117   5.029   9.767  2.6004 -3.9627 -0.5043
  406MOL0     H54783  10.283   5.068   9.796  0.0086 -0.5904 -0.3341
  406MOL0     H54784  10.144   5.100   9.530 -1.2061  1.0389  1.1771
  406MOL0     H54785  10.310   5.153   9.570 -1.3581  2.3114  1.3171
  406MOL0     H54786  10.196   4.883   9.637 -1.7246  0.4901  1.2757
  406MOL0     H54787  10.374   4.922   9.612 -0.5068 -0.1236 -1.0390
  406MOL0     H54788  10.335   4.826   9.404  0.8114  0.4465  0.9525
  406MOL0     H54789  10.160   4.893   9.403 -1.1297  3.0565  3.6895
  406MOL0     H54790  10.689   5.609   9.940 -1.6726 -2.2865  0.2336
  406MOL0     H54791  10.774   5.794  10.088 -0.5427  2.0347 -1.1710
  406MOL0     H54792  10.709   6.185  10.324 -2.7599 -3.4074 -0.6489
  406MOL0     H54793  10.781   6.352  10.499  0.3712 -0.5528 -0.2446
  406MOL0     H54794   8.960   7.193  10.728  1.0628  0.4672 -1.0946
  406MOL0     H54795   8.730   7.109  10.744  1.4322  1.0297  2.1667
  406MOL0     H54796   8.493   6.510  10.901  0.5316 -2.0295 -2.0658
  406MOL0     H54797   8.253   6.463  10.938  1.7443 -1.3686 -1.1075
  406MOL0     H54798   7.890   6.555  10.720  1.6846 -1.4150  3.2432
  406MOL0     H54799   8.012   6.676  10.653  2.5906  1.2266  2.0195
  406MOL0     H54800   7.818   6.802  10.709  1.3249 -0.9581 -1.6915
  406MOL0     H54801   7.928   6.823  10.840 -1.3959  0.8746  2.1487
  406MOL0     H54802   7.805   6.642  10.974  1.0888  0.6915 -0.2884
  406MOL0     H54803   7.701   6.620  10.832 -1.7527 -0.4305  3.1161
  406MOL0     H54804   7.644   6.863  10.839  0.7320 -1.7272 -0.8947
  406MOL0     H54805   7.568   6.777  10.964 -0.5430  1.2836  0.5510
  406MOL0     H54806   7.803   7.036  11.190 -1.5036  1.2273 -0.5429
  406MOL0     H54807   8.152   6.833  10.744  1.6083  0.8435  0.4511
  406MOL0     H54808   8.461   6.916  10.624  1.4646 -0.9151  1.6553
  406MOL0     H54809   8.309   6.990  10.665  0.9028  0.9353 -0.6542
  406MOL0     H54810   8.426   6.983  10.790 -1.2805  1.4727 -0.7825
  407MOL0     O54811   6.695   0.785   7.412 -0.2604 -0.1736 -0.2194
  407MOL0     C54812   6.656   0.759   7.303  0.5559  0.3215  0.4550
  407MOL0     O54813   6.719   0.800   7.186  1.2609  0.0112 -0.5976
  407MOL0     C54814   6.828   0.872   7.187 -0.4294 -0.4840  0.3723
  407MOL0     C54815   6.948   0.809   7.167  0.9903 -0.1193 -0.6845
  407MOL0     C54816   7.063   0.879   7.160 -0.4018 -0.1273  0.1388
  407MOL0     C54817   7.061   1.020   7.171 -0.0293 -0.1260 -0.6831
  407MOL0     O54818   7.181   1.084   7.153  0.0969 -0.5133 -0.3816
  407MOL0     C54819   7.189   1.225   7.161  0.0784 -0.0546  0.4411
  407MOL0     C54820   7.331   1.276   7.154 -0.7867 -0.5247 -0.1302
  407MOL0     C54821   7.417   1.212   7.262 -0.0645 -0.6680 -0.0807
  407MOL0     C54822   7.539   1.306   7.291 -0.2198 -0.0362  1.0692
  407MOL0     C54823   7.617   1.361   7.163  0.1078  0.2907 -0.0539
  407MOL0     C54824   7.692   1.248   7.109 -0.9082  1.0657  0.4883
  407MOL0     C54825   7.773   1.286   6.981 -0.2447  0.8068  0.2583
  407MOL0     C54826   7.850   1.167   6.926  0.8074  0.2225  0.4695
  407MOL0     N54827   7.939   1.188   6.807  0.5257  0.6493 -0.3126
  407MOL0     C54828   7.937   1.296   6.727 -0.4678  0.8747  0.0258
  407MOL0     C54829   8.035   1.277   6.641 -0.5899  0.8031 -0.7045
  407MOL0     C54830   8.074   1.359   6.528 -0.5008  0.0423 -0.1986
  407MOL0     C54831   8.068   1.276   6.397 -0.3476 -0.3033  0.6859
  407MOL0     C54832   8.107   1.375   6.290  0.3568  1.2516 -0.3503
  407MOL0     C54833   7.993   1.451   6.240 -0.7103  0.1207  0.0209
  407MOL0     O54834   7.937   1.549   6.325  0.0876  0.0431  0.4025
  407MOL0     C54835   7.802   1.565   6.335  0.1513 -0.7391  0.4093
  407MOL0     C54836   7.711   1.565   6.229 -0.2273 -0.3199 -0.1294
  407MOL0     C54837   7.576   1.567   6.254 -0.2791  0.2133  0.2348
  407MOL0     C54838   7.522   1.565   6.383  0.2175 -0.3542 -0.1607
  407MOL0     C54839   7.368   1.565   6.405 -0.1988 -1.3237 -0.2558
  407MOL0     O54840   7.298   1.553   6.296  0.7080  0.0875  0.0991
  407MOL0     C54841   7.160   1.560   6.297  0.1081  0.3165 -0.5877
  407MOL0     C54842   7.102   1.631   6.193  0.3087  0.4587  0.1566
  407MOL0     C54843   6.963   1.619   6.171  0.3643  0.6621 -0.0418
  407MOL0     C54844   6.881   1.560   6.271  0.0572  0.5248  0.4223
  407MOL0     O54845   6.744   1.552   6.263 -0.2343 -0.4407 -0.9544
  407MOL0     C54846   6.668   1.636   6.177 -0.7646  0.6078  0.5119
  407MOL0     C54847   6.535   1.669   6.246 -0.1063  0.4006  0.4917
  407MOL0     C54848   6.456   1.540   6.264  0.7281 -0.2360  0.6600
  407MOL0     C54849   6.303   1.559   6.256 -1.2472 -0.2683 -0.9684
  407MOL0     C54850   6.232   1.426   6.264  0.5199 -0.3531  0.1362
  407MOL0     C54851   6.272   1.324   6.164  0.9158  0.3794 -0.3308
  407MOL0     C54852   6.170   1.208   6.164 -0.0361 -0.1707 -0.7470
  407MOL0     C54853   6.188   1.121   6.050 -0.5745 -0.8009  0.4606
  407MOL0    Cl54854   6.062   0.984   6.064 -0.3821  0.3764 -0.1554
  407MOL0     C54855   6.940   1.485   6.372 -0.5313  0.0988 -0.5890
  407MOL0     C54856   7.077   1.482   6.383 -0.4730 -1.1891 -0.3492
  407MOL0     O54857   7.320   1.557   6.517 -0.2361 -0.2217  0.1866
  407MOL0     C54858   7.613   1.568   6.494 -0.3186  0.1409 -0.0699
  407MOL0     C54859   7.749   1.584   6.465  0.5262  0.2995 -0.0143
  407MOL0     N54860   8.103   1.155   6.667  0.1936 -0.2439 -0.2097
  407MOL0     N54861   8.046   1.105   6.770  0.8153 -0.7861  1.0395
  407MOL0     C54862   6.942   1.080   7.171  0.8976  0.2824 -0.2710
  407MOL0     C54863   6.824   1.008   7.182  0.6169  0.0965  0.2110
  407MOL0     C54864   6.535   0.675   7.294  0.3895  1.3690  0.4339
  407MOL0     C54865   6.473   0.654   7.175 -0.2376 -0.1666  0.3531
  407MOL0     C54866   6.354   0.588   7.159 -0.3178  0.8865 -0.5052
  407MOL0     C54867   6.301   0.505   7.256 -0.8635 -0.1627 -0.7608
  407MOL0     O54868   6.183   0.437   7.248 -0.6054  0.3529 -0.0135
  407MOL0     C54869   6.091   0.456   7.138 -0.7003  0.1088  0.3064
  407MOL0     C54870   5.949   0.394   7.170  0.1499  0.3317 -0.2164
  407MOL0     C54871   5.952   0.242   7.203  0.3115  0.8322 -0.6285
  407MOL0     C54872   5.817   0.170   7.172  0.6115 -0.3694 -0.1724
  407MOL0     C54873   5.700   0.215   7.259  0.9102  1.0980  0.5279
  407MOL0     C54874   5.598   0.253   7.315 -0.2204 -0.8850  0.5706
  407MOL0     C54875   6.374   0.499   7.380 -0.4312 -0.1173 -0.0179
  407MOL0     C54876   6.478   0.594   7.402  0.0993  0.4162  0.5488
  407MOL0     C54877   6.533   0.582   7.543  0.1242 -0.3154 -1.0230
  407MOL0     H54878   6.940   0.701   7.157  0.0457 -0.7247  4.3133
  407MOL0     H54879   7.163   0.837   7.151 -0.7221 -0.8923  0.1181
  407MOL0     H54880   7.133   1.259   7.073  0.0001 -1.7276 -0.1962
  407MOL0     H54881   7.137   1.254   7.252  0.1559 -2.3111  1.2589
  407MOL0     H54882   7.325   1.380   7.189  1.8573 -0.9334  1.8693
  407MOL0     H54883   7.368   1.266   7.052 -1.2145 -1.7269 -0.1772
  407MOL0     H54884   7.445   1.115   7.220 -2.6581 -1.2840 -0.5102
  407MOL0     H54885   7.364   1.179   7.351  1.4325 -1.7129  0.4746
  407MOL0     H54886   7.488   1.386   7.346 -3.2645 -0.7564 -0.4460
  407MOL0     H54887   7.614   1.247   7.344  1.3333 -0.1539 -1.1326
  407MOL0     H54888   7.548   1.404   7.090 -1.1154 -1.6606 -0.1491
  407MOL0     H54889   7.689   1.438   7.190  2.2769 -0.8168 -2.2646
  407MOL0     H54890   7.766   1.215   7.183  3.0513  0.6342 -3.2592
  407MOL0     H54891   7.623   1.167   7.085  0.0391  0.4713 -0.3282
  407MOL0     H54892   7.844   1.369   6.995  1.1592 -0.3635  0.3867
  407MOL0     H54893   7.707   1.311   6.898 -0.0197 -3.5483 -1.4860
  407MOL0     H54894   7.912   1.137   7.010  1.4653  2.7102  0.9308
  407MOL0     H54895   7.779   1.085   6.907  0.8382  0.0150  1.2411
  407MOL0     H54896   7.856   1.368   6.732 -0.6804  0.9199 -2.5599
  407MOL0     H54897   8.006   1.445   6.521 -1.3212 -0.7020 -2.1539
  407MOL0     H54898   8.174   1.392   6.556 -1.7563  1.3756  3.3774
  407MOL0     H54899   8.136   1.191   6.389 -1.5380 -1.7481  4.0482
  407MOL0     H54900   7.968   1.237   6.376  0.1775  0.4932 -4.7825
  407MOL0     H54901   8.142   1.312   6.208  0.4945  0.5528  0.2375
  407MOL0     H54902   8.197   1.427   6.323 -0.2298  2.2368 -0.2539
  407MOL0     H54903   7.910   1.388   6.207 -0.8405  1.5045 -2.5780
  407MOL0     H54904   8.020   1.499   6.146 -0.8128 -0.2529 -0.2025
  407MOL0     H54905   7.744   1.565   6.126  1.4465  1.8016  0.3235
  407MOL0     H54906   7.504   1.561   6.173  0.7645 -4.0793 -0.6650
  407MOL0     H54907   7.159   1.684   6.117 -2.4477  0.8392 -1.8155
  407MOL0     H54908   6.921   1.653   6.076  0.7279 -1.2496 -0.9456
  407MOL0     H54909   6.722   1.728   6.154 -0.0861 -0.1156 -0.9789
  407MOL0     H54910   6.667   1.579   6.083 -3.7239  1.5672 -0.1444
  407MOL0     H54911   6.552   1.723   6.339  1.8729  0.1991  0.2873
  407MOL0     H54912   6.478   1.734   6.178 -2.0616 -0.5500  1.1567
  407MOL0     H54913   6.481   1.470   6.184  4.2086 -1.2511  2.4284
  407MOL0     H54914   6.491   1.490   6.355 -0.6569 -1.6917  0.4318
  407MOL0     H54915   6.286   1.592   6.154 -0.4697  1.4023 -0.6011
  407MOL0     H54916   6.264   1.620   6.339 -0.6981 -0.7354 -0.3529
  407MOL0     H54917   6.129   1.449   6.237  0.7499  0.5454 -0.0136
  407MOL0     H54918   6.230   1.384   6.365 -2.1851 -3.4174 -1.0296
  407MOL0     H54919   6.288   1.361   6.062  0.1164  0.5207 -0.4104
  407MOL0     H54920   6.373   1.294   6.194  2.1420  4.4586  0.3282
  407MOL0     H54921   6.069   1.250   6.165  0.4503  1.0549 -0.4966
  407MOL0     H54922   6.186   1.154   6.257  0.9900  1.9064  0.3627
  407MOL0     H54923   6.172   1.172   5.955 -1.1274 -2.8024 -0.5752
  407MOL0     H54924   6.291   1.083   6.049  0.7269  2.3472  0.2961
  407MOL0     H54925   6.874   1.428   6.436 -2.3481  2.1296 -0.5386
  407MOL0     H54926   7.134   1.421   6.453  1.1137  1.0122  0.4225
  407MOL0     H54927   7.574   1.587   6.594  3.2112  0.9737  1.3003
  407MOL0     H54928   7.814   1.575   6.551  3.4548  0.3193 -2.0839
  407MOL0     H54929   6.933   1.188   7.172  2.7643  0.4816 -0.7239
  407MOL0     H54930   6.728   1.055   7.201  1.1702  0.7758  1.3590
  407MOL0     H54931   6.517   0.702   7.088  1.4540 -0.1946  1.1632
  407MOL0     H54932   6.315   0.582   7.058  2.0659  3.6252 -1.7265
  407MOL0     H54933   6.135   0.407   7.050  2.3589  1.9319  0.6524
  407MOL0     H54934   6.097   0.563   7.116 -0.3161 -0.2082 -1.2573
  407MOL0     H54935   5.879   0.407   7.087 -0.7074 -0.4854  0.3741
  407MOL0     H54936   5.910   0.447   7.257  0.1869  3.0566 -1.7446
  407MOL0     H54937   5.977   0.228   7.308 -0.7310 -0.0633 -0.4748
  407MOL0     H54938   6.028   0.191   7.143 -1.9552 -2.3277 -1.0764
  407MOL0     H54939   5.790   0.188   7.067 -1.2866 -2.6614 -0.1920
  407MOL0     H54940   5.819   0.061   7.181  0.2224 -0.2451  1.8152
  407MOL0     H54941   5.513   0.276   7.376 -1.9614 -0.0599 -2.0456
  407MOL0     H54942   6.340   0.436   7.462 -2.2986  1.7428  0.7297
  407MOL0     H54943   6.548   0.684   7.581  0.5093 -0.5891 -0.4495
  407MOL0     H54944   6.455   0.543   7.608  0.6565  0.0967 -0.1148
  407MOL0     H54945   6.629   0.531   7.537 -0.0252 -0.5512 -1.5092
  408MOL0     O54946   1.260   1.321  10.881 -0.4209  0.1630  0.2923
  408MOL0     C54947   1.207   1.228  10.943 -0.5926 -0.3947 -0.9058
  408MOL0     O54948   1.274   1.136  11.020 -0.0449  0.1972  0.5399
  408MOL0     C54949   1.402   1.148  11.055 -0.0422  0.8918  0.0064
  408MOL0     C54950   1.477   1.269  11.060 -0.0789 -0.0436 -0.4981
  408MOL0     C54951   1.606   1.271  11.098 -0.7359 -0.2591 -0.8092
  408MOL0     C54952   1.666   1.152  11.138 -0.4610 -0.4565  0.4648
  408MOL0     O54953   1.786   1.149  11.199 -0.0105 -0.1060  0.1257
  408MOL0     C54954   1.864   1.266  11.214 -0.6494 -0.9310 -0.7737
  408MOL0     C54955   1.998   1.222  11.265 -0.2783 -0.5131  1.1016
  408MOL0     C54956   2.086   1.340  11.279  0.7390 -1.3209  0.3764
  408MOL0     C54957   2.180   1.337  11.394  0.4081  0.1141  0.0045
  408MOL0     C54958   2.275   1.455  11.414 -0.1530 -0.2487  0.1028
  408MOL0     C54959   2.206   1.574  11.489  0.4940 -0.4427 -0.2288
  408MOL0     C54960   2.286   1.702  11.472 -0.6475  0.0967 -0.1309
  408MOL0     C54961   2.434   1.696  11.520  0.3452  0.3662 -0.5306
  408MOL0     N54962   2.449   1.737  11.661  0.1111 -0.0994  0.2616
  408MOL0     C54963   2.452   1.640  11.766 -0.0732  0.0111  0.7126
  408MOL0     C54964   2.471   1.717  11.877 -1.2079 -0.9452  1.2192
  408MOL0     C54965   2.485   1.685  12.014 -0.1437  0.5398 -1.0089
  408MOL0     C54966   2.627   1.674  12.064 -0.5141  0.5799 -0.1229
  408MOL0     C54967   2.664   1.758  12.187 -0.9932 -0.5560 -0.6148
  408MOL0     C54968   2.812   1.740  12.227 -1.0759  0.6601  0.4063
  408MOL0     O54969   2.906   1.790  12.127 -0.3778 -0.4047 -0.4363
  408MOL0     C54970   3.045   1.814  12.166 -0.0296 -0.1120 -0.6324
  408MOL0     C54971   3.099   1.787  12.294 -0.1189  0.3349  0.5816
  408MOL0     C54972   3.232   1.829  12.320  0.2596 -0.1435  0.2790
  408MOL0     C54973   3.320   1.873  12.218 -0.4114 -0.9051  0.3950
  408MOL0     C54974   3.452   1.925  12.243  0.2427  0.5024 -0.1849
  408MOL0     O54975   3.542   1.954  12.138 -0.0033  0.5225 -0.0237
  408MOL0     C54976   3.663   1.992  12.179 -0.4004  0.2260 -0.3775
  408MOL0     C54977   3.681   2.110  12.255 -0.6411  0.7243 -0.3043
  408MOL0     C54978   3.812   2.138  12.304  0.4138  0.2944  0.4070
  408MOL0     C54979   3.919   2.049  12.273 -0.1411 -0.5332  0.1906
  408MOL0     O54980   4.041   2.065  12.320  0.1695  0.4098 -0.5509
  408MOL0     C54981   4.052   2.122  12.453 -0.5211 -0.5582  0.3121
  408MOL0     C54982   4.197   2.124  12.508 -0.0158 -0.2175 -0.3665
  408MOL0     C54983   4.291   2.203  12.423  0.0732  0.4283 -1.2896
  408MOL0     C54984   4.444   2.191  12.454  0.2554  0.3733 -0.5069
  408MOL0     C54985   4.522   2.259  12.343  0.3043 -0.4184 -0.8140
  408MOL0     C54986   4.666   2.240  12.343 -0.5051 -0.1935 -0.0403
  408MOL0     C54987   4.738   2.345  12.254  0.3861  0.0467  0.1775
  408MOL0     C54988   4.893   2.349  12.263  0.6290  0.6475 -0.5393
  408MOL0    Cl54989   4.981   2.219  12.180 -0.6098 -0.0744 -0.2049
  408MOL0     C54990   3.891   1.939  12.190 -0.1838 -0.5007 -0.7698
  408MOL0     C54991   3.767   1.909  12.155 -0.7332 -0.4350 -1.2991
  408MOL0     O54992   3.474   1.934  12.365  0.1358 -0.2665  0.5655
  408MOL0     C54993   3.265   1.886  12.093  0.5911  0.1439  0.3187
  408MOL0     C54994   3.126   1.868  12.066  0.6811  0.3292 -0.3649
  408MOL0     N54995   2.492   1.853  11.836 -0.1157  0.6520 -0.8487
  408MOL0     N54996   2.471   1.861  11.708 -0.1978  0.2486 -0.1310
  408MOL0     C54997   1.594   1.030  11.144  0.2082  0.9231 -0.3570
  408MOL0     C54998   1.466   1.021  11.097  0.2255  0.3211 -0.0565
  408MOL0     C54999   1.068   1.196  10.899 -0.3193  0.0550 -0.8758
  408MOL0     C55000   1.043   1.058  10.885  0.1347 -0.1690 -0.1532
  408MOL0     C55001   0.920   1.019  10.829 -0.1150  0.5992 -0.1989
  408MOL0     C55002   0.830   1.104  10.786  0.6279 -1.0648  1.3504
  408MOL0     O55003   0.712   1.069  10.714 -1.2258 -0.3494  0.8132
  408MOL0     C55004   0.654   0.944  10.736 -0.2080 -0.1086  0.3508
  408MOL0     C55005   0.525   0.939  10.661 -0.0191 -0.4604 -0.0177
  408MOL0     C55006   0.466   0.803  10.633 -0.9790  0.2675 -0.0312
  408MOL0     C55007   0.325   0.785  10.586 -0.2996  0.3733  0.1866
  408MOL0     C55008   0.235   0.887  10.630 -0.3466  0.7488  0.1000
  408MOL0     C55009   0.159   0.975  10.653  0.0992 -1.1188 -0.0824
  408MOL0     C55010   0.852   1.237  10.786  0.2609  0.0608  0.1577
  408MOL0     C55011   0.975   1.284  10.846  0.2727 -0.2253 -0.3358
  408MOL0     C55012   0.996   1.436  10.867  0.1847  0.2075  0.6787
  408MOL0     H55013   1.433   1.366  11.038 -1.5648 -0.3143  1.1177
  408MOL0     H55014   1.661   1.364  11.087  0.0236 -0.2870  1.9886
  408MOL0     H55015   1.867   1.327  11.123 -1.4401  0.9086  0.3834
  408MOL0     H55016   1.822   1.325  11.296 -1.4222 -0.9967 -1.1116
  408MOL0     H55017   2.047   1.151  11.198 -0.6723 -0.2141  0.4893
  408MOL0     H55018   1.986   1.172  11.362 -1.1000 -1.8671  0.3347
  408MOL0     H55019   2.022   1.429  11.274 -1.1091 -2.6378 -1.4807
  408MOL0     H55020   2.149   1.346  11.190  0.5263  1.5791  0.3090
  408MOL0     H55021   2.119   1.317  11.483  2.3144 -4.1785  0.6265
  408MOL0     H55022   2.243   1.250  11.372 -0.9886 -0.2502 -3.1434
  408MOL0     H55023   2.362   1.425  11.474  0.0631  1.2590  0.5877
  408MOL0     H55024   2.329   1.491  11.326 -0.6095 -5.4638 -2.6488
  408MOL0     H55025   2.108   1.603  11.449  1.0962  0.6277 -0.9762
  408MOL0     H55026   2.191   1.548  11.594 -1.8655 -1.6318 -0.7961
  408MOL0     H55027   2.239   1.781  11.532  2.5277  0.6095  1.9133
  408MOL0     H55028   2.295   1.722  11.365  0.3863 -0.8499 -0.2331
  408MOL0     H55029   2.479   1.597  11.522  1.0646  0.6938  0.7424
  408MOL0     H55030   2.484   1.769  11.456  3.6806 -1.4703 -0.2067
  408MOL0     H55031   2.439   1.533  11.751 -1.6788  0.4269 -1.3024
  408MOL0     H55032   2.429   1.750  12.082 -0.1256  0.0440 -0.5104
  408MOL0     H55033   2.441   1.585  12.026 -0.5936  0.8268 -0.1271
  408MOL0     H55034   2.646   1.569  12.087  4.3472  0.9264 -1.3632
  408MOL0     H55035   2.680   1.701  11.972 -1.5751 -2.0785 -1.6357
  408MOL0     H55036   2.592   1.737  12.266  0.5342 -1.4517  0.5878
  408MOL0     H55037   2.642   1.862  12.162  0.8246 -0.2316 -0.9870
  408MOL0     H55038   2.842   1.636  12.241  3.4846  1.6875 -0.0503
  408MOL0     H55039   2.827   1.785  12.326  0.5154 -0.0829  0.5331
  408MOL0     H55040   3.047   1.737  12.375 -0.0823 -1.8852 -0.6801
  408MOL0     H55041   3.270   1.826  12.422  0.2222 -0.3748  0.2872
  408MOL0     H55042   3.588   2.163  12.270  0.6313  3.1215 -0.4743
  408MOL0     H55043   3.832   2.223  12.368 -0.9395  0.6990  0.3343
  408MOL0     H55044   4.023   2.227  12.450  3.6827  0.8452 -3.4106
  408MOL0     H55045   3.999   2.068  12.531  0.7645 -1.1557  0.8111
  408MOL0     H55046   4.209   2.159  12.611  1.4230 -1.2785 -0.1343
  408MOL0     H55047   4.228   2.019  12.512 -4.9790 -1.8998  0.1312
  408MOL0     H55048   4.264   2.191  12.318 -0.8443  1.6907 -1.2192
  408MOL0     H55049   4.257   2.306  12.437 -1.0924  0.3567 -3.1622
  408MOL0     H55050   4.478   2.087  12.462 -1.7211 -0.3244 -0.7796
  408MOL0     H55051   4.467   2.242  12.549  0.1070 -0.7453  0.1423
  408MOL0     H55052   4.506   2.367  12.347  0.7770 -0.3259 -1.2800
  408MOL0     H55053   4.484   2.211  12.252 -3.8002 -2.5778  1.7165
  408MOL0     H55054   4.697   2.250  12.448  1.5519 -0.9585 -0.5279
  408MOL0     H55055   4.693   2.140  12.307  4.5504  1.4249 -1.6424
  408MOL0     H55056   4.702   2.445  12.279  1.7842  0.0484  2.4149
  408MOL0     H55057   4.716   2.336  12.147  4.9804  3.4331 -1.4200
  408MOL0     H55058   4.918   2.446  12.218  0.5074  0.3432 -1.2649
  408MOL0     H55059   4.927   2.354  12.367  1.4913 -0.2859 -0.7634
  408MOL0     H55060   3.969   1.868  12.166  0.7082 -0.0660  0.7077
  408MOL0     H55061   3.736   1.823  12.096 -2.9389 -0.9912  0.5436
  408MOL0     H55062   3.335   1.936  12.027 -1.2994 -0.3997 -2.2658
  408MOL0     H55063   3.075   1.898  11.974 -0.3559  0.5843  0.2750
  408MOL0     H55064   1.649   0.936  11.148 -0.6524  0.2613 -2.5946
  408MOL0     H55065   1.425   0.921  11.102  0.3967  0.1882 -1.0797
  408MOL0     H55066   1.119   0.990  10.923 -1.4800 -1.9022  0.0798
  408MOL0     H55067   0.907   0.915  10.802  1.1099  0.9471 -2.4003
  408MOL0     H55068   0.639   0.925  10.843 -0.5652 -3.0562 -0.1325
  408MOL0     H55069   0.717   0.862  10.700  0.8336  0.2535  1.3001
  408MOL0     H55070   0.549   0.983  10.564 -1.6498  0.0235 -0.2294
  408MOL0     H55071   0.449   1.002  10.707  0.4929  0.3693 -0.2950
  408MOL0     H55072   0.485   0.747  10.725  1.3215  1.1684  0.1102
  408MOL0     H55073   0.538   0.768  10.559  2.5686  5.4312  0.4934
  408MOL0     H55074   0.338   0.770  10.479  3.7067  1.6427  0.3002
  408MOL0     H55075   0.294   0.686  10.621  2.4560 -1.8251 -3.0323
  408MOL0     H55076   0.086   1.046  10.688  0.3354 -0.5596 -0.6848
  408MOL0     H55077   0.783   1.303  10.734 -0.4212 -0.3641  0.5083
  408MOL0     H55078   1.082   1.476  10.812  2.5500 -1.2564  3.0959
  408MOL0     H55079   0.906   1.490  10.839  1.1853  3.4271  3.0667
  408MOL0     H55080   1.029   1.464  10.967 -0.5475  1.0438  0.6923
  409MOL0     O55081   3.200   2.602   2.801 -0.6408  0.8153  0.6881
  409MOL0     C55082   3.211   2.538   2.695  0.5587  0.1164  0.0573
  409MOL0     O55083   3.324   2.527   2.620 -0.0879  0.5705  0.0629
  409MOL0     C55084   3.429   2.610   2.652 -0.7350  0.2395 -0.9874
  409MOL0     C55085   3.420   2.743   2.703 -0.7600 -0.5482 -0.7568
  409MOL0     C55086   3.537   2.807   2.744  0.2794 -0.0736 -0.1559
  409MOL0     C55087   3.667   2.755   2.721  0.7608  0.7395 -1.4080
  409MOL0     O55088   3.764   2.828   2.771 -0.4965 -0.0831 -0.4870
  409MOL0     C55089   3.892   2.804   2.714 -0.8742  0.6728 -0.3043
  409MOL0     C55090   3.985   2.924   2.730  1.0204  0.8314  0.3433
  409MOL0     C55091   4.131   2.895   2.686  0.1124 -0.0120  0.0239
  409MOL0     C55092   4.218   2.995   2.765 -0.3501 -0.1392 -0.2763
  409MOL0     C55093   4.363   2.981   2.724 -1.3263 -0.3116  0.3873
  409MOL0     C55094   4.454   3.090   2.764  0.0278 -0.5590 -0.1045
  409MOL0     C55095   4.603   3.061   2.738 -0.8552 -0.0433 -0.2662
  409MOL0     C55096   4.695   3.177   2.774 -0.7174  1.1081 -0.9493
  409MOL0     N55097   4.700   3.274   2.668 -0.3369  0.0762 -0.2908
  409MOL0     C55098   4.821   3.317   2.629  0.0051 -0.2197  0.2499
  409MOL0     C55099   4.796   3.420   2.542 -0.0136  0.2974 -0.5442
  409MOL0     C55100   4.907   3.502   2.491 -0.0445 -0.7204  1.0391
  409MOL0     C55101   4.925   3.475   2.343  0.4901 -0.4752 -0.8951
  409MOL0     C55102   5.017   3.349   2.313  0.3174  0.5451  0.2253
  409MOL0     C55103   5.130   3.310   2.405  0.5018 -0.1036  0.0283
  409MOL0     O55104   5.237   3.407   2.408 -0.6818 -0.2405 -0.3203
  409MOL0     C55105   5.361   3.377   2.481  0.7131 -0.7282  0.4405
  409MOL0     C55106   5.361   3.267   2.558  0.1602  0.6143  0.0597
  409MOL0     C55107   5.460   3.241   2.652 -0.9595 -0.6274 -0.4655
  409MOL0     C55108   5.571   3.331   2.669  0.9158 -0.0694 -1.2072
  409MOL0     C55109   5.677   3.308   2.774  0.5753  0.5372 -0.5549
  409MOL0     O55110   5.747   3.416   2.779 -0.0829  0.3457  0.1245
  409MOL0     C55111   5.865   3.422   2.852 -0.1308  0.0132 -0.6470
  409MOL0     C55112   5.958   3.315   2.865 -0.1624  0.6062  0.6589
  409MOL0     C55113   6.069   3.332   2.935  0.0663  0.8869 -0.2821
  409MOL0     C55114   6.099   3.449   2.994  0.2253 -0.0543 -0.2903
  409MOL0     O55115   6.215   3.477   3.070 -0.1272  0.2837 -0.5328
  409MOL0     C55116   6.298   3.375   3.113  0.4869  0.7494 -0.4230
  409MOL0     C55117   6.424   3.435   3.177 -0.4147 -1.0258 -0.2909
  409MOL0     C55118   6.516   3.514   3.074 -0.4329  0.1066 -1.0536
  409MOL0     C55119   6.575   3.632   3.144  0.2445  0.0754 -0.3403
  409MOL0     C55120   6.673   3.699   3.044 -0.5436  0.4305 -0.6628
  409MOL0     C55121   6.750   3.816   3.097  0.1485 -0.5448  0.6847
  409MOL0     C55122   6.667   3.936   3.098  0.2148 -1.1501 -1.1491
  409MOL0     C55123   6.747   4.056   3.148  0.4602 -0.2307 -0.2570
  409MOL0    Cl55124   6.646   4.206   3.161 -0.0849 -0.0153  0.0633
  409MOL0     C55125   6.014   3.561   2.987  0.8134  0.2592 -0.8452
  409MOL0     C55126   5.892   3.541   2.917  0.5559 -0.5405  0.5960
  409MOL0     O55127   5.689   3.202   2.839  0.7650 -0.4498  0.4713
  409MOL0     C55128   5.577   3.443   2.577 -0.5707 -0.0597 -0.3821
  409MOL0     C55129   5.477   3.464   2.478 -0.5409  0.0056 -0.2350
  409MOL0     N55130   4.662   3.431   2.536  0.3780  1.2357  0.4061
  409MOL0     N55131   4.600   3.343   2.616  0.2983 -0.2415  0.2640
  409MOL0     C55132   3.682   2.624   2.668 -0.2075  0.3074 -0.3073
  409MOL0     C55133   3.568   2.565   2.633  0.1505  0.1408  0.7860
  409MOL0     C55134   3.091   2.465   2.647  0.0721  0.6777 -0.7429
  409MOL0     C55135   3.097   2.435   2.508 -0.3193 -0.1655  0.6200
  409MOL0     C55136   2.988   2.368   2.451  0.5530  0.0472  0.1151
  409MOL0     C55137   2.876   2.337   2.518  0.2249 -0.2099 -0.1238
  409MOL0     O55138   2.777   2.265   2.446 -0.4500 -0.3872 -0.6234
  409MOL0     C55139   2.654   2.240   2.523  0.3578  0.8227  0.9483
  409MOL0     C55140   2.545   2.189   2.418 -0.3501  0.1529 -0.9478
  409MOL0     C55141   2.513   2.311   2.328 -0.3255 -0.2799 -0.1212
  409MOL0     C55142   2.372   2.305   2.272 -0.2955 -1.2110 -0.4311
  409MOL0     C55143   2.361   2.193   2.178  0.1272  0.3348 -0.6680
  409MOL0     C55144   2.355   2.100   2.102 -0.5511  0.3600  0.6196
  409MOL0     C55145   2.872   2.355   2.660 -0.8446 -0.5548 -0.4469
  409MOL0     C55146   2.977   2.431   2.726 -0.3275 -0.1356 -0.0486
  409MOL0     C55147   2.965   2.462   2.877  0.2685  0.0556 -0.9427
  409MOL0     H55148   3.323   2.791   2.704  0.3580  1.9114  1.5342
  409MOL0     H55149   3.526   2.902   2.796  0.7242  0.0433 -0.2701
  409MOL0     H55150   3.945   2.720   2.759 -0.1777  0.6361 -1.1667
  409MOL0     H55151   3.889   2.780   2.607 -1.8758 -1.4910  0.1512
  409MOL0     H55152   3.988   2.951   2.836  0.6491 -2.2688  1.2441
  409MOL0     H55153   3.948   3.002   2.663  0.2459 -3.4191 -4.7759
  409MOL0     H55154   4.146   2.928   2.583  3.0051 -2.5156 -0.4925
  409MOL0     H55155   4.174   2.795   2.694 -0.4709 -0.7616 -4.1270
  409MOL0     H55156   4.169   3.092   2.750 -1.2310 -0.1785  2.0205
  409MOL0     H55157   4.216   2.975   2.872  0.7680 -2.3349 -0.5986
  409MOL0     H55158   4.394   2.885   2.765  0.1667 -0.4056 -0.8715
  409MOL0     H55159   4.369   2.986   2.614  3.7844 -1.6607  0.3427
  409MOL0     H55160   4.421   3.187   2.724  0.3821 -0.7564 -0.9035
  409MOL0     H55161   4.452   3.095   2.873 -3.7250  1.3755 -0.1045
  409MOL0     H55162   4.629   3.043   2.633  0.0231  2.8530 -0.6371
  409MOL0     H55163   4.624   2.973   2.799  0.1421  1.2536  1.3626
  409MOL0     H55164   4.664   3.222   2.869  1.3821 -2.2786  1.5795
  409MOL0     H55165   4.790   3.123   2.782 -2.3830 -1.9966 -0.4150
  409MOL0     H55166   4.925   3.289   2.649 -0.2483 -1.1571  0.3299
  409MOL0     H55167   4.885   3.609   2.497 -2.7122 -1.2154  1.3373
  409MOL0     H55168   4.990   3.494   2.562  0.8248 -0.9905  0.0122
  409MOL0     H55169   4.825   3.463   2.299 -0.2379 -4.6742  1.4356
  409MOL0     H55170   4.983   3.557   2.299 -0.3007 -0.0149 -1.0911
  409MOL0     H55171   5.061   3.365   2.214 -0.6985 -1.6669 -0.6621
  409MOL0     H55172   4.938   3.273   2.312 -0.4613  1.3388  0.0352
  409MOL0     H55173   5.168   3.213   2.372 -2.1346 -0.4529 -2.3695
  409MOL0     H55174   5.090   3.317   2.506  0.0704  3.4523 -0.2422
  409MOL0     H55175   5.282   3.192   2.558  1.0302 -0.3882  2.1101
  409MOL0     H55176   5.457   3.143   2.697 -0.4747  1.2343  4.2165
  409MOL0     H55177   5.941   3.223   2.811 -1.6010  2.1534 -1.6818
  409MOL0     H55178   6.141   3.251   2.946 -1.2585 -0.0254  2.6313
  409MOL0     H55179   6.249   3.313   3.188 -1.6033  2.2089 -0.5023
  409MOL0     H55180   6.336   3.319   3.027 -2.9573 -0.0872 -1.5415
  409MOL0     H55181   6.401   3.508   3.255 -2.2159  0.6478 -2.2514
  409MOL0     H55182   6.474   3.362   3.241 -2.0823 -0.9326  1.1954
  409MOL0     H55183   6.580   3.449   3.014  0.8274  0.3814 -0.0688
  409MOL0     H55184   6.456   3.555   2.993  0.0859  1.5141 -0.7485
  409MOL0     H55185   6.634   3.605   3.231 -0.9098  2.9970  1.5064
  409MOL0     H55186   6.488   3.688   3.180 -1.3731 -2.6555  0.2468
  409MOL0     H55187   6.622   3.731   2.953  2.3542  1.2024 -2.1159
  409MOL0     H55188   6.745   3.628   3.003 -1.1750  0.9100 -2.7222
  409MOL0     H55189   6.787   3.794   3.197 -0.6211  2.3468  1.6923
  409MOL0     H55190   6.838   3.831   3.033 -1.2766 -1.5454 -1.6338
  409MOL0     H55191   6.577   3.920   3.158  0.4024 -2.1603 -1.1191
  409MOL0     H55192   6.644   3.957   2.993  2.5643 -1.2392 -1.7570
  409MOL0     H55193   6.767   4.027   3.252 -1.3436 -1.4998 -0.2130
  409MOL0     H55194   6.846   4.071   3.104  1.2127  0.2310  1.4736
  409MOL0     H55195   6.028   3.666   3.012 -2.2649  0.4748  0.4046
  409MOL0     H55196   5.831   3.626   2.889 -1.6984 -1.2664  2.9461
  409MOL0     H55197   5.653   3.520   2.585 -1.2124  0.5459 -0.0305
  409MOL0     H55198   5.470   3.546   2.407 -1.6383  1.1217  1.0894
  409MOL0     H55199   3.782   2.582   2.659  0.1077 -0.3230  3.9486
  409MOL0     H55200   3.568   2.467   2.587 -0.6276 -0.6650  2.4079
  409MOL0     H55201   3.177   2.461   2.440 -0.5472  1.3377  0.8908
  409MOL0     H55202   3.002   2.337   2.348  0.2661  2.3180 -0.6671
  409MOL0     H55203   2.622   2.324   2.585 -1.9621  1.1441 -0.5665
  409MOL0     H55204   2.676   2.149   2.579 -2.9703 -2.4103 -2.4184
  409MOL0     H55205   2.453   2.153   2.466 -1.5458  0.2727 -3.0281
  409MOL0     H55206   2.586   2.099   2.370 -1.2939  0.8598 -3.2181
  409MOL0     H55207   2.576   2.314   2.240  1.0245 -1.8917  0.7367
  409MOL0     H55208   2.541   2.403   2.380  0.5940 -0.1636 -0.8047
  409MOL0     H55209   2.298   2.290   2.351 -0.3087 -2.0032 -0.5912
  409MOL0     H55210   2.354   2.401   2.222 -2.3979 -0.2173  2.0189
  409MOL0     H55211   2.349   2.023   2.029  2.5721  0.0801  0.5273
  409MOL0     H55212   2.793   2.306   2.717  0.0465 -0.9850  0.4483
  409MOL0     H55213   2.877   2.413   2.919  1.5683 -1.3876  0.2572
  409MOL0     H55214   3.046   2.420   2.939  1.8538  2.3610 -1.3349
  409MOL0     H55215   2.963   2.569   2.897  0.8853  0.2907 -2.0292
  410MOL0     O55216   3.952   6.600   7.127 -0.2377 -0.1314  0.6379
  410MOL0     C55217   3.888   6.555   7.214 -0.7509 -0.8580 -0.9553
  410MOL0     O55218   3.886   6.423   7.256  0.1048 -0.1529 -0.1463
  410MOL0     C55219   3.978   6.332   7.205 -0.3104  0.8724  0.3953
  410MOL0     C55220   3.934   6.197   7.183 -0.1772 -0.6064  0.4028
  410MOL0     C55221   4.029   6.097   7.150 -0.6479 -0.7050  1.0712
  410MOL0     C55222   4.162   6.130   7.134  0.4120  0.2192  0.7331
  410MOL0     O55223   4.252   6.031   7.114 -0.6435 -0.2462  0.4094
  410MOL0     C55224   4.253   5.924   7.205  0.0157  0.2328 -0.8606
  410MOL0     C55225   4.375   5.835   7.178  0.6368 -0.3588  0.4623
  410MOL0     C55226   4.501   5.896   7.239 -0.6519 -1.0106 -0.0690
  410MOL0     C55227   4.629   5.840   7.187  0.4198  0.0531  0.6087
  410MOL0     C55228   4.748   5.912   7.232  0.6439 -0.1509 -0.8025
  410MOL0     C55229   4.872   5.848   7.174 -0.5005 -0.3273 -0.0264
  410MOL0     C55230   4.896   5.846   7.024  0.1375  0.0453 -0.1640
  410MOL0     C55231   5.033   5.805   6.971  0.8785 -0.1117 -0.2339
  410MOL0     N55232   5.077   5.664   7.016  0.6683 -0.2609  0.4857
  410MOL0     C55233   5.176   5.636   7.108 -0.5329  0.1667  0.6086
  410MOL0     C55234   5.160   5.505   7.131 -0.3727  0.4002  0.2011
  410MOL0     C55235   5.237   5.414   7.237 -0.0565  0.2128  0.5593
  410MOL0     C55236   5.342   5.500   7.311 -0.2903 -0.1170 -0.2229
  410MOL0     C55237   5.460   5.403   7.348  0.8110  0.4671  0.2156
  410MOL0     C55238   5.574   5.487   7.415 -0.1990 -0.0266  0.4979
  410MOL0     O55239   5.615   5.600   7.338  0.0876  0.5881 -0.1068
  410MOL0     C55240   5.704   5.686   7.400  0.2541  0.2157  0.9086
  410MOL0     C55241   5.764   5.770   7.303 -0.0547 -0.0584 -0.1832
  410MOL0     C55242   5.868   5.857   7.339  0.5345 -0.1330 -0.6123
  410MOL0     C55243   5.913   5.861   7.474  0.2822  0.8951  0.1226
  410MOL0     C55244   6.027   5.947   7.514 -0.3045  0.4678  0.3646
  410MOL0     O55245   6.111   5.982   7.422  0.4410 -0.0708  0.9765
  410MOL0     C55246   6.234   6.025   7.437 -0.3168  0.1247 -0.0446
  410MOL0     C55247   6.271   6.129   7.345  0.6072  0.1543 -0.5563
  410MOL0     C55248   6.395   6.184   7.349  0.3474 -0.4246 -0.4922
  410MOL0     C55249   6.493   6.147   7.439  0.1217 -0.4474 -0.2181
  410MOL0     O55250   6.613   6.209   7.433 -0.6646  0.4040 -0.2557
  410MOL0     C55251   6.726   6.119   7.449  0.8746 -0.0435 -0.4204
  410MOL0     C55252   6.853   6.175   7.393 -0.5978 -0.4989 -0.3216
  410MOL0     C55253   6.974   6.079   7.384 -0.5078 -0.4637 -1.2062
  410MOL0     C55254   7.079   6.133   7.294 -0.3238  0.1418  0.1972
  410MOL0     C55255   7.219   6.061   7.299 -0.0314 -0.7358 -1.3193
  410MOL0     C55256   7.291   6.095   7.166  0.4566 -0.1083 -0.6569
  410MOL0     C55257   7.410   6.006   7.140  0.1114 -0.0747 -1.2247
  410MOL0     C55258   7.363   5.865   7.090  0.4028  0.2394 -0.5564
  410MOL0    Cl55259   7.248   5.884   6.948  0.2097 -0.3695 -0.5079
  410MOL0     C55260   6.453   6.053   7.536 -0.0836  1.1648 -0.6913
  410MOL0     C55261   6.326   5.985   7.533 -0.0464  0.8954 -0.0273
  410MOL0     O55262   6.044   5.968   7.630  0.2198 -0.4111  0.2357
  410MOL0     C55263   5.837   5.792   7.571  0.2751  1.0616 -0.0614
  410MOL0     C55264   5.741   5.697   7.534 -0.4545  0.5057  0.1022
  410MOL0     N55265   5.052   5.459   7.043 -0.5801 -0.5389  0.1067
  410MOL0     N55266   5.011   5.554   6.977  0.8000 -0.2976 -0.3096
  410MOL0     C55267   4.207   6.255   7.164 -0.9145 -0.1977 -0.0856
  410MOL0     C55268   4.113   6.353   7.211  0.1241  0.0561 -1.0014
  410MOL0     C55269   3.796   6.640   7.294 -0.2696  0.7941  0.1730
  410MOL0     C55270   3.757   6.586   7.426 -0.3489 -0.1505  0.3376
  410MOL0     C55271   3.665   6.653   7.503  0.3348 -0.3434 -0.4541
  410MOL0     C55272   3.603   6.771   7.459  0.0386 -0.0795  0.2408
  410MOL0     O55273   3.507   6.833   7.524  0.4178 -0.3150  0.6822
  410MOL0     C55274   3.443   6.786   7.639  0.6126 -0.5021  0.0656
  410MOL0     C55275   3.359   6.657   7.601  0.3507  0.2475  0.0231
  410MOL0     C55276   3.252   6.631   7.709  0.2189  0.2774  0.8597
  410MOL0     C55277   3.243   6.478   7.717  0.6294  1.1194  0.2742
  410MOL0     C55278   3.123   6.433   7.790 -0.3052  0.1837 -0.5126
  410MOL0     C55279   3.029   6.390   7.866  0.2730 -1.1029  0.8397
  410MOL0     C55280   3.639   6.817   7.333  0.3001 -0.4614  0.2617
  410MOL0     C55281   3.745   6.768   7.255  0.2428 -0.6997  0.0707
  410MOL0     C55282   3.790   6.851   7.140 -0.0803 -0.0040 -0.0289
  410MOL0     H55283   3.832   6.160   7.186 -0.3316 -0.9506 -3.4534
  410MOL0     H55284   3.995   5.996   7.130 -0.3028 -0.2118 -2.9510
  410MOL0     H55285   4.248   5.945   7.313 -1.0502 -1.9062 -0.4259
  410MOL0     H55286   4.177   5.850   7.176  1.7767 -1.4608 -1.3698
  410MOL0     H55287   4.384   5.843   7.069  1.1291 -2.9444  0.2567
  410MOL0     H55288   4.358   5.729   7.199  1.4379 -1.2886 -2.9452
  410MOL0     H55289   4.504   5.870   7.346  0.0018 -0.5746  0.0278
  410MOL0     H55290   4.501   6.004   7.220 -3.7211 -1.1549 -1.3303
  410MOL0     H55291   4.627   5.735   7.218 -0.1357  0.4563  2.0181
  410MOL0     H55292   4.630   5.844   7.078  0.1575 -2.4247  0.4685
  410MOL0     H55293   4.747   6.016   7.196 -0.0558  0.7016  1.5037
  410MOL0     H55294   4.754   5.908   7.341 -4.7002  0.4591 -0.2064
  410MOL0     H55295   4.958   5.906   7.209 -0.1777  0.4590 -2.0163
  410MOL0     H55296   4.877   5.743   7.204  0.1016 -0.0058  1.0760
  410MOL0     H55297   4.869   5.945   6.986 -1.3922 -0.1419  0.3862
  410MOL0     H55298   4.836   5.769   6.974 -0.6906  1.2532 -1.0745
  410MOL0     H55299   5.028   5.809   6.862 -0.8121  0.1345 -0.1841
  410MOL0     H55300   5.119   5.866   7.001  1.6581 -0.8499 -0.9356
  410MOL0     H55301   5.240   5.713   7.150  0.3541  0.3063 -0.9122
  410MOL0     H55302   5.170   5.356   7.302  0.2870 -1.3481 -0.4119
  410MOL0     H55303   5.287   5.336   7.179  1.7474  2.6911 -1.4234
  410MOL0     H55304   5.383   5.578   7.247 -2.8604  1.8947  0.4028
  410MOL0     H55305   5.291   5.538   7.400 -2.1255 -0.6984 -0.9774
  410MOL0     H55306   5.503   5.361   7.256  0.1887  0.7169 -0.1975
  410MOL0     H55307   5.420   5.327   7.416  0.7912  1.3216  1.1810
  410MOL0     H55308   5.665   5.429   7.435 -1.5639 -2.3488  0.2795
  410MOL0     H55309   5.535   5.528   7.508 -2.3730  2.5114 -1.3704
  410MOL0     H55310   5.730   5.765   7.200  1.2015 -0.6735 -0.5875
  410MOL0     H55311   5.905   5.917   7.256 -0.0952  0.0019 -0.8000
  410MOL0     H55312   6.195   6.174   7.281 -0.9084 -3.0597 -1.1887
  410MOL0     H55313   6.425   6.269   7.288  0.3164  0.1429  0.2735
  410MOL0     H55314   6.732   6.097   7.556  1.1179 -0.1194 -0.4496
  410MOL0     H55315   6.703   6.025   7.398  0.3408 -0.0680 -0.1374
  410MOL0     H55316   6.821   6.213   7.296 -0.4011  0.4046 -0.0419
  410MOL0     H55317   6.878   6.259   7.458 -1.7432 -0.1892 -0.2633
  410MOL0     H55318   7.027   6.060   7.478  0.5729 -0.3254 -1.7691
  410MOL0     H55319   6.930   5.987   7.345 -1.2959 -0.6676  0.0920
  410MOL0     H55320   7.094   6.235   7.331  0.8263  0.9597 -2.2965
  410MOL0     H55321   7.042   6.145   7.191  2.6633  0.8821 -0.8762
  410MOL0     H55322   7.188   5.958   7.318 -0.3490 -0.5254 -0.6332
  410MOL0     H55323   7.287   6.092   7.380 -0.6888 -1.4940 -0.4558
  410MOL0     H55324   7.221   6.089   7.082  0.5487  1.6715 -0.9074
  410MOL0     H55325   7.329   6.198   7.160  1.9116 -0.6914 -4.3367
  410MOL0     H55326   7.463   5.987   7.234 -1.7456 -2.3024 -0.5421
  410MOL0     H55327   7.475   6.048   7.063  0.5686  2.6679  0.4951
  410MOL0     H55328   7.439   5.791   7.062 -0.4157 -1.5658  1.6578
  410MOL0     H55329   7.309   5.809   7.167  1.1317 -0.9406 -0.8689
  410MOL0     H55330   6.520   6.015   7.612 -1.4840 -1.7016 -0.7736
  410MOL0     H55331   6.306   5.912   7.610  0.7755  0.1925 -0.4629
  410MOL0     H55332   5.859   5.804   7.676 -1.4008  0.5621  0.3717
  410MOL0     H55333   5.685   5.638   7.607 -0.2239 -1.9907 -1.6250
  410MOL0     H55334   4.309   6.289   7.163 -2.3487  4.8515 -1.2708
  410MOL0     H55335   4.155   6.451   7.233 -2.1476  0.6036  1.4199
  410MOL0     H55336   3.810   6.498   7.460  1.2285  0.7246  0.2650
  410MOL0     H55337   3.635   6.601   7.594 -1.2959  1.0168 -0.1551
  410MOL0     H55338   3.365   6.852   7.675 -1.6013 -2.6807 -0.4585
  410MOL0     H55339   3.521   6.763   7.713  0.0447 -0.2002  0.7657
  410MOL0     H55340   3.425   6.572   7.587  0.5692  0.2059  1.2628
  410MOL0     H55341   3.311   6.693   7.509 -1.0770  0.5967  0.8709
  410MOL0     H55342   3.162   6.671   7.662 -0.0357 -2.5584 -1.3841
  410MOL0     H55343   3.272   6.681   7.804  1.9025  1.6997 -0.1800
  410MOL0     H55344   3.221   6.439   7.618 -0.1076  0.8479  0.5395
  410MOL0     H55345   3.327   6.423   7.762  1.2875  0.9119 -1.1393
  410MOL0     H55346   2.946   6.354   7.923 -0.8715 -0.6069 -0.4305
  410MOL0     H55347   3.581   6.903   7.299 -0.5204 -1.1350 -0.0729
  410MOL0     H55348   3.777   6.958   7.162 -0.4928  0.2964 -1.5588
  410MOL0     H55349   3.898   6.834   7.139 -0.3334 -1.7370  0.2318
  410MOL0     H55350   3.745   6.827   7.043  0.4356 -0.8616 -0.0641
  411MOL0     O55351   4.331   2.570   4.106 -0.1808 -0.3271 -0.1677
  411MOL0     C55352   4.253   2.520   4.025  0.1333 -0.6829  0.0942
  411MOL0     O55353   4.286   2.458   3.908 -0.0980 -0.2713  0.6583
  411MOL0     C55354   4.413   2.457   3.867  0.1190 -0.3429  0.7718
  411MOL0     C55355   4.503   2.570   3.871 -0.9576 -0.1908 -0.2515
  411MOL0     C55356   4.634   2.561   3.815 -0.0638  0.8601  0.1167
  411MOL0     C55357   4.679   2.446   3.751 -0.2765 -0.1199  0.0292
  411MOL0     O55358   4.806   2.430   3.700  0.2428 -0.1538  0.2165
  411MOL0     C55359   4.898   2.545   3.696  1.0181  0.1502  1.1390
  411MOL0     C55360   5.034   2.495   3.647 -1.3811 -0.1257 -0.3531
  411MOL0     C55361   5.156   2.588   3.664  0.0890  0.3687  0.7864
  411MOL0     C55362   5.285   2.529   3.597  0.4275 -0.5034 -0.7854
  411MOL0     C55363   5.393   2.642   3.607 -0.5433  0.2268  0.3155
  411MOL0     C55364   5.525   2.588   3.556  0.8033 -0.5151  0.2703
  411MOL0     C55365   5.605   2.501   3.658  0.0771  0.8824  0.7578
  411MOL0     C55366   5.760   2.519   3.634 -0.1823 -0.3237  0.3237
  411MOL0     N55367   5.846   2.436   3.727 -0.0031 -0.5596  0.2835
  411MOL0     C55368   5.937   2.338   3.684  0.2278 -0.3872  0.1505
  411MOL0     C55369   5.996   2.293   3.798 -0.3309 -0.7932  0.2570
  411MOL0     C55370   6.122   2.210   3.806 -0.0470 -0.1589  0.1821
  411MOL0     C55371   6.098   2.083   3.885  0.2238  0.2912  0.2403
  411MOL0     C55372   5.989   1.983   3.840  0.6104  0.1577 -0.3181
  411MOL0     C55373   5.841   2.030   3.844 -0.1707  0.8611  0.5154
  411MOL0     O55374   5.767   1.909   3.857 -0.5127  0.2476  0.4994
  411MOL0     C55375   5.636   1.923   3.885  0.0492 -0.3759  0.2645
  411MOL0     C55376   5.570   1.808   3.932 -0.4247 -0.2000  0.2634
  411MOL0     C55377   5.439   1.811   3.969  0.1662  0.3875  0.0714
  411MOL0     C55378   5.358   1.928   3.965  0.1094  0.6247  0.4334
  411MOL0     C55379   5.212   1.925   4.004 -0.7635 -0.2002  1.2705
  411MOL0     O55380   5.156   2.047   3.985 -0.1476 -1.3519  0.2175
  411MOL0     C55381   5.028   2.081   4.028 -0.2585  0.7424  0.9712
  411MOL0     C55382   4.954   2.005   4.125  0.0426  0.0532  0.2188
  411MOL0     C55383   4.820   2.037   4.165 -0.1646 -0.4395  0.7862
  411MOL0     C55384   4.760   2.151   4.117  0.0128  0.1199  0.0612
  411MOL0     O55385   4.646   2.197   4.173 -0.2020 -0.6868  0.1068
  411MOL0     C55386   4.547   2.098   4.186 -0.2615 -0.6789 -0.5999
  411MOL0     C55387   4.426   2.182   4.165  0.0091 -0.3941 -0.2259
  411MOL0     C55388   4.306   2.142   4.233  0.5967  0.8477 -1.3794
  411MOL0     C55389   4.184   2.244   4.225  0.8829  1.1228  0.3845
  411MOL0     C55390   4.063   2.199   4.313  0.0721  0.0280 -0.0334
  411MOL0     C55391   3.944   2.290   4.287 -0.2254  0.2116  0.0532
  411MOL0     C55392   3.831   2.237   4.379  0.5295 -0.2647  0.3141
  411MOL0     C55393   3.692   2.256   4.312  0.5051  0.1874  0.0465
  411MOL0    Cl55394   3.666   2.131   4.193 -0.3566  0.1356 -0.3143
  411MOL0     C55395   4.823   2.227   4.024 -0.5311 -0.1793  0.0774
  411MOL0     C55396   4.960   2.195   3.987 -0.5216  0.8713 -0.3349
  411MOL0     O55397   5.157   1.817   4.032  0.3480  0.1458  0.5508
  411MOL0     C55398   5.422   2.048   3.917  0.0276 -0.1698 -0.0024
  411MOL0     C55399   5.559   2.045   3.877 -0.3175 -0.4973  0.0822
  411MOL0     N55400   5.936   2.350   3.903  0.1857 -0.8872 -0.2197
  411MOL0     N55401   5.837   2.427   3.854 -0.3083  0.2872 -0.6631
  411MOL0     C55402   4.587   2.336   3.750 -0.2310  0.2891 -0.3856
  411MOL0     C55403   4.463   2.344   3.800  0.5584 -0.1932 -0.3433
  411MOL0     C55404   4.100   2.545   4.039 -0.0116  1.1378  0.6579
  411MOL0     C55405   4.013   2.481   3.951 -0.8459  0.9697 -0.1456
  411MOL0     C55406   3.872   2.490   3.962  0.2240  0.8434  0.7839
  411MOL0     C55407   3.810   2.574   4.052  0.1741  0.1704 -0.3308
  411MOL0     O55408   3.675   2.575   4.070  0.8487  0.3309  0.5310
  411MOL0     C55409   3.595   2.558   3.953 -0.4480  0.5712 -0.2030
  411MOL0     C55410   3.530   2.415   3.955 -0.3639  0.0087  0.1933
  411MOL0     C55411   3.432   2.399   4.083  0.1872  0.4978  0.3093
  411MOL0     C55412   3.287   2.436   4.064  0.1600  0.2167  0.2586
  411MOL0     C55413   3.204   2.322   4.005 -1.2273  0.0797  0.4783
  411MOL0     C55414   3.140   2.226   3.984  0.0340  0.6319  0.6649
  411MOL0     C55415   3.894   2.639   4.141 -0.3780  0.0747 -0.5180
  411MOL0     C55416   4.030   2.621   4.137 -0.2025  0.1520  0.5110
  411MOL0     C55417   4.102   2.671   4.257 -0.1792 -0.2806 -0.0165
  411MOL0     H55418   4.479   2.660   3.926 -2.3279 -0.6693 -0.0446
  411MOL0     H55419   4.691   2.651   3.837 -1.2631  1.9046 -0.8539
  411MOL0     H55420   4.844   2.614   3.631  0.5084 -0.5439  0.8100
  411MOL0     H55421   4.905   2.595   3.793 -1.2977  0.6369  1.1108
  411MOL0     H55422   5.020   2.471   3.541 -1.8493 -1.8125  0.0519
  411MOL0     H55423   5.056   2.397   3.691 -1.9024  0.3417  0.9982
  411MOL0     H55424   5.173   2.604   3.771 -1.4959  0.8962  0.9853
  411MOL0     H55425   5.149   2.687   3.617  2.7743 -1.4918 -4.3969
  411MOL0     H55426   5.324   2.439   3.644 -0.3281 -0.0755  0.7184
  411MOL0     H55427   5.270   2.501   3.492  1.1982 -2.1766 -0.4669
  411MOL0     H55428   5.367   2.727   3.543  1.6695 -0.8947 -2.2916
  411MOL0     H55429   5.414   2.680   3.707 -1.0330 -3.2065  1.8800
  411MOL0     H55430   5.503   2.527   3.468 -4.7907  1.9182 -0.4793
  411MOL0     H55431   5.592   2.672   3.539 -1.2476  0.9651 -0.9633
  411MOL0     H55432   5.577   2.396   3.645 -0.4737  1.2075 -0.9796
  411MOL0     H55433   5.588   2.526   3.763 -1.7432 -1.1002  1.0062
  411MOL0     H55434   5.787   2.498   3.530  0.7631  4.1758 -0.5167
  411MOL0     H55435   5.785   2.623   3.655  1.5109 -0.5813 -0.2093
  411MOL0     H55436   5.963   2.306   3.584 -0.8372 -0.5133 -0.0954
  411MOL0     H55437   6.169   2.205   3.707 -0.8133  0.7412 -0.2418
  411MOL0     H55438   6.195   2.272   3.858  0.1483 -0.3838  0.1732
  411MOL0     H55439   6.195   2.034   3.887  0.9037  1.4449 -1.4913
  411MOL0     H55440   6.085   2.110   3.990 -0.2894  1.1877 -0.0380
  411MOL0     H55441   5.995   1.902   3.914  0.3425  1.8756  1.6743
  411MOL0     H55442   6.007   1.933   3.745 -0.5896 -1.2743  0.1626
  411MOL0     H55443   5.820   2.082   3.750  5.1241  0.8864 -0.9766
  411MOL0     H55444   5.830   2.093   3.932  0.0544  3.2279 -1.0495
  411MOL0     H55445   5.628   1.715   3.935 -0.2123 -0.0839 -0.0987
  411MOL0     H55446   5.396   1.720   4.011  0.1733  1.3654  2.3691
  411MOL0     H55447   5.008   1.919   4.162  4.8229  1.5803 -2.4213
  411MOL0     H55448   4.781   1.973   4.244 -1.4230  1.3384  1.6790
  411MOL0     H55449   4.547   2.025   4.105 -2.4660 -3.1741  1.4523
  411MOL0     H55450   4.538   2.058   4.288 -0.8173 -0.6898 -0.6517
  411MOL0     H55451   4.445   2.285   4.198  3.0035 -0.7362 -0.5684
  411MOL0     H55452   4.403   2.174   4.059 -2.1086 -0.6278  0.2126
  411MOL0     H55453   4.260   2.051   4.193  1.1776 -0.2874  0.4386
  411MOL0     H55454   4.328   2.117   4.337 -2.5347  0.0147 -0.8073
  411MOL0     H55455   4.158   2.242   4.119 -3.3164  0.4559  1.2463
  411MOL0     H55456   4.211   2.347   4.250  2.5885  1.2044 -1.5315
  411MOL0     H55457   4.103   2.210   4.414 -0.0189 -1.7798  0.2187
  411MOL0     H55458   4.034   2.098   4.284  0.6263 -0.1959  0.1748
  411MOL0     H55459   3.960   2.395   4.315  1.8210  0.6131 -2.2832
  411MOL0     H55460   3.918   2.285   4.181 -0.3370  0.2019  0.0809
  411MOL0     H55461   3.828   2.292   4.474 -2.5827 -0.4007  0.4105
  411MOL0     H55462   3.832   2.127   4.385 -2.2689 -0.4553 -1.2643
  411MOL0     H55463   3.608   2.232   4.378 -1.5342 -0.0802 -2.4792
  411MOL0     H55464   3.677   2.353   4.265 -2.8270 -0.5342 -0.6498
  411MOL0     H55465   4.773   2.312   3.979  4.4497  1.3944 -3.4220
  411MOL0     H55466   5.008   2.263   3.917 -2.6432  2.5779 -0.2098
  411MOL0     H55467   5.369   2.141   3.894  0.6334  0.7330  2.0462
  411MOL0     H55468   5.590   2.143   3.842 -0.9921 -0.6624 -1.0337
  411MOL0     H55469   4.607   2.241   3.701 -2.5365 -0.0765 -0.7742
  411MOL0     H55470   4.405   2.253   3.799  0.2176  0.0022 -1.8642
  411MOL0     H55471   4.054   2.409   3.881 -1.0999 -0.3842  1.0422
  411MOL0     H55472   3.820   2.416   3.901  0.8848  2.3142 -1.7093
  411MOL0     H55473   3.639   2.580   3.855  0.6358  2.0372  0.5660
  411MOL0     H55474   3.508   2.624   3.957 -0.1087  1.0672 -0.8542
  411MOL0     H55475   3.611   2.341   3.960 -0.8168 -0.7500 -2.4060
  411MOL0     H55476   3.479   2.402   3.860 -1.5966  2.1978  0.4914
  411MOL0     H55477   3.472   2.449   4.172 -0.1524 -1.2755  1.5211
  411MOL0     H55478   3.436   2.293   4.110 -1.1735  0.5977  0.9917
  411MOL0     H55479   3.241   2.472   4.157 -1.0042  1.6883 -0.8406
  411MOL0     H55480   3.282   2.518   3.992 -1.0148  0.9367  1.1224
  411MOL0     H55481   3.079   2.140   3.964  1.1270 -0.0288  0.0781
  411MOL0     H55482   3.850   2.717   4.202 -1.3334 -0.1439 -0.9139
  411MOL0     H55483   4.199   2.717   4.236 -0.8653  0.9660 -0.5390
  411MOL0     H55484   4.051   2.755   4.305 -0.6582  0.9368 -2.5046
  411MOL0     H55485   4.108   2.582   4.320  0.3669  1.1232  2.0284
  412MOL0     O55486   1.448   7.637   4.696  0.5313 -0.1383 -0.1542
  412MOL0     C55487   1.527   7.558   4.747  0.1796 -0.4306 -0.7962
  412MOL0     O55488   1.496   7.429   4.774 -0.4930  0.2972 -0.2866
  412MOL0     C55489   1.368   7.390   4.770  0.4977 -0.0547 -0.6006
  412MOL0     C55490   1.259   7.455   4.833  0.2051 -0.4411 -0.1247
  412MOL0     C55491   1.120   7.416   4.824 -0.3023  0.6415 -0.1934
  412MOL0     C55492   1.100   7.306   4.742 -0.3430 -0.7010 -0.1956
  412MOL0     O55493   0.969   7.268   4.699  0.3640 -0.1588 -0.0867
  412MOL0     C55494   0.868   7.293   4.796 -0.1404  0.0987 -1.1146
  412MOL0     C55495   0.735   7.258   4.741  0.6457  0.3290  0.0610
  412MOL0     C55496   0.606   7.322   4.807  0.4317 -0.2064 -0.9982
  412MOL0     C55497   0.479   7.312   4.730 -0.0417  0.4722 -0.5602
  412MOL0     C55498   0.352   7.344   4.816 -0.0843  0.2016 -0.2099
  412MOL0     C55499   0.294   7.219   4.882 -0.8648 -0.4631 -0.1700
  412MOL0     C55500   0.189   7.261   4.987 -0.1332  1.0485 -0.4497
  412MOL0     C55501   0.091   7.148   5.012 -0.3710 -0.1501  0.0526
  412MOL0     N55502   0.160   7.016   5.051  0.3774 -0.0611 -0.2250
  412MOL0     C55503   0.178   6.911   4.968  0.3361 -0.4895  0.2039
  412MOL0     C55504   0.291   6.851   5.020  0.5920 -0.8902  0.4237
  412MOL0     C55505   0.347   6.724   4.961  0.6263  0.2561  0.5581
  412MOL0     C55506   0.406   6.748   4.819 -0.7819  0.4141  0.1256
  412MOL0     C55507   0.499   6.629   4.774  0.6432  0.4154 -0.2977
  412MOL0     C55508   0.631   6.628   4.850 -0.0292 -0.0177 -0.0259
  412MOL0     O55509   0.693   6.755   4.890 -0.0755 -0.4746  0.3765
  412MOL0     C55510   0.829   6.761   4.890  0.0790 -0.1157 -1.0087
  412MOL0     C55511   0.888   6.888   4.865 -0.9501  0.4433  0.2182
  412MOL0     C55512   1.031   6.907   4.862  0.0914 -0.5608  0.4298
  412MOL0     C55513   1.122   6.800   4.890  0.3935 -0.3335  0.0396
  412MOL0     C55514   1.269   6.818   4.879 -0.0123 -1.1339  0.4633
  412MOL0     O55515   1.346   6.712   4.918  0.0881  0.0102  0.2119
  412MOL0     C55516   1.477   6.706   4.873  0.1847  0.4766  0.4239
  412MOL0     C55517   1.584   6.797   4.898  0.5455 -0.2357  0.6984
  412MOL0     C55518   1.716   6.773   4.862  0.2416  0.3301  0.3771
  412MOL0     C55519   1.746   6.657   4.799  0.3218  0.2563  0.8548
  412MOL0     O55520   1.874   6.629   4.755 -0.2934 -0.9665 -0.2996
  412MOL0     C55521   1.899   6.549   4.633  0.0037  1.0361  0.6176
  412MOL0     C55522   2.053   6.565   4.600 -0.4443 -1.1803  0.2816
  412MOL0     C55523   2.130   6.454   4.546 -0.1253  0.6106 -0.1794
  412MOL0     C55524   2.276   6.490   4.520 -0.6268 -0.3978  0.5369
  412MOL0     C55525   2.363   6.361   4.481  0.7801 -0.3334 -0.0838
  412MOL0     C55526   2.504   6.412   4.428 -0.5160  1.0029 -0.0804
  412MOL0     C55527   2.506   6.485   4.292 -1.9399  0.5130  0.8135
  412MOL0     C55528   2.455   6.395   4.183  0.0905  0.0833  0.3712
  412MOL0    Cl55529   2.509   6.222   4.187  0.0868 -0.5997 -0.1194
  412MOL0     C55530   1.640   6.564   4.779 -0.5120  0.2058 -1.0601
  412MOL0     C55531   1.511   6.586   4.814  0.0319  0.4633  0.1764
  412MOL0     O55532   1.318   6.921   4.833 -0.7000  0.1104  0.5024
  412MOL0     C55533   1.065   6.670   4.919  0.8006 -0.1679 -0.7803
  412MOL0     C55534   0.923   6.652   4.917  0.3726  0.6897 -0.5559
  412MOL0     N55535   0.322   6.904   5.144  0.3952  0.0824  0.1567
  412MOL0     N55536   0.250   7.005   5.159 -1.2021 -0.1465 -0.1274
  412MOL0     C55537   1.213   7.235   4.683 -0.0154  0.0049  0.5880
  412MOL0     C55538   1.346   7.280   4.692 -0.2696 -0.1165  0.4291
  412MOL0     C55539   1.663   7.599   4.788  0.2329  0.1686  0.3704
  412MOL0     C55540   1.692   7.575   4.920 -0.1295 -1.0770  0.2892
  412MOL0     C55541   1.824   7.627   4.968 -0.1145 -0.7075  0.6190
  412MOL0     C55542   1.905   7.697   4.881 -0.0720  0.7191  0.0299
  412MOL0     O55543   2.025   7.743   4.926  0.2828 -0.7149  0.1277
  412MOL0     C55544   2.014   7.844   5.021 -0.1837 -0.7806 -0.1429
  412MOL0     C55545   1.955   7.984   4.971  0.5528 -0.0935 -0.7495
  412MOL0     C55546   2.036   8.029   4.847  0.2711  0.8160 -1.4430
  412MOL0     C55547   2.093   8.170   4.843 -0.0452  0.4722 -0.0522
  412MOL0     C55548   2.161   8.188   4.713  0.0603 -0.0738  0.4950
  412MOL0     C55549   2.220   8.188   4.604 -0.6025  0.0544  0.0536
  412MOL0     C55550   1.876   7.730   4.756  0.2601  0.0976  0.3861
  412MOL0     C55551   1.755   7.670   4.701 -0.7250 -0.0752  0.3610
  412MOL0     C55552   1.708   7.711   4.566  0.3894 -0.2272  0.0401
  412MOL0     H55553   1.274   7.540   4.899 -6.3962  1.3776 -0.2314
  412MOL0     H55554   1.047   7.488   4.860  0.5136  0.2369  2.4271
  412MOL0     H55555   0.889   7.246   4.893 -0.9161  1.2288 -0.3727
  412MOL0     H55556   0.869   7.398   4.826  1.1816 -0.9846  3.4489
  412MOL0     H55557   0.723   7.150   4.746 -2.7483  0.6102  0.9085
  412MOL0     H55558   0.733   7.283   4.634  2.0332  2.3356  0.4459
  412MOL0     H55559   0.622   7.425   4.838 -0.8893 -0.7396  1.7482
  412MOL0     H55560   0.605   7.258   4.896  1.0467  0.1105 -0.7562
  412MOL0     H55561   0.471   7.386   4.649  0.7336  0.9186 -0.2333
  412MOL0     H55562   0.474   7.213   4.685 -3.3523 -1.0498  2.6645
  412MOL0     H55563   0.378   7.418   4.893  2.1637  0.2993 -0.9985
  412MOL0     H55564   0.275   7.389   4.752 -0.2110 -1.7044 -1.4591
  412MOL0     H55565   0.239   7.164   4.805 -1.4656 -0.1830  0.0485
  412MOL0     H55566   0.376   7.159   4.922 -0.3965 -0.6593 -1.4034
  412MOL0     H55567   0.131   7.345   4.946 -2.0438 -1.2438 -2.7754
  412MOL0     H55568   0.233   7.298   5.080  1.3355  2.2834 -1.5722
  412MOL0     H55569   0.029   7.179   5.097  0.9577  1.8553  0.3604
  412MOL0     H55570   0.033   7.124   4.922 -0.4224 -0.5676  0.1951
  412MOL0     H55571   0.125   6.887   4.876 -3.3480  0.2761  1.9406
  412MOL0     H55572   0.425   6.686   5.028  3.2387  3.0431 -0.6216
  412MOL0     H55573   0.272   6.645   4.956  0.7516 -0.1212  3.2333
  412MOL0     H55574   0.321   6.755   4.750  0.3158  1.1781 -1.1851
  412MOL0     H55575   0.462   6.841   4.807  0.1227 -0.4083 -2.7304
  412MOL0     H55576   0.519   6.633   4.666 -0.1969  1.3481 -0.4321
  412MOL0     H55577   0.442   6.541   4.805 -0.5325  1.7208  1.3746
  412MOL0     H55578   0.709   6.572   4.796  2.7006  1.6143  1.9489
  412MOL0     H55579   0.619   6.570   4.942  1.3179  0.5343  0.5237
  412MOL0     H55580   0.824   6.970   4.835 -2.2181 -0.4596  0.3702
  412MOL0     H55581   1.061   7.009   4.840  3.9023 -2.1276 -2.7023
  412MOL0     H55582   1.561   6.893   4.943 -0.2036  0.2237 -0.6158
  412MOL0     H55583   1.802   6.837   4.879  1.7611 -1.3138 -0.7183
  412MOL0     H55584   1.890   6.442   4.655  1.0642  0.4142 -1.5797
  412MOL0     H55585   1.838   6.574   4.546  0.4694 -0.7249 -0.2649
  412MOL0     H55586   2.081   6.647   4.534 -1.7136 -1.5335 -0.7402
  412MOL0     H55587   2.103   6.592   4.693 -1.7594 -1.2704  1.0348
  412MOL0     H55588   2.125   6.371   4.617 -1.0420  0.5062 -0.3490
  412MOL0     H55589   2.092   6.414   4.451 -0.8049 -1.0966  0.7475
  412MOL0     H55590   2.328   6.535   4.605  2.9199  1.3148 -2.2582
  412MOL0     H55591   2.280   6.572   4.447  0.6678  2.2072  3.3397
  412MOL0     H55592   2.308   6.291   4.418 -0.5391 -1.0331  1.7777
  412MOL0     H55593   2.389   6.305   4.571 -0.7321 -0.8284  0.0661
  412MOL0     H55594   2.548   6.481   4.501  0.4798  2.7977 -2.2535
  412MOL0     H55595   2.570   6.324   4.429  0.7738  1.8925  2.7106
  412MOL0     H55596   2.612   6.513   4.284 -1.6924 -0.7246 -0.8870
  412MOL0     H55597   2.446   6.574   4.277  0.6789  2.3282  0.3490
  412MOL0     H55598   2.346   6.401   4.173  0.0680  1.2741  1.1903
  412MOL0     H55599   2.494   6.431   4.087 -1.1440 -2.8496 -1.3798
  412MOL0     H55600   1.664   6.468   4.734  0.4705  1.0064 -2.2862
  412MOL0     H55601   1.441   6.504   4.811 -0.5687  0.9846 -0.9257
  412MOL0     H55602   1.125   6.584   4.945  0.2128 -1.5438 -3.5276
  412MOL0     H55603   0.887   6.552   4.937  1.1172 -0.5429 -4.5674
  412MOL0     H55604   1.190   7.140   4.636 -0.6369  0.5098 -0.1519
  412MOL0     H55605   1.420   7.225   4.636  1.3117  2.6189 -0.3340
  412MOL0     H55606   1.614   7.531   4.982  1.0247 -1.7219  1.3297
  412MOL0     H55607   1.848   7.604   5.072  1.4508 -0.1326  0.4052
  412MOL0     H55608   2.118   7.863   5.048 -0.7287 -1.7126  3.0669
  412MOL0     H55609   1.961   7.813   5.112  0.6914 -1.9916 -0.0127
  412MOL0     H55610   1.950   8.061   5.049  0.3363 -0.2371 -0.6203
  412MOL0     H55611   1.849   7.969   4.949 -0.2116 -0.2924  2.5193
  412MOL0     H55612   1.967   8.034   4.762  0.3168 -1.0129 -1.6168
  412MOL0     H55613   2.106   7.948   4.824  1.4421  1.6106 -0.7752
  412MOL0     H55614   2.005   8.235   4.854 -1.7872 -1.9784  1.5478
  412MOL0     H55615   2.165   8.183   4.924  0.5333  1.8752 -0.7461
  412MOL0     H55616   2.278   8.177   4.514  1.0235 -3.3903  1.3466
  412MOL0     H55617   1.941   7.788   4.690 -0.3425  0.6403  0.2574
  412MOL0     H55618   1.617   7.769   4.583 -0.1358 -1.3767  1.3272
  412MOL0     H55619   1.786   7.763   4.509  0.4585 -1.3215 -0.9068
  412MOL0     H55620   1.680   7.622   4.509  0.0832 -1.5203  2.0948
  413MOL0     O55621   1.178   0.369   0.225  0.4956 -0.2513  0.3864
  413MOL0     C55622   1.098   0.446   0.282  0.0594  0.0258  0.2513
  413MOL0     O55623   0.965   0.419   0.304  0.1610 -0.4275 -0.1489
  413MOL0     C55624   0.924   0.309   0.247  1.0983  0.5975  0.8760
  413MOL0     C55625   0.946   0.186   0.302 -0.4185 -0.3864  0.9590
  413MOL0     C55626   0.895   0.077   0.229  0.6325  1.2407  0.0488
  413MOL0     C55627   0.822   0.081   0.104  1.1755 -0.6714  0.0917
  413MOL0     O55628   0.765  -0.020   0.041 -0.2051 -0.1043  0.2705
  413MOL0     C55629   0.836  -0.061  -0.079  0.0633 -0.8501  0.3717
  413MOL0     C55630   0.770  -0.186  -0.134  0.2759 -0.7098  0.1448
  413MOL0     C55631   0.804  -0.212  -0.275  0.1295  0.3324 -0.3586
  413MOL0     C55632   0.757  -0.357  -0.306 -0.4589 -0.1591  0.0400
  413MOL0     C55633   0.779  -0.399  -0.451 -0.6131 -0.8347  0.2724
  413MOL0     C55634   0.671  -0.500  -0.488  0.0280 -0.2641 -0.4326
  413MOL0     C55635   0.650  -0.623  -0.394 -0.7474  1.0823  1.7787
  413MOL0     C55636   0.769  -0.705  -0.342 -0.0810 -0.5858  0.7489
  413MOL0     N55637   0.832  -0.785  -0.449 -0.0354 -0.5713  0.0708
  413MOL0     C55638   0.770  -0.883  -0.514 -0.6421  0.0865 -0.6371
  413MOL0     C55639   0.868  -0.923  -0.601 -0.7722 -0.0348 -0.1174
  413MOL0     C55640   0.860  -1.037  -0.698 -0.3173  0.3701  0.5833
  413MOL0     C55641   0.993  -1.121  -0.701  0.5046  1.0267 -0.1815
  413MOL0     C55642   0.981  -1.238  -0.800  0.5019 -0.1058  0.7891
  413MOL0     C55643   1.092  -1.332  -0.807  0.6595  1.0407  0.0500
  413MOL0     O55644   1.212  -1.261  -0.781 -0.0161  0.0651 -0.1130
  413MOL0     C55645   1.300  -1.246  -0.881 -0.1488  0.3295  0.3296
  413MOL0     C55646   1.276  -1.258  -1.021  0.8275 -0.0294 -0.1987
  413MOL0     C55647   1.383  -1.252  -1.106  0.3316  0.0824 -0.1031
  413MOL0     C55648   1.502  -1.200  -1.067 -0.7070 -0.5607 -0.4136
  413MOL0     C55649   1.619  -1.166  -1.159  0.3850  0.5416 -0.3010
  413MOL0     O55650   1.737  -1.109  -1.105  0.5625  0.2636  0.4364
  413MOL0     C55651   1.831  -1.066  -1.196 -0.5652 -0.6725  0.7891
  413MOL0     C55652   1.937  -1.157  -1.239  0.1238 -0.1321  0.4935
  413MOL0     C55653   2.027  -1.124  -1.338 -0.7427  0.2941  0.1861
  413MOL0     C55654   2.023  -1.004  -1.396 -0.4662  0.0211 -0.7348
  413MOL0     O55655   2.119  -0.968  -1.485 -0.8568  0.6683  0.3146
  413MOL0     C55656   2.213  -0.862  -1.444 -0.4001  0.5335  0.3853
  413MOL0     C55657   2.352  -0.907  -1.401 -1.4371  0.3434 -0.9374
  413MOL0     C55658   2.355  -0.957  -1.250 -0.1595  0.3981 -0.4282
  413MOL0     C55659   2.492  -1.018  -1.231 -0.7719  0.0800 -0.0256
  413MOL0     C55660   2.532  -1.034  -1.087 -0.6077 -0.2337 -0.0766
  413MOL0     C55661   2.675  -1.086  -1.073  1.0438 -0.5190  0.1759
  413MOL0     C55662   2.718  -1.086  -0.927  0.1589 -0.4955 -0.1363
  413MOL0     C55663   2.841  -1.174  -0.897  0.6903 -0.8521  1.1109
  413MOL0    Cl55664   2.973  -1.132  -1.002 -0.0293  1.0227 -0.1926
  413MOL0     C55665   1.923  -0.912  -1.346  0.0117 -0.0121  0.0596
  413MOL0     C55666   1.830  -0.942  -1.248  0.0175 -0.1294  0.4752
  413MOL0     O55667   1.595  -1.188  -1.280  0.1557  0.1482 -0.0538
  413MOL0     C55668   1.530  -1.206  -0.931 -0.6112  0.5874  0.8158
  413MOL0     C55669   1.428  -1.223  -0.834 -0.1733  0.1728 -0.5686
  413MOL0     N55670   0.986  -0.858  -0.585  0.6191 -0.0566  0.5684
  413MOL0     N55671   0.957  -0.780  -0.486 -0.7543 -0.4350  0.1483
  413MOL0     C55672   0.809   0.213   0.051  0.1430 -0.4076 -0.3140
  413MOL0     C55673   0.861   0.322   0.120 -0.4627 -0.8769  0.6659
  413MOL0     C55674   1.150   0.568   0.336  0.2402 -0.3533 -0.4398
  413MOL0     C55675   1.270   0.556   0.393 -0.5886  0.0183  0.1930
  413MOL0     C55676   1.329   0.674   0.449  0.0248 -0.4370 -1.0974
  413MOL0     C55677   1.267   0.798   0.453  0.9898  0.8017  0.2250
  413MOL0     O55678   1.320   0.900   0.528 -0.3543 -0.0599  0.0187
  413MOL0     C55679   1.435   0.966   0.486  0.6610 -1.0056  0.7227
  413MOL0     C55680   1.421   1.022   0.338 -0.2708 -0.3508  0.5991
  413MOL0     C55681   1.559   1.062   0.280  0.0857  0.0651 -0.6340
  413MOL0     C55682   1.605   1.191   0.352  0.5780  0.0520 -0.2329
  413MOL0     C55683   1.722   1.264   0.298  0.8795  1.1541  0.6242
  413MOL0     C55684   1.812   1.328   0.243 -0.3818  0.7239  0.4543
  413MOL0     C55685   1.138   0.809   0.394 -0.1125  0.6839  1.1807
  413MOL0     C55686   1.081   0.688   0.340 -0.6629 -0.8869 -0.0480
  413MOL0     C55687   0.941   0.708   0.276  0.5725 -0.2499  0.1597
  413MOL0     H55688   0.997   0.169   0.396  0.2484 -0.2157  0.6320
  413MOL0     H55689   0.916  -0.023   0.265 -1.3920  1.1901  1.2416
  413MOL0     H55690   0.828   0.016  -0.156 -1.3012 -0.1067  1.2125
  413MOL0     H55691   0.942  -0.065  -0.052  0.0630  0.1126  0.5320
  413MOL0     H55692   0.662  -0.168  -0.134 -0.1318 -2.8524 -0.7831
  413MOL0     H55693   0.795  -0.269  -0.067  0.7609  0.1666  1.0897
  413MOL0     H55694   0.911  -0.197  -0.287  0.7168 -0.9670  2.3293
  413MOL0     H55695   0.753  -0.142  -0.342  0.0414  1.7219  1.0952
  413MOL0     H55696   0.800  -0.424  -0.231 -0.4517  1.1716  1.2837
  413MOL0     H55697   0.651  -0.356  -0.280  0.0161 -0.6403  2.1906
  413MOL0     H55698   0.780  -0.312  -0.517  1.2368 -0.1887  1.0828
  413MOL0     H55699   0.877  -0.448  -0.459 -0.3933 -0.2556 -0.8186
  413MOL0     H55700   0.573  -0.454  -0.501  0.8365  2.1703  1.2885
  413MOL0     H55701   0.705  -0.543  -0.583  2.5160 -0.4563  0.4499
  413MOL0     H55702   0.576  -0.694  -0.431  1.0852 -0.6278  1.2460
  413MOL0     H55703   0.591  -0.586  -0.309 -3.3566  0.0109  0.5258
  413MOL0     H55704   0.841  -0.630  -0.309 -0.7084  2.4036 -3.8657
  413MOL0     H55705   0.743  -0.773  -0.260 -1.1236  0.0451  0.9480
  413MOL0     H55706   0.671  -0.924  -0.495 -0.4786  0.3747  0.9856
  413MOL0     H55707   0.772  -1.098  -0.676  1.2373 -1.1740  2.8910
  413MOL0     H55708   0.849  -0.999  -0.800 -3.4199 -1.4791  0.0927
  413MOL0     H55709   1.074  -1.053  -0.729  0.1323  1.6745  0.2929
  413MOL0     H55710   1.013  -1.165  -0.604  0.4020 -0.5447 -0.8452
  413MOL0     H55711   0.987  -1.196  -0.900  2.4895 -1.1906  0.4015
  413MOL0     H55712   0.890  -1.295  -0.781 -1.4220  2.5284 -0.0064
  413MOL0     H55713   1.086  -1.404  -0.889  1.4188 -2.9321  3.1939
  413MOL0     H55714   1.080  -1.409  -0.731  1.9643 -0.4586 -1.1850
  413MOL0     H55715   1.177  -1.265  -1.065  1.5382 -1.5105 -1.6235
  413MOL0     H55716   1.368  -1.282  -1.209  0.0213 -0.3904  0.0808
  413MOL0     H55717   1.932  -1.257  -1.197  2.1139  1.0482  3.9064
  413MOL0     H55718   2.090  -1.205  -1.374 -0.6844  0.0754  0.7649
  413MOL0     H55719   2.229  -0.802  -1.534 -0.2155 -1.4165 -0.9456
  413MOL0     H55720   2.163  -0.788  -1.381 -0.3402  1.6571 -0.8434
  413MOL0     H55721   2.389  -0.980  -1.473 -1.1887  1.5106 -2.0298
  413MOL0     H55722   2.416  -0.819  -1.414  0.0667 -0.6852 -0.7086
  413MOL0     H55723   2.340  -0.875  -1.179 -1.7023 -1.7454  1.8933
  413MOL0     H55724   2.284  -1.036  -1.224  2.4147 -1.2295  2.4349
  413MOL0     H55725   2.569  -0.959  -1.280 -0.0999 -0.4319  0.3898
  413MOL0     H55726   2.496  -1.117  -1.278  0.3959 -0.0279  0.2626
  413MOL0     H55727   2.462  -1.101  -1.036 -1.5213  1.5134  1.0449
  413MOL0     H55728   2.519  -0.938  -1.036 -0.9008 -0.5677  0.4859
  413MOL0     H55729   2.666  -1.187  -1.114 -0.6694 -1.0705  1.7851
  413MOL0     H55730   2.747  -1.022  -1.125  1.6346  0.6004  2.2612
  413MOL0     H55731   2.643  -1.128  -0.858  1.7164 -1.9713  0.7378
  413MOL0     H55732   2.746  -0.985  -0.896  0.6468 -0.3497 -1.0357
  413MOL0     H55733   2.867  -1.161  -0.791 -1.8426  3.7679  1.4532
  413MOL0     H55734   2.809  -1.278  -0.903  2.2386 -1.3604  1.1391
  413MOL0     H55735   1.920  -0.812  -1.388  1.7283  1.1110  2.3793
  413MOL0     H55736   1.752  -0.877  -1.210  0.5756  2.4445 -2.3123
  413MOL0     H55737   1.626  -1.171  -0.894 -0.2356 -0.3428  0.7338
  413MOL0     H55738   1.452  -1.237  -0.729  1.6162  0.8287 -0.8488
  413MOL0     H55739   0.755   0.227  -0.043  0.1302  0.0803 -0.2358
  413MOL0     H55740   0.840   0.422   0.083  1.6635 -0.6899 -0.1556
  413MOL0     H55741   1.307   0.456   0.415 -3.3581 -1.6536 -2.0209
  413MOL0     H55742   1.414   0.683   0.515  0.3947  0.7546 -1.7101
  413MOL0     H55743   1.525   0.905   0.490  0.6622 -0.9372  2.5634
  413MOL0     H55744   1.442   1.049   0.557 -2.3125  3.1330 -3.2154
  413MOL0     H55745   1.360   1.113   0.348  1.0558  0.4822  1.3644
  413MOL0     H55746   1.360   0.955   0.276 -2.6551  2.5003 -0.3749
  413MOL0     H55747   1.554   1.088   0.174 -2.9408  1.5167 -0.2256
  413MOL0     H55748   1.644   0.995   0.297 -0.0386 -0.0637 -0.5146
  413MOL0     H55749   1.518   1.256   0.339  0.3883 -0.6022 -2.6989
  413MOL0     H55750   1.626   1.167   0.456 -1.0728  1.6094  0.5041
  413MOL0     H55751   1.884   1.384   0.187 -0.9538  2.2712  1.2016
  413MOL0     H55752   1.090   0.904   0.372 -4.1760 -0.6601  3.2121
  413MOL0     H55753   0.897   0.801   0.314  0.0411 -0.0383 -0.9432
  413MOL0     H55754   0.932   0.711   0.167 -0.3590  0.4964  0.2465
  413MOL0     H55755   0.867   0.635   0.310  0.5054 -0.6909 -0.9027
  414MOL0     O55756  10.196   0.734   5.696  0.1062 -0.1909  0.1043
  414MOL0     C55757  10.133   0.708   5.601  0.0343 -0.7578  0.3316
  414MOL0     O55758  10.173   0.741   5.477  0.3472  0.5154 -0.2753
  414MOL0     C55759  10.290   0.805   5.451  0.5390  0.6461  0.2978
  414MOL0     C55760  10.413   0.747   5.484  0.5717 -0.3918  0.1724
  414MOL0     C55761  10.533   0.819   5.464  0.8103 -0.1064 -0.5695
  414MOL0     C55762  10.522   0.956   5.433  0.5741 -0.1137  0.7988
  414MOL0     O55763  10.645   1.013   5.429 -0.6152  0.1581 -0.0717
  414MOL0     C55764  10.670   1.143   5.382 -0.8113  0.2347 -1.1554
  414MOL0     C55765  10.815   1.157   5.351  0.9437  0.5313 -0.3127
  414MOL0     C55766  10.834   1.093   5.212  0.1125  0.0724  0.1625
  414MOL0     C55767  10.979   1.095   5.163 -0.0654  1.5726  0.2058
  414MOL0     C55768  10.984   1.066   5.014 -0.3541 -0.1622 -0.4493
  414MOL0     C55769  11.127   1.067   4.960  0.5973 -0.1704 -0.8605
  414MOL0     C55770  11.131   1.030   4.811 -0.3095 -0.1627 -0.3878
  414MOL0     C55771  11.275   1.012   4.754 -0.2647 -0.0563 -0.1070
  414MOL0     N55772  11.271   0.985   4.613  0.4693  0.3659 -0.2939
  414MOL0     C55773  11.261   0.861   4.559 -0.4038  1.0772 -1.3645
  414MOL0     C55774  11.261   0.879   4.425  0.4462 -0.3533 -0.0363
  414MOL0     C55775  11.273   0.766   4.321 -0.1796 -0.5769 -0.3914
  414MOL0     C55776  11.421   0.733   4.295 -1.2208  0.1863 -0.3951
  414MOL0     C55777  11.440   0.609   4.210  0.5583 -0.0163 -0.0242
  414MOL0     C55778  11.592   0.579   4.192  0.1513  0.1912 -0.2864
  414MOL0     O55779  11.659   0.696   4.130 -0.6862  0.1748 -0.0451
  414MOL0     C55780  11.799   0.685   4.120 -0.1186 -0.0304 -0.2520
  414MOL0     C55781  11.874   0.569   4.153 -0.1827 -0.2597 -0.7344
  414MOL0     C55782  12.007   0.571   4.120 -0.0749 -1.4603 -0.0054
  414MOL0     C55783  12.077   0.688   4.081 -0.0365 -0.2130  0.3160
  414MOL0     C55784  12.220   0.680   4.060  0.4619 -0.2292  0.1923
  414MOL0     O55785  12.282   0.558   4.054 -0.3155 -0.0680 -0.6315
  414MOL0     C55786  12.419   0.557   4.032  0.9229  0.8101 -0.3915
  414MOL0     C55787  12.511   0.634   4.100 -0.3397 -0.5357 -0.1827
  414MOL0     C55788  12.644   0.599   4.077 -0.6293  0.4082 -1.2803
  414MOL0     C55789  12.686   0.490   4.006 -0.0727 -0.1018 -0.1053
  414MOL0     O55790  12.821   0.471   3.997 -0.0199 -0.5205 -0.1670
  414MOL0     C55791  12.876   0.370   3.912  0.4870 -0.1545 -0.1404
  414MOL0     C55792  13.027   0.351   3.942  0.2848 -0.0513  0.7775
  414MOL0     C55793  13.037   0.253   4.052 -0.5204  0.7679  0.7222
  414MOL0     C55794  13.186   0.217   4.088 -0.4334  1.2082  0.8289
  414MOL0     C55795  13.274   0.329   4.145  0.0044  0.4617  0.1006
  414MOL0     C55796  13.396   0.279   4.227  0.2275  0.7012  0.1939
  414MOL0     C55797  13.483   0.394   4.270  0.3640  0.4787 -0.7387
  414MOL0     C55798  13.541   0.368   4.415  0.3712 -0.1174  0.8493
  414MOL0    Cl55799  13.434   0.413   4.543 -0.3066  0.2979  0.0673
  414MOL0     C55800  12.590   0.417   3.935 -0.1350  0.1010  0.4794
  414MOL0     C55801  12.453   0.446   3.955 -0.5111  0.2661  0.2160
  414MOL0     O55802  12.274   0.791   4.047  0.0016 -0.3742  0.1259
  414MOL0     C55803  11.997   0.801   4.060  0.2760 -0.1761 -0.9127
  414MOL0     C55804  11.863   0.802   4.076  0.3381  0.0544  0.8179
  414MOL0     N55805  11.267   1.016   4.394  0.2714  0.0115 -0.8296
  414MOL0     N55806  11.272   1.082   4.512 -0.5475  0.4993  0.6890
  414MOL0     C55807  10.395   1.017   5.405 -0.7330 -0.3189 -0.0049
  414MOL0     C55808  10.280   0.937   5.420 -0.2392  0.3804 -0.1700
  414MOL0     C55809   9.996   0.639   5.613 -0.5039  0.0097  0.0128
  414MOL0     C55810   9.900   0.652   5.506 -0.2649 -0.0731 -0.6218
  414MOL0     C55811   9.779   0.582   5.512  0.2054 -0.1325 -0.3893
  414MOL0     C55812   9.738   0.506   5.623  0.3022 -0.3648 -0.6134
  414MOL0     O55813   9.612   0.446   5.625 -0.6221 -0.0701  0.4248
  414MOL0     C55814   9.521   0.480   5.524  1.2546  0.1886  0.0666
  414MOL0     C55815   9.380   0.425   5.563  0.1719  0.2155  0.5880
  414MOL0     C55816   9.371   0.317   5.670  0.9627 -0.5420 -0.1309
  414MOL0     C55817   9.235   0.265   5.672  0.1369  0.3343 -0.0175
  414MOL0     C55818   9.157   0.350   5.763 -0.6617 -0.2283 -0.4999
  414MOL0     C55819   9.089   0.420   5.829  1.1310  0.0306  0.5257
  414MOL0     C55820   9.830   0.499   5.730  0.7157  0.1396 -0.6707
  414MOL0     C55821   9.958   0.556   5.727 -0.0196  0.4472  0.7717
  414MOL0     C55822  10.048   0.525   5.838  0.4147 -0.0702  0.0483
  414MOL0     H55823  10.410   0.642   5.509  1.8563 -0.4141  0.2745
  414MOL0     H55824  10.630   0.770   5.463  0.7092 -0.2983 -1.7362
  414MOL0     H55825  10.601   1.163   5.299 -1.1947 -0.4247 -0.9990
  414MOL0     H55826  10.646   1.211   5.464  0.6004 -1.3009  0.5982
  414MOL0     H55827  10.875   1.102   5.424 -1.0472 -0.1323  0.9218
  414MOL0     H55828  10.842   1.263   5.350 -1.6028  1.2723  0.1864
  414MOL0     H55829  10.764   1.139   5.141 -2.2642 -2.4593  0.7114
  414MOL0     H55830  10.805   0.988   5.210 -0.9783  0.2880 -3.6532
  414MOL0     H55831  11.023   1.193   5.184 -0.7290  2.0309 -0.5264
  414MOL0     H55832  11.051   1.027   5.209  0.4061  1.4591 -0.6921
  414MOL0     H55833  10.941   0.968   4.990  2.5999 -2.0448  1.3212
  414MOL0     H55834  10.920   1.140   4.966 -0.0887  1.1689  1.1708
  414MOL0     H55835  11.161   1.170   4.960 -1.9939  0.8209  1.6320
  414MOL0     H55836  11.191   1.003   5.021  2.0231  0.0591 -2.0477
  414MOL0     H55837  11.084   1.114   4.761  1.4278  0.3016 -1.3252
  414MOL0     H55838  11.082   0.938   4.778 -1.5882  0.1577  0.5451
  414MOL0     H55839  11.329   1.103   4.782  0.4966 -1.1862  2.3619
  414MOL0     H55840  11.325   0.929   4.805  2.3823  3.0381  2.8578
  414MOL0     H55841  11.268   0.765   4.610  1.0338  0.3404 -2.8648
  414MOL0     H55842  11.220   0.677   4.358 -1.1154  0.4618  0.8805
  414MOL0     H55843  11.215   0.783   4.229 -0.3800 -2.9508 -0.7593
  414MOL0     H55844  11.474   0.811   4.241 -0.6954  0.3236  0.2991
  414MOL0     H55845  11.479   0.728   4.388 -2.1541 -0.7643  0.1598
  414MOL0     H55846  11.387   0.613   4.114  1.8085 -0.7057 -0.7754
  414MOL0     H55847  11.399   0.530   4.273  0.2412  1.7932  2.1572
  414MOL0     H55848  11.601   0.488   4.131 -1.1038  0.3521 -0.7547
  414MOL0     H55849  11.630   0.554   4.291 -3.3061 -0.7230  0.9635
  414MOL0     H55850  11.821   0.482   4.191  0.6515 -0.0523  0.9912
  414MOL0     H55851  12.059   0.477   4.132  0.7700 -0.8869  0.9112
  414MOL0     H55852  12.486   0.699   4.183  1.3019 -1.6753  1.2962
  414MOL0     H55853  12.720   0.663   4.122  1.7402 -3.2389  0.4018
  414MOL0     H55854  12.824   0.275   3.926 -1.8419  0.9557 -0.7957
  414MOL0     H55855  12.868   0.397   3.807 -1.0701 -1.1942 -0.3205
  414MOL0     H55856  13.077   0.299   3.860  0.3095  1.3277 -0.1091
  414MOL0     H55857  13.080   0.446   3.956  0.2813  0.0642  0.0441
  414MOL0     H55858  12.991   0.298   4.141 -1.4002  2.5142 -0.5652
  414MOL0     H55859  12.980   0.163   4.026 -0.7064  1.3605 -1.0258
  414MOL0     H55860  13.245   0.178   4.005  1.9534 -1.3992  3.4931
  414MOL0     H55861  13.177   0.141   4.167 -0.1978 -0.9376 -1.0945
  414MOL0     H55862  13.211   0.391   4.208  2.1927  0.5486  2.3579
  414MOL0     H55863  13.314   0.383   4.059  0.2871  2.6886  1.5597
  414MOL0     H55864  13.373   0.221   4.317  3.2980  1.1777  1.3959
  414MOL0     H55865  13.450   0.208   4.164 -0.8097  0.0071  0.0493
  414MOL0     H55866  13.427   0.488   4.273  1.7004  1.2799  0.4534
  414MOL0     H55867  13.568   0.412   4.203 -0.3274 -0.5117 -1.9193
  414MOL0     H55868  13.574   0.264   4.419  1.8931  0.2931 -0.2946
  414MOL0     H55869  13.635   0.423   4.418  0.1005  0.3197  2.3298
  414MOL0     H55870  12.611   0.333   3.870 -1.4463  2.2101 -2.9280
  414MOL0     H55871  12.378   0.395   3.895 -0.0342  1.0798 -1.1362
  414MOL0     H55872  12.043   0.898   4.041  0.4088 -0.3343 -1.4062
  414MOL0     H55873  11.810   0.891   4.042  1.6376 -0.1068 -1.8925
  414MOL0     H55874  10.393   1.115   5.358  1.6126 -1.6489 -3.2683
  414MOL0     H55875  10.182   0.979   5.401 -2.7114 -3.3698  2.7293
  414MOL0     H55876   9.921   0.689   5.406  3.1127 -0.9679 -0.3570
  414MOL0     H55877   9.718   0.598   5.423 -1.3305 -0.6178  0.5298
  414MOL0     H55878   9.551   0.438   5.428 -3.0092 -0.9520 -0.9731
  414MOL0     H55879   9.520   0.589   5.515  1.0316  0.1554 -0.3354
  414MOL0     H55880   9.355   0.366   5.475  3.7913 -1.1228  0.2689
  414MOL0     H55881   9.312   0.504   5.595 -0.4271 -0.3587  0.7387
  414MOL0     H55882   9.399   0.365   5.764  2.0940 -3.0174  0.8956
  414MOL0     H55883   9.449   0.242   5.657  4.4530  2.6996  0.5776
  414MOL0     H55884   9.183   0.250   5.577 -3.1500 -2.7343  1.9846
  414MOL0     H55885   9.219   0.165   5.714 -3.4136  0.5899 -0.4316
  414MOL0     H55886   9.014   0.472   5.885  0.3846 -0.2890 -0.1547
  414MOL0     H55887   9.793   0.440   5.813 -3.2393  2.5622 -0.4270
  414MOL0     H55888  10.023   0.433   5.891 -0.8131  0.3762  0.2767
  414MOL0     H55889  10.149   0.506   5.801  0.5665  1.3233 -0.3146
  414MOL0     H55890  10.044   0.609   5.909  1.6615 -0.8446  1.0876
  415MOL0     O55891   8.295   6.771  10.365  0.0781  0.7254 -0.0561
  415MOL0     C55892   8.308   6.660  10.316  0.3235 -0.6863  0.6015
  415MOL0     O55893   8.425   6.604  10.269  0.4155  1.0518 -0.0987
  415MOL0     C55894   8.554   6.655  10.299  1.4558 -0.0008  0.3170
  415MOL0     C55895   8.600   6.777  10.357 -0.4485 -0.2403 -0.8407
  415MOL0     C55896   8.739   6.798  10.368 -0.1663 -0.2857  0.1109
  415MOL0     C55897   8.835   6.707  10.315 -0.4569  0.6943 -0.8541
  415MOL0     O55898   8.971   6.738  10.320  0.6165 -0.0332 -0.5284
  415MOL0     C55899   9.024   6.873  10.322 -0.7015 -0.6605  0.9987
  415MOL0     C55900   9.175   6.873  10.289 -0.4587  0.3323  0.1217
  415MOL0     C55901   9.260   6.795  10.401  1.0083 -0.8549 -1.1997
  415MOL0     C55902   9.408   6.772  10.355  0.6358  0.1961  0.3050
  415MOL0     C55903   9.500   6.876  10.410  0.8762 -0.6007 -0.1502
  415MOL0     C55904   9.649   6.858  10.368 -0.1297 -0.8063  0.4950
  415MOL0     C55905   9.742   6.985  10.384  0.9489 -0.4179 -0.4895
  415MOL0     C55906   9.872   6.958  10.311 -0.6233  0.0239  0.1073
  415MOL0     N55907   9.971   7.072  10.328 -0.1752  0.1878  0.9590
  415MOL0     C55908   9.965   7.174  10.250  0.3719 -0.5392  0.1426
  415MOL0     C55909  10.055   7.259  10.293 -0.8445  0.1635 -0.3019
  415MOL0     C55910  10.080   7.399  10.243 -0.5493  0.3250  0.0200
  415MOL0     C55911  10.235   7.422  10.221 -0.2623  0.2655 -0.4613
  415MOL0     C55912  10.264   7.561  10.181  0.2453 -0.4303 -0.5820
  415MOL0     C55913  10.270   7.660  10.301 -0.0691 -0.2382  0.4781
  415MOL0     O55914  10.367   7.634  10.398 -0.4690 -0.2946 -0.8663
  415MOL0     C55915  10.503   7.641  10.372  0.2851  1.0270 -1.1500
  415MOL0     C55916  10.557   7.702  10.250 -0.0011  0.4461  0.0508
  415MOL0     C55917  10.695   7.729  10.236 -0.5011  0.8543  0.1599
  415MOL0     C55918  10.781   7.680  10.342  0.1361  0.6079 -0.3852
  415MOL0     C55919  10.933   7.686  10.319  0.0719  0.3666  0.8843
  415MOL0     O55920  11.016   7.592  10.373  0.3992  0.7853  0.2962
  415MOL0     C55921  11.131   7.575  10.297 -0.4573 -0.1652 -1.4650
  415MOL0     C55922  11.233   7.672  10.311  0.1079 -0.6535 -0.3778
  415MOL0     C55923  11.339   7.663  10.230  0.7581  0.1630  0.6432
  415MOL0     C55924  11.350   7.567  10.125 -1.5921 -0.8554 -0.1112
  415MOL0     O55925  11.441   7.560  10.020 -0.6604  0.7241 -0.0476
  415MOL0     C55926  11.549   7.650  10.024 -0.7015  0.3758 -0.1991
  415MOL0     C55927  11.675   7.605   9.941 -0.2468  0.0044 -0.0627
  415MOL0     C55928  11.749   7.480   9.988 -0.7242  0.1884 -0.3795
  415MOL0     C55929  11.800   7.488  10.138 -0.3241 -0.0318  0.7522
  415MOL0     C55930  11.736   7.383  10.224 -0.1507 -0.1630 -0.2428
  415MOL0     C55931  11.829   7.367  10.341  0.0093 -0.8355 -0.4048
  415MOL0     C55932  11.863   7.498  10.437  0.1676  0.1439 -0.3425
  415MOL0     C55933  12.008   7.526  10.453  0.2639 -0.2986  0.2602
  415MOL0    Cl55934  12.100   7.534  10.297  0.0874 -0.2316  0.3159
  415MOL0     C55935  11.257   7.465  10.126 -0.4500  0.4520  0.7795
  415MOL0     C55936  11.147   7.467  10.216 -0.2396 -0.2894 -0.3242
  415MOL0     O55937  10.978   7.785  10.255 -0.4050 -0.0028 -0.9397
  415MOL0     C55938  10.728   7.609  10.455  0.3431 -0.0248  0.3229
  415MOL0     C55939  10.594   7.602  10.475  0.6926 -0.3337  0.7484
  415MOL0     N55940  10.129   7.198  10.396 -0.0211  0.2752  0.9695
  415MOL0     N55941  10.063   7.089  10.421 -1.1349 -0.6315  0.4668
  415MOL0     C55942   8.786   6.590  10.251  1.3690  0.2583  0.3559
  415MOL0     C55943   8.644   6.569  10.233  0.0500 -0.2054 -0.6304
  415MOL0     C55944   8.185   6.570  10.319  0.1645  0.1454  0.1980
  415MOL0     C55945   8.207   6.436  10.295 -0.0862 -0.2904  0.1885
  415MOL0     C55946   8.101   6.349  10.331 -0.0583  0.9433 -0.5953
  415MOL0     C55947   7.974   6.379  10.366 -0.8482 -0.9967  0.5600
  415MOL0     O55948   7.898   6.274  10.400  0.2401  0.6966 -0.0671
  415MOL0     C55949   7.762   6.293  10.349 -0.3432 -0.0217  0.3014
  415MOL0     C55950   7.667   6.325  10.463 -0.3147  0.3016  0.0945
  415MOL0     C55951   7.526   6.372  10.421  0.7874  0.6010 -0.5006
  415MOL0     C55952   7.449   6.255  10.359  0.7262 -0.0283  0.0926
  415MOL0     C55953   7.309   6.295  10.334 -0.6304 -0.2373  0.2385
  415MOL0     C55954   7.199   6.338  10.304  0.2433 -0.5528  0.0040
  415MOL0     C55955   7.952   6.520  10.381 -0.8284 -0.0852 -0.8770
  415MOL0     C55956   8.058   6.615  10.356  0.4663  0.6086 -0.3992
  415MOL0     C55957   8.021   6.754  10.377 -0.0972 -0.3835 -0.1803
  415MOL0     H55958   8.533   6.846  10.408  0.4343 -1.9457  2.9558
  415MOL0     H55959   8.776   6.888  10.415 -0.2554 -0.5367  0.6687
  415MOL0     H55960   8.982   6.924  10.235  0.5218 -2.7806 -0.9345
  415MOL0     H55961   9.009   6.929  10.415  3.8866 -0.9674  2.1827
  415MOL0     H55962   9.211   6.974  10.269 -1.4984  0.6888  0.0213
  415MOL0     H55963   9.192   6.812  10.200  0.1674  0.1690  0.3415
  415MOL0     H55964   9.220   6.696  10.421  1.0906 -0.5595  0.6287
  415MOL0     H55965   9.255   6.852  10.494  0.1260 -3.9782  0.8134
  415MOL0     H55966   9.442   6.682  10.407  0.1129 -0.5752 -0.6458
  415MOL0     H55967   9.424   6.762  10.247  0.8295  1.0985  0.2435
  415MOL0     H55968   9.456   6.974  10.388 -1.6784 -1.2432  1.6815
  415MOL0     H55969   9.503   6.862  10.518  2.9858 -1.1172 -0.2498
  415MOL0     H55970   9.682   6.776  10.432  0.1811 -1.0199  0.0648
  415MOL0     H55971   9.646   6.831  10.263  0.0670  1.3831 -0.1320
  415MOL0     H55972   9.780   7.006  10.485  1.3645 -3.8954  0.2257
  415MOL0     H55973   9.673   7.064  10.356 -1.9778 -1.8968  1.9981
  415MOL0     H55974   9.920   6.867  10.349  2.9326  0.2653 -3.1332
  415MOL0     H55975   9.857   6.935  10.205  1.0377 -1.4172  0.1295
  415MOL0     H55976   9.902   7.191  10.163 -0.5843 -6.3029 -0.6871
  415MOL0     H55977  10.037   7.402  10.142 -2.1775 -2.1048  0.5621
  415MOL0     H55978  10.028   7.476  10.301  0.5208 -0.5819  2.2989
  415MOL0     H55979  10.286   7.380  10.308 -0.3577  1.5250  0.2216
  415MOL0     H55980  10.269   7.363  10.135 -0.7316 -0.8493  0.0943
  415MOL0     H55981  10.188   7.596  10.109 -0.7035 -1.9496 -0.3628
  415MOL0     H55982  10.365   7.559  10.139 -0.0087  0.8526 -1.3291
  415MOL0     H55983  10.170   7.652  10.347  1.0836  0.0429  3.2709
  415MOL0     H55984  10.267   7.764  10.268 -1.4633 -0.7570 -1.1740
  415MOL0     H55985  10.488   7.725  10.169  2.1438  1.3281 -1.5990
  415MOL0     H55986  10.729   7.780  10.146  2.8239 -2.9270 -1.0017
  415MOL0     H55987  11.226   7.741  10.395 -0.0323 -1.7481  0.5385
  415MOL0     H55988  11.417   7.738  10.243  1.4377 -0.3305 -0.4561
  415MOL0     H55989  11.529   7.754   9.997  1.8181  0.7953 -0.7788
  415MOL0     H55990  11.576   7.641  10.130  0.7503 -1.4302 -0.6643
  415MOL0     H55991  11.644   7.608   9.836  2.3352  3.2555 -0.9033
  415MOL0     H55992  11.753   7.681   9.946  0.2239 -0.5139  0.8870
  415MOL0     H55993  11.680   7.397   9.972  0.2623 -0.4634 -1.3371
  415MOL0     H55994  11.834   7.465   9.921  1.2427 -0.0886  2.0017
  415MOL0     H55995  11.778   7.588  10.177  0.2131  0.9367 -1.3035
  415MOL0     H55996  11.908   7.471  10.133 -0.3149  0.4059 -2.6562
  415MOL0     H55997  11.720   7.289  10.170  4.2576  0.1331 -2.4814
  415MOL0     H55998  11.636   7.424  10.240 -0.0681  0.8146 -2.0667
  415MOL0     H55999  11.781   7.291  10.404  1.5401 -1.7193 -0.2689
  415MOL0     H56000  11.922   7.322  10.305 -0.6473 -4.7317  2.0866
  415MOL0     H56001  11.808   7.494  10.531  0.0226 -1.6881 -0.4652
  415MOL0     H56002  11.832   7.590  10.387  0.6895  0.5040 -0.0109
  415MOL0     H56003  12.029   7.619  10.506 -1.4172 -1.1168  2.5218
  415MOL0     H56004  12.058   7.446  10.509  0.4467  0.8232  1.7468
  415MOL0     H56005  11.263   7.392  10.045 -1.8684  1.6314 -0.4412
  415MOL0     H56006  11.075   7.386  10.217 -1.1441  0.5008  0.5616
  415MOL0     H56007  10.799   7.563  10.524 -1.1390 -2.3119  0.4194
  415MOL0     H56008  10.543   7.566  10.564 -1.5193  0.6420 -0.0429
  415MOL0     H56009   8.849   6.509  10.217 -0.8701 -0.4229 -2.6056
  415MOL0     H56010   8.615   6.481  10.176  0.3853 -2.3684  2.2954
  415MOL0     H56011   8.304   6.393  10.273 -1.3407 -3.5305  0.4416
  415MOL0     H56012   8.122   6.244  10.317 -0.4569  1.1565 -3.3305
  415MOL0     H56013   7.738   6.195  10.308  3.5738 -0.1566 -2.1913
  415MOL0     H56014   7.751   6.370  10.271 -2.2265 -0.0556  0.4836
  415MOL0     H56015   7.707   6.407  10.524  3.0316 -0.3573 -0.9952
  415MOL0     H56016   7.662   6.239  10.531  1.4568  2.4797  3.2299
  415MOL0     H56017   7.534   6.456  10.352  0.4380  1.2318  0.2133
  415MOL0     H56018   7.468   6.415  10.503 -0.0488  0.6619 -1.1139
  415MOL0     H56019   7.487   6.221  10.262  1.4764  1.1180 -0.0323
  415MOL0     H56020   7.442   6.179  10.437 -0.9665  1.7425  1.7553
  415MOL0     H56021   7.114   6.397  10.277  2.2262  2.8213  0.5718
  415MOL0     H56022   7.857   6.560  10.413  0.6478  1.7443  1.5204
  415MOL0     H56023   8.042   6.813  10.287  2.4430 -0.3509  0.3523
  415MOL0     H56024   7.916   6.760  10.408 -0.5281 -2.5488 -1.0340
  415MOL0     H56025   8.078   6.793  10.462 -1.9925  4.1704 -0.7040
  416MOL0     O56026   3.747   1.096   0.730 -0.7349  0.5390 -0.4458
  416MOL0     C56027   3.770   1.149   0.621  0.1614 -0.8936  0.4203
  416MOL0     O56028   3.824   1.087   0.515  0.0625  0.0566 -0.0539
  416MOL0     C56029   3.890   0.965   0.532  0.2404 -0.4894 -0.2051
  416MOL0     C56030   3.879   0.868   0.431 -0.1653 -0.1509  1.1488
  416MOL0     C56031   3.939   0.737   0.426 -0.3766 -0.7986 -0.3060
  416MOL0     C56032   4.014   0.694   0.537  0.4035  0.1235 -0.8487
  416MOL0     O56033   4.079   0.582   0.537 -0.2570  0.1994  0.2431
  416MOL0     C56034   4.027   0.498   0.643  0.2846  0.9767 -0.0733
  416MOL0     C56035   4.068   0.348   0.624  0.1437  0.4566  0.3841
  416MOL0     C56036   4.216   0.321   0.636  1.0618  0.7446  0.2264
  416MOL0     C56037   4.298   0.324   0.503 -0.0855  0.7402 -0.0414
  416MOL0     C56038   4.461   0.331   0.512  0.0275  0.2171 -0.5662
  416MOL0     C56039   4.532   0.326   0.371  0.6160 -0.6312 -0.0863
  416MOL0     C56040   4.684   0.346   0.366  0.2410  0.0714  0.4684
  416MOL0     C56041   4.757   0.319   0.231  1.6240  0.4987  0.2073
  416MOL0     N56042   4.891   0.256   0.256  0.2540 -0.2423  0.0060
  416MOL0     C56043   4.937   0.151   0.180 -0.2801  1.2763  0.0429
  416MOL0     C56044   5.069   0.150   0.218 -0.0583 -0.9315 -0.2794
  416MOL0     C56045   5.172   0.073   0.146  1.0357  0.2500  0.3565
  416MOL0     C56046   5.211   0.124   0.004  0.2677  0.2756 -0.2824
  416MOL0     C56047   5.236   0.273   0.013 -0.7075 -0.3465 -0.4611
  416MOL0     C56048   5.307   0.328  -0.107 -0.1889 -0.4551  0.2254
  416MOL0     O56049   5.433   0.261  -0.121  0.3483 -0.4634 -0.3613
  416MOL0     C56050   5.541   0.348  -0.121  0.2261 -0.0343 -0.2358
  416MOL0     C56051   5.613   0.380  -0.012 -0.9758  0.2647 -0.2830
  416MOL0     C56052   5.723   0.466  -0.025 -0.3673  0.2035 -0.1405
  416MOL0     C56053   5.755   0.529  -0.147  0.0491  0.8607 -0.1976
  416MOL0     C56054   5.872   0.625  -0.157  0.6429  0.3685  0.0725
  416MOL0     O56055   5.942   0.650  -0.041 -0.8735  0.0277 -0.0734
  416MOL0     C56056   6.073   0.710  -0.032  0.1452  0.5530 -0.5637
  416MOL0     C56057   6.107   0.753   0.097 -0.9196  0.1683 -0.3770
  416MOL0     C56058   6.235   0.808   0.135  0.2793  0.4721  0.4488
  416MOL0     C56059   6.333   0.795   0.033  1.1669 -0.7513 -0.9124
  416MOL0     O56060   6.464   0.845   0.043  0.1203  0.4629 -0.0243
  416MOL0     C56061   6.501   0.916   0.159 -0.0293 -0.2919 -0.5515
  416MOL0     C56062   6.648   0.961   0.157  0.4976  0.3016  0.1225
  416MOL0     C56063   6.736   0.832   0.145  0.5203  0.3046 -0.3232
  416MOL0     C56064   6.890   0.853   0.152 -0.2437 -0.2928  0.7337
  416MOL0     C56065   6.946   0.727   0.216  0.8775  0.2084 -0.3665
  416MOL0     C56066   7.092   0.726   0.216 -0.0749 -0.8159  0.2881
  416MOL0     C56067   7.149   0.643   0.340  0.6559 -0.8141  1.1119
  416MOL0     C56068   7.291   0.600   0.329 -0.3065 -0.0184 -0.4472
  416MOL0    Cl56069   7.330   0.445   0.402  0.0288  0.3341  0.2553
  416MOL0     C56070   6.298   0.760  -0.097 -0.8657  0.0883 -0.5493
  416MOL0     C56071   6.170   0.719  -0.128 -0.7768  0.0953  0.2081
  416MOL0     O56072   5.902   0.680  -0.269  0.2056  0.3268 -0.3549
  416MOL0     C56073   5.675   0.493  -0.262 -0.4940  0.5506  0.4704
  416MOL0     C56074   5.575   0.400  -0.248  0.3462 -0.4479 -0.5024
  416MOL0     N56075   5.102   0.232   0.320 -0.4550 -0.4176 -0.3195
  416MOL0     N56076   4.991   0.295   0.345 -0.0325 -0.2329 -0.0205
  416MOL0     C56077   4.027   0.790   0.640 -0.1088  1.2820  0.0400
  416MOL0     C56078   3.966   0.919   0.639 -0.2535 -0.3015 -0.0080
  416MOL0     C56079   3.723   1.285   0.606  0.4530 -0.1468  0.3983
  416MOL0     C56080   3.789   1.360   0.509  0.3591  0.4508  0.0438
  416MOL0     C56081   3.758   1.487   0.488 -0.1177 -0.1153  0.0708
  416MOL0     C56082   3.655   1.552   0.552 -0.0769 -0.0909  0.0217
  416MOL0     O56083   3.644   1.687   0.521  0.1794  0.5920  0.3109
  416MOL0     C56084   3.522   1.750   0.525  0.6948 -1.0714  0.7315
  416MOL0     C56085   3.437   1.718   0.398  0.0647 -0.5789 -0.0076
  416MOL0     C56086   3.379   1.577   0.396  0.2281  0.4213 -0.3171
  416MOL0     C56087   3.256   1.569   0.292 -0.5292  0.2711  0.4569
  416MOL0     C56088   3.169   1.451   0.306  0.9731  0.0528  0.0927
  416MOL0     C56089   3.098   1.351   0.295 -0.3222  0.1205 -0.3389
  416MOL0     C56090   3.599   1.487   0.660 -0.7162  0.5825  0.7993
  416MOL0     C56091   3.626   1.356   0.689  0.4326  0.2696 -0.1476
  416MOL0     C56092   3.552   1.288   0.801  0.3223 -0.5012  0.4512
  416MOL0     H56093   3.809   0.896   0.353 -0.5074 -1.0359  1.1158
  416MOL0     H56094   3.935   0.671   0.340  0.6085  0.0799 -1.0479
  416MOL0     H56095   4.074   0.527   0.738  3.3799  1.8062 -1.7282
  416MOL0     H56096   3.918   0.495   0.651  0.2754 -1.6463 -0.1282
  416MOL0     H56097   4.029   0.314   0.528 -1.8503  1.7488  0.6827
  416MOL0     H56098   4.021   0.288   0.703  0.1643 -2.0263 -1.3832
  416MOL0     H56099   4.221   0.217   0.671  2.1009  0.9437  0.7170
  416MOL0     H56100   4.273   0.382   0.707  4.1056 -1.7833  0.1826
  416MOL0     H56101   4.271   0.249   0.427  3.6130 -3.0422  1.9595
  416MOL0     H56102   4.264   0.412   0.447 -1.0984  0.8826  0.7690
  416MOL0     H56103   4.488   0.420   0.569  1.5053 -0.8680  0.5133
  416MOL0     H56104   4.504   0.242   0.559  0.5937  0.2305 -1.0421
  416MOL0     H56105   4.526   0.229   0.321  4.1113 -0.0961 -1.8123
  416MOL0     H56106   4.482   0.403   0.311 -1.2845 -0.1651  1.9516
  416MOL0     H56107   4.729   0.267   0.427 -2.1716 -2.2247 -0.5204
  416MOL0     H56108   4.714   0.444   0.404  2.9041 -0.0997 -0.9762
  416MOL0     H56109   4.702   0.244   0.174  0.4858 -0.8954  2.9363
  416MOL0     H56110   4.774   0.413   0.178  2.7518  0.0351 -0.2970
  416MOL0     H56111   4.898   0.100   0.092 -1.0673  3.0091 -0.6577
  416MOL0     H56112   5.268   0.080   0.197  0.5524 -0.0893  1.3366
  416MOL0     H56113   5.142  -0.032   0.137  0.6523  0.4844 -1.6416
  416MOL0     H56114   5.307   0.076  -0.020 -0.0894  0.0365 -1.2546
  416MOL0     H56115   5.141   0.105  -0.077  2.4568 -1.7093 -1.8493
  416MOL0     H56116   5.296   0.289   0.103 -0.0332  0.0554 -0.9730
  416MOL0     H56117   5.147   0.334   0.030 -0.4160  0.1631 -0.7358
  416MOL0     H56118   5.328   0.432  -0.084  2.5573 -0.8461 -0.1973
  416MOL0     H56119   5.256   0.313  -0.203  1.4686  2.9604 -1.3444
  416MOL0     H56120   5.586   0.350   0.089  3.9056 -1.2236  0.8374
  416MOL0     H56121   5.787   0.485   0.061  1.0551 -2.0571 -0.5994
  416MOL0     H56122   6.027   0.748   0.170 -0.0630 -2.5175  0.4899
  416MOL0     H56123   6.264   0.848   0.232 -0.3269  0.1728  0.7558
  416MOL0     H56124   6.438   1.005   0.170 -0.0374 -0.3156 -0.4152
  416MOL0     H56125   6.490   0.844   0.240 -0.2236 -2.0985 -2.1228
  416MOL0     H56126   6.665   1.030   0.073  1.0011  0.7351  0.5714
  416MOL0     H56127   6.673   1.013   0.250  3.0551 -3.4465  1.7570
  416MOL0     H56128   6.699   0.757   0.216 -3.1366  0.8299 -1.4915
  416MOL0     H56129   6.726   0.792   0.044 -0.4521 -1.6145  0.4712
  416MOL0     H56130   6.916   0.929   0.227 -1.2298 -1.5809  2.4642
  416MOL0     H56131   6.932   0.883   0.056  0.7856  2.0020  1.8177
  416MOL0     H56132   6.910   0.643   0.156 -1.2800 -0.2270  1.3989
  416MOL0     H56133   6.902   0.718   0.316 -2.0444 -0.8386 -1.6404
  416MOL0     H56134   7.133   0.672   0.130  0.7948 -0.8515  0.7207
  416MOL0     H56135   7.133   0.827   0.212 -1.2702 -0.3358 -1.2631
  416MOL0     H56136   7.091   0.552   0.352 -0.1068 -0.5182 -0.1729
  416MOL0     H56137   7.140   0.708   0.428 -0.4110  0.6586 -0.0349
  416MOL0     H56138   7.327   0.600   0.225  0.2360  2.2371 -0.3170
  416MOL0     H56139   7.358   0.673   0.374  0.7161 -1.4664  0.4670
  416MOL0     H56140   6.376   0.752  -0.172  2.3891  0.1363  2.5533
  416MOL0     H56141   6.145   0.670  -0.222 -3.1431 -0.2661  0.9611
  416MOL0     H56142   5.700   0.532  -0.360  1.8818 -3.5023 -0.7582
  416MOL0     H56143   5.511   0.361  -0.326 -0.0980 -2.2728  0.7268
  416MOL0     H56144   4.100   0.765   0.716 -0.5975 -1.2807 -0.2626
  416MOL0     H56145   3.968   0.984   0.726  0.3512 -0.8269  0.3850
  416MOL0     H56146   3.882   1.329   0.463 -0.8198 -0.0267 -2.1985
  416MOL0     H56147   3.809   1.546   0.413  2.4506  0.0313  1.8042
  416MOL0     H56148   3.545   1.857   0.521 -0.7179 -0.7824 -0.7760
  416MOL0     H56149   3.468   1.720   0.615  1.5131  0.1667  1.6682
  416MOL0     H56150   3.485   1.745   0.304  1.3567 -0.9172  0.5305
  416MOL0     H56151   3.352   1.787   0.407 -1.7252 -2.8551  2.3491
  416MOL0     H56152   3.354   1.560   0.501 -0.8346 -2.7456 -0.9994
  416MOL0     H56153   3.454   1.504   0.365 -2.1195 -1.8094 -1.1143
  416MOL0     H56154   3.205   1.666   0.292  4.4044  3.3765 -3.0617
  416MOL0     H56155   3.309   1.561   0.196 -2.7249 -1.8812 -0.6892
  416MOL0     H56156   3.046   1.260   0.272 -1.4013  0.8783 -0.9848
  416MOL0     H56157   3.524   1.543   0.714 -1.6514  0.0084  0.1361
  416MOL0     H56158   3.621   1.259   0.880 -0.2936 -0.3073  1.0672
  416MOL0     H56159   3.472   1.344   0.850 -0.6072 -1.1050 -0.3348
  416MOL0     H56160   3.511   1.195   0.759 -1.2948  0.4656 -0.2159
  417MOL0     O56161   5.277  10.497   4.068  0.4613 -0.2357 -0.5216
  417MOL0     C56162   5.253  10.468   4.182 -0.7055 -0.2460 -0.5107
  417MOL0     O56163   5.345  10.419   4.267 -0.8377  0.1243 -0.5480
  417MOL0     C56164   5.479  10.450   4.235 -0.3721 -0.0308  0.1653
  417MOL0     C56165   5.567  10.355   4.215  0.0041  0.5517  0.5197
  417MOL0     C56166   5.698  10.381   4.182  1.4245  0.5685 -0.4600
  417MOL0     C56167   5.745  10.508   4.179 -1.0049  0.3858  0.0465
  417MOL0     O56168   5.884  10.535   4.146 -0.5180 -0.5202 -0.1702
  417MOL0     C56169   5.986  10.429   4.132 -0.1035 -0.3285  0.6196
  417MOL0     C56170   6.122  10.481   4.098 -0.3891 -0.2715  0.2568
  417MOL0     C56171   6.232  10.373   4.061  1.3085 -0.3242  0.4815
  417MOL0     C56172   6.373  10.441   4.042  0.1270 -0.1246  0.0360
  417MOL0     C56173   6.472  10.340   3.996  0.6360  0.1456  0.6709
  417MOL0     C56174   6.606  10.410   3.954  0.8676  0.3356 -0.4324
  417MOL0     C56175   6.693  10.312   3.878 -0.0129  0.9936 -0.5255
  417MOL0     C56176   6.774  10.214   3.961  0.1097  0.2309 -0.6148
  417MOL0     N56177   6.862  10.258   4.067 -0.1511  0.5930  0.0217
  417MOL0     C56178   6.939  10.368   4.058 -0.6228 -0.0264 -0.3577
  417MOL0     C56179   7.013  10.372   4.168 -0.4785 -0.3136 -0.6429
  417MOL0     C56180   7.115  10.478   4.204  0.1671  0.4293  0.3072
  417MOL0     C56181   7.239  10.488   4.109 -1.1841 -0.1312 -0.2474
  417MOL0     C56182   7.324  10.618   4.128  0.5104  0.7850 -0.2601
  417MOL0     C56183   7.420  10.630   4.018  0.4624 -0.1601 -0.1193
  417MOL0     O56184   7.373  10.643   3.883  0.8102  0.2757 -0.3623
  417MOL0     C56185   7.459  10.701   3.793 -1.1440 -0.7997 -0.6350
  417MOL0     C56186   7.411  10.735   3.667 -0.1708 -0.5602 -0.1014
  417MOL0     C56187   7.496  10.781   3.565 -0.2913 -0.3431  0.1155
  417MOL0     C56188   7.632  10.803   3.586 -0.2797  0.3941 -0.0923
  417MOL0     C56189   7.711  10.857   3.484 -0.6788 -0.9295  0.1108
  417MOL0     O56190   7.829  10.916   3.539  0.1995  0.3182 -0.1741
  417MOL0     C56191   7.915  10.976   3.453  0.0438  0.1417 -0.0184
  417MOL0     C56192   8.051  10.935   3.458 -0.2769 -0.7046 -0.3323
  417MOL0     C56193   8.152  10.991   3.369  0.1568  0.8862  0.2212
  417MOL0     C56194   8.101  11.077   3.267  0.1219  0.1584  0.0132
  417MOL0     O56195   8.188  11.123   3.172 -0.0948 -0.4101  0.3788
  417MOL0     C56196   8.208  11.265   3.160 -0.7317 -0.0961 -0.4562
  417MOL0     C56197   8.355  11.287   3.132 -0.0660 -0.6299 -0.1189
  417MOL0     C56198   8.439  11.225   3.253  0.1789  0.2605  0.0341
  417MOL0     C56199   8.564  11.319   3.275  0.2949 -0.3914  1.0606
  417MOL0     C56200   8.674  11.239   3.340  0.4726  0.1194 -0.0148
  417MOL0     C56201   8.658  11.227   3.488 -0.9068 -0.7051 -0.8178
  417MOL0     C56202   8.795  11.182   3.539  0.1323 -0.6232  0.8847
  417MOL0     C56203   8.825  11.234   3.672 -0.1063  0.6342 -0.5456
  417MOL0    Cl56204   8.951  11.131   3.759  0.2878  0.2231  0.3506
  417MOL0     C56205   7.972  11.121   3.271 -0.5885  0.0557  0.4928
  417MOL0     C56206   7.874  11.063   3.353 -0.4329 -0.1962 -0.0523
  417MOL0     O56207   7.690  10.848   3.366 -0.1631 -0.0658  0.6974
  417MOL0     C56208   7.684  10.771   3.714  0.5491 -0.3193  1.1935
  417MOL0     C56209   7.600  10.718   3.817  0.9626  0.0842 -0.0867
  417MOL0     N56210   6.972  10.269   4.256  1.2387 -0.6520 -0.7191
  417MOL0     N56211   6.875  10.208   4.192  0.2126 -0.1760  0.3282
  417MOL0     C56212   5.654  10.611   4.206  0.9162  0.8414 -0.3071
  417MOL0     C56213   5.519  10.579   4.240 -0.3663 -0.2255  1.1121
  417MOL0     C56214   5.113  10.485   4.234 -0.0175  0.3074  0.3604
  417MOL0     C56215   5.046  10.588   4.167 -0.0833  0.5411 -0.6233
  417MOL0     C56216   4.917  10.618   4.221 -0.3386 -0.3228  0.4471
  417MOL0     C56217   4.843  10.541   4.311  0.0067  0.0738  0.2427
  417MOL0     O56218   4.708  10.569   4.327 -0.5670  0.2098 -0.5278
  417MOL0     C56219   4.643  10.509   4.440  0.3064 -0.5389 -0.6877
  417MOL0     C56220   4.505  10.562   4.450  0.4897  0.4660  1.1305
  417MOL0     C56221   4.496  10.704   4.499  0.0541  0.3854 -0.2775
  417MOL0     C56222   4.356  10.764   4.502 -0.5213  0.2833  0.3091
  417MOL0     C56223   4.351  10.912   4.513  1.1879  0.1073 -0.0861
  417MOL0     C56224   4.331  11.034   4.503 -0.6069  0.0409 -0.1223
  417MOL0     C56225   4.914  10.448   4.379 -0.7297 -0.4879  0.7664
  417MOL0     C56226   5.045  10.418   4.339  0.6409  0.5204  1.0442
  417MOL0     C56227   5.102  10.290   4.384  0.4161  0.2127  0.3865
  417MOL0     H56228   5.527  10.255   4.212 -3.9957  1.9694 -1.3137
  417MOL0     H56229   5.762  10.302   4.146  0.7779  0.4869 -1.4924
  417MOL0     H56230   5.988  10.376   4.227 -3.1359 -1.7655  0.0331
  417MOL0     H56231   5.951  10.359   4.055  1.2095  1.4546 -1.7172
  417MOL0     H56232   6.160  10.531   4.187 -0.6449  2.2506 -0.9730
  417MOL0     H56233   6.128  10.553   4.016 -1.0159 -0.8724 -0.3445
  417MOL0     H56234   6.202  10.316   3.973 -1.1904 -0.0577  1.0832
  417MOL0     H56235   6.249  10.298   4.138  1.2971 -0.2206  0.5867
  417MOL0     H56236   6.383  10.530   3.979  4.5008 -1.2730 -1.2895
  417MOL0     H56237   6.401  10.468   4.144 -1.0531  0.6295  0.1695
  417MOL0     H56238   6.485  10.263   4.073 -0.5156 -1.3036 -0.5310
  417MOL0     H56239   6.437  10.291   3.905 -1.1204  0.0709  1.3594
  417MOL0     H56240   6.580  10.486   3.881  2.7489 -0.4874 -2.0266
  417MOL0     H56241   6.651  10.462   4.039  1.7244  2.3713 -2.0570
  417MOL0     H56242   6.757  10.374   3.814  0.3023  0.8111 -0.3911
  417MOL0     H56243   6.628  10.253   3.811 -2.1648 -0.3688  2.5331
  417MOL0     H56244   6.705  10.140   4.002 -0.1934  1.5615  1.4051
  417MOL0     H56245   6.838  10.155   3.894  1.4656 -0.2032  0.9961
  417MOL0     H56246   6.947  10.437   3.975 -2.4367 -2.6897 -2.9164
  417MOL0     H56247   7.066  10.575   4.211 -0.5354  0.0652  0.5200
  417MOL0     H56248   7.157  10.456   4.303  2.1960  3.4446  0.2545
  417MOL0     H56249   7.307  10.411   4.147  1.6802  2.4697  0.2974
  417MOL0     H56250   7.217  10.467   4.004  0.2849 -0.5652 -0.4881
  417MOL0     H56251   7.376  10.616   4.224  0.4513 -1.2862 -0.2209
  417MOL0     H56252   7.256  10.704   4.135 -0.3923 -0.0259  1.4772
  417MOL0     H56253   7.491  10.549   4.033 -1.1241 -1.3202  1.5070
  417MOL0     H56254   7.480  10.718   4.045  0.2377 -0.1077  0.2166
  417MOL0     H56255   7.305  10.712   3.661 -0.3232 -0.7132  2.3132
  417MOL0     H56256   7.441  10.808   3.475 -1.2486 -2.7121 -0.0848
  417MOL0     H56257   8.078  10.872   3.542 -1.9891  0.3873  1.0883
  417MOL0     H56258   8.251  10.948   3.366  0.3819  1.4699 -1.0504
  417MOL0     H56259   8.132  11.293   3.086 -0.4856 -1.1455 -1.1368
  417MOL0     H56260   8.189  11.321   3.252 -2.1675  0.3610 -0.9896
  417MOL0     H56261   8.380  11.235   3.039 -0.9553  1.2271 -1.4493
  417MOL0     H56262   8.365  11.393   3.108 -2.6298 -0.9930 -3.5322
  417MOL0     H56263   8.391  11.220   3.351  1.7461  0.2898  0.8350
  417MOL0     H56264   8.480  11.127   3.225  0.4776  1.1398 -2.9887
  417MOL0     H56265   8.538  11.406   3.336  2.4849  2.9776 -2.3589
  417MOL0     H56266   8.608  11.362   3.185  0.7169  2.7588  2.6427
  417MOL0     H56267   8.770  11.289   3.324  0.7286 -0.4333 -0.2558
  417MOL0     H56268   8.690  11.136   3.305 -1.6227 -0.7482  1.3813
  417MOL0     H56269   8.630  11.320   3.540 -1.1794 -1.7534  1.0162
  417MOL0     H56270   8.589  11.149   3.522  0.2171 -2.2542 -1.9694
  417MOL0     H56271   8.878  11.222   3.480 -0.1336  1.3575  1.7445
  417MOL0     H56272   8.801  11.073   3.533  1.2800 -0.5829  1.0409
  417MOL0     H56273   8.862  11.337   3.670 -1.9693  1.3449 -1.5385
  417MOL0     H56274   8.735  11.245   3.733 -2.5698 -1.8329 -3.3875
  417MOL0     H56275   7.946  11.187   3.189 -1.6921 -2.3148 -1.1962
  417MOL0     H56276   7.774  11.106   3.349  0.1176  1.2107  0.6309
  417MOL0     H56277   7.789  10.772   3.742  0.8767  0.3592  0.0155
  417MOL0     H56278   7.644  10.683   3.910 -0.7448  1.1373  1.1662
  417MOL0     H56279   5.699  10.708   4.191  0.0844  0.9964 -1.9890
  417MOL0     H56280   5.453  10.665   4.248  2.4694  2.2791 -0.1278
  417MOL0     H56281   5.090  10.650   4.089  0.0385 -1.3271 -2.1234
  417MOL0     H56282   4.868  10.707   4.182  1.6810  0.3127 -0.7917
  417MOL0     H56283   4.693  10.531   4.535 -1.7258  1.7602 -0.0497
  417MOL0     H56284   4.652  10.401   4.432  2.7976 -0.3286 -1.6044
  417MOL0     H56285   4.440  10.509   4.521 -3.0306  1.0429 -1.3686
  417MOL0     H56286   4.447  10.546   4.359  0.2664  0.6251  1.2401
  417MOL0     H56287   4.565  10.765   4.440 -0.7497 -1.2582 -3.1172
  417MOL0     H56288   4.530  10.705   4.603  1.2906  0.6096 -0.6780
  417MOL0     H56289   4.317  10.744   4.401  3.4516 -0.2566 -1.3245
  417MOL0     H56290   4.296  10.718   4.580 -1.1672  2.4293  1.1462
  417MOL0     H56291   4.332  11.136   4.470  2.9631 -0.0212 -0.6411
  417MOL0     H56292   4.867  10.374   4.443 -0.2163 -2.4771 -1.0243
  417MOL0     H56293   5.199  10.297   4.433 -0.0790  0.5517  1.3274
  417MOL0     H56294   5.037  10.232   4.451  1.1908 -0.7460  0.3229
  417MOL0     H56295   5.124  10.225   4.298  2.8028  1.5167 -0.0650
  418MOL0     O56296   3.611   4.855   8.992  0.2743  0.3089  0.8058
  418MOL0     C56297   3.634   4.770   9.074 -0.2870  0.3919 -1.2595
  418MOL0     O56298   3.564   4.757   9.191  0.5352  0.2631 -0.4513
  418MOL0     C56299   3.469   4.847   9.243 -0.0030 -0.4869  0.2011
  418MOL0     C56300   3.405   4.799   9.352  0.6684  1.2982 -0.3307
  418MOL0     C56301   3.303   4.867   9.418  0.0768 -0.5893  0.0356
  418MOL0     C56302   3.251   4.986   9.359 -0.1097 -0.2249  0.5036
  418MOL0     O56303   3.161   5.053   9.434  0.0009  0.1228  0.0188
  418MOL0     C56304   3.055   5.097   9.355 -0.3860  0.2635 -0.9431
  418MOL0     C56305   2.921   5.119   9.442 -0.7051 -0.3199  0.1204
  418MOL0     C56306   2.826   5.001   9.435  0.7730 -0.1135 -0.5027
  418MOL0     C56307   2.690   5.020   9.518  0.7179  0.7864 -0.4849
  418MOL0     C56308   2.587   5.103   9.446 -0.0069 -0.1170 -1.2019
  418MOL0     C56309   2.457   5.105   9.540 -0.4590  0.4359 -0.5581
  418MOL0     C56310   2.335   5.165   9.481 -0.0320 -0.3496  0.2432
  418MOL0     C56311   2.221   5.062   9.465  0.6480  0.0923  0.0910
  418MOL0     N56312   2.238   4.972   9.346  0.3433  0.4188  1.1339
  418MOL0     C56313   2.323   4.865   9.350 -0.2139  0.9596  1.2918
  418MOL0     C56314   2.313   4.802   9.228 -0.6314  0.2542 -0.3620
  418MOL0     C56315   2.376   4.671   9.190  0.4292  0.1873  0.3346
  418MOL0     C56316   2.490   4.618   9.267  0.0699  0.9685 -0.4706
  418MOL0     C56317   2.611   4.712   9.269  0.6098  0.7836  1.0370
  418MOL0     C56318   2.647   4.759   9.132  0.8193 -0.1886 -0.0973
  418MOL0     O56319   2.670   4.649   9.053  0.2897  0.3694 -0.0447
  418MOL0     C56320   2.795   4.610   9.041 -0.2849 -0.4239 -0.2974
  418MOL0     C56321   2.801   4.514   8.945  0.1461  0.4445  0.1538
  418MOL0     C56322   2.924   4.450   8.909  0.3470  0.0366  0.0769
  418MOL0     C56323   3.038   4.492   8.983 -0.0139  0.1348  0.2929
  418MOL0     C56324   3.161   4.411   8.974  0.1723 -0.0460 -0.1032
  418MOL0     O56325   3.162   4.324   8.866  0.1364 -0.7724 -0.3186
  418MOL0     C56326   3.276   4.255   8.815 -0.2389 -0.5147  0.4860
  418MOL0     C56327   3.402   4.275   8.858 -1.1524 -1.0496  0.3174
  418MOL0     C56328   3.508   4.204   8.808 -0.4428 -0.0118  0.8744
  418MOL0     C56329   3.483   4.101   8.716 -1.1904 -0.0151 -0.6216
  418MOL0     O56330   3.594   4.025   8.674  0.8474  0.1761 -0.6597
  418MOL0     C56331   3.616   4.029   8.534  1.0604  0.3278  0.1460
  418MOL0     C56332   3.725   3.927   8.520 -0.0260 -0.1853 -0.1740
  418MOL0     C56333   3.851   3.977   8.598  0.4123 -0.3552  0.0395
  418MOL0     C56334   3.964   3.882   8.565  0.8968 -0.3715  0.4923
  418MOL0     C56335   4.096   3.928   8.625  0.3335 -0.4416  0.0509
  418MOL0     C56336   4.219   3.876   8.552 -0.0895  0.6306 -0.4043
  418MOL0     C56337   4.358   3.933   8.595  0.5930  0.0298 -0.1598
  418MOL0     C56338   4.404   3.902   8.733  0.0654  0.5670 -0.2679
  418MOL0    Cl56339   4.575   3.950   8.746 -0.1448 -0.0575  0.0024
  418MOL0     C56340   3.349   4.080   8.677 -1.0050  0.5125  0.0994
  418MOL0     C56341   3.251   4.158   8.726 -0.1555  0.4861  0.1921
  418MOL0     O56342   3.249   4.409   9.061  0.2957  0.0241 -0.2139
  418MOL0     C56343   3.034   4.590   9.085 -0.4925  0.1703 -0.7324
  418MOL0     C56344   2.912   4.651   9.101  0.9091 -1.2344  0.2539
  418MOL0     N56345   2.233   4.876   9.150 -0.2621 -0.2080  0.7695
  418MOL0     N56346   2.189   4.978   9.216 -0.2479 -1.2088  0.2501
  418MOL0     C56347   3.312   5.036   9.239 -0.0601  0.7992  0.5220
  418MOL0     C56348   3.430   4.973   9.182 -0.4327  0.1971 -0.0158
  418MOL0     C56349   3.725   4.661   9.028  0.5310 -1.0087  0.0269
  418MOL0     C56350   3.705   4.539   9.094 -0.0534 -0.3163 -0.2140
  418MOL0     C56351   3.785   4.432   9.075  0.2308  0.3331 -0.7572
  418MOL0     C56352   3.880   4.432   8.974  0.2356  0.3177 -0.4171
  418MOL0     O56353   3.939   4.322   8.925 -0.6505  0.0468  0.6287
  418MOL0     C56354   3.973   4.210   8.994  0.6279  0.0722  0.6522
  418MOL0     C56355   4.102   4.238   9.063 -0.2196 -0.0451  0.6138
  418MOL0     C56356   4.140   4.124   9.147  0.0903 -0.4100  0.1278
  418MOL0     C56357   4.283   4.147   9.196 -0.7739 -0.3615  0.1425
  418MOL0     C56358   4.380   4.142   9.083  0.4428 -1.1300  0.8787
  418MOL0     C56359   4.456   4.178   8.990  0.0068  0.6462 -0.5547
  418MOL0     C56360   3.887   4.546   8.892  0.1864 -0.0213  0.9072
  418MOL0     C56361   3.818   4.661   8.919 -0.5696  0.3789  0.3506
  418MOL0     C56362   3.857   4.783   8.836 -0.5755  0.0398 -0.0977
  418MOL0     H56363   3.425   4.708   9.407 -1.0968  1.7682  1.1778
  418MOL0     H56364   3.249   4.826   9.502 -2.5442 -1.6007 -2.0232
  418MOL0     H56365   3.083   5.181   9.293 -0.6701  0.6454 -0.5639
  418MOL0     H56366   3.017   5.015   9.293 -4.0405  0.3283  0.8992
  418MOL0     H56367   2.879   5.212   9.404 -1.1542 -0.0478  1.2229
  418MOL0     H56368   2.950   5.138   9.546  4.5278 -1.6126 -0.7957
  418MOL0     H56369   2.885   4.918   9.475  1.3561  1.9453  3.3826
  418MOL0     H56370   2.796   4.983   9.331 -0.7661  3.7129 -0.8838
  418MOL0     H56371   2.641   4.926   9.542 -1.9124  1.5979 -2.2024
  418MOL0     H56372   2.719   5.077   9.607  1.7731  0.1544 -0.4044
  418MOL0     H56373   2.637   5.200   9.440 -0.1965  0.0631 -0.0211
  418MOL0     H56374   2.561   5.060   9.349 -1.3864 -0.0395 -0.8835
  418MOL0     H56375   2.429   5.003   9.568 -1.2292  0.4233 -1.3206
  418MOL0     H56376   2.488   5.144   9.638  1.5417 -2.8926  0.2741
  418MOL0     H56377   2.365   5.208   9.385 -2.3148  5.5124  1.7063
  418MOL0     H56378   2.303   5.252   9.539 -0.0151  0.1169 -0.4376
  418MOL0     H56379   2.188   5.010   9.555 -3.1890 -2.2145 -2.3933
  418MOL0     H56380   2.131   5.118   9.440  1.0512  0.4570 -0.5759
  418MOL0     H56381   2.386   4.820   9.426 -0.6189  0.8404  1.5615
  418MOL0     H56382   2.289   4.604   9.195  0.9698 -0.5211  0.4809
  418MOL0     H56383   2.397   4.684   9.084  0.1964 -0.5837  0.1820
  418MOL0     H56384   2.457   4.587   9.366 -0.2316  1.1487 -0.5145
  418MOL0     H56385   2.528   4.532   9.211  0.4374  1.6592 -1.3303
  418MOL0     H56386   2.693   4.643   9.296  0.9038  1.5053  2.0748
  418MOL0     H56387   2.602   4.788   9.347  1.8724  2.0759 -0.0275
  418MOL0     H56388   2.739   4.817   9.145 -0.2202  1.6387 -0.6429
  418MOL0     H56389   2.574   4.831   9.096 -0.1690 -0.9897  0.2647
  418MOL0     H56390   2.714   4.492   8.883  1.7464  1.9554 -2.8458
  418MOL0     H56391   2.934   4.379   8.827 -1.8941  3.4361 -3.5062
  418MOL0     H56392   3.431   4.356   8.924 -2.3345  1.8015 -2.4028
  418MOL0     H56393   3.609   4.237   8.832 -0.5568  1.0204  0.0057
  418MOL0     H56394   3.526   4.006   8.476 -0.0020  2.2807  0.9619
  418MOL0     H56395   3.661   4.123   8.500  0.9049  0.2356 -0.3341
  418MOL0     H56396   3.705   3.829   8.564  0.1526 -0.3900 -0.5493
  418MOL0     H56397   3.743   3.903   8.415  1.9030  1.2859 -0.2359
  418MOL0     H56398   3.887   4.078   8.576 -1.1753 -0.4617 -3.7638
  418MOL0     H56399   3.845   3.963   8.706  0.6283 -0.7306  0.0058
  418MOL0     H56400   3.972   3.861   8.458 -0.3152  0.3077  0.2535
  418MOL0     H56401   3.936   3.788   8.614  1.6046 -1.0080 -0.2989
  418MOL0     H56402   4.099   3.904   8.732 -0.0687  0.6818  0.3317
  418MOL0     H56403   4.114   4.036   8.624 -0.9025  0.2146  6.3583
  418MOL0     H56404   4.218   3.771   8.583  3.1038  0.6711  0.0953
  418MOL0     H56405   4.206   3.883   8.443 -2.6400  2.5238 -0.0909
  418MOL0     H56406   4.357   4.040   8.569  4.0240 -0.1262 -1.4231
  418MOL0     H56407   4.432   3.895   8.524  0.7752  0.1120 -0.0168
  418MOL0     H56408   4.338   3.951   8.805  1.5909  0.1246  1.4937
  418MOL0     H56409   4.406   3.795   8.757 -0.2112  0.3188 -1.2830
  418MOL0     H56410   3.337   3.991   8.615  0.3869  0.0091  0.5111
  418MOL0     H56411   3.146   4.144   8.702 -0.0867  0.2580  0.0193
  418MOL0     H56412   3.120   4.626   9.140 -0.0503  0.2462 -1.4601
  418MOL0     H56413   2.921   4.724   9.181  1.3152 -0.6216 -0.3377
  418MOL0     H56414   3.283   5.130   9.193 -0.6169 -0.2956 -1.4924
  418MOL0     H56415   3.467   5.007   9.086 -0.8983 -1.3060 -0.7564
  418MOL0     H56416   3.628   4.531   9.170 -1.2741 -1.4948 -1.5008
  418MOL0     H56417   3.753   4.339   9.121 -2.1878  1.7122  0.5458
  418MOL0     H56418   3.991   4.134   8.918 -0.6283 -0.4271  0.8440
  418MOL0     H56419   3.892   4.177   9.058  0.6240 -1.8047 -0.2592
  418MOL0     H56420   4.085   4.334   9.112  0.3424  1.6753 -2.3595
  418MOL0     H56421   4.177   4.249   8.984 -0.6888 -0.2800  0.1275
  418MOL0     H56422   4.114   4.027   9.103 -4.8111  1.5617 -2.0830
  418MOL0     H56423   4.080   4.123   9.238  1.2510  2.1045  0.9999
  418MOL0     H56424   4.288   4.247   9.240  2.3118 -0.7355  0.8730
  418MOL0     H56425   4.316   4.068   9.263  0.9119  1.1973  1.2215
  418MOL0     H56426   4.531   4.217   8.924  2.0369 -0.0570  1.2024
  418MOL0     H56427   3.941   4.547   8.798 -1.2257  2.3419  0.0182
  418MOL0     H56428   3.845   4.880   8.885 -1.4648 -0.2958  0.3756
  418MOL0     H56429   3.963   4.776   8.811 -0.0903 -0.0528  1.8346
  418MOL0     H56430   3.807   4.785   8.739  3.9023 -0.4746 -2.6704
  419MOL0     O56431   8.793   4.649  11.125 -0.5089 -0.1556 -0.4796
  419MOL0     C56432   8.709   4.640  11.040 -0.6135 -0.2233  0.2502
  419MOL0     O56433   8.733   4.654  10.909 -1.0419  0.3755  0.3292
  419MOL0     C56434   8.861   4.626  10.865  0.0460 -0.1759  0.0895
  419MOL0     C56435   8.946   4.527  10.922 -0.4719  0.7839 -0.0415
  419MOL0     C56436   9.079   4.522  10.874 -0.5631  0.9129  0.0115
  419MOL0     C56437   9.121   4.613  10.773 -0.5052  1.0273 -0.0287
  419MOL0     O56438   9.244   4.596  10.714 -0.0168 -0.1021 -0.4565
  419MOL0     C56439   9.328   4.710  10.694 -0.4316  0.2065 -0.1747
  419MOL0     C56440   9.342   4.754  10.552 -0.1443 -0.4422  0.8901
  419MOL0     C56441   9.411   4.651  10.464 -0.0262 -0.3485  0.4046
  419MOL0     C56442   9.563   4.664  10.472 -0.1946 -0.3224  0.1983
  419MOL0     C56443   9.645   4.553  10.400  0.1090 -0.0392 -0.6018
  419MOL0     C56444   9.795   4.571  10.408 -0.2059  0.3339 -0.1999
  419MOL0     C56445   9.867   4.446  10.368  0.0880 -0.0720 -0.5066
  419MOL0     C56446   9.827   4.401  10.225 -0.7917  0.6611 -0.2798
  419MOL0     N56447   9.889   4.274  10.181 -0.0051  0.2560  0.5433
  419MOL0     C56448   9.846   4.152  10.223 -0.3012  0.3758  0.1598
  419MOL0     C56449   9.949   4.073  10.192  0.1592  0.4248  0.3986
  419MOL0     C56450   9.945   3.923  10.212  0.5119 -0.4618 -0.5267
  419MOL0     C56451  10.085   3.857  10.216 -0.1109  0.2016 -0.4664
  419MOL0     C56452  10.084   3.710  10.280  0.2962 -0.1167 -0.4192
  419MOL0     C56453   9.975   3.615  10.229  1.3199  0.1671 -0.3068
  419MOL0     O56454   9.851   3.639  10.299  0.0297 -0.1981  0.1399
  419MOL0     C56455   9.800   3.547  10.384 -0.7519  0.4627  0.2828
  419MOL0     C56456   9.737   3.597  10.501 -0.3647  0.4633 -0.3556
  419MOL0     C56457   9.678   3.505  10.597 -0.4392 -0.6908 -0.4468
  419MOL0     C56458   9.703   3.367  10.586 -0.1006 -0.4220  0.0439
  419MOL0     C56459   9.646   3.272  10.688  0.4478  0.0109 -0.4020
  419MOL0     O56460   9.575   3.319  10.796 -0.0688  0.0658  0.0805
  419MOL0     C56461   9.535   3.227  10.885  0.1223  0.4645  0.4112
  419MOL0     C56462   9.616   3.217  11.003  0.5029 -0.2624  0.3881
  419MOL0     C56463   9.589   3.115  11.101  0.0940  0.8761 -0.0044
  419MOL0     C56464   9.482   3.023  11.081  0.8515  0.3917 -0.1543
  419MOL0     O56465   9.446   2.936  11.181  0.0329 -0.0412  0.0495
  419MOL0     C56466   9.405   2.799  11.144  0.3299 -0.9337 -0.0268
  419MOL0     C56467   9.516   2.703  11.201 -0.8525 -0.5307 -0.0852
  419MOL0     C56468   9.658   2.711  11.135 -0.1244 -0.8502 -0.9299
  419MOL0     C56469   9.732   2.580  11.173 -0.6626 -0.0455  0.2624
  419MOL0     C56470   9.869   2.579  11.121  0.3986 -0.8422  0.4881
  419MOL0     C56471   9.948   2.452  11.128  0.4830 -0.5989  0.0737
  419MOL0     C56472  10.089   2.459  11.079 -0.1544  0.1687  0.5414
  419MOL0     C56473  10.116   2.523  10.948 -0.3258 -0.2059 -0.0016
  419MOL0    Cl56474  10.196   2.687  10.971  0.0643  0.1633 -0.2780
  419MOL0     C56475   9.403   3.042  10.961  0.3406  0.5566  0.1458
  419MOL0     C56476   9.430   3.139  10.861 -0.3862 -0.5854  0.8600
  419MOL0     O56477   9.668   3.150  10.672  0.5697  0.0284 -0.3954
  419MOL0     C56478   9.780   3.318  10.477 -0.4195 -0.1178 -1.1300
  419MOL0     C56479   9.823   3.403  10.378  0.2587  0.6900 -0.4464
  419MOL0     N56480  10.055   4.146  10.144 -0.1297 -1.0112  0.0680
  419MOL0     N56481  10.022   4.265  10.140  0.3973 -0.6369 -0.2624
  419MOL0     C56482   9.037   4.714  10.726 -0.9205  0.4708  0.5372
  419MOL0     C56483   8.906   4.718  10.771 -0.0551  0.3334  0.7407
  419MOL0     C56484   8.574   4.609  11.077  0.6898 -0.3700  0.6028
  419MOL0     C56485   8.487   4.568  10.966  0.4240 -0.5703 -0.2527
  419MOL0     C56486   8.360   4.525  10.989  1.4817  0.1456 -1.2541
  419MOL0     C56487   8.302   4.524  11.119 -1.0031 -0.3095  0.8472
  419MOL0     O56488   8.171   4.484  11.147  0.6284 -0.1070  0.0444
  419MOL0     C56489   8.073   4.496  11.042 -0.5349 -0.3880 -0.7698
  419MOL0     C56490   7.933   4.520  11.106  0.0791 -0.6553 -0.5932
  419MOL0     C56491   7.847   4.388  11.110 -0.3123 -0.5042 -0.7180
  419MOL0     C56492   7.702   4.422  11.141  0.5421 -0.3614 -0.1320
  419MOL0     C56493   7.625   4.297  11.139  0.0337  0.4872 -0.8642
  419MOL0     C56494   7.550   4.201  11.149  0.2862 -0.7120  0.3421
  419MOL0     C56495   8.380   4.563  11.221 -1.1322  0.1941 -0.2205
  419MOL0     C56496   8.518   4.600  11.204  0.2013 -0.4931 -0.1295
  419MOL0     C56497   8.593   4.640  11.327  0.4415 -0.1548 -0.3545
  419MOL0     H56498   8.927   4.451  10.997  2.3396  1.2995  1.3389
  419MOL0     H56499   9.144   4.442  10.907  0.4461  2.1677  1.1694
  419MOL0     H56500   9.297   4.798  10.752  0.5260  0.9865 -0.8133
  419MOL0     H56501   9.422   4.671  10.737 -2.1338 -1.9031  1.9062
  419MOL0     H56502   9.381   4.855  10.536 -0.2515 -0.4583  0.5233
  419MOL0     H56503   9.239   4.758  10.517 -1.8825 -1.1407  5.3487
  419MOL0     H56504   9.365   4.662  10.365 -0.5257 -0.7377  0.5834
  419MOL0     H56505   9.377   4.550  10.490 -0.9028 -1.0990 -3.1789
  419MOL0     H56506   9.601   4.760  10.436 -1.0859  0.8330  2.2106
  419MOL0     H56507   9.596   4.665  10.576  2.5339 -3.8391 -0.4594
  419MOL0     H56508   9.623   4.461  10.456  2.2612 -0.5557 -0.5296
  419MOL0     H56509   9.604   4.559  10.299  0.0720  1.8651 -0.5166
  419MOL0     H56510   9.832   4.641  10.334  0.2886  0.2657 -0.0207
  419MOL0     H56511   9.834   4.596  10.507  2.3831 -1.0576 -0.7989
  419MOL0     H56512   9.843   4.370  10.443  1.4556  0.4659  0.5158
  419MOL0     H56513   9.975   4.452  10.380 -0.0423  0.4535  0.5225
  419MOL0     H56514   9.719   4.393  10.208 -0.8185 -0.9576  0.5242
  419MOL0     H56515   9.872   4.468  10.151 -0.5572  1.0948  0.2552
  419MOL0     H56516   9.753   4.128  10.273 -0.0338 -0.4185  0.2812
  419MOL0     H56517   9.901   3.906  10.311 -3.0628  0.8550 -1.7282
  419MOL0     H56518   9.872   3.875  10.146  0.0166 -2.1432  1.1603
  419MOL0     H56519  10.117   3.856  10.111 -0.9150 -1.1925 -0.7305
  419MOL0     H56520  10.154   3.921  10.271 -0.3305  0.2024 -0.1940
  419MOL0     H56521  10.071   3.732  10.386  0.0736  1.8132 -0.7995
  419MOL0     H56522  10.178   3.657  10.265 -1.3084 -2.7124 -2.2242
  419MOL0     H56523  10.013   3.515  10.251 -3.6061 -1.7889  0.7447
  419MOL0     H56524   9.963   3.611  10.120 -0.6089 -3.0894 -0.0990
  419MOL0     H56525   9.735   3.704  10.521 -0.6695  0.2557  0.8441
  419MOL0     H56526   9.628   3.544  10.686  0.1089 -0.7480 -0.1101
  419MOL0     H56527   9.691   3.293  11.023  2.0298 -0.9328 -2.3581
  419MOL0     H56528   9.637   3.119  11.198 -2.3407  0.2404  1.3344
  419MOL0     H56529   9.304   2.785  11.184 -0.1532  2.2420  0.1106
  419MOL0     H56530   9.402   2.778  11.037 -0.3417 -1.9381  0.1740
  419MOL0     H56531   9.534   2.728  11.306  0.7764  0.4711 -0.5581
  419MOL0     H56532   9.485   2.598  11.205  1.8655 -1.7119 -3.9119
  419MOL0     H56533   9.648   2.714  11.026 -3.2143  0.2047 -0.7070
  419MOL0     H56534   9.709   2.800  11.174 -0.5785 -1.2892  0.7393
  419MOL0     H56535   9.676   2.496  11.131  0.6014  1.3881 -5.0744
  419MOL0     H56536   9.737   2.566  11.281  0.0292  0.3920  0.2888
  419MOL0     H56537   9.937   2.644  11.176  3.0226 -1.4147 -1.8587
  419MOL0     H56538   9.857   2.602  11.014  1.7138 -1.9056  0.0876
  419MOL0     H56539   9.953   2.418  11.232 -0.7605 -1.1300 -0.0164
  419MOL0     H56540   9.903   2.369  11.073  3.2834 -1.9603 -0.3202
  419MOL0     H56541  10.119   2.354  11.078  0.7763  0.4332  0.0097
  419MOL0     H56542  10.143   2.517  11.154  1.3543 -0.7945  0.2407
  419MOL0     H56543  10.192   2.459  10.901 -0.0028  0.3995 -0.3197
  419MOL0     H56544  10.028   2.523  10.883  1.0853 -2.9001 -2.1542
  419MOL0     H56545   9.313   2.981  10.959 -1.5529  3.0065  1.9502
  419MOL0     H56546   9.373   3.143  10.769  1.2728 -1.4472 -0.2702
  419MOL0     H56547   9.805   3.213  10.463  1.0135 -0.2201  1.5186
  419MOL0     H56548   9.883   3.357  10.300 -0.3593 -0.6626 -0.1464
  419MOL0     H56549   9.083   4.784  10.656  0.8377 -1.7831 -0.6928
  419MOL0     H56550   8.833   4.792  10.739 -2.4235 -1.9717  0.4273
  419MOL0     H56551   8.532   4.562  10.867  1.9461  1.4535  0.2686
  419MOL0     H56552   8.299   4.489  10.907 -0.4324  0.6176 -0.1057
  419MOL0     H56553   8.058   4.408  10.978  0.4985  0.5058 -2.3086
  419MOL0     H56554   8.097   4.583  10.980  1.1189  0.1216  0.5196
  419MOL0     H56555   7.885   4.597  11.045  1.2704 -0.3302 -1.1582
  419MOL0     H56556   7.940   4.561  11.207 -1.1557 -1.9723  0.0552
  419MOL0     H56557   7.872   4.332  11.201  0.5651 -1.2506 -1.3967
  419MOL0     H56558   7.855   4.330  11.017 -3.8358  0.5123 -1.7966
  419MOL0     H56559   7.704   4.464  11.242  0.4458 -1.4835  0.3485
  419MOL0     H56560   7.648   4.481  11.066  2.1496  1.5307  0.1281
  419MOL0     H56561   7.481   4.120  11.158  0.2594 -0.6766  0.4585
  419MOL0     H56562   8.345   4.536  11.321  0.6207 -1.0209  0.1155
  419MOL0     H56563   8.606   4.748  11.331 -0.9739 -0.0218  1.6916
  419MOL0     H56564   8.545   4.606  11.419 -0.2435 -1.4490 -1.1479
  419MOL0     H56565   8.693   4.596  11.332  0.1344 -0.8045  0.2882
  420MOL0     O56566  10.460   5.416   3.711 -0.7716 -0.2592 -0.7961
  420MOL0     C56567  10.426   5.340   3.809 -1.1939 -0.2981  1.7725
  420MOL0     O56568  10.498   5.312   3.913  0.2188  0.3447  0.2974
  420MOL0     C56569  10.626   5.347   3.907  0.1439  0.7842  0.0073
  420MOL0     C56570  10.677   5.388   4.031  0.1468  0.4468  0.5711
  420MOL0     C56571  10.805   5.432   4.047  0.2459  0.2140  0.8359
  420MOL0     C56572  10.904   5.422   3.943  0.4332 -0.0177 -0.4387
  420MOL0     O56573  11.038   5.446   3.947  0.0840  0.0460 -0.0466
  420MOL0     C56574  11.095   5.492   4.072  0.2173 -0.0181 -0.4133
  420MOL0     C56575  11.245   5.538   4.058 -0.4297  0.1570  0.6982
  420MOL0     C56576  11.296   5.602   3.922  0.8380  1.5873 -0.1602
  420MOL0     C56577  11.212   5.713   3.857  0.1269 -0.8704  0.3210
  420MOL0     C56578  11.295   5.820   3.771 -0.3153 -0.2349 -0.9102
  420MOL0     C56579  11.203   5.916   3.713  0.3042 -1.4290  0.7140
  420MOL0     C56580  11.271   6.014   3.617 -0.4516  0.9690 -0.8458
  420MOL0     C56581  11.186   6.125   3.568  0.0787 -0.9270  0.4007
  420MOL0     N56582  11.281   6.211   3.496 -0.3770 -0.4452 -0.3600
  420MOL0     C56583  11.332   6.182   3.373  0.1778  1.1340 -0.3297
  420MOL0     C56584  11.376   6.294   3.320 -0.9056 -0.6336 -0.1862
  420MOL0     C56585  11.448   6.325   3.193 -0.7084 -0.4893  0.2736
  420MOL0     C56586  11.544   6.445   3.204  0.8976 -0.2671 -0.6107
  420MOL0     C56587  11.637   6.428   3.078  0.0806  0.0540 -0.0416
  420MOL0     C56588  11.770   6.498   3.087  0.7897  0.1740 -0.4893
  420MOL0     O56589  11.861   6.477   2.967 -0.1236 -0.4165 -1.3345
  420MOL0     C56590  11.997   6.511   2.971  0.6352  0.3346 -0.2127
  420MOL0     C56591  12.060   6.563   3.089  0.0900  0.2004  0.3076
  420MOL0     C56592  12.198   6.580   3.099  0.5681 -0.4050 -0.2236
  420MOL0     C56593  12.276   6.558   2.988 -0.1152  0.1501  0.6310
  420MOL0     C56594  12.427   6.585   2.997 -0.5283  0.3066  0.6297
  420MOL0     O56595  12.478   6.617   3.128  0.1987  0.1329 -1.2185
  420MOL0     C56596  12.613   6.624   3.138  0.4705  0.6016  0.0081
  420MOL0     C56597  12.670   6.730   3.208  0.3708  0.5739  0.3066
  420MOL0     C56598  12.812   6.741   3.230  0.7408 -0.0430  0.6936
  420MOL0     C56599  12.906   6.646   3.179 -0.1128  0.8546 -0.5262
  420MOL0     O56600  13.042   6.652   3.207 -0.2972 -0.1600 -0.1413
  420MOL0     C56601  13.082   6.562   3.313 -0.6124  0.8836  0.3517
  420MOL0     C56602  13.228   6.542   3.317 -0.0228  0.9367 -0.6407
  420MOL0     C56603  13.273   6.415   3.251  0.3045  0.0042 -0.1575
  420MOL0     C56604  13.265   6.411   3.100  0.2210 -0.6155  0.8897
  420MOL0     C56605  13.327   6.280   3.034 -0.7926 -0.6561 -0.0735
  420MOL0     C56606  13.471   6.233   3.081  0.0255 -0.3143  0.1295
  420MOL0     C56607  13.515   6.117   2.994 -1.1490  0.9913 -0.3272
  420MOL0     C56608  13.666   6.079   3.029 -0.4761 -0.3496  0.9144
  420MOL0    Cl56609  13.689   6.027   3.191  0.2333  0.0738 -0.0858
  420MOL0     C56610  12.847   6.541   3.111 -0.2362  0.6663  0.8157
  420MOL0     C56611  12.706   6.531   3.081 -0.5454  0.4515  0.0953
  420MOL0     O56612  12.496   6.554   2.895  0.1316  0.1156 -0.7317
  420MOL0     C56613  12.222   6.507   2.866 -0.0609  0.4645  0.1681
  420MOL0     C56614  12.081   6.480   2.863 -0.1329  0.7495 -0.1534
  420MOL0     N56615  11.356   6.392   3.417  0.3076  0.7464 -0.0735
  420MOL0     N56616  11.298   6.339   3.520 -0.6422 -0.4910 -0.0534
  420MOL0     C56617  10.852   5.372   3.819  0.2154 -0.0913 -0.0640
  420MOL0     C56618  10.714   5.337   3.799 -0.6200  0.4952  0.2166
  420MOL0     C56619  10.292   5.298   3.813  0.1830  0.3323  0.5303
  420MOL0     C56620  10.187   5.380   3.778  0.7963 -1.0760 -0.4607
  420MOL0     C56621  10.056   5.349   3.805 -0.1589 -0.1112  0.1078
  420MOL0     C56622  10.029   5.235   3.879 -0.1384  0.4945 -0.4768
  420MOL0     O56623   9.901   5.226   3.934 -0.3661 -0.1192  0.0826
  420MOL0     C56624   9.894   5.164   4.061  0.4045  0.1529 -0.1098
  420MOL0     C56625   9.742   5.167   4.094 -0.0368  0.2794 -1.1479
  420MOL0     C56626   9.638   5.104   3.995  0.4164 -0.1371 -0.0911
  420MOL0     C56627   9.662   4.956   3.961  0.0808 -0.2961  0.3123
  420MOL0     C56628   9.649   4.874   4.080  0.1239 -0.5348 -0.7688
  420MOL0     C56629   9.651   4.804   4.175 -0.2721 -0.1029 -0.2341
  420MOL0     C56630  10.127   5.143   3.898 -0.5647  0.6133 -0.9133
  420MOL0     C56631  10.260   5.168   3.865  0.5346 -0.1598 -0.6326
  420MOL0     C56632  10.364   5.063   3.882  0.5354 -0.3533  0.8471
  420MOL0     H56633  10.611   5.377   4.116 -0.7757  2.4101  0.1705
  420MOL0     H56634  10.835   5.451   4.150  2.0375 -0.9308  0.5707
  420MOL0     H56635  11.033   5.569   4.119  0.6991  0.6047 -0.7941
  420MOL0     H56636  11.089   5.411   4.146 -2.2053  1.6838  1.3934
  420MOL0     H56637  11.312   5.454   4.080  1.5864  2.0197  2.1600
  420MOL0     H56638  11.267   5.611   4.137  0.1502 -0.6015  1.2578
  420MOL0     H56639  11.301   5.521   3.848  1.3833  1.7295 -0.2837
  420MOL0     H56640  11.402   5.629   3.931  2.3546 -3.4842  0.3485
  420MOL0     H56641  11.138   5.661   3.794  1.0875 -0.6579 -1.0228
  420MOL0     H56642  11.156   5.770   3.931  1.0772  2.7887 -1.5627
  420MOL0     H56643  11.369   5.875   3.830 -2.1402  0.0295  1.2949
  420MOL0     H56644  11.349   5.763   3.696  0.5199 -1.7794  0.7651
  420MOL0     H56645  11.119   5.864   3.668 -1.3329  2.1261 -0.6423
  420MOL0     H56646  11.160   5.978   3.792 -4.0932  0.8198 -3.0029
  420MOL0     H56647  11.308   5.963   3.528 -1.6564 -1.3306 -0.1192
  420MOL0     H56648  11.355   6.062   3.667 -0.7987  1.5775 -0.8377
  420MOL0     H56649  11.116   6.074   3.501  0.3455 -0.2773 -0.3952
  420MOL0     H56650  11.129   6.184   3.640 -1.1677  1.6958 -2.4748
  420MOL0     H56651  11.347   6.087   3.324  0.3492  0.2438  1.3572
  420MOL0     H56652  11.499   6.233   3.162 -2.1212 -1.8061  1.6738
  420MOL0     H56653  11.376   6.349   3.115 -0.5383 -0.8445  0.0066
  420MOL0     H56654  11.484   6.536   3.197  2.2718  0.8854  1.7636
  420MOL0     H56655  11.610   6.436   3.290  2.0630 -0.5060 -1.4970
  420MOL0     H56656  11.573   6.464   2.997 -0.2793 -0.2551  0.1000
  420MOL0     H56657  11.653   6.320   3.074  0.1398 -0.1843  3.2531
  420MOL0     H56658  11.829   6.461   3.171  0.1201 -2.1493 -0.9829
  420MOL0     H56659  11.753   6.605   3.101  0.3702  0.0177  0.2639
  420MOL0     H56660  12.003   6.582   3.180 -0.3410  0.7196 -0.0641
  420MOL0     H56661  12.235   6.623   3.192  0.2651  0.2465 -0.3998
  420MOL0     H56662  12.599   6.800   3.251 -1.6630 -0.5887 -1.0107
  420MOL0     H56663  12.846   6.827   3.288  0.4043  1.3640 -1.1220
  420MOL0     H56664  13.047   6.594   3.411 -2.4352  1.4355 -0.4344
  420MOL0     H56665  13.027   6.470   3.291 -2.0746  2.2981 -2.3630
  420MOL0     H56666  13.276   6.632   3.278 -2.7407  2.0122 -1.6802
  420MOL0     H56667  13.259   6.531   3.422  1.6013  0.3933 -1.1400
  420MOL0     H56668  13.381   6.409   3.269  0.6620 -0.4083 -2.2156
  420MOL0     H56669  13.218   6.326   3.283  0.1317  0.2186  0.1487
  420MOL0     H56670  13.317   6.503   3.070 -0.1997  0.5762  3.5058
  420MOL0     H56671  13.159   6.414   3.073  0.1912  0.6005  1.0580
  420MOL0     H56672  13.345   6.286   2.927  2.7784 -0.0232  0.4612
  420MOL0     H56673  13.252   6.204   3.063  0.5117 -2.5883 -1.5044
  420MOL0     H56674  13.544   6.314   3.073  0.4854 -0.8760 -1.8510
  420MOL0     H56675  13.457   6.184   3.178 -1.6709 -2.6432 -1.1804
  420MOL0     H56676  13.482   6.118   2.890 -1.1187 -0.8814 -0.3916
  420MOL0     H56677  13.465   6.027   3.031  0.7850  0.3309  0.8181
  420MOL0     H56678  13.708   6.004   2.962  0.4146  1.4234 -0.5970
  420MOL0     H56679  13.725   6.169   3.007  0.6939 -1.3518 -0.1645
  420MOL0     H56680  12.913   6.465   3.072 -0.2181  0.9838  0.2116
  420MOL0     H56681  12.671   6.448   3.020 -0.8131  1.0802 -0.6173
  420MOL0     H56682  12.281   6.466   2.785  4.8410  1.8999  2.5935
  420MOL0     H56683  12.035   6.434   2.777  1.5461  1.8857 -1.7156
  420MOL0     H56684  10.913   5.354   3.731 -0.0263  0.7169 -0.4093
  420MOL0     H56685  10.680   5.296   3.705 -0.5407 -0.7871  0.7236
  420MOL0     H56686  10.205   5.475   3.729 -0.9219 -1.5358 -2.1089
  420MOL0     H56687   9.981   5.424   3.785  1.1435  1.6217  1.3268
  420MOL0     H56688   9.958   5.213   4.134 -1.1473  0.6746  0.9504
  420MOL0     H56689   9.936   5.063   4.059  0.1515  0.0454 -2.0789
  420MOL0     H56690   9.710   5.271   4.107  0.5656  0.1622  2.1029
  420MOL0     H56691   9.729   5.114   4.188  0.5270  0.2263 -1.1009
  420MOL0     H56692   9.651   5.160   3.902 -1.6578  0.3602 -0.1451
  420MOL0     H56693   9.537   5.125   4.033  0.8861  0.0494  1.1121
  420MOL0     H56694   9.583   4.917   3.896 -0.1988 -1.2758  1.2157
  420MOL0     H56695   9.755   4.941   3.907  0.3901 -1.0637  1.0403
  420MOL0     H56696   9.650   4.732   4.254 -1.0742  1.5111  1.3275
  420MOL0     H56697  10.111   5.043   3.938  0.2355  0.7719 -0.1876
  420MOL0     H56698  10.445   5.077   3.810  0.3117  0.7674  0.8058
  420MOL0     H56699  10.412   5.063   3.980 -0.1765 -0.0002  1.2073
  420MOL0     H56700  10.314   4.968   3.857  4.5064 -1.8442 -2.5959
  421MOL0     O56701   3.662  10.921   5.978  0.0936 -0.0997  0.3312
  421MOL0     C56702   3.654  11.006   5.895 -0.0648 -0.5914  0.5629
  421MOL0     O56703   3.756  11.101   5.872  0.4220 -0.0328  0.7522
  421MOL0     C56704   3.868  11.118   5.955 -0.1414  0.6011 -0.5462
  421MOL0     C56705   3.905  11.243   5.995  1.4465  0.5498  1.1280
  421MOL0     C56706   4.001  11.253   6.093  0.3783 -1.5606 -0.2527
  421MOL0     C56707   4.081  11.146   6.133 -0.2633 -0.1123  0.1686
  421MOL0     O56708   4.187  11.177   6.219  0.9712 -0.2882  0.0713
  421MOL0     C56709   4.305  11.100   6.216  0.5167  0.6554 -0.1390
  421MOL0     C56710   4.400  11.183   6.300 -0.1493 -0.4085  0.0538
  421MOL0     C56711   4.524  11.087   6.310  0.1197  0.1379  0.0478
  421MOL0     C56712   4.622  11.169   6.397  0.3054  0.4095  0.0833
  421MOL0     C56713   4.761  11.099   6.405  0.5236  0.2791  0.7554
  421MOL0     C56714   4.848  11.120   6.275 -0.3986  0.7572  0.2513
  421MOL0     C56715   4.982  11.058   6.279  0.6207  0.9051 -0.0448
  421MOL0     C56716   5.078  11.111   6.386 -0.2034 -0.1724  0.5071
  421MOL0     N56717   5.213  11.045   6.373 -0.4956  0.1166  0.1290
  421MOL0     C56718   5.295  11.013   6.482  0.0708 -0.1012  0.3296
  421MOL0     C56719   5.406  10.955   6.419  0.6750  0.5016  0.3862
  421MOL0     C56720   5.532  10.902   6.485 -0.2799 -0.5920  0.0117
  421MOL0     C56721   5.625  10.849   6.384 -0.3845  0.2321  0.1416
  421MOL0     C56722   5.698  10.731   6.452 -0.5780  0.3907  0.3063
  421MOL0     C56723   5.824  10.697   6.370 -0.6862  0.3788  0.4820
  421MOL0     O56724   5.889  10.586   6.420 -0.3024  0.0503 -0.8521
  421MOL0     C56725   6.003  10.530   6.367 -0.4223  1.0880  0.4167
  421MOL0     C56726   6.056  10.571   6.242  0.2022  0.1839 -0.3380
  421MOL0     C56727   6.179  10.523   6.193 -0.2857  0.5155  0.0196
  421MOL0     C56728   6.250  10.428   6.274 -0.8916  0.3486 -0.5244
  421MOL0     C56729   6.377  10.366   6.221 -0.2209  0.0166 -0.3463
  421MOL0     O56730   6.434  10.280   6.298  0.3276 -0.0949  0.0815
  421MOL0     C56731   6.570  10.246   6.297  0.3686  0.6751  0.1999
  421MOL0     C56732   6.680  10.328   6.304 -0.1009 -0.7517 -0.1927
  421MOL0     C56733   6.810  10.286   6.294  0.7262 -0.1217 -0.0162
  421MOL0     C56734   6.840  10.149   6.276  0.7061 -0.8703  0.3481
  421MOL0     O56735   6.961  10.088   6.292  0.0948 -0.0402  0.2249
  421MOL0     C56736   7.074  10.171   6.267 -0.1030 -0.6615 -1.1247
  421MOL0     C56737   7.200  10.117   6.330 -0.0785 -0.5537 -0.1052
  421MOL0     C56738   7.322  10.218   6.338  0.9102  0.5020 -0.3848
  421MOL0     C56739   7.456  10.148   6.374  0.7268  0.0501  0.5878
  421MOL0     C56740   7.560  10.242   6.425 -0.5484  0.0326 -0.4498
  421MOL0     C56741   7.685  10.163   6.463 -0.2023  0.8923  0.4971
  421MOL0     C56742   7.795  10.258   6.522  0.3965  0.2182  0.3554
  421MOL0     C56743   7.923  10.188   6.559 -0.4246 -0.1989  0.0611
  421MOL0    Cl56744   8.013  10.311   6.644 -0.2661 -0.4575  0.0952
  421MOL0     C56745   6.727  10.064   6.272 -0.4556  0.0943  0.7077
  421MOL0     C56746   6.601  10.107   6.285  0.5643 -0.6183  0.1429
  421MOL0     O56747   6.421  10.421   6.118  0.1669  0.0998 -0.5081
  421MOL0     C56748   6.193  10.381   6.392 -0.2574  0.1575 -0.6290
  421MOL0     C56749   6.073  10.432   6.442  0.5225 -0.4084  0.4793
  421MOL0     N56750   5.388  10.963   6.281 -0.1034  0.0632 -0.0451
  421MOL0     N56751   5.274  11.023   6.257 -0.1829  0.0847  1.0856
  421MOL0     C56752   4.059  11.026   6.068  0.1497  0.6050  0.0816
  421MOL0     C56753   3.948  11.009   5.992 -0.5201 -0.2445 -0.5150
  421MOL0     C56754   3.536  11.003   5.801  0.5295 -0.3898 -0.2721
  421MOL0     C56755   3.412  10.963   5.855  0.1676 -0.0565 -0.1132
  421MOL0     C56756   3.302  10.954   5.769 -0.0892 -0.3996 -0.4561
  421MOL0     C56757   3.303  10.974   5.634 -0.3681 -0.2284 -0.1694
  421MOL0     O56758   3.194  10.955   5.549 -0.7575 -0.5145  0.3484
  421MOL0     C56759   3.177  11.061   5.451 -0.7929  0.5245  0.4987
  421MOL0     C56760   3.025  11.063   5.422  0.7570  0.4991  0.1856
  421MOL0     C56761   2.974  11.183   5.346 -0.1327 -0.1111  0.0742
  421MOL0     C56762   2.972  11.169   5.194 -0.7833  0.1853  0.5367
  421MOL0     C56763   2.965  11.306   5.136  0.0625 -0.3442  0.0960
  421MOL0     C56764   2.970  11.415   5.090 -0.1073  0.6429  0.1809
  421MOL0     C56765   3.432  11.010   5.580  0.3027  0.8770 -0.8659
  421MOL0     C56766   3.545  11.034   5.662  0.1523 -0.3889 -1.0676
  421MOL0     C56767   3.664  11.071   5.574 -0.1317  0.9323 -0.7563
  421MOL0     H56768   3.853  11.328   5.952 -1.2180 -1.0628  0.9843
  421MOL0     H56769   4.034  11.352   6.123 -0.1243 -1.9507  1.7146
  421MOL0     H56770   4.294  11.005   6.268  1.6279  0.7370  0.2613
  421MOL0     H56771   4.342  11.085   6.114  0.2935 -2.8419  0.1737
  421MOL0     H56772   4.365  11.219   6.397  1.8981  1.5307  0.1632
  421MOL0     H56773   4.418  11.279   6.249 -2.4267 -0.9464 -1.9578
  421MOL0     H56774   4.564  11.072   6.209 -0.8773  0.3917 -0.4042
  421MOL0     H56775   4.504  10.992   6.361  1.2058 -0.4948 -0.6632
  421MOL0     H56776   4.634  11.273   6.367  2.0216  0.8083  1.9307
  421MOL0     H56777   4.586  11.176   6.501  0.6554  3.0657  0.0898
  421MOL0     H56778   4.813  11.145   6.490  0.0011  1.2570  0.5632
  421MOL0     H56779   4.751  10.992   6.426  1.5236  0.0789  0.2795
  421MOL0     H56780   4.808  11.079   6.182  4.7458  0.2941 -2.0908
  421MOL0     H56781   4.873  11.226   6.264  0.1073  0.6664  0.4948
  421MOL0     H56782   5.018  11.063   6.175 -1.4030 -3.2557 -1.1974
  421MOL0     H56783   4.969  10.950   6.291 -1.4595  1.0895 -0.3265
  421MOL0     H56784   5.094  11.219   6.391  2.6276 -0.5395  3.1813
  421MOL0     H56785   5.041  11.095   6.488  0.3933 -1.7816  0.5120
  421MOL0     H56786   5.282  11.045   6.585 -1.0371 -1.9770  0.8161
  421MOL0     H56787   5.578  10.984   6.540 -0.9398 -1.9176  2.7044
  421MOL0     H56788   5.511  10.824   6.559  1.9581  0.7859  2.2570
  421MOL0     H56789   5.570  10.814   6.297 -2.6493  3.0394  0.2987
  421MOL0     H56790   5.704  10.912   6.343  0.1611 -1.4840 -1.5777
  421MOL0     H56791   5.644  10.636   6.447 -0.3389  0.3331 -2.5584
  421MOL0     H56792   5.727  10.751   6.556 -0.7616 -2.0901  0.9136
  421MOL0     H56793   5.895  10.780   6.376  1.1383 -1.1641  1.3340
  421MOL0     H56794   5.805  10.670   6.266 -1.0037 -4.6873  1.6225
  421MOL0     H56795   6.009  10.652   6.187 -2.6868 -2.2230 -1.7372
  421MOL0     H56796   6.209  10.565   6.098 -0.7438  0.9132  0.0485
  421MOL0     H56797   6.651  10.432   6.318  0.9817 -0.4150 -0.3394
  421MOL0     H56798   6.889  10.357   6.317  0.5829 -0.0533  0.2568
  421MOL0     H56799   7.102  10.195   6.164  0.9098 -1.8385 -1.1361
  421MOL0     H56800   7.064  10.268   6.317  0.5631 -2.0908  2.0356
  421MOL0     H56801   7.189  10.083   6.433  0.8530 -1.1178 -0.1793
  421MOL0     H56802   7.218  10.022   6.279  0.7629 -0.7700  0.5650
  421MOL0     H56803   7.324  10.278   6.247  2.5086 -0.4786 -1.0265
  421MOL0     H56804   7.311  10.289   6.421  3.5191 -0.5817  0.9998
  421MOL0     H56805   7.489  10.089   6.288 -1.9394 -3.8771  1.9420
  421MOL0     H56806   7.444  10.069   6.449  0.7915  0.7578  1.3626
  421MOL0     H56807   7.521  10.291   6.514  2.4543 -1.8258  2.1024
  421MOL0     H56808   7.578  10.316   6.346 -0.0191  1.3161  0.8398
  421MOL0     H56809   7.669  10.088   6.541 -0.9976  0.5926  0.0639
  421MOL0     H56810   7.719  10.110   6.374 -2.1123  2.7910 -1.4689
  421MOL0     H56811   7.755  10.295   6.617  2.4451  0.1282  1.3031
  421MOL0     H56812   7.816  10.336   6.448 -2.3273 -0.6180 -1.4656
  421MOL0     H56813   7.917  10.105   6.630 -0.4850  0.3395  0.6805
  421MOL0     H56814   7.965  10.147   6.466  0.7834 -2.1353  1.3797
  421MOL0     H56815   6.756   9.960   6.257 -1.9401 -0.4350  1.3122
  421MOL0     H56816   6.515  10.040   6.288 -0.1443  0.3199  2.4795
  421MOL0     H56817   6.243  10.315   6.463 -0.2370 -1.1840 -1.8275
  421MOL0     H56818   6.021  10.392   6.529 -0.2348  0.1727  0.3134
  421MOL0     H56819   4.119  10.936   6.083 -0.6578  0.0322 -0.0669
  421MOL0     H56820   3.910  10.910   5.969  1.3015 -1.4885  1.4129
  421MOL0     H56821   3.404  10.939   5.960 -2.8527  2.4655  0.3748
  421MOL0     H56822   3.204  10.933   5.812 -0.6020 -1.1132 -1.9220
  421MOL0     H56823   3.237  11.048   5.360  3.6937  1.4202  3.0598
  421MOL0     H56824   3.201  11.159   5.494 -0.9873  0.7304  0.1426
  421MOL0     H56825   2.962  11.053   5.510 -1.3901 -2.0063 -1.4751
  421MOL0     H56826   2.995  10.976   5.363 -0.6463  2.5891 -2.3906
  421MOL0     H56827   3.041  11.262   5.380  0.1836  0.2392 -1.2979
  421MOL0     H56828   2.871  11.199   5.379  0.6377 -0.2887  2.7428
  421MOL0     H56829   3.068  11.132   5.157 -1.1727 -2.0819  1.6138
  421MOL0     H56830   2.897  11.099   5.156  1.3319 -0.8087 -2.1559
  421MOL0     H56831   2.966  11.513   5.045 -2.5104  0.1237 -0.9483
  421MOL0     H56832   3.443  10.992   5.473 -2.1011  1.1732 -1.2263
  421MOL0     H56833   3.720  11.152   5.621 -2.0441  1.6999  0.3143
  421MOL0     H56834   3.737  10.991   5.558 -1.2728 -0.4176  0.5095
  421MOL0     H56835   3.631  11.107   5.476  0.8201 -0.2063 -1.5248
  422MOL0     O56836   8.480   8.986   8.857  0.5437  0.0992  0.1727
  422MOL0     C56837   8.414   9.030   8.951 -0.0216 -0.2921  0.3719
  422MOL0     O56838   8.466   9.061   9.075  0.5306  0.0089  0.8063
  422MOL0     C56839   8.603   9.057   9.088 -0.2059 -0.5894 -1.0403
  422MOL0     C56840   8.684   9.153   9.021  0.1119 -0.7276  0.5475
  422MOL0     C56841   8.818   9.147   9.032  0.6532 -0.8095  0.0267
  422MOL0     C56842   8.885   9.045   9.106 -1.0398  0.3926  0.3815
  422MOL0     O56843   9.026   9.034   9.122  0.8447 -0.5813 -0.2624
  422MOL0     C56844   9.105   9.106   9.038 -0.2686  0.4474  1.6849
  422MOL0     C56845   9.103   9.050   8.895 -0.4276  0.0914 -0.7783
  422MOL0     C56846   9.180   9.153   8.798  0.5839  0.5854 -1.0989
  422MOL0     C56847   9.188   9.109   8.654  0.0361 -1.1225 -0.0231
  422MOL0     C56848   9.215   9.224   8.554  1.2960  0.3598  0.1624
  422MOL0     C56849   9.317   9.318   8.607 -0.3961 -0.8558 -0.0191
  422MOL0     C56850   9.376   9.403   8.501  0.5832  0.5242  0.0870
  422MOL0     C56851   9.483   9.488   8.577  0.1644 -0.8792 -0.6188
  422MOL0     N56852   9.598   9.507   8.500 -0.1015 -0.4702  0.6625
  422MOL0     C56853   9.610   9.604   8.402 -0.3115  1.1638  0.0011
  422MOL0     C56854   9.721   9.579   8.338 -0.2306 -0.2294 -0.3577
  422MOL0     C56855   9.785   9.643   8.212 -0.4691 -0.0873 -0.2743
  422MOL0     C56856   9.838   9.781   8.253 -0.2603  0.9515 -0.3901
  422MOL0     C56857   9.882   9.869   8.138  0.7068 -0.6055 -0.2086
  422MOL0     C56858  10.010   9.826   8.057 -0.0672 -0.5813  0.1913
  422MOL0     O56859  10.047   9.917   7.953  0.1217 -0.3050 -0.3390
  422MOL0     C56860  10.167   9.881   7.909 -0.4070  0.5577 -0.1457
  422MOL0     C56861  10.263   9.977   7.893  0.1031 -0.0708 -0.1624
  422MOL0     C56862  10.385   9.953   7.828  0.3966 -0.2087  0.4753
  422MOL0     C56863  10.408   9.830   7.766  0.3303  0.9655 -1.0384
  422MOL0     C56864  10.536   9.791   7.701  0.4252 -0.5774 -0.2290
  422MOL0     O56865  10.553   9.667   7.647  0.8837  0.1113 -0.0379
  422MOL0     C56866  10.674   9.643   7.583 -0.2156 -0.1401 -0.4548
  422MOL0     C56867  10.671   9.551   7.478  1.6941  0.4252 -0.0812
  422MOL0     C56868  10.778   9.511   7.407  0.2959  0.2546  0.2699
  422MOL0     C56869  10.910   9.557   7.441  0.4920 -0.0341 -0.4024
  422MOL0     O56870  11.026   9.510   7.384 -0.1018 -0.4319 -0.3616
  422MOL0     C56871  11.011   9.414   7.270  0.6204  0.5093 -0.4635
  422MOL0     C56872  11.151   9.347   7.240 -1.2311 -0.1597  0.1529
  422MOL0     C56873  11.251   9.447   7.173  0.2232 -0.5676  0.4141
  422MOL0     C56874  11.224   9.480   7.021 -0.2687 -0.3763 -0.4175
  422MOL0     C56875  11.315   9.587   6.971 -0.0638  0.0378 -0.2480
  422MOL0     C56876  11.462   9.554   6.995  0.5293 -0.0883 -1.1536
  422MOL0     C56877  11.551   9.653   6.929  0.6391 -0.3583  0.2203
  422MOL0     C56878  11.698   9.630   6.960 -0.1168 -0.3041  0.1894
  422MOL0    Cl56879  11.788   9.743   6.859 -0.0876 -0.0242 -0.0516
  422MOL0     C56880  10.919   9.632   7.565  0.0832  0.8912  0.6119
  422MOL0     C56881  10.803   9.679   7.633 -0.0761  0.4294  0.9312
  422MOL0     O56882  10.615   9.883   7.692 -1.0446 -0.3880 -0.2857
  422MOL0     C56883  10.297   9.735   7.764 -0.7942 -0.1795  0.1857
  422MOL0     C56884  10.183   9.765   7.837 -0.4879  0.1754  0.7191
  422MOL0     N56885   9.785   9.478   8.411  0.4223 -0.3723  1.0604
  422MOL0     N56886   9.709   9.435   8.505 -0.4941  0.9137 -0.2604
  422MOL0     C56887   8.805   8.955   9.171 -0.3251  0.2152  0.5443
  422MOL0     C56888   8.667   8.956   9.172 -0.0411  0.5268 -0.7586
  422MOL0     C56889   8.265   9.034   8.939 -0.1883  0.0185 -0.0645
  422MOL0     C56890   8.191   8.991   9.051 -0.0573 -0.1744 -0.6552
  422MOL0     C56891   8.056   8.991   9.057 -0.0945  0.2990  0.3961
  422MOL0     C56892   7.980   9.024   8.941 -0.0993  0.7661 -0.5286
  422MOL0     O56893   7.840   9.025   8.959  0.1017 -0.1873 -0.0978
  422MOL0     C56894   7.762   9.019   8.829 -0.4634  1.1449 -0.0939
  422MOL0     C56895   7.630   8.949   8.855  0.3071 -0.1078  0.1258
  422MOL0     C56896   7.532   8.997   8.969 -0.0691 -0.8793  0.1041
  422MOL0     C56897   7.394   8.930   8.969 -0.4762  0.5186 -0.3282
  422MOL0     C56898   7.402   8.787   9.001 -0.3329  0.0851 -0.9370
  422MOL0     C56899   7.445   8.677   9.020 -0.2123 -0.6303 -0.1809
  422MOL0     C56900   8.051   9.067   8.825 -0.1631  0.4775  0.6095
  422MOL0     C56901   8.192   9.068   8.825  0.8748  0.1123  0.0068
  422MOL0     C56902   8.264   9.122   8.698  0.3082  0.5331  0.2546
  422MOL0     H56903   8.640   9.222   8.950  0.8472 -1.6345 -0.8513
  422MOL0     H56904   8.878   9.220   8.978 -0.3856 -0.9737 -1.3907
  422MOL0     H56905   9.073   9.210   9.039 -1.8888  0.0689 -0.9502
  422MOL0     H56906   9.201   9.097   9.090  0.9095 -1.9266 -0.6407
  422MOL0     H56907   9.001   9.036   8.858 -0.7736  0.3243  0.0580
  422MOL0     H56908   9.162   8.958   8.884  0.9698  1.1597 -3.0820
  422MOL0     H56909   9.279   9.179   8.836 -0.3182  0.4081  1.5881
  422MOL0     H56910   9.132   9.251   8.808  1.8017  1.1004 -0.0489
  422MOL0     H56911   9.264   9.031   8.657  2.8103  1.3666 -0.2834
  422MOL0     H56912   9.097   9.060   8.618  0.4618 -0.3163 -2.4192
  422MOL0     H56913   9.247   9.181   8.459  3.8008  0.0904  1.0624
  422MOL0     H56914   9.124   9.278   8.527  2.0043  1.2931 -0.4361
  422MOL0     H56915   9.268   9.377   8.686 -1.2443  1.2315 -1.9944
  422MOL0     H56916   9.402   9.271   8.657  2.1572  4.3197  1.2812
  422MOL0     H56917   9.295   9.470   8.470  0.6450  0.4232 -0.3014
  422MOL0     H56918   9.404   9.343   8.414 -0.5568 -1.6701  1.1487
  422MOL0     H56919   9.449   9.589   8.602  1.8260 -0.1045 -1.3123
  422MOL0     H56920   9.510   9.446   8.674  1.1847  0.8500 -0.1218
  422MOL0     H56921   9.526   9.662   8.366 -1.3609 -1.0854 -1.4050
  422MOL0     H56922   9.868   9.585   8.172  1.5435  1.0295  2.0655
  422MOL0     H56923   9.722   9.658   8.123  1.6291  2.9935 -1.4001
  422MOL0     H56924   9.764   9.832   8.314 -0.1423  0.0651  0.5251
  422MOL0     H56925   9.928   9.779   8.316  0.2654  0.9248 -1.1250
  422MOL0     H56926   9.895   9.969   8.182 -0.6022  0.0861 -1.3076
  422MOL0     H56927   9.791   9.881   8.078 -0.0826 -3.5704  0.2386
  422MOL0     H56928   9.992   9.728   8.012  2.0322 -1.4564  1.1600
  422MOL0     H56929  10.092   9.811   8.128 -0.6893  1.1105  1.3208
  422MOL0     H56930  10.245  10.073   7.940 -2.0484  0.0297 -1.0857
  422MOL0     H56931  10.463  10.028   7.836 -0.5241  0.6316  1.9068
  422MOL0     H56932  10.579   9.502   7.451  2.7440 -0.8854 -1.4726
  422MOL0     H56933  10.758   9.445   7.323 -0.8027  0.1002  0.6289
  422MOL0     H56934  10.937   9.337   7.295  1.8441 -0.2724  0.8755
  422MOL0     H56935  10.978   9.470   7.181  1.2277  1.6337  0.0003
  422MOL0     H56936  11.183   9.314   7.339 -0.6815 -3.2823 -0.9552
  422MOL0     H56937  11.135   9.255   7.184  1.5457 -0.2709 -0.6234
  422MOL0     H56938  11.253   9.543   7.226 -2.4040  2.6573 -4.5382
  422MOL0     H56939  11.349   9.399   7.182 -0.0197 -2.0069 -2.9707
  422MOL0     H56940  11.120   9.513   7.011  0.9419  3.3711 -2.7516
  422MOL0     H56941  11.239   9.389   6.964  0.1033 -0.0034 -0.9227
  422MOL0     H56942  11.307   9.684   7.020  1.8241  1.1602 -2.0111
  422MOL0     H56943  11.294   9.594   6.864 -2.5089 -1.0473  0.0886
  422MOL0     H56944  11.478   9.561   7.103  0.8654  1.8887 -1.3048
  422MOL0     H56945  11.493   9.457   6.953  1.7811 -1.4044  2.4024
  422MOL0     H56946  11.535   9.750   6.977  0.6407 -1.0588  1.6939
  422MOL0     H56947  11.524   9.667   6.824 -0.2671 -1.8959  0.2128
  422MOL0     H56948  11.724   9.649   7.064  0.7195 -0.1803 -0.0341
  422MOL0     H56949  11.721   9.525   6.937 -2.9556 -0.6621 -1.5326
  422MOL0     H56950  11.022   9.652   7.595  1.9632 -3.2821 -2.0816
  422MOL0     H56951  10.815   9.749   7.714  0.6715  2.6806 -0.9993
  422MOL0     H56952  10.328   9.641   7.718  1.0700  0.1581  0.6619
  422MOL0     H56953  10.105   9.689   7.845  1.0428 -1.3348  2.1482
  422MOL0     H56954   8.854   8.874   9.224  2.0078  0.4342 -1.1335
  422MOL0     H56955   8.625   8.873   9.227  2.0015 -0.9549 -1.3184
  422MOL0     H56956   8.255   8.952   9.129  0.9000 -3.7109 -2.9731
  422MOL0     H56957   8.012   8.958   9.150 -1.6073  0.3945 -0.2601
  422MOL0     H56958   7.820   8.964   8.754  3.0833  0.9897  2.4746
  422MOL0     H56959   7.733   9.117   8.791 -2.0086 -0.6952 -4.2863
  422MOL0     H56960   7.645   8.841   8.864 -1.4694 -0.5309 -1.3700
  422MOL0     H56961   7.578   8.966   8.761 -0.1454 -1.0439  0.2015
  422MOL0     H56962   7.527   9.105   8.950  1.4451 -1.0122 -1.3603
  422MOL0     H56963   7.578   8.982   9.067  1.1361 -1.1530 -0.4865
  422MOL0     H56964   7.313   8.983   9.021 -0.7127  0.7316 -0.9066
  422MOL0     H56965   7.364   8.914   8.865 -0.6819  2.4438 -0.6006
  422MOL0     H56966   7.481   8.577   9.037 -0.4351 -0.8195 -0.7895
  422MOL0     H56967   7.996   9.099   8.737  0.9066 -1.4352 -0.8311
  422MOL0     H56968   8.201   9.189   8.638 -0.5930  0.4231  1.0567
  422MOL0     H56969   8.351   9.184   8.721  1.0204 -0.1315 -0.5699
  422MOL0     H56970   8.280   9.040   8.628  1.6704  0.8451  0.1690
  423MOL0     O56971   6.174   5.361   2.019  0.1142 -0.3671  0.1976
  423MOL0     C56972   6.114   5.461   2.061 -0.9590  0.6709  0.2075
  423MOL0     O56973   6.138   5.586   2.011  0.9213 -0.7725 -0.0775
  423MOL0     C56974   6.242   5.609   1.923 -1.0656  0.5005  0.7720
  423MOL0     C56975   6.218   5.700   1.820 -0.3879 -0.1680 -0.0007
  423MOL0     C56976   6.308   5.705   1.712  0.4136 -0.1839  0.4990
  423MOL0     C56977   6.433   5.635   1.703  0.0922 -0.9965  0.2852
  423MOL0     O56978   6.535   5.658   1.616 -0.7978  0.1827 -0.3449
  423MOL0     C56979   6.513   5.771   1.524 -0.8821  1.1506  0.3624
  423MOL0     C56980   6.619   5.757   1.414 -0.6823 -0.1646  0.1520
  423MOL0     C56981   6.752   5.811   1.473 -0.3540 -0.9505  1.1625
  423MOL0     C56982   6.869   5.831   1.367  0.2972 -0.3652 -1.0968
  423MOL0     C56983   6.936   5.687   1.325  0.0065 -0.0115 -0.7690
  423MOL0     C56984   6.995   5.677   1.186 -0.0297  0.4575 -0.1156
  423MOL0     C56985   7.099   5.781   1.151 -0.0415 -0.1680  0.3456
  423MOL0     C56986   7.223   5.756   1.253 -0.6580  0.0454  0.1344
  423MOL0     N56987   7.319   5.869   1.257 -0.2926  0.1857  0.0785
  423MOL0     C56988   7.449   5.852   1.206  0.5349 -0.4119 -1.2754
  423MOL0     C56989   7.524   5.953   1.256 -0.9206  0.4826  0.1442
  423MOL0     C56990   7.672   5.966   1.236 -1.7515 -0.8071 -0.1497
  423MOL0     C56991   7.707   5.977   1.085  0.5428 -0.3456  0.2497
  423MOL0     C56992   7.839   6.030   1.045 -0.5010 -0.0287 -0.7497
  423MOL0     C56993   7.848   6.171   1.024  0.2150 -0.0557  0.0718
  423MOL0     O56994   7.977   6.198   0.974 -0.1501 -0.0910  0.0634
  423MOL0     C56995   8.088   6.212   1.058 -0.4334 -0.4025  0.8973
  423MOL0     C56996   8.089   6.191   1.195 -0.0502  0.3036  0.5473
  423MOL0     C56997   8.206   6.219   1.267 -0.4131  0.9496 -0.2497
  423MOL0     C56998   8.317   6.266   1.204 -0.1070 -0.1573  0.2536
  423MOL0     C56999   8.436   6.294   1.285 -0.1739 -0.7442 -0.2613
  423MOL0     O57000   8.420   6.294   1.419  0.2562  0.2970  0.1996
  423MOL0     C57001   8.528   6.295   1.509 -0.0128  0.3132  1.1543
  423MOL0     C57002   8.658   6.361   1.498 -0.1482 -0.2138  0.1255
  423MOL0     C57003   8.752   6.356   1.604  0.1712 -0.2132  0.4699
  423MOL0     C57004   8.724   6.292   1.726  0.0623 -0.0540  0.7919
  423MOL0     O57005   8.815   6.259   1.822 -0.3574 -0.6865 -0.0884
  423MOL0     C57006   8.944   6.213   1.787  0.2327 -0.2192  0.0821
  423MOL0     C57007   9.013   6.181   1.914  0.3655  0.0579 -1.0118
  423MOL0     C57008   9.030   6.304   2.014  0.0895 -0.1707  0.3115
  423MOL0     C57009   9.135   6.390   1.951  0.2920  0.5848  0.3499
  423MOL0     C57010   9.177   6.499   2.046  0.1302 -1.1650  0.9204
  423MOL0     C57011   9.283   6.599   1.984  0.7325  0.6326 -0.8656
  423MOL0     C57012   9.424   6.543   1.999 -0.1201  0.6049  0.5120
  423MOL0     C57013   9.534   6.648   2.027  0.1668 -0.4843 -0.2052
  423MOL0    Cl57014   9.496   6.685   2.195 -0.1168  0.3152  0.2001
  423MOL0     C57015   8.596   6.235   1.740 -0.1505 -0.2838  0.8099
  423MOL0     C57016   8.503   6.241   1.642  0.8087 -0.5909  0.5120
  423MOL0     O57017   8.539   6.298   1.224 -0.0196  0.0122 -0.8500
  423MOL0     C57018   8.319   6.302   1.071  0.1803  0.0661 -0.1504
  423MOL0     C57019   8.201   6.274   0.995 -0.1797 -0.5956  0.4064
  423MOL0     N57020   7.442   6.029   1.338 -0.2867  0.1096  0.1442
  423MOL0     N57021   7.324   5.974   1.337 -0.5086  0.3053 -0.1937
  423MOL0     C57022   6.453   5.545   1.799  0.1734  0.4347  1.2629
  423MOL0     C57023   6.357   5.526   1.904 -0.0645  0.4741 -1.0701
  423MOL0     C57024   6.023   5.445   2.170 -0.7259 -1.0260  0.4224
  423MOL0     C57025   5.972   5.317   2.208 -0.7317  0.3677 -0.1653
  423MOL0     C57026   5.909   5.298   2.331 -0.4548  0.3622  0.7469
  423MOL0     C57027   5.889   5.396   2.424  0.2296 -0.4263  0.4194
  423MOL0     O57028   5.847   5.375   2.561 -0.0872 -0.0204  0.3265
  423MOL0     C57029   5.787   5.484   2.627 -0.0067  0.2043 -0.5251
  423MOL0     C57030   5.701   5.432   2.735  0.3577 -0.2549  0.4908
  423MOL0     C57031   5.571   5.374   2.679  0.5191 -0.2911  0.0971
  423MOL0     C57032   5.454   5.331   2.788 -0.5121 -0.9219 -0.2774
  423MOL0     C57033   5.356   5.253   2.715 -0.4531  0.1780 -0.5417
  423MOL0     C57034   5.258   5.188   2.691  0.0581  0.5349  0.1094
  423MOL0     C57035   5.928   5.525   2.382 -0.1974 -0.4873  0.3351
  423MOL0     C57036   5.985   5.551   2.260 -0.0419 -0.3672 -0.5179
  423MOL0     C57037   5.994   5.706   2.228  0.5698 -0.4498  0.0821
  423MOL0     H57038   6.133   5.767   1.819 -0.0066  0.3271  0.5314
  423MOL0     H57039   6.275   5.768   1.629 -0.1456 -2.4969 -1.1227
  423MOL0     H57040   6.414   5.760   1.479 -0.4644  0.8913 -0.5133
  423MOL0     H57041   6.524   5.870   1.571  0.9902  1.0870  0.1209
  423MOL0     H57042   6.594   5.816   1.325  0.6791  0.5240  0.2020
  423MOL0     H57043   6.629   5.650   1.391 -0.4167 -0.2269  0.5596
  423MOL0     H57044   6.795   5.745   1.549  3.4149  0.6491  0.6569
  423MOL0     H57045   6.738   5.906   1.525  4.2834 -1.8191  4.7184
  423MOL0     H57046   6.819   5.891   1.289 -2.9658  0.9014  1.6903
  423MOL0     H57047   6.943   5.891   1.420  0.7740 -1.2153 -0.7990
  423MOL0     H57048   7.008   5.663   1.404 -1.0911 -0.9351 -0.0226
  423MOL0     H57049   6.866   5.606   1.344 -4.0476  3.5974  1.5312
  423MOL0     H57050   7.033   5.575   1.183 -0.1919  0.3681  0.6604
  423MOL0     H57051   6.919   5.679   1.107  0.0425  1.6105 -0.1746
  423MOL0     H57052   7.065   5.882   1.175 -1.3605 -0.2018 -1.1787
  423MOL0     H57053   7.137   5.776   1.049  2.5888 -3.8498  1.2894
  423MOL0     H57054   7.186   5.751   1.356  0.8203 -2.1506  0.6294
  423MOL0     H57055   7.280   5.664   1.238 -1.8917 -0.6896 -0.1451
  423MOL0     H57056   7.479   5.777   1.133 -1.5918  0.2443 -2.9093
  423MOL0     H57057   7.718   6.046   1.295 -2.6258  0.5804 -1.2843
  423MOL0     H57058   7.722   5.881   1.283 -2.1808  0.8617  3.7016
  423MOL0     H57059   7.688   5.880   1.037 -1.9429  0.0242  0.3450
  423MOL0     H57060   7.629   6.044   1.048  1.3723  0.0242 -0.8882
  423MOL0     H57061   7.862   5.976   0.952 -3.6593 -0.4578 -1.4013
  423MOL0     H57062   7.912   5.995   1.118 -0.8279  2.1008  0.6950
  423MOL0     H57063   7.825   6.235   1.110 -2.6164 -3.6152  2.2622
  423MOL0     H57064   7.770   6.211   0.959 -1.1420  0.1368  1.7296
  423MOL0     H57065   7.999   6.158   1.245 -0.6454 -0.6060 -1.0408
  423MOL0     H57066   8.192   6.199   1.372 -5.1797 -0.5137 -0.9160
  423MOL0     H57067   8.683   6.399   1.399  1.7855 -3.6753 -0.9149
  423MOL0     H57068   8.848   6.406   1.595  0.7020 -1.0488  1.2185
  423MOL0     H57069   8.921   6.124   1.728 -0.9015 -0.3102  0.6333
  423MOL0     H57070   8.994   6.278   1.714 -0.6509  1.0227  0.5592
  423MOL0     H57071   8.970   6.097   1.969 -0.0618  2.1399  2.1080
  423MOL0     H57072   9.113   6.144   1.888  1.0241 -1.7723  3.2115
  423MOL0     H57073   8.944   6.371   2.024 -1.5963 -1.8621 -1.8848
  423MOL0     H57074   9.055   6.260   2.111 -1.6691 -0.4371  0.6781
  423MOL0     H57075   9.110   6.419   1.849  2.9912  0.5806 -0.3663
  423MOL0     H57076   9.222   6.324   1.945 -1.0889 -1.2941 -0.1726
  423MOL0     H57077   9.204   6.458   2.144  0.4065  1.0292  1.8110
  423MOL0     H57078   9.096   6.569   2.070  1.5220  1.2816 -1.0743
  423MOL0     H57079   9.255   6.631   1.884  1.3480 -0.8304 -1.5316
  423MOL0     H57080   9.273   6.681   2.055 -2.3060 -0.7070  0.4600
  423MOL0     H57081   9.438   6.489   1.904 -1.6632 -0.1522  0.6818
  423MOL0     H57082   9.427   6.466   2.077  1.4655  0.4246  0.3101
  423MOL0     H57083   9.636   6.609   2.022  0.2519 -1.1521  3.5857
  423MOL0     H57084   9.513   6.731   1.959  0.9044 -0.7753 -0.8001
  423MOL0     H57085   8.586   6.193   1.839 -3.3513  0.4321  0.9160
  423MOL0     H57086   8.405   6.203   1.669  0.4944 -0.0307  0.1779
  423MOL0     H57087   8.406   6.330   1.012  0.3625 -0.8837 -0.3539
  423MOL0     H57088   8.195   6.301   0.890 -2.8695  1.3622  0.9610
  423MOL0     H57089   6.544   5.490   1.776  1.1808  2.2421  0.6946
  423MOL0     H57090   6.381   5.451   1.978  0.5604  1.5081 -0.1995
  423MOL0     H57091   5.986   5.228   2.146 -4.5192 -1.4907  1.3075
  423MOL0     H57092   5.878   5.197   2.359  1.3572  0.3343  2.9301
  423MOL0     H57093   5.729   5.545   2.558 -2.2841 -0.3539  0.7703
  423MOL0     H57094   5.857   5.553   2.677 -0.5420  0.7491 -0.5108
  423MOL0     H57095   5.679   5.518   2.799 -0.5160 -0.6996  0.7918
  423MOL0     H57096   5.756   5.359   2.795  2.2488  0.1392 -0.6683
  423MOL0     H57097   5.600   5.279   2.633 -1.4965 -1.6139  1.4157
  423MOL0     H57098   5.539   5.435   2.594  2.3195 -2.6239 -2.4303
  423MOL0     H57099   5.505   5.269   2.861  0.1915 -0.4186 -0.3288
  423MOL0     H57100   5.396   5.416   2.827 -0.0704 -0.9862  0.5332
  423MOL0     H57101   5.181   5.129   2.644  0.6727  1.8125 -2.7397
  423MOL0     H57102   5.917   5.607   2.452  0.0288  1.2453 -1.5704
  423MOL0     H57103   5.935   5.710   2.136 -2.7628  0.7916  2.0966
  423MOL0     H57104   5.955   5.775   2.303  1.3432 -1.9528  1.9427
  423MOL0     H57105   6.096   5.737   2.206  0.1268 -1.5953 -4.7849
  424MOL0     O57106   2.251   9.556   4.395 -0.3034 -0.0701 -0.8058
  424MOL0     C57107   2.218   9.559   4.278 -0.3189  0.4745  0.4713
  424MOL0     O57108   2.184   9.666   4.211 -0.1473 -0.5833  1.0378
  424MOL0     C57109   2.246   9.784   4.223 -0.3048 -0.0328 -0.2527
  424MOL0     C57110   2.197   9.903   4.161  0.8690  0.2989 -0.3420
  424MOL0     C57111   2.269  10.026   4.168  0.9777 -0.0256  0.5381
  424MOL0     C57112   2.392  10.032   4.236 -1.0103 -0.6740 -0.3929
  424MOL0     O57113   2.470  10.143   4.248  0.2874 -0.4109  0.2999
  424MOL0     C57114   2.459  10.247   4.151  0.5228 -0.5288 -0.2103
  424MOL0     C57115   2.570  10.331   4.174 -0.5457  0.2773 -0.1610
  424MOL0     C57116   2.707  10.252   4.145 -0.1976  0.8574  0.1191
  424MOL0     C57117   2.802  10.338   4.224 -0.0152 -0.1713  0.8908
  424MOL0     C57118   2.943  10.279   4.228 -0.5198 -0.9490  0.3767
  424MOL0     C57119   3.055  10.381   4.234 -0.9174 -1.6464 -0.2573
  424MOL0     C57120   3.208  10.322   4.237 -0.1319 -0.8685 -0.6884
  424MOL0     C57121   3.248  10.212   4.339 -0.1158 -0.8419 -0.3870
  424MOL0     N57122   3.387  10.187   4.330  0.3314 -0.0665 -0.5054
  424MOL0     C57123   3.471  10.147   4.227  0.5203 -0.4087 -0.3945
  424MOL0     C57124   3.592  10.169   4.275 -0.2100  0.0934  0.5605
  424MOL0     C57125   3.716  10.156   4.183  0.9673 -0.0701  0.6199
  424MOL0     C57126   3.824  10.092   4.274  0.1479 -0.1855 -0.8230
  424MOL0     C57127   3.948  10.063   4.189  0.6972 -0.3772 -0.0656
  424MOL0     C57128   4.040   9.970   4.260 -0.3099 -0.5766  0.1408
  424MOL0     O57129   4.091  10.037   4.377 -0.3904 -0.2078  0.5034
  424MOL0     C57130   4.218  10.009   4.423  0.2526 -0.3138  0.2927
  424MOL0     C57131   4.287   9.886   4.429 -0.5992 -0.4684  0.1774
  424MOL0     C57132   4.424   9.884   4.476  0.1827 -0.2221  0.7985
  424MOL0     C57133   4.475  10.001   4.540 -0.0692 -0.1540  0.4030
  424MOL0     C57134   4.614  10.002   4.596 -0.3066  0.2866  0.3593
  424MOL0     O57135   4.664   9.887   4.660  0.6375 -0.0741  1.0376
  424MOL0     C57136   4.802   9.886   4.682 -0.5423  0.9138 -0.3954
  424MOL0     C57137   4.889   9.845   4.574 -0.5731  0.6007 -0.1865
  424MOL0     C57138   5.029   9.866   4.576  0.7002  0.3033  0.1863
  424MOL0     C57139   5.087   9.917   4.697 -0.1382 -0.2499  0.4268
  424MOL0     O57140   5.214   9.931   4.727 -0.6773  0.0845 -0.6255
  424MOL0     C57141   5.313   9.893   4.628  0.8821 -0.1783  0.5032
  424MOL0     C57142   5.455   9.925   4.676 -0.7307 -0.3077  0.1255
  424MOL0     C57143   5.559   9.896   4.567 -0.5532  0.2659 -0.4875
  424MOL0     C57144   5.700   9.940   4.614 -0.1393 -0.8585 -0.8831
  424MOL0     C57145   5.806   9.905   4.503  0.4782 -0.2332 -0.8522
  424MOL0     C57146   5.936   9.983   4.504  0.5431 -0.8791 -0.0943
  424MOL0     C57147   6.051   9.920   4.420 -0.2639  0.1135 -0.7124
  424MOL0     C57148   6.171  10.022   4.437 -0.0167  0.1033 -0.6665
  424MOL0    Cl57149   6.313   9.934   4.377  0.1279  0.1507  0.3045
  424MOL0     C57150   4.999   9.957   4.802  0.0099  0.7278 -0.6590
  424MOL0     C57151   4.855   9.933   4.802  0.1465 -0.2748  0.7057
  424MOL0     O57152   4.675  10.110   4.576  0.8746  0.0828 -0.4553
  424MOL0     C57153   4.402  10.124   4.528 -1.4254  0.1889 -0.0943
  424MOL0     C57154   4.281  10.123   4.475  0.4568  0.3090 -0.0788
  424MOL0     N57155   3.587  10.224   4.400 -0.1206  0.4360 -0.4916
  424MOL0     N57156   3.465  10.235   4.440  0.0509  1.3916  0.1291
  424MOL0     C57157   2.446   9.919   4.290 -0.0637 -1.1136 -0.5951
  424MOL0     C57158   2.376   9.805   4.287  0.2442  0.5251  0.0173
  424MOL0     C57159   2.182   9.427   4.217 -0.8552 -0.1713 -1.0908
  424MOL0     C57160   2.280   9.328   4.244 -0.2770  0.0535 -0.1774
  424MOL0     C57161   2.268   9.196   4.192 -1.1462 -0.7569  0.2339
  424MOL0     C57162   2.170   9.158   4.111 -0.0969 -0.2456  0.3768
  424MOL0     O57163   2.153   9.037   4.041 -0.2827  0.2316  0.0800
  424MOL0     C57164   2.263   8.943   4.044  0.5801 -0.1662 -0.1122
  424MOL0     C57165   2.349   8.955   3.916 -0.2565 -0.4642 -0.2790
  424MOL0     C57166   2.274   8.940   3.788  0.2716 -0.8135 -0.8092
  424MOL0     C57167   2.184   8.809   3.771  0.1165 -0.1107 -0.3419
  424MOL0     C57168   2.271   8.693   3.772 -0.3961 -0.9129 -0.3672
  424MOL0     C57169   2.336   8.591   3.777  0.2501 -0.3585 -0.4138
  424MOL0     C57170   2.077   9.257   4.075  0.3543 -0.4082  0.2374
  424MOL0     C57171   2.077   9.393   4.128 -0.4333  0.5261 -0.2586
  424MOL0     C57172   1.972   9.492   4.082 -0.0717 -0.5711 -1.1074
  424MOL0     H57173   2.099   9.899   4.115 -0.2214 -0.7767  1.8856
  424MOL0     H57174   2.232  10.117   4.123  4.4075  0.8210 -0.9335
  424MOL0     H57175   2.460  10.219   4.045 -0.7654  0.5153 -0.5169
  424MOL0     H57176   2.368  10.305   4.169 -0.1853 -0.5106 -3.3759
  424MOL0     H57177   2.564  10.376   4.274  4.3150 -0.0189  0.5249
  424MOL0     H57178   2.574  10.417   4.107  1.3503  0.4844  0.1493
  424MOL0     H57179   2.726  10.255   4.037  1.1807 -0.2980  0.2984
  424MOL0     H57180   2.715  10.146   4.168  0.9530  1.2342  1.6297
  424MOL0     H57181   2.796  10.443   4.195 -1.4867 -0.2013  0.9707
  424MOL0     H57182   2.773  10.341   4.330  2.5859 -1.5177  1.7107
  424MOL0     H57183   2.945  10.207   4.310 -1.9447  3.0723  4.3062
  424MOL0     H57184   2.962  10.230   4.132 -1.6332 -0.1904 -0.2589
  424MOL0     H57185   3.050  10.449   4.148  2.5852  1.9286  2.0236
  424MOL0     H57186   3.031  10.447   4.318 -3.1760  0.3537 -2.3133
  424MOL0     H57187   3.269  10.411   4.255 -1.8101  0.6422 -2.0343
  424MOL0     H57188   3.237  10.270   4.145  1.6416 -3.1517  1.0321
  424MOL0     H57189   3.229  10.241   4.443  2.1406  0.7670 -0.3421
  424MOL0     H57190   3.199  10.117   4.316 -1.2895 -0.2598 -0.3507
  424MOL0     H57191   3.435  10.123   4.127 -0.4789 -0.6305  0.0061
  424MOL0     H57192   3.675  10.092   4.104 -2.7146  1.6210  0.9528
  424MOL0     H57193   3.750  10.252   4.143  0.0942  0.8877  2.0679
  424MOL0     H57194   3.847  10.167   4.350 -0.2299 -0.7329 -0.1535
  424MOL0     H57195   3.778  10.004   4.320 -0.2147  0.5783  0.3090
  424MOL0     H57196   3.991  10.162   4.168  0.0489  0.3613  1.8142
  424MOL0     H57197   3.930  10.009   4.096  0.2004 -2.1333  1.0110
  424MOL0     H57198   4.117   9.932   4.192 -0.0196 -0.6093  0.4812
  424MOL0     H57199   3.984   9.884   4.297  0.3257 -2.3265 -2.6637
  424MOL0     H57200   4.258   9.799   4.370 -1.5501 -1.5740  2.1684
  424MOL0     H57201   4.478   9.790   4.471  0.0248 -0.4376  2.4549
  424MOL0     H57202   4.846   9.820   4.477  2.1514 -0.8327 -1.1373
  424MOL0     H57203   5.100   9.836   4.499 -0.0839  0.6036 -0.6617
  424MOL0     H57204   5.300   9.785   4.614  1.3569  0.0115 -1.7213
  424MOL0     H57205   5.306   9.938   4.529  3.0928 -1.6501 -0.3999
  424MOL0     H57206   5.458  10.030   4.709 -0.9219 -0.3866  0.4006
  424MOL0     H57207   5.466   9.861   4.764 -1.2786 -2.1427 -1.0903
  424MOL0     H57208   5.547   9.794   4.530 -2.4658  1.3146 -3.0896
  424MOL0     H57209   5.526   9.962   4.486 -0.7169  2.6263  1.4097
  424MOL0     H57210   5.727   9.900   4.712  1.8978 -0.7406 -1.3598
  424MOL0     H57211   5.695  10.048   4.623 -2.1508 -0.9452 -0.3411
  424MOL0     H57212   5.752   9.924   4.410 -2.6652 -0.8860  0.7256
  424MOL0     H57213   5.824   9.797   4.495 -1.5366 -0.8328  1.6507
  424MOL0     H57214   5.912  10.083   4.469 -3.5354 -1.8487 -0.5636
  424MOL0     H57215   5.960   9.982   4.611 -2.2605 -0.8542  0.6076
  424MOL0     H57216   6.036   9.910   4.312  1.8163 -0.7762 -0.9576
  424MOL0     H57217   6.081   9.823   4.458 -1.9258 -0.2259 -0.1921
  424MOL0     H57218   6.154  10.111   4.374  2.0892  0.6431 -0.5598
  424MOL0     H57219   6.169  10.050   4.542 -0.3154  1.5624 -1.0279
  424MOL0     H57220   5.026   9.999   4.898  0.8181  0.1297 -0.6106
  424MOL0     H57221   4.787   9.958   4.882 -1.7602  1.2626 -1.2581
  424MOL0     H57222   4.456  10.212   4.563 -1.0511 -0.8248  2.0594
  424MOL0     H57223   4.235  10.219   4.454 -1.4094 -1.1242 -3.2335
  424MOL0     H57224   2.546   9.923   4.331  0.1614  0.8855 -1.2211
  424MOL0     H57225   2.418   9.722   4.342  1.7690  1.0768 -0.2563
  424MOL0     H57226   2.361   9.360   4.308  0.7026 -1.7630 -0.4579
  424MOL0     H57227   2.349   9.131   4.222 -0.5246  0.3847  1.0755
  424MOL0     H57228   2.221   8.843   4.038 -1.9453  0.8692 -5.3543
  424MOL0     H57229   2.326   8.958   4.132 -0.9155 -0.1667  0.9744
  424MOL0     H57230   2.420   8.872   3.908  0.7477  0.1119  1.9863
  424MOL0     H57231   2.406   9.048   3.912 -2.5011  0.9821 -1.0134
  424MOL0     H57232   2.341   8.953   3.703 -0.5373 -1.2291 -1.5206
  424MOL0     H57233   2.212   9.030   3.789  1.3453  0.0254  2.2725
  424MOL0     H57234   2.107   8.806   3.849 -0.3922 -0.4547 -0.8538
  424MOL0     H57235   2.138   8.808   3.672  0.5377 -0.4758 -0.5323
  424MOL0     H57236   2.393   8.500   3.774 -1.3613 -1.4034 -1.5653
  424MOL0     H57237   2.012   9.245   3.988 -1.3460  1.7007  1.1393
  424MOL0     H57238   1.940   9.554   4.166  2.0249 -0.6225 -0.2251
  424MOL0     H57239   2.018   9.561   4.010 -0.3914 -1.4381 -2.1661
  424MOL0     H57240   1.882   9.446   4.040 -0.5446 -0.1585 -0.5630
  425MOL0     O57241   1.794   7.587   0.799  0.8300  0.2201  0.6086
  425MOL0     C57242   1.807   7.711   0.800 -0.0152  0.0084 -0.9337
  425MOL0     O57243   1.837   7.788   0.908 -0.2911 -0.2873  0.0031
  425MOL0     C57244   1.843   7.731   1.032  0.6594  0.6025  0.2923
  425MOL0     C57245   1.967   7.682   1.078 -0.0602  0.8773  0.6712
  425MOL0     C57246   1.969   7.612   1.202  0.9161 -0.0791  0.1175
  425MOL0     C57247   1.847   7.577   1.267  0.1451  0.5436  0.4695
  425MOL0     O57248   1.843   7.500   1.385  0.5052  0.6848 -0.1304
  425MOL0     C57249   1.947   7.519   1.481  0.1579 -0.3430  0.1252
  425MOL0     C57250   1.924   7.442   1.601 -0.9117  0.2946 -0.2516
  425MOL0     C57251   2.024   7.465   1.704 -0.8044 -0.7289 -0.1417
  425MOL0     C57252   1.960   7.428   1.844 -0.5206  0.1497 -0.1307
  425MOL0     C57253   2.050   7.468   1.969 -0.1994 -1.0529  0.3741
  425MOL0     C57254   2.183   7.387   1.974  0.5386 -0.2603 -0.3237
  425MOL0     C57255   2.267   7.433   2.099  0.5115 -0.0425 -0.5121
  425MOL0     C57256   2.399   7.382   2.085 -1.0502  0.1096 -1.0032
  425MOL0     N57257   2.494   7.406   2.204  0.1064  0.7089  0.2201
  425MOL0     C57258   2.615   7.467   2.195  0.0924 -0.1678 -0.8056
  425MOL0     C57259   2.643   7.474   2.332 -0.1975 -0.1544  0.5618
  425MOL0     C57260   2.785   7.520   2.371  2.2430  0.1546  0.0748
  425MOL0     C57261   2.774   7.658   2.446  0.0352 -0.6096 -0.5717
  425MOL0     C57262   2.905   7.735   2.464  0.0213 -0.4423  0.0607
  425MOL0     C57263   3.020   7.646   2.530 -0.7198  0.0514 -0.1825
  425MOL0     O57264   3.085   7.572   2.423  0.3006  0.3605 -0.2605
  425MOL0     C57265   3.179   7.636   2.340 -0.5246 -1.1457  0.3404
  425MOL0     C57266   3.261   7.555   2.256  0.0782  0.2280  0.4292
  425MOL0     C57267   3.377   7.599   2.203  0.1465  0.4137  0.2398
  425MOL0     C57268   3.409   7.735   2.218  0.2406 -0.3226  0.2025
  425MOL0     C57269   3.516   7.790   2.129 -0.4827  0.0794  0.0429
  425MOL0     O57270   3.566   7.711   2.035 -0.5889 -0.7734 -0.3552
  425MOL0     C57271   3.697   7.741   2.006 -1.2326  0.1766 -0.2301
  425MOL0     C57272   3.719   7.795   1.876 -0.5404 -0.3586  0.1238
  425MOL0     C57273   3.845   7.849   1.840 -0.2514  0.1914  0.3617
  425MOL0     C57274   3.952   7.855   1.926 -0.2857 -0.1853 -0.1465
  425MOL0     O57275   4.074   7.914   1.893  0.3285 -1.0435 -0.0431
  425MOL0     C57276   4.200   7.902   1.971  0.6826  0.3989 -1.5975
  425MOL0     C57277   4.316   7.976   1.901  0.6304 -0.6282  0.9066
  425MOL0     C57278   4.437   8.003   1.989  0.1658  0.0999  0.4035
  425MOL0     C57279   4.575   8.043   1.933  0.5676 -0.4398  0.5431
  425MOL0     C57280   4.666   8.135   2.021  0.6581 -0.3184 -0.1137
  425MOL0     C57281   4.799   8.165   1.947 -0.1457  0.5663 -0.1408
  425MOL0     C57282   4.876   8.266   2.032  0.4673  0.3889 -1.4517
  425MOL0     C57283   4.978   8.348   1.963  0.0314  0.6570  0.1044
  425MOL0    Cl57284   5.110   8.230   1.903  0.5093 -0.2237  0.4469
  425MOL0     C57285   3.933   7.806   2.055  0.7725  0.2896 -0.0520
  425MOL0     C57286   3.807   7.738   2.096  0.3565  0.0716 -0.0641
  425MOL0     O57287   3.555   7.905   2.162  0.4887  0.7214 -0.6263
  425MOL0     C57288   3.326   7.826   2.286  1.0191 -0.6646  0.1161
  425MOL0     C57289   3.209   7.776   2.348 -0.1182  0.6033  0.1993
  425MOL0     N57290   2.564   7.398   2.406 -0.3092  0.5339  0.5447
  425MOL0     N57291   2.471   7.365   2.329  0.4324  0.4313 -0.1378
  425MOL0     C57292   1.723   7.619   1.211 -0.8721  0.0413  0.1323
  425MOL0     C57293   1.723   7.699   1.092  0.6287  0.5542 -0.2070
  425MOL0     C57294   1.805   7.780   0.665  0.1451  0.4962 -0.2715
  425MOL0     C57295   1.767   7.697   0.551  0.4706  0.0836 -0.2919
  425MOL0     C57296   1.779   7.737   0.411 -0.8684  0.4716  0.5595
  425MOL0     C57297   1.822   7.867   0.385 -0.4396 -0.6227 -0.4554
  425MOL0     O57298   1.850   7.910   0.257 -0.1096 -0.4890  0.3324
  425MOL0     C57299   1.738   7.900   0.166 -0.1757 -0.2423  0.3620
  425MOL0     C57300   1.793   7.976   0.046  0.7277 -0.5902  0.3521
  425MOL0     C57301   1.891   8.099   0.075  0.1686 -0.3249 -0.0856
  425MOL0     C57302   1.952   8.121  -0.057  0.9666  0.2835 -0.8236
  425MOL0     C57303   2.037   8.236  -0.030 -0.2886  0.5840 -0.1996
  425MOL0     C57304   2.120   8.326  -0.016  1.2603  0.5859  0.8100
  425MOL0     C57305   1.856   7.954   0.496 -0.8896  0.6119  0.0853
  425MOL0     C57306   1.851   7.910   0.627 -0.0406  0.1416  0.0265
  425MOL0     C57307   1.890   8.010   0.733  0.0349 -0.3341  0.2297
  425MOL0     H57308   2.062   7.710   1.033  0.5277  2.0065  2.5194
  425MOL0     H57309   2.061   7.571   1.241 -1.2364 -3.1528  2.3517
  425MOL0     H57310   2.048   7.495   1.446  2.1779 -1.2524  5.6087
  425MOL0     H57311   1.947   7.626   1.507  2.5637 -0.2896  0.1574
  425MOL0     H57312   1.921   7.334   1.580 -1.0804 -0.0157  1.2690
  425MOL0     H57313   1.823   7.471   1.629 -0.6564  3.1140 -1.8744
  425MOL0     H57314   2.048   7.571   1.716 -2.1648 -0.4771  0.5560
  425MOL0     H57315   2.115   7.405   1.691 -0.8958 -1.7878  3.0770
  425MOL0     H57316   1.865   7.477   1.867 -2.7409 -3.5749 -0.5838
  425MOL0     H57317   1.954   7.319   1.836  1.4046  0.1036 -1.7690
  425MOL0     H57318   2.064   7.577   1.973  1.2273 -1.1599 -0.8099
  425MOL0     H57319   1.981   7.433   2.047 -0.4985  0.2792  0.7395
  425MOL0     H57320   2.167   7.279   1.983  2.3430 -0.4985  0.3625
  425MOL0     H57321   2.244   7.412   1.886  1.3519  0.5605  0.4574
  425MOL0     H57322   2.225   7.403   2.195  1.8341  1.0313  0.4398
  425MOL0     H57323   2.278   7.542   2.103  2.6333 -0.2037 -0.5995
  425MOL0     H57324   2.397   7.273   2.075 -0.5760 -0.3196  2.2992
  425MOL0     H57325   2.443   7.420   1.993 -2.5249  1.0109 -1.3608
  425MOL0     H57326   2.668   7.505   2.109  1.1804 -1.2769 -0.6544
  425MOL0     H57327   2.841   7.451   2.434  1.8962  1.7785  2.2685
  425MOL0     H57328   2.841   7.541   2.279  0.2020 -1.3863 -1.6497
  425MOL0     H57329   2.693   7.724   2.414  1.5988  2.8225  1.9261
  425MOL0     H57330   2.741   7.639   2.548  2.3859 -0.0643  0.3630
  425MOL0     H57331   2.893   7.819   2.532  0.7946 -0.9575  0.8459
  425MOL0     H57332   2.940   7.781   2.371  1.6182  3.4583  2.3899
  425MOL0     H57333   2.985   7.587   2.615  1.8846 -1.4914 -0.0776
  425MOL0     H57334   3.094   7.712   2.576 -1.3433  0.6252  0.0000
  425MOL0     H57335   3.232   7.451   2.244  0.4388  0.1634  0.0886
  425MOL0     H57336   3.437   7.526   2.149 -0.6951  0.9756 -1.5336
  425MOL0     H57337   3.630   7.808   1.815 -2.0179  1.0269  2.4302
  425MOL0     H57338   3.867   7.899   1.747  1.4508 -0.3764  0.4093
  425MOL0     H57339   4.195   7.949   2.070  0.8416  0.1016 -1.4492
  425MOL0     H57340   4.229   7.798   1.987  0.4544  0.7676  2.1222
  425MOL0     H57341   4.325   7.922   1.807 -1.8520 -0.9409  0.7961
  425MOL0     H57342   4.269   8.071   1.874  2.0436 -0.2764 -0.3993
  425MOL0     H57343   4.421   8.066   2.077  0.4221 -0.6355  0.9749
  425MOL0     H57344   4.452   7.903   2.030  1.1470  0.1092  0.0902
  425MOL0     H57345   4.556   8.103   1.843  2.3336 -0.8089 -0.1041
  425MOL0     H57346   4.622   7.956   1.887 -0.4149 -1.0056  0.5733
  425MOL0     H57347   4.682   8.077   2.112  0.6623  1.9669  1.4200
  425MOL0     H57348   4.609   8.218   2.064 -0.0590 -1.0280  0.3227
  425MOL0     H57349   4.861   8.076   1.931  0.8866  1.3870 -0.8190
  425MOL0     H57350   4.776   8.213   1.851  1.2818 -2.6651 -2.2812
  425MOL0     H57351   4.920   8.205   2.111 -1.2689 -1.4716 -1.8053
  425MOL0     H57352   4.808   8.324   2.095  1.1635 -1.0568  0.7531
  425MOL0     H57353   4.943   8.404   1.876  3.8310  1.6003 -0.9704
  425MOL0     H57354   5.025   8.428   2.021  2.7607  1.0228 -2.3925
  425MOL0     H57355   3.997   7.832   2.139 -0.5503 -0.5534  1.2721
  425MOL0     H57356   3.812   7.704   2.199  1.1235 -1.5810 -0.6188
  425MOL0     H57357   3.338   7.934   2.284 -1.6637 -0.2838  0.7549
  425MOL0     H57358   3.146   7.840   2.409 -1.5353  0.4641 -1.0609
  425MOL0     H57359   1.632   7.588   1.260  1.2026 -1.8725  3.1278
  425MOL0     H57360   1.632   7.739   1.048  0.4795  0.2985 -0.1279
  425MOL0     H57361   1.722   7.598   0.556 -5.7453  2.4859 -0.4674
  425MOL0     H57362   1.756   7.675   0.325 -0.6973  2.5195 -1.0144
  425MOL0     H57363   1.657   7.959   0.211  0.0022  0.6238 -0.4274
  425MOL0     H57364   1.717   7.798   0.133  0.4104 -0.7807  1.5758
  425MOL0     H57365   1.703   8.013  -0.005  1.2668  0.1301 -0.0998
  425MOL0     H57366   1.842   7.907  -0.023  2.5801 -0.4953  1.4952
  425MOL0     H57367   1.963   8.082   0.156  0.7541 -2.6674 -1.0362
  425MOL0     H57368   1.834   8.184   0.116 -0.6541  0.0387 -1.8837
  425MOL0     H57369   2.004   8.026  -0.076  0.9202 -0.1106  0.8427
  425MOL0     H57370   1.889   8.152  -0.140  0.6431 -0.8706 -1.0364
  425MOL0     H57371   2.190   8.406  -0.003  3.6953 -1.3632  0.2977
  425MOL0     H57372   1.899   8.053   0.481 -0.8622  0.4245 -1.2061
  425MOL0     H57373   1.986   7.990   0.783  1.2460  1.4949 -1.2252
  425MOL0     H57374   1.906   8.107   0.684 -1.2311 -0.3692 -0.2793
  425MOL0     H57375   1.807   8.024   0.803  1.0871  3.0389  1.0108
  426MOL0     O57376   9.072   9.403   7.690 -0.6018 -0.0547 -0.4613
  426MOL0     C57377   9.055   9.414   7.572 -0.3006 -0.2968  0.4254
  426MOL0     O57378   8.934   9.421   7.505  0.4890  0.6672 -0.1800
  426MOL0     C57379   8.814   9.399   7.580 -0.5979  0.4616 -0.2397
  426MOL0     C57380   8.728   9.309   7.528  0.1421  0.7791 -0.4899
  426MOL0     C57381   8.592   9.286   7.578 -0.4715 -0.3161 -0.0922
  426MOL0     C57382   8.556   9.369   7.691  1.0655  1.5851 -0.7876
  426MOL0     O57383   8.436   9.355   7.748  0.8185  0.4169 -0.4639
  426MOL0     C57384   8.407   9.230   7.817  0.3668 -0.5906  0.7385
  426MOL0     C57385   8.277   9.161   7.777 -0.6360  0.4325  0.2110
  426MOL0     C57386   8.201   9.083   7.884  0.3233 -0.8776  0.0868
  426MOL0     C57387   8.095   8.984   7.832  0.0379  0.3912 -0.0865
  426MOL0     C57388   8.037   8.907   7.954  0.5136 -0.6652  0.4372
  426MOL0     C57389   7.920   8.809   7.920 -0.7071  0.3170  0.2845
  426MOL0     C57390   7.780   8.882   7.919  0.1485  0.2393  0.3149
  426MOL0     C57391   7.679   8.776   7.863  0.5161 -0.0986  0.0552
  426MOL0     N57392   7.542   8.829   7.835 -0.1010 -0.1622  0.2651
  426MOL0     C57393   7.519   8.952   7.789  0.5176  0.3107 -0.0233
  426MOL0     C57394   7.382   8.955   7.798 -0.3051 -0.5524  0.2930
  426MOL0     C57395   7.307   9.073   7.756 -0.0909 -0.5125  0.5123
  426MOL0     C57396   7.222   9.051   7.621 -0.5080  0.2712  1.1242
  426MOL0     C57397   7.183   9.169   7.532 -0.4420 -0.0356 -0.1943
  426MOL0     C57398   7.105   9.122   7.415  0.3005  1.2950  0.3691
  426MOL0     O57399   7.083   9.231   7.323  0.6962 -0.0822  0.1210
  426MOL0     C57400   6.958   9.227   7.254 -0.5373 -0.0030  0.0249
  426MOL0     C57401   6.904   9.113   7.213 -0.1527 -0.4228  0.4266
  426MOL0     C57402   6.783   9.113   7.139 -1.0015  0.0052  0.9504
  426MOL0     C57403   6.719   9.235   7.107  0.2823 -0.1913  0.9419
  426MOL0     C57404   6.592   9.232   7.026  0.3846  0.3303  0.3664
  426MOL0     O57405   6.544   9.349   7.023 -0.8620 -0.3185  0.0803
  426MOL0     C57406   6.419   9.360   6.988 -0.1674 -0.0460 -0.2673
  426MOL0     C57407   6.318   9.321   7.079 -0.8011 -0.0999  0.2825
  426MOL0     C57408   6.183   9.347   7.049 -0.2528 -0.2448 -0.2549
  426MOL0     C57409   6.142   9.424   6.936  0.6438 -0.0800 -0.2222
  426MOL0     O57410   6.010   9.443   6.905 -0.7850  0.1816  0.2460
  426MOL0     C57411   5.912   9.410   6.997  0.7133  0.1896 -0.5238
  426MOL0     C57412   5.771   9.421   6.931  0.1440 -0.1986  0.2397
  426MOL0     C57413   5.713   9.564   6.930 -0.1438  0.4914 -0.9174
  426MOL0     C57414   5.576   9.582   6.870 -0.8899 -0.2165  0.0944
  426MOL0     C57415   5.465   9.512   6.939  0.1184  0.2064 -0.0327
  426MOL0     C57416   5.330   9.584   6.894 -0.2529  0.2296  0.7031
  426MOL0     C57417   5.212   9.556   6.976  0.1380 -0.4113  0.7461
  426MOL0     C57418   5.084   9.629   6.938  0.5581 -0.4441 -0.4490
  426MOL0    Cl57419   5.109   9.807   6.954 -0.0567  0.4152  0.4708
  426MOL0     C57420   6.242   9.464   6.845 -0.0544  0.5308 -0.3319
  426MOL0     C57421   6.380   9.430   6.870  0.8904  0.7493 -0.3425
  426MOL0     O57422   6.557   9.139   6.957  0.8338  1.1837  0.4853
  426MOL0     C57423   6.784   9.355   7.144  0.9492 -1.1644  0.0593
  426MOL0     C57424   6.901   9.354   7.220 -0.3805  0.0360 -0.1153
  426MOL0     N57425   7.335   8.828   7.824 -0.2497  0.1742 -0.0672
  426MOL0     N57426   7.438   8.752   7.862 -0.1090 -0.6137 -0.1375
  426MOL0     C57427   8.644   9.465   7.738 -0.3980 -0.0689  0.4255
  426MOL0     C57428   8.776   9.477   7.688 -0.2226 -0.1352 -0.4343
  426MOL0     C57429   9.172   9.420   7.480 -0.5732 -0.2605  0.4776
  426MOL0     C57430   9.145   9.433   7.347  0.0679 -0.3243  1.0257
  426MOL0     C57431   9.250   9.437   7.256 -0.0727  0.3832 -0.5161
  426MOL0     C57432   9.387   9.424   7.290  0.1881 -0.3523 -0.5736
  426MOL0     O57433   9.489   9.415   7.196 -0.3180 -0.3794  0.2858
  426MOL0     C57434   9.614   9.478   7.236  0.3195  0.1128 -0.2694
  426MOL0     C57435   9.719   9.369   7.263  0.7057 -0.6474  0.3883
  426MOL0     C57436   9.850   9.434   7.300  0.7624  0.1609 -0.2093
  426MOL0     C57437   9.953   9.337   7.347  0.2228  0.3224  0.6091
  426MOL0     C57438   9.994   9.274   7.218 -0.1205 -1.1584  0.4758
  426MOL0     C57439  10.026   9.230   7.111  0.0975 -0.0284 -0.0548
  426MOL0     C57440   9.412   9.410   7.427 -0.0629  0.1367  0.2947
  426MOL0     C57441   9.312   9.411   7.525  0.9294  0.0043 -0.4862
  426MOL0     C57442   9.358   9.378   7.671 -0.2435 -0.2763 -1.2763
  426MOL0     H57443   8.759   9.242   7.448 -0.1807  1.3615 -1.1141
  426MOL0     H57444   8.520   9.214   7.540 -1.3639  1.1657 -1.3438
  426MOL0     H57445   8.495   9.165   7.809  0.7337 -0.0476  0.1897
  426MOL0     H57446   8.390   9.262   7.920  0.4713 -0.1169  0.6108
  426MOL0     H57447   8.293   9.094   7.692  0.6396 -2.0514  2.2715
  426MOL0     H57448   8.209   9.240   7.744  2.0822  2.7352 -0.1874
  426MOL0     H57449   8.154   9.157   7.949 -1.6038 -1.3555 -0.6930
  426MOL0     H57450   8.265   9.025   7.951  1.7175 -0.0247 -0.4559
  426MOL0     H57451   8.021   9.048   7.784  0.1316 -1.0983 -2.3419
  426MOL0     H57452   8.129   8.913   7.756  2.3100  0.7619  0.5070
  426MOL0     H57453   8.113   8.841   7.995  0.4895  0.0983  1.7659
  426MOL0     H57454   7.995   8.980   8.024 -0.2874 -0.8294  0.1403
  426MOL0     H57455   7.943   8.772   7.819  1.9810 -2.1208  1.6701
  426MOL0     H57456   7.911   8.726   7.990  3.1027 -1.1962 -0.7882
  426MOL0     H57457   7.792   8.966   7.850  0.1698 -0.6370 -0.7606
  426MOL0     H57458   7.746   8.922   8.015 -0.7635  0.7831 -0.2260
  426MOL0     H57459   7.716   8.744   7.766  1.1176 -2.1329  0.9111
  426MOL0     H57460   7.690   8.693   7.934  0.3727 -1.3690 -1.3630
  426MOL0     H57461   7.580   9.041   7.779 -0.9678  1.4989  0.8898
  426MOL0     H57462   7.228   9.090   7.829  0.6548 -2.0353  1.7357
  426MOL0     H57463   7.369   9.164   7.755  0.2767 -0.7590  0.2956
  426MOL0     H57464   7.280   8.986   7.555  0.4325  1.6124  0.5830
  426MOL0     H57465   7.132   8.998   7.652 -1.4259  1.3206  0.3414
  426MOL0     H57466   7.271   9.217   7.487 -0.7783 -0.5994 -1.4975
  426MOL0     H57467   7.130   9.250   7.584 -2.4143 -0.0820 -2.0084
  426MOL0     H57468   7.015   9.075   7.454  2.4159 -2.2744  1.4255
  426MOL0     H57469   7.148   9.038   7.361 -2.4823  1.9983 -3.3400
  426MOL0     H57470   6.953   9.016   7.218 -2.2743 -1.6369 -0.8752
  426MOL0     H57471   6.746   9.014   7.112  0.6354 -0.7990  1.4877
  426MOL0     H57472   6.346   9.264   7.167 -0.7418 -0.7035 -0.1188
  426MOL0     H57473   6.118   9.309   7.127  0.6198 -2.9825 -0.7588
  426MOL0     H57474   5.925   9.303   7.014 -1.5662 -0.1131 -0.3783
  426MOL0     H57475   5.921   9.472   7.087  1.4756 -1.4985  0.6045
  426MOL0     H57476   5.764   9.361   6.841 -0.2798 -0.8876  0.7234
  426MOL0     H57477   5.703   9.372   7.001 -0.9294 -0.5634 -1.0142
  426MOL0     H57478   5.705   9.590   7.036 -0.3654 -2.9681  0.0435
  426MOL0     H57479   5.779   9.640   6.887 -2.6540  2.5767 -1.3088
  426MOL0     H57480   5.572   9.556   6.764 -3.1760 -0.5300  0.1942
  426MOL0     H57481   5.564   9.690   6.875  0.4297 -0.0165 -0.6511
  426MOL0     H57482   5.489   9.520   7.045  2.7235 -1.5745 -0.3880
  426MOL0     H57483   5.468   9.405   6.914 -0.2323  0.8462 -3.2867
  426MOL0     H57484   5.355   9.690   6.907  1.2525 -0.0184 -0.0472
  426MOL0     H57485   5.299   9.572   6.790 -0.1677 -0.7273  0.7769
  426MOL0     H57486   5.229   9.589   7.079 -1.9544  0.5807  0.8168
  426MOL0     H57487   5.176   9.453   6.975 -1.6571  0.1659 -1.0385
  426MOL0     H57488   5.059   9.613   6.833  2.9396  2.3221 -1.5782
  426MOL0     H57489   4.998   9.598   6.998  2.0519 -1.5364  1.2308
  426MOL0     H57490   6.204   9.524   6.762 -0.5089  0.8735  0.1177
  426MOL0     H57491   6.451   9.471   6.799  1.3449  0.3358 -0.1286
  426MOL0     H57492   6.753   9.457   7.122  1.5778 -1.3612 -1.9413
  426MOL0     H57493   6.948   9.445   7.257 -1.7764  0.6835  0.1656
  426MOL0     H57494   8.609   9.524   7.822 -2.1985 -2.4166  1.4492
  426MOL0     H57495   8.843   9.556   7.719 -0.4884 -0.2083  0.3549
  426MOL0     H57496   9.048   9.441   7.299  1.3576 -5.0228 -3.1608
  426MOL0     H57497   9.226   9.455   7.151 -1.5044 -1.4902 -0.5482
  426MOL0     H57498   9.598   9.535   7.328 -1.5766 -1.2332  0.3122
  426MOL0     H57499   9.643   9.537   7.148  0.2281 -0.6708 -0.8337
  426MOL0     H57500   9.727   9.319   7.166 -2.0614  1.8142 -1.2846
  426MOL0     H57501   9.690   9.299   7.342 -0.7839  1.7027  2.0717
  426MOL0     H57502   9.830   9.512   7.374 -1.7747  0.0658 -0.6994
  426MOL0     H57503   9.888   9.485   7.211  0.9289  0.7164  0.1728
  426MOL0     H57504  10.039   9.386   7.393  2.2074 -1.4082 -1.0200
  426MOL0     H57505   9.905   9.271   7.419 -2.1357  0.7068 -0.4837
  426MOL0     H57506  10.057   9.186   7.018 -0.9598 -0.6661 -0.1193
  426MOL0     H57507   9.514   9.403   7.463 -0.5788 -0.1091  1.7973
  426MOL0     H57508   9.322   9.460   7.735 -1.0290 -0.8585 -0.9527
  426MOL0     H57509   9.323   9.284   7.714  1.7323 -0.0381  1.1130
  426MOL0     H57510   9.466   9.365   7.683 -0.1399  0.9761 -0.6952
  427MOL0     O57511   0.395  10.223  11.151 -0.0881  0.5251  0.5469
  427MOL0     C57512   0.317  10.191  11.231  0.2495  0.5415 -0.6443
  427MOL0     O57513   0.304  10.249  11.358  0.1564  0.0930  0.3322
  427MOL0     C57514   0.352  10.369  11.384 -0.3357  0.7501 -0.4447
  427MOL0     C57515   0.264  10.469  11.356 -0.5532 -0.2136  0.4826
  427MOL0     C57516   0.305  10.609  11.381  0.7758  0.5125  0.4862
  427MOL0     C57517   0.436  10.625  11.418 -0.8345  0.4578  0.4226
  427MOL0     O57518   0.497  10.740  11.452  0.8747 -0.3002 -0.1636
  427MOL0     C57519   0.449  10.862  11.395  0.1708  0.0836 -0.5256
  427MOL0     C57520   0.525  10.983  11.433  0.3434 -0.2223 -0.1216
  427MOL0     C57521   0.513  11.009  11.588  0.4906  0.1585  0.0405
  427MOL0     C57522   0.608  11.115  11.644  0.0511 -0.5007 -0.0809
  427MOL0     C57523   0.648  11.065  11.782  0.2840  0.3347 -1.3423
  427MOL0     C57524   0.661  11.193  11.867 -0.2599  0.1653  0.0143
  427MOL0     C57525   0.710  11.155  12.008  0.4860  0.7250 -0.8109
  427MOL0     C57526   0.855  11.112  12.015  0.5123  0.4448 -0.0307
  427MOL0     N57527   0.950  11.222  12.009 -0.7601  0.2587 -0.9357
  427MOL0     C57528   0.944  11.321  12.101  0.4406 -0.0964 -0.2838
  427MOL0     C57529   1.051  11.394  12.088 -1.0000 -0.9367 -0.6437
  427MOL0     C57530   1.086  11.506  12.180 -0.1945  0.2371 -0.5083
  427MOL0     C57531   1.221  11.563  12.147 -0.1829  0.2580  0.2300
  427MOL0     C57532   1.331  11.461  12.179 -0.3573 -0.6355 -0.5629
  427MOL0     C57533   1.460  11.494  12.100 -0.3990  0.2567  0.2618
  427MOL0     O57534   1.562  11.400  12.131 -0.0951  0.0806 -0.7886
  427MOL0     C57535   1.687  11.449  12.133  0.0249 -0.6846 -0.4326
  427MOL0     C57536   1.728  11.528  12.020  0.7154  0.6433 -0.0078
  427MOL0     C57537   1.848  11.594  12.023 -0.2171  0.5319  0.6364
  427MOL0     C57538   1.940  11.573  12.129 -0.0053 -0.4843  0.7709
  427MOL0     C57539   2.076  11.611  12.109 -0.3180  1.3363 -0.4314
  427MOL0     O57540   2.169  11.540  12.168  0.2677  0.4152  0.2214
  427MOL0     C57541   2.296  11.580  12.138  0.7364 -0.2925 -1.4369
  427MOL0     C57542   2.387  11.488  12.096 -0.4482 -0.6949 -0.3412
  427MOL0     C57543   2.521  11.518  12.096  0.4509  0.7133  0.2190
  427MOL0     C57544   2.570  11.643  12.121 -0.2378  0.1732  1.0215
  427MOL0     O57545   2.703  11.684  12.114  0.1612 -0.0048  0.1085
  427MOL0     C57546   2.813  11.606  12.061  0.4014  0.6474  0.2665
  427MOL0     C57547   2.940  11.690  12.055  0.6616  0.2932  0.0086
  427MOL0     C57548   3.045  11.609  11.984 -2.2131  0.6653 -0.2450
  427MOL0     C57549   3.179  11.681  11.981  0.4069  0.4689 -0.0070
  427MOL0     C57550   3.280  11.601  11.890  0.5209 -0.2701 -0.1004
  427MOL0     C57551   3.425  11.603  11.921 -0.3680 -0.1428  0.2213
  427MOL0     C57552   3.491  11.729  11.865  0.2656  0.6721  0.3682
  427MOL0     C57553   3.640  11.758  11.902  0.7690  0.7261 -0.4241
  427MOL0    Cl57554   3.728  11.607  11.922 -0.1245 -0.0494  0.4333
  427MOL0     C57555   2.479  11.736  12.167 -0.2990  0.8380 -0.1680
  427MOL0     C57556   2.346  11.708  12.177 -0.1056 -0.6973  0.5099
  427MOL0     O57557   2.098  11.701  12.034 -0.2544 -0.0240  0.5886
  427MOL0     C57558   1.900  11.491  12.244 -0.7864 -0.2344  0.6336
  427MOL0     C57559   1.775  11.438  12.242  0.2249 -0.2902  0.2776
  427MOL0     N57560   1.112  11.349  11.968 -0.0804 -0.1071 -0.3034
  427MOL0     N57561   1.051  11.248  11.923 -0.3433  0.7225 -0.2715
  427MOL0     C57562   0.526  10.521  11.442  0.8213  0.4133  0.3866
  427MOL0     C57563   0.487  10.395  11.423  0.0125 -0.4949  0.7165
  427MOL0     C57564   0.206  10.095  11.201  0.6477 -0.6171  0.2247
  427MOL0     C57565   0.125  10.054  11.303  0.1481 -0.3530  0.7640
  427MOL0     C57566   0.012   9.975  11.279 -0.1162 -0.8058 -0.2716
  427MOL0     C57567  -0.035   9.939  11.150 -0.2257 -0.6678  0.3678
  427MOL0     O57568  -0.154   9.888  11.112  0.6096  0.1669  0.2822
  427MOL0     C57569  -0.269   9.944  11.178  0.4781 -0.6886  0.2109
  427MOL0     C57570  -0.399   9.863  11.176 -0.0468  0.7434  0.2000
  427MOL0     C57571  -0.383   9.732  11.261  0.4791 -0.4260 -0.4832
  427MOL0     C57572  -0.526   9.669  11.292 -0.0618 -0.3946  0.2748
  427MOL0     C57573  -0.627   9.665  11.187  0.8304 -0.1181  0.3212
  427MOL0     C57574  -0.717   9.660  11.106 -1.1778  0.2070 -0.0650
  427MOL0     C57575   0.062   9.954  11.056  0.3407  0.4428 -0.0792
  427MOL0     C57576   0.180  10.030  11.073 -0.7915  0.0785 -0.0497
  427MOL0     C57577   0.258  10.051  10.947  0.4433 -0.1457 -0.2927
  427MOL0     H57578   0.164  10.451  11.317 -1.0470  2.5385  0.3091
  427MOL0     H57579   0.249  10.701  11.367  0.6479  0.9645  3.4504
  427MOL0     H57580   0.437  10.864  11.286 -1.1642  5.4774 -0.5591
  427MOL0     H57581   0.350  10.875  11.439  1.6080  0.6748  2.7984
  427MOL0     H57582   0.491  11.067  11.373 -0.5279  0.8358  1.7642
  427MOL0     H57583   0.632  10.969  11.411  1.3477 -1.2349  4.3394
  427MOL0     H57584   0.535  10.913  11.635 -3.1634 -0.4102  0.9153
  427MOL0     H57585   0.414  11.046  11.617  1.0421  2.5951 -0.8869
  427MOL0     H57586   0.700  11.123  11.585  0.9378 -1.5859  1.0850
  427MOL0     H57587   0.554  11.210  11.643  1.3950  0.2940  0.1990
  427MOL0     H57588   0.569  10.999  11.820 -1.5332  1.7146 -2.5344
  427MOL0     H57589   0.737  11.003  11.768  0.9545  1.3035 -1.4561
  427MOL0     H57590   0.734  11.264  11.827 -0.3709  1.7793  2.4385
  427MOL0     H57591   0.574  11.260  11.866 -0.4508  0.0936 -3.8613
  427MOL0     H57592   0.647  11.073  12.042 -1.0264  0.9085 -2.9804
  427MOL0     H57593   0.694  11.237  12.079  3.6692  0.7332  0.0813
  427MOL0     H57594   0.878  11.050  12.102 -2.1118 -1.1204 -0.3622
  427MOL0     H57595   0.873  11.044  11.931 -1.4380 -1.4379  0.9672
  427MOL0     H57596   0.870  11.330  12.180  1.6356  1.9662  0.6778
  427MOL0     H57597   1.012  11.585  12.168 -1.4173 -1.1103 -2.5116
  427MOL0     H57598   1.094  11.468  12.282  0.6298  1.0136 -0.2817
  427MOL0     H57599   1.220  11.585  12.040 -0.7689  3.7224  0.8336
  427MOL0     H57600   1.222  11.655  12.206  1.5818 -0.7688  1.9090
  427MOL0     H57601   1.308  11.357  12.154  1.8055 -1.1381 -0.7101
  427MOL0     H57602   1.346  11.469  12.287 -1.9460 -0.1433 -0.3516
  427MOL0     H57603   1.495  11.593  12.132  2.0493  0.6829 -3.1872
  427MOL0     H57604   1.451  11.482  11.992  2.3917 -0.2345  0.0208
  427MOL0     H57605   1.676  11.520  11.925  0.6681 -4.5866  0.1448
  427MOL0     H57606   1.879  11.639  11.929  0.4672 -2.9441 -0.9822
  427MOL0     H57607   2.347  11.388  12.081  0.7146 -0.9210 -2.3228
  427MOL0     H57608   2.587  11.433  12.084 -2.0733 -1.5160  1.1265
  427MOL0     H57609   2.824  11.532  12.142 -1.8112 -0.6028 -0.4890
  427MOL0     H57610   2.796  11.549  11.969 -0.6771 -3.0996  2.5476
  427MOL0     H57611   2.921  11.789  12.013 -0.2844 -0.0481 -0.4031
  427MOL0     H57612   2.980  11.693  12.156 -1.0009 -0.1298  0.7156
  427MOL0     H57613   3.063  11.515  12.037  1.4062  0.2282 -1.9605
  427MOL0     H57614   3.010  11.587  11.883  1.3896 -0.0919 -1.4601
  427MOL0     H57615   3.221  11.672  12.081  2.0816 -1.3421 -0.8090
  427MOL0     H57616   3.179  11.783  11.941  1.9068  0.7479  0.6488
  427MOL0     H57617   3.264  11.635  11.787 -0.5903  1.0469  0.4759
  427MOL0     H57618   3.251  11.495  11.887  1.0872 -0.5817  2.8535
  427MOL0     H57619   3.455  11.594  12.026  0.6291 -1.1088 -0.1155
  427MOL0     H57620   3.471  11.511  11.884  0.5514  0.4326 -0.0979
  427MOL0     H57621   3.426  11.815  11.883  0.1670  1.0421 -1.5310
  427MOL0     H57622   3.499  11.698  11.760  0.3215 -0.7975  0.7815
  427MOL0     H57623   3.703  11.810  11.829  0.6191 -0.6022 -1.5613
  427MOL0     H57624   3.641  11.811  11.997 -4.3017  1.9039 -0.7648
  427MOL0     H57625   2.514  11.831  12.204 -0.2991  2.6869 -4.3838
  427MOL0     H57626   2.286  11.784  12.226  2.1980  0.9927  0.8999
  427MOL0     H57627   1.970  11.474  12.325  3.3508  3.9297 -1.5418
  427MOL0     H57628   1.733  11.393  12.331 -0.3169 -0.2051  0.0691
  427MOL0     H57629   0.623  10.537  11.488 -0.1059  0.6268  2.3473
  427MOL0     H57630   0.553  10.312  11.447 -1.3876 -1.3160  1.9487
  427MOL0     H57631   0.150  10.093  11.401  0.8255 -1.5887  1.1019
  427MOL0     H57632  -0.045   9.959  11.369  1.9739  2.2900  1.8267
  427MOL0     H57633  -0.302  10.025  11.112 -1.9584 -0.1263  2.0031
  427MOL0     H57634  -0.254   9.978  11.280  1.2086 -1.3695  0.3386
  427MOL0     H57635  -0.423   9.842  11.072 -0.3945  0.1026  0.4009
  427MOL0     H57636  -0.486   9.920  11.210  0.0432  2.0444 -1.6605
  427MOL0     H57637  -0.328   9.740  11.354  1.4518 -3.0746 -0.7401
  427MOL0     H57638  -0.331   9.655  11.202  1.0357 -1.5201  1.3343
  427MOL0     H57639  -0.516   9.571  11.340  0.5819 -1.0651 -1.1670
  427MOL0     H57640  -0.569   9.735  11.368  0.8058  0.6419 -0.1133
  427MOL0     H57641  -0.796   9.665  11.034 -1.3687 -1.7220 -0.0578
  427MOL0     H57642   0.047   9.919  10.955 -1.9421 -2.3128  1.0652
  427MOL0     H57643   0.366  10.055  10.964  0.5074  1.2976 -0.9657
  427MOL0     H57644   0.235   9.968  10.879  0.0269  0.1031 -0.4546
  427MOL0     H57645   0.236  10.148  10.904 -0.4635  0.5505  1.6484
  428MOL0     O57646   6.826   4.242   3.982 -0.1975  0.0992  0.1922
  428MOL0     C57647   6.750   4.337   4.008  1.3726 -0.2247  1.1389
  428MOL0     O57648   6.793   4.461   4.049 -0.3139  0.5083  0.0528
  428MOL0     C57649   6.933   4.491   4.062  0.0640 -0.3157  0.1585
  428MOL0     C57650   6.986   4.596   3.995 -0.2244  0.3053 -0.1794
  428MOL0     C57651   7.120   4.627   4.005 -0.3734  0.0166  0.3189
  428MOL0     C57652   7.205   4.548   4.082  0.0592 -0.5223 -0.2351
  428MOL0     O57653   7.333   4.583   4.109 -1.3119  0.0259  0.8250
  428MOL0     C57654   7.380   4.704   4.043  0.6290  0.3371 -0.6227
  428MOL0     C57655   7.535   4.718   4.039 -0.2875  0.4409 -0.3234
  428MOL0     C57656   7.579   4.835   3.947  0.2073 -0.1840 -0.4974
  428MOL0     C57657   7.735   4.868   3.957  0.1936  0.1252  0.7585
  428MOL0     C57658   7.774   4.986   3.872 -1.1808 -0.3915  0.0672
  428MOL0     C57659   7.924   4.978   3.828  0.5348 -0.4556  0.2361
  428MOL0     C57660   7.943   5.084   3.724 -0.3905 -0.2512  0.6471
  428MOL0     C57661   8.093   5.059   3.683  0.3148 -0.2072  0.6655
  428MOL0     N57662   8.189   5.141   3.759 -0.5459  0.3947  1.0442
  428MOL0     C57663   8.207   5.273   3.747  0.2012  0.3108  0.6340
  428MOL0     C57664   8.297   5.303   3.842  0.0275  0.4036  0.0926
  428MOL0     C57665   8.349   5.431   3.886 -0.1699 -0.2561 -0.9934
  428MOL0     C57666   8.499   5.431   3.869 -0.5527  0.0292  0.0816
  428MOL0     C57667   8.553   5.572   3.853 -0.3959 -0.5070  0.1517
  428MOL0     C57668   8.691   5.586   3.789 -1.0930 -0.3877  0.3609
  428MOL0     O57669   8.795   5.533   3.874 -1.0419 -0.3163  0.9187
  428MOL0     C57670   8.922   5.580   3.860  0.7356 -0.1043 -0.6810
  428MOL0     C57671   9.009   5.557   3.968 -0.2095  0.0691  0.0792
  428MOL0     C57672   9.143   5.595   3.958  0.1529  0.5569  0.9164
  428MOL0     C57673   9.185   5.654   3.838 -0.2754 -0.5022  0.5409
  428MOL0     C57674   9.331   5.695   3.819 -0.4841 -0.2084  0.4001
  428MOL0     O57675   9.419   5.697   3.920 -0.7494 -1.0747 -0.1198
  428MOL0     C57676   9.555   5.708   3.898  0.1968 -0.3171  0.8756
  428MOL0     C57677   9.635   5.597   3.927  1.0322  0.3453  0.2391
  428MOL0     C57678   9.771   5.610   3.917  0.4343 -0.0818  0.0560
  428MOL0     C57679   9.827   5.732   3.868 -1.5651  0.2792 -0.9571
  428MOL0     O57680   9.968   5.725   3.844  0.6891 -0.0007 -0.0743
  428MOL0     C57681  10.049   5.714   3.965  0.7915  0.3666  0.8850
  428MOL0     C57682  10.194   5.727   3.926 -0.3570  0.1694  0.0829
  428MOL0     C57683  10.238   5.861   3.877  0.7400 -0.5185 -0.8595
  428MOL0     C57684  10.375   5.853   3.801  0.4416  0.0965  0.6087
  428MOL0     C57685  10.475   5.755   3.858  0.6555  0.5267  0.3371
  428MOL0     C57686  10.618   5.757   3.796 -0.3122  0.3624  0.0093
  428MOL0     C57687  10.701   5.865   3.875  0.2912  0.1029  0.0407
  428MOL0     C57688  10.853   5.847   3.849 -0.2233 -0.4570  0.0723
  428MOL0    Cl57689  10.875   5.893   3.676  0.0699  0.2152 -0.5731
  428MOL0     C57690   9.752   5.840   3.857  0.3958 -0.0621  0.1498
  428MOL0     C57691   9.612   5.831   3.860  0.2149  0.7875 -1.0537
  428MOL0     O57692   9.357   5.726   3.704  0.7376 -0.5046  1.1073
  428MOL0     C57693   9.102   5.669   3.731 -0.3212  0.5918  0.3353
  428MOL0     C57694   8.975   5.635   3.748  0.7940 -0.3855  0.3154
  428MOL0     N57695   8.344   5.186   3.895 -0.2944  0.4245  0.2617
  428MOL0     N57696   8.281   5.087   3.843 -0.3085 -0.1321 -0.3936
  428MOL0     C57697   7.151   4.446   4.160  0.0743  0.8815 -0.0286
  428MOL0     C57698   7.011   4.416   4.149 -0.5249  0.2364  0.3288
  428MOL0     C57699   6.607   4.324   3.980  0.3767 -0.1516  1.0382
  428MOL0     C57700   6.558   4.197   3.955 -0.2595 -0.5770  0.3107
  428MOL0     C57701   6.427   4.170   3.914  0.2223 -0.2732 -0.1644
  428MOL0     C57702   6.338   4.276   3.896 -0.3010 -1.2602 -0.2643
  428MOL0     O57703   6.200   4.262   3.873 -0.4280  0.6921 -0.1706
  428MOL0     C57704   6.159   4.130   3.845  0.0180  0.0224  0.6359
  428MOL0     C57705   6.010   4.108   3.850  0.2299  0.0910  0.6574
  428MOL0     C57706   5.921   4.196   3.753 -0.1264  0.6797  0.3079
  428MOL0     C57707   5.931   4.148   3.609  0.3197 -0.2363  0.1032
  428MOL0     C57708   5.876   4.247   3.512 -1.3711 -1.0099 -0.6324
  428MOL0     C57709   5.844   4.339   3.436 -0.2068  0.8804  0.4258
  428MOL0     C57710   6.376   4.404   3.910 -0.2344  0.1131  0.3473
  428MOL0     C57711   6.511   4.431   3.955  0.4856 -0.3831 -0.2675
  428MOL0     C57712   6.553   4.581   3.937 -1.2860  1.5693 -0.8105
  428MOL0     H57713   6.922   4.661   3.936  3.0308  2.4358 -1.6675
  428MOL0     H57714   7.146   4.715   3.947 -3.6473  1.0090  0.1138
  428MOL0     H57715   7.367   4.691   3.935  2.8483  3.4185 -1.3908
  428MOL0     H57716   7.329   4.795   4.074  0.6758 -0.4045  1.7717
  428MOL0     H57717   7.597   4.630   4.021 -1.1866 -0.2360 -0.1611
  428MOL0     H57718   7.557   4.749   4.142 -1.8230 -1.1466  0.5419
  428MOL0     H57719   7.524   4.922   3.984  2.4435  0.5329  1.4076
  428MOL0     H57720   7.553   4.806   3.845 -0.4393  0.5425 -0.5454
  428MOL0     H57721   7.768   4.892   4.058  3.2234  0.7159 -0.2736
  428MOL0     H57722   7.785   4.775   3.928 -0.2920 -0.3318  1.3622
  428MOL0     H57723   7.707   4.997   3.786 -2.2782  1.7499  1.1356
  428MOL0     H57724   7.763   5.077   3.932  2.6185  0.7962 -0.7497
  428MOL0     H57725   7.990   4.988   3.915 -0.4608  1.0856  0.8479
  428MOL0     H57726   7.951   4.882   3.783 -0.4452 -1.3497  1.4728
  428MOL0     H57727   7.941   5.184   3.769 -1.5421  0.3374 -0.6457
  428MOL0     H57728   7.869   5.069   3.644 -1.4432 -1.7001  1.8375
  428MOL0     H57729   8.129   4.955   3.680  1.7743  0.2908 -0.5624
  428MOL0     H57730   8.108   5.085   3.578 -1.6254  3.2734  1.1191
  428MOL0     H57731   8.151   5.348   3.693  0.7880  0.5990  0.4258
  428MOL0     H57732   8.308   5.499   3.810  1.9583  0.4893 -1.5349
  428MOL0     H57733   8.320   5.467   3.985  2.0910  1.8821 -1.0150
  428MOL0     H57734   8.547   5.384   3.956 -1.6906  0.5790  1.0270
  428MOL0     H57735   8.522   5.366   3.784  0.9973  2.1736 -1.2418
  428MOL0     H57736   8.559   5.627   3.947 -0.9543 -1.7273  0.9324
  428MOL0     H57737   8.487   5.626   3.784 -1.7876 -1.2756  0.8463
  428MOL0     H57738   8.710   5.693   3.781  2.3215 -0.6824  2.5530
  428MOL0     H57739   8.689   5.529   3.695  1.2508 -1.7403  1.0504
  428MOL0     H57740   8.980   5.531   4.069  1.5642 -1.3841  0.2615
  428MOL0     H57741   9.213   5.583   4.039  1.6039  2.4591  0.0044
  428MOL0     H57742   9.584   5.506   3.954  0.1864  1.0216  0.9881
  428MOL0     H57743   9.826   5.519   3.939 -1.5922 -2.0963 -2.6635
  428MOL0     H57744  10.010   5.783   4.040 -2.7982 -3.3971  2.9470
  428MOL0     H57745  10.038   5.612   4.004  1.8480  0.0349  0.3685
  428MOL0     H57746  10.252   5.715   4.018  0.9940  2.3714 -0.4205
  428MOL0     H57747  10.223   5.645   3.859 -0.4947 -0.4934  0.8229
  428MOL0     H57748  10.163   5.898   3.806  1.6306 -2.5300 -2.9869
  428MOL0     H57749  10.247   5.920   3.969 -0.4717  2.1894 -2.3623
  428MOL0     H57750  10.422   5.952   3.803  0.1607  0.2713 -0.6209
  428MOL0     H57751  10.347   5.818   3.701 -1.2290  0.2324  1.0115
  428MOL0     H57752  10.451   5.654   3.825 -1.3655  1.0160  0.1480
  428MOL0     H57753  10.483   5.764   3.966  0.5393  0.4953  0.3486
  428MOL0     H57754  10.673   5.663   3.804  1.5929  1.4797  0.5201
  428MOL0     H57755  10.610   5.768   3.688 -1.2975 -2.1524 -0.2472
  428MOL0     H57756  10.677   5.861   3.981  1.6669  2.0011  0.4778
  428MOL0     H57757  10.683   5.965   3.836  3.1706  0.0641 -1.7108
  428MOL0     H57758  10.912   5.913   3.913 -2.2808 -0.0370  1.6479
  428MOL0     H57759  10.888   5.748   3.876 -2.7164 -1.7039 -0.9265
  428MOL0     H57760   9.786   5.940   3.834  0.8871 -0.1412  0.5248
  428MOL0     H57761   9.547   5.915   3.837 -1.0314 -0.0247 -0.5850
  428MOL0     H57762   9.128   5.719   3.638  0.9201 -1.7482 -0.6399
  428MOL0     H57763   8.908   5.644   3.663  0.7286  1.2012  0.4941
  428MOL0     H57764   7.203   4.403   4.245 -1.6077 -1.6001 -0.1774
  428MOL0     H57765   6.957   4.347   4.213 -0.9794  0.4206  0.1538
  428MOL0     H57766   6.625   4.114   3.975 -0.6130 -0.6094  1.4420
  428MOL0     H57767   6.394   4.067   3.915 -0.4251 -0.1117  2.0153
  428MOL0     H57768   6.199   4.058   3.917 -1.5758 -0.4438  1.0735
  428MOL0     H57769   6.199   4.107   3.745  1.2208  0.1134  1.0768
  428MOL0     H57770   5.970   4.131   3.950  3.3357 -0.1767  2.0755
  428MOL0     H57771   5.988   4.004   3.827 -3.0946  0.6856  0.6417
  428MOL0     H57772   5.963   4.296   3.770  0.2599  0.1293  3.1572
  428MOL0     H57773   5.821   4.188   3.797  1.8822  3.4000  6.6005
  428MOL0     H57774   6.032   4.128   3.574  1.0789 -0.9616  2.5050
  428MOL0     H57775   5.883   4.050   3.603  1.4661 -0.6967 -3.3313
  428MOL0     H57776   5.811   4.421   3.375 -0.7197  0.2745 -0.1350
  428MOL0     H57777   6.304   4.484   3.906  0.8529  1.0554 -1.3906
  428MOL0     H57778   6.613   4.620   4.020 -2.4472  0.2715  0.6930
  428MOL0     H57779   6.604   4.589   3.840 -0.8825 -0.5159 -0.8147
  428MOL0     H57780   6.465   4.646   3.943 -2.9134 -0.6878  0.9301
  429MOL0     O57781   9.023   6.011   7.606  0.6980 -0.1317  0.0358
  429MOL0     C57782   8.938   6.092   7.570 -0.7951  0.2392 -0.0824
  429MOL0     O57783   8.966   6.221   7.530  0.0847 -0.4613  0.1949
  429MOL0     C57784   9.088   6.265   7.528  0.5897 -0.2351 -0.1152
  429MOL0     C57785   9.109   6.351   7.416 -1.0969 -0.4418 -0.1394
  429MOL0     C57786   9.240   6.407   7.413  0.7253  0.1226  0.0225
  429MOL0     C57787   9.336   6.392   7.517  0.1103 -0.4745  0.2683
  429MOL0     O57788   9.463   6.447   7.512  0.1474 -0.6233  0.1913
  429MOL0     C57789   9.520   6.534   7.417 -0.2203 -0.7727  0.3296
  429MOL0     C57790   9.592   6.452   7.302  0.1538 -0.0932 -0.5437
  429MOL0     C57791   9.674   6.329   7.347  0.1871  0.3615 -0.1649
  429MOL0     C57792   9.788   6.350   7.435  0.2562  0.4929  0.3179
  429MOL0     C57793   9.862   6.222   7.438  0.3196 -0.1949 -0.4439
  429MOL0     C57794   9.983   6.211   7.535  0.1011  0.1455 -0.2568
  429MOL0     C57795  10.077   6.328   7.523  0.1058 -0.0280  0.3013
  429MOL0     C57796  10.188   6.315   7.416  0.4432 -0.7739 -0.8449
  429MOL0     N57797  10.299   6.224   7.444  0.3180 -0.0038 -0.2138
  429MOL0     C57798  10.412   6.264   7.508 -0.2743  1.1425  0.4884
  429MOL0     C57799  10.476   6.143   7.536 -0.2610 -0.4806 -0.8619
  429MOL0     C57800  10.596   6.128   7.624  1.1036 -0.1991 -0.9336
  429MOL0     C57801  10.688   6.027   7.557 -0.4296 -0.8648 -0.3965
  429MOL0     C57802  10.832   6.041   7.620 -0.0198  1.4841  0.0470
  429MOL0     C57803  10.927   5.935   7.560  0.0872  0.0267 -0.5086
  429MOL0     O57804  10.890   5.798   7.610 -0.0648 -0.3480 -0.6925
  429MOL0     C57805  10.983   5.702   7.626  0.1674  0.7821  0.5172
  429MOL0     C57806  11.123   5.715   7.603  1.0751  0.4987  0.2542
  429MOL0     C57807  11.205   5.609   7.628 -0.2203 -0.5625  0.5328
  429MOL0     C57808  11.167   5.479   7.678 -0.3225 -0.8783  0.3479
  429MOL0     C57809  11.253   5.374   7.728 -0.0198  0.3806 -0.3353
  429MOL0     O57810  11.202   5.248   7.714 -0.0658  0.3839 -0.3866
  429MOL0     C57811  11.296   5.141   7.740  0.6488  0.1206 -0.4466
  429MOL0     C57812  11.309   5.045   7.640 -0.7185  0.2980 -0.1439
  429MOL0     C57813  11.417   4.959   7.632  0.4787  0.3008  0.4371
  429MOL0     C57814  11.508   4.962   7.736  0.0001 -0.5559  0.3094
  429MOL0     O57815  11.618   4.880   7.739 -0.0803 -1.1237 -0.5350
  429MOL0     C57816  11.711   4.893   7.632 -0.9686  1.7120 -0.0631
  429MOL0     C57817  11.807   4.773   7.621 -0.4412 -0.2212  0.1526
  429MOL0     C57818  11.925   4.821   7.543  0.4608  1.2337  0.2258
  429MOL0     C57819  11.977   4.700   7.461  0.0959 -0.2638 -0.4247
  429MOL0     C57820  12.127   4.719   7.416  0.3220 -0.5153 -0.3291
  429MOL0     C57821  12.196   4.609   7.335 -0.5270  0.7945  0.2408
  429MOL0     C57822  12.264   4.495   7.420  0.1545  0.7229 -0.3844
  429MOL0     C57823  12.348   4.390   7.347  0.4700 -0.2588  1.3585
  429MOL0    Cl57824  12.495   4.481   7.281  0.1023 -0.3031  0.3762
  429MOL0     C57825  11.487   5.054   7.844  0.6186  0.6487  0.0929
  429MOL0     C57826  11.381   5.140   7.848  0.1995  0.2856  0.7515
  429MOL0     O57827  11.358   5.408   7.774  0.1839 -0.3173 -0.5325
  429MOL0     C57828  11.031   5.464   7.696  0.3569 -0.0301 -0.3674
  429MOL0     C57829  10.936   5.574   7.674 -0.0355 -0.3507 -0.3557
  429MOL0     N57830  10.397   6.042   7.497 -0.0285 -0.9209  0.4230
  429MOL0     N57831  10.288   6.091   7.431  0.5925 -0.0515 -0.2334
  429MOL0     C57832   9.303   6.319   7.623 -0.9910 -0.4879 -0.3058
  429MOL0     C57833   9.184   6.251   7.633  0.2887 -0.9154  0.6750
  429MOL0     C57834   8.795   6.054   7.578  0.5940 -0.8559  0.2072
  429MOL0     C57835   8.703   6.134   7.508  0.3462 -0.1795  0.3962
  429MOL0     C57836   8.560   6.111   7.519  0.5674 -0.5127  0.3340
  429MOL0     C57837   8.513   6.005   7.601  0.7788  0.5092  0.3515
  429MOL0     O57838   8.378   5.979   7.596  0.5481  0.2548  0.0189
  429MOL0     C57839   8.275   6.081   7.613  0.3635  0.3429  0.4526
  429MOL0     C57840   8.128   6.026   7.635  0.7076 -0.9035  0.3087
  429MOL0     C57841   8.119   5.910   7.733  0.6392 -0.4759 -0.7913
  429MOL0     C57842   7.987   5.837   7.742  0.4954  0.6347 -0.6612
  429MOL0     C57843   7.974   5.764   7.866 -0.3727  1.0919  0.2691
  429MOL0     C57844   7.968   5.701   7.968 -1.2058  0.4246 -0.0070
  429MOL0     C57845   8.605   5.919   7.650 -0.7672 -0.0508 -1.2821
  429MOL0     C57846   8.748   5.940   7.649 -0.1521  0.1725  0.2618
  429MOL0     C57847   8.834   5.854   7.741  0.0116  0.4772  0.1162
  429MOL0     H57848   9.029   6.366   7.345 -2.7488 -0.8577  1.5793
  429MOL0     H57849   9.257   6.453   7.316  1.3912 -2.0264 -0.9385
  429MOL0     H57850   9.440   6.599   7.382 -1.3600 -0.5095  3.2016
  429MOL0     H57851   9.590   6.601   7.469 -1.8632  1.6703 -0.4423
  429MOL0     H57852   9.664   6.521   7.256  1.9198  0.3121  2.5392
  429MOL0     H57853   9.523   6.417   7.225  1.5077  0.8770 -2.2762
  429MOL0     H57854   9.716   6.279   7.259 -1.0410  1.0109 -1.1539
  429MOL0     H57855   9.612   6.253   7.395  3.1983 -2.9055 -1.0549
  429MOL0     H57856   9.849   6.421   7.379  1.1924 -1.3329 -1.0865
  429MOL0     H57857   9.756   6.383   7.534  1.6797 -0.3051  1.0810
  429MOL0     H57858   9.794   6.145   7.476  0.4279  0.0499  0.2438
  429MOL0     H57859   9.889   6.203   7.333 -1.0183  0.9542 -1.0373
  429MOL0     H57860   9.942   6.212   7.637 -0.6120  0.3594 -0.5393
  429MOL0     H57861  10.023   6.110   7.526 -2.1666 -0.7599 -1.0632
  429MOL0     H57862  10.122   6.337   7.622  0.1075 -3.8018  0.7829
  429MOL0     H57863  10.026   6.424   7.506 -0.1358 -0.5030 -1.9217
  429MOL0     H57864  10.145   6.274   7.324  1.3533 -0.8102 -1.2645
  429MOL0     H57865  10.221   6.417   7.396  1.7120 -1.0917 -0.4646
  429MOL0     H57866  10.419   6.370   7.533 -0.7317  1.1443  0.6292
  429MOL0     H57867  10.650   6.222   7.628 -1.0672  1.1010 -0.5699
  429MOL0     H57868  10.575   6.106   7.729  1.0903 -0.6649 -1.0304
  429MOL0     H57869  10.644   5.927   7.564 -1.7240 -1.1099 -6.4763
  429MOL0     H57870  10.702   6.052   7.452  0.3697  0.2238 -0.0549
  429MOL0     H57871  10.837   6.027   7.729  2.4763  1.7393  0.0389
  429MOL0     H57872  10.875   6.141   7.608  3.7482  0.1490  0.9743
  429MOL0     H57873  11.026   5.965   7.596  0.7414 -0.2621 -2.0141
  429MOL0     H57874  10.925   5.941   7.451  1.1967  4.1949 -0.4841
  429MOL0     H57875  11.175   5.807   7.578  3.8070 -0.0035  3.3365
  429MOL0     H57876  11.311   5.630   7.619 -0.2494 -0.4505  0.4477
  429MOL0     H57877  11.243   5.045   7.553 -1.2874 -3.3922  0.1264
  429MOL0     H57878  11.428   4.888   7.551 -0.0130  0.4021  0.2796
  429MOL0     H57879  11.672   4.909   7.531 -0.1350 -0.9208 -0.8882
  429MOL0     H57880  11.764   4.987   7.651 -1.6041  2.2923 -1.0906
  429MOL0     H57881  11.838   4.736   7.719 -1.7418  1.2794  1.1870
  429MOL0     H57882  11.750   4.695   7.570 -0.7337 -1.4667  2.2863
  429MOL0     H57883  11.908   4.904   7.472 -0.7800  0.3644 -0.5539
  429MOL0     H57884  11.998   4.860   7.614  3.4091 -1.1629 -1.2567
  429MOL0     H57885  11.915   4.685   7.373 -0.2875 -2.2954  0.1326
  429MOL0     H57886  11.961   4.609   7.519  0.6137 -0.5012 -0.6517
  429MOL0     H57887  12.192   4.742   7.501  0.2179 -0.4216 -0.2756
  429MOL0     H57888  12.134   4.810   7.356 -2.0995  0.6271  0.9923
  429MOL0     H57889  12.122   4.562   7.270 -0.4243 -0.1742  0.8013
  429MOL0     H57890  12.273   4.653   7.272 -2.3040  0.2708 -2.4631
  429MOL0     H57891  12.180   4.449   7.473  0.6222 -0.3149 -0.5236
  429MOL0     H57892  12.331   4.533   7.498 -0.0349  0.2627  0.0085
  429MOL0     H57893  12.380   4.310   7.415 -1.5982 -0.9099  1.6530
  429MOL0     H57894  12.295   4.349   7.260  1.7370  0.4946  0.1816
  429MOL0     H57895  11.556   5.068   7.926 -3.1709  2.0974  3.3480
  429MOL0     H57896  11.373   5.206   7.933 -2.0483 -0.2135  0.9859
  429MOL0     H57897  10.990   5.376   7.745 -3.3295  2.3738  1.2923
  429MOL0     H57898  10.835   5.553   7.707  1.1559 -1.7348  2.8663
  429MOL0     H57899   9.385   6.288   7.687 -0.4867  2.0643  0.3914
  429MOL0     H57900   9.157   6.189   7.717  2.9433 -0.1904  2.2013
  429MOL0     H57901   8.730   6.216   7.443 -0.6555  0.3355  0.6107
  429MOL0     H57902   8.482   6.164   7.465  0.3443 -2.4352 -1.3814
  429MOL0     H57903   8.264   6.145   7.524 -1.9954  1.7403  1.6529
  429MOL0     H57904   8.305   6.125   7.708 -1.2455 -0.6409  1.4594
  429MOL0     H57905   8.082   6.002   7.538  1.4518 -0.9504 -0.0396
  429MOL0     H57906   8.065   6.108   7.671 -1.0555 -0.4917 -3.2438
  429MOL0     H57907   8.150   5.951   7.830 -2.0123 -1.1524  0.4279
  429MOL0     H57908   8.202   5.840   7.716  0.7945 -0.3537 -0.5499
  429MOL0     H57909   7.911   5.916   7.738 -0.8978 -0.7057 -2.4817
  429MOL0     H57910   7.968   5.767   7.660 -1.6294 -1.7198  1.6716
  429MOL0     H57911   7.966   5.648   8.061  3.7365 -0.3036 -0.0688
  429MOL0     H57912   8.572   5.830   7.702  0.4614  0.6391  0.7627
  429MOL0     H57913   8.906   5.922   7.788 -0.1715  0.7892 -0.0465
  429MOL0     H57914   8.782   5.799   7.820 -1.3310  0.3867 -0.7992
  429MOL0     H57915   8.889   5.772   7.694  0.4500  0.2958  0.9178
  430MOL0     O57916   4.360   3.392   3.217 -0.3060  0.7128 -0.4634
  430MOL0     C57917   4.345   3.374   3.336  0.0365 -0.3138 -0.0067
  430MOL0     O57918   4.451   3.372   3.421  0.0857 -0.2295 -0.1001
  430MOL0     C57919   4.571   3.342   3.371  0.3630 -0.1415  0.7905
  430MOL0     C57920   4.675   3.423   3.410  0.0239 -0.0725  0.3563
  430MOL0     C57921   4.805   3.398   3.369 -0.0340 -0.9054  1.1115
  430MOL0     C57922   4.838   3.283   3.292  0.3592  0.4207  0.1117
  430MOL0     O57923   4.974   3.250   3.266  0.5580 -0.5965 -0.2025
  430MOL0     C57924   5.013   3.128   3.339 -0.0793  0.1398  0.5475
  430MOL0     C57925   5.142   3.158   3.410  0.4886 -0.1468 -1.0685
  430MOL0     C57926   5.206   3.037   3.484  0.3606  0.7957  0.0143
  430MOL0     C57927   5.291   3.082   3.606 -0.0576 -0.6214  0.7611
  430MOL0     C57928   5.427   3.155   3.567 -0.4118 -1.2301 -0.1058
  430MOL0     C57929   5.504   3.204   3.699 -0.1083  0.5032 -0.1773
  430MOL0     C57930   5.547   3.098   3.799  0.2727  0.0270  0.7495
  430MOL0     C57931   5.619   3.168   3.913  0.3866  0.8197 -0.2036
  430MOL0     N57932   5.743   3.240   3.874 -0.1421  0.3684 -0.4963
  430MOL0     C57933   5.844   3.183   3.794  0.8160 -0.3454 -0.6599
  430MOL0     C57934   5.942   3.278   3.803  1.7142  0.1760  0.1420
  430MOL0     C57935   6.076   3.275   3.731  0.5204  0.3853 -0.2947
  430MOL0     C57936   6.161   3.152   3.772 -0.4313  0.4564 -0.5614
  430MOL0     C57937   6.215   3.157   3.918 -1.0493 -0.9941 -0.2967
  430MOL0     C57938   6.310   3.049   3.952 -0.5295  0.7308  0.5114
  430MOL0     O57939   6.432   3.101   4.008  0.0520 -0.2632 -0.1535
  430MOL0     C57940   6.541   3.020   4.029  0.3506  0.3890 -0.4659
  430MOL0     C57941   6.544   2.886   4.010  0.2178  0.1975 -0.1713
  430MOL0     C57942   6.655   2.814   4.037  0.5785  0.1717 -0.3750
  430MOL0     C57943   6.778   2.864   4.073 -0.0121  0.2959  0.5923
  430MOL0     C57944   6.900   2.796   4.105  0.1836  0.3529 -0.3882
  430MOL0     O57945   7.024   2.870   4.120  0.3886 -0.3971  0.2252
  430MOL0     C57946   7.136   2.821   4.186  0.8123 -0.4896  0.0542
  430MOL0     C57947   7.251   2.904   4.176  0.4730  0.3130 -0.0519
  430MOL0     C57948   7.361   2.863   4.242 -0.6459 -0.5134 -1.0967
  430MOL0     C57949   7.355   2.753   4.334  0.1374  0.1667  0.2746
  430MOL0     O57950   7.468   2.720   4.400 -0.0852  0.7300  0.6510
  430MOL0     C57951   7.474   2.772   4.530  0.5020 -0.3293 -0.2469
  430MOL0     C57952   7.609   2.746   4.598  0.6630  0.4856  0.8619
  430MOL0     C57953   7.724   2.816   4.531  0.2626 -0.7220 -0.2158
  430MOL0     C57954   7.841   2.782   4.616  1.4847  0.3299  0.1842
  430MOL0     C57955   7.966   2.847   4.551  0.2082  0.2563 -0.1345
  430MOL0     C57956   8.087   2.843   4.649  0.3244 -0.3172  0.0362
  430MOL0     C57957   8.217   2.886   4.589  0.0704 -0.2260 -0.5633
  430MOL0     C57958   8.343   2.877   4.675  0.0196 -0.0133 -0.0541
  430MOL0    Cl57959   8.467   2.961   4.580  0.2005 -0.3280 -0.1227
  430MOL0     C57960   7.250   2.674   4.348 -0.0898 -0.4285 -0.3840
  430MOL0     C57961   7.140   2.709   4.274 -0.1208 -1.4793 -0.1622
  430MOL0     O57962   6.897   2.673   4.102  0.1299  0.6992  0.0528
  430MOL0     C57963   6.787   3.007   4.083  0.8772 -0.4996 -0.1599
  430MOL0     C57964   6.662   3.081   4.069 -0.5252  0.5460 -0.8304
  430MOL0     N57965   5.898   3.383   3.886 -0.7499  0.1221 -0.8258
  430MOL0     N57966   5.779   3.359   3.920  0.5902  0.2597 -0.5638
  430MOL0     C57967   4.732   3.190   3.280 -0.1365  1.0086  0.3758
  430MOL0     C57968   4.600   3.220   3.312  0.0255 -0.5445 -0.7699
  430MOL0     C57969   4.210   3.332   3.386 -0.0405 -0.1280 -0.5154
  430MOL0     C57970   4.195   3.336   3.526  0.1479  0.1445  0.0534
  430MOL0     C57971   4.070   3.299   3.580 -0.7178 -0.0419 -1.0913
  430MOL0     C57972   3.971   3.247   3.500  0.7719 -0.6969 -0.6604
  430MOL0     O57973   3.859   3.197   3.554 -0.0421  0.1907  0.4315
  430MOL0     C57974   3.800   3.277   3.659  0.1537 -0.6906 -0.1275
  430MOL0     C57975   3.651   3.268   3.673 -0.2305 -0.2810 -0.6901
  430MOL0     C57976   3.560   3.352   3.581  0.0433  0.4784  0.9304
  430MOL0     C57977   3.607   3.493   3.549 -0.0194 -0.5058  0.9130
  430MOL0     C57978   3.638   3.578   3.664 -0.2809 -0.1125 -0.0762
  430MOL0     C57979   3.669   3.643   3.763 -0.0078  0.0370  0.1667
  430MOL0     C57980   3.981   3.240   3.364 -0.2171  0.6751 -1.0823
  430MOL0     C57981   4.106   3.283   3.311  0.5883  0.2798  0.9885
  430MOL0     C57982   4.122   3.260   3.162 -0.6867 -0.2840 -0.2187
  430MOL0     H57983   4.660   3.505   3.480 -0.4750 -0.6479  0.9369
  430MOL0     H57984   4.882   3.473   3.386  0.1734 -0.6623 -0.6519
  430MOL0     H57985   4.940   3.095   3.414  0.4399 -2.8570 -0.1078
  430MOL0     H57986   5.025   3.047   3.266 -1.2234 -0.5383  1.0874
  430MOL0     H57987   5.116   3.239   3.479 -0.6526  0.0621 -1.7154
  430MOL0     H57988   5.209   3.198   3.333 -0.8270  0.7444 -1.7967
  430MOL0     H57989   5.273   2.978   3.420  0.3915  1.2160 -0.3539
  430MOL0     H57990   5.136   2.964   3.525 -0.2139  1.3121 -0.0246
  430MOL0     H57991   5.243   3.151   3.676  0.4063  1.1042 -0.5382
  430MOL0     H57992   5.320   2.993   3.663 -2.9970 -1.1478  1.5920
  430MOL0     H57993   5.487   3.085   3.509 -0.8491 -1.1519 -0.6577
  430MOL0     H57994   5.414   3.241   3.500 -1.4048 -1.4635 -0.2196
  430MOL0     H57995   5.589   3.263   3.664  0.1183  0.2432 -0.0658
  430MOL0     H57996   5.437   3.280   3.741  0.5248  0.6655  0.5556
  430MOL0     H57997   5.611   3.023   3.752  0.4234  0.7916 -0.3051
  430MOL0     H57998   5.452   3.060   3.837 -0.6933  2.5865  1.1113
  430MOL0     H57999   5.549   3.235   3.964  1.8945  0.9380  1.8700
  430MOL0     H58000   5.631   3.080   3.978 -2.1680  1.8631  1.8595
  430MOL0     H58001   5.855   3.093   3.734 -0.7128 -0.8920 -0.1748
  430MOL0     H58002   6.060   3.259   3.624 -0.5767  2.0829 -0.4178
  430MOL0     H58003   6.131   3.368   3.740 -1.6476  1.9466 -2.1367
  430MOL0     H58004   6.097   3.064   3.774 -1.6142  1.3014  0.5030
  430MOL0     H58005   6.233   3.144   3.690 -0.9064 -3.5386 -0.7671
  430MOL0     H58006   6.130   3.148   3.986 -1.2089 -2.8700 -0.6753
  430MOL0     H58007   6.268   3.250   3.941 -1.3591 -0.3382 -2.1376
  430MOL0     H58008   6.327   2.993   3.860 -0.0384 -1.0787  1.6599
  430MOL0     H58009   6.275   2.975   4.024  3.4587 -2.1270 -0.1109
  430MOL0     H58010   6.449   2.838   3.987  1.6613 -2.7754 -0.4137
  430MOL0     H58011   6.653   2.708   4.011 -2.1640 -0.2545  1.2612
  430MOL0     H58012   7.261   2.995   4.118  3.6132  1.0027  1.3791
  430MOL0     H58013   7.452   2.920   4.227 -1.8365  1.0712 -2.7693
  430MOL0     H58014   7.464   2.880   4.518  0.2037  0.0427  2.6499
  430MOL0     H58015   7.400   2.731   4.600 -0.5159 -1.3211 -1.8298
  430MOL0     H58016   7.597   2.792   4.697 -0.5303 -0.2926  1.0987
  430MOL0     H58017   7.629   2.639   4.611  0.5583 -0.2463 -3.5189
  430MOL0     H58018   7.746   2.788   4.427  2.1213  0.5362 -0.1965
  430MOL0     H58019   7.713   2.925   4.529  0.7897 -0.6199  1.4520
  430MOL0     H58020   7.848   2.673   4.620 -1.9703 -0.0538 -0.6492
  430MOL0     H58021   7.830   2.809   4.721 -1.5501  0.5839 -0.1199
  430MOL0     H58022   7.951   2.953   4.528 -0.8161 -0.0978 -1.1695
  430MOL0     H58023   7.976   2.797   4.455 -1.9855 -2.1065  0.7711
  430MOL0     H58024   8.062   2.912   4.730 -0.5444 -0.1096 -0.3861
  430MOL0     H58025   8.104   2.739   4.678 -1.6040 -0.4772  0.7741
  430MOL0     H58026   8.206   2.993   4.571 -2.5426 -0.2584  0.3706
  430MOL0     H58027   8.235   2.835   4.493  2.2820  2.4531 -1.6986
  430MOL0     H58028   8.334   2.939   4.765  1.5554  1.5226 -0.8827
  430MOL0     H58029   8.380   2.779   4.704  0.1417  0.4177  1.3390
  430MOL0     H58030   7.268   2.586   4.409 -1.5263 -1.7556 -1.7749
  430MOL0     H58031   7.056   2.639   4.276 -0.7438 -0.8850  4.2778
  430MOL0     H58032   6.881   3.057   4.104  0.7183 -0.2908  0.0660
  430MOL0     H58033   6.674   3.188   4.076 -1.1977  0.6786 -1.4832
  430MOL0     H58034   4.769   3.101   3.229  0.7566  1.7871 -0.3709
  430MOL0     H58035   4.527   3.140   3.310  0.6372 -1.2068  1.3125
  430MOL0     H58036   4.274   3.365   3.595 -1.2197 -0.0806  1.7885
  430MOL0     H58037   4.056   3.308   3.687 -1.8682  1.0814 -1.3191
  430MOL0     H58038   3.841   3.378   3.670  0.6508 -0.8891 -0.1599
  430MOL0     H58039   3.830   3.227   3.751  0.2032  1.4174  1.0732
  430MOL0     H58040   3.626   3.281   3.778 -1.7532 -1.0589 -0.9316
  430MOL0     H58041   3.628   3.162   3.655 -0.9156 -0.2847  0.1657
  430MOL0     H58042   3.462   3.351   3.629  0.4063  0.2918  1.6837
  430MOL0     H58043   3.542   3.303   3.485  0.5278  0.3021  0.9250
  430MOL0     H58044   3.686   3.491   3.473  0.2057 -0.4787  1.1434
  430MOL0     H58045   3.527   3.541   3.492  1.6019 -0.4529 -1.4779
  430MOL0     H58046   3.677   3.708   3.848  0.9382  1.9731 -1.3221
  430MOL0     H58047   3.900   3.209   3.300 -1.6685  1.9874  0.0333
  430MOL0     H58048   4.201   3.188   3.139  0.7561  1.5728 -1.3734
  430MOL0     H58049   4.029   3.219   3.122 -1.6468 -0.8700  2.4658
  430MOL0     H58050   4.140   3.356   3.111 -1.3468  0.8078  1.5325
  431MOL0     O58051   7.758   9.456  10.859  0.1953  0.3266  0.2006
  431MOL0     C58052   7.650   9.478  10.808 -1.0244  0.1836  0.7993
  431MOL0     O58053   7.626   9.584  10.732  0.2524 -0.6038  0.6118
  431MOL0     C58054   7.719   9.680  10.722 -0.3245  0.2561 -0.2566
  431MOL0     C58055   7.753   9.762  10.834  0.0909  0.1845  0.7064
  431MOL0     C58056   7.848   9.870  10.814 -0.0923 -0.1328  0.3050
  431MOL0     C58057   7.919   9.885  10.694 -0.0379 -0.0560  0.5305
  431MOL0     O58058   8.009   9.987  10.692  0.9980  0.3984 -0.3307
  431MOL0     C58059   8.098   9.999  10.576  0.3224  0.5616  0.4263
  431MOL0     C58060   8.179  10.134  10.587 -0.2198 -0.1967  0.0226
  431MOL0     C58061   8.323  10.101  10.639 -0.5824 -0.5189  0.2730
  431MOL0     C58062   8.345  10.105  10.787 -0.8721 -0.0797 -0.3149
  431MOL0     C58063   8.476  10.045  10.828 -0.0146 -0.4231  0.6636
  431MOL0     C58064   8.504  10.093  10.974 -0.5296  0.2263  0.0006
  431MOL0     C58065   8.408  10.022  11.074  0.2112 -0.0172 -0.8719
  431MOL0     C58066   8.434  10.067  11.216 -0.6273 -0.5507 -0.5346
  431MOL0     N58067   8.579  10.047  11.256  1.2047 -0.1007 -0.2469
  431MOL0     C58068   8.658   9.941  11.241 -1.5895  0.7795  0.0645
  431MOL0     C58069   8.781   9.972  11.303  0.6216  0.8196  0.3603
  431MOL0     C58070   8.903   9.896  11.316  0.5823  0.5326  0.0032
  431MOL0     C58071   8.995   9.936  11.205 -0.3564  0.1429  0.1427
  431MOL0     C58072   9.129   9.861  11.185  0.4109 -0.5933  0.2605
  431MOL0     C58073   9.119   9.765  11.063  1.2118  0.8151  0.2407
  431MOL0     O58074   9.226   9.671  11.061 -0.2326 -0.2336 -0.5010
  431MOL0     C58075   9.354   9.724  11.086  0.2635 -0.5898  0.2995
  431MOL0     C58076   9.425   9.796  10.992  0.5541 -0.4490 -0.2357
  431MOL0     C58077   9.560   9.830  11.010  0.3889 -0.6815 -0.0627
  431MOL0     C58078   9.632   9.797  11.126  0.4614  0.0680  0.0385
  431MOL0     C58079   9.774   9.826  11.139 -0.2536  0.0191 -0.5812
  431MOL0     O58080   9.827   9.927  11.061 -0.1767 -0.5155  0.5689
  431MOL0     C58081   9.965   9.945  11.071 -0.3280 -0.0066  0.3942
  431MOL0     C58082  10.011  10.063  11.135 -0.7315 -0.1550  0.3977
  431MOL0     C58083  10.149  10.095  11.139  0.0442 -0.5893 -0.2042
  431MOL0     C58084  10.244  10.021  11.075  0.3850 -0.5154  0.6539
  431MOL0     O58085  10.373  10.053  11.097 -0.2867  0.5913  0.3224
  431MOL0     C58086  10.445  10.054  10.971  0.3203  0.4830  0.2041
  431MOL0     C58087  10.591  10.083  10.975 -0.7360  0.4661  0.0872
  431MOL0     C58088  10.640  10.196  11.069  0.1713  0.1845  0.3529
  431MOL0     C58089  10.792  10.193  11.094  0.2873  0.4179  0.5818
  431MOL0     C58090  10.833  10.321  11.165  0.6497  0.9949  0.3035
  431MOL0     C58091  10.980  10.316  11.196  0.3518  0.1209 -0.3077
  431MOL0     C58092  11.017  10.418  11.306 -1.1066 -0.2601 -0.4922
  431MOL0     C58093  11.171  10.460  11.284 -0.0999 -0.7077  0.1920
  431MOL0    Cl58094  11.269  10.316  11.308 -0.2524  0.0098 -0.4096
  431MOL0     C58095  10.193   9.908  10.995 -0.6484 -0.3201  0.1388
  431MOL0     C58096  10.058   9.874  10.991  0.6292 -0.5652  0.3213
  431MOL0     O58097   9.840   9.762  11.222 -0.2084  0.9054  0.0398
  431MOL0     C58098   9.563   9.713  11.218 -0.3884 -1.2720 -0.2007
  431MOL0     C58099   9.423   9.688  11.199 -0.7320 -0.0669  0.2498
  431MOL0     N58100   8.773  10.104  11.337  0.0666  0.5108  0.6183
  431MOL0     N58101   8.660  10.146  11.302  0.4028  0.0619  0.0173
  431MOL0     C58102   7.883   9.806  10.585 -0.3183  0.2294  0.2711
  431MOL0     C58103   7.793   9.705  10.602  0.5257 -0.1426  0.1202
  431MOL0     C58104   7.538   9.376  10.830 -0.5769 -0.1715 -0.1435
  431MOL0     C58105   7.587   9.247  10.829  0.2206  0.4791 -0.7788
  431MOL0     C58106   7.505   9.136  10.846  0.0891 -0.0180 -1.3120
  431MOL0     C58107   7.369   9.148  10.865  0.6493 -0.7282 -0.0107
  431MOL0     O58108   7.292   9.038  10.871 -0.1186  0.0897  0.6035
  431MOL0     C58109   7.155   9.027  10.830 -0.1313 -0.1368 -0.3378
  431MOL0     C58110   7.103   9.101  10.715  0.8821 -0.7779 -0.7855
  431MOL0     C58111   7.126   9.015  10.584 -0.8044  0.3861 -0.1156
  431MOL0     C58112   7.058   9.079  10.463  0.1017  1.3409  0.0602
  431MOL0     C58113   6.908   9.063  10.462 -0.4292  0.5975  0.4321
  431MOL0     C58114   6.785   9.064  10.446 -0.3748  0.0666 -0.3664
  431MOL0     C58115   7.321   9.280  10.864  0.1431  0.1358 -0.3764
  431MOL0     C58116   7.403   9.395  10.859  0.1437 -0.3765  1.0697
  431MOL0     C58117   7.327   9.527  10.880 -0.0301 -0.3194  0.4153
  431MOL0     H58118   7.704   9.743  10.929  0.5384  0.6374  1.0290
  431MOL0     H58119   7.871   9.935  10.897  0.7099 -0.0218  0.0075
  431MOL0     H58120   8.165   9.912  10.579 -1.2179 -0.7051 -0.2092
  431MOL0     H58121   8.045  10.003  10.480 -1.5193 -0.2803  1.3716
  431MOL0     H58122   8.133  10.204  10.657  3.8499  0.0914  2.7383
  431MOL0     H58123   8.180  10.184  10.489  0.6837 -2.8041 -1.4025
  431MOL0     H58124   8.399  10.167  10.598 -0.7277  1.4075  2.8835
  431MOL0     H58125   8.358  10.009  10.591 -0.3235  0.7951 -2.2154
  431MOL0     H58126   8.341  10.208  10.823 -0.0488 -1.4560  4.5138
  431MOL0     H58127   8.268  10.054  10.846 -0.8307 -0.7227 -0.8040
  431MOL0     H58128   8.482   9.936  10.813  2.6395 -0.1883 -0.6552
  431MOL0     H58129   8.553  10.083  10.760  0.4109  0.6271  1.7023
  431MOL0     H58130   8.605  10.065  11.005 -1.0558 -1.0137  0.6848
  431MOL0     H58131   8.485  10.200  10.984 -0.2395  0.1650  1.4064
  431MOL0     H58132   8.420   9.914  11.062  1.1546  0.1077 -1.1345
  431MOL0     H58133   8.305  10.055  11.056 -1.1921  0.4317  5.4683
  431MOL0     H58134   8.415  10.175  11.221 -0.0475 -0.4636 -0.1204
  431MOL0     H58135   8.364  10.017  11.284  2.3270 -3.5908  0.5370
  431MOL0     H58136   8.629   9.844  11.202 -0.2927  0.1408  0.6358
  431MOL0     H58137   8.955   9.917  11.410  0.0264 -1.3735  0.7705
  431MOL0     H58138   8.885   9.789  11.310  0.4795  0.4721  1.1998
  431MOL0     H58139   8.947   9.953  11.108  2.1290  2.0656 -0.8584
  431MOL0     H58140   9.022  10.035  11.240  0.9660 -0.8840  2.2308
  431MOL0     H58141   9.168   9.803  11.269  1.0358 -0.4256  0.0979
  431MOL0     H58142   9.198   9.939  11.152  1.9818  1.0007  6.1831
  431MOL0     H58143   9.127   9.823  10.971  0.8192  0.3649 -0.0872
  431MOL0     H58144   9.028   9.705  11.070  0.7212  1.2521 -1.7792
  431MOL0     H58145   9.383   9.824  10.896  1.6468  2.4341  0.0566
  431MOL0     H58146   9.609   9.886  10.931  3.1633 -0.0395  1.9607
  431MOL0     H58147   9.933  10.129  11.173  0.6916  1.8850 -0.0622
  431MOL0     H58148  10.172  10.184  11.197 -1.8766 -0.1002 -0.1091
  431MOL0     H58149  10.447   9.958  10.918 -0.5365  0.2181  0.6398
  431MOL0     H58150  10.400  10.131  10.909  0.2575 -1.7133 -2.6896
  431MOL0     H58151  10.635   9.984  10.995 -2.8748 -0.0484  2.7535
  431MOL0     H58152  10.619  10.100  10.871 -1.8451  0.0335 -0.2981
  431MOL0     H58153  10.614  10.290  11.020  0.3030 -0.1917 -0.4689
  431MOL0     H58154  10.581  10.183  11.160 -2.5307 -2.2859 -1.5773
  431MOL0     H58155  10.849  10.192  11.000  0.5851  0.2911  0.7627
  431MOL0     H58156  10.814  10.101  11.150 -1.7272  0.5947  1.7269
  431MOL0     H58157  10.776  10.310  11.258  2.9856  0.7179  1.7773
  431MOL0     H58158  10.808  10.414  11.114 -2.0394 -0.1256 -0.6032
  431MOL0     H58159  11.014  10.220  11.237  1.9711  1.3668  1.4254
  431MOL0     H58160  11.038  10.331  11.104 -0.9378 -0.5831 -1.2785
  431MOL0     H58161  11.003  10.375  11.406  0.8226  2.1628  0.9380
  431MOL0     H58162  10.945  10.500  11.305 -0.9260 -0.0925 -0.1972
  431MOL0     H58163  11.178  10.499  11.181 -1.6902  1.7703  0.9295
  431MOL0     H58164  11.205  10.540  11.350  1.2278 -2.2037  1.3775
  431MOL0     H58165  10.263   9.837  10.953  1.5034  1.7983 -0.0465
  431MOL0     H58166  10.021   9.787  10.937 -1.7108  0.1315  0.6880
  431MOL0     H58167   9.601   9.688  11.316 -1.3913 -0.8469  0.3083
  431MOL0     H58168   9.369   9.626  11.269 -0.0864  0.0012  0.8136
  431MOL0     H58169   7.925   9.832  10.489 -0.3015  0.1795  0.2649
  431MOL0     H58170   7.779   9.645  10.512  4.2048 -0.3022 -0.5192
  431MOL0     H58171   7.691   9.224  10.808  0.3576 -0.1578  0.5022
  431MOL0     H58172   7.551   9.038  10.845  0.5071  0.1446  0.1918
  431MOL0     H58173   7.099   9.054  10.920  0.2953  1.0535 -0.4166
  431MOL0     H58174   7.133   8.921  10.818  0.5827 -0.0815 -2.5666
  431MOL0     H58175   7.146   9.200  10.696  1.2644 -1.4771 -4.1227
  431MOL0     H58176   6.996   9.108  10.738  1.5352  3.5721  2.1646
  431MOL0     H58177   7.090   8.913  10.598 -1.3570  0.2371 -2.3289
  431MOL0     H58178   7.234   9.000  10.572 -1.0856 -4.1399  1.3211
  431MOL0     H58179   7.091   9.183  10.472  0.6895  0.9832  2.9400
  431MOL0     H58180   7.103   9.037  10.372 -2.6647 -0.3640 -0.6602
  431MOL0     H58181   6.681   9.050  10.424 -0.7760  0.1112  1.3697
  431MOL0     H58182   7.213   9.289  10.867  0.0135 -1.4502  0.2109
  431MOL0     H58183   7.246   9.532  10.807 -1.9135 -1.0005  2.3525
  431MOL0     H58184   7.278   9.530  10.978  0.2113 -3.6846  0.7408
  431MOL0     H58185   7.394   9.614  10.877  0.2508 -0.5299  0.4898
  432MOL0     O58186   3.207   0.898   4.560 -0.5213  0.3323  0.5951
  432MOL0     C58187   3.122   0.846   4.494 -0.7090  0.4087  0.6177
  432MOL0     O58188   3.135   0.721   4.434  0.0471  0.2221  0.4639
  432MOL0     C58189   3.257   0.664   4.448 -0.6570  0.0495 -0.5504
  432MOL0     C58190   3.315   0.604   4.338  0.5720  0.5713  0.8705
  432MOL0     C58191   3.424   0.527   4.353  0.6568  0.0182 -0.6835
  432MOL0     C58192   3.478   0.504   4.480  0.2715  0.6188  0.3652
  432MOL0     O58193   3.575   0.412   4.478 -0.0168  0.1605 -0.8350
  432MOL0     C58194   3.689   0.422   4.564  0.0426  1.1548  0.3916
  432MOL0     C58195   3.807   0.473   4.473  1.5211  0.3969  0.0108
  432MOL0     C58196   3.844   0.361   4.372 -0.0607  0.7314 -0.2862
  432MOL0     C58197   3.793   0.371   4.229 -0.1686  0.3378  0.2053
  432MOL0     C58198   3.854   0.482   4.135 -0.1114  0.0312  0.9393
  432MOL0     C58199   3.789   0.483   3.988  0.2573 -0.0432  0.3020
  432MOL0     C58200   3.639   0.511   3.989  0.0919  0.6002 -0.6834
  432MOL0     C58201   3.601   0.515   3.840  0.4888 -0.3741 -0.3604
  432MOL0     N58202   3.457   0.486   3.823  0.1592 -1.6170 -0.4497
  432MOL0     C58203   3.408   0.482   3.692  0.0697 -0.5154  0.5016
  432MOL0     C58204   3.272   0.463   3.713  0.1162  1.4395 -1.0135
  432MOL0     C58205   3.172   0.435   3.598  0.4172 -0.6802  0.4426
  432MOL0     C58206   3.211   0.384   3.464  0.7994  0.0132  1.1055
  432MOL0     C58207   3.298   0.258   3.459  0.0866 -0.5152 -0.1027
  432MOL0     C58208   3.372   0.246   3.317  0.9047  0.8611 -0.8281
  432MOL0     O58209   3.440   0.363   3.271 -0.2557 -0.3601 -0.5089
  432MOL0     C58210   3.576   0.382   3.283  0.6604  0.4668  0.1810
  432MOL0     C58211   3.633   0.497   3.218 -0.9446  0.0295 -0.2992
  432MOL0     C58212   3.771   0.522   3.235  0.0264 -0.8398  0.0844
  432MOL0     C58213   3.856   0.439   3.315  0.3201 -0.0106  0.0154
  432MOL0     C58214   4.005   0.451   3.296  0.0484  0.0646  0.1114
  432MOL0     O58215   4.045   0.527   3.190  0.2325  0.0692  0.0619
  432MOL0     C58216   4.166   0.584   3.184  0.6701  0.4732 -0.1788
  432MOL0     C58217   4.272   0.495   3.170  0.2887  0.4691  0.8338
  432MOL0     C58218   4.400   0.545   3.170 -0.0950  0.5329  0.0312
  432MOL0     C58219   4.428   0.679   3.190 -0.8732  0.1777  0.4450
  432MOL0     O58220   4.560   0.722   3.196 -0.0850  0.1282 -0.1214
  432MOL0     C58221   4.606   0.778   3.071  0.1011 -0.2844 -0.2950
  432MOL0     C58222   4.752   0.826   3.078  0.2602 -0.0850 -0.4568
  432MOL0     C58223   4.806   0.875   2.937  0.2408 -0.6269 -0.5355
  432MOL0     C58224   4.949   0.916   2.954 -1.2357 -0.1574  0.5793
  432MOL0     C58225   5.033   0.895   2.820 -1.1825  0.5126  0.0452
  432MOL0     C58226   5.185   0.891   2.827 -0.0200  0.1158  0.3505
  432MOL0     C58227   5.258   1.016   2.872 -0.0385  0.1462 -0.6308
  432MOL0     C58228   5.406   1.031   2.838  0.0928  0.7608 -0.4497
  432MOL0    Cl58229   5.457   1.193   2.892 -0.0597  0.0898  0.5031
  432MOL0     C58230   4.321   0.776   3.208  0.0530  0.1874 -0.4390
  432MOL0     C58231   4.185   0.721   3.205 -0.2198  1.1330 -0.3107
  432MOL0     O58232   4.076   0.380   3.358  0.0475 -0.1373  0.0663
  432MOL0     C58233   3.795   0.324   3.377 -0.8683  0.5783  0.1797
  432MOL0     C58234   3.660   0.294   3.361 -0.1769 -0.3323 -0.0613
  432MOL0     N58235   3.252   0.429   3.846  0.1173 -0.0772 -0.9842
  432MOL0     N58236   3.368   0.439   3.912 -0.0432  0.4283 -0.5306
  432MOL0     C58237   3.423   0.551   4.596  0.0111  0.8477 -0.0902
  432MOL0     C58238   3.309   0.635   4.577 -0.8820  0.7013 -0.0237
  432MOL0     C58239   2.998   0.917   4.458  0.1755 -0.3769 -0.2471
  432MOL0     C58240   2.918   0.878   4.344 -0.1093 -0.2233  0.6743
  432MOL0     C58241   2.796   0.937   4.319  0.6214  0.4006  1.2043
  432MOL0     C58242   2.758   1.051   4.384  0.7768  0.8932  0.5335
  432MOL0     O58243   2.639   1.121   4.348  0.0967  0.0415  0.8574
  432MOL0     C58244   2.509   1.064   4.388  0.3876  0.3897  0.3087
  432MOL0     C58245   2.419   1.177   4.428  0.4982 -0.8180  0.3992
  432MOL0     C58246   2.278   1.144   4.491 -0.0211 -0.3457 -0.1014
  432MOL0     C58247   2.184   1.258   4.456  0.8839 -0.2616  0.2514
  432MOL0     C58248   2.228   1.395   4.494  0.4554 -0.1586  0.1770
  432MOL0     C58249   2.251   1.508   4.528 -0.7025 -0.3456 -0.3450
  432MOL0     C58250   2.826   1.085   4.500 -0.2823  0.3030  0.1945
  432MOL0     C58251   2.937   1.023   4.538 -0.3129  0.2518 -0.0504
  432MOL0     C58252   3.001   1.072   4.661 -0.5845  0.2879 -0.2392
  432MOL0     H58253   3.271   0.625   4.241  0.6141 -1.7998  0.2596
  432MOL0     H58254   3.469   0.482   4.265  1.2023 -1.1921  0.1900
  432MOL0     H58255   3.667   0.493   4.644 -0.5149 -0.2768  1.5655
  432MOL0     H58256   3.721   0.329   4.613 -0.0046  1.4571  1.0049
  432MOL0     H58257   3.894   0.512   4.527  0.9563  1.7716 -0.0319
  432MOL0     H58258   3.773   0.560   4.417  0.6182 -0.1902 -0.3694
  432MOL0     H58259   3.782   0.278   4.408 -3.0881  2.8226 -0.2530
  432MOL0     H58260   3.950   0.338   4.385 -0.4406 -1.5226 -0.7380
  432MOL0     H58261   3.830   0.276   4.190 -1.6443  0.1966 -0.9337
  432MOL0     H58262   3.684   0.380   4.235 -0.1071  1.9229 -0.3715
  432MOL0     H58263   3.847   0.586   4.169  2.1580  1.1356 -1.5835
  432MOL0     H58264   3.963   0.472   4.126  0.0875  0.5223  2.4405
  432MOL0     H58265   3.846   0.564   3.942  1.4647 -1.9385 -1.7621
  432MOL0     H58266   3.820   0.390   3.939 -2.1745 -1.0124  0.4151
  432MOL0     H58267   3.608   0.598   4.049 -0.9575  1.0964 -1.8801
  432MOL0     H58268   3.596   0.427   4.044 -4.2951  3.5451  1.0205
  432MOL0     H58269   3.623   0.614   3.801 -2.2234  0.5285  0.1673
  432MOL0     H58270   3.652   0.437   3.782 -0.3253 -2.2690  1.3417
  432MOL0     H58271   3.454   0.498   3.595  0.1615 -1.8941  0.3053
  432MOL0     H58272   3.091   0.371   3.634 -1.2041  0.7552 -0.5036
  432MOL0     H58273   3.125   0.533   3.592 -2.6010 -1.8142  2.8569
  432MOL0     H58274   3.119   0.357   3.411  1.4130  0.9684 -0.5313
  432MOL0     H58275   3.247   0.462   3.396 -0.6911 -0.1514  0.0841
  432MOL0     H58276   3.242   0.168   3.487  0.4802 -0.6261  0.3555
  432MOL0     H58277   3.378   0.274   3.532  0.3225 -0.3858 -0.3887
  432MOL0     H58278   3.307   0.210   3.237  0.5555 -2.8123  0.9223
  432MOL0     H58279   3.433   0.156   3.319 -0.7088 -0.2664 -0.1338
  432MOL0     H58280   3.569   0.565   3.164 -0.7018 -0.4815 -1.2396
  432MOL0     H58281   3.817   0.609   3.188  3.3399 -2.1235  0.6315
  432MOL0     H58282   4.252   0.389   3.153 -1.3571  0.9056 -0.2842
  432MOL0     H58283   4.484   0.478   3.158  1.7577  3.0633 -2.8419
  432MOL0     H58284   4.605   0.705   2.989  0.2372 -0.0907 -0.4694
  432MOL0     H58285   4.547   0.866   3.044 -2.3479 -2.0103 -0.9146
  432MOL0     H58286   4.763   0.903   3.155 -2.4470  0.3154 -0.3831
  432MOL0     H58287   4.805   0.735   3.106 -0.3803 -0.7258 -1.2883
  432MOL0     H58288   4.804   0.785   2.875 -2.3439 -1.8192  1.1078
  432MOL0     H58289   4.740   0.957   2.907  0.9046  0.2067  0.2178
  432MOL0     H58290   4.982   0.854   3.037  0.5792  0.1946  0.1638
  432MOL0     H58291   4.963   1.016   2.997  2.0842 -1.4646  2.9463
  432MOL0     H58292   4.995   0.965   2.745 -2.4809 -0.4844 -0.2664
  432MOL0     H58293   5.007   0.800   2.773  1.3901  0.8057 -2.1913
  432MOL0     H58294   5.213   0.819   2.904 -5.1314  1.4526  3.9469
  432MOL0     H58295   5.228   0.860   2.731 -1.3036  3.4418 -1.4915
  432MOL0     H58296   5.251   1.014   2.981 -1.8410 -1.0536 -0.7327
  432MOL0     H58297   5.200   1.092   2.818 -0.4113  1.9216  2.0707
  432MOL0     H58298   5.468   0.954   2.884  2.7278  2.4032 -1.0165
  432MOL0     H58299   5.427   1.011   2.733 -0.2617 -1.5964 -0.1246
  432MOL0     H58300   4.358   0.876   3.227 -0.6489  0.2608  0.6196
  432MOL0     H58301   4.095   0.780   3.218 -0.0034  1.0374  2.1448
  432MOL0     H58302   3.859   0.264   3.442 -2.0873  1.8618  2.6731
  432MOL0     H58303   3.619   0.205   3.406  0.9822 -0.2238  1.2816
  432MOL0     H58304   3.455   0.516   4.693 -0.4145  0.0363 -0.2326
  432MOL0     H58305   3.262   0.668   4.669 -2.1489 -1.9585  0.3651
  432MOL0     H58306   2.942   0.785   4.292 -0.3679  0.3321 -0.4766
  432MOL0     H58307   2.718   0.905   4.250 -0.7878  0.3770  2.7269
  432MOL0     H58308   2.523   1.003   4.478  3.8184 -0.8512 -0.9270
  432MOL0     H58309   2.475   1.014   4.297  1.7445  1.7122 -0.9709
  432MOL0     H58310   2.401   1.242   4.342 -2.4703  1.1002  2.3004
  432MOL0     H58311   2.467   1.246   4.498 -1.9212  2.9758 -1.3544
  432MOL0     H58312   2.296   1.130   4.598  3.2695 -3.8442 -0.9241
  432MOL0     H58313   2.227   1.054   4.457  1.1971 -0.9657 -0.3110
  432MOL0     H58314   2.159   1.270   4.351 -4.2474  0.5470  1.2955
  432MOL0     H58315   2.093   1.239   4.515 -0.6744 -2.0378 -2.4911
  432MOL0     H58316   2.263   1.614   4.533  3.0684 -0.5704 -1.7134
  432MOL0     H58317   2.798   1.166   4.567  1.1413  0.4631  0.6273
  432MOL0     H58318   3.080   1.145   4.637  0.7273 -1.3263 -1.0230
  432MOL0     H58319   2.935   1.129   4.727  0.9429  3.0014 -0.8615
  432MOL0     H58320   3.030   0.986   4.722 -0.1378  0.1602 -0.6284
  433MOL0     O58321   8.956   7.055   7.794 -0.4458  0.2035 -0.7864
  433MOL0     C58322   8.901   6.975   7.876  0.3628 -0.7871 -0.4370
  433MOL0     O58323   8.964   6.924   7.988 -0.4929  0.1811 -0.6665
  433MOL0     C58324   9.087   6.975   8.024 -0.6213 -0.6778 -0.9882
  433MOL0     C58325   9.089   7.101   8.083  0.1965  0.1899  0.9808
  433MOL0     C58326   9.213   7.157   8.107  0.3607  0.0780 -0.9264
  433MOL0     C58327   9.335   7.091   8.099 -0.5777 -0.3491 -0.5387
  433MOL0     O58328   9.453   7.137   8.146 -0.1037 -0.1946 -0.7179
  433MOL0     C58329   9.551   7.159   8.040 -0.0010 -0.4454  0.5885
  433MOL0     C58330   9.652   7.248   8.113  0.1583 -0.2229 -0.2244
  433MOL0     C58331   9.783   7.244   8.031  0.6568 -0.0710  0.4372
  433MOL0     C58332   9.889   7.353   8.069  0.4847  0.1070  0.1559
  433MOL0     C58333  10.032   7.327   8.011 -0.0689  0.3010  0.3993
  433MOL0     C58334  10.129   7.447   8.039  0.2863  0.1672  0.0370
  433MOL0     C58335  10.269   7.437   7.974  0.4539  0.3017  0.0154
  433MOL0     C58336  10.357   7.561   8.012 -0.2307 -0.3062  0.2498
  433MOL0     N58337  10.433   7.562   8.137  0.3440  0.7757 -0.5527
  433MOL0     C58338  10.551   7.620   8.153  0.1194 -0.1242  0.4684
  433MOL0     C58339  10.592   7.600   8.274  0.9585  0.4734  0.4573
  433MOL0     C58340  10.715   7.657   8.337  0.4662  0.0217 -1.0467
  433MOL0     C58341  10.808   7.543   8.378 -1.2700 -0.6345 -0.0325
  433MOL0     C58342  10.748   7.442   8.464 -0.5309  0.0634 -0.4903
  433MOL0     C58343  10.854   7.358   8.518  0.1625 -0.5147 -0.2692
  433MOL0     O58344  10.817   7.220   8.531 -0.1691  0.3246 -0.3032
  433MOL0     C58345  10.687   7.187   8.566 -0.8073  0.2120  0.1406
  433MOL0     C58346  10.606   7.105   8.479  0.1645 -0.1146 -0.1067
  433MOL0     C58347  10.486   7.056   8.524  0.1312 -0.5912  0.0072
  433MOL0     C58348  10.438   7.103   8.647 -0.4368 -0.1535  0.1501
  433MOL0     C58349  10.301   7.064   8.689 -0.5491  0.0903  0.7095
  433MOL0     O58350  10.232   7.154   8.766 -0.4065 -0.0132  0.3347
  433MOL0     C58351  10.101   7.132   8.798  0.8857 -0.8738 -0.9848
  433MOL0     C58352  10.052   7.139   8.937  0.4639  0.0864 -0.5723
  433MOL0     C58353   9.921   7.096   8.964  0.3726  0.3511  0.1366
  433MOL0     C58354   9.821   7.068   8.866 -2.0162  0.5046 -0.4795
  433MOL0     O58355   9.687   7.056   8.895 -0.0446  0.2004  0.2182
  433MOL0     C58356   9.635   7.062   9.029 -0.5351 -0.5675 -0.0431
  433MOL0     C58357   9.496   7.014   9.037 -0.6712 -0.4477 -0.6110
  433MOL0     C58358   9.400   7.092   8.945  0.1610  0.1731 -0.0045
  433MOL0     C58359   9.257   7.027   8.949  0.1638 -0.4646 -0.9118
  433MOL0     C58360   9.160   7.061   8.847 -0.5044  0.1136 -0.2637
  433MOL0     C58361   9.016   7.026   8.898 -0.0098 -0.5495  0.6118
  433MOL0     C58362   8.913   7.092   8.813  0.1403 -1.0442 -0.5545
  433MOL0     C58363   8.778   7.058   8.857  0.2557 -0.0019  0.4682
  433MOL0    Cl58364   8.649   7.114   8.745 -0.1433  0.2281  0.3243
  433MOL0     C58365   9.871   7.069   8.731  0.5302 -0.6313  0.4564
  433MOL0     C58366  10.000   7.100   8.699  0.2432  0.0189  0.3887
  433MOL0     O58367  10.260   6.954   8.656  0.6297  0.0176  0.7075
  433MOL0     C58368  10.513   7.185   8.725 -0.2905  0.3586  0.2376
  433MOL0     C58369  10.639   7.228   8.693  0.4151 -0.9854 -0.6977
  433MOL0     N58370  10.490   7.538   8.345 -0.0723 -1.0469  0.0029
  433MOL0     N58371  10.402   7.511   8.266  0.2526 -0.2013  1.2067
  433MOL0     C58372   9.327   6.956   8.056  0.0860 -0.0713  0.5285
  433MOL0     C58373   9.205   6.899   8.015  0.5206  0.0179  0.1794
  433MOL0     C58374   8.765   6.935   7.864 -0.0128  0.2443 -0.0358
  433MOL0     C58375   8.717   6.835   7.947 -0.2111 -0.6932 -1.0594
  433MOL0     C58376   8.585   6.805   7.951  0.9291 -0.5420 -0.3379
  433MOL0     C58377   8.485   6.860   7.873  0.4574 -0.2891 -0.2610
  433MOL0     O58378   8.358   6.815   7.874  0.5993  0.0209 -0.5593
  433MOL0     C58379   8.308   6.820   8.007 -0.0060 -0.3029  0.0591
  433MOL0     C58380   8.150   6.831   8.008  0.0193 -0.1169 -0.3482
  433MOL0     C58381   8.084   6.696   7.969 -0.3209 -0.0224  0.1789
  433MOL0     C58382   7.936   6.698   7.977  0.2518  0.6033  0.1816
  433MOL0     C58383   7.888   6.705   8.113  0.2104  0.0360  0.3593
  433MOL0     C58384   7.843   6.722   8.222 -0.7661  0.9221  0.3491
  433MOL0     C58385   8.533   6.950   7.783 -0.3081 -0.3374  0.3450
  433MOL0     C58386   8.665   6.996   7.781  0.3584  0.4798  0.3190
  433MOL0     C58387   8.676   7.110   7.688 -0.7720 -0.9610  0.6622
  433MOL0     H58388   9.000   7.157   8.111 -2.0253 -0.6761 -3.3217
  433MOL0     H58389   9.206   7.257   8.148  1.4707 -0.1682 -0.0980
  433MOL0     H58390   9.603   7.073   7.996 -0.4531  0.6843 -2.3526
  433MOL0     H58391   9.502   7.220   7.964  1.9131  1.1664  0.5801
  433MOL0     H58392   9.675   7.213   8.214 -3.7008 -0.9082  0.5736
  433MOL0     H58393   9.598   7.341   8.136  1.2909  0.5113 -0.4580
  433MOL0     H58394   9.759   7.272   7.928  2.8969  1.5325  0.2905
  433MOL0     H58395   9.813   7.138   8.032 -4.3694 -1.8029 -1.3097
  433MOL0     H58396   9.846   7.449   8.040 -0.8632 -0.6966 -0.6329
  433MOL0     H58397   9.899   7.351   8.178 -4.2737  0.3344  0.8087
  433MOL0     H58398  10.077   7.235   8.049  2.7390  1.2675 -0.3111
  433MOL0     H58399  10.024   7.322   7.902 -0.7132 -0.5217  0.4734
  433MOL0     H58400  10.079   7.540   8.009 -1.1804 -0.8189 -0.7109
  433MOL0     H58401  10.144   7.450   8.147 -0.3151 -3.4720  0.3445
  433MOL0     H58402  10.266   7.437   7.865  0.8698 -0.0973  0.0032
  433MOL0     H58403  10.310   7.344   8.014 -0.1053  0.0809  0.0908
  433MOL0     H58404  10.427   7.576   7.928 -0.4634  0.6446  0.2167
  433MOL0     H58405  10.289   7.645   8.027 -0.8525 -0.8535  0.5347
  433MOL0     H58406  10.598   7.681   8.076 -0.9333  2.2674  1.6168
  433MOL0     H58407  10.771   7.731   8.278  2.0860  1.5097  2.1320
  433MOL0     H58408  10.686   7.704   8.431  0.2315 -0.7698 -0.7132
  433MOL0     H58409  10.842   7.493   8.287 -0.6592 -0.7992  0.2814
  433MOL0     H58410  10.891   7.595   8.427 -2.9829 -1.0453  3.6304
  433MOL0     H58411  10.676   7.381   8.409  0.2605 -0.4627 -0.9636
  433MOL0     H58412  10.692   7.470   8.554  1.2417  2.4516 -0.0562
  433MOL0     H58413  10.873   7.391   8.620 -0.3656 -0.0971 -0.2997
  433MOL0     H58414  10.948   7.363   8.463  1.2576  0.9605  1.6005
  433MOL0     H58415  10.645   7.061   8.388  0.4487  2.4403 -1.3060
  433MOL0     H58416  10.428   6.993   8.457 -2.5893 -1.3028  2.8192
  433MOL0     H58417  10.109   7.169   9.024  0.4581  0.0699 -0.5631
  433MOL0     H58418   9.898   7.114   9.068  1.3127  4.2902 -0.1778
  433MOL0     H58419   9.694   6.992   9.089  1.4695  1.5611  0.6082
  433MOL0     H58420   9.629   7.157   9.083 -0.2949 -1.5490  1.7916
  433MOL0     H58421   9.482   6.911   9.001  1.9485 -1.2690  0.5210
  433MOL0     H58422   9.452   7.015   9.137  2.4832  1.5585  0.9348
  433MOL0     H58423   9.408   7.198   8.973  3.0767 -0.2917  1.2989
  433MOL0     H58424   9.430   7.078   8.841 -1.4527  1.4811 -0.6824
  433MOL0     H58425   9.208   7.051   9.044  1.4836  1.1968 -0.5982
  433MOL0     H58426   9.256   6.920   8.969 -2.6794  0.0625  2.9604
  433MOL0     H58427   9.179   7.006   8.754  0.3898  1.3930 -0.8719
  433MOL0     H58428   9.182   7.166   8.825 -2.3793  0.3717 -1.0774
  433MOL0     H58429   8.994   6.919   8.896 -1.4860 -0.2956  1.2670
  433MOL0     H58430   8.997   7.075   8.994 -1.0577 -2.6132  1.5238
  433MOL0     H58431   8.933   7.057   8.712  0.1941 -2.3024 -0.1338
  433MOL0     H58432   8.915   7.201   8.819  0.5194 -1.1023  0.5575
  433MOL0     H58433   8.777   6.951   8.882  2.1134 -0.0491  0.4575
  433MOL0     H58434   8.762   7.107   8.953 -0.2895 -1.4329  1.1341
  433MOL0     H58435   9.793   7.043   8.660 -2.3899 -2.4690  3.9869
  433MOL0     H58436  10.009   7.096   8.591 -1.5291  1.9078  0.1105
  433MOL0     H58437  10.476   7.201   8.826  0.0360 -1.4661  0.6769
  433MOL0     H58438  10.689   7.295   8.763 -0.2789 -1.1367 -0.0333
  433MOL0     H58439   9.419   6.899   8.066  1.7538  2.3215 -0.3029
  433MOL0     H58440   9.198   6.800   7.972 -0.3859 -0.0507  0.4806
  433MOL0     H58441   8.786   6.777   8.008 -1.3553 -0.3695  0.5919
  433MOL0     H58442   8.556   6.729   8.022 -3.7932 -0.2131 -1.5741
  433MOL0     H58443   8.354   6.891   8.076  0.5966 -1.9263  1.3969
  433MOL0     H58444   8.331   6.725   8.056 -0.7027 -1.0866 -1.0843
  433MOL0     H58445   8.128   6.913   7.939 -0.4348 -1.8942 -2.4020
  433MOL0     H58446   8.117   6.863   8.108  0.7565  0.6601 -0.3394
  433MOL0     H58447   8.111   6.610   8.031  4.1167  0.2280 -1.0466
  433MOL0     H58448   8.112   6.666   7.867  0.3856  0.9661  0.0640
  433MOL0     H58449   7.898   6.778   7.913 -3.6128 -0.8218  0.3813
  433MOL0     H58450   7.907   6.601   7.935  1.1974  0.7586 -0.8786
  433MOL0     H58451   7.794   6.741   8.315 -1.8526  0.8167 -0.1937
  433MOL0     H58452   8.457   7.004   7.727  1.0771  3.6595  1.9806
  433MOL0     H58453   8.666   7.073   7.586  3.6437  2.8878 -1.5549
  433MOL0     H58454   8.590   7.177   7.690 -1.1650 -1.4619  0.7880
  433MOL0     H58455   8.774   7.156   7.674 -0.9788 -1.1392 -1.9932
  434MOL0     O58456   8.333   1.277   8.583  0.5958  0.0529  0.1627
  434MOL0     C58457   8.371   1.231   8.472 -0.2596  0.0526 -0.5125
  434MOL0     O58458   8.501   1.212   8.439  0.1461  0.0784 -0.7031
  434MOL0     C58459   8.610   1.217   8.526  0.4328  0.0022  0.9370
  434MOL0     C58460   8.735   1.274   8.490 -0.2750 -0.8479  0.7074
  434MOL0     C58461   8.845   1.299   8.575  1.4810 -0.4156  0.0216
  434MOL0     C58462   8.833   1.243   8.703  0.2843  0.7621  0.0649
  434MOL0     O58463   8.931   1.258   8.797 -0.5197 -0.1086 -0.1878
  434MOL0     C58464   8.950   1.390   8.838  0.0607 -0.8940  0.3894
  434MOL0     C58465   9.073   1.450   8.782 -0.8001  0.8559  0.1587
  434MOL0     C58466   9.106   1.558   8.881  0.1224  0.7798 -0.0526
  434MOL0     C58467   9.221   1.651   8.844  0.1009 -0.5572  0.2159
  434MOL0     C58468   9.347   1.559   8.802  0.6803  0.5636 -0.7864
  434MOL0     C58469   9.467   1.646   8.804 -0.1642 -0.3033 -0.3260
  434MOL0     C58470   9.602   1.565   8.798  0.8639  0.6509 -0.5798
  434MOL0     C58471   9.721   1.656   8.825 -0.4740 -0.1497  0.4962
  434MOL0     N58472   9.847   1.583   8.823 -0.3203 -1.6089  0.1804
  434MOL0     C58473   9.949   1.615   8.737  0.0310 -0.4748  0.0794
  434MOL0     C58474  10.069   1.586   8.803 -0.0287  0.0395  1.0022
  434MOL0     C58475  10.204   1.587   8.759  0.0213  0.1738 -0.2975
  434MOL0     C58476  10.241   1.730   8.697 -0.2059  0.3959 -1.0520
  434MOL0     C58477  10.389   1.759   8.677  0.8622 -0.0009 -0.2106
  434MOL0     C58478  10.449   1.655   8.578  0.3939  0.0369 -0.1131
  434MOL0     O58479  10.578   1.698   8.530  0.8320 -1.2803  0.1478
  434MOL0     C58480  10.678   1.732   8.606 -0.7895  0.9368  1.6855
  434MOL0     C58481  10.694   1.678   8.733 -0.0915 -0.0528 -0.9389
  434MOL0     C58482  10.809   1.702   8.809 -0.0738  0.6084  1.0126
  434MOL0     C58483  10.914   1.786   8.767  0.1256  0.2294  0.4688
  434MOL0     C58484  11.036   1.813   8.847 -0.4588  0.0476  0.7068
  434MOL0     O58485  11.125   1.904   8.810 -0.5870 -0.0366  0.6356
  434MOL0     C58486  11.226   1.935   8.892  0.0757 -0.2258  0.3174
  434MOL0     C58487  11.352   1.875   8.874 -0.0928 -0.2955 -0.1378
  434MOL0     C58488  11.455   1.905   8.965  0.0980 -0.8860  0.3510
  434MOL0     C58489  11.445   2.026   9.047 -0.2905 -0.0399  0.5624
  434MOL0     O58490  11.561   2.085   9.107  0.3594  0.9822  0.5146
  434MOL0     C58491  11.685   2.009   9.095 -0.6255  0.3490 -1.3659
  434MOL0     C58492  11.784   2.075   9.187  0.4303  0.3533  0.3132
  434MOL0     C58493  11.932   2.024   9.174 -0.0362 -0.3278 -0.0959
  434MOL0     C58494  12.029   2.100   9.268  0.2960 -0.2227  0.2720
  434MOL0     C58495  12.175   2.050   9.253  0.3560 -0.2496  0.1841
  434MOL0     C58496  12.199   1.938   9.349 -0.0554 -0.6876  0.2207
  434MOL0     C58497  12.331   1.869   9.315  0.2884 -0.0516 -0.6145
  434MOL0     C58498  12.457   1.968   9.330  0.2714 -0.2611 -0.2803
  434MOL0    Cl58499  12.510   1.972   9.501  0.2305  0.0488  0.2420
  434MOL0     C58500  11.324   2.100   9.048 -0.1249  1.4561  0.3713
  434MOL0     C58501  11.220   2.046   8.974 -0.3955  0.2655 -0.0836
  434MOL0     O58502  11.038   1.749   8.957  0.4292 -0.0072 -0.1686
  434MOL0     C58503  10.897   1.845   8.634 -0.6300  1.2732 -0.1814
  434MOL0     C58504  10.787   1.808   8.554  0.1416  1.0025 -0.0355
  434MOL0     N58505  10.030   1.547   8.925  0.5877  0.2174 -0.4309
  434MOL0     N58506   9.900   1.535   8.939 -0.2841 -0.5397  0.5527
  434MOL0     C58507   8.715   1.180   8.744  0.4812 -0.0269  0.3342
  434MOL0     C58508   8.604   1.167   8.649  0.4573  0.0847 -0.6152
  434MOL0     C58509   8.267   1.174   8.380  0.0007  0.8499 -0.6041
  434MOL0     C58510   8.136   1.167   8.436 -0.6473  0.1045  0.0712
  434MOL0     C58511   8.026   1.112   8.379 -0.7967  0.0936  0.7490
  434MOL0     C58512   8.049   1.061   8.247 -0.0070  0.8043 -0.9126
  434MOL0     O58513   7.958   1.015   8.161  0.0406 -0.1009  0.3409
  434MOL0     C58514   7.843   0.953   8.214  1.5851 -2.0639  0.4512
  434MOL0     C58515   7.869   0.818   8.277 -0.3536 -0.7609  0.3931
  434MOL0     C58516   7.915   0.711   8.181  0.4743 -0.2367  0.9203
  434MOL0     C58517   7.915   0.574   8.258 -0.4702  0.3004  0.4594
  434MOL0     C58518   7.781   0.515   8.279  0.2970 -0.4130  0.9620
  434MOL0     C58519   7.677   0.461   8.301 -0.9812  0.1440 -0.2985
  434MOL0     C58520   8.174   1.062   8.187  0.5342  0.4291 -0.1968
  434MOL0     C58521   8.284   1.126   8.251  0.1308 -1.1419 -0.8234
  434MOL0     C58522   8.412   1.129   8.182  0.7838  0.3351  0.1005
  434MOL0     H58523   8.733   1.316   8.390  0.0505 -0.0066  1.0432
  434MOL0     H58524   8.939   1.338   8.538 -0.2518  1.4712 -2.7015
  434MOL0     H58525   8.864   1.449   8.804 -0.9461 -3.4184 -1.8223
  434MOL0     H58526   8.939   1.403   8.946 -1.2596  5.7983 -0.1254
  434MOL0     H58527   9.063   1.483   8.678 -0.2722  2.4333  0.5808
  434MOL0     H58528   9.132   1.358   8.786 -2.2774 -0.1675 -0.4646
  434MOL0     H58529   9.126   1.494   8.968 -4.5808 -2.4860 -1.0030
  434MOL0     H58530   9.023   1.619   8.915  0.4962 -0.1364  2.8206
  434MOL0     H58531   9.176   1.696   8.755 -3.0252 -1.3527  1.2508
  434MOL0     H58532   9.247   1.733   8.912 -0.5873  1.8389 -2.2347
  434MOL0     H58533   9.355   1.479   8.877  0.3085  1.3264  0.0762
  434MOL0     H58534   9.329   1.507   8.707 -2.2696 -3.5462  1.6900
  434MOL0     H58535   9.463   1.719   8.722 -2.4839 -0.8425 -0.7465
  434MOL0     H58536   9.466   1.699   8.900 -1.6037  1.0414 -1.0365
  434MOL0     H58537   9.618   1.527   8.697 -1.0338 -3.1211  0.3581
  434MOL0     H58538   9.593   1.488   8.875  2.1099 -1.4697 -2.4268
  434MOL0     H58539   9.727   1.738   8.753 -1.0761  1.3931  2.0951
  434MOL0     H58540   9.718   1.709   8.921  0.6395  1.9631 -0.5517
  434MOL0     H58541   9.938   1.647   8.634  2.1519  0.1388  0.0013
  434MOL0     H58542  10.267   1.562   8.845 -2.4222 -0.7267  1.3376
  434MOL0     H58543  10.227   1.524   8.673 -0.6263 -0.5479  0.0534
  434MOL0     H58544  10.198   1.743   8.597  0.2008 -0.3257 -1.3314
  434MOL0     H58545  10.200   1.794   8.775 -0.0912 -0.9018  0.1190
  434MOL0     H58546  10.447   1.745   8.769  2.4617 -1.6824 -1.3844
  434MOL0     H58547  10.407   1.862   8.648  2.8382 -0.9270 -2.6534
  434MOL0     H58548  10.378   1.639   8.496  1.0908 -2.3008 -0.3258
  434MOL0     H58549  10.460   1.559   8.629 -0.4371 -0.3300 -0.5999
  434MOL0     H58550  10.630   1.605   8.782  0.7965 -0.7927 -0.8568
  434MOL0     H58551  10.824   1.663   8.909  0.2541  0.4515  0.9061
  434MOL0     H58552  11.361   1.796   8.800 -0.4069 -1.6028  1.1744
  434MOL0     H58553  11.547   1.847   8.968 -0.3503 -1.6733 -0.4324
  434MOL0     H58554  11.673   1.903   9.120 -2.5828  0.8810  0.1898
  434MOL0     H58555  11.734   2.023   8.998  1.3034 -0.5521 -0.5739
  434MOL0     H58556  11.776   2.182   9.165 -0.6160  0.5974  1.7549
  434MOL0     H58557  11.743   2.054   9.286  2.1841  1.0316  1.2191
  434MOL0     H58558  11.926   1.919   9.202 -3.2049 -0.3140 -0.3570
  434MOL0     H58559  11.966   2.033   9.071 -0.0834  0.9574 -0.0205
  434MOL0     H58560  11.988   2.085   9.368  0.1038 -2.2174 -0.0528
  434MOL0     H58561  12.029   2.206   9.245 -0.5169 -0.2796  0.0048
  434MOL0     H58562  12.237   2.139   9.269 -0.0608  0.3757 -1.5027
  434MOL0     H58563  12.206   2.012   9.155  0.3878 -0.9300  0.4542
  434MOL0     H58564  12.190   1.968   9.454 -0.3970 -0.8229  0.2286
  434MOL0     H58565  12.134   1.852   9.334 -0.1159 -0.6009 -0.0256
  434MOL0     H58566  12.329   1.850   9.207  1.2359  4.3453 -1.6183
  434MOL0     H58567  12.327   1.776   9.372 -0.8354  2.4693  3.8150
  434MOL0     H58568  12.535   1.929   9.263 -0.9574 -3.9487  0.1912
  434MOL0     H58569  12.435   2.074   9.313 -1.1661 -0.6677 -1.1975
  434MOL0     H58570  11.308   2.194   9.100  3.3144  1.1855  2.1956
  434MOL0     H58571  11.120   2.089   8.968 -0.1551  0.7061 -1.1396
  434MOL0     H58572  10.971   1.912   8.591  2.7727 -1.6553  0.6190
  434MOL0     H58573  10.758   1.837   8.454 -2.8942  2.1311  1.0562
  434MOL0     H58574   8.701   1.126   8.837 -1.2991 -0.5989 -0.2144
  434MOL0     H58575   8.511   1.118   8.677 -0.2055  0.5186 -1.9792
  434MOL0     H58576   8.111   1.222   8.525 -1.8030 -0.2508 -0.0216
  434MOL0     H58577   7.924   1.134   8.410 -2.1737 -1.8437 -1.9315
  434MOL0     H58578   7.776   0.920   8.134  1.5582  0.6499 -0.7472
  434MOL0     H58579   7.788   1.013   8.287  0.5004 -1.1975 -1.0239
  434MOL0     H58580   7.774   0.796   8.326 -0.7495  1.7401  0.8480
  434MOL0     H58581   7.951   0.817   8.350 -1.4040  0.2085  1.6228
  434MOL0     H58582   8.018   0.732   8.151 -0.3402  1.9368 -0.6740
  434MOL0     H58583   7.848   0.709   8.094 -2.4138  0.2486  2.9703
  434MOL0     H58584   7.965   0.499   8.196 -1.2795 -0.8533  1.1850
  434MOL0     H58585   7.971   0.595   8.350 -0.3426  0.4967  0.3371
  434MOL0     H58586   7.592   0.409   8.339 -1.1159  0.5427 -0.0490
  434MOL0     H58587   8.200   1.023   8.089 -2.4190  2.0244 -1.7400
  434MOL0     H58588   8.483   1.065   8.235  0.8486  1.8167  1.9306
  434MOL0     H58589   8.415   1.097   8.078 -0.8513 -3.4282  1.0163
  434MOL0     H58590   8.437   1.235   8.181 -6.7632  2.6884 -1.2150
  435MOL0     O58591   5.297   7.804  10.721 -0.3976  0.5338 -0.3069
  435MOL0     C58592   5.218   7.856  10.650  1.0645 -0.3300 -1.3394
  435MOL0     O58593   5.202   7.837  10.515 -0.2245 -0.2897 -0.6692
  435MOL0     C58594   5.306   7.795  10.428  0.5156 -0.1777 -0.6580
  435MOL0     C58595   5.441   7.786  10.456  0.0056 -0.1094  0.1433
  435MOL0     C58596   5.531   7.751  10.361  0.1386  0.2254  0.2740
  435MOL0     C58597   5.496   7.730  10.230  0.7837  0.1210  0.5031
  435MOL0     O58598   5.597   7.708  10.143 -0.5594  0.7985  0.4316
  435MOL0     C58599   5.605   7.776  10.015  0.6700  1.1712  0.0005
  435MOL0     C58600   5.689   7.900  10.023 -0.2912 -0.6116  0.6986
  435MOL0     C58601   5.823   7.889  10.097 -0.3792  0.8303  0.6479
  435MOL0     C58602   5.906   8.024  10.079  0.0266 -0.0529  0.1131
  435MOL0     C58603   6.046   7.996  10.131 -0.1892  0.3390 -0.0969
  435MOL0     C58604   6.126   8.121  10.142 -0.2143  0.4947 -0.3586
  435MOL0     C58605   6.278   8.095  10.163 -0.0749 -0.5613 -0.5145
  435MOL0     C58606   6.369   8.210  10.111 -0.3095  0.4193  0.7153
  435MOL0     N58607   6.502   8.186  10.164 -0.0380 -0.7115 -0.3607
  435MOL0     C58608   6.539   8.207  10.295 -0.2451 -0.4340  0.2457
  435MOL0     C58609   6.671   8.171  10.298 -0.4035 -0.2147  0.7609
  435MOL0     C58610   6.764   8.165  10.413 -0.3735  0.4597 -0.2719
  435MOL0     C58611   6.885   8.254  10.384  0.4148 -0.9293 -0.5016
  435MOL0     C58612   6.990   8.215  10.281 -0.0473  0.0507  1.0896
  435MOL0     C58613   7.129   8.277  10.301 -0.8382  0.3907 -0.1869
  435MOL0     O58614   7.228   8.264  10.189 -0.2974  0.7801 -0.1245
  435MOL0     C58615   7.335   8.345  10.187 -0.9334 -0.4664  0.1151
  435MOL0     C58616   7.421   8.334  10.075  1.2859 -0.4158  0.0956
  435MOL0     C58617   7.532   8.419  10.062  0.1922  1.1615  0.4659
  435MOL0     C58618   7.573   8.507  10.164  0.8730  0.1837  0.0159
  435MOL0     C58619   7.690   8.589  10.152  0.6578 -0.2310 -0.2855
  435MOL0     O58620   7.721   8.684  10.241  0.9003  0.2591 -0.9309
  435MOL0     C58621   7.838   8.749  10.229 -0.2381 -0.6575  1.0126
  435MOL0     C58622   7.869   8.820  10.115 -1.3188 -1.0026  0.1364
  435MOL0     C58623   7.993   8.884  10.108 -0.9721 -0.5145 -0.2468
  435MOL0     C58624   8.087   8.875  10.214 -0.7369 -0.4383  0.9718
  435MOL0     O58625   8.201   8.948  10.217  0.2554  0.2064  0.6855
  435MOL0     C58626   8.211   9.069  10.150  0.9956  0.1247  0.5733
  435MOL0     C58627   8.331   9.144  10.197 -0.1342  1.0253  0.0989
  435MOL0     C58628   8.365   9.271  10.120 -0.6056  0.3501 -0.1646
  435MOL0     C58629   8.495   9.335  10.162 -0.0421 -0.3918 -0.1099
  435MOL0     C58630   8.618   9.271  10.096 -0.9527  0.3022  0.3966
  435MOL0     C58631   8.755   9.339  10.140  1.0674  1.4581  0.6042
  435MOL0     C58632   8.794   9.338  10.291  0.3413 -0.1378  0.1929
  435MOL0     C58633   8.911   9.440  10.308  0.3919  0.2523  0.0410
  435MOL0    Cl58634   8.878   9.607  10.272  0.5715 -0.0247  0.2024
  435MOL0     C58635   8.057   8.788  10.323 -0.9283 -0.7036 -0.0360
  435MOL0     C58636   7.933   8.729  10.330  0.3965  0.4045 -1.0429
  435MOL0     O58637   7.750   8.559  10.052  0.1870  0.7337 -0.8426
  435MOL0     C58638   7.491   8.511  10.280 -0.9389 -0.3452 -0.2892
  435MOL0     C58639   7.377   8.439  10.281  0.7792  0.4697 -0.5682
  435MOL0     N58640   6.711   8.136  10.171 -0.2973  0.0320  0.5214
  435MOL0     N58641   6.612   8.145  10.092 -0.5277 -0.2081  0.0488
  435MOL0     C58642   5.358   7.718  10.203  0.6679 -0.5363  0.3340
  435MOL0     C58643   5.264   7.756  10.301 -0.6866  0.0191 -0.5993
  435MOL0     C58644   5.114   7.932  10.729  0.6324  1.0434 -0.0788
  435MOL0     C58645   4.997   7.974  10.667  0.6649 -0.1726  0.5739
  435MOL0     C58646   4.892   8.014  10.737  0.4499 -0.3894  0.1087
  435MOL0     C58647   4.887   8.022  10.871 -0.5174 -0.2198 -0.0367
  435MOL0     O58648   4.789   8.063  10.949  0.7461  0.3899  0.2936
  435MOL0     C58649   4.650   8.052  10.904 -0.1926  0.4936  0.6386
  435MOL0     C58650   4.560   8.119  11.013 -0.5917  0.6316  0.8826
  435MOL0     C58651   4.423   8.042  11.004 -0.2982  0.3019  0.2673
  435MOL0     C58652   4.339   8.083  10.878  0.0199 -0.3980 -0.3253
  435MOL0     C58653   4.202   8.020  10.887  0.8946 -0.2255 -0.8582
  435MOL0     C58654   4.086   7.984  10.899 -0.2623  0.8179 -0.2610
  435MOL0     C58655   5.002   8.006  10.941  0.2613 -0.2797 -0.1538
  435MOL0     C58656   5.122   7.962  10.876 -0.2145  0.0043  0.4939
  435MOL0     C58657   5.236   7.940  10.970 -0.4940  0.4512 -0.5337
  435MOL0     H58658   5.479   7.794  10.557  1.6599 -2.1595 -0.2572
  435MOL0     H58659   5.638   7.747  10.381  0.8856 -0.7165 -3.2567
  435MOL0     H58660   5.658   7.708   9.948  0.0104 -0.2203  0.8641
  435MOL0     H58661   5.504   7.796   9.978  0.0124  0.3822  1.3047
  435MOL0     H58662   5.636   7.978  10.077  1.4191 -0.0209  1.5799
  435MOL0     H58663   5.705   7.935   9.920  0.1421 -0.1655  0.9141
  435MOL0     H58664   5.875   7.803  10.054 -3.5602 -1.3319  0.7595
  435MOL0     H58665   5.802   7.863  10.202  1.8661 -3.7410  0.2076
  435MOL0     H58666   5.901   8.058   9.975  2.9993 -2.7730 -1.1062
  435MOL0     H58667   5.858   8.098  10.143  1.8642 -0.2051  1.7483
  435MOL0     H58668   6.056   7.947  10.229  0.9418  1.8738  0.5932
  435MOL0     H58669   6.100   7.928  10.065  1.9269  1.5171  0.3499
  435MOL0     H58670   6.116   8.166  10.043  4.4966  1.3338 -0.7053
  435MOL0     H58671   6.086   8.191  10.216 -2.6727 -2.7706  1.7082
  435MOL0     H58672   6.306   8.003  10.110  1.6169 -0.7693  0.6523
  435MOL0     H58673   6.304   8.088  10.268 -0.2218  1.2569 -0.3292
  435MOL0     H58674   6.365   8.211  10.002 -3.6536 -0.8625  0.7023
  435MOL0     H58675   6.343   8.310  10.145 -4.6281  0.4867 -2.0961
  435MOL0     H58676   6.478   8.240  10.379  0.7228  0.7311  0.5214
  435MOL0     H58677   6.716   8.192  10.507 -0.3223  0.8309 -0.3511
  435MOL0     H58678   6.802   8.062  10.421  0.7888  0.9541  1.1168
  435MOL0     H58679   6.846   8.354  10.358 -1.8380 -1.7489 -0.5247
  435MOL0     H58680   6.932   8.272  10.481 -0.9091  0.6748 -0.1018
  435MOL0     H58681   6.964   8.251  10.181  1.5549  0.4050  0.7680
  435MOL0     H58682   6.996   8.106  10.269 -0.6648  0.0298  0.9100
  435MOL0     H58683   7.175   8.236  10.391  0.4557 -1.5787 -1.6572
  435MOL0     H58684   7.106   8.383  10.311 -1.3023  0.1129  2.0967
  435MOL0     H58685   7.405   8.266   9.992 -1.0652 -0.5751  0.6060
  435MOL0     H58686   7.594   8.401   9.974  1.4435 -3.6836  2.0623
  435MOL0     H58687   7.806   8.839  10.028  0.8028  3.0937 -0.7396
  435MOL0     H58688   8.009   8.949  10.023 -3.0251  0.7331  0.2279
  435MOL0     H58689   8.224   9.029  10.049 -1.0336  0.1641  0.2489
  435MOL0     H58690   8.119   9.125  10.165 -0.8572 -3.1983  3.1068
  435MOL0     H58691   8.320   9.177  10.301 -0.2022  1.2073  0.0362
  435MOL0     H58692   8.427   9.092  10.200  0.1986  1.6540  0.6379
  435MOL0     H58693   8.363   9.249  10.013  1.2328 -1.8731  0.1931
  435MOL0     H58694   8.286   9.345  10.139  0.0587  1.1991 -0.5908
  435MOL0     H58695   8.510   9.322  10.270  1.1666 -1.7396 -0.4049
  435MOL0     H58696   8.503   9.442  10.144 -3.4753 -0.2416 -1.4956
  435MOL0     H58697   8.610   9.260   9.987  0.1067 -1.0720  0.4213
  435MOL0     H58698   8.617   9.166  10.129 -1.3749  0.4618  0.8891
  435MOL0     H58699   8.841   9.305  10.081  0.0790 -0.7414  0.3154
  435MOL0     H58700   8.740   9.445  10.118 -1.7575  0.8511 -0.8811
  435MOL0     H58701   8.829   9.239  10.322 -1.1336 -0.3838  1.1525
  435MOL0     H58702   8.713   9.368  10.358 -1.0031  0.7022 -1.7283
  435MOL0     H58703   8.944   9.418  10.410 -1.8187 -0.4598  0.6664
  435MOL0     H58704   8.985   9.407  10.236 -1.0011  1.4228 -2.0362
  435MOL0     H58705   8.128   8.779  10.404  0.5322  4.2398 -0.4191
  435MOL0     H58706   7.900   8.675  10.418  0.2421  2.1799  0.0238
  435MOL0     H58707   7.502   8.587  10.357 -1.6849  2.0820 -2.4266
  435MOL0     H58708   7.317   8.443  10.371 -0.4648 -1.0180 -1.2779
  435MOL0     H58709   5.316   7.682  10.110 -0.0290  0.6144  0.1730
  435MOL0     H58710   5.159   7.754  10.276 -1.1233 -0.3655  1.2068
  435MOL0     H58711   5.003   7.959  10.560 -0.2527  1.0433  0.3378
  435MOL0     H58712   4.804   8.034  10.677 -0.4172  0.0554  1.4664
  435MOL0     H58713   4.628   7.945  10.904  2.1850 -0.0769  2.5227
  435MOL0     H58714   4.640   8.098  10.805 -0.2208  1.8286  1.2489
  435MOL0     H58715   4.543   8.223  10.982  0.9271  0.0816 -2.2011
  435MOL0     H58716   4.604   8.114  11.113  0.1137  0.7977  0.5856
  435MOL0     H58717   4.359   8.065  11.090 -0.7740  1.3098 -0.3428
  435MOL0     H58718   4.451   7.936  11.000 -0.4513  0.2717 -3.3973
  435MOL0     H58719   4.328   8.192  10.877 -0.6638 -0.3441  2.6289
  435MOL0     H58720   4.394   8.052  10.789 -0.6697 -0.9829 -0.5558
  435MOL0     H58721   3.984   7.951  10.899 -0.2083  0.6527 -0.5809
  435MOL0     H58722   5.009   8.026  11.047 -2.0183 -1.4566  0.2756
  435MOL0     H58723   5.329   7.973  10.923  0.4705 -2.5959 -1.0049
  435MOL0     H58724   5.217   8.004  11.057 -2.5047  0.0864 -0.6538
  435MOL0     H58725   5.249   7.835  10.998  3.6891  1.2664  1.3900
  436MOL0     O58726   2.604   9.896   5.569 -0.3288  0.0751  0.8155
  436MOL0     C58727   2.636   9.874   5.455  0.6725  0.2018  0.7253
  436MOL0     O58728   2.747   9.802   5.413  0.9033 -0.1691 -0.1720
  436MOL0     C58729   2.819   9.748   5.525  0.6859 -0.0475  0.0702
  436MOL0     C58730   2.895   9.835   5.607  0.5367 -0.3412 -0.8234
  436MOL0     C58731   2.982   9.780   5.700 -0.4252  0.3563  0.3653
  436MOL0     C58732   2.994   9.640   5.707  0.9142 -1.0472 -0.5080
  436MOL0     O58733   3.092   9.587   5.789 -0.1709 -0.0614 -0.4219
  436MOL0     C58734   3.159   9.464   5.747  0.0091 -0.6534 -1.1180
  436MOL0     C58735   3.286   9.436   5.837  0.5511 -0.9316  0.1194
  436MOL0     C58736   3.381   9.339   5.767  0.4468  0.3971  0.2529
  436MOL0     C58737   3.450   9.390   5.644  0.9450 -0.0560 -0.4935
  436MOL0     C58738   3.595   9.341   5.638 -0.3356 -0.0029 -0.0767
  436MOL0     C58739   3.682   9.409   5.533 -0.3038 -0.4113  0.1489
  436MOL0     C58740   3.785   9.325   5.461 -0.1797  0.1247  0.3588
  436MOL0     C58741   3.866   9.242   5.559 -0.5893  0.8519 -0.4499
  436MOL0     N58742   3.996   9.189   5.505  0.8653  0.8611 -0.2213
  436MOL0     C58743   4.064   9.252   5.408 -0.1574  0.1387  0.2751
  436MOL0     C58744   4.146   9.155   5.360 -0.1652  0.5089  0.5348
  436MOL0     C58745   4.251   9.183   5.259 -0.9433  0.1466  0.4810
  436MOL0     C58746   4.356   9.083   5.256 -1.1356  0.0785 -0.0846
  436MOL0     C58747   4.452   9.125   5.142 -0.9596  0.2017 -1.0728
  436MOL0     C58748   4.571   9.046   5.105 -0.0459 -0.5775  0.0309
  436MOL0     O58749   4.524   8.912   5.104  0.3176 -0.1776  0.7017
  436MOL0     C58750   4.622   8.821   5.066  0.2840 -0.7915  0.2878
  436MOL0     C58751   4.756   8.851   5.028  0.5437 -0.1641 -0.1028
  436MOL0     C58752   4.845   8.751   4.991 -0.0488  0.2770  0.1163
  436MOL0     C58753   4.805   8.612   4.984  0.4268 -0.9416 -0.1589
  436MOL0     C58754   4.903   8.513   4.959  0.3095 -0.7571  0.7557
  436MOL0     O58755   5.037   8.551   4.984 -0.2401  0.5623 -0.3554
  436MOL0     C58756   5.140   8.465   4.946 -0.1704 -0.8670 -1.0705
  436MOL0     C58757   5.144   8.389   4.834  0.1760 -0.0861  1.2286
  436MOL0     C58758   5.257   8.311   4.804 -0.0011  0.0375  0.3342
  436MOL0     C58759   5.378   8.323   4.875 -0.1257 -0.0942  0.0346
  436MOL0     O58760   5.505   8.273   4.847 -0.0674  0.5464  0.6973
  436MOL0     C58761   5.504   8.154   4.762 -0.6686  0.8832  0.3319
  436MOL0     C58762   5.643   8.094   4.765 -0.6123 -0.2332  0.5929
  436MOL0     C58763   5.726   8.147   4.654 -0.3934 -0.3938  0.5894
  436MOL0     C58764   5.865   8.073   4.643 -0.7733 -0.0918  0.5144
  436MOL0     C58765   5.969   8.147   4.555 -0.1422  0.7657  0.9339
  436MOL0     C58766   6.100   8.078   4.543 -0.9227 -0.1406 -0.3935
  436MOL0     C58767   6.185   8.086   4.671 -0.1590 -0.9205  0.0442
  436MOL0     C58768   6.317   8.012   4.648  0.3080  0.5570 -0.2418
  436MOL0    Cl58769   6.452   8.080   4.751  0.0153 -0.2236 -0.0599
  436MOL0     C58770   5.381   8.411   4.981  0.2983 -0.1151  0.1742
  436MOL0     C58771   5.264   8.473   5.026  0.2228 -0.5528  0.5856
  436MOL0     O58772   4.865   8.399   4.929  0.3030 -0.0072  0.1399
  436MOL0     C58773   4.674   8.586   5.028  0.2565  0.1360  0.2915
  436MOL0     C58774   4.585   8.688   5.068 -0.1939  1.5079 -0.0586
  436MOL0     N58775   4.128   9.034   5.436  0.1056 -0.4910  0.0381
  436MOL0     N58776   4.032   9.055   5.522 -0.1162  0.4461  0.2089
  436MOL0     C58777   2.904   9.556   5.635 -0.8912  0.2595 -0.9656
  436MOL0     C58778   2.813   9.606   5.543 -0.1419 -0.0584 -0.0460
  436MOL0     C58779   2.535   9.915   5.348  1.2204 -0.6306 -0.1724
  436MOL0     C58780   2.549   9.877   5.207 -0.0463  0.5993  0.1416
  436MOL0     C58781   2.455   9.911   5.109 -0.1806  0.3408 -0.5503
  436MOL0     C58782   2.344   9.979   5.150 -0.4756 -0.5761 -0.1729
  436MOL0     O58783   2.251  10.003   5.060 -0.5797 -0.8176  0.1039
  436MOL0     C58784   2.133   9.931   5.076 -0.3480  0.6230 -0.3450
  436MOL0     C58785   2.018   9.985   4.996  1.3086 -0.2616  0.2225
  436MOL0     C58786   1.995  10.132   5.005 -1.3917  0.5176  0.4702
  436MOL0     C58787   1.845  10.178   5.002  0.2666  0.2415 -1.0094
  436MOL0     C58788   1.763  10.165   4.873  0.3406  0.2459  0.0290
  436MOL0     C58789   1.705  10.168   4.771 -0.4229  0.3389 -0.1197
  436MOL0     C58790   2.326  10.027   5.279  0.0797 -0.0473  1.1688
  436MOL0     C58791   2.418  10.000   5.376 -0.3409 -0.0384  0.0674
  436MOL0     C58792   2.377  10.058   5.515  0.4993  0.4631 -0.3624
  436MOL0     H58793   2.864   9.938   5.598  2.1434  0.1839 -0.6106
  436MOL0     H58794   3.035   9.846   5.769 -2.6654  1.6512  0.9702
  436MOL0     H58795   3.097   9.375   5.760  0.2419 -0.9405 -1.9058
  436MOL0     H58796   3.187   9.483   5.643  5.0054 -1.0096 -0.0884
  436MOL0     H58797   3.271   9.392   5.936  0.3416 -0.3641  0.3441
  436MOL0     H58798   3.336   9.532   5.852  0.9874 -1.5621  3.3900
  436MOL0     H58799   3.325   9.249   5.737  0.9816  0.1282  0.0480
  436MOL0     H58800   3.450   9.299   5.842  0.5035 -0.3539 -0.1893
  436MOL0     H58801   3.389   9.370   5.555  1.1133  3.0224 -1.4073
  436MOL0     H58802   3.453   9.499   5.653 -4.5365  0.4538 -1.5077
  436MOL0     H58803   3.643   9.364   5.734 -0.9900 -0.1412  0.2974
  436MOL0     H58804   3.596   9.232   5.629  1.9389 -0.2789  2.3140
  436MOL0     H58805   3.618   9.447   5.453 -1.3432 -2.7223 -0.2111
  436MOL0     H58806   3.739   9.490   5.579 -0.6186 -0.7609  1.1728
  436MOL0     H58807   3.848   9.393   5.403  2.2553 -1.6255  0.8228
  436MOL0     H58808   3.732   9.264   5.387  2.6741 -0.3837 -1.4149
  436MOL0     H58809   3.888   9.304   5.646 -0.4187  0.0646  0.0795
  436MOL0     H58810   3.801   9.159   5.589  0.5347 -0.1987 -0.8152
  436MOL0     H58811   4.073   9.356   5.378  3.2665 -0.1455 -0.1012
  436MOL0     H58812   4.205   9.192   5.160  0.9381 -0.6643 -0.5131
  436MOL0     H58813   4.302   9.277   5.283  0.3621 -0.4748  0.1801
  436MOL0     H58814   4.413   9.073   5.349  0.5911 -1.2705 -1.2179
  436MOL0     H58815   4.313   8.990   5.218 -1.7797 -0.1603  1.1828
  436MOL0     H58816   4.476   9.230   5.159 -0.1546 -0.3282  1.3918
  436MOL0     H58817   4.391   9.117   5.051 -3.0214 -1.4141  0.3479
  436MOL0     H58818   4.653   9.056   5.177  0.4100 -0.4391 -0.4992
  436MOL0     H58819   4.598   9.083   5.006  1.2893 -1.4182  0.0498
  436MOL0     H58820   4.787   8.954   5.045  0.5502 -0.4401  1.7699
  436MOL0     H58821   4.950   8.766   4.971  0.1043  1.1423  1.3940
  436MOL0     H58822   5.062   8.393   4.763  2.3208  2.1529 -1.3866
  436MOL0     H58823   5.255   8.247   4.717 -0.6413 -1.2787  1.2711
  436MOL0     H58824   5.446   8.073   4.808  0.0026 -0.5451 -1.2343
  436MOL0     H58825   5.474   8.168   4.658  0.1656 -2.5178 -0.4873
  436MOL0     H58826   5.702   8.110   4.856  3.2191 -2.0392 -1.3370
  436MOL0     H58827   5.636   7.986   4.751  0.9421 -0.4116  0.9243
  436MOL0     H58828   5.683   8.140   4.553  0.6945  0.2836  0.0623
  436MOL0     H58829   5.746   8.255   4.661  1.4537 -0.5923 -0.7513
  436MOL0     H58830   5.834   7.980   4.593  2.6165 -1.6758  1.0778
  436MOL0     H58831   5.907   8.068   4.744  0.1964  1.1417  0.1975
  436MOL0     H58832   5.984   8.251   4.585  1.6388  0.6726  0.4660
  436MOL0     H58833   5.924   8.152   4.455  1.3071  2.8753  0.3089
  436MOL0     H58834   6.090   7.971   4.521  2.2248 -0.8640  1.0584
  436MOL0     H58835   6.147   8.118   4.452 -0.7347 -0.8093 -0.5978
  436MOL0     H58836   6.137   8.031   4.753 -0.6188  1.3023  1.3352
  436MOL0     H58837   6.204   8.187   4.709 -3.0207  0.2033 -1.2452
  436MOL0     H58838   6.311   7.909   4.684 -0.0797  1.1597  1.4898
  436MOL0     H58839   6.348   8.013   4.543 -1.8817 -1.0521 -0.9545
  436MOL0     H58840   5.472   8.434   5.035  0.4066  1.0429 -0.4634
  436MOL0     H58841   5.259   8.524   5.122  1.3362 -1.0491  0.9173
  436MOL0     H58842   4.635   8.485   5.022 -1.6490  0.7534  1.4529
  436MOL0     H58843   4.482   8.665   5.092  0.8243 -1.4789  1.9611
  436MOL0     H58844   2.919   9.449   5.636  0.7305  0.3972 -3.2972
  436MOL0     H58845   2.743   9.542   5.490  0.1461  0.7181 -1.4282
  436MOL0     H58846   2.643   9.825   5.188 -0.2598  0.1351  0.3528
  436MOL0     H58847   2.465   9.892   5.002  0.1781  0.4191 -0.5308
  436MOL0     H58848   2.098   9.928   5.179  0.4839  0.8001 -0.0548
  436MOL0     H58849   2.162   9.829   5.049  1.1992  1.1647 -0.8347
  436MOL0     H58850   1.928   9.937   5.034 -0.1863 -0.0245 -2.7364
  436MOL0     H58851   2.032   9.957   4.891  2.0971 -1.4450  0.6235
  436MOL0     H58852   2.060  10.171   4.926 -1.0176  1.1729  1.0811
  436MOL0     H58853   2.047  10.165   5.096  1.3456  0.1049 -0.8550
  436MOL0     H58854   1.797  10.121   5.083 -0.4293 -1.1511 -2.3584
  436MOL0     H58855   1.840  10.280   5.043 -4.8270 -1.2834  3.2715
  436MOL0     H58856   1.643  10.145   4.686  1.6934 -4.2697 -0.7512
  436MOL0     H58857   2.233  10.079   5.298  1.6833  3.4247  0.2114
  436MOL0     H58858   2.323  10.152   5.499  1.0547  0.9120  0.3709
  436MOL0     H58859   2.311   9.990   5.569  0.3220  2.3788  2.0242
  436MOL0     H58860   2.461  10.086   5.578 -0.1842  2.6071 -0.3264
  437MOL0     O58861   0.868   8.384   8.900 -0.3208  0.3168  0.6662
  437MOL0     C58862   0.861   8.383   9.021  0.1631  0.4321  0.0159
  437MOL0     O58863   0.961   8.379   9.108 -0.4281 -0.2864 -0.3616
  437MOL0     C58864   1.091   8.337   9.066  1.2692  0.6932  0.0505
  437MOL0     C58865   1.181   8.353   9.172 -0.8815 -0.0826 -0.0356
  437MOL0     C58866   1.313   8.314   9.162 -0.2052  0.1710 -0.1502
  437MOL0     C58867   1.362   8.256   9.042  0.6705  0.1383 -0.5654
  437MOL0     O58868   1.500   8.244   9.045 -0.1065  0.4411  0.2741
  437MOL0     C58869   1.570   8.292   8.934 -0.3262  0.3874 -0.6670
  437MOL0     C58870   1.605   8.187   8.824  0.0765 -0.4780 -0.6042
  437MOL0     C58871   1.652   8.264   8.710 -0.3074  0.6033 -0.3331
  437MOL0     C58872   1.675   8.180   8.577  1.0480  0.5551 -0.7696
  437MOL0     C58873   1.538   8.160   8.515  0.2858 -0.1627 -0.4795
  437MOL0     C58874   1.547   8.102   8.383 -0.0572  0.3472 -0.3967
  437MOL0     C58875   1.409   8.116   8.311 -0.8787  0.3468 -0.5186
  437MOL0     C58876   1.416   8.094   8.157 -0.1827 -1.2143  0.7155
  437MOL0     N58877   1.520   8.184   8.092 -0.2128 -0.2790 -0.5180
  437MOL0     C58878   1.537   8.317   8.117  0.9659 -0.3099 -0.0024
  437MOL0     C58879   1.654   8.347   8.056  0.5173  0.4547  0.2261
  437MOL0     C58880   1.728   8.478   8.046  0.1353  0.5788 -0.1851
  437MOL0     C58881   1.658   8.593   7.976  0.4276  0.1912  0.0529
  437MOL0     C58882   1.661   8.579   7.828 -0.0637 -0.4089  0.4623
  437MOL0     C58883   1.797   8.588   7.762  0.2725 -0.0110  0.2012
  437MOL0     O58884   1.868   8.691   7.824 -0.6345 -1.1056  0.2650
  437MOL0     C58885   2.005   8.692   7.831  0.0753 -0.3678  0.0337
  437MOL0     C58886   2.058   8.760   7.937 -0.2391  0.2910  0.1619
  437MOL0     C58887   2.191   8.766   7.957 -0.3100 -0.0429  0.7348
  437MOL0     C58888   2.280   8.733   7.854 -0.7381  0.5482  0.2948
  437MOL0     C58889   2.430   8.764   7.866  0.3397 -0.0054 -0.2751
  437MOL0     O58890   2.502   8.776   7.752 -0.1471 -0.2434 -0.3113
  437MOL0     C58891   2.641   8.796   7.759 -0.2846  0.5888 -0.3770
  437MOL0     C58892   2.690   8.931   7.766  0.7763  0.4957  0.9048
  437MOL0     C58893   2.825   8.962   7.746  0.3962  0.4415 -0.6305
  437MOL0     C58894   2.914   8.856   7.734 -0.3355 -0.2476 -0.0907
  437MOL0     O58895   3.045   8.880   7.707  0.3875  0.3083  0.2586
  437MOL0     C58896   3.135   8.862   7.822  0.4908 -0.4901 -0.6451
  437MOL0     C58897   3.263   8.804   7.773 -0.2230  0.1932  0.3630
  437MOL0     C58898   3.360   8.793   7.884 -0.3715 -0.6970 -0.9946
  437MOL0     C58899   3.510   8.777   7.832  0.3613  0.2394  0.2642
  437MOL0     C58900   3.614   8.771   7.946  0.3628 -0.0248 -0.1396
  437MOL0     C58901   3.762   8.802   7.897  0.0866  0.7391  0.5327
  437MOL0     C58902   3.774   8.943   7.838  0.2615  0.2499  0.0839
  437MOL0     C58903   3.914   8.998   7.861 -0.0213  0.8146  0.3985
  437MOL0    Cl58904   3.939   9.044   8.023  0.6280  0.1342 -0.4699
  437MOL0     C58905   2.868   8.723   7.734 -0.2022 -0.0695  0.2692
  437MOL0     C58906   2.733   8.694   7.732 -0.2149 -0.9848 -0.0269
  437MOL0     O58907   2.482   8.768   7.977  0.4286  0.2329 -0.0982
  437MOL0     C58908   2.235   8.671   7.738 -0.9738  0.9156  0.3472
  437MOL0     C58909   2.093   8.644   7.725 -0.2336 -0.5966 -0.5282
  437MOL0     N58910   1.707   8.229   7.997 -0.0184  0.9235  0.4502
  437MOL0     N58911   1.620   8.136   8.020  0.3558  0.8344  0.1888
  437MOL0     C58912   1.270   8.237   8.939 -0.3604  0.1672  0.8211
  437MOL0     C58913   1.135   8.275   8.949 -0.5454 -0.6938  0.5682
  437MOL0     C58914   0.725   8.403   9.079  0.4448 -0.4738 -0.3267
  437MOL0     C58915   0.721   8.451   9.215  0.8365  0.5128 -0.5475
  437MOL0     C58916   0.601   8.475   9.279  0.8715  0.2998  0.2932
  437MOL0     C58917   0.485   8.466   9.202 -0.0336 -0.8940 -0.5209
  437MOL0     O58918   0.363   8.510   9.252 -1.1458  0.0823  0.0317
  437MOL0     C58919   0.357   8.652   9.267 -0.3630 -0.3992  0.0019
  437MOL0     C58920   0.235   8.715   9.195 -1.3895  0.3075  0.0965
  437MOL0     C58921   0.119   8.733   9.291  1.3674 -0.3405 -0.4327
  437MOL0     C58922  -0.005   8.776   9.199 -0.0573 -0.3992  0.1044
  437MOL0     C58923   0.022   8.921   9.168 -0.2221 -0.3048  0.6744
  437MOL0     C58924   0.033   9.042   9.148 -1.0368 -0.4809 -0.6716
  437MOL0     C58925   0.486   8.420   9.070  0.0971  0.5825  0.7383
  437MOL0     C58926   0.610   8.376   9.012  0.6130  0.3743 -0.8449
  437MOL0     C58927   0.595   8.298   8.892  0.8246 -0.0136 -0.1439
  437MOL0     H58928   1.147   8.402   9.263 -1.2492 -1.3471  0.5261
  437MOL0     H58929   1.381   8.318   9.246  1.1676  3.6554 -1.2517
  437MOL0     H58930   1.514   8.372   8.886 -1.5619 -1.4067 -2.4110
  437MOL0     H58931   1.666   8.333   8.966  0.9139 -0.3264 -3.1636
  437MOL0     H58932   1.511   8.143   8.793 -1.1334 -1.7507  4.0394
  437MOL0     H58933   1.687   8.122   8.857  0.0654 -1.2495 -2.0313
  437MOL0     H58934   1.748   8.310   8.738 -1.0743  0.6259  2.4446
  437MOL0     H58935   1.580   8.341   8.680 -0.1001  1.2709  0.8257
  437MOL0     H58936   1.741   8.229   8.504  1.5291  0.9955 -0.0447
  437MOL0     H58937   1.717   8.083   8.605 -3.0040 -1.2857 -0.4197
  437MOL0     H58938   1.458   8.119   8.577 -0.5630  2.7677  0.4754
  437MOL0     H58939   1.507   8.262   8.493  1.5771  0.1680 -0.8177
  437MOL0     H58940   1.628   8.146   8.324  2.4644 -4.0313 -0.6504
  437MOL0     H58941   1.577   7.997   8.391 -0.8029  0.2884  3.5838
  437MOL0     H58942   1.370   8.213   8.341  1.3869  1.7804 -1.9462
  437MOL0     H58943   1.348   8.035   8.353 -2.2531  0.8129 -1.5120
  437MOL0     H58944   1.447   7.998   8.115  4.3959  1.6155 -3.3241
  437MOL0     H58945   1.326   8.130   8.106 -0.6012  0.4694  2.5302
  437MOL0     H58946   1.474   8.383   8.174  0.2482  0.3784 -1.5541
  437MOL0     H58947   1.752   8.510   8.148 -1.8732 -0.6848  0.7489
  437MOL0     H58948   1.825   8.454   8.002  1.0600  1.9284  1.0247
  437MOL0     H58949   1.555   8.592   8.011  1.1110  1.1083  2.2514
  437MOL0     H58950   1.696   8.692   8.004 -1.2813  0.6728  0.7827
  437MOL0     H58951   1.600   8.653   7.776  2.6200  4.2580  3.2752
  437MOL0     H58952   1.642   8.473   7.811  4.1211 -1.3155  0.2539
  437MOL0     H58953   1.772   8.617   7.660 -0.2367 -1.0923  0.0074
  437MOL0     H58954   1.857   8.496   7.770  0.6692  0.0692 -1.4434
  437MOL0     H58955   1.994   8.800   8.015 -1.3602 -0.7524 -0.2064
  437MOL0     H58956   2.232   8.804   8.050  1.1887 -0.1973  0.1760
  437MOL0     H58957   2.628   9.019   7.783  1.2720  0.5823  2.4450
  437MOL0     H58958   2.864   9.063   7.744  0.4909  0.4221 -0.0025
  437MOL0     H58959   3.147   8.958   7.874  1.0549 -1.0462  0.2679
  437MOL0     H58960   3.084   8.799   7.896  1.1314  3.0955  3.2614
  437MOL0     H58961   3.242   8.704   7.734  0.2071 -0.9353  2.8231
  437MOL0     H58962   3.309   8.875   7.703  2.6444 -0.8762  1.0167
  437MOL0     H58963   3.349   8.878   7.952 -0.3692 -3.1110  2.1967
  437MOL0     H58964   3.341   8.700   7.937 -0.0640  0.8256  1.9628
  437MOL0     H58965   3.527   8.864   7.768 -1.0478  0.9825  0.8604
  437MOL0     H58966   3.515   8.690   7.766 -2.6579 -0.1608  0.4125
  437MOL0     H58967   3.609   8.679   8.005  0.7276 -0.8105 -1.2937
  437MOL0     H58968   3.587   8.847   8.020 -1.7451 -1.8418  1.0725
  437MOL0     H58969   3.828   8.788   7.982 -0.7980  3.0976  1.6769
  437MOL0     H58970   3.784   8.729   7.818 -1.7010  0.9076 -0.1772
  437MOL0     H58971   3.704   9.006   7.893  2.3917 -0.0159  3.4033
  437MOL0     H58972   3.752   8.955   7.732  1.2143 -1.7004 -0.3819
  437MOL0     H58973   4.000   8.939   7.827  0.5948  3.0522 -2.3305
  437MOL0     H58974   3.913   9.085   7.795  0.8149  1.6727  1.4994
  437MOL0     H58975   2.941   8.645   7.714  0.7462  0.7524  0.4488
  437MOL0     H58976   2.708   8.590   7.711  0.5379 -0.8434 -1.7332
  437MOL0     H58977   2.303   8.627   7.667 -2.1593  0.3633 -0.4811
  437MOL0     H58978   2.053   8.610   7.629 -1.4206 -0.5465 -0.0704
  437MOL0     H58979   1.310   8.204   8.844  1.6814  0.6173  1.4681
  437MOL0     H58980   1.073   8.264   8.860  2.5579  2.1113 -2.2592
  437MOL0     H58981   0.815   8.469   9.267 -0.1487  1.6585  0.9073
  437MOL0     H58982   0.602   8.497   9.386 -0.8736  1.8994  0.0311
  437MOL0     H58983   0.447   8.690   9.217  0.4748 -1.9914  0.2295
  437MOL0     H58984   0.371   8.684   9.371  2.2352  1.0280 -0.7035
  437MOL0     H58985   0.211   8.652   9.109  1.4249  0.2153 -0.7179
  437MOL0     H58986   0.274   8.811   9.158  1.1130 -0.8387 -0.4421
  437MOL0     H58987   0.134   8.809   9.369 -0.4038 -0.5598  0.1769
  437MOL0     H58988   0.091   8.647   9.353  0.9638  2.2749  3.3624
  437MOL0     H58989  -0.016   8.712   9.112  1.8051 -1.9584  0.9449
  437MOL0     H58990  -0.101   8.767   9.250 -0.0324 -1.1660  0.0210
  437MOL0     H58991   0.022   9.143   9.114 -0.2653 -1.0101 -2.6012
  437MOL0     H58992   0.389   8.408   9.023 -0.1358 -2.7939  1.7835
  437MOL0     H58993   0.638   8.335   8.798  1.5193 -3.3489 -1.2686
  437MOL0     H58994   0.649   8.204   8.904 -0.2882 -0.7262 -0.5666
  437MOL0     H58995   0.491   8.279   8.865  1.4096 -1.6179 -1.4035
  438MOL0     O58996   3.313   3.160   3.762  0.4066 -0.2679  0.5491
  438MOL0     C58997   3.246   3.073   3.825  0.4819  0.2229 -0.7642
  438MOL0     O58998   3.290   3.012   3.942 -0.4485  0.2503  0.6315
  438MOL0     C58999   3.426   3.016   3.956  0.2413 -0.7512  0.1247
  438MOL0     C59000   3.476   3.106   4.055  0.1050  0.0547 -0.8258
  438MOL0     C59001   3.612   3.100   4.081 -0.3336 -0.6592  0.7991
  438MOL0     C59002   3.707   3.014   4.018 -0.5654  0.3016  0.1023
  438MOL0     O59003   3.836   3.014   4.058  0.1823 -0.0499  0.5100
  438MOL0     C59004   3.943   2.998   3.962  0.9921  0.5471  0.2775
  438MOL0     C59005   4.072   3.008   4.034  0.1885 -0.2319  0.7506
  438MOL0     C59006   4.198   2.980   3.954  0.2388  0.2100  0.8353
  438MOL0     C59007   4.314   2.968   4.055 -0.3256  0.7708 -0.4888
  438MOL0     C59008   4.441   2.956   3.980  0.7209 -0.1035 -0.1913
  438MOL0     C59009   4.554   2.949   4.083 -0.3077 -0.3612  1.0463
  438MOL0     C59010   4.618   3.088   4.109  0.5594  0.3124 -0.7812
  438MOL0     C59011   4.742   3.086   4.193  0.0503  0.1356 -0.1230
  438MOL0     N59012   4.860   3.046   4.117  0.3890 -0.1986 -0.4139
  438MOL0     C59013   4.937   3.135   4.051  0.3427  1.0976  0.8346
  438MOL0     C59014   5.052   3.058   4.023 -0.1935 -0.0113  0.2452
  438MOL0     C59015   5.197   3.093   3.977  0.0166 -0.7316  1.0292
  438MOL0     C59016   5.288   3.136   4.099 -0.4433 -0.3868 -0.4241
  438MOL0     C59017   5.230   3.270   4.165  0.9979  0.9111 -0.4177
  438MOL0     C59018   5.323   3.324   4.266 -0.6066  0.8575  0.7856
  438MOL0     O59019   5.445   3.371   4.214 -0.8801  0.1514  0.9125
  438MOL0     C59020   5.541   3.395   4.306 -0.0585  0.0615  0.1815
  438MOL0     C59021   5.663   3.418   4.250  0.1276 -0.2981  0.7269
  438MOL0     C59022   5.779   3.448   4.328  1.0496 -0.7667 -0.4268
  438MOL0     C59023   5.758   3.465   4.470 -0.1576 -0.3833  0.2417
  438MOL0     C59024   5.861   3.520   4.558  0.6500  0.0789 -0.5695
  438MOL0     O59025   5.983   3.550   4.511 -0.5009  0.0104 -0.1956
  438MOL0     C59026   6.084   3.599   4.597 -0.1793 -0.3694  0.6020
  438MOL0     C59027   6.110   3.545   4.724 -0.0032 -0.4724  0.0823
  438MOL0     C59028   6.205   3.615   4.805 -0.1405 -0.3458 -0.5260
  438MOL0     C59029   6.288   3.721   4.758 -0.8218 -0.4284  0.5920
  438MOL0     O59030   6.377   3.785   4.849  0.1339 -0.0968  0.5310
  438MOL0     C59031   6.498   3.843   4.791  0.5082  0.3495  0.2342
  438MOL0     C59032   6.604   3.845   4.901  0.3906 -0.0662 -0.4619
  438MOL0     C59033   6.714   3.946   4.867 -0.8410  0.1385 -0.3703
  438MOL0     C59034   6.805   3.953   5.000 -0.0087  1.0181  0.3326
  438MOL0     C59035   6.908   4.064   4.992  0.2467 -0.4472 -0.6971
  438MOL0     C59036   6.990   4.047   5.124 -0.4527  0.0186 -0.0720
  438MOL0     C59037   7.074   4.165   5.164 -0.5383  0.3658  0.5072
  438MOL0     C59038   7.185   4.208   5.064 -0.2820  1.0060  0.8983
  438MOL0    Cl59039   7.279   4.339   5.129 -0.1898 -0.0135 -0.2355
  438MOL0     C59040   6.261   3.771   4.629  0.4971  1.0531 -0.1725
  438MOL0     C59041   6.158   3.708   4.550  0.6315  0.5537 -0.3171
  438MOL0     O59042   5.834   3.523   4.680 -0.4855  0.1112  0.1419
  438MOL0     C59043   5.628   3.447   4.519  0.1541 -0.0575 -0.0891
  438MOL0     C59044   5.520   3.405   4.439  0.0924  0.3148 -0.7269
  438MOL0     N59045   5.021   2.924   4.055  0.1265  0.5481  0.0690
  438MOL0     N59046   4.909   2.920   4.122 -0.3624 -0.5399 -0.3441
  438MOL0     C59047   3.655   2.927   3.924  0.3943 -0.0097 -0.1695
  438MOL0     C59048   3.520   2.932   3.885 -0.3621 -0.2340 -0.2228
  438MOL0     C59049   3.112   3.027   3.773  0.4917 -1.1736 -0.6828
  438MOL0     C59050   3.065   2.896   3.815 -0.5006 -0.4369 -0.2639
  438MOL0     C59051   2.957   2.829   3.749  1.3100  0.2901 -0.0372
  438MOL0     C59052   2.888   2.894   3.653 -0.2158  0.5469  0.5460
  438MOL0     O59053   2.771   2.845   3.593 -0.1364 -0.4993 -1.1836
  438MOL0     C59054   2.693   2.750   3.662 -0.1921  0.3281  0.4742
  438MOL0     C59055   2.583   2.711   3.566  0.3664 -0.8328  0.7966
  438MOL0     C59056   2.486   2.825   3.526 -0.1180 -0.4697 -0.2636
  438MOL0     C59057   2.358   2.831   3.612 -0.8938 -1.0203 -0.0263
  438MOL0     C59058   2.390   2.906   3.738 -0.2508 -0.2992 -0.5730
  438MOL0     C59059   2.408   2.981   3.831  1.0187  1.0236  0.2064
  438MOL0     C59060   2.924   3.024   3.616  1.4209 -0.5793 -1.3143
  438MOL0     C59061   3.030   3.087   3.678 -0.1844 -0.1545  0.0785
  438MOL0     C59062   3.063   3.223   3.621 -0.1610 -0.1577  0.3592
  438MOL0     H59063   3.408   3.168   4.113 -0.8112 -0.3579 -1.4491
  438MOL0     H59064   3.639   3.164   4.163  2.1694 -0.4427 -0.1174
  438MOL0     H59065   3.931   2.901   3.912 -1.8198  0.1262  1.5683
  438MOL0     H59066   3.936   3.075   3.884  0.5845 -1.3787 -1.7076
  438MOL0     H59067   4.065   2.942   4.121 -1.8719 -1.3147 -0.1748
  438MOL0     H59068   4.079   3.104   4.088  2.5203 -0.3809  0.7901
  438MOL0     H59069   4.220   3.066   3.890  1.7320 -2.0463 -1.8982
  438MOL0     H59070   4.189   2.889   3.894  1.6130  0.6477 -0.1013
  438MOL0     H59071   4.307   3.057   4.117 -3.6075  1.4821 -1.6589
  438MOL0     H59072   4.297   2.885   4.124 -2.7629  2.5281  1.1812
  438MOL0     H59073   4.436   2.868   3.915 -3.6077 -0.9123  0.9652
  438MOL0     H59074   4.437   3.047   3.920 -0.6229  1.8759  2.6780
  438MOL0     H59075   4.515   2.903   4.174 -1.4432  1.3062  1.4426
  438MOL0     H59076   4.626   2.881   4.036 -0.2569  1.7299 -2.1535
  438MOL0     H59077   4.534   3.138   4.156  0.8182 -0.5921  0.6923
  438MOL0     H59078   4.630   3.145   4.016 -2.4191 -2.7263 -3.2958
  438MOL0     H59079   4.753   3.188   4.230 -3.3802  0.7756 -0.4853
  438MOL0     H59080   4.728   3.021   4.280 -1.0173  0.3166 -0.1486
  438MOL0     H59081   4.920   3.241   4.039 -2.5007  0.8058  1.4970
  438MOL0     H59082   5.249   3.004   3.939  0.7397 -0.4568  1.3784
  438MOL0     H59083   5.210   3.178   3.909  2.0421 -0.1637  2.0694
  438MOL0     H59084   5.296   3.063   4.180  1.1181 -0.0727 -0.2473
  438MOL0     H59085   5.394   3.146   4.072  0.2249 -1.3787  1.5970
  438MOL0     H59086   5.139   3.250   4.221  0.2109  2.9286 -0.8884
  438MOL0     H59087   5.199   3.348   4.095  1.7428  0.2785 -1.4853
  438MOL0     H59088   5.355   3.240   4.330  4.7018  2.7603  1.1380
  438MOL0     H59089   5.276   3.414   4.306 -1.8835 -0.3068  2.0349
  438MOL0     H59090   5.672   3.398   4.144 -1.8882 -2.3195  0.8717
  438MOL0     H59091   5.875   3.468   4.282  1.2584 -2.2313 -0.6832
  438MOL0     H59092   6.050   3.461   4.757 -2.8010  0.7842 -1.4513
  438MOL0     H59093   6.213   3.593   4.911  2.5918 -0.2961 -0.6499
  438MOL0     H59094   6.534   3.789   4.703 -4.8007  1.1791 -2.8468
  438MOL0     H59095   6.480   3.948   4.763 -0.1801  0.5355  1.3402
  438MOL0     H59096   6.548   3.864   4.993 -2.7881 -2.0516 -1.7945
  438MOL0     H59097   6.655   3.748   4.909 -1.6289 -1.2972 -1.7056
  438MOL0     H59098   6.766   3.905   4.780 -0.8399 -0.7434  0.0343
  438MOL0     H59099   6.675   4.044   4.840 -1.1427 -0.3538 -1.8284
  438MOL0     H59100   6.856   3.856   4.993  1.8052  2.0080 -1.5067
  438MOL0     H59101   6.742   3.954   5.089 -1.9013 -0.9579 -0.8700
  438MOL0     H59102   6.856   4.160   4.984  1.0070  0.0093 -0.2494
  438MOL0     H59103   6.975   4.049   4.907 -0.2602 -2.7081 -0.7691
  438MOL0     H59104   6.921   4.011   5.201  3.5439 -4.2714  2.0309
  438MOL0     H59105   7.060   3.963   5.113  0.2730  0.4228  1.2370
  438MOL0     H59106   7.122   4.133   5.257 -0.2102 -0.6473  0.0067
  438MOL0     H59107   7.011   4.251   5.187  1.8445  2.2881  0.3131
  438MOL0     H59108   7.245   4.123   5.031 -0.4838  1.0634  0.3696
  438MOL0     H59109   7.128   4.242   4.977  0.3888 -0.5281 -0.1834
  438MOL0     H59110   6.311   3.857   4.586 -1.1859  1.0433 -2.3463
  438MOL0     H59111   6.145   3.749   4.450  0.6833 -2.2947 -1.5954
  438MOL0     H59112   5.618   3.465   4.626 -0.0307  2.0789 -0.4194
  438MOL0     H59113   5.421   3.410   4.483  1.4506  0.1664  2.6495
  438MOL0     H59114   3.706   2.852   3.864  0.0999 -0.5102  0.1989
  438MOL0     H59115   3.485   2.862   3.810  0.0335 -1.9437  1.1194
  438MOL0     H59116   3.103   2.842   3.902  1.4881 -0.4950 -1.1004
  438MOL0     H59117   2.915   2.733   3.780  0.8140  0.4836 -0.1019
  438MOL0     H59118   2.647   2.790   3.753 -1.2206 -0.5384  0.3500
  438MOL0     H59119   2.755   2.661   3.673 -0.1579  0.3589  0.5330
  438MOL0     H59120   2.523   2.633   3.613  1.2298  0.0633  3.5892
  438MOL0     H59121   2.634   2.666   3.480 -1.0456  0.4188 -0.7879
  438MOL0     H59122   2.464   2.797   3.422 -3.5889 -0.4677  0.3468
  438MOL0     H59123   2.526   2.927   3.522 -4.7922  1.6516 -0.2831
  438MOL0     H59124   2.272   2.869   3.557  0.2565 -0.9008 -1.8282
  438MOL0     H59125   2.344   2.728   3.647  2.8122 -1.4819  0.6141
  438MOL0     H59126   2.404   3.031   3.925  1.4207 -1.0182  1.3758
  438MOL0     H59127   2.856   3.073   3.546 -1.8869  0.3352  2.2001
  438MOL0     H59128   3.147   3.219   3.551  1.2595  0.7966  1.9297
  438MOL0     H59129   2.978   3.275   3.577 -0.0897 -0.2541  0.1093
  438MOL0     H59130   3.093   3.290   3.702  3.0330  1.3292 -1.8655
  439MOL0     O59131   9.547   8.872   2.788  0.0567  0.0287 -0.3965
  439MOL0     C59132   9.433   8.827   2.814  0.5753 -0.3814 -0.1928
  439MOL0     O59133   9.403   8.731   2.903  0.4267 -0.0241  0.1208
  439MOL0     C59134   9.497   8.680   2.985  0.8933 -0.1446 -0.4552
  439MOL0     C59135   9.464   8.654   3.120  0.3461 -0.1494  0.0146
  439MOL0     C59136   9.553   8.601   3.213  0.6917  0.3587 -0.0377
  439MOL0     C59137   9.687   8.589   3.179 -0.8287  0.0631  1.0524
  439MOL0     O59138   9.772   8.545   3.275  0.0146  0.5047 -0.4133
  439MOL0     C59139   9.840   8.659   3.328 -0.2618  0.2471  0.7166
  439MOL0     C59140   9.934   8.630   3.453 -0.1597  0.0959  0.0252
  439MOL0     C59141  10.011   8.757   3.483  0.1466 -0.8988  0.1477
  439MOL0     C59142  10.119   8.734   3.587  0.4710  0.2938  1.0147
  439MOL0     C59143  10.199   8.860   3.629 -0.5906  0.2787  0.0682
  439MOL0     C59144  10.272   8.810   3.758 -0.5836 -0.4425 -0.1342
  439MOL0     C59145  10.349   8.918   3.836  0.1648  0.4467 -0.4870
  439MOL0     C59146  10.422   8.866   3.962 -1.8129  0.1606  0.5744
  439MOL0     N59147  10.539   8.952   3.990  0.1452 -0.1602  0.6142
  439MOL0     C59148  10.553   9.066   4.065  0.6524 -0.0845 -1.1297
  439MOL0     C59149  10.677   9.085   4.113  0.1735 -0.6801  0.9732
  439MOL0     C59150  10.723   9.183   4.212 -0.3121  0.2084  0.8616
  439MOL0     C59151  10.866   9.155   4.265 -0.9263  0.0720 -0.2774
  439MOL0     C59152  10.921   9.271   4.353  0.4440 -0.4109  0.2422
  439MOL0     C59153  11.062   9.245   4.400  0.1864 -0.0487 -0.6960
  439MOL0     O59154  11.100   9.346   4.492  0.0229  0.2282  0.1906
  439MOL0     C59155  11.194   9.325   4.587 -0.2523 -0.3701  0.1371
  439MOL0     C59156  11.282   9.208   4.595 -0.1522  0.5553 -0.1034
  439MOL0     C59157  11.385   9.201   4.688 -0.1438 -0.5806 -0.2270
  439MOL0     C59158  11.412   9.307   4.784 -0.9962 -1.4899  0.8558
  439MOL0     C59159  11.527   9.305   4.878 -0.7580 -0.0479  0.5534
  439MOL0     O59160  11.589   9.191   4.891 -0.6546 -0.0994 -0.5490
  439MOL0     C59161  11.687   9.165   4.984 -0.1074  0.2656  0.2809
  439MOL0     C59162  11.784   9.080   4.934  0.1597  0.3834  0.4819
  439MOL0     C59163  11.889   9.035   5.024  0.1352 -0.6173 -0.0240
  439MOL0     C59164  11.886   9.090   5.156 -0.0230  0.3633  0.3938
  439MOL0     O59165  11.988   9.071   5.247 -0.4464 -0.2122  0.2097
  439MOL0     C59166  12.120   9.092   5.191 -0.1208 -0.5585  0.6296
  439MOL0     C59167  12.224   9.121   5.310  1.2729  0.9534 -0.0732
  439MOL0     C59168  12.235   9.005   5.418  0.1760  1.1231 -0.5170
  439MOL0     C59169  12.374   8.917   5.410  0.1858 -0.5058 -0.1684
  439MOL0     C59170  12.373   8.833   5.275  0.5383  0.4314  0.5915
  439MOL0     C59171  12.306   8.692   5.281  0.6276  0.5687  0.1322
  439MOL0     C59172  12.287   8.645   5.128 -0.3198  0.2140  0.3998
  439MOL0     C59173  12.167   8.557   5.108 -0.0164  0.3954 -1.0290
  439MOL0    Cl59174  12.162   8.503   4.941 -0.7584 -1.0570 -0.0916
  439MOL0     C59175  11.781   9.165   5.199 -0.0790  0.4305  0.1172
  439MOL0     C59176  11.682   9.208   5.124  0.2773  0.9780  1.4081
  439MOL0     O59177  11.573   9.406   4.927 -0.0239 -0.3152 -0.9649
  439MOL0     C59178  11.320   9.413   4.787  0.5578  0.4059 -0.1691
  439MOL0     C59179  11.211   9.425   4.689 -0.8670 -0.0104 -0.4854
  439MOL0     N59180  10.748   8.982   4.051 -0.0067  0.0068  0.9240
  439MOL0     N59181  10.669   8.908   3.980 -0.3789 -0.3354  0.1338
  439MOL0     C59182   9.726   8.620   3.044  0.2526  0.3030 -0.0917
  439MOL0     C59183   9.629   8.653   2.948  0.6952 -0.0774 -0.5381
  439MOL0     C59184   9.317   8.869   2.727  0.7305 -0.5366  0.0695
  439MOL0     C59185   9.191   8.818   2.759 -0.0781  0.0439 -0.3643
  439MOL0     C59186   9.068   8.849   2.697 -0.5713 -0.0297 -0.5371
  439MOL0     C59187   9.077   8.944   2.591 -0.4125  0.1468 -0.3051
  439MOL0     O59188   8.961   8.990   2.522  0.8483  0.6439 -0.0576
  439MOL0     C59189   8.842   8.933   2.570  0.0339 -0.1402  0.0016
  439MOL0     C59190   8.723   9.004   2.504  0.0269  0.3593 -0.4424
  439MOL0     C59191   8.741   9.157   2.503  0.2869 -0.0960 -0.4597
  439MOL0     C59192   8.627   9.234   2.440  0.5372 -1.2421 -0.9271
  439MOL0     C59193   8.583   9.192   2.312  0.0895 -0.5981 -0.2921
  439MOL0     C59194   8.544   9.170   2.198  0.7694 -0.4538  0.0257
  439MOL0     C59195   9.203   8.999   2.555  0.3576  0.6025 -0.1526
  439MOL0     C59196   9.322   8.960   2.616 -0.3028  0.4404 -0.2375
  439MOL0     C59197   9.445   9.029   2.574  0.1450  0.2426  1.1764
  439MOL0     H59198   9.360   8.668   3.149  0.2347  1.3020 -0.9711
  439MOL0     H59199   9.511   8.575   3.310  0.0725 -1.8399 -0.8321
  439MOL0     H59200   9.905   8.704   3.252 -2.4325  4.3335  0.9991
  439MOL0     H59201   9.774   8.740   3.359  0.8806  1.0116  1.2352
  439MOL0     H59202   9.998   8.546   3.424  0.2834 -0.0393  1.3566
  439MOL0     H59203   9.874   8.608   3.541  0.2764  1.1289  0.5959
  439MOL0     H59204   9.935   8.830   3.511  1.5584  0.7978 -0.3182
  439MOL0     H59205  10.060   8.802   3.397  0.7569 -0.6478  0.6171
  439MOL0     H59206  10.076   8.681   3.673  0.2507 -2.6545 -0.7792
  439MOL0     H59207  10.186   8.657   3.546 -1.2687 -1.0548  0.5987
  439MOL0     H59208  10.277   8.872   3.553 -2.6451 -3.1486 -2.9647
  439MOL0     H59209  10.140   8.948   3.656 -0.1174 -0.5650  4.7219
  439MOL0     H59210  10.208   8.759   3.830  0.9972 -0.7408  1.1182
  439MOL0     H59211  10.347   8.734   3.732  1.4090  0.8366  1.5424
  439MOL0     H59212  10.273   8.995   3.854 -2.5143 -2.4537  1.9566
  439MOL0     H59213  10.423   8.958   3.766 -0.4942  0.7542 -1.0163
  439MOL0     H59214  10.344   8.862   4.039 -1.6083 -0.8243  0.7429
  439MOL0     H59215  10.466   8.766   3.953  0.4938  1.2322 -0.8553
  439MOL0     H59216  10.470   9.133   4.088  0.0147 -1.2498  0.0709
  439MOL0     H59217  10.727   9.283   4.167  2.0856 -1.0900 -2.1890
  439MOL0     H59218  10.644   9.198   4.285 -1.3962 -1.9006  0.1980
  439MOL0     H59219  10.860   9.065   4.327 -1.5076 -0.8743 -1.6583
  439MOL0     H59220  10.930   9.125   4.181 -1.1467  2.5552 -1.4411
  439MOL0     H59221  10.860   9.283   4.443  2.4766 -4.5653  2.4924
  439MOL0     H59222  10.934   9.357   4.286 -0.2433 -0.5137 -0.0228
  439MOL0     H59223  11.132   9.224   4.318 -1.0953 -0.7272 -1.6524
  439MOL0     H59224  11.060   9.151   4.456 -0.9351  1.0653  1.2239
  439MOL0     H59225  11.263   9.124   4.528 -2.1433  2.1097 -1.5968
  439MOL0     H59226  11.454   9.117   4.691  0.7729  0.0262 -2.1519
  439MOL0     H59227  11.798   9.056   4.829  1.5592 -0.6185  0.8703
  439MOL0     H59228  11.977   8.995   4.975 -0.8199  0.1325 -2.5157
  439MOL0     H59229  12.150   9.007   5.129  0.3985  0.2498 -0.2761
  439MOL0     H59230  12.109   9.178   5.123 -0.5793 -0.1844  1.1722
  439MOL0     H59231  12.320   9.135   5.259  0.9283 -4.2012 -2.7868
  439MOL0     H59232  12.186   9.211   5.360  1.7761  0.8912  0.4456
  439MOL0     H59233  12.240   9.045   5.520  3.2561 -2.6861  1.0881
  439MOL0     H59234  12.151   8.938   5.398  0.0130  0.7752  1.2346
  439MOL0     H59235  12.389   8.851   5.496  3.7507 -1.0663 -1.0658
  439MOL0     H59236  12.459   8.985   5.415 -0.8960  0.7831  2.7767
  439MOL0     H59237  12.477   8.815   5.245  0.6262 -1.8466  2.0695
  439MOL0     H59238  12.326   8.898   5.201  3.1041  0.5923 -1.0224
  439MOL0     H59239  12.375   8.623   5.330  0.8462 -1.9123 -3.2904
  439MOL0     H59240  12.208   8.700   5.328  1.0828  0.6236  1.0928
  439MOL0     H59241  12.377   8.597   5.090 -1.5644 -1.0535 -1.1379
  439MOL0     H59242  12.269   8.729   5.061 -0.1150  0.6441  0.8771
  439MOL0     H59243  12.173   8.476   5.182 -1.3293  0.3621 -0.9335
  439MOL0     H59244  12.067   8.598   5.123  0.2912  1.1091 -0.9365
  439MOL0     H59245  11.789   9.198   5.303  0.3707 -0.4708  0.3796
  439MOL0     H59246  11.604   9.279   5.150 -3.0337  0.0790 -4.3290
  439MOL0     H59247  11.321   9.502   4.849  0.5543  1.8766 -2.1810
  439MOL0     H59248  11.144   9.510   4.685 -1.0611  0.1243  2.7433
  439MOL0     H59249   9.832   8.606   3.023  0.2967 -0.3211  0.5190
  439MOL0     H59250   9.660   8.661   2.844  4.0165  1.5642  0.4175
  439MOL0     H59251   9.182   8.741   2.836 -2.9847 -1.9552 -2.4873
  439MOL0     H59252   8.983   8.786   2.722  1.1817 -2.6542 -0.7971
  439MOL0     H59253   8.841   8.952   2.677  1.8704  0.5195 -0.0589
  439MOL0     H59254   8.826   8.827   2.547 -1.9020  0.5641 -2.2901
  439MOL0     H59255   8.643   8.968   2.569 -0.3715  0.5509 -0.8179
  439MOL0     H59256   8.717   8.957   2.406  0.7815 -1.1169  0.1982
  439MOL0     H59257   8.832   9.195   2.456  1.2005 -2.4768 -0.7422
  439MOL0     H59258   8.760   9.188   2.607  1.3712 -0.7761 -0.4355
  439MOL0     H59259   8.539   9.233   2.505  2.0832  0.1341  1.3404
  439MOL0     H59260   8.656   9.340   2.435  1.1589 -1.4729 -3.3492
  439MOL0     H59261   8.512   9.164   2.096  4.6376 -2.0312 -1.2941
  439MOL0     H59262   9.203   9.071   2.473 -1.4959  0.1032 -0.6417
  439MOL0     H59263   9.480   9.098   2.652 -0.7972 -0.0308  1.8558
  439MOL0     H59264   9.528   8.963   2.546 -0.3153 -0.2936  1.0576
  439MOL0     H59265   9.431   9.083   2.479  2.5974 -3.0572 -1.3196
  440MOL0     O59266   5.478  10.350   9.239  0.2342  0.2747 -0.0213
  440MOL0     C59267   5.442  10.266   9.157  0.0544  0.3658 -0.0116
  440MOL0     O59268   5.510  10.156   9.125 -0.1082 -0.1462  0.4013
  440MOL0     C59269   5.641  10.147   9.162  0.6919 -0.2003  0.1503
  440MOL0     C59270   5.689  10.156   9.291  0.7807  0.0116  0.3948
  440MOL0     C59271   5.815  10.121   9.326 -0.1312 -0.4321 -0.0688
  440MOL0     C59272   5.905  10.066   9.227 -0.4894 -0.4796  0.2789
  440MOL0     O59273   6.031  10.029   9.257 -0.2234 -0.3340  0.0185
  440MOL0     C59274   6.139  10.124   9.237  0.5375  1.0314  0.4054
  440MOL0     C59275   6.263  10.060   9.285  0.4902  0.0758  0.0732
  440MOL0     C59276   6.307   9.946   9.188 -0.8104 -0.2042  0.1123
  440MOL0     C59277   6.436   9.881   9.249  0.1860 -0.7439  0.2247
  440MOL0     C59278   6.524   9.804   9.148 -0.0526  0.1545  0.0023
  440MOL0     C59279   6.635   9.742   9.235 -1.3321 -0.2293  0.0076
  440MOL0     C59280   6.733   9.668   9.143 -0.5884  0.5721 -0.7885
  440MOL0     C59281   6.822   9.558   9.206 -0.3586 -0.1257  0.3662
  440MOL0     N59282   6.919   9.611   9.308  0.5911 -0.2078  0.8024
  440MOL0     C59283   6.903   9.622   9.441 -0.0411  0.1084  0.0757
  440MOL0     C59284   6.982   9.716   9.484 -0.2920  0.0231  0.6780
  440MOL0     C59285   7.005   9.755   9.622 -0.0649  0.2385  0.7648
  440MOL0     C59286   7.137   9.835   9.625  0.0494 -0.0917  0.0344
  440MOL0     C59287   7.144   9.902   9.765 -0.1852 -0.4906  0.2684
  440MOL0     C59288   7.285   9.942   9.812 -0.0399 -0.4489  0.2022
  440MOL0     O59289   7.369   9.830   9.821  0.1557 -0.9293  0.5060
  440MOL0     C59290   7.499   9.859   9.797  0.7514  0.3722  0.7475
  440MOL0     C59291   7.533   9.875   9.668 -0.7510 -1.3842  1.3028
  440MOL0     C59292   7.668   9.890   9.634 -0.6282 -0.0786 -0.4571
  440MOL0     C59293   7.762   9.922   9.734  0.5466 -0.2122 -0.1380
  440MOL0     C59294   7.899   9.960   9.692  0.0741 -0.2448 -0.5773
  440MOL0     O59295   7.994   9.961   9.792 -0.3710  0.0548  0.1403
  440MOL0     C59296   8.121  10.003   9.778  0.1421 -0.0589  0.2204
  440MOL0     C59297   8.229   9.926   9.809 -0.1711  0.1775  0.6528
  440MOL0     C59298   8.360   9.974   9.795  0.0656 -0.0712 -0.5288
  440MOL0     C59299   8.381  10.101   9.736  0.3890  0.1179 -0.8882
  440MOL0     O59300   8.498  10.164   9.715  0.2755 -0.5613  0.3305
  440MOL0     C59301   8.614  10.084   9.696 -0.3197 -0.3805  0.1896
  440MOL0     C59302   8.719  10.184   9.670 -0.9022  0.5098  0.6151
  440MOL0     C59303   8.843  10.112   9.631 -0.0561 -0.6087  0.5501
  440MOL0     C59304   8.948  10.212   9.580  0.2450 -0.3423  0.5060
  440MOL0     C59305   9.089  10.146   9.580  0.0381  0.4865 -0.1856
  440MOL0     C59306   9.182  10.241   9.500  0.4147  0.0840 -0.0518
  440MOL0     C59307   9.318  10.172   9.492 -0.1823  0.3967  0.5180
  440MOL0     C59308   9.420  10.271   9.438  0.7961  0.6196 -0.2915
  440MOL0    Cl59309   9.568  10.177   9.422  0.7558  0.0186 -0.4554
  440MOL0     C59310   8.267  10.174   9.691  0.5879 -0.7995  0.6989
  440MOL0     C59311   8.141  10.131   9.726 -0.4834 -0.8133 -0.0670
  440MOL0     O59312   7.911  10.012   9.580  0.0320  0.3730 -0.0773
  440MOL0     C59313   7.724   9.926   9.872  0.5077  0.1860 -0.5607
  440MOL0     C59314   7.595   9.888   9.898  0.6473 -0.3509  0.6352
  440MOL0     N59315   7.046   9.765   9.375  0.7398 -0.2715  0.4425
  440MOL0     N59316   7.014   9.697   9.269  0.1510  0.2250  0.3692
  440MOL0     C59317   5.864  10.074   9.090 -0.4009 -0.0034 -0.2655
  440MOL0     C59318   5.733  10.112   9.059 -0.8325 -0.8442  0.3224
  440MOL0     C59319   5.312  10.276   9.097  0.9577 -0.3091 -0.5176
  440MOL0     C59320   5.230  10.157   9.079 -0.0456 -0.4979 -0.4955
  440MOL0     C59321   5.107  10.156   9.027 -0.3057  0.1804  0.7122
  440MOL0     C59322   5.049  10.279   8.979 -0.8782 -0.6921  0.0036
  440MOL0     O59323   4.922  10.289   8.932  0.4146 -0.8105  0.6480
  440MOL0     C59324   4.827  10.192   8.972  0.2111  0.6062 -0.1937
  440MOL0     C59325   4.678  10.223   8.930  0.0155  0.2228  0.4612
  440MOL0     C59326   4.663  10.265   8.783  0.2107  0.0710  0.1179
  440MOL0     C59327   4.521  10.290   8.727  0.1006 -0.2021 -0.2009
  440MOL0     C59328   4.455  10.399   8.807 -0.2705  0.1270 -0.4889
  440MOL0     C59329   4.395  10.466   8.881 -0.3797 -0.3773 -0.0435
  440MOL0     C59330   5.125  10.396   8.995 -0.8901 -0.1947 -0.9152
  440MOL0     C59331   5.257  10.405   9.046  1.2369  0.5192 -0.4423
  440MOL0     C59332   5.314  10.539   9.077  0.7707  0.0558 -0.2533
  440MOL0     H59333   5.625  10.174   9.377  2.6356 -5.2868  3.3457
  440MOL0     H59334   5.842  10.127   9.431 -1.6531 -0.2640  0.3513
  440MOL0     H59335   6.149  10.150   9.131 -0.5917 -3.0494 -0.8759
  440MOL0     H59336   6.109  10.213   9.295  0.0128  1.4098 -0.4234
  440MOL0     H59337   6.242  10.022   9.385  0.5316  1.0816  0.4723
  440MOL0     H59338   6.341  10.136   9.287  1.0114 -0.3962 -1.1113
  440MOL0     H59339   6.341   9.987   9.092 -2.1178  0.5525 -0.0595
  440MOL0     H59340   6.231   9.869   9.174  0.0730 -0.7451 -2.0617
  440MOL0     H59341   6.505   9.961   9.276 -0.2046  0.4423 -2.1047
  440MOL0     H59342   6.401   9.815   9.330  0.2937 -0.5060  0.4658
  440MOL0     H59343   6.464   9.731   9.094  1.7542 -1.3635 -0.0283
  440MOL0     H59344   6.576   9.873   9.080  1.8955 -0.7014  0.5551
  440MOL0     H59345   6.683   9.825   9.287 -1.9874  0.6584 -0.7671
  440MOL0     H59346   6.596   9.678   9.314 -0.9813  0.3909  0.6921
  440MOL0     H59347   6.795   9.747   9.101  1.7970 -0.2400  1.0204
  440MOL0     H59348   6.669   9.616   9.071  0.0420 -0.7030 -0.4575
  440MOL0     H59349   6.761   9.475   9.242 -1.9216  1.5232  1.7227
  440MOL0     H59350   6.874   9.515   9.120 -2.5910  0.4132 -1.3471
  440MOL0     H59351   6.831   9.565   9.499  0.4627 -0.2499  0.3571
  440MOL0     H59352   6.916   9.800   9.668 -1.5232 -2.0977  0.3861
  440MOL0     H59353   7.022   9.661   9.675  3.1632 -0.1404 -0.7087
  440MOL0     H59354   7.215   9.758   9.627 -2.6000 -2.9708 -0.1815
  440MOL0     H59355   7.160   9.909   9.547 -1.8213  2.2220  1.5431
  440MOL0     H59356   7.096   9.844   9.845 -1.0135  2.1022  1.7891
  440MOL0     H59357   7.092   9.998   9.754 -2.0196 -1.4344  0.2709
  440MOL0     H59358   7.257  10.002   9.900 -0.6570  0.1333 -0.3830
  440MOL0     H59359   7.330  10.014   9.743  0.0538 -1.4262 -0.7623
  440MOL0     H59360   7.451   9.864   9.598 -1.1916  0.2944  1.5156
  440MOL0     H59361   7.698   9.894   9.530  0.3717 -0.6499 -0.1979
  440MOL0     H59362   8.228   9.831   9.862 -0.0124 -0.6941 -0.8604
  440MOL0     H59363   8.445   9.912   9.821 -0.6931 -0.9976 -0.1968
  440MOL0     H59364   8.651  10.036   9.786  1.6571 -0.7593 -0.7589
  440MOL0     H59365   8.608  10.010   9.615  0.3932 -0.3013  0.0610
  440MOL0     H59366   8.685  10.252   9.591 -1.2189  1.6520  1.6920
  440MOL0     H59367   8.738  10.252   9.754 -3.9887  1.4960  0.6633
  440MOL0     H59368   8.876  10.048   9.713 -0.8413 -1.7765 -0.0058
  440MOL0     H59369   8.824  10.037   9.553  1.9584  1.9013 -2.6217
  440MOL0     H59370   8.951  10.313   9.620 -0.9849 -0.8834  2.0630
  440MOL0     H59371   8.924  10.233   9.475  2.2027  0.0062  0.0857
  440MOL0     H59372   9.082  10.053   9.523 -1.3623  1.4531 -1.6763
  440MOL0     H59373   9.122  10.132   9.684  0.9332  1.1589 -0.3651
  440MOL0     H59374   9.140  10.257   9.400 -3.0215 -0.3457  1.1674
  440MOL0     H59375   9.187  10.334   9.558 -0.9328  1.8611 -2.5562
  440MOL0     H59376   9.304  10.101   9.410  0.7543 -0.2714  0.9174
  440MOL0     H59377   9.332  10.122   9.589 -0.9218  0.2129  0.5404
  440MOL0     H59378   9.392  10.315   9.342 -0.7578  1.9021  0.6976
  440MOL0     H59379   9.443  10.357   9.501 -2.5457  1.7310 -0.3871
  440MOL0     H59380   8.277  10.273   9.649 -0.9235 -0.2881  1.4367
  440MOL0     H59381   8.058  10.196   9.701  1.3126  2.2234  1.2895
  440MOL0     H59382   7.790   9.954   9.954 -3.2739  3.5491  1.6755
  440MOL0     H59383   7.555   9.882   9.999  0.2724 -3.2909  0.4116
  440MOL0     H59384   5.937  10.040   9.017  1.5113  0.7573  1.2231
  440MOL0     H59385   5.701  10.114   8.955 -1.4085  1.0822  0.4947
  440MOL0     H59386   5.274  10.062   9.108  2.2631  0.9466  1.1097
  440MOL0     H59387   5.058  10.061   9.013  0.3319  0.1530 -1.7253
  440MOL0     H59388   4.836  10.161   9.077  0.9116 -0.7535 -0.6364
  440MOL0     H59389   4.867  10.111   8.910 -3.7500 -1.7720  0.0062
  440MOL0     H59390   4.642  10.302   8.997  0.0864  1.2863 -0.7245
  440MOL0     H59391   4.614  10.134   8.938  1.0096 -0.4210  1.6593
  440MOL0     H59392   4.705  10.186   8.720 -1.2683  0.8329 -1.9341
  440MOL0     H59393   4.712  10.360   8.760  0.4961 -0.3283 -1.0055
  440MOL0     H59394   4.514  10.313   8.621 -0.7905  0.7424  0.0500
  440MOL0     H59395   4.466  10.196   8.734 -0.2957 -0.1307 -1.9597
  440MOL0     H59396   4.342  10.524   8.954  1.7998  0.6185  0.8390
  440MOL0     H59397   5.076  10.490   8.973 -0.1911  1.2888  3.0345
  440MOL0     H59398   5.255  10.617   9.029  0.1412 -0.7451 -0.8162
  440MOL0     H59399   5.315  10.536   9.186  0.2047 -2.2936 -0.2470
  440MOL0     H59400   5.415  10.548   9.035  0.6160  0.4880 -0.5377
  441MOL0     O59401   0.270   2.526   7.010  0.4832 -0.1286  0.0746
  441MOL0     C59402   0.328   2.502   6.901 -0.3020  0.0235 -1.0602
  441MOL0     O59403   0.461   2.467   6.883  0.2711 -0.0047  0.1402
  441MOL0     C59404   0.537   2.445   6.993 -0.1623  0.5966 -0.3760
  441MOL0     C59405   0.500   2.366   7.107  0.2153  0.4655  0.1418
  441MOL0     C59406   0.592   2.358   7.214 -0.3256 -0.1490 -0.4286
  441MOL0     C59407   0.717   2.421   7.208 -0.9602  0.2738 -0.5635
  441MOL0     O59408   0.799   2.408   7.321  0.0389  0.0424 -0.5702
  441MOL0     C59409   0.935   2.468   7.319 -0.5544  0.2389 -0.7303
  441MOL0     C59410   1.020   2.439   7.444  1.4767 -0.4280 -0.4789
  441MOL0     C59411   1.165   2.487   7.433  0.7502 -0.0163  0.5616
  441MOL0     C59412   1.247   2.427   7.550  0.1087 -0.4109 -0.0561
  441MOL0     C59413   1.360   2.530   7.592  0.7493  0.3231  1.0320
  441MOL0     C59414   1.413   2.500   7.732 -1.1655 -0.4063 -0.1008
  441MOL0     C59415   1.501   2.366   7.748  0.6764 -0.1959  0.5301
  441MOL0     C59416   1.626   2.360   7.658 -0.0944  0.6079 -0.2739
  441MOL0     N59417   1.730   2.439   7.714 -0.5121 -0.8508  0.2542
  441MOL0     C59418   1.739   2.567   7.689  0.2896 -0.8255  0.2414
  441MOL0     C59419   1.868   2.589   7.698 -0.6010 -0.1454 -1.0062
  441MOL0     C59420   1.935   2.723   7.692 -0.9479 -0.5706  0.3806
  441MOL0     C59421   1.897   2.804   7.817  1.3923  0.3710 -0.1713
  441MOL0     C59422   1.969   2.759   7.948 -0.3588 -0.6028 -0.6605
  441MOL0     C59423   2.113   2.784   7.971  0.0946 -0.9705 -0.2968
  441MOL0     O59424   2.204   2.704   7.893 -0.6367  0.6857 -0.3737
  441MOL0     C59425   2.339   2.711   7.933  0.4012 -0.5418 -0.3748
  441MOL0     C59426   2.395   2.807   8.021 -1.7783  0.2366 -0.0883
  441MOL0     C59427   2.536   2.819   8.031 -1.1324  0.1859  0.0204
  441MOL0     C59428   2.614   2.718   7.967 -0.1617  0.3363  0.1249
  441MOL0     C59429   2.763   2.727   7.971  0.0439 -0.4374  0.5790
  441MOL0     O59430   2.836   2.632   7.903  0.2660 -0.5100  0.2754
  441MOL0     C59431   2.970   2.651   7.879 -0.0607 -0.4581  0.0935
  441MOL0     C59432   3.031   2.768   7.824 -0.4071 -0.8603 -0.2334
  441MOL0     C59433   3.169   2.770   7.797 -0.2224  0.5871  0.5635
  441MOL0     C59434   3.253   2.656   7.820  1.2591 -0.9540  0.7037
  441MOL0     O59435   3.388   2.660   7.804 -0.6148 -0.6509 -0.3581
  441MOL0     C59436   3.477   2.607   7.907  0.0402 -0.2972  0.1593
  441MOL0     C59437   3.529   2.700   8.018  0.1084  0.0325  0.9394
  441MOL0     C59438   3.572   2.831   7.957 -0.2476  0.4310  0.2240
  441MOL0     C59439   3.644   2.923   8.050  0.7585  0.7249 -0.7306
  441MOL0     C59440   3.769   2.865   8.115 -0.0234  0.1085 -0.0757
  441MOL0     C59441   3.829   2.972   8.199  0.2827 -1.0082 -0.4811
  441MOL0     C59442   3.917   2.926   8.317 -0.0229 -0.0972  0.4046
  441MOL0     C59443   3.957   3.050   8.404  0.0263  0.0530  0.1193
  441MOL0    Cl59444   4.079   3.003   8.531  0.0034  0.4818  0.3784
  441MOL0     C59445   3.189   2.537   7.859 -1.0113 -0.3711  1.0902
  441MOL0     C59446   3.049   2.538   7.881 -0.6321  0.6013 -0.5086
  441MOL0     O59447   2.812   2.827   8.025 -0.0445 -0.3698  0.2256
  441MOL0     C59448   2.553   2.623   7.882 -0.0774  0.8043 -0.6639
  441MOL0     C59449   2.417   2.620   7.860 -0.5624 -0.1644 -0.4448
  441MOL0     N59450   1.942   2.478   7.731  0.3027 -0.0618  0.2555
  441MOL0     N59451   1.854   2.387   7.733  0.0466 -0.2335 -0.0106
  441MOL0     C59452   0.747   2.494   7.083  0.1965  0.0954  0.2400
  441MOL0     C59453   0.658   2.508   6.982 -0.9874  0.4721 -0.0020
  441MOL0     C59454   0.247   2.533   6.778 -0.8356  0.5596 -0.0679
  441MOL0     C59455   0.110   2.520   6.788  0.5065  0.0045 -0.4693
  441MOL0     C59456   0.026   2.560   6.684 -0.3542  0.4868 -0.7083
  441MOL0     C59457   0.075   2.602   6.564  0.0772  0.9799 -0.1298
  441MOL0     O59458  -0.000   2.651   6.457  0.6670 -0.3717 -0.2235
  441MOL0     C59459  -0.024   2.794   6.467  0.4315 -0.0169 -0.2773
  441MOL0     C59460  -0.109   2.846   6.578 -0.1566 -1.4325 -0.2109
  441MOL0     C59461  -0.249   2.783   6.596 -0.7140 -0.4142 -0.7353
  441MOL0     C59462  -0.282   2.776   6.747  0.5055 -0.0639 -0.1646
  441MOL0     C59463  -0.334   2.907   6.797 -0.6308 -0.0568  0.0500
  441MOL0     C59464  -0.371   3.009   6.849 -0.8812  0.3084 -0.5062
  441MOL0     C59465   0.212   2.615   6.547 -0.9056  0.6351 -0.4668
  441MOL0     C59466   0.301   2.578   6.650 -0.3162  0.5956  0.1786
  441MOL0     C59467   0.454   2.577   6.617 -0.5572 -0.6839  0.1506
  441MOL0     H59468   0.406   2.313   7.119  0.7830 -0.0976  2.9788
  441MOL0     H59469   0.571   2.319   7.312 -0.6408  3.1690  0.9634
  441MOL0     H59470   0.989   2.416   7.239 -0.4432 -1.2726  0.2948
  441MOL0     H59471   0.930   2.575   7.299  3.2546  0.2623 -2.3650
  441MOL0     H59472   1.000   2.334   7.471  0.3100  0.2002  1.2880
  441MOL0     H59473   0.969   2.485   7.530 -0.8779 -0.5398 -1.7175
  441MOL0     H59474   1.171   2.595   7.449  2.2274 -0.5374  4.5083
  441MOL0     H59475   1.218   2.462   7.340  2.2571 -1.0357  1.6524
  441MOL0     H59476   1.180   2.412   7.635 -0.1324 -0.1997 -0.2106
  441MOL0     H59477   1.296   2.330   7.536 -0.6652 -0.5725 -1.8732
  441MOL0     H59478   1.434   2.536   7.512 -0.3971 -1.0647 -0.1769
  441MOL0     H59479   1.309   2.627   7.591  1.9600  0.9822 -0.3755
  441MOL0     H59480   1.484   2.580   7.758  1.8601 -1.5681 -3.8116
  441MOL0     H59481   1.334   2.505   7.807  1.8018  1.1624  3.2602
  441MOL0     H59482   1.428   2.286   7.733 -0.5492  0.8350  0.8252
  441MOL0     H59483   1.535   2.357   7.851  0.1421 -0.5670  0.6766
  441MOL0     H59484   1.660   2.256   7.655 -1.4826  0.1487 -1.4929
  441MOL0     H59485   1.597   2.393   7.558 -1.4574  1.7180  0.4467
  441MOL0     H59486   1.672   2.648   7.665  0.8392 -0.5127 -0.2689
  441MOL0     H59487   2.044   2.715   7.687 -0.5945  1.7751  2.2066
  441MOL0     H59488   1.905   2.769   7.598  1.0384 -1.6066 -0.8233
  441MOL0     H59489   1.912   2.911   7.796  0.1451  0.8531  1.1583
  441MOL0     H59490   1.788   2.800   7.824  1.2602  2.5895 -0.1783
  441MOL0     H59491   1.954   2.653   7.970  0.3102 -0.1671  2.2372
  441MOL0     H59492   1.915   2.808   8.029 -0.1766  1.4868 -1.7122
  441MOL0     H59493   2.139   2.770   8.076  0.9672  2.2437  0.0130
  441MOL0     H59494   2.134   2.889   7.950  0.4480 -1.3010 -1.6718
  441MOL0     H59495   2.331   2.873   8.079 -1.2509 -0.3907  1.2557
  441MOL0     H59496   2.584   2.888   8.099 -1.4937  0.5949 -0.1382
  441MOL0     H59497   2.966   2.849   7.791 -0.3228 -0.9028 -0.5026
  441MOL0     H59498   3.212   2.861   7.758 -2.6481  2.1347  1.2496
  441MOL0     H59499   3.439   2.525   7.969  0.5234  0.6302  1.7288
  441MOL0     H59500   3.563   2.573   7.849 -0.8484 -1.1525 -0.7032
  441MOL0     H59501   3.447   2.726   8.086 -2.1432 -0.7375 -1.3265
  441MOL0     H59502   3.615   2.647   8.061  1.3076  0.5542 -0.7362
  441MOL0     H59503   3.626   2.796   7.868 -0.9996 -3.9568  1.2854
  441MOL0     H59504   3.487   2.889   7.921 -0.0535 -0.0611 -1.0996
  441MOL0     H59505   3.562   2.945   8.119 -0.4947 -0.6361 -1.7342
  441MOL0     H59506   3.659   3.017   7.997  1.9637  0.7261 -0.4222
  441MOL0     H59507   3.843   2.828   8.045  1.5763  2.4407  0.2371
  441MOL0     H59508   3.747   2.772   8.168 -0.1854 -0.0500 -0.4234
  441MOL0     H59509   3.894   3.032   8.134  0.2878 -0.5783 -0.0833
  441MOL0     H59510   3.752   3.036   8.241  0.2400 -0.5928 -1.1833
  441MOL0     H59511   4.008   2.880   8.276  0.1735  0.2263  0.4804
  441MOL0     H59512   3.862   2.866   8.391  2.1153  0.4075  2.5222
  441MOL0     H59513   4.003   3.133   8.349  0.8112 -0.7719 -0.4941
  441MOL0     H59514   3.862   3.083   8.447  0.0173  0.4586 -0.2051
  441MOL0     H59515   3.254   2.450   7.862  3.1207  2.3167 -0.7065
  441MOL0     H59516   3.013   2.448   7.930  2.3344  0.3155  1.4770
  441MOL0     H59517   2.612   2.554   7.823 -1.7484 -0.4208 -0.9637
  441MOL0     H59518   2.372   2.559   7.783 -0.5549  0.5228 -1.0077
  441MOL0     H59519   0.835   2.558   7.086 -0.5614  1.5047 -2.7035
  441MOL0     H59520   0.670   2.566   6.890  0.3635 -0.9632 -0.7736
  441MOL0     H59521   0.072   2.494   6.886  3.1852  2.0105  1.2645
  441MOL0     H59522  -0.082   2.563   6.698 -0.4273  2.8846 -1.3442
  441MOL0     H59523  -0.071   2.827   6.374 -0.2432  2.3950  0.8370
  441MOL0     H59524   0.078   2.833   6.472  1.3937 -1.1117 -5.3445
  441MOL0     H59525  -0.144   2.949   6.563  1.9996 -0.5931  0.1148
  441MOL0     H59526  -0.037   2.847   6.661  0.5312 -1.8740 -0.7814
  441MOL0     H59527  -0.243   2.682   6.556  2.4977 -2.1204  3.2453
  441MOL0     H59528  -0.324   2.842   6.542  0.3661  2.3452  0.5628
  441MOL0     H59529  -0.362   2.706   6.770  0.6267 -0.1811 -0.0931
  441MOL0     H59530  -0.194   2.753   6.809  0.7472  1.8111  0.2727
  441MOL0     H59531  -0.398   3.097   6.904  2.2676  1.2598 -0.2970
  441MOL0     H59532   0.251   2.644   6.450  0.2812 -0.6755 -0.4054
  441MOL0     H59533   0.520   2.600   6.701 -1.8016  0.6665  0.7989
  441MOL0     H59534   0.480   2.480   6.573 -0.5464  0.1622 -1.8392
  441MOL0     H59535   0.490   2.649   6.543 -2.0188 -0.0818 -0.0034
  442MOL0     O59536  11.014   3.423  10.640 -0.3499  0.1194 -0.5445
  442MOL0     C59537  10.935   3.340  10.606 -0.6380  0.3865  0.6515
  442MOL0     O59538  10.977   3.230  10.543 -1.1927 -0.0546 -0.7854
  442MOL0     C59539  11.113   3.184  10.528  0.1006 -0.8020 -0.2034
  442MOL0     C59540  11.141   3.088  10.429 -0.4455 -0.1992  0.3928
  442MOL0     C59541  11.260   3.023  10.424 -0.4705  0.4032  0.0343
  442MOL0     C59542  11.364   3.051  10.514  0.1486 -0.1134  0.4522
  442MOL0     O59543  11.491   2.986  10.504 -0.4459  0.4264 -0.1626
  442MOL0     C59544  11.517   2.880  10.595 -0.0274  0.4906  0.0931
  442MOL0     C59545  11.612   2.773  10.536  0.5316 -0.3395 -0.2309
  442MOL0     C59546  11.722   2.829  10.453  0.1370 -0.4901 -0.3191
  442MOL0     C59547  11.845   2.731  10.436 -0.0591  0.1443  0.2771
  442MOL0     C59548  11.955   2.780  10.344  0.1990 -0.1780 -0.2760
  442MOL0     C59549  12.079   2.693  10.330  0.1596 -0.5498  0.8281
  442MOL0     C59550  12.136   2.669  10.469  0.0698 -0.3532  0.4457
  442MOL0     C59551  12.272   2.593  10.452 -0.5048 -0.4365  0.0268
  442MOL0     N59552  12.376   2.676  10.392 -0.3416 -0.4458  1.0117
  442MOL0     C59553  12.429   2.786  10.455 -0.0599 -0.0943  0.2437
  442MOL0     C59554  12.552   2.802  10.383  0.2665 -0.3090  0.0749
  442MOL0     C59555  12.659   2.907  10.422 -0.1050 -0.0704  1.1578
  442MOL0     C59556  12.775   2.922  10.321 -0.2395  0.6235  0.0047
  442MOL0     C59557  12.863   3.052  10.337 -1.0092 -0.0986  0.4211
  442MOL0     C59558  13.012   3.035  10.311  0.0834 -0.1167 -0.2517
  442MOL0     O59559  13.029   2.947  10.197  0.0005  0.1969 -0.6451
  442MOL0     C59560  13.149   2.951  10.134  0.0115 -0.3532 -1.1503
  442MOL0     C59561  13.156   2.892  10.004 -0.0375 -0.3944  0.3349
  442MOL0     C59562  13.274   2.908   9.933 -0.8760 -0.4788  0.5877
  442MOL0     C59563  13.389   2.978   9.983 -0.4628  0.2346  0.5118
  442MOL0     C59564  13.515   2.982   9.909  0.1760 -0.2288 -0.1797
  442MOL0     O59565  13.625   3.035   9.968 -0.2956  0.0398  0.1273
  442MOL0     C59566  13.740   3.045   9.895 -0.4539  0.4071  0.3399
  442MOL0     C59567  13.761   3.166   9.834  0.4858  0.1683 -0.1129
  442MOL0     C59568  13.881   3.185   9.765 -0.0696 -0.4052 -0.1382
  442MOL0     C59569  13.983   3.086   9.756 -0.6925 -0.2878 -0.1508
  442MOL0     O59570  14.100   3.098   9.682  0.5541  0.4897  0.0152
  442MOL0     C59571  14.144   3.218   9.628 -0.0197  0.2006 -0.3392
  442MOL0     C59572  14.284   3.208   9.571 -0.4625  0.1505  0.1454
  442MOL0     C59573  14.380   3.144   9.682  0.4501  0.7879  0.0617
  442MOL0     C59574  14.513   3.089   9.626 -0.4552 -0.2724 -0.1912
  442MOL0     C59575  14.600   3.044   9.740  0.6448 -0.0576 -0.6503
  442MOL0     C59576  14.744   2.998   9.716 -0.3051  0.1826 -0.3513
  442MOL0     C59577  14.759   2.893   9.603  0.7518 -0.1104 -0.2434
  442MOL0     C59578  14.893   2.826   9.600 -0.9785  0.1298  0.3002
  442MOL0    Cl59579  15.009   2.936   9.530  0.4915  0.6964  0.3108
  442MOL0     C59580  13.950   2.951   9.802  0.2667  0.0250  0.4008
  442MOL0     C59581  13.822   2.941   9.877 -0.4644  1.1540  0.2762
  442MOL0     O59582  13.516   2.939   9.795 -0.2768  0.5347 -0.2823
  442MOL0     C59583  13.371   3.025  10.113  0.1539 -0.6230  1.4090
  442MOL0     C59584  13.263   3.010  10.188 -0.1347 -0.8770  0.6969
  442MOL0     N59585  12.557   2.710  10.281 -0.0940 -0.4414 -0.1642
  442MOL0     N59586  12.457   2.633  10.292 -0.5346  0.1185 -0.2612
  442MOL0     C59587  11.341   3.148  10.608 -0.4166  1.0576  0.8389
  442MOL0     C59588  11.216   3.211  10.618 -0.7212 -0.1464 -0.6067
  442MOL0     C59589  10.796   3.359  10.641 -0.0513 -0.0576 -0.0978
  442MOL0     C59590  10.765   3.444  10.745 -0.5652 -0.5347 -0.9018
  442MOL0     C59591  10.643   3.495  10.780  0.3503 -1.0736  0.3860
  442MOL0     C59592  10.530   3.433  10.723 -0.3039 -0.4391 -0.3499
  442MOL0     O59593  10.398   3.466  10.747 -0.3560 -0.2686  1.0123
  442MOL0     C59594  10.363   3.507  10.875 -0.2304 -0.6036 -0.1065
  442MOL0     C59595  10.212   3.482  10.883 -1.1837  0.0782  0.0432
  442MOL0     C59596  10.132   3.534  10.769  0.5303  0.2275  0.2954
  442MOL0     C59597   9.988   3.481  10.770 -0.5631 -0.3814  0.0602
  442MOL0     C59598   9.911   3.512  10.902  0.2532 -0.1690 -0.3335
  442MOL0     C59599   9.846   3.532  11.003 -0.4616 -0.9557 -1.2949
  442MOL0     C59600  10.551   3.340  10.622 -0.7313  0.5322  0.2943
  442MOL0     C59601  10.680   3.311  10.571  0.0099 -0.1883 -0.3004
  442MOL0     C59602  10.697   3.232  10.440  0.6055  0.9397 -0.7716
  442MOL0     H59603  11.060   3.059  10.363  0.1350  0.0596 -0.4418
  442MOL0     H59604  11.288   2.938  10.363 -0.1852  1.4195 -1.3204
  442MOL0     H59605  11.570   2.922  10.681  1.4680 -0.3931 -0.3704
  442MOL0     H59606  11.433   2.822  10.636  0.4609 -0.2895 -0.0056
  442MOL0     H59607  11.557   2.705  10.471  1.6338  1.0614 -2.7536
  442MOL0     H59608  11.671   2.731  10.619 -0.3435 -1.2418 -0.0503
  442MOL0     H59609  11.753   2.929  10.484  0.6852 -0.8006  0.1532
  442MOL0     H59610  11.686   2.838  10.350 -0.8889 -0.8594 -0.0015
  442MOL0     H59611  11.889   2.707  10.534  3.7108 -1.2693 -1.5704
  442MOL0     H59612  11.805   2.641  10.389  0.3945  0.6145 -1.0366
  442MOL0     H59613  11.894   2.777  10.253  0.4715 -1.5450 -0.4483
  442MOL0     H59614  11.977   2.884  10.368  1.4601  0.1228 -2.4762
  442MOL0     H59615  12.070   2.593  10.287 -0.5460  0.3964 -1.3368
  442MOL0     H59616  12.157   2.745  10.274  0.8831  0.6970  2.8844
  442MOL0     H59617  12.067   2.614  10.535 -2.5092  1.8200 -0.2530
  442MOL0     H59618  12.164   2.766  10.511  1.9250 -1.4796  1.9787
  442MOL0     H59619  12.315   2.561  10.548 -0.0420 -0.2957 -0.1309
  442MOL0     H59620  12.264   2.499  10.397 -1.0852  0.6577 -1.8340
  442MOL0     H59621  12.399   2.834  10.548 -1.0004 -0.9479  0.4045
  442MOL0     H59622  12.612   3.004  10.436 -0.7576 -0.3758  1.1235
  442MOL0     H59623  12.705   2.879  10.517 -1.1299  0.1188  1.7182
  442MOL0     H59624  12.843   2.838  10.338  0.6603  0.4531 -3.5431
  442MOL0     H59625  12.743   2.909  10.217 -0.2136  1.1166 -0.0667
  442MOL0     H59626  12.863   3.087  10.440  3.2656  0.6584  0.3693
  442MOL0     H59627  12.828   3.119  10.258  1.8955 -0.5398 -1.4100
  442MOL0     H59628  13.048   2.991  10.404  0.6966  0.1119 -0.3718
  442MOL0     H59629  13.059   3.133  10.302 -2.6048  1.4261  1.2478
  442MOL0     H59630  13.071   2.838   9.965  1.8849 -2.4814 -1.2968
  442MOL0     H59631  13.278   2.866   9.833  0.7427  0.5405  0.1798
  442MOL0     H59632  13.687   3.244   9.847 -0.7513 -1.1634  1.3812
  442MOL0     H59633  13.890   3.274   9.705 -1.1449 -0.5106 -0.4707
  442MOL0     H59634  14.068   3.246   9.554 -3.9105 -0.8429  2.8473
  442MOL0     H59635  14.145   3.287   9.713 -2.6029 -0.4623  0.3323
  442MOL0     H59636  14.274   3.144   9.482 -1.6215 -0.5720  0.7674
  442MOL0     H59637  14.330   3.303   9.545  1.0284 -0.3580  0.8217
  442MOL0     H59638  14.398   3.212   9.766 -0.0247  1.6664 -0.5262
  442MOL0     H59639  14.320   3.069   9.735 -0.6806  1.4001 -0.2999
  442MOL0     H59640  14.565   3.179   9.590  0.3236 -1.4522 -2.2134
  442MOL0     H59641  14.502   3.014   9.547  2.4392 -3.8177  2.3852
  442MOL0     H59642  14.543   2.966   9.791  1.6976 -0.2421  0.2865
  442MOL0     H59643  14.623   3.126   9.809  0.5900 -0.6750  0.1045
  442MOL0     H59644  14.815   3.080   9.700  1.0911 -1.0229 -0.5309
  442MOL0     H59645  14.784   2.954   9.808  0.0553  0.1560 -0.5190
  442MOL0     H59646  14.734   2.943   9.509 -0.8219  3.0802  1.6715
  442MOL0     H59647  14.680   2.820   9.621  0.2809  0.3759 -0.3071
  442MOL0     H59648  14.927   2.775   9.690  0.9208 -1.7554 -1.3848
  442MOL0     H59649  14.887   2.741   9.531  0.0417  0.1063  0.2196
  442MOL0     H59650  14.003   2.860   9.776  3.2206  1.2441  1.7747
  442MOL0     H59651  13.797   2.841   9.913  1.3309  0.2433 -0.8496
  442MOL0     H59652  13.454   3.075  10.162  2.7049 -3.7025  0.5648
  442MOL0     H59653  13.261   3.048  10.289  0.3477 -3.0183  1.5736
  442MOL0     H59654  11.402   3.170  10.695  0.7503 -0.4354  0.4528
  442MOL0     H59655  11.179   3.278  10.696  0.8052  1.6057 -1.3114
  442MOL0     H59656  10.835   3.485  10.818 -2.4013 -0.4177  0.8773
  442MOL0     H59657  10.638   3.574  10.854  1.7734  0.9267 -1.4994
  442MOL0     H59658  10.385   3.613  10.892  1.0492 -0.7547 -0.6999
  442MOL0     H59659  10.417   3.449  10.950  0.2851  0.0562  0.0470
  442MOL0     H59660  10.190   3.530  10.979 -0.5392  1.0960 -0.2964
  442MOL0     H59661  10.204   3.373  10.881  2.3497 -0.2716 -1.3780
  442MOL0     H59662  10.175   3.492  10.677  1.2034 -0.1508  0.7740
  442MOL0     H59663  10.126   3.642  10.751  0.0439  0.0849 -0.4710
  442MOL0     H59664   9.924   3.526  10.695 -0.8959 -0.3214  0.3746
  442MOL0     H59665   9.985   3.374  10.747  2.5232 -0.7031  0.6836
  442MOL0     H59666   9.782   3.523  11.089 -1.4239 -0.3391 -1.9279
  442MOL0     H59667  10.462   3.313  10.566  0.7530  0.5456 -2.2012
  442MOL0     H59668  10.607   3.213  10.381  0.6510  2.0849 -1.2369
  442MOL0     H59669  10.752   3.308  10.383  1.9467  0.5297 -0.0647
  442MOL0     H59670  10.759   3.143  10.453  0.5883  1.2704  2.4175
  443MOL0     O59671   5.170   0.033   4.966  0.2005 -0.3366  0.3990
  443MOL0     C59672   5.085  -0.046   4.920 -0.9811 -0.7793  0.8147
  443MOL0     O59673   5.111  -0.127   4.808  0.4893 -0.1234  0.3424
  443MOL0     C59674   5.228  -0.121   4.754 -0.4604  0.6807  0.2059
  443MOL0     C59675   5.346  -0.157   4.814 -0.1552 -0.5611 -0.9016
  443MOL0     C59676   5.468  -0.137   4.759  0.1878  0.0559  0.5910
  443MOL0     C59677   5.476  -0.113   4.625  0.4940 -0.2606  1.2181
  443MOL0     O59678   5.594  -0.109   4.551 -0.4569 -0.1604 -0.7701
  443MOL0     C59679   5.706  -0.060   4.620  0.1510 -0.2305 -1.1188
  443MOL0     C59680   5.829  -0.040   4.524  0.3336 -0.1410 -0.5506
  443MOL0     C59681   5.924   0.077   4.569  0.3466  0.1467 -0.0714
  443MOL0     C59682   5.863   0.212   4.527 -0.5747 -0.0317  0.2443
  443MOL0     C59683   5.976   0.313   4.562  0.2286 -0.6388 -0.3087
  443MOL0     C59684   5.924   0.461   4.558 -0.2934  1.2688  0.2300
  443MOL0     C59685   6.044   0.542   4.590 -0.0179 -0.0787  0.5418
  443MOL0     C59686   6.023   0.692   4.595 -1.2015 -0.1991 -0.0542
  443MOL0     N59687   5.929   0.722   4.707 -0.2693  0.3994 -0.1078
  443MOL0     C59688   5.800   0.764   4.698  0.0347  0.3991 -0.6409
  443MOL0     C59689   5.755   0.788   4.821 -0.0882  0.4506 -0.4422
  443MOL0     C59690   5.617   0.835   4.863 -0.0947  0.5833  0.3309
  443MOL0     C59691   5.515   0.727   4.822 -0.6139 -0.2521  0.5143
  443MOL0     C59692   5.445   0.761   4.692  0.6582 -0.5075  0.0091
  443MOL0     C59693   5.289   0.731   4.701 -0.2624  0.4606  0.3303
  443MOL0     O59694   5.225   0.824   4.785  0.0344 -0.2050  0.1506
  443MOL0     C59695   5.096   0.797   4.822  0.1942 -0.4254  0.6141
  443MOL0     C59696   5.042   0.668   4.805 -0.4225 -0.7044  0.3661
  443MOL0     C59697   4.907   0.648   4.832 -0.3256 -0.4778 -0.4752
  443MOL0     C59698   4.823   0.759   4.870  0.2866  0.6162  0.2621
  443MOL0     C59699   4.679   0.725   4.897  0.1477 -0.9670 -1.5248
  443MOL0     O59700   4.597   0.829   4.929  0.4327 -0.0797  0.2307
  443MOL0     C59701   4.464   0.808   4.914  0.3567 -1.0663 -0.4561
  443MOL0     C59702   4.386   0.789   5.031 -0.0533  0.1520 -0.3630
  443MOL0     C59703   4.254   0.747   5.013 -0.4594  0.0838  0.5196
  443MOL0     C59704   4.199   0.736   4.889 -0.1667 -0.3707 -0.3102
  443MOL0     O59705   4.058   0.705   4.884  0.0308 -0.3119 -0.5499
  443MOL0     C59706   3.981   0.724   4.764  0.6391 -0.7306  0.3730
  443MOL0     C59707   3.832   0.690   4.798  0.2812  0.4169 -0.6016
  443MOL0     C59708   3.786   0.784   4.914  0.3291 -0.5328  0.0295
  443MOL0     C59709   3.647   0.736   4.946  0.2402  0.3905 -0.1959
  443MOL0     C59710   3.541   0.842   4.913 -0.4301 -0.2401 -0.0084
  443MOL0     C59711   3.403   0.793   4.927  0.6360  0.2612  0.4901
  443MOL0     C59712   3.306   0.908   4.916 -0.1701 -0.4100 -0.0250
  443MOL0     C59713   3.183   0.884   5.008  0.3813 -0.1317  0.4622
  443MOL0    Cl59714   3.098   1.042   5.027  0.1104  0.2474 -0.2783
  443MOL0     C59715   4.274   0.756   4.769  0.3027  0.1310  0.0867
  443MOL0     C59716   4.410   0.802   4.785  0.8234 -0.6654  0.1618
  443MOL0     O59717   4.641   0.613   4.877 -0.6243 -0.2609  0.1509
  443MOL0     C59718   4.872   0.885   4.881  0.7770 -0.3521 -0.1514
  443MOL0     C59719   5.004   0.910   4.845 -1.0257  0.9744 -0.5591
  443MOL0     N59720   5.863   0.766   4.911  0.0227 -0.3792  0.8354
  443MOL0     N59721   5.956   0.728   4.840 -0.0963  0.4230 -0.0852
  443MOL0     C59722   5.362  -0.087   4.546 -0.0458  0.0380 -0.4134
  443MOL0     C59723   5.236  -0.091   4.611  0.2319 -0.1837  0.2113
  443MOL0     C59724   4.966  -0.079   5.005  0.4124  0.6362 -0.2559
  443MOL0     C59725   4.905  -0.202   4.973 -0.6631  0.2663 -0.2558
  443MOL0     C59726   4.803  -0.242   5.064  1.0774 -0.8546 -0.1639
  443MOL0     C59727   4.732  -0.151   5.151  0.6406 -0.1960 -0.2042
  443MOL0     O59728   4.609  -0.176   5.198 -0.2848 -0.2381 -0.2436
  443MOL0     C59729   4.497  -0.109   5.147 -0.2570  0.6100  0.3585
  443MOL0     C59730   4.483   0.032   5.206  0.5246 -0.3621  0.3065
  443MOL0     C59731   4.342   0.093   5.177 -0.9166  0.1981 -0.6950
  443MOL0     C59732   4.325   0.230   5.242 -0.3105  0.5687  0.3894
  443MOL0     C59733   4.386   0.329   5.151 -0.1069 -0.1395 -0.0760
  443MOL0     C59734   4.438   0.407   5.073 -0.8148 -0.5788  0.4867
  443MOL0     C59735   4.796  -0.031   5.174  0.1395 -0.0882  0.0314
  443MOL0     C59736   4.915  -0.000   5.114 -0.0335 -0.9001 -0.5630
  443MOL0     C59737   4.979   0.135   5.146 -0.2786  0.9859  0.0358
  443MOL0     H59738   5.354  -0.179   4.920  0.0730  1.1648 -0.5224
  443MOL0     H59739   5.556  -0.175   4.810  1.5799 -1.2092 -2.5340
  443MOL0     H59740   5.680   0.038   4.662  0.0703 -0.5757 -0.3657
  443MOL0     H59741   5.739  -0.128   4.699 -3.9675 -0.1538  0.9317
  443MOL0     H59742   5.789  -0.010   4.427  0.5727 -0.9495 -0.9085
  443MOL0     H59743   5.877  -0.136   4.501  0.4286  0.5935 -3.9918
  443MOL0     H59744   6.018   0.066   4.513  2.0428 -0.3558  2.6552
  443MOL0     H59745   5.935   0.067   4.677  0.3849  2.2004  0.1525
  443MOL0     H59746   5.853   0.214   4.418 -1.1179 -4.8536 -0.0273
  443MOL0     H59747   5.770   0.243   4.576 -0.5291  1.6500 -0.6534
  443MOL0     H59748   6.009   0.291   4.664  0.2510 -0.0377 -0.1874
  443MOL0     H59749   6.063   0.305   4.497  2.6013 -2.1442  2.8053
  443MOL0     H59750   5.894   0.473   4.454 -2.2869 -2.2973  0.2405
  443MOL0     H59751   5.840   0.472   4.627  0.7685  1.2445  1.5939
  443MOL0     H59752   6.114   0.530   4.507 -1.3583 -0.2309 -0.6004
  443MOL0     H59753   6.094   0.504   4.680  1.9865  3.5379  1.1460
  443MOL0     H59754   6.122   0.737   4.605 -1.4828  0.6552 -0.9219
  443MOL0     H59755   5.980   0.739   4.506  0.2520  1.0144 -0.1520
  443MOL0     H59756   5.736   0.742   4.613 -1.8135 -2.2393  1.2480
  443MOL0     H59757   5.620   0.844   4.971  2.9955  5.7894  0.1273
  443MOL0     H59758   5.603   0.936   4.825 -0.1824  0.6542  0.5539
  443MOL0     H59759   5.556   0.626   4.812  0.7930  0.3476  0.0247
  443MOL0     H59760   5.439   0.721   4.901 -0.6528 -0.1029  0.4893
  443MOL0     H59761   5.494   0.709   4.610 -2.7022 -2.3230 -1.0511
  443MOL0     H59762   5.446   0.869   4.677 -2.3871 -0.1832  1.3714
  443MOL0     H59763   5.288   0.627   4.735 -2.3543  0.1501 -0.5178
  443MOL0     H59764   5.239   0.735   4.604  1.4351 -1.3085 -0.6922
  443MOL0     H59765   5.100   0.583   4.771  2.0528  1.1675 -0.3494
  443MOL0     H59766   4.873   0.546   4.821 -0.0002 -0.7807  1.0516
  443MOL0     H59767   4.429   0.792   5.131  0.5833 -1.9038 -0.5217
  443MOL0     H59768   4.192   0.738   5.101 -0.8919 -0.4008  0.1726
  443MOL0     H59769   3.977   0.831   4.743 -1.7914 -0.5597  1.3440
  443MOL0     H59770   4.007   0.664   4.676 -0.6975 -0.0432 -0.5158
  443MOL0     H59771   3.771   0.697   4.708 -0.2543 -0.2525 -0.3022
  443MOL0     H59772   3.829   0.587   4.836 -1.3354  0.9916  0.9683
  443MOL0     H59773   3.857   0.782   4.997  0.0421 -0.5493  0.2766
  443MOL0     H59774   3.778   0.888   4.882  3.3604 -0.3998 -0.6128
  443MOL0     H59775   3.657   0.705   5.050 -1.0753 -1.5071 -0.5874
  443MOL0     H59776   3.625   0.640   4.899  0.2910 -0.7472  2.0231
  443MOL0     H59777   3.559   0.876   4.810  0.1075 -0.6097 -0.0413
  443MOL0     H59778   3.560   0.924   4.983  2.0253  0.3821 -1.2971
  443MOL0     H59779   3.379   0.714   4.856 -0.6289  1.0597 -0.0091
  443MOL0     H59780   3.404   0.761   5.032  1.2636  0.1470  0.4485
  443MOL0     H59781   3.274   0.921   4.812 -5.2921 -1.6920  1.1202
  443MOL0     H59782   3.352   1.002   4.948 -0.0219 -0.4985  0.0254
  443MOL0     H59783   3.119   0.809   4.962 -1.5303 -0.1806  2.9813
  443MOL0     H59784   3.212   0.853   5.109  0.6220 -0.6598  0.2336
  443MOL0     H59785   4.223   0.751   4.674  1.1762 -0.2999 -0.3739
  443MOL0     H59786   4.472   0.828   4.700 -0.5785 -0.6351 -0.8919
  443MOL0     H59787   4.800   0.963   4.899  1.8803  0.0001  3.9298
  443MOL0     H59788   5.037   1.009   4.814 -0.1082  0.3925 -1.5576
  443MOL0     H59789   5.369  -0.072   4.439 -4.2696  2.2070 -0.6004
  443MOL0     H59790   5.148  -0.093   4.548 -1.3586  1.3917  2.2541
  443MOL0     H59791   4.935  -0.269   4.894  2.1868  2.5125 -1.2292
  443MOL0     H59792   4.741  -0.330   5.051 -1.9661  1.4719 -3.2551
  443MOL0     H59793   4.415  -0.171   5.184 -1.3132 -1.3155 -4.4525
  443MOL0     H59794   4.496  -0.120   5.038 -0.3673 -0.7494  0.4802
  443MOL0     H59795   4.550   0.109   5.167  1.6086 -0.8487  1.1458
  443MOL0     H59796   4.501   0.012   5.312 -1.0334  1.1647  0.9119
  443MOL0     H59797   4.277   0.024   5.232  2.1085 -3.3763 -1.1713
  443MOL0     H59798   4.320   0.090   5.069 -0.1896  0.3132 -0.8501
  443MOL0     H59799   4.223   0.264   5.261 -0.9728 -1.3492  0.5614
  443MOL0     H59800   4.369   0.235   5.342 -0.9172  0.7321  0.6499
  443MOL0     H59801   4.487   0.479   5.010 -2.8440  0.5864  0.1395
  443MOL0     H59802   4.760   0.040   5.248  0.4610 -1.0583  1.1547
  443MOL0     H59803   5.086   0.134   5.167 -0.0617 -0.7467 -0.9952
  443MOL0     H59804   4.971   0.201   5.058  0.4974  1.2787  0.1779
  443MOL0     H59805   4.927   0.194   5.222 -1.1224  0.4255 -0.0908
  444MOL0     O59806   1.853  10.769   4.792 -0.0897  0.0714  0.1724
  444MOL0     C59807   1.753  10.717   4.850  0.6487  0.2321 -0.9751
  444MOL0     O59808   1.763  10.612   4.941 -0.1951  0.3333 -0.2186
  444MOL0     C59809   1.896  10.560   4.961  0.1516 -0.2015 -0.4654
  444MOL0     C59810   1.968  10.487   4.866  0.0086 -0.1125  0.2937
  444MOL0     C59811   2.095  10.448   4.886  0.0333 -0.7364  0.6416
  444MOL0     C59812   2.160  10.464   4.999  0.1716 -0.5627 -0.6991
  444MOL0     O59813   2.294  10.428   5.015 -0.2164  0.7778 -0.7515
  444MOL0     C59814   2.342  10.402   5.155  0.2576 -1.1564  1.4476
  444MOL0     C59815   2.491  10.359   5.147 -0.9846 -0.0539 -0.0263
  444MOL0     C59816   2.574  10.384   5.283 -0.3230 -0.0693  0.1921
  444MOL0     C59817   2.682  10.273   5.290 -0.6174 -0.8377 -1.0840
  444MOL0     C59818   2.785  10.274   5.170 -0.4219  0.3409  0.0564
  444MOL0     C59819   2.855  10.136   5.152 -0.3167 -0.2690  0.8021
  444MOL0     C59820   2.904  10.074   5.286 -0.0926  0.1347  1.4537
  444MOL0     C59821   2.987   9.942   5.266 -0.2362  0.2024 -0.1238
  444MOL0     N59822   3.106   9.968   5.187 -0.3251 -0.3417 -0.3712
  444MOL0     C59823   3.214  10.045   5.228 -0.4042  0.4507  0.8704
  444MOL0     C59824   3.290  10.048   5.115 -0.2985 -0.6195  0.1200
  444MOL0     C59825   3.416  10.127   5.103 -0.0175 -0.1160  0.1606
  444MOL0     C59826   3.535  10.049   5.164 -0.4918  0.7155 -0.3965
  444MOL0     C59827   3.664  10.140   5.178 -0.5601  0.9030  0.3240
  444MOL0     C59828   3.789  10.068   5.243  0.4202 -0.9052  0.1545
  444MOL0     O59829   3.900  10.165   5.222  0.2251 -0.1508 -0.1736
  444MOL0     C59830   4.027  10.130   5.249  0.7004 -0.2102 -0.1062
  444MOL0     C59831   4.126  10.188   5.162 -0.3874  0.9836  0.3147
  444MOL0     C59832   4.258  10.159   5.179  0.3053  0.7653 -0.2110
  444MOL0     C59833   4.295  10.089   5.297 -0.5107  0.5637  0.1552
  444MOL0     C59834   4.440  10.075   5.328  0.3516 -0.5210  0.2613
  444MOL0     O59835   4.532  10.117   5.227  0.4928  0.7884 -0.4508
  444MOL0     C59836   4.658  10.067   5.258 -0.2785  0.0388  0.5076
  444MOL0     C59837   4.748  10.127   5.338 -0.3452 -0.7973  0.6412
  444MOL0     C59838   4.891  10.098   5.322 -0.0251  0.1333 -0.3928
  444MOL0     C59839   4.932   9.993   5.237  0.2978  0.1726 -0.5799
  444MOL0     O59840   5.063   9.952   5.234 -0.0812  0.2304 -0.0676
  444MOL0     C59841   5.163  10.053   5.200  0.5272 -0.6503 -0.2173
  444MOL0     C59842   5.276   9.992   5.143 -0.7847 -0.4990  0.5680
  444MOL0     C59843   5.389  10.098   5.126 -0.3681  0.1962 -0.3313
  444MOL0     C59844   5.524  10.027   5.085  0.7335 -0.8651  0.0294
  444MOL0     C59845   5.622  10.121   5.036 -0.2193 -0.3506  0.8670
  444MOL0     C59846   5.757  10.057   5.019  0.0774 -0.0200  0.8166
  444MOL0     C59847   5.852  10.150   4.934  0.2392  0.0112 -0.1274
  444MOL0     C59848   5.990  10.086   4.917 -0.1995  0.0838  0.6052
  444MOL0    Cl59849   6.102  10.183   4.803  0.6946  0.0263 -0.3613
  444MOL0     C59850   4.834   9.923   5.173  0.3668  0.4871 -0.8333
  444MOL0     C59851   4.695   9.957   5.177 -0.9832  0.5529 -0.4860
  444MOL0     O59852   4.464  10.024   5.437  0.0006 -0.3008 -0.5791
  444MOL0     C59853   4.198  10.038   5.390  0.3839 -0.2781  0.5127
  444MOL0     C59854   4.061  10.068   5.367  1.0196  0.5805 -0.1695
  444MOL0     N59855   3.223   9.993   5.008 -0.0908 -0.1490  0.5296
  444MOL0     N59856   3.118   9.930   5.056 -0.2608 -0.2117  0.9685
  444MOL0     C59857   2.087  10.523   5.101 -0.5174  0.1521  0.6822
  444MOL0     C59858   1.957  10.569   5.084  0.7153  0.5056  0.3724
  444MOL0     C59859   1.612  10.781   4.826  0.5499 -0.1245 -0.7576
  444MOL0     C59860   1.509  10.734   4.916 -0.5530  0.5128  0.0187
  444MOL0     C59861   1.378  10.786   4.912  0.0432 -0.2069  0.4518
  444MOL0     C59862   1.343  10.883   4.821 -0.4087 -0.6029 -0.0989
  444MOL0     O59863   1.208  10.919   4.807  0.2503  0.0403  0.4972
  444MOL0     C59864   1.145  10.954   4.929  0.2651  0.0949  0.0201
  444MOL0     C59865   0.999  10.942   4.905 -0.7789 -0.0463 -0.4854
  444MOL0     C59866   0.959  10.800   4.853  0.1565  0.0470  0.2412
  444MOL0     C59867   0.808  10.810   4.822  0.2749 -0.6272  0.5650
  444MOL0     C59868   0.760  10.680   4.769  0.2155 -0.1115  1.2689
  444MOL0     C59869   0.701  10.578   4.736 -0.4141  0.1662  0.0204
  444MOL0     C59870   1.448  10.920   4.740 -0.5188 -0.6175 -0.1603
  444MOL0     C59871   1.582  10.881   4.737  0.3475 -0.4576 -0.6622
  444MOL0     C59872   1.682  10.934   4.635 -0.0655 -0.3589  0.8281
  444MOL0     H59873   1.929  10.470   4.766  1.3426 -1.2435 -0.0628
  444MOL0     H59874   2.148  10.405   4.801 -0.1407  2.1728 -1.0848
  444MOL0     H59875   2.323  10.493   5.213 -3.7937  1.1488 -2.8536
  444MOL0     H59876   2.279  10.320   5.191 -0.4232 -0.9065  0.8477
  444MOL0     H59877   2.540  10.417   5.069  0.7160 -1.4117 -0.0069
  444MOL0     H59878   2.491  10.253   5.123 -1.5238 -0.4041  1.4057
  444MOL0     H59879   2.491  10.385   5.354 -2.8603  1.4309 -2.5500
  444MOL0     H59880   2.626  10.479   5.271 -0.8287  0.0538 -1.2761
  444MOL0     H59881   2.734  10.303   5.381 -3.5603 -0.5325  0.6233
  444MOL0     H59882   2.633  10.177   5.311 -3.0531  0.7410  0.9831
  444MOL0     H59883   2.740  10.299   5.074 -1.3881 -2.2063 -0.2491
  444MOL0     H59884   2.857  10.352   5.195 -0.5021  0.7929 -1.0612
  444MOL0     H59885   2.791  10.072   5.092  1.8458  0.3546 -2.3969
  444MOL0     H59886   2.935  10.162   5.083 -2.1109  1.0897 -0.8596
  444MOL0     H59887   2.816  10.052   5.347 -1.0602  0.8739  0.3664
  444MOL0     H59888   2.968  10.143   5.341  1.2161 -0.6577  0.9725
  444MOL0     H59889   3.011   9.904   5.366 -1.1134  0.0219  0.0249
  444MOL0     H59890   2.925   9.867   5.217 -0.3627 -0.5210  1.1056
  444MOL0     H59891   3.233  10.073   5.331  2.0165  1.5921  0.1828
  444MOL0     H59892   3.429  10.132   4.995 -0.6277 -0.4298  0.0680
  444MOL0     H59893   3.409  10.228   5.145 -0.4719  0.3439 -0.9996
  444MOL0     H59894   3.512  10.020   5.267 -2.9178 -0.1946 -1.1327
  444MOL0     H59895   3.561   9.964   5.101  0.6412  0.9011 -0.2017
  444MOL0     H59896   3.635  10.215   5.252 -2.6737 -2.5746  3.3354
  444MOL0     H59897   3.681  10.187   5.080 -0.1088  0.7865  0.3448
  444MOL0     H59898   3.821   9.978   5.190 -0.1586  1.3143 -4.4957
  444MOL0     H59899   3.776  10.051   5.350  1.3608  0.4741  0.5189
  444MOL0     H59900   4.096  10.258   5.085 -0.6104  0.5537  0.0088
  444MOL0     H59901   4.330  10.207   5.113 -1.2947 -1.6025 -3.9771
  444MOL0     H59902   4.712  10.217   5.387 -1.3825 -1.6724  1.5511
  444MOL0     H59903   4.962  10.150   5.385 -0.4151  1.5187 -1.0496
  444MOL0     H59904   5.129  10.129   5.129 -0.0389  0.8557  1.5947
  444MOL0     H59905   5.198  10.104   5.291  0.2746  0.1686 -0.5697
  444MOL0     H59906   5.310   9.921   5.219 -0.4256 -2.0982 -1.0143
  444MOL0     H59907   5.262   9.934   5.052 -0.8576  0.0438  0.2326
  444MOL0     H59908   5.367  10.177   5.054  5.5654  2.3905 -0.2679
  444MOL0     H59909   5.411  10.154   5.217 -0.2088  1.4917 -1.1365
  444MOL0     H59910   5.503   9.951   5.009 -0.9869 -1.7316  1.3107
  444MOL0     H59911   5.570   9.971   5.166  2.9198 -0.8411 -1.1164
  444MOL0     H59912   5.632  10.210   5.099  0.3158  0.1258  0.1250
  444MOL0     H59913   5.579  10.156   4.942 -0.3914  1.3700  1.5512
  444MOL0     H59914   5.803  10.045   5.118 -0.3936  2.2440  1.3764
  444MOL0     H59915   5.754   9.962   4.965  0.8954 -0.9659  2.3577
  444MOL0     H59916   5.867  10.244   4.987 -1.0928  1.2962 -1.9066
  444MOL0     H59917   5.801  10.175   4.840  4.2093  1.4648 -2.0924
  444MOL0     H59918   6.027  10.090   5.020 -2.1766 -1.7681  1.4500
  444MOL0     H59919   5.985   9.985   4.874  0.2768  0.5058 -0.4860
  444MOL0     H59920   4.870   9.848   5.104  1.0020 -0.2731  0.2891
  444MOL0     H59921   4.621   9.916   5.109 -0.8959 -1.9392  0.7675
  444MOL0     H59922   4.231   9.967   5.465  0.1431 -2.3620 -1.2322
  444MOL0     H59923   3.985  10.031   5.435  1.2227  1.6595  0.6878
  444MOL0     H59924   2.124  10.541   5.201  1.6980 -3.2798  0.6343
  444MOL0     H59925   1.916  10.618   5.172  0.5194  1.3480 -0.1700
  444MOL0     H59926   1.535  10.666   4.996 -1.1642  0.3014  0.0355
  444MOL0     H59927   1.302  10.752   4.981 -0.2239  1.3089  0.9277
  444MOL0     H59928   1.174  11.055   4.960  0.3843  0.6626 -1.8113
  444MOL0     H59929   1.178  10.895   5.015  0.1855  1.0309  0.7042
  444MOL0     H59930   0.974  11.020   4.832 -1.3712  0.9369  0.7334
  444MOL0     H59931   0.948  10.968   4.998  0.5879  1.7683 -0.1870
  444MOL0     H59932   0.978  10.721   4.926  1.8838 -3.1147 -3.2714
  444MOL0     H59933   1.022  10.774   4.767  0.1703  0.8541  0.0019
  444MOL0     H59934   0.749  10.842   4.908 -0.1367  0.1060  0.0210
  444MOL0     H59935   0.791  10.880   4.740 -1.2330 -2.1243 -0.4788
  444MOL0     H59936   0.657  10.485   4.704  2.6756 -0.8315 -1.7974
  444MOL0     H59937   1.413  10.987   4.661  2.1180 -0.3504 -1.2008
  444MOL0     H59938   1.733  11.028   4.660  1.3256 -0.4362 -1.4690
  444MOL0     H59939   1.760  10.859   4.620 -1.5785 -2.3859  2.4527
  444MOL0     H59940   1.646  10.930   4.532  2.6633 -2.8993 -0.1574
  445MOL0     O59941   9.760  10.959   2.372  0.1972 -0.5396  0.9862
  445MOL0     C59942   9.724  11.077   2.394 -0.1928 -0.0537 -0.2324
  445MOL0     O59943   9.762  11.154   2.505 -0.2401 -0.4030  0.3031
  445MOL0     C59944   9.833  11.085   2.603 -0.5434  0.0319 -0.1693
  445MOL0     C59945   9.977  11.068   2.593  0.3324  0.4580 -0.5984
  445MOL0     C59946  10.044  10.984   2.685  0.2416 -0.2262 -0.1697
  445MOL0     C59947   9.982  10.952   2.806  0.0353  0.2907  0.2928
  445MOL0     O59948  10.061  10.899   2.910 -0.3955 -0.1881  0.8978
  445MOL0     C59949  10.095  11.000   3.003  0.5011  0.6522 -0.0180
  445MOL0     C59950  10.214  10.962   3.097 -0.5373  0.0174 -0.0488
  445MOL0     C59951  10.184  10.820   3.163 -0.2076 -0.6946 -0.5482
  445MOL0     C59952  10.290  10.711   3.131  0.4989 -1.0209  0.4321
  445MOL0     C59953  10.260  10.573   3.204  0.6056 -0.3130 -0.2673
  445MOL0     C59954  10.353  10.455   3.185 -0.7182 -0.2142 -0.2685
  445MOL0     C59955  10.505  10.482   3.213 -0.1604  0.1118  0.1133
  445MOL0     C59956  10.527  10.507   3.367  0.6490  0.2858  0.2391
  445MOL0     N59957  10.525  10.383   3.453  0.4076  0.9833  0.7133
  445MOL0     C59958  10.402  10.316   3.486 -0.2534  0.6863 -0.3125
  445MOL0     C59959  10.450  10.193   3.524 -0.9474 -1.0012 -0.0854
  445MOL0     C59960  10.369  10.087   3.593 -0.3930 -0.0281  0.1529
  445MOL0     C59961  10.361  10.105   3.747  0.7711 -0.2372  0.1516
  445MOL0     C59962  10.497  10.099   3.820  0.0757 -0.7418 -0.1058
  445MOL0     C59963  10.565   9.967   3.811 -0.3831  1.3941 -0.1843
  445MOL0     O59964  10.676   9.967   3.906 -0.2314  0.1613 -0.1595
  445MOL0     C59965  10.804  10.012   3.866  0.0890  0.4343 -0.2693
  445MOL0     C59966  10.914  10.004   3.954  0.2315  0.7347  0.0186
  445MOL0     C59967  11.032  10.064   3.922 -1.0768 -0.0028 -0.4685
  445MOL0     C59968  11.060  10.118   3.800 -0.3339 -0.0058  0.6518
  445MOL0     C59969  11.192  10.167   3.763 -0.6141 -0.6287  0.5022
  445MOL0     O59970  11.296  10.117   3.828  0.0260  0.9916 -0.2468
  445MOL0     C59971  11.427  10.147   3.814  0.3141 -0.6301  0.1325
  445MOL0     C59972  11.488  10.267   3.766  0.3150 -0.1167 -0.7523
  445MOL0     C59973  11.624  10.289   3.766 -0.4975 -0.1276 -0.6441
  445MOL0     C59974  11.712  10.181   3.809 -0.6327 -0.3758  0.5232
  445MOL0     O59975  11.848  10.176   3.823  0.1204  0.3436  0.1659
  445MOL0     C59976  11.919  10.300   3.833 -0.2384 -0.8386 -0.7862
  445MOL0     C59977  11.906  10.349   3.980  0.0294  0.7258  0.6245
  445MOL0     C59978  11.952  10.492   4.002 -0.2325  0.1186  0.3320
  445MOL0     C59979  12.107  10.507   4.007 -0.0402 -0.0802  1.1894
  445MOL0     C59980  12.141  10.641   4.048  0.6678 -0.5799 -0.4313
  445MOL0     C59981  12.288  10.682   4.026 -0.5495 -0.5591 -0.0786
  445MOL0     C59982  12.315  10.828   4.008 -0.0610 -0.1718 -0.6976
  445MOL0     C59983  12.464  10.848   3.990  0.3022  0.3019  0.5070
  445MOL0    Cl59984  12.502  11.020   3.955  0.3450  0.2284  0.2364
  445MOL0     C59985  11.658  10.056   3.840  0.7147 -1.0538  0.3122
  445MOL0     C59986  11.521  10.044   3.840 -0.0736 -0.6284  0.4011
  445MOL0     O59987  11.197  10.243   3.669 -0.4956 -1.1207  0.2788
  445MOL0     C59988  10.947  10.136   3.717 -0.4940  0.3988 -0.4671
  445MOL0     C59989  10.827  10.076   3.745 -0.3862 -0.1251 -0.1298
  445MOL0     N59990  10.594  10.184   3.512  0.7649 -0.4814 -0.3075
  445MOL0     N59991  10.629  10.294   3.464 -0.2260  0.0053 -0.3337
  445MOL0     C59992   9.843  10.962   2.813  0.5645  0.2363  0.4531
  445MOL0     C59993   9.773  11.025   2.708 -0.3674 -0.8136  0.3849
  445MOL0     C59994   9.646  11.147   2.284 -0.3417  0.3623 -0.2084
  445MOL0     C59995   9.623  11.069   2.162  0.1561  0.4877 -0.5568
  445MOL0     C59996   9.564  11.124   2.056  0.1542  0.2211  0.5457
  445MOL0     C59997   9.503  11.248   2.065 -0.7271 -0.3154  0.3764
  445MOL0     O59998   9.434  11.309   1.963 -0.2401 -0.0298  0.4374
  445MOL0     C59999   9.379  11.230   1.855 -0.2148  0.5957  0.0029
  445MOL0     C60000   9.277  11.295   1.759 -0.0479  0.1267  1.0302
  445MOL0     C60001   9.316  11.430   1.702 -0.3263 -0.1181  0.2356
  445MOL0     C60002   9.195  11.498   1.643 -0.7413 -0.9676  0.2763
  445MOL0     C60003   9.155  11.436   1.509 -0.7169 -0.2111 -0.8724
  445MOL0     C60004   9.118  11.379   1.407  0.1531 -0.2794 -0.3938
  445MOL0     C60005   9.509  11.319   2.184 -0.6939 -0.3824 -0.0146
  445MOL0     C60006   9.590  11.272   2.284 -1.0871 -0.4951  0.4180
  445MOL0     C60007   9.590  11.359   2.404 -0.5374  0.4192 -0.2329
  445MOL0     H60008  10.029  11.115   2.510  1.0742 -0.0834 -0.4554
  445MOL0     H60009  10.152  10.973   2.677  0.2572 -2.4257  1.9696
  445MOL0     H60010  10.114  11.089   2.941 -1.8743  1.7349  0.6892
  445MOL0     H60011  10.008  11.037   3.058  1.9380  1.2013  2.0233
  445MOL0     H60012  10.227  11.033   3.179 -1.2970 -0.2826  0.3427
  445MOL0     H60013  10.309  10.972   3.044 -0.3794  0.5529  0.3286
  445MOL0     H60014  10.088  10.776   3.135 -0.7022 -0.5590  0.8485
  445MOL0     H60015  10.186  10.824   3.272  1.1710 -5.6847 -0.0918
  445MOL0     H60016  10.294  10.699   3.022  0.6797 -3.2461  0.6380
  445MOL0     H60017  10.391  10.742   3.162  1.0456 -1.5482 -0.7521
  445MOL0     H60018  10.249  10.604   3.309 -1.9850  3.5417 -1.4708
  445MOL0     H60019  10.160  10.547   3.169 -1.0707  4.0022  0.6266
  445MOL0     H60020  10.313  10.368   3.237 -2.4418  0.4470 -0.4219
  445MOL0     H60021  10.354  10.422   3.080  1.0701  1.9915 -1.0276
  445MOL0     H60022  10.528  10.568   3.150 -0.4509 -0.2363 -0.4724
  445MOL0     H60023  10.568  10.398   3.182  3.3584  1.8390  1.9710
  445MOL0     H60024  10.618  10.565   3.387  0.4053  0.8940 -0.4237
  445MOL0     H60025  10.449  10.575   3.402  0.1302  0.5825 -1.4236
  445MOL0     H60026  10.297  10.345   3.489 -0.9691 -1.5677 -1.1834
  445MOL0     H60027  10.273  10.101   3.543 -0.3062  1.7705  0.4196
  445MOL0     H60028  10.415   9.996   3.554  1.3886  1.6325 -1.9234
  445MOL0     H60029  10.322  10.202   3.780  1.8299 -0.1972  1.3836
  445MOL0     H60030  10.293  10.026   3.779  1.4120 -1.6542 -1.8486
  445MOL0     H60031  10.470  10.117   3.925 -2.2595  1.1413 -0.9302
  445MOL0     H60032  10.561  10.182   3.787 -0.0258  1.3060  4.1309
  445MOL0     H60033  10.597   9.943   3.709  0.3046  1.6929 -0.0423
  445MOL0     H60034  10.493   9.888   3.837  0.0495  0.6752 -1.0901
  445MOL0     H60035  10.907   9.949   4.048  1.2202 -0.2386 -0.4611
  445MOL0     H60036  11.115  10.044   3.988 -0.3764 -2.5337 -1.9866
  445MOL0     H60037  11.420  10.345   3.733 -0.8407 -1.9285 -2.9361
  445MOL0     H60038  11.651  10.388   3.732  1.2727 -0.5329 -0.4994
  445MOL0     H60039  12.026  10.290   3.814 -0.1013 -0.6093 -0.1525
  445MOL0     H60040  11.875  10.375   3.767 -0.0212  1.6961  1.7690
  445MOL0     H60041  11.800  10.341   4.009 -0.0675  0.2448  0.1623
  445MOL0     H60042  11.953  10.277   4.046 -2.6219 -1.7638  0.0247
  445MOL0     H60043  11.925  10.556   3.917  1.1856  1.6134  0.9341
  445MOL0     H60044  11.917  10.524   4.100 -0.3847  3.1749 -0.6053
  445MOL0     H60045  12.153  10.472   3.914  0.4587 -0.0253  1.4153
  445MOL0     H60046  12.153  10.435   4.075  0.2153  0.3096  1.4346
  445MOL0     H60047  12.114  10.654   4.153 -0.9005  1.9030 -1.0758
  445MOL0     H60048  12.085  10.712   3.987  3.8881  0.2295 -2.6957
  445MOL0     H60049  12.349  10.639   4.105  0.5786 -0.0720 -0.6609
  445MOL0     H60050  12.322  10.642   3.929 -1.0010 -2.3881  0.4769
  445MOL0     H60051  12.291  10.885   4.098 -0.7811  1.4498 -1.8701
  445MOL0     H60052  12.256  10.860   3.922 -0.4147 -0.6134 -0.6173
  445MOL0     H60053  12.520  10.805   4.074 -0.3091  0.4460  0.9992
  445MOL0     H60054  12.484  10.798   3.894  0.0616 -1.0827  1.1476
  445MOL0     H60055  11.724   9.970   3.849  0.0122 -1.4019  3.2410
  445MOL0     H60056  11.480   9.946   3.861  0.6323 -1.3607 -1.4204
  445MOL0     H60057  10.956  10.195   3.626  0.4134  0.2733 -0.4717
  445MOL0     H60058  10.749  10.092   3.671 -0.1718  0.7590 -0.1706
  445MOL0     H60059   9.789  10.920   2.898 -1.0577  0.9745 -0.1733
  445MOL0     H60060   9.667  11.051   2.703  0.5821  4.1372  0.6511
  445MOL0     H60061   9.656  10.966   2.167  1.3486  0.8957  1.6037
  445MOL0     H60062   9.560  11.065   1.965  0.5145 -1.8163  1.7929
  445MOL0     H60063   9.346  11.130   1.885  0.8115 -0.7084 -2.7833
  445MOL0     H60064   9.471  11.207   1.799  0.1117 -2.9080  1.7218
  445MOL0     H60065   9.181  11.297   1.812 -0.5846 -2.1985  0.2693
  445MOL0     H60066   9.266  11.219   1.681 -1.7148  1.7308 -0.3868
  445MOL0     H60067   9.393  11.410   1.627 -0.1137 -2.3942  0.9935
  445MOL0     H60068   9.354  11.494   1.783 -6.6624  1.9490  2.1627
  445MOL0     H60069   9.113  11.482   1.714 -0.9065  0.5308  0.4542
  445MOL0     H60070   9.196  11.608   1.637  1.3623 -1.0165 -1.7592
  445MOL0     H60071   9.068  11.333   1.324  0.0637  4.7314 -3.5212
  445MOL0     H60072   9.446  11.407   2.185 -1.8084 -1.1619  1.9346
  445MOL0     H60073   9.518  11.314   2.472 -1.4166  0.9942 -0.7646
  445MOL0     H60074   9.689  11.356   2.450 -0.7278 -1.8685  0.1015
  445MOL0     H60075   9.563  11.465   2.390  0.8027  1.0992  1.8020
  446MOL0     O60076   5.050   2.409   9.948 -0.5150  0.4384  0.0629
  446MOL0     C60077   5.134   2.370   9.864 -1.0264 -0.3256 -0.3984
  446MOL0     O60078   5.245   2.451   9.839  0.1640  0.4597  0.3852
  446MOL0     C60079   5.266   2.580   9.878  0.2057  0.1517  0.1127
  446MOL0     C60080   5.396   2.614   9.916  0.2177  0.8740  0.6385
  446MOL0     C60081   5.429   2.741   9.957  0.8470 -0.1834 -0.0744
  446MOL0     C60082   5.319   2.840   9.962 -0.5646  0.2726  0.8170
  446MOL0     O60083   5.360   2.968  10.009  0.5793  0.7864  0.0362
  446MOL0     C60084   5.261   3.073  10.010  0.0790 -0.2058  0.4755
  446MOL0     C60085   5.307   3.214  10.047 -0.1314  0.4016  0.3594
  446MOL0     C60086   5.413   3.268   9.950 -0.5089  0.3202 -0.3398
  446MOL0     C60087   5.430   3.425   9.960  0.4240  0.2054  0.0740
  446MOL0     C60088   5.541   3.481   9.858 -0.1673 -1.1982 -0.1479
  446MOL0     C60089   5.592   3.622   9.910  0.9091 -0.0771 -1.3063
  446MOL0     C60090   5.696   3.697   9.809 -0.3409 -0.1524  0.2001
  446MOL0     C60091   5.830   3.630   9.784  0.3338 -0.4403 -0.0469
  446MOL0     N60092   5.909   3.617   9.908 -0.4206 -0.4382 -0.2667
  446MOL0     C60093   5.974   3.503   9.935  0.4974 -0.4064 -0.7322
  446MOL0     C60094   6.053   3.521  10.037 -0.1809 -0.4989  0.2688
  446MOL0     C60095   6.162   3.422  10.078  0.4980 -0.0349  0.2539
  446MOL0     C60096   6.144   3.409  10.231 -0.1370  0.2945  0.1934
  446MOL0     C60097   6.224   3.289  10.293 -0.2511 -0.3575  0.1173
  446MOL0     C60098   6.374   3.321  10.292 -0.7849 -0.6928  0.4939
  446MOL0     O60099   6.413   3.285  10.163 -0.3228  0.1618  0.5191
  446MOL0     C60100   6.542   3.321  10.135 -0.4574  0.0533 -0.9429
  446MOL0     C60101   6.652   3.232  10.119 -0.4803  0.6100 -0.2056
  446MOL0     C60102   6.783   3.279  10.082 -0.0158  0.4872  0.1685
  446MOL0     C60103   6.806   3.417  10.072 -0.6468  0.0095 -0.7025
  446MOL0     C60104   6.944   3.471  10.040 -0.2975  0.7762  0.5519
  446MOL0     O60105   6.951   3.604  10.008  0.0109 -0.0071 -1.1381
  446MOL0     C60106   7.073   3.650   9.985  0.0914 -0.0845 -0.5325
  446MOL0     C60107   7.166   3.687  10.085 -0.0908 -0.0375 -0.3765
  446MOL0     C60108   7.301   3.727  10.047 -0.1710 -0.2218  0.9632
  446MOL0     C60109   7.330   3.735   9.902 -0.8927 -0.3647 -0.0654
  446MOL0     O60110   7.457   3.767   9.859  0.2795  0.2183 -0.0193
  446MOL0     C60111   7.466   3.867   9.762 -0.0897  0.0468  0.0619
  446MOL0     C60112   7.615   3.910   9.731 -0.8349  0.6065  0.2384
  446MOL0     C60113   7.691   3.973   9.848  0.0251 -0.7236  0.3110
  446MOL0     C60114   7.838   3.984   9.812 -0.1320 -0.5764  0.3099
  446MOL0     C60115   7.918   4.043   9.937 -1.1841  0.7916  0.1606
  446MOL0     C60116   8.072   4.060   9.918 -0.3775 -0.2827  0.0113
  446MOL0     C60117   8.149   4.127  10.037 -0.7202  0.3400  0.4202
  446MOL0     C60118   8.114   4.259  10.109  0.2300 -0.4721  0.4904
  446MOL0    Cl60119   7.968   4.219  10.206 -0.3228  0.1975  0.0197
  446MOL0     C60120   7.230   3.701   9.812 -0.2785  0.5775  0.4421
  446MOL0     C60121   7.104   3.657   9.850 -0.9986  0.0177  0.1826
  446MOL0     O60122   7.041   3.400  10.066  0.2881 -0.5580 -0.1111
  446MOL0     C60123   6.692   3.501  10.086 -0.2121 -0.4217 -0.1457
  446MOL0     C60124   6.568   3.452  10.103  0.7040 -0.1519  0.9776
  446MOL0     N60125   6.045   3.660  10.068 -0.0777  0.1657  0.1124
  446MOL0     N60126   5.957   3.722   9.984  0.0101  0.1285  0.5072
  446MOL0     C60127   5.191   2.806   9.925 -0.3276 -0.2867 -0.1123
  446MOL0     C60128   5.164   2.674   9.884 -0.7111  0.2875 -0.7198
  446MOL0     C60129   5.102   2.262   9.779 -0.6247 -0.6481 -0.5163
  446MOL0     C60130   5.158   2.270   9.648 -0.2551  0.5934  0.2652
  446MOL0     C60131   5.136   2.159   9.563  0.4620  0.0152  0.9310
  446MOL0     C60132   5.051   2.057   9.595  0.4549  0.8518 -0.8161
  446MOL0     O60133   5.007   1.963   9.514  0.2755  0.1250 -0.5846
  446MOL0     C60134   4.908   1.998   9.426  0.5315 -0.4514 -0.1196
  446MOL0     C60135   4.828   1.871   9.383 -0.6786  0.2315 -0.5828
  446MOL0     C60136   4.829   1.766   9.490 -0.6732  0.3916  0.2792
  446MOL0     C60137   4.732   1.646   9.457 -0.2664 -0.1448  0.5660
  446MOL0     C60138   4.770   1.575   9.326 -0.5040 -0.1468 -0.1726
  446MOL0     C60139   4.826   1.528   9.233  0.1647 -0.4077  0.5971
  446MOL0     C60140   5.011   2.045   9.729 -0.2289 -0.3824 -0.2945
  446MOL0     C60141   5.035   2.146   9.822 -0.1083 -0.5321 -0.5056
  446MOL0     C60142   5.002   2.128   9.966  0.5176  0.4553 -0.7280
  446MOL0     H60143   5.475   2.540   9.909 -0.7314 -0.0279 -1.5380
  446MOL0     H60144   5.525   2.781   9.987  0.6767  1.8676 -1.9642
  446MOL0     H60145   5.224   3.085   9.908  0.0490  1.8090  0.6921
  446MOL0     H60146   5.179   3.043  10.076 -1.2773  1.1527 -0.5227
  446MOL0     H60147   5.337   3.195  10.150 -2.6305 -3.1709  0.6028
  446MOL0     H60148   5.225   3.286  10.046  1.5803  2.5209  1.8744
  446MOL0     H60149   5.385   3.250   9.846 -1.3266 -1.3323  0.1293
  446MOL0     H60150   5.512   3.223   9.964 -0.4656 -0.7703 -3.4262
  446MOL0     H60151   5.333   3.473   9.944  0.2950 -0.2552 -0.5609
  446MOL0     H60152   5.463   3.446  10.062  1.4858  3.3768 -0.7788
  446MOL0     H60153   5.614   3.402   9.838  1.3124  0.9570 -4.6090
  446MOL0     H60154   5.498   3.496   9.759  1.6526  1.5826 -0.6256
  446MOL0     H60155   5.500   3.680   9.923  1.4475  0.1855  3.1381
  446MOL0     H60156   5.636   3.620  10.011 -1.3889  1.5681 -0.1929
  446MOL0     H60157   5.718   3.792   9.858 -2.2460 -1.1623  3.2600
  446MOL0     H60158   5.647   3.710   9.712 -3.4578  0.3805  1.7371
  446MOL0     H60159   5.810   3.532   9.738  0.6746 -0.8613  0.6848
  446MOL0     H60160   5.876   3.698   9.712 -1.1940  1.0894  0.3439
  446MOL0     H60161   5.970   3.410   9.878  0.9235 -1.4446  0.8504
  446MOL0     H60162   6.149   3.325  10.028  0.5117  0.3942 -0.5915
  446MOL0     H60163   6.261   3.450  10.041  0.4192  1.2047  0.9392
  446MOL0     H60164   6.184   3.500  10.277 -3.8422  1.3659  1.6278
  446MOL0     H60165   6.040   3.402  10.261 -0.0632  1.9405  0.9417
  446MOL0     H60166   6.216   3.194  10.240  2.3825 -2.2810  2.7938
  446MOL0     H60167   6.194   3.273  10.397  3.4832 -2.6919  1.0246
  446MOL0     H60168   6.427   3.269  10.373  1.5189 -0.9905 -1.0887
  446MOL0     H60169   6.382   3.430  10.302 -1.3732 -0.6244  0.2209
  446MOL0     H60170   6.629   3.126  10.129  0.3035  0.4907  0.5092
  446MOL0     H60171   6.854   3.198  10.065 -0.7827 -0.3684  0.9080
  446MOL0     H60172   7.141   3.681  10.191  3.0010 -2.1545  0.3532
  446MOL0     H60173   7.375   3.744  10.124  0.6405 -0.3443  0.2198
  446MOL0     H60174   7.420   3.831   9.670  1.7040 -0.1856 -0.7761
  446MOL0     H60175   7.425   3.958   9.808 -0.7187 -0.3238  0.2588
  446MOL0     H60176   7.656   3.811   9.706 -5.0783 -1.7540  1.6617
  446MOL0     H60177   7.633   3.978   9.648  1.9134  1.6910  1.5920
  446MOL0     H60178   7.643   4.068   9.871 -0.7657 -1.1242  0.3418
  446MOL0     H60179   7.673   3.905   9.932  1.1368 -0.7857  0.5196
  446MOL0     H60180   7.858   4.039   9.720 -2.2826 -2.3699 -1.3541
  446MOL0     H60181   7.888   3.888   9.795  3.5758  0.9717  1.3795
  446MOL0     H60182   7.909   3.963  10.012  0.6420 -1.3858 -1.7948
  446MOL0     H60183   7.868   4.136   9.967 -2.6551 -0.5492  2.1392
  446MOL0     H60184   8.110   3.958   9.906  2.4377  0.5689  0.9846
  446MOL0     H60185   8.092   4.125   9.832 -0.8463  1.0318  0.8665
  446MOL0     H60186   8.249   4.136   9.992  0.1051 -0.0599  2.0649
  446MOL0     H60187   8.145   4.045  10.111 -3.3326  1.4703  1.6359
  446MOL0     H60188   8.189   4.284  10.183 -1.9849  1.4016  2.2347
  446MOL0     H60189   8.104   4.351  10.051 -0.1080 -1.6787 -1.4639
  446MOL0     H60190   7.257   3.697   9.707 -3.8970 -1.5475 -0.5629
  446MOL0     H60191   7.034   3.621   9.775 -1.0671  0.2078  0.1525
  446MOL0     H60192   6.724   3.605  10.085  5.1235 -1.7143  1.4954
  446MOL0     H60193   6.500   3.537  10.099 -1.4590 -1.8482 -2.0479
  446MOL0     H60194   5.113   2.881   9.936  0.2130  0.2496  0.1829
  446MOL0     H60195   5.062   2.641   9.869 -0.1533 -1.9149 -0.0625
  446MOL0     H60196   5.212   2.352   9.603 -0.7122  0.8091  0.0992
  446MOL0     H60197   5.185   2.157   9.467  3.9045  0.0154  2.5374
  446MOL0     H60198   4.964   2.045   9.344  2.5904  1.0539  2.0393
  446MOL0     H60199   4.831   2.070   9.456  2.0330  2.1309 -2.0329
  446MOL0     H60200   4.883   1.837   9.295 -1.8533 -1.0260 -0.8719
  446MOL0     H60201   4.724   1.892   9.357 -0.9314 -0.2025  0.0612
  446MOL0     H60202   4.791   1.810   9.583 -1.2272  1.5996 -0.4913
  446MOL0     H60203   4.930   1.724   9.497 -1.4249 -1.6101 -0.2753
  446MOL0     H60204   4.722   1.581   9.545  2.3876 -0.2748  0.8510
  446MOL0     H60205   4.639   1.697   9.430  0.6940  1.3439 -0.0459
  446MOL0     H60206   4.882   1.492   9.149  0.8191 -0.3479  1.0005
  446MOL0     H60207   4.964   1.950   9.753  2.9641 -2.6406 -2.1645
  446MOL0     H60208   4.915   2.187   9.996  1.5851  3.0971 -2.4859
  446MOL0     H60209   4.979   2.022   9.979 -0.1305  0.6303 -0.4079
  446MOL0     H60210   5.091   2.163  10.020 -0.0007 -1.9092  1.9094
  447MOL0     O60211  10.636   2.220   7.760 -0.2662 -0.1631  0.2329
  447MOL0     C60212  10.609   2.122   7.691 -0.1716 -0.2242 -0.0725
  447MOL0     O60213  10.703   2.026   7.652 -0.4538  0.7115  0.2717
  447MOL0     C60214  10.839   2.062   7.656  0.9982 -0.1633 -0.3354
  447MOL0     C60215  10.922   2.000   7.751 -0.1338  0.1992 -0.6961
  447MOL0     C60216  11.059   2.037   7.761  0.7146  0.1597  0.6021
  447MOL0     C60217  11.108   2.132   7.672 -0.0737 -0.2118 -0.7483
  447MOL0     O60218  11.246   2.179   7.665  0.2449  0.9195  0.0395
  447MOL0     C60219  11.338   2.149   7.773  0.3610  0.5095  0.3005
  447MOL0     C60220  11.465   2.230   7.736 -0.4750  0.7587  0.0618
  447MOL0     C60221  11.571   2.238   7.856 -0.1486 -0.3790  0.2799
  447MOL0     C60222  11.695   2.318   7.816 -0.0598  0.1611  0.3561
  447MOL0     C60223  11.816   2.317   7.911  0.2326 -0.0054  0.2053
  447MOL0     C60224  11.827   2.180   7.974  0.7986 -0.1015 -0.6302
  447MOL0     C60225  11.965   2.173   8.043 -0.1430 -0.7854 -0.3938
  447MOL0     C60226  11.994   2.022   8.075  0.1587 -0.2070  0.2426
  447MOL0     N60227  12.121   1.998   8.142 -0.8521  1.0918 -0.1463
  447MOL0     C60228  12.217   2.081   8.190 -0.7296  0.3857 -0.0943
  447MOL0     C60229  12.317   2.019   8.250  0.1741  0.0839 -0.5169
  447MOL0     C60230  12.454   2.074   8.303 -0.1635 -0.1078  0.3700
  447MOL0     C60231  12.441   2.198   8.383 -0.0921  0.5132 -0.9447
  447MOL0     C60232  12.449   2.169   8.539  0.1487  0.0122  0.1861
  447MOL0     C60233  12.415   2.303   8.611  0.6544 -0.1659  0.7691
  447MOL0     O60234  12.508   2.408   8.587 -0.3883  0.2603 -0.6092
  447MOL0     C60235  12.629   2.421   8.653  0.2929  0.6695 -0.6301
  447MOL0     C60236  12.698   2.539   8.638 -0.1427  0.3010  0.0318
  447MOL0     C60237  12.826   2.568   8.697  0.8947  0.1372 -0.7174
  447MOL0     C60238  12.882   2.473   8.792  0.5176  0.2528 -0.2324
  447MOL0     C60239  13.021   2.498   8.848  0.0160 -0.5431 -0.6180
  447MOL0     O60240  13.096   2.602   8.787 -0.4216 -0.1295  0.3225
  447MOL0     C60241  13.229   2.610   8.818 -0.6637  0.1933  1.0537
  447MOL0     C60242  13.330   2.571   8.729  0.6803 -0.5612  0.3566
  447MOL0     C60243  13.460   2.583   8.778  0.9266  0.6249  0.6543
  447MOL0     C60244  13.489   2.638   8.900 -0.0250  0.2494 -0.4418
  447MOL0     O60245  13.618   2.655   8.943 -0.4113 -0.1830  0.5522
  447MOL0     C60246  13.710   2.696   8.841 -0.4488 -0.9852 -0.7756
  447MOL0     C60247  13.821   2.782   8.908  0.0912  0.5206  0.5841
  447MOL0     C60248  13.932   2.821   8.801 -0.0941 -0.5635  0.5739
  447MOL0     C60249  14.067   2.854   8.858  1.1386 -0.9883  0.7131
  447MOL0     C60250  14.149   2.747   8.938 -0.2595  0.7092 -0.1946
  447MOL0     C60251  14.150   2.599   8.871 -0.3742  0.4072  0.2332
  447MOL0     C60252  14.194   2.595   8.721  0.4106 -0.0085 -0.0609
  447MOL0     C60253  14.336   2.647   8.703  0.0201  0.3175 -0.3420
  447MOL0    Cl60254  14.467   2.611   8.822 -0.0159 -0.2041 -0.2737
  447MOL0     C60255  13.379   2.662   8.987 -0.0001 -0.2389  0.0074
  447MOL0     C60256  13.247   2.645   8.941 -0.9492  0.0175 -0.3368
  447MOL0     O60257  13.061   2.423   8.935  0.0718 -0.0969 -0.5179
  447MOL0     C60258  12.808   2.350   8.816 -0.0228 -0.1775  0.5415
  447MOL0     C60259  12.689   2.319   8.740  0.0181 -0.0186 -0.4248
  447MOL0     N60260  12.287   1.885   8.233 -0.7758  0.4258 -0.1647
  447MOL0     N60261  12.172   1.873   8.172  0.2919  0.3196  0.1413
  447MOL0     C60262  11.033   2.188   7.569  0.9910 -0.0177 -0.4431
  447MOL0     C60263  10.893   2.169   7.578 -1.1179 -0.0507 -0.8308
  447MOL0     C60264  10.473   2.081   7.686  0.1478  0.5218 -0.3017
  447MOL0     C60265  10.377   2.180   7.652  0.1906  0.5977 -0.7210
  447MOL0     C60266  10.246   2.137   7.638 -0.0269 -0.5092  1.1155
  447MOL0     C60267  10.204   2.004   7.643 -0.4022  1.1925 -0.3866
  447MOL0     O60268  10.075   1.980   7.612  0.4766  0.2431  0.1511
  447MOL0     C60269  10.021   1.849   7.627 -0.4694  0.4074 -0.4187
  447MOL0     C60270   9.888   1.814   7.561  0.3208  0.8871  0.1273
  447MOL0     C60271   9.786   1.933   7.571 -0.7400 -1.6515 -0.1083
  447MOL0     C60272   9.671   1.915   7.471  0.6630 -0.5941  0.0269
  447MOL0     C60273   9.593   1.795   7.500  1.6447 -0.3393  0.2830
  447MOL0     C60274   9.514   1.703   7.493  0.2365  0.3922  0.2528
  447MOL0     C60275  10.294   1.910   7.692  1.1998 -0.3320  0.2018
  447MOL0     C60276  10.426   1.951   7.711  0.2735 -0.9026 -0.4110
  447MOL0     C60277  10.519   1.852   7.777  0.1376 -0.4605  0.4739
  447MOL0     H60278  10.884   1.924   7.818  0.8334 -0.5638 -0.9879
  447MOL0     H60279  11.126   1.973   7.817 -0.4446 -2.6023 -0.9900
  447MOL0     H60280  11.296   2.187   7.867  0.9296 -0.4774  0.9738
  447MOL0     H60281  11.346   2.040   7.779 -1.8385  0.2207 -1.0101
  447MOL0     H60282  11.450   2.334   7.706 -1.3832  1.1768  1.8046
  447MOL0     H60283  11.514   2.166   7.662  1.0099  1.0296  0.7846
  447MOL0     H60284  11.594   2.133   7.873 -1.6027 -0.6168  0.9862
  447MOL0     H60285  11.526   2.281   7.947  0.5008 -0.8658  0.8367
  447MOL0     H60286  11.733   2.280   7.720 -1.3766  0.7449 -0.4203
  447MOL0     H60287  11.674   2.424   7.801  0.2187 -0.1171 -2.8124
  447MOL0     H60288  11.911   2.335   7.860  0.3756  1.2299  0.8722
  447MOL0     H60289  11.814   2.392   7.991  0.7528  0.1571  0.0700
  447MOL0     H60290  11.741   2.160   8.039  2.1299  0.2214  1.3462
  447MOL0     H60291  11.829   2.104   7.896  3.6992 -2.5136  1.4998
  447MOL0     H60292  11.966   2.227   8.138 -0.7545 -1.0221 -0.2499
  447MOL0     H60293  12.046   2.214   7.982 -1.0379 -1.6522 -2.2334
  447MOL0     H60294  11.911   1.988   8.138  1.2480 -0.0390  1.8474
  447MOL0     H60295  11.994   1.971   7.979 -0.6037 -0.4996  0.3976
  447MOL0     H60296  12.202   2.188   8.199 -2.7631  0.0329  1.6759
  447MOL0     H60297  12.496   1.995   8.366  0.3514 -0.4185 -0.3457
  447MOL0     H60298  12.534   2.074   8.228  0.3417 -2.2758  0.8159
  447MOL0     H60299  12.518   2.274   8.367  0.7261 -0.0751  0.1007
  447MOL0     H60300  12.353   2.253   8.348  0.8031  2.7242  0.1128
  447MOL0     H60301  12.544   2.133   8.578 -1.0163 -1.9614  1.3804
  447MOL0     H60302  12.376   2.092   8.567 -0.6329  0.6895  0.0739
  447MOL0     H60303  12.384   2.295   8.716  2.9539 -1.1970  1.4366
  447MOL0     H60304  12.320   2.325   8.561 -0.7245 -3.3307  1.7021
  447MOL0     H60305  12.648   2.596   8.561 -1.8856 -0.8639  0.2466
  447MOL0     H60306  12.878   2.659   8.669 -0.1364  1.0655  0.2477
  447MOL0     H60307  13.307   2.514   8.639  0.3613  0.3772 -0.1766
  447MOL0     H60308  13.540   2.554   8.711  1.5635  3.1776  0.1986
  447MOL0     H60309  13.760   2.602   8.813  1.6427 -0.2755  0.3799
  447MOL0     H60310  13.665   2.755   8.760  1.7810  1.1124 -0.5972
  447MOL0     H60311  13.784   2.876   8.949  2.6993  2.2458 -0.7169
  447MOL0     H60312  13.854   2.716   8.988  0.1995 -0.7316 -0.4652
  447MOL0     H60313  13.929   2.735   8.733 -1.0252  0.9381 -1.4078
  447MOL0     H60314  13.895   2.907   8.745  0.4295  0.2229  1.3999
  447MOL0     H60315  14.046   2.947   8.912  1.5028 -1.0509  0.9698
  447MOL0     H60316  14.134   2.873   8.773 -0.2779 -0.0860 -0.2575
  447MOL0     H60317  14.103   2.738   9.037  1.8218 -3.5596  0.6165
  447MOL0     H60318  14.254   2.775   8.949  0.1068 -0.0967 -1.3912
  447MOL0     H60319  14.223   2.541   8.928  1.4859  4.5778  2.5414
  447MOL0     H60320  14.059   2.542   8.892  0.8231 -1.7526 -0.0334
  447MOL0     H60321  14.117   2.647   8.663  0.8907 -1.1703 -1.8245
  447MOL0     H60322  14.193   2.491   8.685  0.1260  0.6625 -2.1440
  447MOL0     H60323  14.367   2.621   8.601  0.3227  1.3965 -0.5454
  447MOL0     H60324  14.329   2.756   8.696  1.7628  0.4752  0.0749
  447MOL0     H60325  13.385   2.708   9.085 -1.3021 -1.0198  0.4817
  447MOL0     H60326  13.165   2.656   9.012 -0.4981  2.9168 -0.1482
  447MOL0     H60327  12.827   2.275   8.892 -4.4684 -2.9947 -0.7193
  447MOL0     H60328  12.648   2.219   8.752  0.4909 -0.1651 -0.0182
  447MOL0     H60329  11.074   2.264   7.504  0.3608  0.4727 -0.2830
  447MOL0     H60330  10.819   2.222   7.518 -1.7323  2.1913  1.7262
  447MOL0     H60331  10.390   2.287   7.642 -1.5140  1.0340  1.1577
  447MOL0     H60332  10.165   2.208   7.641  0.6299  0.2011  2.4196
  447MOL0     H60333  10.011   1.836   7.735 -2.2819 -0.0920 -0.6101
  447MOL0     H60334  10.091   1.775   7.586  0.1619  1.1483 -0.6838
  447MOL0     H60335   9.849   1.725   7.611  0.8658 -0.4455 -1.7058
  447MOL0     H60336   9.911   1.782   7.459  1.0100 -5.0586  1.7685
  447MOL0     H60337   9.828   2.030   7.542 -2.0547 -1.0918 -0.2264
  447MOL0     H60338   9.740   1.933   7.670 -0.4512 -0.0520  0.0460
  447MOL0     H60339   9.606   2.002   7.483 -0.2724 -0.4672 -4.4812
  447MOL0     H60340   9.694   1.909   7.364 -1.3752  1.8409 -0.6309
  447MOL0     H60341   9.439   1.627   7.480 -0.3464  0.8296  0.9778
  447MOL0     H60342  10.256   1.814   7.725  0.1302  0.2353  0.6533
  447MOL0     H60343  10.464   1.764   7.810  2.0628 -0.8590  2.9281
  447MOL0     H60344  10.592   1.821   7.701  0.4298  0.0806  0.5326
  447MOL0     H60345  10.556   1.909   7.862 -1.9701 -0.0267  1.1628
  448MOL0     O60346   7.985   5.828   7.200 -0.4424 -0.2624 -0.3054
  448MOL0     C60347   7.989   5.708   7.205 -0.3408  0.4296 -0.5716
  448MOL0     O60348   8.084   5.636   7.261 -0.1003  0.0002 -0.4230
  448MOL0     C60349   8.216   5.666   7.251 -0.1842  0.0100  0.5969
  448MOL0     C60350   8.274   5.783   7.302  0.9768 -0.1508 -0.2173
  448MOL0     C60351   8.410   5.803   7.297  0.0358 -1.2869  0.6178
  448MOL0     C60352   8.492   5.707   7.252 -0.5620 -0.5843 -0.0116
  448MOL0     O60353   8.633   5.730   7.262  0.1300 -0.2344  0.6670
  448MOL0     C60354   8.725   5.628   7.211  0.2971 -0.2176 -0.1098
  448MOL0     C60355   8.761   5.532   7.320  0.7747  0.0975 -0.0444
  448MOL0     C60356   8.861   5.592   7.420 -0.1525 -0.2327 -0.2466
  448MOL0     C60357   9.010   5.599   7.384 -0.3916  0.4506  0.5477
  448MOL0     C60358   9.095   5.635   7.503  0.3145 -0.0152  0.8703
  448MOL0     C60359   9.244   5.612   7.472 -0.1293 -0.0403 -0.1220
  448MOL0     C60360   9.320   5.617   7.612 -0.1655 -0.6030 -0.4356
  448MOL0     C60361   9.465   5.658   7.599 -0.4511  0.5455  0.0320
  448MOL0     N60362   9.508   5.764   7.506 -0.4462 -0.2378  0.1589
  448MOL0     C60363   9.442   5.888   7.493 -0.8186 -0.2175 -0.4491
  448MOL0     C60364   9.460   5.939   7.370  0.5709  0.0213 -1.0020
  448MOL0     C60365   9.410   6.069   7.319  0.6265 -0.7174 -0.6654
  448MOL0     C60366   9.278   6.045   7.246  1.2298 -0.7113 -0.8986
  448MOL0     C60367   9.269   5.937   7.144 -0.1766  0.0272  0.3571
  448MOL0     C60368   9.144   5.955   7.064  0.4431  0.1633 -0.2776
  448MOL0     O60369   9.028   5.931   7.145  0.2773 -0.2892 -0.1581
  448MOL0     C60370   8.909   5.972   7.094  1.0748  0.1635  0.1253
  448MOL0     C60371   8.892   6.048   6.978  0.3019 -0.2100 -0.5051
  448MOL0     C60372   8.765   6.093   6.933 -0.3398  0.3758 -0.0725
  448MOL0     C60373   8.647   6.053   7.006 -0.8142 -0.6151  0.5621
  448MOL0     C60374   8.516   6.091   6.953 -0.5043  0.2458  0.6988
  448MOL0     O60375   8.421   6.097   7.055  0.2230 -0.1042 -0.7738
  448MOL0     C60376   8.292   6.125   7.011 -0.0853  0.3315  0.5910
  448MOL0     C60377   8.278   6.235   6.945  0.1577  0.2283  0.8674
  448MOL0     C60378   8.155   6.277   6.891  0.0938  0.5477 -0.0864
  448MOL0     C60379   8.042   6.204   6.907 -0.0139  0.5278 -0.2126
  448MOL0     O60380   7.910   6.232   6.873  0.5470 -0.4165 -0.2228
  448MOL0     C60381   7.878   6.365   6.835 -0.3282  0.4094 -0.6441
  448MOL0     C60382   7.724   6.395   6.863  0.9185  0.0018 -0.4720
  448MOL0     C60383   7.624   6.311   6.778  0.3742  0.8223 -0.2570
  448MOL0     C60384   7.569   6.191   6.860  0.2737 -0.1915  0.7421
  448MOL0     C60385   7.549   6.064   6.778  0.3822  0.1959 -0.4594
  448MOL0     C60386   7.445   6.088   6.668 -0.4795  0.4409  0.5291
  448MOL0     C60387   7.404   5.955   6.608  0.9906 -0.2304  0.3871
  448MOL0     C60388   7.305   5.985   6.494  0.4902 -0.6226  0.5749
  448MOL0    Cl60389   7.232   5.826   6.461 -0.0372 -0.1026 -0.0478
  448MOL0     C60390   8.051   6.093   6.991 -0.0162  0.6685 -0.7135
  448MOL0     C60391   8.172   6.056   7.043 -0.1575  0.9646  0.6827
  448MOL0     O60392   8.498   6.098   6.831  0.6516 -0.2820 -1.1668
  448MOL0     C60393   8.674   6.005   7.132  0.4528 -0.1971 -0.5321
  448MOL0     C60394   8.801   5.964   7.178  0.4715 -0.1980 -0.3663
  448MOL0     N60395   9.538   5.842   7.306  0.2134 -0.5012  0.4260
  448MOL0     N60396   9.565   5.743   7.381  0.3515  0.4253  0.2984
  448MOL0     C60397   8.434   5.586   7.202  1.0174  0.3516  0.1405
  448MOL0     C60398   8.297   5.567   7.212  0.0650 -0.4800  1.0814
  448MOL0     C60399   7.866   5.640   7.169 -0.1860  0.7222  0.7328
  448MOL0     C60400   7.830   5.522   7.228 -0.3990 -0.9145  0.1223
  448MOL0     C60401   7.713   5.450   7.195  0.1751 -0.3894 -0.0072
  448MOL0     C60402   7.635   5.490   7.087  0.2891 -0.4525 -1.0219
  448MOL0     O60403   7.527   5.420   7.024  0.1592  0.3815  0.0393
  448MOL0     C60404   7.449   5.329   7.103 -0.2087  0.2220  0.4460
  448MOL0     C60405   7.342   5.415   7.183 -0.0642  0.6637 -0.0503
  448MOL0     C60406   7.279   5.351   7.307  0.1547  0.6772  1.1219
  448MOL0     C60407   7.232   5.208   7.278  0.3512  0.1709  0.5284
  448MOL0     C60408   7.139   5.173   7.375 -0.5025 -0.2264  0.7181
  448MOL0     C60409   7.068   5.156   7.469  0.9502  0.7783  0.0537
  448MOL0     C60410   7.664   5.616   7.035 -0.1780  0.3462  0.4534
  448MOL0     C60411   7.778   5.687   7.072  0.2302  0.2827 -0.2027
  448MOL0     C60412   7.785   5.822   7.007 -0.3973 -0.7364 -0.5170
  448MOL0     H60413   8.208   5.857   7.346 -0.9647 -1.4640 -0.7896
  448MOL0     H60414   8.457   5.884   7.352 -0.2747 -0.0195 -0.8773
  448MOL0     H60415   8.670   5.570   7.136  1.8716 -2.3632  0.3094
  448MOL0     H60416   8.815   5.669   7.165  0.3793  1.2936  1.3328
  448MOL0     H60417   8.819   5.452   7.273  3.4779  2.1108 -0.4218
  448MOL0     H60418   8.679   5.491   7.380  0.9966 -0.4807 -0.1331
  448MOL0     H60419   8.857   5.534   7.513  0.9861  0.6000  0.3663
  448MOL0     H60420   8.835   5.694   7.450  2.1019  0.6051 -0.9249
  448MOL0     H60421   9.039   5.499   7.349 -0.4409  1.6863 -3.4950
  448MOL0     H60422   9.030   5.670   7.303  1.1403 -0.2034  0.3055
  448MOL0     H60423   9.075   5.728   7.557  1.3137 -0.9485  2.9907
  448MOL0     H60424   9.080   5.549   7.569  0.6184 -1.6807 -1.1044
  448MOL0     H60425   9.266   5.517   7.423  1.1026  0.5397 -0.7324
  448MOL0     H60426   9.279   5.694   7.410 -2.7136  2.1983  1.1528
  448MOL0     H60427   9.302   5.532   7.679  0.6895  0.8317  1.7173
  448MOL0     H60428   9.281   5.706   7.663 -1.1828 -1.4624  0.3322
  448MOL0     H60429   9.521   5.670   7.693  1.2012 -2.2539 -0.4932
  448MOL0     H60430   9.511   5.568   7.557 -2.9134 -0.8990  0.2463
  448MOL0     H60431   9.375   5.938   7.563 -0.7922 -0.0093 -0.5728
  448MOL0     H60432   9.397   6.137   7.404 -1.4756 -2.7407  0.7431
  448MOL0     H60433   9.481   6.116   7.250 -0.3384  4.0164  1.2027
  448MOL0     H60434   9.202   6.024   7.321  1.0803  1.4103 -0.3956
  448MOL0     H60435   9.248   6.135   7.191  0.4791 -0.7272 -0.5247
  448MOL0     H60436   9.261   5.842   7.198  4.4511 -0.4806  0.4749
  448MOL0     H60437   9.354   5.928   7.077  1.0481  0.6136  1.7807
  448MOL0     H60438   9.156   5.882   6.983 -1.4569  0.3318 -0.7560
  448MOL0     H60439   9.143   6.061   7.034 -1.8288  0.1779 -0.3482
  448MOL0     H60440   8.977   6.056   6.909  0.6566  0.9715  0.0582
  448MOL0     H60441   8.764   6.137   6.834  2.1277 -0.2170 -0.4131
  448MOL0     H60442   8.349   6.317   6.936  1.7838 -0.9334  2.4396
  448MOL0     H60443   8.157   6.378   6.853 -1.1378  1.3415  1.8180
  448MOL0     H60444   7.931   6.436   6.899  0.3398 -0.0469 -0.6849
  448MOL0     H60445   7.912   6.388   6.733  1.9609 -0.9624 -0.2377
  448MOL0     H60446   7.702   6.389   6.970 -4.4537  2.0290 -1.1332
  448MOL0     H60447   7.705   6.499   6.835 -1.0799  0.4289  2.1074
  448MOL0     H60448   7.536   6.369   6.749  1.0109  1.6289 -0.6092
  448MOL0     H60449   7.677   6.275   6.690 -0.0713  0.2479 -0.2942
  448MOL0     H60450   7.471   6.215   6.902  0.0539 -0.4578  0.3784
  448MOL0     H60451   7.646   6.160   6.931  1.1140  0.3565  0.0951
  448MOL0     H60452   7.519   5.984   6.846 -1.2223  0.8374 -0.3541
  448MOL0     H60453   7.636   6.029   6.722 -1.6947 -2.6044 -2.2030
  448MOL0     H60454   7.361   6.148   6.707 -1.0259  0.1133 -0.1199
  448MOL0     H60455   7.494   6.144   6.588 -0.9757  1.0052  0.6100
  448MOL0     H60456   7.346   5.917   6.693  0.6234 -1.3660 -0.3529
  448MOL0     H60457   7.483   5.885   6.580  0.6005 -1.2321  1.7139
  448MOL0     H60458   7.234   6.065   6.516  0.2800 -1.0507  1.5053
  448MOL0     H60459   7.351   6.021   6.401 -1.1050  0.7656  0.2784
  448MOL0     H60460   7.958   6.040   7.014  0.5515 -1.0265 -2.1184
  448MOL0     H60461   8.163   5.974   7.114  0.5652  1.2058  1.0656
  448MOL0     H60462   8.599   5.978   7.206  0.7432 -1.8582 -0.8108
  448MOL0     H60463   8.826   5.934   7.280  0.4237  1.1620  0.0728
  448MOL0     H60464   8.500   5.510   7.163  1.9607  0.7393  0.9318
  448MOL0     H60465   8.243   5.477   7.185 -2.4653  1.0733  0.6351
  448MOL0     H60466   7.895   5.483   7.305 -1.8425 -3.0786  0.3214
  448MOL0     H60467   7.688   5.358   7.246  0.8574 -0.8535 -0.4909
  448MOL0     H60468   7.517   5.274   7.169  1.0569  3.7282  2.3441
  448MOL0     H60469   7.415   5.265   7.022 -0.1554  2.8973 -1.8261
  448MOL0     H60470   7.262   5.452   7.118 -3.9378 -1.4389  3.0689
  448MOL0     H60471   7.387   5.506   7.225  0.3213  0.4068  0.0945
  448MOL0     H60472   7.198   5.406   7.355 -0.6813  0.5053 -0.0379
  448MOL0     H60473   7.358   5.353   7.383 -1.1066  0.1962  2.4844
  448MOL0     H60474   7.197   5.190   7.176  3.1874 -2.9340 -0.0977
  448MOL0     H60475   7.314   5.136   7.285 -1.2989 -1.7636  0.8796
  448MOL0     H60476   7.009   5.142   7.558  1.2138  0.3551  0.1668
  448MOL0     H60477   7.598   5.655   6.958  2.9162  2.8582 -1.1614
  448MOL0     H60478   7.883   5.835   6.961 -1.5744 -1.7351 -3.4808
  448MOL0     H60479   7.718   5.827   6.921  1.0025  1.7619 -1.5507
  448MOL0     H60480   7.770   5.907   7.075  0.5436 -0.2385 -0.9258
  449MOL0     O60481   8.598   7.774   5.395 -0.5548 -0.4188 -0.0599
  449MOL0     C60482   8.623   7.674   5.327  0.5408 -0.3972  0.2710
  449MOL0     O60483   8.734   7.596   5.328 -0.9496  0.2318 -0.1551
  449MOL0     C60484   8.856   7.622   5.402 -0.4427 -0.3115  0.7647
  449MOL0     C60485   8.949   7.520   5.399  0.5326  0.1082 -0.0511
  449MOL0     C60486   9.074   7.536   5.459 -0.6833 -0.1396  0.0305
  449MOL0     C60487   9.100   7.656   5.532 -0.2776  0.3279 -0.7450
  449MOL0     O60488   9.225   7.679   5.594 -0.4273 -0.0293 -0.0941
  449MOL0     C60489   9.279   7.568   5.664  0.0479  0.0593  0.4446
  449MOL0     C60490   9.412   7.614   5.733  0.0232  0.2047  0.2502
  449MOL0     C60491   9.507   7.645   5.616 -0.7760  0.0264 -0.0593
  449MOL0     C60492   9.639   7.703   5.666 -0.4001 -0.1508 -0.5161
  449MOL0     C60493   9.731   7.747   5.554 -0.1955  0.2965  0.3917
  449MOL0     C60494   9.866   7.793   5.618 -0.3191  0.0921  0.0241
  449MOL0     C60495   9.951   7.882   5.522  0.0996  0.9396 -0.4038
  449MOL0     C60496   9.867   7.984   5.449  0.5365  0.4536  0.9748
  449MOL0     N60497   9.942   8.102   5.407 -0.0240  0.6677  0.5040
  449MOL0     C60498  10.076   8.100   5.371  0.9131  0.4319 -0.4926
  449MOL0     C60499  10.100   8.228   5.336 -0.1114 -0.6623 -0.3253
  449MOL0     C60500  10.225   8.280   5.280 -0.5637  0.4653 -0.2809
  449MOL0     C60501  10.337   8.273   5.380  0.7739  0.3572 -0.5103
  449MOL0     C60502  10.458   8.329   5.311 -0.1385 -0.3373  0.2385
  449MOL0     C60503  10.515   8.230   5.210 -0.6487 -0.1229  0.1149
  449MOL0     O60504  10.645   8.190   5.250 -0.5090  0.2362  0.4899
  449MOL0     C60505  10.730   8.142   5.158 -0.6761  1.5825  0.8921
  449MOL0     C60506  10.705   8.140   5.024 -0.1085 -0.1088 -0.2883
  449MOL0     C60507  10.803   8.083   4.944 -0.0349  0.1183 -0.1237
  449MOL0     C60508  10.928   8.044   4.984  0.3490  0.1376  0.2245
  449MOL0     C60509  11.025   8.003   4.884 -1.2877 -0.2076  1.0536
  449MOL0     O60510  11.159   7.988   4.924  0.1258 -0.4014  0.1764
  449MOL0     C60511  11.265   7.946   4.844  0.4208  0.1312  0.3015
  449MOL0     C60512  11.393   7.948   4.895 -0.4683 -0.3840  0.5903
  449MOL0     C60513  11.508   7.917   4.823  0.6663 -0.7105 -0.1325
  449MOL0     C60514  11.497   7.889   4.686 -0.2724  0.3532 -0.2332
  449MOL0     O60515  11.600   7.897   4.598  0.0613  0.0486  0.2901
  449MOL0     C60516  11.727   7.897   4.660 -0.2099  0.1820  0.2231
  449MOL0     C60517  11.837   7.839   4.566  0.2593 -0.7787 -0.2601
  449MOL0     C60518  11.826   7.691   4.561 -0.4009  0.8960 -0.3577
  449MOL0     C60519  11.889   7.617   4.436  0.5434 -0.4867 -0.7640
  449MOL0     C60520  12.040   7.628   4.434 -0.1162 -0.1668  0.5953
  449MOL0     C60521  12.111   7.523   4.519  0.1386 -0.4729 -0.8455
  449MOL0     C60522  12.265   7.537   4.494  0.1913  0.9278  0.6024
  449MOL0     C60523  12.323   7.626   4.602 -0.9221 -0.3499 -0.4857
  449MOL0    Cl60524  12.317   7.806   4.563  0.2965  0.0860  0.3744
  449MOL0     C60525  11.376   7.873   4.634  1.4900  0.4258 -0.8853
  449MOL0     C60526  11.255   7.909   4.708 -0.5541  0.4297  0.2149
  449MOL0     O60527  10.985   7.988   4.769  0.3166  0.1891  0.7045
  449MOL0     C60528  10.953   8.047   5.124 -0.3374 -0.0499 -0.2422
  449MOL0     C60529  10.848   8.085   5.213  0.1513  0.1868  0.9288
  449MOL0     N60530   9.989   8.298   5.347 -0.1850 -0.0818  0.0977
  449MOL0     N60531   9.898   8.227   5.382  0.2022  0.1402 -0.0261
  449MOL0     C60532   9.006   7.758   5.538 -0.7779  0.2477  0.2686
  449MOL0     C60533   8.882   7.743   5.469  0.4694  0.8149 -0.0701
  449MOL0     C60534   8.506   7.621   5.247  0.5500  0.6595 -0.1705
  449MOL0     C60535   8.378   7.632   5.312  0.3171  1.0891  0.5963
  449MOL0     C60536   8.267   7.561   5.255  0.0511 -0.4321 -0.1899
  449MOL0     C60537   8.276   7.481   5.134  0.0168 -0.2127 -1.1716
  449MOL0     O60538   8.163   7.431   5.080  0.0800 -0.2051 -0.0506
  449MOL0     C60539   8.148   7.388   4.940  0.1803 -0.2469  0.5102
  449MOL0     C60540   8.006   7.332   4.925  0.4452  0.6089  0.1702
  449MOL0     C60541   7.968   7.314   4.780 -0.3381 -0.1677 -0.3150
  449MOL0     C60542   7.831   7.243   4.763  0.9994  0.1592  0.2364
  449MOL0     C60543   7.823   7.187   4.631 -0.1085 -0.6572  0.2742
  449MOL0     C60544   7.787   7.129   4.526 -0.2240 -1.7025 -0.3972
  449MOL0     C60545   8.400   7.466   5.080  0.2592 -0.0989 -0.2388
  449MOL0     C60546   8.506   7.541   5.132 -0.3293 -0.1378  0.5356
  449MOL0     C60547   8.626   7.521   5.055 -0.7027 -0.4133 -0.4635
  449MOL0     H60548   8.922   7.434   5.340  0.0567  0.6019 -0.5640
  449MOL0     H60549   9.152   7.461   5.452 -1.1001 -0.6121  0.3764
  449MOL0     H60550   9.202   7.526   5.730  0.2912  1.1090  1.4276
  449MOL0     H60551   9.309   7.491   5.592 -1.5392  0.2430 -0.4739
  449MOL0     H60552   9.442   7.523   5.786  0.6226  0.8825  1.1043
  449MOL0     H60553   9.407   7.693   5.807 -0.5752  1.4914 -1.1106
  449MOL0     H60554   9.466   7.727   5.555 -0.0795 -0.0837 -0.6881
  449MOL0     H60555   9.539   7.559   5.557  3.1111  1.9072 -1.0117
  449MOL0     H60556   9.633   7.795   5.725 -1.2398  1.5347 -3.0597
  449MOL0     H60557   9.695   7.629   5.724 -1.5008  0.7558  1.8814
  449MOL0     H60558   9.752   7.670   5.480 -2.1618  0.5636 -0.5172
  449MOL0     H60559   9.686   7.831   5.501  2.8005  0.9534 -1.3181
  449MOL0     H60560   9.849   7.842   5.715 -4.6766  1.2488 -1.0657
  449MOL0     H60561   9.918   7.700   5.642  0.4769  0.7934  1.0952
  449MOL0     H60562  10.013   7.826   5.453  0.6859  0.9604  0.0996
  449MOL0     H60563  10.023   7.932   5.587  0.0513 -0.8322  1.0798
  449MOL0     H60564   9.821   7.941   5.359 -1.7966  0.6586  2.0073
  449MOL0     H60565   9.792   8.016   5.521 -0.4848 -1.9725  1.0967
  449MOL0     H60566  10.159   8.030   5.373  0.7818  0.2766  0.9380
  449MOL0     H60567  10.245   8.224   5.188 -1.7214  1.2326 -1.0291
  449MOL0     H60568  10.207   8.384   5.252  0.6791  0.7726 -0.0170
  449MOL0     H60569  10.302   8.330   5.467  0.3729 -0.2397 -0.2724
  449MOL0     H60570  10.343   8.169   5.413 -2.5052  0.4040  0.5626
  449MOL0     H60571  10.534   8.345   5.388 -0.8302  1.6893  0.5674
  449MOL0     H60572  10.437   8.429   5.272 -1.2180 -0.5831  0.1677
  449MOL0     H60573  10.517   8.281   5.114 -1.4652  0.4548  0.3923
  449MOL0     H60574  10.456   8.138   5.203  0.8554 -1.1401  0.3484
  449MOL0     H60575  10.616   8.168   4.968 -0.6737 -3.8836 -1.5591
  449MOL0     H60576  10.783   8.081   4.837  1.5729  0.7053 -0.4660
  449MOL0     H60577  11.415   7.973   4.999 -0.4852  0.2183  0.4522
  449MOL0     H60578  11.599   7.924   4.882  0.5146 -2.8173  0.4110
  449MOL0     H60579  11.768   7.994   4.691  1.8206 -1.2734  2.4165
  449MOL0     H60580  11.733   7.834   4.749 -1.3395  0.2583  0.3680
  449MOL0     H60581  11.835   7.879   4.464 -1.4461  0.6809  0.3078
  449MOL0     H60582  11.932   7.855   4.618 -0.9761 -1.2128  2.2864
  449MOL0     H60583  11.870   7.647   4.651 -2.7105  2.8781  1.9038
  449MOL0     H60584  11.723   7.656   4.564 -0.2118  0.3614  0.0812
  449MOL0     H60585  11.855   7.672   4.347 -0.0978 -0.6952 -0.6540
  449MOL0     H60586  11.855   7.514   4.426  2.8104 -1.4839  1.0331
  449MOL0     H60587  12.073   7.728   4.461 -0.6244 -0.0127  0.6409
  449MOL0     H60588  12.074   7.602   4.333 -3.9795  2.3370 -1.5807
  449MOL0     H60589  12.089   7.531   4.626 -1.5000 -1.3548 -1.0931
  449MOL0     H60590  12.069   7.425   4.493  0.4467 -0.1612 -2.6375
  449MOL0     H60591  12.302   7.580   4.401 -3.0184 -1.6239 -2.0982
  449MOL0     H60592  12.310   7.439   4.509 -1.0635  0.1627 -0.4032
  449MOL0     H60593  12.280   7.606   4.701 -0.3864 -0.1192 -0.2055
  449MOL0     H60594  12.428   7.595   4.605 -0.5477  0.8983 -0.0244
  449MOL0     H60595  11.357   7.850   4.529  1.0530  2.1689 -1.2196
  449MOL0     H60596  11.159   7.912   4.657 -1.0223  2.4180  1.0981
  449MOL0     H60597  11.048   8.022   5.168 -2.1397 -1.9282  2.9216
  449MOL0     H60598  10.871   8.086   5.319 -0.6250  1.6330  1.1164
  449MOL0     H60599   9.019   7.848   5.596  1.5958 -1.7644  3.1209
  449MOL0     H60600   8.812   7.826   5.461 -0.9181 -0.1480  1.3489
  449MOL0     H60601   8.372   7.668   5.414  2.7657 -0.6701  1.4419
  449MOL0     H60602   8.172   7.567   5.308 -1.0298 -3.4616 -1.5597
  449MOL0     H60603   8.225   7.314   4.917  1.8025  1.3062  0.6981
  449MOL0     H60604   8.152   7.472   4.869 -0.1557 -0.1377  0.6210
  449MOL0     H60605   7.927   7.395   4.967 -2.1317 -2.6248  0.6390
  449MOL0     H60606   7.999   7.236   4.976 -2.4828  0.4591 -0.3292
  449MOL0     H60607   8.043   7.257   4.726 -0.7325 -1.2173  0.2047
  449MOL0     H60608   7.962   7.415   4.739  0.7464  0.1812  0.3599
  449MOL0     H60609   7.815   7.165   4.838 -0.5949 -0.6557 -0.8937
  449MOL0     H60610   7.752   7.318   4.771  2.8153  2.3727 -1.1224
  449MOL0     H60611   7.760   7.106   4.425 -3.6218 -3.3953  0.7441
  449MOL0     H60612   8.404   7.397   4.997 -2.6699 -1.8138  0.8996
  449MOL0     H60613   8.695   7.600   5.086  0.9339 -1.7046 -0.6235
  449MOL0     H60614   8.681   7.426   5.056 -1.6751 -1.0107 -1.4174
  449MOL0     H60615   8.605   7.537   4.949 -1.1456  0.6143 -0.2358
  450MOL0     O60616   9.556   4.788  10.115 -0.0640  0.4294 -0.6092
  450MOL0     C60617   9.640   4.806  10.028  0.3115 -0.7639  0.4265
  450MOL0     O60618   9.666   4.727   9.922 -0.0331  0.3446 -0.0463
  450MOL0     C60619   9.650   4.595   9.923  0.6199  0.0052  0.1122
  450MOL0     C60620   9.741   4.509   9.865  0.2518 -0.8516 -0.0993
  450MOL0     C60621   9.714   4.377   9.848 -0.9374 -0.6067 -0.5893
  450MOL0     C60622   9.599   4.322   9.912  0.3237  0.5244 -1.2766
  450MOL0     O60623   9.559   4.189   9.916 -0.4654  0.0861 -0.3164
  450MOL0     C60624   9.644   4.090   9.852  0.2452 -0.8927 -0.1530
  450MOL0     C60625   9.578   3.955   9.869  0.7896  0.1104 -0.3158
  450MOL0     C60626   9.650   3.834   9.803 -0.3855  0.0777 -0.2906
  450MOL0     C60627   9.589   3.703   9.848 -0.4238 -0.0375 -0.2119
  450MOL0     C60628   9.676   3.582   9.814 -0.4206 -1.0280 -0.8093
  450MOL0     C60629   9.600   3.461   9.834  0.4594  0.7187 -0.3466
  450MOL0     C60630   9.604   3.414   9.988  0.5059  0.3350 -0.3280
  450MOL0     C60631   9.512   3.295  10.019  0.6628 -0.6911 -0.5254
  450MOL0     N60632   9.555   3.164   9.962 -0.3141 -0.2422  0.2561
  450MOL0     C60633   9.681   3.122   9.917 -0.2775  0.1153  0.2930
  450MOL0     C60634   9.653   3.007   9.847  0.1100  0.6797 -0.1064
  450MOL0     C60635   9.751   2.921   9.768 -0.4155 -0.2016  0.4258
  450MOL0     C60636   9.817   3.008   9.657 -0.7961 -0.4308 -0.2144
  450MOL0     C60637   9.866   2.927   9.538 -0.4153 -0.0199  0.0601
  450MOL0     C60638   9.984   2.843   9.576  0.0408 -0.1093  0.8687
  450MOL0     O60639  10.031   2.775   9.459  0.5960 -0.4011 -0.6818
  450MOL0     C60640  10.155   2.801   9.436 -0.0983  0.1401 -0.1660
  450MOL0     C60641  10.194   2.842   9.306 -0.3131 -0.6995 -0.3716
  450MOL0     C60642  10.326   2.834   9.261 -0.6062  0.3953 -0.6679
  450MOL0     C60643  10.423   2.787   9.352  0.0711 -1.0786  0.0429
  450MOL0     C60644  10.562   2.796   9.311 -0.0525 -0.1466 -0.2866
  450MOL0     O60645  10.653   2.782   9.410 -0.4454  0.3786  0.0666
  450MOL0     C60646  10.784   2.791   9.379  0.4996 -0.6485  0.1541
  450MOL0     C60647  10.871   2.682   9.351  0.3193 -0.9784  0.1271
  450MOL0     C60648  11.003   2.710   9.316  0.4475  0.6912 -0.2495
  450MOL0     C60649  11.056   2.836   9.322  0.8771  0.4988  0.5962
  450MOL0     O60650  11.187   2.870   9.278  0.0908  0.1643  0.4887
  450MOL0     C60651  11.287   2.772   9.319  0.4759  0.2278 -0.4157
  450MOL0     C60652  11.426   2.820   9.286 -0.2031  0.1889 -0.3498
  450MOL0     C60653  11.530   2.774   9.388 -0.6332  0.1752  0.3005
  450MOL0     C60654  11.666   2.845   9.375  0.0175 -0.1892 -0.7133
  450MOL0     C60655  11.766   2.776   9.464 -0.1247 -0.0960  0.5852
  450MOL0     C60656  11.719   2.788   9.615  0.5193  0.0998  0.2339
  450MOL0     C60657  11.841   2.751   9.705 -0.2712  0.2325  0.5137
  450MOL0     C60658  11.806   2.784   9.849  0.2501 -0.2386  0.2613
  450MOL0    Cl60659  11.827   2.964   9.864 -0.0823  0.2405 -0.1606
  450MOL0     C60660  10.963   2.944   9.345 -0.2166  0.5292  1.7736
  450MOL0     C60661  10.830   2.920   9.362 -0.2300 -0.4393  0.0839
  450MOL0     O60662  10.588   2.846   9.202  0.4732  0.2801  1.5744
  450MOL0     C60663  10.390   2.751   9.487 -0.7726  0.1946  0.2230
  450MOL0     C60664  10.260   2.755   9.526 -0.1973  0.2406  0.0812
  450MOL0     N60665   9.515   2.974   9.864  0.1008 -0.4242  0.3598
  450MOL0     N60666   9.462   3.072   9.932 -0.2227  0.0322 -0.8370
  450MOL0     C60667   9.520   4.401   9.995  0.3973 -0.5362  0.8800
  450MOL0     C60668   9.544   4.535   9.994 -0.1069  0.0533  0.3119
  450MOL0     C60669   9.710   4.941  10.024  0.1944 -0.4986 -0.5402
  450MOL0     C60670   9.732   4.993   9.896 -0.5225  0.7179  1.3728
  450MOL0     C60671   9.795   5.118   9.867 -0.1468  0.9989  0.5575
  450MOL0     C60672   9.829   5.201   9.973  1.2280 -0.2273 -0.0614
  450MOL0     O60673   9.862   5.328   9.939  1.2429  0.2628 -0.0651
  450MOL0     C60674   9.885   5.434  10.038 -0.2187 -0.0587  0.2213
  450MOL0     C60675   9.765   5.509  10.093  0.1684 -0.0164  0.5203
  450MOL0     C60676   9.701   5.583   9.982 -0.3106 -0.1427  0.5382
  450MOL0     C60677   9.601   5.694  10.022 -0.3746 -0.2356 -0.6136
  450MOL0     C60678   9.669   5.806  10.093  0.2143  0.3329 -0.2166
  450MOL0     C60679   9.737   5.885  10.152  0.4883  0.7495  0.1457
  450MOL0     C60680   9.800   5.149  10.105 -0.3512 -1.1093  0.0615
  450MOL0     C60681   9.747   5.024  10.133  0.0998  0.3238 -0.0300
  450MOL0     C60682   9.727   4.983  10.276 -0.2541 -0.2059  0.3401
  450MOL0     H60683   9.828   4.564   9.829 -0.5977  3.5597  3.5826
  450MOL0     H60684   9.781   4.321   9.783 -0.0601 -1.3293  0.8839
  450MOL0     H60685   9.661   4.129   9.752  2.3539  1.2115  0.9331
  450MOL0     H60686   9.740   4.090   9.904  1.6971  0.1102 -2.6860
  450MOL0     H60687   9.473   3.960   9.836  0.4803  3.2257  0.8106
  450MOL0     H60688   9.576   3.933   9.976 -0.7423 -0.3819 -0.4165
  450MOL0     H60689   9.752   3.823   9.839 -0.5320 -2.7210 -0.5525
  450MOL0     H60690   9.657   3.847   9.694  0.9642 -1.9129 -0.4942
  450MOL0     H60691   9.569   3.714   9.955  0.9926 -1.2323  0.2209
  450MOL0     H60692   9.491   3.694   9.800 -1.2208 -0.2565  1.3808
  450MOL0     H60693   9.718   3.577   9.714 -0.2678 -1.2656 -0.7339
  450MOL0     H60694   9.765   3.588   9.876 -0.5154  0.5278 -0.7880
  450MOL0     H60695   9.494   3.475   9.809  0.3140 -1.1803 -0.9705
  450MOL0     H60696   9.632   3.373   9.778 -2.7760 -1.4926  0.9364
  450MOL0     H60697   9.578   3.494  10.057  2.7145 -0.5781  1.7114
  450MOL0     H60698   9.706   3.382  10.011  0.5804 -0.1277 -1.2321
  450MOL0     H60699   9.517   3.292  10.128 -0.1851 -0.0450 -0.4651
  450MOL0     H60700   9.406   3.309   9.997  0.5164 -3.0100 -1.6066
  450MOL0     H60701   9.778   3.169   9.923  0.4304 -1.3530  0.9751
  450MOL0     H60702   9.828   2.885   9.837 -0.3561  1.2012  1.1383
  450MOL0     H60703   9.696   2.843   9.714 -2.9700 -1.3426  4.2618
  450MOL0     H60704   9.742   3.070   9.607 -0.6947 -0.0848  0.0611
  450MOL0     H60705   9.887   3.081   9.699 -4.1053  2.7779  0.2715
  450MOL0     H60706   9.905   2.984   9.454 -1.7759  1.7639  0.5728
  450MOL0     H60707   9.787   2.869   9.489  0.8952 -2.4855  0.6679
  450MOL0     H60708   9.948   2.779   9.658 -0.3262  0.4396  1.1427
  450MOL0     H60709  10.058   2.901   9.631 -0.8207  2.5157 -0.5985
  450MOL0     H60710  10.109   2.851   9.240  0.0710 -1.0294 -0.9175
  450MOL0     H60711  10.351   2.869   9.162  1.0251  3.2913  0.6388
  450MOL0     H60712  10.837   2.580   9.360 -1.4518 -0.2352  2.8448
  450MOL0     H60713  11.064   2.630   9.276  0.8110  0.6801  0.3207
  450MOL0     H60714  11.263   2.763   9.425 -0.2566  1.7283 -0.4296
  450MOL0     H60715  11.269   2.675   9.271 -1.7999  0.6286 -0.4976
  450MOL0     H60716  11.455   2.767   9.195  1.0253 -2.2581  1.3657
  450MOL0     H60717  11.437   2.928   9.276  0.5254  0.0446 -1.3091
  450MOL0     H60718  11.478   2.805   9.479 -1.6946  1.4134 -0.6848
  450MOL0     H60719  11.534   2.665   9.386 -5.6548 -0.2519 -1.2741
  450MOL0     H60720  11.666   2.950   9.404 -0.1492 -0.2431 -0.5056
  450MOL0     H60721  11.697   2.826   9.272  1.0807 -1.5683 -0.1646
  450MOL0     H60722  11.866   2.818   9.450  0.2935 -1.7716 -2.0084
  450MOL0     H60723  11.766   2.669   9.444 -0.7755 -0.4438  2.2501
  450MOL0     H60724  11.689   2.893   9.621  4.4029  1.3586  0.3780
  450MOL0     H60725  11.630   2.733   9.646 -1.6836  3.6611  0.8785
  450MOL0     H60726  11.934   2.795   9.667 -0.1038  0.9452  1.6943
  450MOL0     H60727  11.853   2.643   9.695  1.5190  0.5561 -1.4952
  450MOL0     H60728  11.704   2.751   9.868  0.0896 -2.1548 -3.2205
  450MOL0     H60729  11.876   2.738   9.919 -0.2018 -1.7442 -0.2483
  450MOL0     H60730  11.014   3.039   9.340  2.0394 -0.6050  1.5432
  450MOL0     H60731  10.761   3.002   9.381  1.9311  2.1189 -2.2638
  450MOL0     H60732  10.461   2.711   9.559  0.8705 -0.2664 -1.5461
  450MOL0     H60733  10.233   2.713   9.622 -1.8289  0.4316 -0.2629
  450MOL0     H60734   9.437   4.355  10.048 -1.4721 -0.3112 -1.6345
  450MOL0     H60735   9.477   4.594  10.055  1.9355  3.3737 -0.3510
  450MOL0     H60736   9.698   4.939   9.808  1.3231  0.1286  0.9729
  450MOL0     H60737   9.803   5.152   9.764  0.6662  4.6621  1.6618
  450MOL0     H60738   9.957   5.501   9.990  0.4937  0.5013  1.9557
  450MOL0     H60739   9.936   5.403  10.130  1.0807  2.3783  0.4107
  450MOL0     H60740   9.810   5.566  10.176  2.2592 -1.4446  0.4440
  450MOL0     H60741   9.693   5.443  10.142  0.8060 -1.0248  0.1116
  450MOL0     H60742   9.641   5.511   9.925  2.1784 -0.2768 -2.1118
  450MOL0     H60743   9.770   5.630   9.911 -0.2093 -0.4244  0.4482
  450MOL0     H60744   9.558   5.734   9.930  0.2319 -0.6087 -1.0657
  450MOL0     H60745   9.523   5.647  10.082 -0.0695 -1.7438 -1.3507
  450MOL0     H60746   9.797   5.965  10.191 -0.9534  0.9432  2.1309
  450MOL0     H60747   9.822   5.223  10.181 -1.5436  1.0318 -1.5389
  450MOL0     H60748   9.781   4.896  10.314  0.2427  0.4546  1.1829
  450MOL0     H60749   9.763   5.069  10.334  0.1530  0.1923 -0.4886
  450MOL0     H60750   9.624   4.959  10.303 -0.5545 -2.5190 -2.4549
  451MOL0     O60751   0.659  10.443   8.994  0.2564  0.1967  0.1218
  451MOL0     C60752   0.669  10.332   9.043  0.1905 -0.3217 -0.2580
  451MOL0     O60753   0.761  10.236   9.001 -0.6857 -0.1486  0.6338
  451MOL0     C60754   0.845  10.270   8.898  0.1158 -0.5729 -1.4194
  451MOL0     C60755   0.968  10.321   8.945  0.4043 -0.2801  0.4894
  451MOL0     C60756   1.057  10.362   8.847 -0.0025 -0.8503 -0.0229
  451MOL0     C60757   1.015  10.374   8.713 -1.1405 -0.4427 -0.0961
  451MOL0     O60758   1.087  10.440   8.618 -0.0216  0.0070  0.4330
  451MOL0     C60759   1.224  10.461   8.655 -0.8785 -0.0271 -0.6532
  451MOL0     C60760   1.307  10.506   8.529  0.2815  0.7714 -0.7191
  451MOL0     C60761   1.342  10.376   8.451  0.2348 -0.2491 -0.5220
  451MOL0     C60762   1.468  10.400   8.359 -0.4735  0.8038  0.5238
  451MOL0     C60763   1.602  10.373   8.431  0.2063  0.7249 -0.0966
  451MOL0     C60764   1.643  10.223   8.432  0.2808 -0.2046 -0.7936
  451MOL0     C60765   1.781  10.199   8.491  0.8661 -0.9112 -0.7672
  451MOL0     C60766   1.881  10.222   8.381 -1.2059 -0.0301  0.2420
  451MOL0     N60767   2.017  10.184   8.433  0.3103 -0.5060 -0.1206
  451MOL0     C60768   2.070  10.060   8.459  0.4368 -0.1104 -0.0926
  451MOL0     C60769   2.192  10.073   8.511 -0.0182 -0.5671  0.2307
  451MOL0     C60770   2.297   9.976   8.545  0.0563  0.2663 -0.8981
  451MOL0     C60771   2.414   9.989   8.456  0.3243 -0.4394  0.1028
  451MOL0     C60772   2.527   9.894   8.510  0.5721  0.9397  0.3688
  451MOL0     C60773   2.662   9.916   8.442  0.1753  0.2590 -0.6310
  451MOL0     O60774   2.739  10.025   8.506 -0.2210 -0.7026 -0.3878
  451MOL0     C60775   2.871  10.046   8.476  0.8727  0.2364  0.1703
  451MOL0     C60776   2.925  10.159   8.532 -0.6676 -0.7028  0.2086
  451MOL0     C60777   3.058  10.194   8.503 -0.9409 -0.2977 -1.2136
  451MOL0     C60778   3.135  10.115   8.419  0.2173 -0.3517 -0.1094
  451MOL0     C60779   3.274  10.148   8.371 -0.1915 -0.2967  0.2928
  451MOL0     O60780   3.345  10.048   8.311  0.1151  0.1315  0.0319
  451MOL0     C60781   3.460  10.076   8.243  0.1647 -0.8940  0.4957
  451MOL0     C60782   3.478  10.006   8.125  0.4638 -0.3863 -0.4543
  451MOL0     C60783   3.588  10.045   8.040  0.0358 -0.2338 -0.5359
  451MOL0     C60784   3.680  10.142   8.083 -0.5402 -0.0226 -0.7572
  451MOL0     O60785   3.792  10.175   8.004  0.0716  0.4319  0.0409
  451MOL0     C60786   3.824  10.094   7.895  0.4664 -0.2508 -0.1319
  451MOL0     C60787   3.963  10.122   7.853  0.3817  0.0031 -0.4818
  451MOL0     C60788   4.055  10.026   7.930 -0.2535  0.3755 -0.7659
  451MOL0     C60789   4.195  10.078   7.896 -0.5373 -0.1771 -0.0376
  451MOL0     C60790   4.319   9.995   7.952  0.6808 -0.4107 -0.1931
  451MOL0     C60791   4.456  10.061   7.920 -0.0671 -0.4144 -0.7076
  451MOL0     C60792   4.481  10.112   7.776 -0.2455  0.8164 -0.3170
  451MOL0     C60793   4.617  10.179   7.752  0.3672 -0.8016 -0.2575
  451MOL0    Cl60794   4.692  10.125   7.591  0.2653 -0.0762  0.1287
  451MOL0     C60795   3.665  10.209   8.209 -0.2357  0.2994 -0.0899
  451MOL0     C60796   3.553  10.169   8.281  0.0988 -0.8804  0.1675
  451MOL0     O60797   3.306  10.265   8.371 -0.3616 -0.6709 -0.0630
  451MOL0     C60798   3.081   9.989   8.384  0.5505 -0.6733  1.0639
  451MOL0     C60799   2.947   9.954   8.401 -0.3600 -0.2587  0.4313
  451MOL0     N60800   2.215  10.214   8.529 -0.6690  0.4543  0.3381
  451MOL0     N60801   2.105  10.276   8.487 -0.2442  0.4609 -0.6300
  451MOL0     C60802   0.893  10.326   8.675 -0.3847 -0.7032  0.3901
  451MOL0     C60803   0.805  10.268   8.766 -0.2583 -0.0759 -0.5108
  451MOL0     C60804   0.578  10.300   9.161  0.6026 -0.0394  0.4876
  451MOL0     C60805   0.639  10.249   9.274  0.6520  0.7776  0.2551
  451MOL0     C60806   0.559  10.235   9.386 -0.0611 -0.6102 -0.4075
  451MOL0     C60807   0.432  10.278   9.402  0.0853 -0.1230  0.7239
  451MOL0     O60808   0.372  10.245   9.522  0.3817  0.5271  0.1007
  451MOL0     C60809   0.226  10.250   9.537 -0.0755 -0.8556  0.3060
  451MOL0     C60810   0.211  10.214   9.681 -0.1137  1.5011  0.2795
  451MOL0     C60811   0.083  10.141   9.694  0.8129 -0.3535  0.3722
  451MOL0     C60812   0.063  10.075   9.824  0.1317 -0.1320 -1.7834
  451MOL0     C60813  -0.051   9.990   9.821  0.5590 -0.0348 -0.0386
  451MOL0     C60814  -0.155   9.917   9.811 -0.1944 -0.6446  0.0951
  451MOL0     C60815   0.367  10.333   9.294 -0.0544  0.7062 -0.2193
  451MOL0     C60816   0.436  10.338   9.168  0.8591 -0.2350  0.3132
  451MOL0     C60817   0.357  10.377   9.050 -0.9946 -0.0006  0.1853
  451MOL0     H60818   0.981  10.337   9.052  1.9392  0.2780  0.2522
  451MOL0     H60819   1.152  10.391   8.892 -0.0194 -2.7732  1.3801
  451MOL0     H60820   1.238  10.542   8.727  2.3475 -0.5001 -0.6122
  451MOL0     H60821   1.263  10.366   8.694  2.2500  0.9620 -1.1035
  451MOL0     H60822   1.409  10.541   8.550  1.7219 -1.7749 -2.7205
  451MOL0     H60823   1.256  10.583   8.471  1.4045  1.7547 -0.4412
  451MOL0     H60824   1.253  10.358   8.390 -0.0015  0.3076 -0.3505
  451MOL0     H60825   1.354  10.293   8.520 -0.5913 -0.1399 -0.2379
  451MOL0     H60826   1.465  10.327   8.277 -1.4633  0.9881  0.3895
  451MOL0     H60827   1.466  10.501   8.318  0.4869 -0.0133 -1.7413
  451MOL0     H60828   1.687  10.425   8.387  1.6485 -1.5522 -0.1464
  451MOL0     H60829   1.594  10.408   8.535 -3.1247 -0.1817  0.0716
  451MOL0     H60830   1.564  10.171   8.487 -0.0499  1.0036 -0.0988
  451MOL0     H60831   1.637  10.181   8.331  0.5142 -2.4700  0.0689
  451MOL0     H60832   1.793  10.104   8.543  2.1449 -0.0154  0.6799
  451MOL0     H60833   1.783  10.266   8.578 -0.1021  0.6320 -1.8656
  451MOL0     H60834   1.838  10.162   8.300 -4.4181 -0.9667  2.4118
  451MOL0     H60835   1.886  10.324   8.343 -1.0007 -0.1558 -0.0762
  451MOL0     H60836   2.026   9.965   8.431 -2.6453  2.0251 -3.3061
  451MOL0     H60837   2.328  10.012   8.643 -2.8421 -1.7817  0.9029
  451MOL0     H60838   2.249   9.878   8.550  0.2278  0.1751 -0.9858
  451MOL0     H60839   2.370   9.975   8.357 -3.4194  1.3304  1.3188
  451MOL0     H60840   2.460  10.089   8.451  2.2492 -1.3116 -3.8477
  451MOL0     H60841   2.503   9.790   8.486  1.8653  0.2940  1.7410
  451MOL0     H60842   2.532   9.908   8.618 -0.7897  1.6366  0.3701
  451MOL0     H60843   2.645   9.946   8.338  1.9352 -2.1455 -1.7135
  451MOL0     H60844   2.725   9.827   8.428  0.5511  0.9111 -3.7830
  451MOL0     H60845   2.867  10.226   8.595  1.2710 -1.7376  3.3448
  451MOL0     H60846   3.105  10.288   8.528 -1.3561 -0.3931 -0.0362
  451MOL0     H60847   3.397   9.942   8.092 -0.8537  0.5661  0.7895
  451MOL0     H60848   3.603  10.007   7.940  2.4236  1.8700 -1.0831
  451MOL0     H60849   3.813   9.988   7.920 -1.1969 -0.7136 -2.4967
  451MOL0     H60850   3.753  10.115   7.814 -0.6247  0.2501  0.9128
  451MOL0     H60851   3.972  10.111   7.745 -0.9549  2.2235 -0.8967
  451MOL0     H60852   3.985  10.228   7.870  0.8130  0.1281 -1.7215
  451MOL0     H60853   4.026  10.024   8.035  0.0542 -1.7151 -0.6897
  451MOL0     H60854   4.043   9.921   7.901  1.8103 -0.2476  0.4278
  451MOL0     H60855   4.203  10.181   7.932  1.8436 -0.5217  0.5615
  451MOL0     H60856   4.207  10.084   7.787  0.5953 -0.1729  0.0790
  451MOL0     H60857   4.317   9.890   7.920 -0.0923 -0.8939  1.3776
  451MOL0     H60858   4.305   9.992   8.060 -1.6981 -3.1873 -0.4550
  451MOL0     H60859   4.460  10.148   7.986  1.9541  0.1896 -1.5447
  451MOL0     H60860   4.522   9.982   7.957 -1.2968 -1.0728  0.1698
  451MOL0     H60861   4.396  10.179   7.760 -0.3982  0.0968 -2.9561
  451MOL0     H60862   4.478  10.033   7.701  0.3462  0.1499  0.3456
  451MOL0     H60863   4.600  10.287   7.750 -0.9448 -0.9822 -0.1526
  451MOL0     H60864   4.670  10.155   7.845 -1.7858 -1.4403  0.8843
  451MOL0     H60865   3.733  10.287   8.240 -0.9215  0.6965  0.4367
  451MOL0     H60866   3.550  10.217   8.379  0.7179  0.5077 -0.4590
  451MOL0     H60867   3.145   9.922   8.328 -0.0300  1.2856 -2.2585
  451MOL0     H60868   2.930   9.847   8.395  2.9810 -1.0242  2.0813
  451MOL0     H60869   0.863  10.331   8.571 -1.5284  0.7376  0.7587
  451MOL0     H60870   0.707  10.225   8.749 -0.5440  0.2427  0.2813
  451MOL0     H60871   0.737  10.202   9.278 -0.2338 -1.1160  1.0262
  451MOL0     H60872   0.599  10.193   9.478 -1.1360 -0.9971 -0.0905
  451MOL0     H60873   0.186  10.181   9.462  2.0436 -0.2618 -1.5041
  451MOL0     H60874   0.188  10.352   9.520  1.6366 -0.4736 -1.6132
  451MOL0     H60875   0.233  10.292   9.755  1.7661 -2.0268  3.8259
  451MOL0     H60876   0.284  10.133   9.692 -0.6949  0.6238 -1.8305
  451MOL0     H60877   0.070  10.064   9.618 -3.5149 -0.6308  1.1015
  451MOL0     H60878   0.002  10.213   9.679  3.1166  2.2655 -0.1743
  451MOL0     H60879   0.152  10.015   9.843  1.4635  1.9990 -0.9122
  451MOL0     H60880   0.054  10.149   9.904 -1.6753 -2.8883  0.8160
  451MOL0     H60881  -0.232   9.848   9.785 -0.2882 -0.4916 -0.0296
  451MOL0     H60882   0.266  10.371   9.300 -1.2157 -2.3248  1.0887
  451MOL0     H60883   0.373  10.298   8.977 -0.1224 -0.5828  0.9818
  451MOL0     H60884   0.250  10.376   9.074 -0.9496  1.0969  0.4815
  451MOL0     H60885   0.380  10.481   9.023 -3.1408  1.2624  2.7686
  452MOL0     O60886   3.169   7.570   0.985  0.1675 -0.3469  0.5957
  452MOL0     C60887   3.057   7.597   0.939 -0.5775  0.1833 -0.1989
  452MOL0     O60888   3.036   7.668   0.828 -0.0075  0.1534 -0.1016
  452MOL0     C60889   3.136   7.718   0.752  0.2799 -0.3707  0.1958
  452MOL0     C60890   3.261   7.659   0.721  0.5450  0.5254 -0.0272
  452MOL0     C60891   3.355   7.736   0.656  0.0201 -0.6438 -1.1281
  452MOL0     C60892   3.329   7.871   0.612  0.8541  0.1758 -0.1347
  452MOL0     O60893   3.438   7.948   0.570 -0.2972 -0.3279  0.7609
  452MOL0     C60894   3.413   8.022   0.451  0.3557 -0.3517  0.4958
  452MOL0     C60895   3.535   8.029   0.355 -0.1048  0.0190  0.4819
  452MOL0     C60896   3.671   8.043   0.426 -0.2952  0.5335 -0.0342
  452MOL0     C60897   3.783   7.995   0.336  0.5288  0.2347 -0.1250
  452MOL0     C60898   3.806   8.100   0.229 -0.1660  0.0678  0.2142
  452MOL0     C60899   3.934   8.049   0.142  0.9656  0.5649 -0.7026
  452MOL0     C60900   4.000   8.169   0.084 -0.2454  0.7673  0.2254
  452MOL0     C60901   4.117   8.155  -0.017  0.1037  0.2330 -0.0928
  452MOL0     N60902   4.235   8.081   0.024  0.1767  0.7811 -0.5702
  452MOL0     C60903   4.275   7.963  -0.031  0.5776  0.0059 -0.1428
  452MOL0     C60904   4.387   7.932   0.040 -0.3259  0.6157  0.3910
  452MOL0     C60905   4.472   7.802   0.026  0.3268 -0.5119 -0.4075
  452MOL0     C60906   4.534   7.798  -0.121 -0.1697 -0.8022 -0.1756
  452MOL0     C60907   4.642   7.691  -0.128  0.6994  1.4136  0.5909
  452MOL0     C60908   4.723   7.709  -0.258  0.2001  0.0569 -0.1868
  452MOL0     O60909   4.813   7.604  -0.250 -1.0786 -0.3211 -0.1782
  452MOL0     C60910   4.891   7.571  -0.361 -0.2177 -0.7676  0.6206
  452MOL0     C60911   4.885   7.644  -0.482 -0.0998 -0.5722 -0.6502
  452MOL0     C60912   4.960   7.598  -0.590  0.3718  0.2529 -0.1958
  452MOL0     C60913   5.031   7.481  -0.585 -0.0341  0.5364 -0.4932
  452MOL0     C60914   5.086   7.429  -0.715  0.1928  0.7962 -0.5945
  452MOL0     O60915   5.056   7.499  -0.827  0.1005  0.3739 -0.2918
  452MOL0     C60916   5.119   7.455  -0.939  0.0928 -0.1457  0.9639
  452MOL0     C60917   5.035   7.420  -1.047 -0.7075 -0.0834  0.0319
  452MOL0     C60918   5.091   7.380  -1.166  0.2036  0.3801  0.5577
  452MOL0     C60919   5.234   7.361  -1.177 -0.1824  0.8696  0.1340
  452MOL0     O60920   5.291   7.303  -1.285  0.0198 -0.2102 -0.0145
  452MOL0     C60921   5.226   7.291  -1.411 -0.6569  0.7722 -0.1831
  452MOL0     C60922   5.331   7.241  -1.519 -0.0207 -0.2075  0.7146
  452MOL0     C60923   5.423   7.357  -1.574  0.9353  0.4190 -0.0217
  452MOL0     C60924   5.551   7.357  -1.497  0.6042 -0.2233  0.8819
  452MOL0     C60925   5.658   7.441  -1.558 -0.1417  0.0221  0.6266
  452MOL0     C60926   5.718   7.368  -1.676 -0.4048  0.2561 -0.3322
  452MOL0     C60927   5.851   7.421  -1.726 -0.0813  0.6260  0.0035
  452MOL0     C60928   5.917   7.326  -1.823  0.2896  0.1520  0.0631
  452MOL0    Cl60929   6.096   7.366  -1.809 -0.6858 -0.6183 -0.2299
  452MOL0     C60930   5.318   7.401  -1.073 -0.3520 -0.6707 -0.0404
  452MOL0     C60931   5.255   7.445  -0.954 -0.2064 -1.1490 -0.2887
  452MOL0     O60932   5.149   7.326  -0.716  0.2726 -0.0835 -0.7820
  452MOL0     C60933   5.036   7.408  -0.464  0.3862  0.4581 -0.6208
  452MOL0     C60934   4.961   7.452  -0.359  0.2564  0.1239  0.1607
  452MOL0     N60935   4.406   8.023   0.142 -0.2170  0.4118 -0.4949
  452MOL0     N60936   4.314   8.109   0.131  0.0147 -0.1010  0.2812
  452MOL0     C60937   3.200   7.923   0.629 -0.2836  0.1853 -0.5350
  452MOL0     C60938   3.104   7.844   0.700 -0.3353 -0.3393  0.1848
  452MOL0     C60939   2.937   7.536   1.004 -0.1087  0.0342  0.6524
  452MOL0     C60940   2.964   7.457   1.126  0.2928  0.0149 -0.1628
  452MOL0     C60941   2.859   7.406   1.205 -0.5490  0.6984  0.0247
  452MOL0     C60942   2.724   7.425   1.168 -0.3299  0.0670  0.6774
  452MOL0     O60943   2.615   7.391   1.242 -0.3188  0.0206  0.1337
  452MOL0     C60944   2.628   7.270   1.319  0.0167  0.8019  0.6178
  452MOL0     C60945   2.563   7.169   1.230 -1.3788 -0.5753  0.0431
  452MOL0     C60946   2.516   7.052   1.313 -0.0160 -0.0244  0.5253
  452MOL0     C60947   2.501   6.925   1.227  0.5778  0.9738 -0.0963
  452MOL0     C60948   2.430   6.824   1.308 -0.4702  0.3112 -0.4253
  452MOL0     C60949   2.362   6.742   1.368  0.4205  0.5478 -0.2901
  452MOL0     C60950   2.695   7.495   1.049 -0.5289  0.0308  0.0767
  452MOL0     C60951   2.800   7.550   0.968  0.1326 -0.0210  0.9616
  452MOL0     C60952   2.763   7.629   0.850 -0.1575  0.1104  0.2861
  452MOL0     H60953   3.289   7.565   0.766  2.0167  1.9900  2.3563
  452MOL0     H60954   3.455   7.695   0.649 -0.4273 -1.5229 -3.2662
  452MOL0     H60955   3.334   7.985   0.385  0.2741  0.6603  0.0130
  452MOL0     H60956   3.379   8.115   0.498  0.5661 -1.3379  2.7492
  452MOL0     H60957   3.513   8.107   0.281  1.1477 -0.6469 -0.6402
  452MOL0     H60958   3.526   7.940   0.292  1.9197 -0.4559  0.8026
  452MOL0     H60959   3.674   7.975   0.512  2.8087 -0.5422 -0.8657
  452MOL0     H60960   3.695   8.144   0.461  1.8313  0.2747 -0.5994
  452MOL0     H60961   3.876   7.981   0.392  1.0493 -0.8649 -1.2190
  452MOL0     H60962   3.758   7.900   0.287 -0.0447  0.5714 -0.4884
  452MOL0     H60963   3.717   8.119   0.169 -2.9575 -4.5627  2.3253
  452MOL0     H60964   3.832   8.193   0.280 -2.2147  0.6322  0.2887
  452MOL0     H60965   4.005   7.984   0.194 -0.6717 -2.5875 -2.1074
  452MOL0     H60966   3.892   7.992   0.058 -0.5344 -1.1199  1.1082
  452MOL0     H60967   4.025   8.239   0.164 -2.3089  0.3355  1.3161
  452MOL0     H60968   3.924   8.217   0.021  0.1610  1.5786  0.3411
  452MOL0     H60969   4.070   8.103  -0.102 -0.4762 -0.0977  0.4188
  452MOL0     H60970   4.146   8.256  -0.045  2.7425 -0.8978 -1.7523
  452MOL0     H60971   4.219   7.905  -0.104 -0.0858 -1.8952  1.7620
  452MOL0     H60972   4.546   7.782   0.104 -1.3322  1.0123  1.6516
  452MOL0     H60973   4.399   7.723   0.044  0.2914 -0.8696 -1.9429
  452MOL0     H60974   4.454   7.793  -0.195 -2.3805  0.8650  1.9349
  452MOL0     H60975   4.589   7.892  -0.131  0.0573 -1.1854 -4.4108
  452MOL0     H60976   4.596   7.592  -0.131 -2.7559  2.8935 -2.0521
  452MOL0     H60977   4.716   7.693  -0.048  0.9509 -0.5081  0.4545
  452MOL0     H60978   4.780   7.801  -0.273 -1.7258  1.2567 -0.5033
  452MOL0     H60979   4.657   7.689  -0.343 -0.6700  2.1801 -0.0533
  452MOL0     H60980   4.830   7.736  -0.494  2.4692  1.5824  2.4953
  452MOL0     H60981   4.952   7.646  -0.687  2.9398  0.2356 -0.5087
  452MOL0     H60982   4.927   7.410  -1.042 -0.9713  2.1110 -0.3275
  452MOL0     H60983   5.018   7.346  -1.238  0.8123  1.3921 -0.5541
  452MOL0     H60984   5.156   7.207  -1.406  2.5393 -2.0485  2.3577
  452MOL0     H60985   5.167   7.377  -1.444 -4.6405 -1.7840 -0.3058
  452MOL0     H60986   5.386   7.151  -1.489 -0.3714 -1.0312 -0.9942
  452MOL0     H60987   5.269   7.203  -1.600 -0.6402  0.8095  0.7051
  452MOL0     H60988   5.455   7.343  -1.677  1.5091  1.6594 -0.0365
  452MOL0     H60989   5.376   7.456  -1.570  0.0238 -0.0223  0.3605
  452MOL0     H60990   5.581   7.252  -1.510  0.6717 -0.2452  1.2185
  452MOL0     H60991   5.529   7.375  -1.392 -1.7727 -1.7883  0.7265
  452MOL0     H60992   5.737   7.457  -1.484 -0.4219 -3.1804  1.7847
  452MOL0     H60993   5.622   7.535  -1.601  0.9554 -0.5618 -1.7642
  452MOL0     H60994   5.737   7.266  -1.640 -1.1144  0.4997  0.7801
  452MOL0     H60995   5.643   7.362  -1.755 -0.8020  1.3060 -0.0534
  452MOL0     H60996   5.929   7.439  -1.652  0.5434  0.1190 -0.5275
  452MOL0     H60997   5.834   7.520  -1.769 -0.6912 -0.7328 -3.1632
  452MOL0     H60998   5.887   7.225  -1.794  1.0341  0.0141  0.3682
  452MOL0     H60999   5.882   7.347  -1.925  2.6349 -1.3545 -1.1462
  452MOL0     H61000   5.423   7.398  -1.099 -0.5868 -3.8581 -1.0410
  452MOL0     H61001   5.320   7.479  -0.874  1.8270  0.0079 -2.2809
  452MOL0     H61002   5.092   7.316  -0.468 -1.6568 -0.8954  0.4182
  452MOL0     H61003   4.968   7.381  -0.277 -0.2689 -1.1470 -0.8751
  452MOL0     H61004   3.180   8.023   0.592 -0.7786 -0.7148 -2.9324
  452MOL0     H61005   3.007   7.891   0.711  1.3144  3.2560  0.7713
  452MOL0     H61006   3.065   7.433   1.156 -0.4313 -1.7778  1.0250
  452MOL0     H61007   2.888   7.363   1.300  2.3205 -0.4167 -1.2465
  452MOL0     H61008   2.575   7.273   1.415  0.5977 -1.0443  1.0339
  452MOL0     H61009   2.729   7.235   1.339  0.7317  2.1171 -0.5488
  452MOL0     H61010   2.629   7.130   1.152 -0.9690  0.1794 -0.0009
  452MOL0     H61011   2.468   7.205   1.190 -2.1400 -2.6588 -0.1165
  452MOL0     H61012   2.425   7.079   1.367  1.6658 -0.4965  3.8510
  452MOL0     H61013   2.595   7.042   1.388  1.4713  1.8345 -0.7093
  452MOL0     H61014   2.436   6.958   1.146  0.5569  1.1503 -0.0090
  452MOL0     H61015   2.591   6.878   1.186 -0.5079 -0.4672 -0.9046
  452MOL0     H61016   2.307   6.665   1.418  1.6148 -0.2604 -0.2055
  452MOL0     H61017   2.590   7.515   1.032 -0.6553 -0.1693  0.5993
  452MOL0     H61018   2.654   7.624   0.836 -1.2001  6.1391  3.0912
  452MOL0     H61019   2.798   7.731   0.863  0.2846  0.0876 -0.6351
  452MOL0     H61020   2.815   7.580   0.767  1.1289  2.7907 -0.5829
  453MOL0     O61021   9.647   0.065   7.702  0.4491  0.7682 -0.4752
  453MOL0     C61022   9.650   0.033   7.825  0.6807 -0.5190  0.0953
  453MOL0     O61023   9.768   0.014   7.897 -0.3368  0.2984 -0.2802
  453MOL0     C61024   9.885   0.032   7.820  0.9282 -0.5684 -0.1694
  453MOL0     C61025   9.924  -0.038   7.704 -0.5434 -0.2279 -0.9099
  453MOL0     C61026  10.046  -0.015   7.647  0.4792  0.4636 -0.1162
  453MOL0     C61027  10.132   0.076   7.705 -0.4550 -0.1566 -0.7563
  453MOL0     O61028  10.263   0.104   7.671 -0.7642  0.2206 -0.5413
  453MOL0     C61029  10.351   0.007   7.610 -0.3371 -0.5530  0.3522
  453MOL0     C61030  10.457   0.091   7.542  0.1640  0.6792  0.0389
  453MOL0     C61031  10.588   0.090   7.621 -1.1601 -1.0097 -0.1777
  453MOL0     C61032  10.690   0.182   7.546 -0.1245 -0.0394  0.6535
  453MOL0     C61033  10.804   0.228   7.642  0.0985 -0.8444 -0.7602
  453MOL0     C61034  10.917   0.124   7.667 -0.3106  0.9308 -0.5697
  453MOL0     C61035  11.017   0.169   7.780  1.1423 -0.7359 -0.4006
  453MOL0     C61036  11.139   0.081   7.778 -0.7444 -0.3699 -0.5684
  453MOL0     N61037  11.227   0.096   7.658 -0.4446  0.4973  0.7111
  453MOL0     C61038  11.231   0.009   7.548  0.9210  0.1865  0.4119
  453MOL0     C61039  11.337   0.054   7.472 -0.5691 -0.0610  0.2367
  453MOL0     C61040  11.384  -0.002   7.338  0.7559 -0.5282  0.4524
  453MOL0     C61041  11.487   0.087   7.271 -0.4733  0.3396  0.0990
  453MOL0     C61042  11.628   0.084   7.334 -0.2890 -0.3904  0.6256
  453MOL0     C61043  11.725   0.158   7.244 -0.2860  0.3733  0.4643
  453MOL0     O61044  11.856   0.141   7.294 -0.2346  0.1317 -0.8777
  453MOL0     C61045  11.957   0.214   7.237 -0.2354 -0.4150 -0.2023
  453MOL0     C61046  11.954   0.300   7.130  0.4443 -0.8863 -1.0876
  453MOL0     C61047  12.067   0.373   7.083 -0.6361 -0.7482 -0.3345
  453MOL0     C61048  12.188   0.356   7.137  0.1893 -0.1058  0.6763
  453MOL0     C61049  12.305   0.440   7.087  0.0015  1.1441 -0.2230
  453MOL0     O61050  12.294   0.493   6.972  0.3038  0.1343 -0.0203
  453MOL0     C61051  12.368   0.600   6.945 -0.5314 -0.0322  0.2275
  453MOL0     C61052  12.463   0.592   6.853 -0.5660 -0.2725  0.2067
  453MOL0     C61053  12.549   0.702   6.825 -0.8858  0.6814  0.2678
  453MOL0     C61054  12.522   0.824   6.890 -0.9502  0.3872  0.6779
  453MOL0     O61055  12.616   0.917   6.860  0.4367  0.4107 -0.2197
  453MOL0     C61056  12.587   1.054   6.882  0.5625  0.3757 -0.0195
  453MOL0     C61057  12.709   1.148   6.857 -0.1245 -0.3239 -0.0756
  453MOL0     C61058  12.821   1.132   6.973 -0.5860  0.0277  1.0248
  453MOL0     C61059  12.933   1.230   6.943 -0.1066 -0.4575 -0.6998
  453MOL0     C61060  13.020   1.223   7.063 -0.3213 -0.3511 -0.7325
  453MOL0     C61061  13.138   1.321   7.064  0.8402 -0.1299  0.5725
  453MOL0     C61062  13.225   1.318   7.193  0.5044  0.7647  0.3739
  453MOL0     C61063  13.199   1.444   7.267  0.3402 -0.1860 -0.5323
  453MOL0    Cl61064  13.311   1.428   7.408 -0.1705 -0.0883  0.4707
  453MOL0     C61065  12.428   0.835   6.984  0.4520 -0.4746 -0.2735
  453MOL0     C61066  12.338   0.727   7.010 -0.7192  0.5183  0.0687
  453MOL0     O61067  12.398   0.453   7.167  0.0327 -0.1849  0.3242
  453MOL0     C61068  12.193   0.288   7.259 -0.2327  0.3228 -0.8412
  453MOL0     C61069  12.083   0.211   7.301  0.0303  0.2547  0.5585
  453MOL0     N61070  11.394   0.156   7.536  1.2543 -0.3358 -0.0924
  453MOL0     N61071  11.330   0.182   7.648 -0.1981 -0.3034  0.0225
  453MOL0     C61072  10.090   0.148   7.820  0.7809 -0.0900  0.5895
  453MOL0     C61073   9.962   0.128   7.875 -0.2976  0.5778  0.2234
  453MOL0     C61074   9.522   0.032   7.902 -0.2037  0.3552 -1.0591
  453MOL0     C61075   9.537   0.031   8.047 -0.5145 -0.1711 -1.0073
  453MOL0     C61076   9.430   0.043   8.133  0.5211  0.6417 -0.2262
  453MOL0     C61077   9.299   0.044   8.081 -0.2197 -0.1536 -0.3089
  453MOL0     O61078   9.191   0.046   8.167 -0.7811  0.6293 -0.2181
  453MOL0     C61079   9.093   0.150   8.145  0.0468 -0.0912 -0.0436
  453MOL0     C61080   9.046   0.201   8.283 -1.0138 -0.5575 -0.5813
  453MOL0     C61081   9.148   0.308   8.335  0.0634 -0.9866  0.5402
  453MOL0     C61082   9.103   0.383   8.460 -0.0405 -0.1851 -0.2301
  453MOL0     C61083   8.971   0.444   8.427 -0.3780 -0.6767 -0.2550
  453MOL0     C61084   8.861   0.484   8.380 -0.6581  0.0423  0.7755
  453MOL0     C61085   9.282   0.047   7.945 -0.0401  0.4922 -0.5181
  453MOL0     C61086   9.388   0.034   7.855  0.0057 -0.1061 -0.7769
  453MOL0     C61087   9.359   0.004   7.717 -0.1189 -1.2962  0.3993
  453MOL0     H61088   9.856  -0.096   7.643 -0.5348  1.0473 -2.2032
  453MOL0     H61089  10.086  -0.070   7.562 -0.5666 -1.3999  0.5386
  453MOL0     H61090  10.393  -0.056   7.689 -0.7726 -0.5376  0.5977
  453MOL0     H61091  10.297  -0.058   7.541  1.4448  1.4580 -3.2337
  453MOL0     H61092  10.418   0.190   7.515 -1.7290 -0.4805 -1.7016
  453MOL0     H61093  10.474   0.043   7.445 -0.9789  2.5304 -1.1457
  453MOL0     H61094  10.628  -0.011   7.638 -1.5755 -1.0751  0.4737
  453MOL0     H61095  10.580   0.129   7.723  1.8386 -1.0066  0.1632
  453MOL0     H61096  10.739   0.124   7.467 -1.0062  2.3707 -1.8273
  453MOL0     H61097  10.639   0.270   7.507  0.3203 -0.9253 -2.1452
  453MOL0     H61098  10.853   0.320   7.608 -4.0448  1.3904 -1.4629
  453MOL0     H61099  10.762   0.250   7.740  0.5213  0.3432 -0.8241
  453MOL0     H61100  10.858   0.034   7.687 -0.2774  0.6853 -1.5146
  453MOL0     H61101  10.968   0.111   7.571  0.7409  1.4120 -0.0895
  453MOL0     H61102  10.965   0.165   7.876  0.3923 -0.9703 -0.8044
  453MOL0     H61103  11.055   0.271   7.765  1.9286 -0.5527  2.3932
  453MOL0     H61104  11.197   0.118   7.863 -0.9434 -1.8326  0.2491
  453MOL0     H61105  11.102  -0.022   7.781  2.1734 -1.8374 -5.1785
  453MOL0     H61106  11.164  -0.077   7.544 -0.5847  1.2297  1.7091
  453MOL0     H61107  11.418  -0.106   7.342 -2.7515 -1.7934  1.2894
  453MOL0     H61108  11.298  -0.008   7.270  1.8180 -1.7854 -0.8359
  453MOL0     H61109  11.489   0.050   7.168 -1.4619  0.7101 -0.0697
  453MOL0     H61110  11.460   0.193   7.269  0.2837  0.5753  1.4108
  453MOL0     H61111  11.655  -0.022   7.336 -0.0999 -0.3729 -0.4164
  453MOL0     H61112  11.623   0.131   7.432 -0.3230 -2.2357  1.5400
  453MOL0     H61113  11.703   0.263   7.223 -2.1228 -0.0362  0.1569
  453MOL0     H61114  11.713   0.113   7.146  0.5121 -0.5582  0.7736
  453MOL0     H61115  11.863   0.309   7.071  1.2020  1.8093 -1.9888
  453MOL0     H61116  12.059   0.439   6.997  1.0703  1.6024  1.2031
  453MOL0     H61117  12.483   0.496   6.807 -0.0040 -1.8587  3.5028
  453MOL0     H61118  12.638   0.693   6.764 -0.9939  2.1874 -0.1494
  453MOL0     H61119  12.503   1.083   6.818  2.3778  2.3838 -1.6620
  453MOL0     H61120  12.561   1.079   6.985 -0.7372  1.1083 -0.5126
  453MOL0     H61121  12.753   1.122   6.760 -2.8503 -1.1839 -1.1836
  453MOL0     H61122  12.659   1.244   6.868  0.4035 -0.1074  0.5087
  453MOL0     H61123  12.781   1.143   7.074 -0.6171  2.3115  0.8323
  453MOL0     H61124  12.853   1.031   6.948  0.7861  0.6197  0.2018
  453MOL0     H61125  12.889   1.329   6.929 -1.1473 -1.0444 -1.7868
  453MOL0     H61126  12.986   1.199   6.853 -1.7177  0.5214 -2.0557
  453MOL0     H61127  13.065   1.125   7.078  0.8923  0.4519  1.1410
  453MOL0     H61128  12.965   1.241   7.156 -1.3617 -1.2793 -1.1463
  453MOL0     H61129  13.203   1.288   6.982 -0.3447 -0.2611 -0.3472
  453MOL0     H61130  13.108   1.422   7.034  2.1511 -0.6014 -2.7990
  453MOL0     H61131  13.332   1.308   7.170  0.8624  0.6171  1.9885
  453MOL0     H61132  13.185   1.235   7.251 -1.0631  0.5444 -0.9544
  453MOL0     H61133  13.219   1.530   7.201  0.4760  2.3914  2.6198
  453MOL0     H61134  13.098   1.452   7.309  0.5914  3.3789 -0.2969
  453MOL0     H61135  12.407   0.926   7.040 -1.5243  0.5359 -2.5270
  453MOL0     H61136  12.261   0.735   7.086 -0.2024 -1.2599  0.8381
  453MOL0     H61137  12.287   0.297   7.312 -1.7055  0.3410  1.9507
  453MOL0     H61138  12.089   0.160   7.397 -2.0507  2.2071  1.8389
  453MOL0     H61139  10.160   0.211   7.873  1.7974 -1.7735  1.3460
  453MOL0     H61140   9.928   0.179   7.964 -1.4850  1.4816 -0.7132
  453MOL0     H61141   9.629   0.040   8.103  0.4007  0.3785 -2.5142
  453MOL0     H61142   9.446   0.031   8.240 -0.9912 -0.7297 -0.1044
  453MOL0     H61143   9.004   0.113   8.093 -0.1560 -0.9166  0.8591
  453MOL0     H61144   9.127   0.233   8.082  0.7925  1.0025  1.7314
  453MOL0     H61145   9.028   0.128   8.362 -0.7619 -0.6867 -0.6441
  453MOL0     H61146   8.950   0.252   8.267 -1.2363 -1.1686 -1.2578
  453MOL0     H61147   9.163   0.378   8.253  2.1821 -1.6508  0.2808
  453MOL0     H61148   9.241   0.256   8.362 -0.1112 -0.4838  2.2822
  453MOL0     H61149   9.094   0.311   8.542 -0.8317 -1.0443 -1.0476
  453MOL0     H61150   9.187   0.451   8.478  1.1133 -1.2334 -1.4423
  453MOL0     H61151   8.768   0.509   8.333  0.2813  0.2982 -1.0124
  453MOL0     H61152   9.181   0.043   7.906  0.0774  2.8232 -1.2079
  453MOL0     H61153   9.259  -0.029   7.689  0.5522 -2.7064 -0.4755
  453MOL0     H61154   9.398   0.082   7.651 -0.2283 -2.3829 -1.0017
  453MOL0     H61155   9.428  -0.077   7.692  0.2098 -0.6698 -0.8167
  454MOL0     O61156  10.601  10.862   7.424  0.4198 -0.8353 -0.3890
  454MOL0     C61157  10.648  10.974   7.397 -0.2383  0.7722 -0.0258
  454MOL0     O61158  10.567  11.087   7.384 -0.0574 -0.2859  0.6806
  454MOL0     C61159  10.431  11.076   7.391 -0.1739  0.3590 -0.2381
  454MOL0     C61160  10.350  11.026   7.494 -0.8095  0.5881 -0.5516
  454MOL0     C61161  10.217  11.022   7.487 -0.9192  0.6245 -0.4867
  454MOL0     C61162  10.148  11.069   7.373  0.3426  1.0488  0.2441
  454MOL0     O61163  10.014  11.047   7.376 -0.5818 -0.2928 -0.7833
  454MOL0     C61164   9.941  11.092   7.261 -0.2778 -0.4747  0.0493
  454MOL0     C61165   9.786  11.118   7.279 -0.3550  0.3951 -0.4849
  454MOL0     C61166   9.733  11.214   7.388 -0.0292 -0.2198 -0.6019
  454MOL0     C61167   9.580  11.260   7.383 -0.5666 -0.2479 -0.1640
  454MOL0     C61168   9.491  11.141   7.401  0.0998 -0.3991  0.1335
  454MOL0     C61169   9.338  11.176   7.409 -0.4974 -1.1970 -0.3983
  454MOL0     C61170   9.251  11.059   7.418  0.5933  0.6168  0.2403
  454MOL0     C61171   9.105  11.092   7.417  0.4799 -0.6701  0.0190
  454MOL0     N61172   9.061  11.167   7.533 -0.1099  0.0605  0.3801
  454MOL0     C61173   8.983  11.280   7.529 -0.2437 -1.3542 -0.7532
  454MOL0     C61174   8.926  11.296   7.650  1.0109 -0.4223 -0.1770
  454MOL0     C61175   8.841  11.411   7.694 -0.1919 -0.4668  0.2854
  454MOL0     C61176   8.902  11.553   7.654 -0.4756 -0.4524 -1.0059
  454MOL0     C61177   8.862  11.604   7.514 -0.6134  0.8769 -0.3605
  454MOL0     C61178   8.857  11.753   7.502 -0.5065  0.6777  0.1477
  454MOL0     O61179   8.890  11.808   7.372  0.0008 -0.8269  0.5664
  454MOL0     C61180   8.936  11.933   7.360  0.7063 -0.2407 -0.0829
  454MOL0     C61181   8.903  12.032   7.455  0.7049  0.2726  0.3159
  454MOL0     C61182   8.966  12.154   7.446  0.5164 -0.9356 -0.1341
  454MOL0     C61183   9.067  12.180   7.355 -0.5981  0.2919 -0.3138
  454MOL0     C61184   9.133  12.315   7.347  0.1306  0.6386 -0.3674
  454MOL0     O61185   9.244  12.334   7.268  0.4661  0.2530 -0.6035
  454MOL0     C61186   9.281  12.460   7.241  0.3754  0.0417 -0.1931
  454MOL0     C61187   9.332  12.488   7.117  0.3337 -0.9195  0.3709
  454MOL0     C61188   9.382  12.618   7.084  0.5772 -0.0827 -0.1188
  454MOL0     C61189   9.386  12.721   7.184 -0.1367 -0.0262  0.5040
  454MOL0     O61190   9.433  12.848   7.160 -0.0784  0.2756  0.1109
  454MOL0     C61191   9.507  12.876   7.038  0.5064  0.3733 -0.1837
  454MOL0     C61192   9.595  12.998   7.068  0.2326 -0.1848 -0.2145
  454MOL0     C61193   9.688  13.040   6.953 -0.1903  0.2701  0.3294
  454MOL0     C61194   9.781  12.930   6.906  0.6095  0.0857 -0.5364
  454MOL0     C61195   9.880  12.973   6.804  0.4124 -0.2485  0.0657
  454MOL0     C61196   9.987  13.054   6.869 -0.0202 -0.8765  0.1352
  454MOL0     C61197  10.117  13.059   6.787  0.0435 -0.7197 -0.4329
  454MOL0     C61198  10.233  13.127   6.860 -0.1206 -0.1175  0.0061
  454MOL0    Cl61199  10.238  13.302   6.822  0.0468 -0.0998  0.0163
  454MOL0     C61200   9.356  12.686   7.317 -0.2485 -0.2341  0.8325
  454MOL0     C61201   9.304  12.561   7.340  0.5998  0.6909 -0.3275
  454MOL0     O61202   9.076  12.400   7.414  0.6671  0.0365  0.4721
  454MOL0     C61203   9.090  12.085   7.256 -0.6483 -0.2793  0.5183
  454MOL0     C61204   9.027  11.959   7.259  0.0663 -0.5495  0.6153
  454MOL0     N61205   8.970  11.190   7.732  0.0719 -0.1842  0.3552
  454MOL0     N61206   9.048  11.114   7.659 -0.8749 -0.1313 -0.1733
  454MOL0     C61207  10.227  11.120   7.271  0.1195 -0.2454  0.7807
  454MOL0     C61208  10.363  11.124   7.278  0.6094  0.1331 -0.3087
  454MOL0     C61209  10.792  10.983   7.392 -0.9765  0.2962 -0.9164
  454MOL0     C61210  10.865  10.884   7.321  0.0100  0.8357 -0.4110
  454MOL0     C61211  11.009  10.882   7.318 -0.2588 -0.0435 -0.0741
  454MOL0     C61212  11.087  10.973   7.404  0.4520 -0.2732  0.4011
  454MOL0     O61213  11.223  10.972   7.428 -0.1360  0.1923  0.0536
  454MOL0     C61214  11.312  10.930   7.324 -0.1732 -0.0052 -0.0382
  454MOL0     C61215  11.279  11.029   7.206 -0.2158  0.6267 -1.1780
  454MOL0     C61216  11.388  11.042   7.103 -0.3104 -0.3276 -0.5694
  454MOL0     C61217  11.357  11.162   7.011 -0.2705  0.0948  0.3448
  454MOL0     C61218  11.467  11.153   6.912  0.3050  0.4370 -0.3985
  454MOL0     C61219  11.566  11.127   6.854  0.3851 -0.1677  0.3097
  454MOL0     C61220  11.014  11.065   7.476  0.5264  0.2605  0.5777
  454MOL0     C61221  10.873  11.071   7.470 -0.4826  0.2978  0.2245
  454MOL0     C61222  10.814  11.180   7.553  0.1628  0.2704  0.2755
  454MOL0     H61223  10.409  10.988   7.576  0.6796  1.6454 -1.0815
  454MOL0     H61224  10.161  10.981   7.570 -1.6112 -0.4672 -1.4616
  454MOL0     H61225   9.993  11.180   7.223 -0.4715  0.8590  2.6465
  454MOL0     H61226   9.949  11.010   7.189 -0.9469 -0.3761 -0.1444
  454MOL0     H61227   9.740  11.019   7.292 -2.0282  0.8290 -2.4669
  454MOL0     H61228   9.743  11.158   7.187 -0.4357  1.3870 -0.0359
  454MOL0     H61229   9.795  11.305   7.386 -0.9859  0.4708  0.2071
  454MOL0     H61230   9.750  11.165   7.484  2.0720 -2.3560 -1.9731
  454MOL0     H61231   9.568  11.324   7.471  1.0261 -0.2202  0.0673
  454MOL0     H61232   9.563  11.315   7.290  3.2770  0.8469 -0.4367
  454MOL0     H61233   9.512  11.068   7.322 -0.6577 -2.8549  2.0911
  454MOL0     H61234   9.527  11.092   7.492  0.4793  2.1162  1.4403
  454MOL0     H61235   9.318  11.241   7.495  0.5713 -1.8619  0.3829
  454MOL0     H61236   9.313  11.253   7.335 -0.2474 -0.5574  0.1661
  454MOL0     H61237   9.264  10.998   7.508 -1.4609  1.3060  1.0586
  454MOL0     H61238   9.267  11.002   7.326  0.1719 -0.9960  1.1208
  454MOL0     H61239   9.071  11.147   7.329  0.4902  1.1446  1.1021
  454MOL0     H61240   9.046  11.000   7.426 -2.7905  1.1602 -1.0067
  454MOL0     H61241   8.960  11.342   7.442 -1.2773  1.3358  1.2792
  454MOL0     H61242   8.735  11.405   7.666 -0.3460  1.1328  0.4177
  454MOL0     H61243   8.832  11.399   7.803 -1.8427  0.7727  0.3267
  454MOL0     H61244   8.868  11.618   7.735  1.9808 -1.0710  0.6375
  454MOL0     H61245   9.010  11.556   7.668 -0.3599  0.7575 -1.9790
  454MOL0     H61246   8.761  11.571   7.487 -0.1872  1.9867 -3.8442
  454MOL0     H61247   8.933  11.570   7.437  0.9427  1.1831  0.8866
  454MOL0     H61248   8.935  11.783   7.573  0.7033 -2.3275  0.2266
  454MOL0     H61249   8.762  11.797   7.533 -1.6259 -1.6239  0.2096
  454MOL0     H61250   8.833  12.032   7.538  0.5104 -1.2807  0.1853
  454MOL0     H61251   8.950  12.236   7.515  2.0267  0.0783 -0.9388
  454MOL0     H61252   9.334  12.410   7.041  0.8560  1.6364 -2.4414
  454MOL0     H61253   9.402  12.635   6.978  0.1367 -0.5730 -0.2845
  454MOL0     H61254   9.577  12.795   7.015 -0.7413 -0.2655 -1.9129
  454MOL0     H61255   9.435  12.888   6.957  1.2855  0.5847 -0.8584
  454MOL0     H61256   9.533  13.082   7.101  2.2504  1.9085 -1.4120
  454MOL0     H61257   9.664  12.978   7.150  1.4784 -0.9565 -1.4161
  454MOL0     H61258   9.633  13.076   6.865 -3.7200  0.7078  2.5453
  454MOL0     H61259   9.749  13.126   6.984  3.1816 -2.4108  1.6947
  454MOL0     H61260   9.725  12.847   6.862 -1.1985 -0.1313  1.9580
  454MOL0     H61261   9.834  12.891   6.993 -0.4952  2.6149  1.3764
  454MOL0     H61262   9.824  13.033   6.733 -0.9375 -2.9714 -1.3499
  454MOL0     H61263   9.928  12.885   6.760  0.0362 -0.7640  0.6657
  454MOL0     H61264   9.963  13.160   6.875  0.6345 -0.3679 -3.9644
  454MOL0     H61265  10.015  13.021   6.970 -1.5060  3.7652  2.3346
  454MOL0     H61266  10.103  13.112   6.692  1.2438 -2.9742 -1.9847
  454MOL0     H61267  10.151  12.958   6.760 -0.0798 -0.1072 -3.1620
  454MOL0     H61268  10.229  13.102   6.966  0.0370 -0.9358 -0.1762
  454MOL0     H61269  10.326  13.077   6.833  0.7611  0.4604  1.7578
  454MOL0     H61270   9.367  12.758   7.397 -0.4088  1.0033 -0.2205
  454MOL0     H61271   9.283  12.538   7.444 -0.1845 -0.7108 -0.7702
  454MOL0     H61272   9.163  12.118   7.183  1.2361  1.3557  2.9625
  454MOL0     H61273   9.038  11.879   7.186 -3.5770  1.8521 -3.0790
  454MOL0     H61274  10.194  11.149   7.172  0.0844  3.0516  1.6555
  454MOL0     H61275  10.408  11.165   7.188 -3.7134  0.9283 -2.4126
  454MOL0     H61276  10.810  10.813   7.260 -1.3954 -2.2732  4.0011
  454MOL0     H61277  11.067  10.817   7.253 -0.7765  0.3001 -0.9005
  454MOL0     H61278  11.298  10.826   7.293  0.9211 -0.2833  0.3461
  454MOL0     H61279  11.418  10.936   7.350  0.2297  0.3697 -1.6427
  454MOL0     H61280  11.241  11.126   7.240 -0.5914  0.7539 -1.9179
  454MOL0     H61281  11.199  10.986   7.144 -1.5699 -0.7287  1.3515
  454MOL0     H61282  11.391  10.947   7.049  0.0693 -0.3871 -0.4461
  454MOL0     H61283  11.489  11.044   7.145 -0.6161  1.5726  0.1968
  454MOL0     H61284  11.259  11.167   6.961  1.0160 -1.0942 -2.5256
  454MOL0     H61285  11.361  11.251   7.074 -1.6018  0.7306 -0.4102
  454MOL0     H61286  11.637  11.088   6.785 -2.5573  0.1254 -3.1533
  454MOL0     H61287  11.081  11.123   7.539  3.5050 -0.9725 -1.2817
  454MOL0     H61288  10.827  11.276   7.502 -0.4611  0.2387  0.0434
  454MOL0     H61289  10.709  11.155   7.567 -0.7590  2.9751 -0.9684
  454MOL0     H61290  10.857  11.189   7.653 -0.4431  0.7561  0.4981
  455MOL0     O61291   6.074   9.576   3.997 -0.2368  0.1250  0.2366
  455MOL0     C61292   6.017   9.479   4.042  0.1287 -0.2757  0.1020
  455MOL0     O61293   6.078   9.367   4.095  0.1734 -0.1944 -0.2743
  455MOL0     C61294   6.210   9.386   4.121 -0.3246  0.5699 -0.0997
  455MOL0     C61295   6.256   9.465   4.232  0.5766  1.0029  0.2706
  455MOL0     C61296   6.393   9.468   4.257 -0.1139  0.0907  0.2862
  455MOL0     C61297   6.481   9.396   4.177 -0.2398 -0.1349  0.0501
  455MOL0     O61298   6.614   9.391   4.209 -0.1349  0.2066  0.4115
  455MOL0     C61299   6.659   9.423   4.343  0.6253  0.2585  0.5207
  455MOL0     C61300   6.808   9.375   4.360 -0.4421 -0.2642  0.0206
  455MOL0     C61301   6.902   9.453   4.266  0.6210  0.4452 -0.4261
  455MOL0     C61302   7.031   9.377   4.226  1.0477  0.3108 -0.2033
  455MOL0     C61303   7.121   9.472   4.154  0.5005 -0.2684  1.4644
  455MOL0     C61304   7.245   9.404   4.112  0.5564 -0.2674 -0.0190
  455MOL0     C61305   7.320   9.510   4.033  0.0756 -0.4626  0.6469
  455MOL0     C61306   7.456   9.466   3.967  0.0152 -0.1069  0.8221
  455MOL0     N61307   7.538   9.578   3.952  0.5456  0.0663 -0.0323
  455MOL0     C61308   7.664   9.601   4.017 -0.3465 -0.3314  0.1019
  455MOL0     C61309   7.709   9.713   3.963 -0.3687  0.8768 -0.6036
  455MOL0     C61310   7.833   9.793   4.012 -0.4950  1.0116  0.0324
  455MOL0     C61311   7.823   9.885   4.142 -0.0767 -0.7069 -0.1926
  455MOL0     C61312   7.890  10.027   4.133 -0.0531 -0.1452 -0.5816
  455MOL0     C61313   7.840  10.109   4.250  0.0595  0.5844 -0.0654
  455MOL0     O61314   7.899  10.238   4.271 -0.1643  0.1520 -0.5796
  455MOL0     C61315   8.017  10.261   4.343 -0.0483 -0.2708 -0.1994
  455MOL0     C61316   8.051  10.394   4.372 -0.4083 -0.1285  0.8363
  455MOL0     C61317   8.177  10.410   4.445  0.6659 -1.3012 -0.0350
  455MOL0     C61318   8.255  10.302   4.494  0.2471 -0.1369 -0.5067
  455MOL0     C61319   8.370  10.324   4.593 -0.6220  0.0155 -0.2756
  455MOL0     O61320   8.422  10.448   4.598  0.2941  0.5391  0.7301
  455MOL0     C61321   8.521  10.473   4.685 -0.0051 -0.0838  0.3182
  455MOL0     C61322   8.646  10.420   4.669  0.4663 -0.4614 -1.0745
  455MOL0     C61323   8.747  10.458   4.769 -1.3519  0.5792  0.8192
  455MOL0     C61324   8.713  10.538   4.882 -0.8986 -0.2078 -0.3313
  455MOL0     O61325   8.790  10.568   4.999  0.1171 -0.1466  0.0529
  455MOL0     C61326   8.918  10.508   5.005  0.2473  0.4297  0.5124
  455MOL0     C61327   8.996  10.540   5.130  0.3070  0.1742 -1.2201
  455MOL0     C61328   9.115  10.444   5.160  0.0706 -0.5479  0.1981
  455MOL0     C61329   9.195  10.480   5.281  0.1646  0.3778  0.9083
  455MOL0     C61330   9.309  10.382   5.294  0.4249  0.2354 -0.0780
  455MOL0     C61331   9.383  10.355   5.426 -0.5463  0.3893 -0.5036
  455MOL0     C61332   9.458  10.484   5.470 -0.4323 -0.5948  0.1870
  455MOL0     C61333   9.508  10.466   5.615  0.4673 -0.3726  0.9724
  455MOL0    Cl61334   9.646  10.348   5.596 -0.4161 -0.0870 -0.4790
  455MOL0     C61335   8.585  10.590   4.882  0.6328 -0.0530  0.9596
  455MOL0     C61336   8.487  10.549   4.794 -0.1862 -0.1745 -0.2532
  455MOL0     O61337   8.403  10.236   4.673 -0.1974  0.5990 -0.2019
  455MOL0     C61338   8.209  10.174   4.462  1.0814 -0.4978  0.7949
  455MOL0     C61339   8.096  10.149   4.386  0.3096 -0.0143  0.0768
  455MOL0     N61340   7.619   9.753   3.860 -0.4767 -0.9777 -0.2423
  455MOL0     N61341   7.513   9.670   3.856  0.1741  0.1237 -0.7771
  455MOL0     C61342   6.440   9.335   4.063 -0.2758  0.2622 -0.5614
  455MOL0     C61343   6.304   9.334   4.023  0.5086 -0.0245  1.0148
  455MOL0     C61344   5.869   9.488   4.052 -0.4320  0.5402  0.2268
  455MOL0     C61345   5.816   9.618   4.038  0.1419  0.7855  0.4667
  455MOL0     C61346   5.679   9.646   4.047  0.0300 -0.1494  0.1772
  455MOL0     C61347   5.590   9.540   4.064 -0.5244 -1.2545  0.2682
  455MOL0     O61348   5.454   9.566   4.083  0.2175 -0.5993 -0.0557
  455MOL0     C61349   5.362   9.459   4.103 -0.3146 -0.6073 -1.1160
  455MOL0     C61350   5.226   9.534   4.132 -0.7735  0.2986  0.1368
  455MOL0     C61351   5.220   9.570   4.286 -0.1591 -0.5653 -0.3003
  455MOL0     C61352   5.183   9.452   4.370 -0.1806 -0.0958 -0.6751
  455MOL0     C61353   5.166   9.481   4.511 -0.3754 -0.2165 -0.6263
  455MOL0     C61354   5.156   9.511   4.629  0.2230  1.3316  0.1378
  455MOL0     C61355   5.643   9.413   4.079  0.0177  0.3843 -0.0304
  455MOL0     C61356   5.781   9.387   4.073  0.0211  0.2857 -0.1978
  455MOL0     C61357   5.816   9.236   4.072 -0.4348 -0.6532  0.4055
  455MOL0     H61358   6.182   9.514   4.294 -2.6846 -1.9077 -1.0495
  455MOL0     H61359   6.437   9.530   4.335  4.3967 -2.3416 -0.0123
  455MOL0     H61360   6.645   9.527   4.374 -0.1778 -0.2575  2.0132
  455MOL0     H61361   6.614   9.376   4.431  0.7348  1.5885  1.3209
  455MOL0     H61362   6.816   9.268   4.337 -0.1358 -0.3121  0.3487
  455MOL0     H61363   6.838   9.399   4.462  0.1006  0.3961 -0.2872
  455MOL0     H61364   6.932   9.549   4.307 -1.0250 -0.1329  2.4105
  455MOL0     H61365   6.847   9.480   4.175  1.6926  3.8019 -0.2187
  455MOL0     H61366   7.070   9.345   4.323 -0.6412 -0.1986  0.3483
  455MOL0     H61367   6.993   9.302   4.156 -3.2471  2.6176 -0.7004
  455MOL0     H61368   7.066   9.515   4.069  0.4364 -0.7324  1.2702
  455MOL0     H61369   7.155   9.553   4.220 -0.0764  2.7087 -1.5993
  455MOL0     H61370   7.307   9.367   4.193  0.2481 -0.0415  0.3232
  455MOL0     H61371   7.225   9.313   4.054  0.8213 -1.4413  1.6482
  455MOL0     H61372   7.352   9.586   4.105 -1.3197 -0.2080  1.0349
  455MOL0     H61373   7.254   9.552   3.957  0.4318 -0.5542  0.2854
  455MOL0     H61374   7.505   9.392   4.030  1.0740 -0.4908 -0.3959
  455MOL0     H61375   7.434   9.426   3.868 -2.4570  1.8544  0.4662
  455MOL0     H61376   7.711   9.551   4.101  0.1076  0.1086  0.1169
  455MOL0     H61377   7.912   9.722   4.038 -0.9388  0.2233 -0.7243
  455MOL0     H61378   7.858   9.855   3.925 -1.6161  1.5126  0.0402
  455MOL0     H61379   7.718   9.897   4.172  0.2408 -1.0569  1.1522
  455MOL0     H61380   7.867   9.834   4.229 -0.5207 -1.1756 -0.2325
  455MOL0     H61381   7.867  10.073   4.036 -3.8785  2.8415  1.4477
  455MOL0     H61382   7.998  10.010   4.136 -0.0281  0.1141  0.0849
  455MOL0     H61383   7.857  10.056   4.344  2.1147  1.0670 -0.1227
  455MOL0     H61384   7.737  10.140   4.227  1.1866  3.2299 -2.1925
  455MOL0     H61385   7.989  10.462   4.315 -0.7433 -0.2560  1.0433
  455MOL0     H61386   8.209  10.513   4.454 -3.2157  0.3005 -1.9420
  455MOL0     H61387   8.663  10.348   4.590 -2.3095 -0.8984 -1.3574
  455MOL0     H61388   8.849  10.422   4.773  0.2535  4.3081 -1.3484
  455MOL0     H61389   8.903  10.400   4.993  0.0138  0.4003  1.0454
  455MOL0     H61390   8.983  10.548   4.926 -1.3099  1.7824 -0.1382
  455MOL0     H61391   9.013  10.648   5.132 -0.2250  0.2686  1.2767
  455MOL0     H61392   8.937  10.523   5.221  1.5261  1.2926 -0.1775
  455MOL0     H61393   9.080  10.341   5.151  0.3761 -0.4988 -2.0457
  455MOL0     H61394   9.183  10.456   5.076  1.2572  1.7588  1.3930
  455MOL0     H61395   9.132  10.479   5.371  2.2703  0.9704  2.4818
  455MOL0     H61396   9.242  10.577   5.262 -1.2634  0.5881 -2.1112
  455MOL0     H61397   9.389  10.401   5.223  0.6531  1.6490  0.5262
  455MOL0     H61398   9.251  10.291   5.276 -1.6449  1.3318  0.6306
  455MOL0     H61399   9.319  10.309   5.501  2.1548 -0.6783  1.2855
  455MOL0     H61400   9.453  10.272   5.413 -2.1300 -1.3296  1.3828
  455MOL0     H61401   9.387  10.567   5.466 -0.6501 -0.8370 -1.3169
  455MOL0     H61402   9.540  10.499   5.400 -1.0554 -0.2525 -0.4802
  455MOL0     H61403   9.541  10.559   5.661 -1.1850 -0.5840  2.6958
  455MOL0     H61404   9.428  10.427   5.677 -3.0275  2.4003 -1.3963
  455MOL0     H61405   8.553  10.658   4.961 -3.9103  0.6568 -1.1212
  455MOL0     H61406   8.389  10.587   4.821  0.6169  0.0828  2.6297
  455MOL0     H61407   8.270  10.095   4.504  0.3905 -0.9698  0.9219
  455MOL0     H61408   8.067  10.047   4.363 -1.7256  0.7283 -0.9138
  455MOL0     H61409   6.507   9.293   3.990  0.4260 -0.0267  0.2324
  455MOL0     H61410   6.266   9.297   3.929  0.0197  5.0310 -1.0651
  455MOL0     H61411   5.890   9.697   4.041  0.4171  0.5995 -0.9211
  455MOL0     H61412   5.631   9.743   4.053 -2.1221 -1.2473  1.9885
  455MOL0     H61413   5.386   9.381   4.177 -0.8326 -0.2468 -0.5537
  455MOL0     H61414   5.340   9.406   4.010 -0.3811 -0.1630 -1.3526
  455MOL0     H61415   5.141   9.468   4.117 -1.0503 -0.5533  4.2246
  455MOL0     H61416   5.210   9.624   4.072 -1.2767  0.9081  1.1457
  455MOL0     H61417   5.146   9.648   4.307  0.2801 -0.3915  0.6828
  455MOL0     H61418   5.312   9.620   4.317  0.4809 -1.2518 -1.0653
  455MOL0     H61419   5.086   9.414   4.337 -0.3185  2.1054 -3.1709
  455MOL0     H61420   5.264   9.380   4.355 -0.8015 -0.4884 -2.3132
  455MOL0     H61421   5.155   9.529   4.735 -0.4664  1.7993  0.0591
  455MOL0     H61422   5.579   9.329   4.105  1.0117 -1.2325 -2.4855
  455MOL0     H61423   5.872   9.209   3.982 -1.0713 -1.1764  0.1597
  455MOL0     H61424   5.879   9.227   4.161  0.7650 -0.9220 -0.4432
  455MOL0     H61425   5.724   9.178   4.084 -0.9780 -0.6358 -2.8473
  456MOL0     O61426   7.168   4.550   1.691  1.0733 -0.5514  0.0840
  456MOL0     C61427   7.145   4.474   1.789 -0.5752 -0.4955  0.4193
  456MOL0     O61428   7.233   4.457   1.892 -0.2823 -0.0224  0.0839
  456MOL0     C61429   7.335   4.546   1.895 -0.2916 -0.0703 -0.5252
  456MOL0     C61430   7.318   4.695   1.916 -0.1843  0.0689  0.3750
  456MOL0     C61431   7.432   4.769   1.917  1.1447 -0.5061  0.2483
  456MOL0     C61432   7.559   4.718   1.918 -0.4631 -0.2676  0.7315
  456MOL0     O61433   7.680   4.788   1.916 -0.0823  0.7929  0.9609
  456MOL0     C61434   7.681   4.910   1.845  0.2449 -0.1022  0.6209
  456MOL0     C61435   7.817   4.967   1.831 -0.8393 -0.0863  0.3083
  456MOL0     C61436   7.879   4.988   1.967 -0.5347  0.0183 -0.1187
  456MOL0     C61437   7.962   5.116   1.985  0.3900  0.2146  0.3834
  456MOL0     C61438   8.030   5.111   2.121  0.6461  0.3899  1.3775
  456MOL0     C61439   7.930   5.145   2.235  0.2223 -0.2784 -0.4747
  456MOL0     C61440   7.999   5.202   2.361 -0.0338  0.3918  0.0286
  456MOL0     C61441   8.125   5.124   2.403 -1.2957 -0.1038 -0.0286
  456MOL0     N61442   8.158   5.186   2.534  0.4078  0.4628 -0.4858
  456MOL0     C61443   8.125   5.140   2.658  0.1687  0.9633 -0.0075
  456MOL0     C61444   8.151   5.236   2.746  0.0084  0.3363  0.3412
  456MOL0     C61445   8.116   5.240   2.894 -0.3214  0.4701 -0.5139
  456MOL0     C61446   8.156   5.126   2.991  0.0301  0.8422 -0.3264
  456MOL0     C61447   8.301   5.148   3.030 -0.2710  0.1172 -0.0174
  456MOL0     C61448   8.350   5.055   3.143 -0.4075 -0.7205 -0.3641
  456MOL0     O61449   8.493   5.085   3.191 -0.3864  0.8187  0.2932
  456MOL0     C61450   8.522   5.206   3.242 -0.6521 -0.4240 -0.2728
  456MOL0     C61451   8.646   5.262   3.236 -0.7581  0.4804  0.7451
  456MOL0     C61452   8.680   5.384   3.290 -0.3664 -0.0679  0.4281
  456MOL0     C61453   8.588   5.465   3.356  0.3204  0.1945  0.2442
  456MOL0     C61454   8.631   5.590   3.423 -0.2508 -0.2243  0.4503
  456MOL0     O61455   8.537   5.669   3.461 -0.0851  0.1483  0.0460
  456MOL0     C61456   8.538   5.795   3.519 -0.4256 -0.0941 -0.1204
  456MOL0     C61457   8.416   5.857   3.550 -0.4313  0.6358 -0.4813
  456MOL0     C61458   8.411   5.987   3.605  0.1911  0.5057  0.4155
  456MOL0     C61459   8.533   6.053   3.632 -0.2154  0.5583  0.5864
  456MOL0     O61460   8.523   6.176   3.681 -0.6111 -0.5031  0.3072
  456MOL0     C61461   8.607   6.203   3.792 -0.0410 -0.4534  0.0470
  456MOL0     C61462   8.533   6.304   3.885  0.8426  1.1436 -0.0698
  456MOL0     C61463   8.392   6.259   3.933 -0.4673 -0.2365  0.8467
  456MOL0     C61464   8.335   6.320   4.060 -0.8638 -0.1110  0.2631
  456MOL0     C61465   8.207   6.248   4.083  0.0887 -0.4234  0.8769
  456MOL0     C61466   8.155   6.249   4.221 -0.6756 -0.0705  0.7776
  456MOL0     C61467   8.104   6.387   4.262 -0.2852  0.1784 -0.2547
  456MOL0     C61468   8.103   6.422   4.412  0.0985  0.4914 -0.1553
  456MOL0    Cl61469   8.257   6.409   4.494 -0.4135  0.1016  0.1889
  456MOL0     C61470   8.655   5.995   3.594  0.7520 -0.1821 -0.0176
  456MOL0     C61471   8.657   5.862   3.549 -0.1457 -0.1841 -0.2398
  456MOL0     O61472   8.745   5.621   3.430 -0.4386  0.3020 -0.0833
  456MOL0     C61473   8.457   5.418   3.369  0.2895 -0.5521 -0.0420
  456MOL0     C61474   8.431   5.289   3.314  0.6823  0.2071  0.3388
  456MOL0     N61475   8.192   5.349   2.678 -0.3708 -0.9329  0.4171
  456MOL0     N61476   8.198   5.310   2.555 -0.7487 -0.0085  0.3400
  456MOL0     C61477   7.576   4.588   1.902  0.0240 -0.5155 -0.3081
  456MOL0     C61478   7.462   4.504   1.892 -0.4124 -0.2353  0.4297
  456MOL0     C61479   7.019   4.392   1.785 -1.4889 -0.1094 -0.2794
  456MOL0     C61480   7.007   4.283   1.880 -0.4039  0.7154  0.5804
  456MOL0     C61481   6.898   4.200   1.891  0.2864 -0.3165  0.0800
  456MOL0     C61482   6.790   4.233   1.814 -0.0937  0.5075 -0.5795
  456MOL0     O61483   6.677   4.158   1.846  0.0029  0.5792 -0.0783
  456MOL0     C61484   6.557   4.201   1.778 -0.0856 -0.3232 -0.4082
  456MOL0     C61485   6.440   4.103   1.810  0.6593 -0.3948 -0.8653
  456MOL0     C61486   6.329   4.098   1.701 -0.1974  0.5933 -1.3944
  456MOL0     C61487   6.212   4.006   1.744 -0.3465  0.0247 -1.1210
  456MOL0     C61488   6.107   4.010   1.648 -0.4040  1.3600 -0.2453
  456MOL0     C61489   6.013   4.004   1.566 -0.0456  0.4719  0.3353
  456MOL0     C61490   6.795   4.333   1.708 -0.3830  0.3581 -0.2785
  456MOL0     C61491   6.911   4.416   1.692 -0.3042  0.1769 -0.0898
  456MOL0     C61492   6.899   4.537   1.596  0.5849  0.2344 -0.0951
  456MOL0     H61493   7.216   4.730   1.918  0.0375  0.8731 -1.1946
  456MOL0     H61494   7.417   4.876   1.926  2.1145 -0.4517  1.4821
  456MOL0     H61495   7.646   4.889   1.744  2.8974 -2.2402  0.0330
  456MOL0     H61496   7.609   4.972   1.900 -1.8634 -0.8040 -1.2164
  456MOL0     H61497   7.803   5.055   1.766 -1.3997 -1.1875 -1.1131
  456MOL0     H61498   7.882   4.903   1.770 -3.8636 -2.3299 -0.7832
  456MOL0     H61499   7.945   4.902   1.980 -0.3510 -0.1044 -1.6977
  456MOL0     H61500   7.805   4.990   2.048  2.2823  0.6490  2.6474
  456MOL0     H61501   8.031   5.123   1.900 -1.4914 -1.8490 -1.4589
  456MOL0     H61502   7.902   5.205   1.964  1.5583  0.7858 -0.6426
  456MOL0     H61503   8.076   5.012   2.131  0.6718  0.2494  0.1378
  456MOL0     H61504   8.093   5.200   2.112  1.0473  0.0130  0.2937
  456MOL0     H61505   7.857   5.219   2.202  0.9922  0.8482  0.3179
  456MOL0     H61506   7.878   5.053   2.264 -1.5075 -0.7436 -4.3111
  456MOL0     H61507   7.919   5.200   2.436 -2.7289  1.5887 -2.5883
  456MOL0     H61508   8.030   5.307   2.357 -0.1579  0.6446  3.1468
  456MOL0     H61509   8.111   5.016   2.407  1.2267 -0.5755 -1.6367
  456MOL0     H61510   8.207   5.144   2.333  0.7863  1.4157  2.6595
  456MOL0     H61511   8.091   5.042   2.688 -1.0936  1.6719  0.9779
  456MOL0     H61512   8.145   5.338   2.933 -0.3069  0.2933 -0.0651
  456MOL0     H61513   8.007   5.246   2.910 -0.3114 -4.2031  4.0546
  456MOL0     H61514   8.101   5.122   3.085 -1.7250 -1.0686 -1.3661
  456MOL0     H61515   8.147   5.032   2.935  1.3147  0.9456 -0.7501
  456MOL0     H61516   8.319   5.250   3.066  0.3293  0.1892 -0.4989
  456MOL0     H61517   8.363   5.138   2.940  1.1004  1.5983  0.7126
  456MOL0     H61518   8.356   4.948   3.122  1.7280 -1.5235  3.4083
  456MOL0     H61519   8.283   5.049   3.230  0.5212 -1.2739  0.3378
  456MOL0     H61520   8.721   5.201   3.187 -2.0818  1.3811 -2.6704
  456MOL0     H61521   8.782   5.414   3.268 -0.5781 -0.2975 -0.9647
  456MOL0     H61522   8.325   5.808   3.517 -0.6128  0.1298  0.7204
  456MOL0     H61523   8.318   6.031   3.637 -0.2397  1.0753 -1.4747
  456MOL0     H61524   8.635   6.107   3.837  0.9197 -0.2538 -0.1038
  456MOL0     H61525   8.700   6.241   3.749  0.8214  0.7717  2.7793
  456MOL0     H61526   8.599   6.314   3.972 -0.1111  0.4883  0.7432
  456MOL0     H61527   8.538   6.403   3.837  0.4766  0.7373 -0.9781
  456MOL0     H61528   8.329   6.285   3.847  4.3288 -0.4908 -3.2396
  456MOL0     H61529   8.400   6.150   3.934  1.2304 -0.1931 -1.0470
  456MOL0     H61530   8.322   6.427   4.042  0.5058 -0.0996 -0.7188
  456MOL0     H61531   8.410   6.314   4.139  1.1784  2.0943 -1.3501
  456MOL0     H61532   8.221   6.142   4.060  0.8776  0.2287 -1.9608
  456MOL0     H61533   8.143   6.283   4.001 -1.1668  0.4559  2.1729
  456MOL0     H61534   8.070   6.181   4.237  0.0501 -1.5353 -1.2503
  456MOL0     H61535   8.233   6.216   4.291 -0.9502  1.1223  1.6725
  456MOL0     H61536   7.998   6.399   4.236 -0.6404 -0.0926  0.9881
  456MOL0     H61537   8.165   6.471   4.229  0.9944  0.3587  2.3245
  456MOL0     H61538   8.058   6.519   4.437  1.8833  0.8251  2.1147
  456MOL0     H61539   8.037   6.347   4.456  0.8117 -2.0160 -3.0126
  456MOL0     H61540   8.742   6.053   3.623  0.0696  0.8704 -0.0027
  456MOL0     H61541   8.755   5.818   3.534 -0.5691 -1.4783  0.5891
  456MOL0     H61542   8.377   5.471   3.420 -1.2927  0.2932 -3.1029
  456MOL0     H61543   8.326   5.260   3.316  0.3414  0.9920 -2.4000
  456MOL0     H61544   7.676   4.547   1.894  0.7271  0.3964  2.5446
  456MOL0     H61545   7.475   4.396   1.892 -2.0023 -0.5835 -3.5481
  456MOL0     H61546   7.092   4.271   1.946 -0.6433 -1.0206  0.6195
  456MOL0     H61547   6.902   4.129   1.973 -0.4378 -0.2805  0.1493
  456MOL0     H61548   6.580   4.178   1.673 -1.4242 -0.8888 -0.6056
  456MOL0     H61549   6.539   4.307   1.794 -0.0405  0.1582 -3.0782
  456MOL0     H61550   6.394   4.137   1.903  1.3307 -0.3333 -0.5457
  456MOL0     H61551   6.480   4.003   1.829  1.6661  0.1434 -0.0559
  456MOL0     H61552   6.375   4.053   1.613 -0.5093  3.0597 -2.9151
  456MOL0     H61553   6.292   4.198   1.679  2.4506  1.8079 -0.6639
  456MOL0     H61554   6.255   3.905   1.737  3.1414  1.4121 -1.8643
  456MOL0     H61555   6.181   4.047   1.840  0.0170  1.2276 -1.5037
  456MOL0     H61556   5.937   3.993   1.491 -0.2527  1.2451  0.4166
  456MOL0     H61557   6.715   4.339   1.635 -0.9731 -1.9908  0.0769
  456MOL0     H61558   6.980   4.546   1.523 -1.5034  2.0120 -2.3568
  456MOL0     H61559   6.807   4.516   1.541  0.4379 -0.2426  0.3213
  456MOL0     H61560   6.887   4.629   1.654  2.1847  0.4621 -0.0712
  457MOL0     O61561   7.568   5.503   2.751  0.5345  0.3740 -0.3301
  457MOL0     C61562   7.570   5.613   2.688  0.1340  1.0746 -0.3131
  457MOL0     O61563   7.463   5.687   2.653  0.5761 -0.0356  0.2754
  457MOL0     C61564   7.342   5.619   2.654 -0.4197  0.2990 -0.9609
  457MOL0     C61565   7.326   5.503   2.568 -0.2172 -0.1347 -0.3485
  457MOL0     C61566   7.211   5.433   2.584 -0.1195 -0.0147  0.4752
  457MOL0     C61567   7.110   5.479   2.673 -0.8568 -0.7840  0.4088
  457MOL0     O61568   6.989   5.419   2.671 -0.2907 -0.3265  0.5068
  457MOL0     C61569   6.955   5.317   2.574  0.2021  0.7616  0.6360
  457MOL0     C61570   6.809   5.273   2.592  0.7513 -0.1522  0.3762
  457MOL0     C61571   6.712   5.361   2.506 -1.0040  0.9405  0.2948
  457MOL0     C61572   6.569   5.344   2.552  0.1286  0.7171  0.7251
  457MOL0     C61573   6.471   5.422   2.469  0.2484 -0.0706 -0.2157
  457MOL0     C61574   6.515   5.574   2.443  0.0552  0.3241  0.5735
  457MOL0     C61575   6.382   5.657   2.397  0.4767 -1.0195  0.5060
  457MOL0     C61576   6.414   5.810   2.404 -0.4527 -0.4011 -0.0348
  457MOL0     N61577   6.492   5.863   2.286  0.0263  0.1993  0.6724
  457MOL0     C61578   6.494   5.825   2.154  0.3733  0.4319  0.7464
  457MOL0     C61579   6.570   5.917   2.092 -0.1447 -0.0119 -0.5152
  457MOL0     C61580   6.628   5.927   1.952 -0.4963 -0.0523  0.5306
  457MOL0     C61581   6.784   5.933   1.943 -0.1207 -0.4249  0.4010
  457MOL0     C61582   6.823   5.910   1.791  0.9860 -0.6712 -0.8573
  457MOL0     C61583   6.975   5.907   1.781  0.5749  0.0078 -0.5279
  457MOL0     O61584   7.033   6.012   1.855 -0.4983 -0.2527 -0.8395
  457MOL0     C61585   7.162   5.999   1.898 -0.4318  0.5176  0.1421
  457MOL0     C61586   7.263   5.919   1.829  1.3325 -0.1075 -0.0509
  457MOL0     C61587   7.389   5.905   1.882  0.6224 -0.3390  0.4393
  457MOL0     C61588   7.428   5.982   1.991  0.1819  0.5208  0.0608
  457MOL0     C61589   7.569   5.982   2.029  0.6240  0.2683  0.8283
  457MOL0     O61590   7.615   6.062   2.130 -0.4066  0.3247 -0.9541
  457MOL0     C61591   7.750   6.054   2.152 -0.0522  0.4770  0.6325
  457MOL0     C61592   7.811   5.975   2.256 -0.4916 -0.2185 -0.2355
  457MOL0     C61593   7.956   5.968   2.268  1.3879 -0.1943 -0.3526
  457MOL0     C61594   8.044   6.041   2.184  0.3156  0.2246  0.7134
  457MOL0     O61595   8.183   6.046   2.196 -0.0876  0.5499 -0.5256
  457MOL0     C61596   8.241   6.172   2.162  0.7531 -1.1003 -0.1904
  457MOL0     C61597   8.389   6.158   2.210 -0.0354  1.1052  0.2099
  457MOL0     C61598   8.485   6.255   2.147 -0.1651  0.0790 -0.1218
  457MOL0     C61599   8.623   6.255   2.198  0.0405  0.4267  0.1441
  457MOL0     C61600   8.687   6.130   2.140 -0.5790  1.1651 -0.4392
  457MOL0     C61601   8.813   6.085   2.210 -0.7935 -0.4231  0.2380
  457MOL0     C61602   8.786   5.997   2.332  0.0521  0.9580  0.2400
  457MOL0     C61603   8.915   5.965   2.410 -0.1334  0.8382  0.6011
  457MOL0    Cl61604   8.986   6.124   2.460  0.2034 -0.7744 -0.4367
  457MOL0     C61605   7.978   6.117   2.084 -0.8330 -0.0626  0.0198
  457MOL0     C61606   7.838   6.128   2.076  0.6167 -0.4882  0.0442
  457MOL0     O61607   7.641   5.920   1.941 -0.0895 -0.3870 -0.5186
  457MOL0     C61608   7.334   6.063   2.059  0.2230 -0.3753  0.1492
  457MOL0     C61609   7.204   6.072   2.004 -0.2597 -0.2205 -0.1067
  457MOL0     N61610   6.612   6.006   2.189 -0.3689 -0.2567 -0.8039
  457MOL0     N61611   6.567   5.968   2.312 -0.2973 -0.7847  0.2860
  457MOL0     C61612   7.132   5.600   2.751 -0.3279  0.5303  0.0395
  457MOL0     C61613   7.254   5.668   2.747  0.5527  0.0268  0.7097
  457MOL0     C61614   7.705   5.669   2.654  0.3213 -0.4868 -1.0613
  457MOL0     C61615   7.727   5.807   2.633 -0.0955  0.1280  0.3363
  457MOL0     C61616   7.855   5.861   2.595 -0.3157 -0.1141  0.1477
  457MOL0     C61617   7.967   5.780   2.603 -0.0878  0.9858 -0.6256
  457MOL0     O61618   8.087   5.834   2.572  0.5385  0.6442  0.7566
  457MOL0     C61619   8.184   5.845   2.673  0.0643 -1.0077  1.3396
  457MOL0     C61620   8.265   5.966   2.654 -0.2224  0.1444  0.3028
  457MOL0     C61621   8.348   5.962   2.534 -0.4169  0.1923  0.3068
  457MOL0     C61622   8.467   5.857   2.549 -0.2892 -0.6636 -0.8763
  457MOL0     C61623   8.573   5.911   2.628 -0.3914 -0.1624 -0.4189
  457MOL0     C61624   8.671   5.943   2.694  0.0621  0.0253 -0.0590
  457MOL0     C61625   7.948   5.636   2.633 -0.4916 -0.4501 -0.3229
  457MOL0     C61626   7.819   5.583   2.643 -0.6259 -0.8049 -0.9715
  457MOL0     C61627   7.808   5.432   2.629  0.4318  0.4908 -0.4684
  457MOL0     H61628   7.411   5.465   2.512  0.7021  2.3654 -0.7487
  457MOL0     H61629   7.199   5.353   2.512 -0.0196 -0.0973  0.5498
  457MOL0     H61630   6.957   5.354   2.471 -1.9015 -0.2298  0.1782
  457MOL0     H61631   7.017   5.227   2.580  0.2140  0.7502  0.3342
  457MOL0     H61632   6.779   5.273   2.697 -1.0188 -0.3469 -0.0932
  457MOL0     H61633   6.800   5.167   2.567  3.5489 -0.2422 -0.6778
  457MOL0     H61634   6.724   5.334   2.401  1.0574  1.2236  0.4073
  457MOL0     H61635   6.745   5.465   2.514 -1.7332  1.0258  3.3510
  457MOL0     H61636   6.545   5.238   2.538 -0.0255  1.0284 -2.0499
  457MOL0     H61637   6.566   5.378   2.656  0.5958 -0.8113  1.2553
  457MOL0     H61638   6.458   5.368   2.375  0.7797  1.0216 -0.9313
  457MOL0     H61639   6.379   5.424   2.529  0.8264  1.7143  0.6950
  457MOL0     H61640   6.569   5.614   2.530 -0.8913 -2.0603  2.3803
  457MOL0     H61641   6.580   5.592   2.357  0.5332 -0.8151  0.6867
  457MOL0     H61642   6.299   5.642   2.466 -1.0162 -1.0099 -1.2280
  457MOL0     H61643   6.335   5.638   2.301 -1.7592  1.1771  1.0599
  457MOL0     H61644   6.317   5.860   2.399 -0.4639 -0.4068  0.1295
  457MOL0     H61645   6.459   5.843   2.497  0.6134  1.8896 -1.2840
  457MOL0     H61646   6.461   5.729   2.116 -1.3998  0.9240  0.9290
  457MOL0     H61647   6.592   5.836   1.904 -0.8401 -1.4464  3.2222
  457MOL0     H61648   6.587   6.019   1.910  3.2130  0.9135 -1.4593
  457MOL0     H61649   6.805   6.034   1.978  0.1391 -0.9804  1.9152
  457MOL0     H61650   6.821   5.863   2.018 -1.3546 -1.1112  0.3994
  457MOL0     H61651   6.779   5.990   1.730 -1.2136 -1.6223 -0.6327
  457MOL0     H61652   6.770   5.818   1.763  0.3537 -0.4868 -0.3110
  457MOL0     H61653   6.995   5.916   1.674 -0.1636 -0.5674 -0.7268
  457MOL0     H61654   7.018   5.811   1.812  0.2821  0.5401  1.7382
  457MOL0     H61655   7.234   5.868   1.738  2.7167 -1.5065  0.2489
  457MOL0     H61656   7.451   5.836   1.825 -0.7505 -3.3715  2.3885
  457MOL0     H61657   7.752   5.906   2.315 -4.3217 -0.7527 -4.2034
  457MOL0     H61658   8.012   5.895   2.326 -0.2174 -1.9290 -0.8746
  457MOL0     H61659   8.237   6.184   2.054 -2.3077 -3.0693 -0.4265
  457MOL0     H61660   8.200   6.259   2.215  2.3035 -1.4974  1.7660
  457MOL0     H61661   8.388   6.164   2.319  0.5547  1.9897  0.1768
  457MOL0     H61662   8.415   6.059   2.171 -1.8663  0.4062  0.6775
  457MOL0     H61663   8.481   6.233   2.040 -3.4669 -0.7703  0.0723
  457MOL0     H61664   8.454   6.357   2.171  0.9985  0.5677 -0.6100
  457MOL0     H61665   8.620   6.241   2.306  0.2576 -0.5992  0.0286
  457MOL0     H61666   8.690   6.334   2.164  1.8710 -0.8494  0.6148
  457MOL0     H61667   8.717   6.153   2.037 -0.4585  3.3306  0.0304
  457MOL0     H61668   8.625   6.040   2.135  0.7607 -0.1152  3.1048
  457MOL0     H61669   8.888   6.039   2.144  0.7177  1.0853  0.8231
  457MOL0     H61670   8.873   6.171   2.242 -0.4279 -0.2191 -0.9401
  457MOL0     H61671   8.746   5.902   2.296 -1.2614 -0.0184  3.8604
  457MOL0     H61672   8.710   6.045   2.395  0.0237  0.5217  0.5480
  457MOL0     H61673   8.900   5.901   2.497 -2.6610 -1.5172 -1.3908
  457MOL0     H61674   8.979   5.904   2.345 -2.1409 -2.4285  1.4532
  457MOL0     H61675   8.037   6.167   2.008 -0.4496  0.3357  0.5801
  457MOL0     H61676   7.790   6.188   1.999 -1.6248  0.7238  2.2692
  457MOL0     H61677   7.362   6.122   2.146 -1.4731  1.6067 -0.5811
  457MOL0     H61678   7.136   6.147   2.045 -0.5489 -0.3674 -0.3144
  457MOL0     H61679   7.059   5.630   2.826  1.1671  0.4661  1.5963
  457MOL0     H61680   7.273   5.767   2.789 -0.0972  0.2726  0.4370
  457MOL0     H61681   7.635   5.865   2.635  0.3020  0.8444 -1.2064
  457MOL0     H61682   7.863   5.965   2.562 -0.5522  0.0391  0.5642
  457MOL0     H61683   8.239   5.751   2.679 -1.2307 -2.0597 -1.6015
  457MOL0     H61684   8.128   5.862   2.765 -0.8643 -1.5843  0.8920
  457MOL0     H61685   8.322   5.994   2.744 -0.9573 -0.2993  0.9191
  457MOL0     H61686   8.197   6.052   2.645  0.8778  1.2816  2.0596
  457MOL0     H61687   8.399   6.055   2.506  1.8796 -1.7571 -2.5357
  457MOL0     H61688   8.297   5.943   2.439 -0.4862  1.6585  0.0189
  457MOL0     H61689   8.427   5.761   2.584 -1.6930 -0.8346 -2.8175
  457MOL0     H61690   8.510   5.849   2.449  3.7183  1.1855  0.4780
  457MOL0     H61691   8.759   5.969   2.750  0.5669  2.7389 -1.9518
  457MOL0     H61692   8.033   5.569   2.632 -1.2757 -1.4675 -0.6901
  457MOL0     H61693   7.901   5.387   2.594  2.5381  3.0607  1.4782
  457MOL0     H61694   7.780   5.376   2.718  0.0552 -2.1127 -2.1099
  457MOL0     H61695   7.731   5.411   2.553 -1.0253  2.6671  0.2976
  458MOL0     O61696  10.405   0.129   8.109  0.1411  0.3825 -0.3141
  458MOL0     C61697  10.389   0.231   8.174  0.0493  0.1268 -0.2741
  458MOL0     O61698  10.498   0.300   8.221  0.6907  0.4110 -1.1211
  458MOL0     C61699  10.610   0.233   8.256 -0.2249 -0.1591  0.5974
  458MOL0     C61700  10.607   0.147   8.368  0.0251 -0.9519  0.9168
  458MOL0     C61701  10.715   0.091   8.415 -0.9087 -0.7120  0.2500
  458MOL0     C61702  10.842   0.103   8.349 -0.0633  0.8149  0.7277
  458MOL0     O61703  10.953   0.039   8.394 -0.2566 -0.3408  0.1519
  458MOL0     C61704  11.029   0.116   8.484 -0.9938  0.3400 -0.4252
  458MOL0     C61705  11.130   0.207   8.416  0.7956  0.2876  0.3209
  458MOL0     C61706  11.221   0.272   8.515  0.0268 -0.0740 -0.0269
  458MOL0     C61707  11.305   0.371   8.432 -0.0348  0.0712  0.7170
  458MOL0     C61708  11.426   0.434   8.514 -0.1767  1.1470  0.1246
  458MOL0     C61709  11.514   0.506   8.410 -0.3236 -0.5660  0.6297
  458MOL0     C61710  11.646   0.536   8.473 -0.5065  0.3241  0.2026
  458MOL0     C61711  11.734   0.603   8.372  0.2981  0.3340  0.5621
  458MOL0     N61712  11.868   0.639   8.429  0.0822  0.2436 -0.2829
  458MOL0     C61713  11.894   0.737   8.519 -0.4326 -0.2219 -0.4573
  458MOL0     C61714  12.029   0.734   8.535 -0.4200 -0.4737 -0.0193
  458MOL0     C61715  12.110   0.811   8.627 -0.2765  0.2556 -0.4542
  458MOL0     C61716  12.247   0.854   8.581 -0.3739  0.4144  0.0164
  458MOL0     C61717  12.309   0.958   8.682  0.3050 -0.2927  0.4962
  458MOL0     C61718  12.462   0.946   8.696  0.1001 -0.1294  0.7345
  458MOL0     O61719  12.488   0.827   8.773 -0.6787 -0.4279  0.0895
  458MOL0     C61720  12.617   0.781   8.788 -0.3893 -1.2034 -0.2163
  458MOL0     C61721  12.735   0.849   8.749  0.6378 -0.5042 -0.2309
  458MOL0     C61722  12.861   0.781   8.759  0.1378 -0.3723 -0.1611
  458MOL0     C61723  12.866   0.656   8.815 -0.3864  0.1467  0.1879
  458MOL0     C61724  13.001   0.604   8.832 -0.7864 -0.2521 -0.4249
  458MOL0     O61725  13.110   0.674   8.781  0.4081 -0.5594 -0.1668
  458MOL0     C61726  13.236   0.625   8.795  0.4469 -0.0815 -0.0823
  458MOL0     C61727  13.283   0.574   8.915 -0.4819 -0.5706  0.4210
  458MOL0     C61728  13.421   0.547   8.931  0.5557 -0.2304 -0.8594
  458MOL0     C61729  13.514   0.566   8.826 -0.7238  0.7674  0.4924
  458MOL0     O61730  13.641   0.546   8.847 -0.0424  0.1023 -1.6457
  458MOL0     C61731  13.725   0.640   8.786  0.3051 -0.3138  0.6097
  458MOL0     C61732  13.875   0.610   8.817  0.2639 -0.4472  0.2756
  458MOL0     C61733  13.902   0.614   8.969 -0.3325  0.0368 -0.0657
  458MOL0     C61734  14.027   0.538   9.006 -0.5304  0.9342  0.3657
  458MOL0     C61735  14.025   0.508   9.160  0.2590 -0.1346 -0.2460
  458MOL0     C61736  14.151   0.430   9.213  0.6663  0.1440  1.0120
  458MOL0     C61737  14.128   0.400   9.361  0.5470 -0.2059  0.1944
  458MOL0     C61738  14.261   0.360   9.427  0.5700 -0.2892 -0.3695
  458MOL0    Cl61739  14.327   0.204   9.365  0.3973  0.1818 -0.2271
  458MOL0     C61740  13.463   0.613   8.707  0.8450 -0.2418  0.0835
  458MOL0     C61741  13.325   0.647   8.696  0.2841 -0.0062 -0.5499
  458MOL0     O61742  13.010   0.502   8.902  0.3776 -0.1980  0.0177
  458MOL0     C61743  12.749   0.603   8.868 -0.5826 -0.5183 -0.9548
  458MOL0     C61744  12.622   0.661   8.853  0.5316 -0.2446 -0.6224
  458MOL0     N61745  12.082   0.651   8.432  0.7278 -0.2749 -0.0225
  458MOL0     N61746  11.987   0.596   8.374 -0.0203  0.4550  0.3242
  458MOL0     C61747  10.842   0.199   8.240  0.1004 -0.3520  0.0796
  458MOL0     C61748  10.731   0.267   8.200 -0.9129  0.1974  0.0671
  458MOL0     C61749  10.246   0.273   8.203 -0.0188  0.2585  0.5205
  458MOL0     C61750  10.141   0.179   8.210 -0.1456 -0.0582 -0.1295
  458MOL0     C61751  10.012   0.210   8.249 -0.1569 -0.2976 -0.0716
  458MOL0     C61752   9.990   0.335   8.300 -0.3737  0.2761  0.5824
  458MOL0     O61753   9.860   0.367   8.350  0.1769 -0.1797 -0.3226
  458MOL0     C61754   9.743   0.345   8.267  0.1905 -0.2372 -0.0290
  458MOL0     C61755   9.722   0.465   8.185 -0.1799  0.2936 -0.1232
  458MOL0     C61756   9.574   0.502   8.153 -0.9018 -0.0566  0.6310
  458MOL0     C61757   9.488   0.557   8.271  0.6333  0.9931 -0.3809
  458MOL0     C61758   9.354   0.595   8.217  0.7293  0.0334  0.8855
  458MOL0     C61759   9.266   0.642   8.149  0.2714  0.7720 -0.0862
  458MOL0     C61760  10.084   0.429   8.296 -0.4606  0.0388  1.3721
  458MOL0     C61761  10.213   0.404   8.239 -0.0975 -0.4013 -0.0050
  458MOL0     C61762  10.314   0.519   8.235  0.0453  0.4557  0.1102
  458MOL0     H61763  10.508   0.137   8.412  0.6380  0.8342  2.8062
  458MOL0     H61764  10.707   0.022   8.498  0.9693 -0.1734  0.9291
  458MOL0     H61765  10.955   0.168   8.545 -0.1231 -0.8341  1.7606
  458MOL0     H61766  11.081   0.045   8.549 -1.2603 -0.6458 -1.2658
  458MOL0     H61767  11.077   0.289   8.366 -1.1135 -0.3008  1.3087
  458MOL0     H61768  11.178   0.144   8.340  0.0823  0.8889 -0.6658
  458MOL0     H61769  11.281   0.193   8.561  0.0707 -0.3976 -0.6277
  458MOL0     H61770  11.160   0.332   8.583 -0.0634  4.8463 -3.9190
  458MOL0     H61771  11.337   0.311   8.346 -3.6817 -1.4967  0.2803
  458MOL0     H61772  11.246   0.455   8.394 -1.4174 -1.2821 -0.2767
  458MOL0     H61773  11.389   0.492   8.599  1.4667  0.2717  1.5042
  458MOL0     H61774  11.480   0.346   8.552 -1.0635  0.9362  0.9634
  458MOL0     H61775  11.529   0.450   8.317  1.3352 -0.0667  0.5629
  458MOL0     H61776  11.467   0.603   8.392  2.7638  0.7941 -0.8517
  458MOL0     H61777  11.702   0.450   8.508  2.2211  2.6112  1.8969
  458MOL0     H61778  11.649   0.599   8.562  0.1743  1.2532 -0.4504
  458MOL0     H61779  11.753   0.540   8.284 -0.5190  0.5802  0.1976
  458MOL0     H61780  11.687   0.700   8.349  1.5080  1.4889  2.6147
  458MOL0     H61781  11.825   0.799   8.575 -0.9984 -2.9304  2.0536
  458MOL0     H61782  12.055   0.896   8.667 -1.0040  0.6614 -2.2076
  458MOL0     H61783  12.121   0.741   8.711 -2.2727 -0.5713 -0.8299
  458MOL0     H61784  12.302   0.759   8.581 -1.0311  0.0153  0.9015
  458MOL0     H61785  12.245   0.893   8.479 -1.3977  3.5622  1.1063
  458MOL0     H61786  12.269   0.956   8.784 -1.4754 -1.4334 -0.1760
  458MOL0     H61787  12.288   1.050   8.628  0.4816 -0.1487  0.6719
  458MOL0     H61788  12.499   1.027   8.760  1.2167  0.4090 -0.5594
  458MOL0     H61789  12.509   0.951   8.598  1.6011 -0.0797  1.4346
  458MOL0     H61790  12.726   0.949   8.706 -0.5222  0.0321  1.1692
  458MOL0     H61791  12.946   0.836   8.718  1.3479 -2.3100 -0.4009
  458MOL0     H61792  13.216   0.550   8.997 -1.7396 -0.6577 -0.6029
  458MOL0     H61793  13.450   0.506   9.028 -2.8603 -1.5597 -0.2772
  458MOL0     H61794  13.716   0.629   8.678  2.9224  3.8700 -0.2363
  458MOL0     H61795  13.711   0.744   8.817 -0.1293  0.0687 -0.8191
  458MOL0     H61796  13.897   0.508   8.785  1.4692  1.0046 -4.1226
  458MOL0     H61797  13.930   0.681   8.755 -0.2963  0.2098  0.5198
  458MOL0     H61798  13.912   0.719   8.999  1.6559 -0.1205 -0.0410
  458MOL0     H61799  13.819   0.576   9.029 -0.5422 -0.9878 -0.9905
  458MOL0     H61800  14.116   0.595   8.977  0.1159  0.2296  0.9437
  458MOL0     H61801  14.022   0.441   8.956  0.3408  0.1199  1.8011
  458MOL0     H61802  13.939   0.446   9.187 -1.3063  2.1149  0.3140
  458MOL0     H61803  14.010   0.602   9.214  1.9803  2.0918 -3.2726
  458MOL0     H61804  14.170   0.335   9.163 -0.9207 -0.8488  2.1667
  458MOL0     H61805  14.242   0.488   9.198 -0.2509  1.1346 -1.2167
  458MOL0     H61806  14.060   0.315   9.372  0.1493 -0.3429 -2.5169
  458MOL0     H61807  14.101   0.493   9.412  0.6398 -0.3357  0.4823
  458MOL0     H61808  14.337   0.439   9.425 -0.0070  0.4706  2.5909
  458MOL0     H61809  14.240   0.360   9.534 -0.6246  2.3623 -0.5160
  458MOL0     H61810  13.526   0.645   8.625  0.6656  0.5854  0.2602
  458MOL0     H61811  13.283   0.700   8.611 -0.0677  0.5527 -0.0359
  458MOL0     H61812  12.754   0.510   8.923 -0.7142  0.9092  1.6413
  458MOL0     H61813  12.537   0.603   8.889 -1.7754  2.0762 -1.9950
  458MOL0     H61814  10.931   0.204   8.179  0.0070  2.0052  0.0664
  458MOL0     H61815  10.718   0.333   8.115 -4.5233  0.8039  0.9251
  458MOL0     H61816  10.167   0.078   8.178  2.2212  0.0425  1.1716
  458MOL0     H61817   9.932   0.138   8.261 -0.7063  0.3757  0.3606
  458MOL0     H61818   9.649   0.319   8.316  1.4936 -0.5250  2.4831
  458MOL0     H61819   9.751   0.252   8.210 -2.5896 -2.6393  3.1230
  458MOL0     H61820   9.773   0.439   8.092 -0.6794  0.8143 -0.5480
  458MOL0     H61821   9.764   0.547   8.243  0.6002 -1.0835  1.3184
  458MOL0     H61822   9.523   0.421   8.099 -2.9452  2.1370 -0.9572
  458MOL0     H61823   9.570   0.581   8.077 -1.1830 -1.3436 -0.7567
  458MOL0     H61824   9.482   0.492   8.358  2.6662 -0.6253 -1.3575
  458MOL0     H61825   9.542   0.646   8.306  3.5522 -1.0836  0.7894
  458MOL0     H61826   9.186   0.673   8.086  2.3720 -1.4012 -4.2651
  458MOL0     H61827  10.055   0.522   8.344 -0.8577 -0.6290  2.4765
  458MOL0     H61828  10.357   0.532   8.135  1.2809 -0.3107  0.5121
  458MOL0     H61829  10.270   0.615   8.264  0.7862 -0.1334  3.6814
  458MOL0     H61830  10.393   0.506   8.310 -0.3466  3.7507  1.2517
  459MOL0     O61831  10.328   5.501   1.061 -0.6151 -0.4023  0.1095
  459MOL0     C61832  10.350   5.464   1.175 -0.3017 -0.4368  0.2000
  459MOL0     O61833  10.259   5.408   1.246 -0.3402 -0.1230  0.4684
  459MOL0     C61834  10.131   5.419   1.192  0.0506 -0.0130  0.5465
  459MOL0     C61835  10.087   5.338   1.083 -0.5238  0.4320 -0.4789
  459MOL0     C61836   9.955   5.334   1.045 -0.4966 -0.3627 -0.6031
  459MOL0     C61837   9.855   5.417   1.104 -0.1042  0.6479  0.6007
  459MOL0     O61838   9.727   5.436   1.058 -0.4387  0.5278 -0.9296
  459MOL0     C61839   9.670   5.330   0.999  0.2115 -0.8760  0.5209
  459MOL0     C61840   9.515   5.341   1.019 -0.1773  0.7392  0.3179
  459MOL0     C61841   9.422   5.219   1.003  1.1956 -0.0860 -0.8977
  459MOL0     C61842   9.303   5.262   0.910  0.1861 -0.1695  0.5836
  459MOL0     C61843   9.193   5.152   0.907  0.2187 -0.1498  0.6963
  459MOL0     C61844   9.092   5.198   0.797 -0.5104 -0.0460 -0.0383
  459MOL0     C61845   8.947   5.149   0.820 -0.0861 -0.5806  0.7805
  459MOL0     C61846   8.943   4.997   0.830  0.7365 -0.3904 -0.8055
  459MOL0     N61847   8.801   4.946   0.855 -1.0017 -0.1553  0.4782
  459MOL0     C61848   8.683   5.016   0.856 -0.1430  0.2491  0.2308
  459MOL0     C61849   8.586   4.932   0.904 -0.5198  0.0575 -0.5987
  459MOL0     C61850   8.436   4.958   0.894  0.6974 -0.3576 -0.2672
  459MOL0     C61851   8.360   4.933   0.764 -0.0839  0.4750  0.4551
  459MOL0     C61852   8.387   5.021   0.635  0.4439 -0.8930  0.1360
  459MOL0     C61853   8.312   5.159   0.621  0.7770  0.1739 -0.1335
  459MOL0     O61854   8.321   5.250   0.738  0.2243  0.3845  0.2197
  459MOL0     C61855   8.442   5.301   0.772  0.7233 -0.0805  0.4568
  459MOL0     C61856   8.463   5.358   0.899 -0.4565 -0.2682  0.0834
  459MOL0     C61857   8.583   5.414   0.936  0.2118 -0.8633 -0.0968
  459MOL0     C61858   8.683   5.445   0.835  0.7582  0.5187 -0.4164
  459MOL0     C61859   8.802   5.527   0.867 -0.0707 -0.1092  1.2317
  459MOL0     O61860   8.829   5.553   0.998  0.4110  0.6393 -0.2884
  459MOL0     C61861   8.952   5.613   1.033  0.1526  0.4639  0.2529
  459MOL0     C61862   8.940   5.679   1.151 -0.0433 -0.6206  0.1977
  459MOL0     C61863   9.053   5.738   1.209 -0.0896 -0.0735 -0.0957
  459MOL0     C61864   9.181   5.727   1.143  0.3444  0.9345 -0.3043
  459MOL0     O61865   9.287   5.798   1.173  0.2599 -0.6126 -0.1958
  459MOL0     C61866   9.348   5.748   1.289 -0.6084  0.1595  0.5873
  459MOL0     C61867   9.495   5.750   1.249  0.2587 -0.7666  0.6766
  459MOL0     C61868   9.585   5.724   1.365 -0.2341  0.0748 -0.3502
  459MOL0     C61869   9.590   5.834   1.468  0.6099 -0.2135 -0.1851
  459MOL0     C61870   9.686   5.807   1.585  0.2553  0.0698  0.0542
  459MOL0     C61871   9.670   5.914   1.691  0.5497  0.0916 -0.2023
  459MOL0     C61872   9.761   5.887   1.809  0.2863  0.0468  1.1048
  459MOL0     C61873   9.910   5.903   1.771 -0.3752 -0.2688 -0.7604
  459MOL0    Cl61874   9.951   6.069   1.703 -0.1562 -0.2408 -0.0138
  459MOL0     C61875   9.186   5.658   1.020  0.2023 -0.1422 -0.1162
  459MOL0     C61876   9.076   5.589   0.968  0.2172  0.4551 -0.8834
  459MOL0     O61877   8.878   5.562   0.781 -0.5108  0.3333  0.2689
  459MOL0     C61878   8.648   5.411   0.706 -0.0946 -0.2408  0.9783
  459MOL0     C61879   8.533   5.334   0.680 -0.3349  0.3067  0.6812
  459MOL0     N61880   8.651   4.823   0.961  0.3343 -0.0799  0.1511
  459MOL0     N61881   8.780   4.832   0.928  0.6833 -0.2352  0.0659
  459MOL0     C61882   9.897   5.486   1.213  0.5540  0.5808 -0.4632
  459MOL0     C61883  10.033   5.493   1.259 -0.0114 -0.8958  0.5727
  459MOL0     C61884  10.486   5.481   1.232  0.0520  0.0361 -0.2104
  459MOL0     C61885  10.503   5.457   1.371  0.6807  0.4467  0.6235
  459MOL0     C61886  10.618   5.492   1.427 -0.2206  0.1047 -0.4626
  459MOL0     C61887  10.733   5.542   1.357  0.5570  0.5081  0.6527
  459MOL0     O61888  10.842   5.575   1.433  0.0729 -0.5340 -0.9873
  459MOL0     C61889  10.861   5.720   1.439 -0.3719  1.3064 -0.1236
  459MOL0     C61890  10.748   5.795   1.514 -0.6426  0.2841 -0.4074
  459MOL0     C61891  10.762   5.942   1.532  0.3171 -0.1469  0.1529
  459MOL0     C61892  10.706   5.982   1.678  0.3087 -0.7144 -0.2599
  459MOL0     C61893  10.567   6.020   1.668  0.2793 -0.0156  0.8963
  459MOL0     C61894  10.447   6.039   1.651 -1.0731 -0.4006  0.2486
  459MOL0     C61895  10.715   5.566   1.219 -0.2389  0.0650  0.2265
  459MOL0     C61896  10.598   5.527   1.155  1.2659  0.3180 -0.3172
  459MOL0     C61897  10.595   5.548   1.010  0.1285 -0.3119  0.0713
  459MOL0     H61898  10.166   5.277   1.041 -0.6341 -0.2895  0.3326
  459MOL0     H61899   9.940   5.280   0.952 -1.5266 -1.4896  0.2025
  459MOL0     H61900   9.687   5.326   0.891 -2.5589  0.6339 -0.0794
  459MOL0     H61901   9.697   5.232   1.040  2.2241  0.6369  3.1392
  459MOL0     H61902   9.494   5.433   0.963 -0.1979  0.2346 -0.5207
  459MOL0     H61903   9.498   5.370   1.123 -1.2881  1.0040  0.0755
  459MOL0     H61904   9.367   5.199   1.095 -0.6921  2.5746 -1.3467
  459MOL0     H61905   9.461   5.129   0.954 -1.3485 -0.9495 -1.4840
  459MOL0     H61906   9.254   5.354   0.942 -1.4695 -0.6447 -0.4455
  459MOL0     H61907   9.350   5.279   0.812  0.4934 -4.3427 -0.1845
  459MOL0     H61908   9.235   5.055   0.877 -1.0837 -0.3756 -0.4486
  459MOL0     H61909   9.147   5.140   1.006  1.7211  2.1792  1.7906
  459MOL0     H61910   9.083   5.307   0.798  1.3008  0.1331  0.2736
  459MOL0     H61911   9.131   5.168   0.700  1.1826 -0.8708  0.8452
  459MOL0     H61912   8.868   5.182   0.753  1.0051  0.3387 -0.0933
  459MOL0     H61913   8.918   5.199   0.913 -0.4103 -0.7121  0.7523
  459MOL0     H61914   8.975   4.946   0.739  0.1324 -3.9130  0.7747
  459MOL0     H61915   9.004   4.964   0.914 -0.2049  1.1937  0.5710
  459MOL0     H61916   8.664   5.112   0.808  1.0040 -1.2270 -3.5701
  459MOL0     H61917   8.398   4.898   0.978  0.3629 -1.9543 -1.5190
  459MOL0     H61918   8.398   5.058   0.917  1.2206 -0.3841  0.7805
  459MOL0     H61919   8.385   4.831   0.733 -0.0812 -0.0224  2.0197
  459MOL0     H61920   8.253   4.938   0.786 -0.6343  1.0730 -2.0402
  459MOL0     H61921   8.353   4.964   0.548  2.8536  0.0276 -1.5128
  459MOL0     H61922   8.495   5.031   0.622  0.3805  0.0312  0.2247
  459MOL0     H61923   8.207   5.129   0.619  0.7739 -0.6743  4.2267
  459MOL0     H61924   8.342   5.215   0.532 -0.5666  0.4135 -0.4578
  459MOL0     H61925   8.384   5.354   0.973 -0.6820  0.1807 -0.1311
  459MOL0     H61926   8.598   5.457   1.035 -0.7631 -2.3605  0.7242
  459MOL0     H61927   8.839   5.699   1.187  0.0084  0.0110  0.0109
  459MOL0     H61928   9.025   5.786   1.302  2.4834 -1.2233  1.3847
  459MOL0     H61929   9.320   5.805   1.378 -2.2954 -1.5033  1.1993
  459MOL0     H61930   9.331   5.641   1.308  1.0497 -0.3328 -0.5076
  459MOL0     H61931   9.510   5.679   1.167  5.0852  1.2396 -0.5580
  459MOL0     H61932   9.521   5.844   1.200 -2.8046 -0.8397 -1.3388
  459MOL0     H61933   9.565   5.629   1.417  2.7010  0.6258  2.0623
  459MOL0     H61934   9.685   5.711   1.322 -0.9726  0.4840 -2.2994
  459MOL0     H61935   9.487   5.833   1.504 -0.3595 -1.1071 -2.7218
  459MOL0     H61936   9.600   5.932   1.420 -1.5510 -0.8816 -2.2182
  459MOL0     H61937   9.790   5.817   1.554  1.4256  4.8776  4.0747
  459MOL0     H61938   9.667   5.710   1.631  0.1035  0.6365  1.2257
  459MOL0     H61939   9.680   6.018   1.660 -2.2702  1.3134  2.4472
  459MOL0     H61940   9.570   5.915   1.736  0.8112  4.4099  0.6745
  459MOL0     H61941   9.761   5.784   1.845  1.4952 -0.6830 -0.8256
  459MOL0     H61942   9.743   5.958   1.891 -0.8941 -0.8680  1.6652
  459MOL0     H61943   9.965   5.913   1.866 -3.6106  4.9346  1.0163
  459MOL0     H61944   9.932   5.816   1.709  1.1847 -0.3885 -0.1033
  459MOL0     H61945   9.287   5.648   0.981  0.1529 -0.7603 -0.0844
  459MOL0     H61946   9.083   5.520   0.884  1.3618 -0.3854 -0.1301
  459MOL0     H61947   8.721   5.437   0.631  0.6902 -2.2202  0.9819
  459MOL0     H61948   8.529   5.307   0.575  0.7239 -0.0355  0.7167
  459MOL0     H61949   9.815   5.534   1.266 -0.7372 -0.5986 -1.3107
  459MOL0     H61950  10.081   5.547   1.340  1.7198 -1.8755  0.2513
  459MOL0     H61951  10.410   5.436   1.423 -0.3304 -0.5442 -1.4616
  459MOL0     H61952  10.629   5.473   1.533 -0.1825 -3.9346 -1.0558
  459MOL0     H61953  10.874   5.757   1.337 -0.7521  0.8608 -0.3355
  459MOL0     H61954  10.958   5.734   1.487 -0.0163  3.2632 -1.3356
  459MOL0     H61955  10.747   5.737   1.607  0.5055 -1.2493 -1.3129
  459MOL0     H61956  10.650   5.776   1.468  0.4362 -1.1561 -2.2240
  459MOL0     H61957  10.715   5.986   1.443 -1.7503 -0.8109  0.8443
  459MOL0     H61958  10.868   5.969   1.535  0.7310 -1.5688 -0.3356
  459MOL0     H61959  10.732   5.911   1.757  0.3806 -1.1568 -0.6761
  459MOL0     H61960  10.753   6.077   1.704  1.7253 -1.0809 -1.3532
  459MOL0     H61961  10.342   6.060   1.653 -0.8410  0.8201  0.3977
  459MOL0     H61962  10.799   5.596   1.157 -1.3304 -1.3830 -2.0506
  459MOL0     H61963  10.555   5.464   0.952  1.0514 -0.2482 -0.6792
  459MOL0     H61964  10.534   5.636   0.986 -1.1389 -1.1077  0.2622
  459MOL0     H61965  10.700   5.550   0.979  1.3332 -0.1444  3.7574
  460MOL0     O61966   4.620   4.783   8.422  0.6470 -0.3139  0.4896
  460MOL0     C61967   4.616   4.745   8.308 -0.6149 -0.1118  0.2111
  460MOL0     O61968   4.730   4.676   8.246  0.1700  0.0310  0.4715
  460MOL0     C61969   4.851   4.699   8.307  0.5035  0.4771 -0.2941
  460MOL0     C61970   4.960   4.764   8.244 -0.1222 -0.2761 -0.0682
  460MOL0     C61971   5.081   4.772   8.301 -0.1903 -0.5482 -0.8337
  460MOL0     C61972   5.104   4.731   8.431  0.1784  0.0569 -0.5204
  460MOL0     O61973   5.231   4.730   8.486  0.5467 -0.1462 -0.5903
  460MOL0     C61974   5.290   4.599   8.497 -0.6061 -0.1235 -0.5920
  460MOL0     C61975   5.438   4.621   8.491  0.3292 -0.1739  0.5226
  460MOL0     C61976   5.490   4.709   8.602 -0.5711  0.3072  0.1116
  460MOL0     C61977   5.639   4.715   8.590  0.5782 -0.0740 -0.3198
  460MOL0     C61978   5.702   4.815   8.678 -0.3765 -0.3899  0.0123
  460MOL0     C61979   5.674   4.965   8.646  0.2201 -0.3463  0.0995
  460MOL0     C61980   5.718   5.000   8.510 -0.6039  0.1870 -0.5319
  460MOL0     C61981   5.738   5.150   8.481 -0.1808  0.3664 -0.1901
  460MOL0     N61982   5.804   5.180   8.350 -0.1442  0.1205 -0.1957
  460MOL0     C61983   5.771   5.144   8.221 -0.6246 -0.0850 -0.2224
  460MOL0     C61984   5.880   5.179   8.143 -0.1208  0.3568  0.0849
  460MOL0     C61985   5.886   5.162   7.993  0.6270  0.5118 -0.4377
  460MOL0     C61986   5.779   5.260   7.936  0.7591 -0.5867 -1.0432
  460MOL0     C61987   5.807   5.284   7.781  0.2572  0.0044 -1.3377
  460MOL0     C61988   5.950   5.328   7.721  0.4253  0.1983 -0.6446
  460MOL0     O61989   5.995   5.437   7.804  0.9951  0.2121 -0.2747
  460MOL0     C61990   6.118   5.492   7.776  1.3220  0.4178 -0.1863
  460MOL0     C61991   6.204   5.434   7.687  0.1786 -0.6716 -0.2391
  460MOL0     C61992   6.319   5.502   7.651 -0.8843  0.0267 -0.7992
  460MOL0     C61993   6.364   5.618   7.713  0.0889  0.4495 -0.0869
  460MOL0     C61994   6.490   5.689   7.690  0.0635 -0.9885  0.5236
  460MOL0     O61995   6.566   5.637   7.596 -0.0284  0.0820  0.3164
  460MOL0     C61996   6.699   5.648   7.588  0.3486  0.3258  0.0416
  460MOL0     C61997   6.760   5.573   7.492  0.1864 -0.3790 -0.0879
  460MOL0     C61998   6.895   5.579   7.486  0.3582 -0.3201  0.6235
  460MOL0     C61999   6.981   5.644   7.576  0.0822 -0.5973 -0.4487
  460MOL0     O62000   7.110   5.651   7.537  0.3444  0.2398 -0.7416
  460MOL0     C62001   7.209   5.599   7.638  0.6956 -0.1148  0.0621
  460MOL0     C62002   7.357   5.607   7.603  0.9347 -0.6647  0.1210
  460MOL0     C62003   7.394   5.757   7.588 -0.2388  0.3261  0.4348
  460MOL0     C62004   7.528   5.770   7.512  0.0782  0.3692 -0.1618
  460MOL0     C62005   7.570   5.920   7.514  0.2043  0.6117  0.2536
  460MOL0     C62006   7.699   5.944   7.435  0.0004 -0.1444  0.7056
  460MOL0     C62007   7.754   6.081   7.448 -0.7291 -0.1122 -0.5773
  460MOL0     C62008   7.814   6.135   7.326  0.5297 -0.2644  0.4392
  460MOL0    Cl62009   7.675   6.174   7.205  0.1299  0.4439  0.1425
  460MOL0     C62010   6.920   5.713   7.678  1.1599 -0.4882 -0.0457
  460MOL0     C62011   6.782   5.722   7.680  0.0414  0.0590 -0.0354
  460MOL0     O62012   6.504   5.799   7.741  0.2208  0.2067  0.6050
  460MOL0     C62013   6.283   5.674   7.812 -0.5054  0.1229 -0.2119
  460MOL0     C62014   6.162   5.612   7.832  0.1731 -0.4062 -0.4094
  460MOL0     N62015   5.983   5.226   8.225 -0.4702 -0.0568 -0.8350
  460MOL0     N62016   5.928   5.235   8.342 -0.1631 -1.0694 -0.1262
  460MOL0     C62017   5.003   4.663   8.497  0.2707  0.3324 -0.0387
  460MOL0     C62018   4.880   4.649   8.435  0.6290  0.4887 -1.1638
  460MOL0     C62019   4.478   4.727   8.254 -0.1769 -0.0645  1.3573
  460MOL0     C62020   4.382   4.806   8.306  1.3311  0.3836  0.8257
  460MOL0     C62021   4.243   4.804   8.262  0.2721  0.0896  0.8263
  460MOL0     C62022   4.207   4.720   8.151 -0.8609 -0.1771 -0.1002
  460MOL0     O62023   4.072   4.724   8.120 -0.1304  0.2184  0.2265
  460MOL0     C62024   4.017   4.650   8.005 -0.3732 -0.0585 -0.3661
  460MOL0     C62025   3.867   4.640   8.004  0.4614  0.2148 -0.1618
  460MOL0     C62026   3.790   4.762   8.053  0.0413  0.5767  0.4042
  460MOL0     C62027   3.637   4.754   8.044  0.2162  0.6178 -0.5579
  460MOL0     C62028   3.563   4.669   8.138 -0.2643  0.5045  0.6577
  460MOL0     C62029   3.504   4.598   8.213 -0.2954 -0.8267 -0.0483
  460MOL0     C62030   4.307   4.632   8.106  1.2930 -0.5312  0.7978
  460MOL0     C62031   4.439   4.629   8.151 -0.4275 -0.1470  0.2838
  460MOL0     C62032   4.536   4.529   8.093  0.7435 -1.1779  0.3076
  460MOL0     H62033   4.947   4.801   8.143  1.7379 -2.1261 -1.0724
  460MOL0     H62034   5.153   4.832   8.246 -0.9576  2.3838  1.0889
  460MOL0     H62035   5.269   4.554   8.595 -0.4446  0.5747 -0.2281
  460MOL0     H62036   5.275   4.538   8.408  1.1063  2.4730 -2.8081
  460MOL0     H62037   5.455   4.675   8.397  0.9600 -0.0740  0.6907
  460MOL0     H62038   5.489   4.524   8.489  1.4694  0.3069  3.0623
  460MOL0     H62039   5.464   4.662   8.698 -2.2629 -0.9696 -0.9130
  460MOL0     H62040   5.443   4.808   8.592  1.8311  1.3537 -1.6309
  460MOL0     H62041   5.689   4.622   8.619  0.8358 -0.2413 -1.2658
  460MOL0     H62042   5.670   4.741   8.488 -1.1201  2.5167 -0.2778
  460MOL0     H62043   5.672   4.809   8.783 -0.6951  3.5702  0.2916
  460MOL0     H62044   5.811   4.806   8.670 -0.2518 -0.0710  1.0768
  460MOL0     H62045   5.570   4.995   8.662 -0.2594 -0.9306 -1.7408
  460MOL0     H62046   5.739   5.012   8.721  0.2304  0.1719 -0.2296
  460MOL0     H62047   5.672   4.957   8.421 -0.2297  1.6832 -1.4869
  460MOL0     H62048   5.817   4.964   8.481 -0.7597  1.0340 -2.2580
  460MOL0     H62049   5.638   5.195   8.483 -0.1376  0.4325  0.8292
  460MOL0     H62050   5.807   5.182   8.559 -1.6994  0.2206  1.2776
  460MOL0     H62051   5.677   5.109   8.178 -1.7671  2.6665 -0.1431
  460MOL0     H62052   5.985   5.192   7.960  0.3109  2.0520 -0.0922
  460MOL0     H62053   5.868   5.058   7.965 -3.2377  1.2515 -1.2802
  460MOL0     H62054   5.678   5.220   7.949 -0.2676  1.9299 -0.6888
  460MOL0     H62055   5.775   5.351   7.997 -2.5409 -2.1456  1.4025
  460MOL0     H62056   5.740   5.368   7.757  1.6295  1.3522 -0.6026
  460MOL0     H62057   5.792   5.187   7.733  3.7921 -0.9098 -0.8271
  460MOL0     H62058   5.946   5.349   7.614  0.1372 -1.1067 -0.9172
  460MOL0     H62059   6.024   5.247   7.726 -1.5944 -1.7967 -1.0879
  460MOL0     H62060   6.176   5.343   7.634 -0.8642 -0.6085  0.1784
  460MOL0     H62061   6.381   5.465   7.570 -0.8937  3.5202 -2.5463
  460MOL0     H62062   6.695   5.515   7.428 -1.3304  0.9248  0.2161
  460MOL0     H62063   6.946   5.527   7.405 -1.9376 -3.2964  0.8716
  460MOL0     H62064   7.199   5.648   7.735 -0.0853  1.2947 -0.7117
  460MOL0     H62065   7.191   5.492   7.653 -1.7343  0.1038 -0.8439
  460MOL0     H62066   7.415   5.561   7.684  1.0272 -2.1376 -0.7405
  460MOL0     H62067   7.372   5.551   7.510  0.7235  0.3854 -0.5515
  460MOL0     H62068   7.307   5.807   7.545 -1.2709 -0.2588  1.7715
  460MOL0     H62069   7.399   5.788   7.693 -3.4073  1.1334  0.4358
  460MOL0     H62070   7.505   5.741   7.409 -4.7914  1.1278  0.5018
  460MOL0     H62071   7.614   5.715   7.551  1.5075  1.6869 -1.2848
  460MOL0     H62072   7.594   5.956   7.614  1.0420  2.3274 -0.5185
  460MOL0     H62073   7.499   5.990   7.468  1.6717  4.2260  2.9748
  460MOL0     H62074   7.778   5.878   7.474  0.1471 -0.0187  0.6204
  460MOL0     H62075   7.680   5.926   7.329  0.5009  1.3656  0.3355
  460MOL0     H62076   7.840   6.073   7.515  0.2673  2.4720 -1.4083
  460MOL0     H62077   7.677   6.145   7.492  0.6848  2.4159 -1.6098
  460MOL0     H62078   7.882   6.217   7.351  1.6939 -0.6539 -1.2937
  460MOL0     H62079   7.873   6.059   7.273  0.6617  0.6628 -0.7901
  460MOL0     H62080   6.977   5.769   7.751  0.7528  1.0023 -0.8498
  460MOL0     H62081   6.730   5.766   7.765 -0.6311 -0.7293 -0.0242
  460MOL0     H62082   6.294   5.765   7.871 -7.9827  1.1903  0.4715
  460MOL0     H62083   6.089   5.662   7.895 -0.3422  3.3293 -3.5799
  460MOL0     H62084   5.022   4.627   8.598  0.5824 -0.6782 -0.4474
  460MOL0     H62085   4.798   4.604   8.490  0.3032  1.5892 -0.7376
  460MOL0     H62086   4.407   4.866   8.393 -0.2612 -0.6204  2.0331
  460MOL0     H62087   4.164   4.870   8.296  0.8041  0.5463  1.1958
  460MOL0     H62088   4.043   4.544   8.006  1.4944  0.3452  1.6859
  460MOL0     H62089   4.054   4.697   7.913  2.4346  1.8357  1.5983
  460MOL0     H62090   3.830   4.561   8.070 -1.0425  1.4261  0.4850
  460MOL0     H62091   3.836   4.624   7.900  0.4650  1.3590 -0.3522
  460MOL0     H62092   3.812   4.840   7.979  3.5449 -0.3427  0.2912
  460MOL0     H62093   3.813   4.791   8.156  2.3907 -1.1670  0.4602
  460MOL0     H62094   3.598   4.855   8.057  1.8993  1.4780 -1.7704
  460MOL0     H62095   3.606   4.727   7.942 -1.0173  2.9959 -0.8671
  460MOL0     H62096   3.425   4.538   8.255  0.7045 -1.0206  1.6472
  460MOL0     H62097   4.272   4.570   8.024 -1.2092  2.4495 -0.5720
  460MOL0     H62098   4.597   4.571   8.012 -0.2516  2.7758  1.3887
  460MOL0     H62099   4.608   4.480   8.160  0.6864 -4.1003 -1.5944
  460MOL0     H62100   4.476   4.450   8.048 -0.8954 -1.2427  2.4686
  461MOL0     O62101  10.409   9.149   8.479 -0.1831 -0.2410  0.6218
  461MOL0     C62102  10.382   9.234   8.565 -0.8538  0.4215  0.1708
  461MOL0     O62103  10.459   9.343   8.597  0.0513  0.5893 -0.9863
  461MOL0     C62104  10.592   9.332   8.569 -0.0885  0.9150  0.2790
  461MOL0     C62105  10.649   9.445   8.512  0.1112  0.0122  0.0325
  461MOL0     C62106  10.789   9.456   8.494  0.0222 -0.3081 -0.0923
  461MOL0     C62107  10.873   9.345   8.517 -0.3838 -0.1636  0.6285
  461MOL0     O62108  11.004   9.354   8.499  0.1945 -1.1935 -0.1099
  461MOL0     C62109  11.079   9.307   8.614  0.3811 -0.4491 -0.4372
  461MOL0     C62110  11.224   9.362   8.617  0.4076  0.0358 -0.5726
  461MOL0     C62111  11.320   9.300   8.529 -0.4809  0.1092 -0.3582
  461MOL0     C62112  11.466   9.331   8.561  0.2399  0.1863  0.0774
  461MOL0     C62113  11.552   9.298   8.436  0.7379 -0.6370 -0.3004
  461MOL0     C62114  11.693   9.300   8.479 -0.2771  0.4179 -1.0908
  461MOL0     C62115  11.802   9.283   8.367  0.2513 -0.5234  0.6594
  461MOL0     C62116  11.800   9.136   8.325  0.3518  0.5758  0.5234
  461MOL0     N62117  11.934   9.086   8.288 -0.5604 -0.0208 -0.0384
  461MOL0     C62118  11.999   9.098   8.171  0.1177 -0.4516  0.2240
  461MOL0     C62119  12.112   9.028   8.190 -1.3119  0.5780 -0.0158
  461MOL0     C62120  12.223   9.028   8.087  0.5281  0.7301  0.4437
  461MOL0     C62121  12.338   9.110   8.138 -0.4039 -0.5982  0.7690
  461MOL0     C62122  12.434   9.123   8.021  0.8086  0.6104  0.3317
  461MOL0     C62123  12.579   9.156   8.062  0.2319  0.3405 -0.6613
  461MOL0     O62124  12.650   9.044   8.106 -0.4006 -0.0711 -0.8693
  461MOL0     C62125  12.793   9.059   8.103 -0.0257 -0.9119  0.1998
  461MOL0     C62126  12.871   8.944   8.108 -0.4606  0.0539  0.2828
  461MOL0     C62127  13.000   8.947   8.122  0.7548 -0.1324  0.1884
  461MOL0     C62128  13.065   9.075   8.105 -0.1201  0.6425 -0.1257
  461MOL0     C62129  13.207   9.084   8.101 -0.0425  0.1669 -0.5645
  461MOL0     O62130  13.257   9.207   8.100 -1.4897 -0.5250 -0.2662
  461MOL0     C62131  13.395   9.220   8.086 -0.2529  0.1701  0.5924
  461MOL0     C62132  13.482   9.268   8.181  1.0845 -0.3936  0.2619
  461MOL0     C62133  13.618   9.265   8.169  0.3462  0.4387  0.1245
  461MOL0     C62134  13.674   9.206   8.052 -0.2461 -0.1383 -0.5625
  461MOL0     O62135  13.808   9.194   8.030 -0.1406  0.3955  0.0059
  461MOL0     C62136  13.879   9.133   8.143  0.2149  0.2909  1.2524
  461MOL0     C62137  14.018   9.090   8.096  0.3921  0.2584  0.8341
  461MOL0     C62138  14.103   9.219   8.086  0.2633  0.0291  0.2541
  461MOL0     C62139  14.253   9.184   8.067 -0.3975 -0.2057 -0.2783
  461MOL0     C62140  14.346   9.304   8.067  0.1267  0.0054  0.1181
  461MOL0     C62141  14.497   9.250   8.059  0.6182 -0.2470 -0.0997
  461MOL0     C62142  14.536   9.195   8.194 -0.2551  0.2893 -0.2986
  461MOL0     C62143  14.684   9.194   8.219 -0.1202 -0.0869  0.2068
  461MOL0    Cl62144  14.777   9.122   8.084  0.2360 -0.0307  0.3081
  461MOL0     C62145  13.590   9.147   7.957  0.1210 -0.0335  0.2335
  461MOL0     C62146  13.453   9.153   7.973 -0.0504 -0.3738 -0.3078
  461MOL0     O62147  13.272   8.979   8.113 -0.6846  0.1495 -0.0250
  461MOL0     C62148  12.994   9.195   8.082  0.0826 -0.2948 -0.2224
  461MOL0     C62149  12.856   9.187   8.076 -0.0014 -0.1307  0.2642
  461MOL0     N62150  12.111   8.968   8.309 -0.2441  0.2480  0.7963
  461MOL0     N62151  12.015   9.017   8.376  0.1277  0.1742 -0.1820
  461MOL0     C62152  10.807   9.227   8.556  0.6745 -1.0270  0.6050
  461MOL0     C62153  10.674   9.214   8.592 -0.1862  0.3614  0.4375
  461MOL0     C62154  10.256   9.225   8.643 -0.3702  0.2639 -0.2808
  461MOL0     C62155  10.249   9.106   8.724  0.7149 -0.0803  0.6499
  461MOL0     C62156  10.136   9.080   8.806  0.8123 -1.0986  0.2405
  461MOL0     C62157  10.026   9.173   8.803  0.3747  0.0801 -0.7811
  461MOL0     O62158   9.919   9.139   8.884  0.3206 -0.0549 -0.0311
  461MOL0     C62159   9.811   9.231   8.899  0.0603  0.5146  0.6897
  461MOL0     C62160   9.729   9.164   9.009 -0.4973 -0.8532  1.0079
  461MOL0     C62161   9.666   9.032   8.958 -0.0222  0.2191  0.3454
  461MOL0     C62162   9.551   9.035   8.861  0.2857 -1.4237  0.4472
  461MOL0     C62163   9.508   8.907   8.816  0.1394  0.3760 -0.4420
  461MOL0     C62164   9.463   8.799   8.778 -0.6050 -0.7680  0.0716
  461MOL0     C62165  10.036   9.297   8.729 -1.0351  0.1102 -0.3255
  461MOL0     C62166  10.153   9.317   8.645 -0.2246 -0.5607  0.1815
  461MOL0     C62167  10.160   9.443   8.574  0.1014 -0.7788  0.0697
  461MOL0     H62168  10.584   9.525   8.480 -1.9279 -1.4083  0.4565
  461MOL0     H62169  10.839   9.545   8.457  1.4215 -2.3148 -3.4800
  461MOL0     H62170  11.023   9.340   8.702 -0.1170  0.0615 -0.9396
  461MOL0     H62171  11.092   9.198   8.611  2.3703 -0.2280 -2.4294
  461MOL0     H62172  11.251   9.342   8.722  0.4102  0.8136 -0.4219
  461MOL0     H62173  11.230   9.470   8.604 -0.6024  0.4284  1.6450
  461MOL0     H62174  11.280   9.318   8.428 -2.9350 -1.1050  0.3003
  461MOL0     H62175  11.307   9.192   8.542  0.7017 -0.1396 -1.0985
  461MOL0     H62176  11.482   9.434   8.594  0.3768 -0.9843  4.2450
  461MOL0     H62177  11.491   9.273   8.650 -0.7899  1.0506  0.9454
  461MOL0     H62178  11.524   9.201   8.394 -2.4536 -1.1823  2.6177
  461MOL0     H62179  11.542   9.378   8.362  1.8570 -0.9265 -0.7742
  461MOL0     H62180  11.717   9.387   8.540 -1.7348 -2.0223  3.4493
  461MOL0     H62181  11.706   9.222   8.554 -1.2958  0.9804 -0.2998
  461MOL0     H62182  11.901   9.315   8.399  0.3674 -0.2195  0.0215
  461MOL0     H62183  11.769   9.349   8.286  0.9459 -0.8450  0.1021
  461MOL0     H62184  11.758   9.074   8.404 -0.0952 -5.1527 -3.5977
  461MOL0     H62185  11.730   9.126   8.242  1.3687  1.3639 -0.4577
  461MOL0     H62186  11.967   9.157   8.085  0.1146  1.4832  1.5125
  461MOL0     H62187  12.259   8.925   8.079 -1.9533 -0.1022 -1.6224
  461MOL0     H62188  12.197   9.054   7.984  0.1411  0.2635  0.4223
  461MOL0     H62189  12.311   9.212   8.169 -2.8416  0.4769 -3.8835
  461MOL0     H62190  12.387   9.058   8.221  0.4156 -0.0533  0.6380
  461MOL0     H62191  12.394   9.199   7.954  3.4651  0.2414 -1.8178
  461MOL0     H62192  12.436   9.027   7.969 -3.0695  1.3724 -1.6078
  461MOL0     H62193  12.599   9.234   8.136  1.8346 -0.6150 -0.0428
  461MOL0     H62194  12.629   9.189   7.969  1.8144 -1.6573 -0.5928
  461MOL0     H62195  12.813   8.852   8.107 -2.1463  1.0008 -2.6404
  461MOL0     H62196  13.058   8.856   8.134  2.9930  0.9875 -1.4084
  461MOL0     H62197  13.430   9.324   8.258 -1.6856  1.4046 -2.6368
  461MOL0     H62198  13.674   9.308   8.252  3.0615  0.6863 -1.7028
  461MOL0     H62199  13.890   9.189   8.236  0.5808  2.1415  0.1478
  461MOL0     H62200  13.827   9.041   8.171  0.2646 -1.1298 -2.6709
  461MOL0     H62201  14.058   9.028   8.177  1.1368  0.7841  0.8834
  461MOL0     H62202  14.023   9.047   7.996  0.6367 -0.2122  1.0444
  461MOL0     H62203  14.062   9.283   8.007 -2.1043  0.3842  1.6678
  461MOL0     H62204  14.099   9.285   8.173 -0.9302  0.8337 -0.3666
  461MOL0     H62205  14.260   9.141   7.967  3.8236 -0.6565  0.0524
  461MOL0     H62206  14.271   9.117   8.151  0.0507  0.2239 -0.0250
  461MOL0     H62207  14.329   9.371   8.152  0.4362 -2.2306  2.0429
  461MOL0     H62208  14.321   9.363   7.979 -1.3494 -0.5621  0.1264
  461MOL0     H62209  14.517   9.165   7.994 -0.6171 -0.4237 -0.2675
  461MOL0     H62210  14.562   9.334   8.033  2.2057 -1.1674  0.7264
  461MOL0     H62211  14.487   9.100   8.218  0.0850 -0.8941 -3.6987
  461MOL0     H62212  14.498   9.257   8.275  0.5040 -1.6191  1.5984
  461MOL0     H62213  14.725   9.295   8.226 -0.0556 -0.1563  0.9647
  461MOL0     H62214  14.693   9.138   8.313 -0.7749 -3.5068 -1.6228
  461MOL0     H62215  13.631   9.091   7.873  0.1172 -0.2175  0.3541
  461MOL0     H62216  13.384   9.101   7.907 -1.1340  2.7955 -1.8869
  461MOL0     H62217  13.044   9.287   8.055  2.5352 -1.8936 -1.5082
  461MOL0     H62218  12.811   9.282   8.049  1.0284  1.2194  2.9544
  461MOL0     H62219  10.865   9.135   8.554  4.0142  0.9241  0.0910
  461MOL0     H62220  10.628   9.124   8.631 -1.1941  0.2335 -0.9498
  461MOL0     H62221  10.332   9.037   8.736  0.9374  0.4458  2.4024
  461MOL0     H62222  10.131   8.983   8.855  0.1798  0.5815  3.8337
  461MOL0     H62223   9.754   9.241   8.805  0.7161 -4.0278 -0.4089
  461MOL0     H62224   9.849   9.327   8.935  0.3925  0.0028  1.7306
  461MOL0     H62225   9.653   9.231   9.050  0.1110  0.3787  0.1687
  461MOL0     H62226   9.800   9.139   9.089  1.2256  0.6227  0.0174
  461MOL0     H62227   9.629   8.981   9.047 -0.3160 -1.0281 -0.4634
  461MOL0     H62228   9.739   8.969   8.906 -0.2243  0.4229 -0.2001
  461MOL0     H62229   9.465   9.089   8.903  1.1215  1.5788 -1.3685
  461MOL0     H62230   9.573   9.100   8.775 -1.0013  0.4817  1.4586
  461MOL0     H62231   9.439   8.705   8.732  0.0934  0.2289 -2.5229
  461MOL0     H62232   9.958   9.372   8.734  1.6668  3.1173 -0.0572
  461MOL0     H62233  10.060   9.481   8.552  0.3855  0.0576  0.1609
  461MOL0     H62234  10.221   9.512   8.634  0.6083 -0.7544 -0.4680
  461MOL0     H62235  10.223   9.435   8.485  0.8089 -0.6998  0.5514
  462MOL0     O62236  10.095   0.573   9.589 -0.4074  0.5038  0.3445
  462MOL0     C62237  10.030   0.570   9.695 -0.6571  0.0307  1.2823
  462MOL0     O62238  10.085   0.573   9.823  0.0278 -0.3206 -0.0314
  462MOL0     C62239  10.217   0.589   9.830 -0.0143  0.9512 -0.2113
  462MOL0     C62240  10.300   0.486   9.773  0.1499  0.0405 -0.5516
  462MOL0     C62241  10.437   0.504   9.787 -1.2412 -0.7461  0.5762
  462MOL0     C62242  10.503   0.629   9.833  0.3362  0.9597  1.0775
  462MOL0     O62243  10.642   0.623   9.844 -0.3419 -0.3611 -0.2927
  462MOL0     C62244  10.710   0.741   9.893 -0.1734  0.4048  0.2709
  462MOL0     C62245  10.860   0.714   9.883 -0.1947  0.2200 -0.5821
  462MOL0     C62246  10.917   0.623   9.998 -0.4154  0.4092  0.3657
  462MOL0     C62247  11.071   0.595   9.987 -0.6702  0.1765 -0.3891
  462MOL0     C62248  11.128   0.532  10.118  0.2180 -0.3324  0.1808
  462MOL0     C62249  11.103   0.380  10.124 -0.4035  0.5167 -0.2616
  462MOL0     C62250  11.170   0.331  10.252  0.6311 -0.5548 -0.4183
  462MOL0     C62251  11.184   0.176  10.262 -0.2286 -0.5815  0.0903
  462MOL0     N62252  11.226   0.156  10.401  1.1018  0.0540  0.1938
  462MOL0     C62253  11.358   0.134  10.445  0.5160 -0.2512  0.4674
  462MOL0     C62254  11.352   0.110  10.576  0.4990 -0.7859 -0.0774
  462MOL0     C62255  11.453   0.063  10.671 -0.5719 -0.5521 -0.8253
  462MOL0     C62256  11.524   0.177  10.741  0.3631 -0.4278  0.4982
  462MOL0     C62257  11.439   0.280  10.819 -0.6879 -0.7890  0.5978
  462MOL0     C62258  11.517   0.393  10.894 -0.0605  0.0089 -0.0153
  462MOL0     O62259  11.629   0.346  10.973 -0.6620  0.6575 -0.4182
  462MOL0     C62260  11.731   0.432  11.010 -0.1658 -0.3542 -0.2099
  462MOL0     C62261  11.718   0.565  11.050 -0.2282 -0.4947  1.0862
  462MOL0     C62262  11.829   0.630  11.104  0.2202 -0.0575  0.1806
  462MOL0     C62263  11.948   0.568  11.140 -0.0159 -0.5256 -0.2412
  462MOL0     C62264  12.059   0.644  11.202  0.1354 -0.2498  1.4796
  462MOL0     O62265  12.039   0.779  11.209 -0.3116  0.1728 -0.2018
  462MOL0     C62266  12.144   0.849  11.262  0.1195  0.1053 -0.7541
  462MOL0     C62267  12.259   0.856  11.188  0.9929 -0.0138 -0.2691
  462MOL0     C62268  12.364   0.932  11.243 -0.3392 -0.1041  0.4545
  462MOL0     C62269  12.348   0.999  11.360 -0.6386 -0.5080 -0.0151
  462MOL0     O62270  12.439   1.099  11.404 -0.4934  0.0842  0.3930
  462MOL0     C62271  12.536   1.143  11.299  0.2730 -0.0816  0.1897
  462MOL0     C62272  12.615   1.265  11.347  0.0390 -0.4845  0.3430
  462MOL0     C62273  12.523   1.390  11.367 -0.1989  0.8774  0.5174
  462MOL0     C62274  12.596   1.485  11.459 -0.0994 -1.0787  0.3803
  462MOL0     C62275  12.732   1.536  11.395 -0.4459  0.1599 -0.1338
  462MOL0     C62276  12.806   1.636  11.480 -0.1460 -0.5573 -0.0045
  462MOL0     C62277  12.936   1.693  11.402 -0.4996 -0.0227  1.2204
  462MOL0     C62278  13.070   1.616  11.438 -0.1995 -0.7356  0.3534
  462MOL0    Cl62279  13.217   1.649  11.330  0.4526 -0.4046 -0.1902
  462MOL0     C62280  12.236   0.988  11.437  0.5478  0.1441  0.1690
  462MOL0     C62281  12.131   0.908  11.395 -1.1295  0.3047 -0.3898
  462MOL0     O62282  12.164   0.589  11.230  0.1055  0.4166 -0.5773
  462MOL0     C62283  11.962   0.433  11.092  0.3040  0.1756 -0.0270
  462MOL0     C62284  11.856   0.366  11.035 -0.2612 -0.4634  0.6972
  462MOL0     N62285  11.217   0.132  10.615 -0.5411  0.2711 -0.2326
  462MOL0     N62286  11.140   0.156  10.510  0.2257  0.0548 -0.5380
  462MOL0     C62287  10.416   0.730   9.876  0.7302  0.6037 -0.3246
  462MOL0     C62288  10.272   0.711   9.871 -0.3945 -0.0367 -0.3658
  462MOL0     C62289   9.881   0.595   9.701 -0.7385 -0.5179 -0.5996
  462MOL0     C62290   9.837   0.660   9.819  0.1449  0.1515  0.4565
  462MOL0     C62291   9.703   0.700   9.836 -0.5412 -0.3083 -0.4202
  462MOL0     C62292   9.606   0.665   9.747 -0.5529 -0.6926  0.7847
  462MOL0     O62293   9.474   0.691   9.785  0.1661 -0.1269  1.1876
  462MOL0     C62294   9.365   0.612   9.740  0.3729  0.0580 -0.7312
  462MOL0     C62295   9.296   0.659   9.611  0.3045  0.1089  0.2085
  462MOL0     C62296   9.254   0.801   9.620  0.6778  0.0444  1.0256
  462MOL0     C62297   9.214   0.857   9.488  0.3747  0.8311 -0.4053
  462MOL0     C62298   9.121   0.772   9.415  0.0740  0.8309 -0.1160
  462MOL0     C62299   9.050   0.712   9.335 -0.8386  0.0943 -1.4100
  462MOL0     C62300   9.644   0.594   9.631 -0.5305  0.3972  0.8113
  462MOL0     C62301   9.784   0.565   9.606 -0.2273 -0.7105  0.0650
  462MOL0     C62302   9.831   0.509   9.474  0.8991  0.4985  0.4351
  462MOL0     H62303  10.255   0.391   9.747  0.8019 -0.0423 -1.4051
  462MOL0     H62304  10.504   0.419   9.774 -0.2173  0.1079  0.1665
  462MOL0     H62305  10.680   0.829   9.836  2.2849  0.0410 -1.7527
  462MOL0     H62306  10.673   0.756   9.995  2.0210  1.6061  0.9613
  462MOL0     H62307  10.912   0.807   9.910 -0.6831 -0.1856  2.1075
  462MOL0     H62308  10.894   0.677   9.786  0.7576 -2.3671  0.6373
  462MOL0     H62309  10.859   0.531  10.014 -1.0865  0.9745  1.3164
  462MOL0     H62310  10.906   0.673  10.094  0.6254  1.6837 -0.1549
  462MOL0     H62311  11.084   0.521   9.908 -2.0604 -1.9751  1.3005
  462MOL0     H62312  11.135   0.682   9.967 -1.9981  1.0539 -0.9633
  462MOL0     H62313  11.234   0.559  10.119  0.3400 -0.8246  1.2377
  462MOL0     H62314  11.070   0.569  10.202  2.1222  0.4814  1.1887
  462MOL0     H62315  10.998   0.358  10.103 -0.0015 -0.8746 -1.0254
  462MOL0     H62316  11.148   0.334  10.035  0.7537 -0.4824  0.7865
  462MOL0     H62317  11.118   0.390  10.328 -0.5877  0.5240 -2.0245
  462MOL0     H62318  11.270   0.373  10.265  0.4491 -0.0461 -0.6203
  462MOL0     H62319  11.109   0.100  10.238  0.6349 -1.3912 -0.0958
  462MOL0     H62320  11.264   0.151  10.192 -0.7657  0.0988 -0.7801
  462MOL0     H62321  11.439   0.113  10.377 -0.0937  0.5321 -0.5367
  462MOL0     H62322  11.425   0.000  10.757  1.6063  0.2748  0.5753
  462MOL0     H62323  11.528   0.003  10.618  0.3243  0.5098 -0.7769
  462MOL0     H62324  11.595   0.132  10.810  1.4892  1.8219  0.8791
  462MOL0     H62325  11.571   0.247  10.671 -0.1823 -0.1957  0.3538
  462MOL0     H62326  11.378   0.225  10.890  0.4925 -3.7475 -0.5347
  462MOL0     H62327  11.368   0.331  10.754  0.7010  2.6284  1.5205
  462MOL0     H62328  11.453   0.452  10.960  1.4312  3.1043 -1.1811
  462MOL0     H62329  11.551   0.462  10.816 -1.2123 -1.0704 -1.5410
  462MOL0     H62330  11.622   0.616  11.044  1.0274  1.8948 -0.0262
  462MOL0     H62331  11.809   0.733  11.131  0.1196  0.0934 -0.4576
  462MOL0     H62332  12.268   0.813  11.089 -0.2910 -1.6316  0.2732
  462MOL0     H62333  12.459   0.931  11.191 -0.6587 -3.7060 -0.3206
  462MOL0     H62334  12.608   1.063  11.280 -1.4900 -1.7162  0.1376
  462MOL0     H62335  12.491   1.164  11.202  2.6853 -0.7432 -1.1530
  462MOL0     H62336  12.673   1.240  11.436  0.1669 -0.0744  0.3744
  462MOL0     H62337  12.693   1.291  11.274  1.7833  0.0580  2.3158
  462MOL0     H62338  12.503   1.440  11.272 -0.7610  0.5212  0.4427
  462MOL0     H62339  12.429   1.366  11.417 -0.1843 -2.3319 -0.7702
  462MOL0     H62340  12.604   1.427  11.551 -0.8617 -2.1549 -0.2124
  462MOL0     H62341  12.538   1.574  11.483  0.2320 -1.3112  2.2425
  462MOL0     H62342  12.715   1.575  11.294 -3.5943 -0.1471  0.1848
  462MOL0     H62343  12.804   1.454  11.388  0.9694  0.8500  3.7673
  462MOL0     H62344  12.731   1.716  11.478  0.1491 -0.2757 -1.4913
  462MOL0     H62345  12.819   1.605  11.584 -3.2390  1.7909  1.2489
  462MOL0     H62346  12.941   1.798  11.433 -4.0062  0.8474 -0.5749
  462MOL0     H62347  12.920   1.694  11.294  2.6609  3.3886  0.5629
  462MOL0     H62348  13.104   1.637  11.539  0.4968 -2.4297  0.5079
  462MOL0     H62349  13.049   1.509  11.432 -0.7155 -0.7062  1.5009
  462MOL0     H62350  12.233   1.038  11.533 -0.1032  0.1012  0.1763
  462MOL0     H62351  12.043   0.897  11.457 -1.3532  3.5025 -0.0102
  462MOL0     H62352  12.051   0.375  11.113 -0.6506 -1.5242 -0.4873
  462MOL0     H62353  11.866   0.261  11.006  0.9112  0.2218 -1.5926
  462MOL0     H62354  10.449   0.815   9.935 -3.1678  0.9210  1.7294
  462MOL0     H62355  10.202   0.785   9.907 -0.2761 -0.1121  0.0229
  462MOL0     H62356   9.902   0.689   9.901 -1.3563  2.0369  1.0835
  462MOL0     H62357   9.666   0.749   9.925 -0.5398  1.3537 -1.2817
  462MOL0     H62358   9.291   0.593   9.818 -1.5811  0.4701 -2.4154
  462MOL0     H62359   9.408   0.515   9.714  2.0492  0.1690  1.3395
  462MOL0     H62360   9.202   0.603   9.606  0.4074  0.0043 -0.5072
  462MOL0     H62361   9.369   0.637   9.533  3.5610 -2.6144  3.6616
  462MOL0     H62362   9.340   0.862   9.650  1.6656 -1.5160  1.5124
  462MOL0     H62363   9.173   0.818   9.690 -2.2921  0.3599 -2.2130
  462MOL0     H62364   9.179   0.960   9.501  0.2538  0.7313  0.0757
  462MOL0     H62365   9.301   0.877   9.424  0.5933  2.0195  0.2195
  462MOL0     H62366   8.978   0.673   9.265 -0.6457 -0.1702 -1.4610
  462MOL0     H62367   9.574   0.561   9.554  0.3228 -0.7551  0.5060
  462MOL0     H62368   9.872   0.578   9.399 -1.5134  0.1423 -1.3216
  462MOL0     H62369   9.904   0.431   9.496 -1.2986 -1.3165  1.7798
  462MOL0     H62370   9.749   0.462   9.419  0.3154  0.7098  1.1033
  463MOL0     O62371  10.869   2.532   2.740 -0.7534  0.4935  0.2590
  463MOL0     C62372  10.862   2.654   2.737  0.4901 -0.0506 -0.3256
  463MOL0     O62373  10.741   2.711   2.751 -0.0346 -0.5117 -0.5935
  463MOL0     C62374  10.629   2.636   2.738 -0.9633 -0.1590 -0.0704
  463MOL0     C62375  10.612   2.538   2.640 -0.1880 -0.0784  0.2970
  463MOL0     C62376  10.488   2.468   2.635  0.7927  0.3992 -0.1711
  463MOL0     C62377  10.382   2.511   2.720  0.5948  0.6258 -0.2788
  463MOL0     O62378  10.245   2.473   2.709 -1.4676  0.5138 -0.3139
  463MOL0     C62379  10.230   2.335   2.659  0.2770  0.8385  0.8099
  463MOL0     C62380  10.090   2.272   2.681  0.0531  0.2004  0.6047
  463MOL0     C62381  10.077   2.203   2.822  0.7937 -0.0308 -0.0710
  463MOL0     C62382  10.066   2.314   2.933  0.4362 -0.9984  0.3808
  463MOL0     C62383  10.139   2.272   3.061  0.5167 -0.5261  0.0042
  463MOL0     C62384  10.080   2.139   3.120 -0.3590 -0.3999 -0.4530
  463MOL0     C62385  10.109   2.108   3.268 -0.4842 -0.0243  0.3127
  463MOL0     C62386  10.219   2.001   3.289  0.1119  0.4877  0.6851
  463MOL0     N62387  10.350   2.065   3.297  0.7684  0.1934  0.2384
  463MOL0     C62388  10.401   2.114   3.419 -0.1920 -0.3966  0.5920
  463MOL0     C62389  10.514   2.180   3.367  0.0932  0.0654  0.6322
  463MOL0     C62390  10.603   2.255   3.456 -1.1210  0.2632  0.1545
  463MOL0     C62391  10.720   2.311   3.388  0.2394 -0.1652  0.2808
  463MOL0     C62392  10.828   2.346   3.488 -0.0532 -0.6293 -0.0071
  463MOL0     C62393  10.966   2.380   3.430  0.3363  0.1652 -0.4276
  463MOL0     O62394  11.022   2.282   3.338  0.9270  0.9755 -0.4607
  463MOL0     C62395  11.155   2.276   3.322 -0.1610  1.0280 -0.0702
  463MOL0     C62396  11.209   2.168   3.247  0.4019 -0.3232  0.2309
  463MOL0     C62397  11.349   2.155   3.220  0.6529  0.0353  0.3001
  463MOL0     C62398  11.442   2.259   3.277  0.4837 -0.0713  0.2894
  463MOL0     C62399  11.592   2.247   3.255  0.1323  0.6817  0.0295
  463MOL0     O62400  11.678   2.350   3.282 -0.2253  0.2431  0.2351
  463MOL0     C62401  11.814   2.337   3.249  0.1425 -0.8418  0.6815
  463MOL0     C62402  11.852   2.284   3.125  0.0790  0.4486 -0.1951
  463MOL0     C62403  11.986   2.267   3.100 -0.9384  0.3470 -0.1956
  463MOL0     C62404  12.076   2.304   3.195 -0.1170  0.5825  0.9735
  463MOL0     O62405  12.204   2.282   3.156  0.5877 -0.2518 -0.1263
  463MOL0     C62406  12.315   2.348   3.214 -0.3667  0.7765  0.1497
  463MOL0     C62407  12.339   2.492   3.167 -0.2885 -0.0511 -0.0873
  463MOL0     C62408  12.482   2.536   3.196  0.8700  0.4506  0.6745
  463MOL0     C62409  12.498   2.687   3.176 -0.0117 -0.6164  0.4773
  463MOL0     C62410  12.646   2.722   3.153 -0.3386  0.7817  0.9126
  463MOL0     C62411  12.644   2.844   3.050  0.2131  0.0991 -0.7747
  463MOL0     C62412  12.783   2.882   2.999  1.0827 -0.3709 -0.0642
  463MOL0     C62413  12.878   2.935   3.100  0.7006  0.9030 -0.0223
  463MOL0    Cl62414  13.030   2.874   3.035 -0.1673  0.0360  0.1292
  463MOL0     C62415  12.040   2.367   3.313  0.5749  0.4655  0.5751
  463MOL0     C62416  11.906   2.383   3.341  0.6430  0.1920  1.4922
  463MOL0     O62417  11.629   2.133   3.215 -0.5224 -0.1919 -0.0573
  463MOL0     C62418  11.388   2.360   3.351  0.2039  0.1082 -0.2422
  463MOL0     C62419  11.248   2.368   3.370 -0.5985 -0.5243 -0.3909
  463MOL0     N62420  10.519   2.165   3.235 -0.1445  0.2029 -0.2934
  463MOL0     N62421  10.427   2.101   3.192  0.2629  0.2787  0.2987
  463MOL0     C62422  10.404   2.614   2.809  0.7043  0.0333 -0.3939
  463MOL0     C62423  10.525   2.676   2.827  0.8180 -0.3792  0.2749
  463MOL0     C62424  10.997   2.728   2.730 -0.4395 -1.4526  1.3670
  463MOL0     C62425  11.100   2.659   2.674  0.0992 -0.3004 -0.0362
  463MOL0     C62426  11.230   2.704   2.684 -0.1389 -0.4984  0.0566
  463MOL0     C62427  11.252   2.826   2.746 -0.9270 -0.1409  0.2535
  463MOL0     O62428  11.380   2.872   2.730 -0.2991 -0.1252  0.4428
  463MOL0     C62429  11.429   2.966   2.827 -0.5698  0.1519  0.0349
  463MOL0     C62430  11.436   2.913   2.970 -0.0320 -0.5117 -0.0290
  463MOL0     C62431  11.458   3.035   3.069  0.4826 -0.2594  0.4543
  463MOL0     C62432  11.471   3.001   3.216  0.3152  0.3234 -0.1978
  463MOL0     C62433  11.578   2.906   3.243  0.1095 -0.1901 -0.4440
  463MOL0     C62434  11.669   2.832   3.280  0.1748  0.0584 -0.8102
  463MOL0     C62435  11.148   2.905   2.801  0.3468 -0.0752 -0.0753
  463MOL0     C62436  11.014   2.853   2.797  0.3688  0.8064  0.2139
  463MOL0     C62437  10.921   2.932   2.885  0.4252  0.2202 -0.2047
  463MOL0     H62438  10.685   2.515   2.564  0.1294 -0.1193  0.6113
  463MOL0     H62439  10.472   2.397   2.554 -0.3240  0.2906  0.1282
  463MOL0     H62440  10.257   2.340   2.553  0.4396 -0.0401  0.8011
  463MOL0     H62441  10.310   2.272   2.700 -0.2171 -0.6272 -0.3998
  463MOL0     H62442  10.090   2.187   2.612  2.9782 -0.3548  1.1417
  463MOL0     H62443  10.003   2.332   2.652  2.0015  1.2322 -3.9414
  463MOL0     H62444  10.154   2.128   2.843  0.8376  0.0184 -0.0571
  463MOL0     H62445   9.984   2.145   2.821  0.2922  0.7374  0.3692
  463MOL0     H62446  10.102   2.411   2.896  0.9774 -0.7046  1.6338
  463MOL0     H62447   9.965   2.340   2.967  1.8461  4.8792  1.2645
  463MOL0     H62448  10.248   2.266   3.048  0.4444 -2.5354 -0.0487
  463MOL0     H62449  10.105   2.345   3.135 -4.0855 -1.1993 -1.1108
  463MOL0     H62450   9.972   2.151   3.111 -0.4036  2.2342  2.2297
  463MOL0     H62451  10.112   2.054   3.058 -0.0150  0.7231 -1.8710
  463MOL0     H62452  10.020   2.064   3.314 -1.2340  1.3255  0.2270
  463MOL0     H62453  10.132   2.195   3.330  2.3146 -1.3689  1.2980
  463MOL0     H62454  10.207   1.935   3.376  1.0057  0.5445  0.8552
  463MOL0     H62455  10.207   1.929   3.207  0.9636 -2.1244  2.7182
  463MOL0     H62456  10.369   2.111   3.523 -0.9061 -0.8909  0.3633
  463MOL0     H62457  10.545   2.339   3.496 -0.9544  0.8496 -0.7911
  463MOL0     H62458  10.626   2.188   3.539 -2.2112  0.3644  0.5440
  463MOL0     H62459  10.757   2.235   3.319  1.8520  0.0522  0.8774
  463MOL0     H62460  10.677   2.402   3.345  1.3753  0.0044 -0.5300
  463MOL0     H62461  10.850   2.266   3.559  0.0908 -1.0486 -0.5168
  463MOL0     H62462  10.795   2.434   3.544 -0.5313 -0.4958 -0.4914
  463MOL0     H62463  11.038   2.406   3.508 -1.0069  3.2021 -0.0666
  463MOL0     H62464  10.946   2.472   3.375 -0.8461 -0.4553 -1.0897
  463MOL0     H62465  11.137   2.092   3.220 -0.7108 -0.1864  2.5726
  463MOL0     H62466  11.390   2.069   3.167 -1.6431 -0.6838 -0.4040
  463MOL0     H62467  11.783   2.258   3.045 -0.9454  2.1713  0.0709
  463MOL0     H62468  12.022   2.208   3.016  0.4445 -1.0075  1.2793
  463MOL0     H62469  12.304   2.342   3.323 -2.8959  0.4556 -0.0629
  463MOL0     H62470  12.399   2.289   3.176 -0.2598  2.5182 -2.5987
  463MOL0     H62471  12.311   2.509   3.062 -0.9775 -3.5526 -0.5990
  463MOL0     H62472  12.284   2.560   3.233 -0.4515 -1.0245  0.8074
  463MOL0     H62473  12.510   2.503   3.297  0.5901 -3.6710 -0.3999
  463MOL0     H62474  12.544   2.477   3.127  0.9710  0.5637  0.6675
  463MOL0     H62475  12.466   2.741   3.265 -2.5445  0.0923 -0.7867
  463MOL0     H62476  12.438   2.729   3.095  0.1702  4.4749  2.5770
  463MOL0     H62477  12.697   2.640   3.102 -1.4353  0.6968 -0.0986
  463MOL0     H62478  12.695   2.731   3.250 -1.2385 -3.4249  1.9506
  463MOL0     H62479  12.588   2.817   2.959 -0.0152 -0.7749 -0.3838
  463MOL0     H62480  12.597   2.929   3.100  0.9989 -0.2368  0.5633
  463MOL0     H62481  12.774   2.952   2.915  0.9323 -0.9469 -0.5348
  463MOL0     H62482  12.830   2.799   2.945  0.3426 -0.5675 -0.4195
  463MOL0     H62483  12.887   3.042   3.121  0.0756  0.6368  1.8005
  463MOL0     H62484  12.866   2.891   3.200 -0.1014  0.3826 -0.3412
  463MOL0     H62485  12.110   2.396   3.391  0.1412  1.3247  0.6559
  463MOL0     H62486  11.871   2.424   3.435  0.2205 -1.0813  1.9092
  463MOL0     H62487  11.454   2.440   3.384 -0.1456 -0.2936  1.5353
  463MOL0     H62488  11.212   2.456   3.424 -0.2334 -2.0776  2.5845
  463MOL0     H62489  10.325   2.654   2.872  2.6536  1.0500  1.5436
  463MOL0     H62490  10.538   2.750   2.905 -3.7096 -1.4144  2.3783
  463MOL0     H62491  11.070   2.580   2.606 -1.6759  0.4430 -0.1722
  463MOL0     H62492  11.318   2.652   2.646  1.2926 -0.4237  2.9353
  463MOL0     H62493  11.373   3.059   2.824  0.7273  1.0162  1.3643
  463MOL0     H62494  11.533   2.989   2.803  0.2403  0.1082  3.0979
  463MOL0     H62495  11.520   2.844   2.970  2.1868  2.0435 -0.7412
  463MOL0     H62496  11.342   2.863   2.996  1.3870 -2.1771  2.2966
  463MOL0     H62497  11.371   3.099   3.056  0.7482  0.1791  0.8171
  463MOL0     H62498  11.546   3.092   3.038 -0.1842  0.3252 -0.4100
  463MOL0     H62499  11.488   3.092   3.274  3.0541 -0.8800  1.0744
  463MOL0     H62500  11.379   2.953   3.250 -0.6849  0.0905 -2.9528
  463MOL0     H62501  11.746   2.768   3.317 -2.4061 -1.0915  3.1074
  463MOL0     H62502  11.154   2.997   2.860 -0.7351 -0.0101 -0.0428
  463MOL0     H62503  10.928   2.903   2.990  1.4997  0.8056 -0.1068
  463MOL0     H62504  10.948   3.037   2.869  1.3333  0.0233 -0.0143
  463MOL0     H62505  10.816   2.921   2.854 -1.0416 -0.0709  4.1525
  464MOL0     O62506  10.258  10.897   6.914  0.1778 -0.3257  0.8014
  464MOL0     C62507  10.228  10.815   7.004  0.0169  0.9854  1.2223
  464MOL0     O62508  10.315  10.723   7.051 -0.6248  0.1176 -0.3286
  464MOL0     C62509  10.455  10.730   7.026  0.5188 -0.3888 -0.0907
  464MOL0     C62510  10.523  10.628   6.953  0.1620 -0.4533 -1.2817
  464MOL0     C62511  10.656  10.645   6.919  0.1235 -0.0617  0.6286
  464MOL0     C62512  10.722  10.761   6.960  0.6822  0.2259 -0.1744
  464MOL0     O62513  10.856  10.784   6.932  0.5291  0.1698  0.1602
  464MOL0     C62514  10.943  10.679   6.892 -0.3966  0.0042 -0.0635
  464MOL0     C62515  11.089  10.726   6.857 -0.2693 -0.5161 -0.0198
  464MOL0     C62516  11.177  10.604   6.820  0.9586  0.1736 -0.6469
  464MOL0     C62517  11.318  10.660   6.840 -0.2686  0.7937 -0.9302
  464MOL0     C62518  11.422  10.566   6.797 -0.1379 -0.3481  0.1039
  464MOL0     C62519  11.557  10.587   6.854 -0.5133 -0.2409  0.2763
  464MOL0     C62520  11.638  10.695   6.788  0.6224 -0.5234  0.1873
  464MOL0     C62521  11.759  10.715   6.862 -0.7204 -0.3093 -0.4553
  464MOL0     N62522  11.725  10.792   6.994 -0.4793  0.1060  0.3293
  464MOL0     C62523  11.757  10.917   7.016  0.4018  0.8452  0.1192
  464MOL0     C62524  11.727  10.936   7.148 -0.1139 -0.1922 -1.0427
  464MOL0     C62525  11.725  11.066   7.230 -0.2651 -0.0192  0.2698
  464MOL0     C62526  11.856  11.113   7.288 -0.0520 -0.1725 -0.0700
  464MOL0     C62527  11.974  11.138   7.178 -0.4128 -0.0089  0.3710
  464MOL0     C62528  12.089  11.210   7.249 -0.1567  0.7640  0.9537
  464MOL0     O62529  12.197  11.208   7.158 -0.3375  0.1250 -0.5568
  464MOL0     C62530  12.318  11.231   7.196  0.0839  0.0102 -0.1769
  464MOL0     C62531  12.366  11.252   7.330  0.4351 -0.3206 -0.2229
  464MOL0     C62532  12.495  11.294   7.348 -0.3197 -0.7943  0.3142
  464MOL0     C62533  12.585  11.291   7.240 -0.0469  0.1584 -0.4817
  464MOL0     C62534  12.724  11.325   7.262  0.3476 -0.7106 -0.7723
  464MOL0     O62535  12.760  11.380   7.386 -0.3522 -0.0058 -0.0593
  464MOL0     C62536  12.902  11.390   7.403  0.1023  0.5533 -0.6430
  464MOL0     C62537  12.987  11.278   7.418  0.2724 -0.4531  0.2544
  464MOL0     C62538  13.118  11.301   7.461 -0.0481 -0.1619  0.3489
  464MOL0     C62539  13.164  11.423   7.502  0.1726 -0.2508  0.7153
  464MOL0     O62540  13.284  11.446   7.556  0.1318 -0.0231 -0.0954
  464MOL0     C62541  13.365  11.337   7.581 -0.0755 -0.6424 -0.3654
  464MOL0     C62542  13.508  11.363   7.635  0.5877  0.2172  0.2277
  464MOL0     C62543  13.592  11.437   7.533 -0.3248  0.3846 -0.2758
  464MOL0     C62544  13.746  11.437   7.571  0.3122  0.3085 -0.3254
  464MOL0     C62545  13.855  11.377   7.482 -0.2717 -1.1119 -0.1260
  464MOL0     C62546  14.003  11.394   7.517 -0.7786  0.2067 -0.4499
  464MOL0     C62547  14.049  11.333   7.649  0.4442 -0.3434 -0.0350
  464MOL0     C62548  14.197  11.349   7.688 -0.5347 -1.2425  0.1328
  464MOL0    Cl62549  14.294  11.282   7.557  0.2842 -0.1297  0.6905
  464MOL0     C62550  13.081  11.538   7.486  0.4474 -0.5843 -0.1770
  464MOL0     C62551  12.945  11.518   7.440  0.2672 -0.3901  0.0799
  464MOL0     O62552  12.807  11.304   7.178 -0.4026  0.1438  0.4434
  464MOL0     C62553  12.539  11.270   7.112 -0.3561 -0.7222 -0.1345
  464MOL0     C62554  12.405  11.229   7.086 -0.4338 -0.2147 -0.4190
  464MOL0     N62555  11.684  10.822   7.209 -0.0833  1.2797 -0.1403
  464MOL0     N62556  11.691  10.737   7.113 -0.8502  0.0876 -0.2986
  464MOL0     C62557  10.652  10.854   7.043  0.2149  0.7479  0.0341
  464MOL0     C62558  10.525  10.839   7.077  0.5677 -0.3979  0.3331
  464MOL0     C62559  10.088  10.795   7.052  0.1318 -0.8114 -0.6254
  464MOL0     C62560  10.071  10.746   7.184  0.6601 -0.2490  0.3289
  464MOL0     C62561   9.946  10.712   7.240  0.2816  0.6089 -0.0764
  464MOL0     C62562   9.830  10.730   7.159  0.6489  0.2937 -0.3242
  464MOL0     O62563   9.704  10.684   7.178 -0.9260 -0.1743 -0.1742
  464MOL0     C62564   9.656  10.682   7.317 -0.0604 -0.2214 -0.0021
  464MOL0     C62565   9.493  10.697   7.312 -0.1009 -0.9464  0.4816
  464MOL0     C62566   9.420  10.706   7.441 -0.0824 -0.1028  0.1190
  464MOL0     C62567   9.262  10.710   7.428 -0.0630 -0.4284 -0.1249
  464MOL0     C62568   9.199  10.719   7.557  0.6063  0.2059 -0.1003
  464MOL0     C62569   9.156  10.698   7.665  0.0979 -0.5331  0.3867
  464MOL0     C62570   9.842  10.787   7.034  0.2084 -0.7802 -0.8228
  464MOL0     C62571   9.963  10.818   6.981 -0.7070  0.1954 -0.2874
  464MOL0     C62572   9.966  10.839   6.825  0.3485  0.2087 -0.0601
  464MOL0     H62573  10.456  10.543   6.941 -0.2890 -0.0798 -1.4289
  464MOL0     H62574  10.706  10.572   6.856  0.9597  0.0262  1.1792
  464MOL0     H62575  10.973  10.613   6.974  0.2271 -0.3865 -0.5968
  464MOL0     H62576  10.913  10.632   6.798 -0.4427  1.5239 -0.8273
  464MOL0     H62577  11.107  10.778   6.952 -1.9595 -1.8585  1.0888
  464MOL0     H62578  11.086  10.803   6.780  1.6683 -3.2879 -3.1249
  464MOL0     H62579  11.163  10.568   6.718  0.0224  1.9602 -1.1919
  464MOL0     H62580  11.144  10.517   6.876  0.8285  0.2743 -0.5651
  464MOL0     H62581  11.329  10.756   6.789 -1.2984  0.8054 -1.1410
  464MOL0     H62582  11.335  10.657   6.948 -0.9748 -2.9483 -0.7944
  464MOL0     H62583  11.391  10.469   6.837  0.0901  0.8927  3.6341
  464MOL0     H62584  11.423  10.564   6.688 -1.7979 -1.1220  0.0698
  464MOL0     H62585  11.545  10.610   6.960  1.1703  2.3036  0.0040
  464MOL0     H62586  11.606  10.489   6.849 -1.4601 -0.8125  1.7389
  464MOL0     H62587  11.583  10.789   6.790  2.2637  0.4604  0.5589
  464MOL0     H62588  11.668  10.660   6.689  0.4834 -0.8642  0.2646
  464MOL0     H62589  11.809  10.623   6.893 -1.2949  0.6605  4.2073
  464MOL0     H62590  11.816  10.778   6.793  0.7016 -3.3693 -2.2715
  464MOL0     H62591  11.791  10.988   6.941  0.6483 -0.1107 -0.7064
  464MOL0     H62592  11.697  11.141   7.154 -1.5044  2.1729  2.7258
  464MOL0     H62593  11.649  11.053   7.308 -0.2764  1.1499  0.4714
  464MOL0     H62594  11.842  11.212   7.331  0.9095 -0.8550  1.9482
  464MOL0     H62595  11.899  11.035   7.351  0.4896 -0.1472 -0.4011
  464MOL0     H62596  11.938  11.202   7.097  0.9991  0.6828  0.2711
  464MOL0     H62597  12.011  11.048   7.128  0.0922  1.0162 -1.1635
  464MOL0     H62598  12.114  11.159   7.342 -1.6669  0.1845  1.0797
  464MOL0     H62599  12.072  11.316   7.272  2.3553  1.1940  1.0924
  464MOL0     H62600  12.301  11.234   7.415  1.9879  0.7839  1.2666
  464MOL0     H62601  12.531  11.302   7.450  0.0949 -2.0538  0.2798
  464MOL0     H62602  12.956  11.175   7.404 -1.8627  0.3725 -1.4845
  464MOL0     H62603  13.175  11.210   7.477  1.0955  0.8049  1.9693
  464MOL0     H62604  13.335  11.259   7.652  1.1854 -0.7732  0.0408
  464MOL0     H62605  13.374  11.287   7.484  2.0867  1.9683 -1.6322
  464MOL0     H62606  13.519  11.426   7.723  0.7183 -2.2427  2.0628
  464MOL0     H62607  13.535  11.264   7.672  1.2279  0.2576 -0.1232
  464MOL0     H62608  13.579  11.398   7.432  0.6169  1.4177 -0.8206
  464MOL0     H62609  13.544  11.535   7.528 -0.3540  0.3137 -2.1458
  464MOL0     H62610  13.750  11.383   7.665 -4.0572  4.2030  2.5555
  464MOL0     H62611  13.785  11.537   7.591  1.6379 -0.5654  1.7773
  464MOL0     H62612  13.847  11.429   7.386  0.2098 -1.5944 -0.4363
  464MOL0     H62613  13.836  11.272   7.459  2.7804 -2.3205  2.1726
  464MOL0     H62614  14.052  11.348   7.431  0.0690  1.0457 -0.4348
  464MOL0     H62615  14.042  11.496   7.517 -0.3118  0.0331  0.1413
  464MOL0     H62616  14.026  11.226   7.642 -1.3172  0.1213 -3.2328
  464MOL0     H62617  13.982  11.366   7.728 -0.5824 -0.1936 -0.9493
  464MOL0     H62618  14.211  11.452   7.721 -2.5174 -1.2674  1.1948
  464MOL0     H62619  14.219  11.291   7.778 -2.1042 -1.9478  0.1137
  464MOL0     H62620  13.112  11.638   7.517  1.2725 -0.6927 -0.6304
  464MOL0     H62621  12.872  11.598   7.444 -0.9099 -1.2989 -1.7553
  464MOL0     H62622  12.613  11.267   7.033  0.3893  0.0377  0.5211
  464MOL0     H62623  12.375  11.217   6.983  0.9599 -0.8988 -0.7654
  464MOL0     H62624  10.712  10.936   7.080 -0.1309  0.1103  2.1190
  464MOL0     H62625  10.476  10.911   7.142 -1.5372 -1.0622 -0.4421
  464MOL0     H62626  10.164  10.728   7.236  1.2792 -0.0765 -0.6865
  464MOL0     H62627   9.951  10.660   7.335  1.5589  2.2440  0.7961
  464MOL0     H62628   9.693  10.765   7.378 -1.2369  2.9179 -3.2087
  464MOL0     H62629   9.678  10.589   7.371 -1.4405  0.6951  2.2523
  464MOL0     H62630   9.455  10.613   7.253 -2.2166  0.3584 -0.1449
  464MOL0     H62631   9.478  10.788   7.253  1.7057 -0.9999 -0.1073
  464MOL0     H62632   9.461  10.784   7.506  1.1563 -0.6018 -0.0375
  464MOL0     H62633   9.440  10.612   7.493  0.3843 -0.4955 -0.7457
  464MOL0     H62634   9.221  10.793   7.370 -0.4097 -1.1271 -0.8895
  464MOL0     H62635   9.225  10.615   7.389  0.6248 -1.8347  2.4365
  464MOL0     H62636   9.108  10.691   7.761 -0.1067  1.8357  0.5183
  464MOL0     H62637   9.748  10.806   6.983  1.3006  0.7212 -2.4097
  464MOL0     H62638  10.008  10.752   6.774 -0.9626  1.1104 -2.8763
  464MOL0     H62639   9.866  10.851   6.782  0.1099 -0.1397  0.3835
  464MOL0     H62640  10.021  10.931   6.803 -1.6070  1.4036 -0.1487
  465MOL0     O62641  10.607  10.627   2.820  0.1454  0.6573  0.5866
  465MOL0     C62642  10.581  10.516   2.842 -0.0303  0.7360  0.0633
  465MOL0     O62643  10.470  10.446   2.797 -0.6551 -0.4565 -0.2124
  465MOL0     C62644  10.374  10.513   2.733  0.5269  0.1520 -0.2765
  465MOL0     C62645  10.245  10.488   2.779 -0.0066  0.3045  0.1603
  465MOL0     C62646  10.135  10.540   2.713  0.2908 -0.4099 -0.6903
  465MOL0     C62647  10.146  10.616   2.593 -0.1144 -0.5976 -1.4580
  465MOL0     O62648  10.037  10.648   2.525 -0.5047 -0.2619 -0.3752
  465MOL0     C62649  10.039  10.742   2.417  0.2970 -0.5165  0.1292
  465MOL0     C62650  10.063  10.680   2.283 -0.4766  0.7372 -0.5808
  465MOL0     C62651  10.101  10.778   2.171 -0.8446  0.3150  0.2613
  465MOL0     C62652   9.985  10.822   2.086  0.5428 -0.9125  0.6219
  465MOL0     C62653  10.041  10.885   1.960  0.1668  0.1146 -0.3924
  465MOL0     C62654   9.925  10.949   1.878  0.0928 -0.1125 -0.5685
  465MOL0     C62655   9.968  10.993   1.743  0.6756 -0.5163 -0.2672
  465MOL0     C62656   9.869  11.081   1.676  0.0506  0.1862  0.8527
  465MOL0     N62657   9.739  11.012   1.659  0.9274 -0.1805  0.4673
  465MOL0     C62658   9.727  10.887   1.601 -0.1630  0.5242 -0.7161
  465MOL0     C62659   9.594  10.853   1.623 -0.8618 -0.0690  0.1644
  465MOL0     C62660   9.533  10.708   1.584  0.0051 -0.2042  0.3782
  465MOL0     C62661   9.424  10.668   1.686  0.4524 -0.4474  0.5275
  465MOL0     C62662   9.462  10.532   1.765  0.4447 -0.3875 -0.4194
  465MOL0     C62663   9.582  10.547   1.850  0.7047 -0.9152 -0.3641
  465MOL0     O62664   9.704  10.564   1.772  1.0501 -0.3247  0.6589
  465MOL0     C62665   9.826  10.526   1.820 -0.0244 -0.4544 -0.1265
  465MOL0     C62666   9.853  10.463   1.944 -0.5526  0.3655  0.5788
  465MOL0     C62667   9.985  10.445   1.985  0.4368 -0.8739  0.4654
  465MOL0     C62668  10.098  10.483   1.910  1.1958 -0.1268  0.4230
  465MOL0     C62669  10.239  10.465   1.960  0.3825  0.5593 -0.4196
  465MOL0     O62670  10.251  10.429   2.089  0.2405 -0.5473 -0.9833
  465MOL0     C62671  10.374  10.425   2.148 -0.6421 -0.1665 -0.4445
  465MOL0     C62672  10.431  10.304   2.148 -0.7432  0.7801  0.2892
  465MOL0     C62673  10.559  10.287   2.217  0.3220 -0.1710 -0.0804
  465MOL0     C62674  10.608  10.401   2.295  0.5879  0.5998 -0.5091
  465MOL0     O62675  10.724  10.376   2.362  0.3003 -0.4310 -0.2278
  465MOL0     C62676  10.711  10.379   2.502 -0.0899 -0.6650 -0.2727
  465MOL0     C62677  10.835  10.317   2.578  0.0240  0.2238  0.4245
  465MOL0     C62678  10.865  10.166   2.546  1.0569  0.1735  0.3829
  465MOL0     C62679  11.015  10.133   2.553  0.3139  0.4603  0.7836
  465MOL0     C62680  11.055  10.111   2.692  0.4477  0.0582  0.1723
  465MOL0     C62681  11.201  10.069   2.697 -0.3352  0.1264 -0.1230
  465MOL0     C62682  11.263  10.090   2.835  0.6980  0.0778  0.7035
  465MOL0     C62683  11.416  10.074   2.819 -0.5428 -1.2345 -0.7529
  465MOL0    Cl62684  11.504  10.183   2.711 -0.3806  0.0731  0.3898
  465MOL0     C62685  10.529  10.526   2.302 -0.2709 -0.8664 -0.1334
  465MOL0     C62686  10.418  10.534   2.220  0.8197 -1.0602  0.6713
  465MOL0     O62687  10.333  10.506   1.892  0.5498 -0.5127 -0.2907
  465MOL0     C62688  10.064  10.541   1.786 -0.7363  0.0856 -0.2964
  465MOL0     C62689   9.936  10.558   1.740 -0.3445  0.6272 -1.1565
  465MOL0     N62690   9.536  10.952   1.693  0.1197  0.1278 -1.6974
  465MOL0     N62691   9.618  11.045   1.709  0.2289  0.2731  0.1802
  465MOL0     C62692  10.278  10.653   2.556 -0.9048  0.0332  0.9235
  465MOL0     C62693  10.391  10.596   2.619  0.9655  0.7802  0.0249
  465MOL0     C62694  10.683  10.421   2.903  0.1048  0.0305 -1.2608
  465MOL0     C62695  10.649  10.283   2.935 -0.0027  0.2724 -0.3705
  465MOL0     C62696  10.746  10.197   2.986 -0.4662 -0.4561  0.2281
  465MOL0     C62697  10.872  10.228   3.003 -0.6034 -0.1019  0.2690
  465MOL0     O62698  10.978  10.147   3.056  0.0284  0.2511 -0.3301
  465MOL0     C62699  10.956  10.009   3.076  0.5379 -0.5147 -0.6742
  465MOL0     C62700  10.869   9.953   3.201  0.1032  0.3428 -0.4058
  465MOL0     C62701  10.899  10.021   3.335  0.0103  0.1105 -0.2583
  465MOL0     C62702  11.048   9.999   3.370 -0.0382  0.0278  0.0705
  465MOL0     C62703  11.106   9.863   3.352  0.5647 -0.6465  0.3564
  465MOL0     C62704  11.146   9.749   3.342 -0.1150  0.0121  0.2998
  465MOL0     C62705  10.906  10.360   2.968 -0.4493  0.5844 -0.9140
  465MOL0     C62706  10.816  10.453   2.930  0.0659 -0.8698 -0.2684
  465MOL0     C62707  10.873  10.597   2.910  0.0171  0.2113 -0.2873
  465MOL0     H62708  10.229  10.424   2.865 -0.4097  0.2060  0.0112
  465MOL0     H62709  10.035  10.505   2.737  1.3780 -0.6424  4.9063
  465MOL0     H62710   9.934  10.773   2.412 -0.3472 -2.7376 -2.0743
  465MOL0     H62711  10.110  10.823   2.439  1.1708 -1.1028 -0.4780
  465MOL0     H62712   9.975  10.618   2.260 -0.1627 -0.8672  2.1653
  465MOL0     H62713  10.147  10.610   2.287 -0.5497  0.6284 -0.9232
  465MOL0     H62714  10.193  10.745   2.122 -1.0272  0.4568 -0.1828
  465MOL0     H62715  10.140  10.864   2.227 -2.4331  1.5867 -0.4976
  465MOL0     H62716   9.912  10.742   2.075  0.9317 -1.6736  3.0267
  465MOL0     H62717   9.940  10.896   2.153 -0.0956 -1.4615  0.8142
  465MOL0     H62718  10.109  10.968   1.984 -1.1599  0.8006  1.2876
  465MOL0     H62719  10.086  10.807   1.898 -2.1271 -1.5569 -0.0687
  465MOL0     H62720   9.851  10.872   1.852  0.8477 -0.5824 -1.3317
  465MOL0     H62721   9.876  11.035   1.926  3.0391  0.5710  1.4497
  465MOL0     H62722   9.991  10.905   1.683  1.2311  0.5119 -1.6173
  465MOL0     H62723  10.063  11.046   1.740 -0.4959  1.7745 -3.0436
  465MOL0     H62724   9.869  11.178   1.727 -2.4203  1.2774 -0.9572
  465MOL0     H62725   9.898  11.095   1.571 -3.4406 -0.2578 -0.3380
  465MOL0     H62726   9.805  10.842   1.540 -1.2521 -3.5965  0.6556
  465MOL0     H62727   9.470  10.724   1.496  1.0692 -0.8617 -0.5238
  465MOL0     H62728   9.608  10.631   1.562  1.3607  1.3830 -0.8496
  465MOL0     H62729   9.401  10.743   1.762 -2.2265 -0.5182 -0.1017
  465MOL0     H62730   9.330  10.644   1.635 -0.9128  1.8002  1.7945
  465MOL0     H62731   9.492  10.458   1.690  0.1083 -2.6299  1.5689
  465MOL0     H62732   9.377  10.499   1.825  1.1500 -1.4916  0.0007
  465MOL0     H62733   9.584  10.450   1.901 -0.3081  1.0785  3.9798
  465MOL0     H62734   9.557  10.627   1.920 -2.7959 -1.1050 -1.2409
  465MOL0     H62735   9.772  10.430   2.009 -2.5878  3.5378 -0.1258
  465MOL0     H62736  10.011  10.394   2.078  3.3935 -1.4074 -0.5388
  465MOL0     H62737  10.388  10.230   2.081  2.0373 -0.2575 -0.5025
  465MOL0     H62738  10.622  10.199   2.206 -3.1125 -2.6755 -1.9602
  465MOL0     H62739  10.702  10.479   2.545  0.3834 -0.6988 -0.0885
  465MOL0     H62740  10.622  10.324   2.534  0.2130 -0.4541  0.9972
  465MOL0     H62741  10.919  10.381   2.548 -0.1636 -0.0025 -0.5992
  465MOL0     H62742  10.818  10.331   2.685 -1.0584 -2.3554  0.6748
  465MOL0     H62743  10.798  10.108   2.611 -2.0640  1.6966 -1.2701
  465MOL0     H62744  10.827  10.137   2.448  1.5394 -1.6701  0.6993
  465MOL0     H62745  11.079  10.208   2.505  1.4764  0.7237  2.6775
  465MOL0     H62746  11.033  10.042   2.494 -0.2659 -0.1188  1.4886
  465MOL0     H62747  10.995  10.039   2.750 -1.7157  0.0291 -1.9339
  465MOL0     H62748  11.039  10.207   2.743  2.5093  1.4279 -1.6013
  465MOL0     H62749  11.206   9.965   2.661 -1.4966  0.6536 -1.9831
  465MOL0     H62750  11.253  10.134   2.626 -1.7337 -0.9619 -2.2878
  465MOL0     H62751  11.213  10.022   2.904 -1.1417  0.2062 -0.4415
  465MOL0     H62752  11.245  10.190   2.876 -0.3116  0.6310 -0.9991
  465MOL0     H62753  11.466  10.078   2.916  0.0869  0.3101 -1.1111
  465MOL0     H62754  11.430   9.973   2.782 -0.5281 -0.4552 -3.0372
  465MOL0     H62755  10.554  10.603   2.375 -1.8938  1.7938 -2.1910
  465MOL0     H62756  10.361  10.626   2.222  0.4442 -1.2849  3.2585
  465MOL0     H62757  10.146  10.585   1.730  0.9983  1.4723  3.0431
  465MOL0     H62758   9.905  10.603   1.647 -0.3260  0.2750 -1.3369
  465MOL0     H62759  10.292  10.720   2.472  2.2708  1.8859  2.7382
  465MOL0     H62760  10.490  10.623   2.585  0.9717 -0.8556 -1.3522
  465MOL0     H62761  10.550  10.240   2.927 -0.7317  1.9671 -1.1340
  465MOL0     H62762  10.706  10.102   3.020 -1.9228 -0.8041 -2.2128
  465MOL0     H62763  11.046   9.947   3.070  0.2599 -0.9846 -0.0903
  465MOL0     H62764  10.900   9.978   2.987 -0.9065  2.2755 -0.8594
  465MOL0     H62765  10.876   9.844   3.207 -1.7949  0.1572 -0.8321
  465MOL0     H62766  10.763   9.976   3.182  0.0378  0.2588 -0.1549
  465MOL0     H62767  10.840   9.981   3.417  0.6309 -0.5385 -0.1146
  465MOL0     H62768  10.892  10.130   3.326  2.0615  0.1230 -3.8589
  465MOL0     H62769  11.113  10.072   3.320 -0.0845 -0.2601 -0.4144
  465MOL0     H62770  11.048  10.020   3.477 -0.7388  2.1948 -0.3041
  465MOL0     H62771  11.194   9.657   3.317 -0.5452 -0.0408 -0.3872
  465MOL0     H62772  11.005  10.399   2.986 -0.8194  1.5246 -0.8814
  465MOL0     H62773  10.805  10.669   2.958 -2.1605 -2.6039  1.1896
  465MOL0     H62774  10.965  10.621   2.963 -0.6902  1.3740  0.4685
  465MOL0     H62775  10.888  10.615   2.803 -2.0427  1.6096 -0.3978
  466MOL0     O62776   7.541   6.106   0.711  0.7294  0.7114 -0.0618
  466MOL0     C62777   7.440   6.161   0.663 -0.3299  0.5904  0.5482
  466MOL0     O62778   7.449   6.273   0.581  0.5437  0.5341  1.1979
  466MOL0     C62779   7.564   6.336   0.559 -0.3370  0.0915  0.0336
  466MOL0     C62780   7.650   6.284   0.458 -0.1311  0.2582 -0.9268
  466MOL0     C62781   7.766   6.345   0.423 -0.0195 -0.4200 -0.4948
  466MOL0     C62782   7.816   6.453   0.490 -0.0980  0.2318  0.5254
  466MOL0     O62783   7.941   6.510   0.471  1.0048 -0.5692 -0.2835
  466MOL0     C62784   8.027   6.483   0.365 -0.1328 -0.0752 -0.1316
  466MOL0     C62785   8.171   6.504   0.414  0.5952  0.2184  0.4833
  466MOL0     C62786   8.271   6.489   0.299 -0.1168 -0.1249 -0.5171
  466MOL0     C62787   8.403   6.538   0.344 -1.4881  0.3388  0.5002
  466MOL0     C62788   8.421   6.689   0.333  0.6172 -0.2005 -0.1285
  466MOL0     C62789   8.546   6.737   0.407 -0.0424  0.0948  0.2900
  466MOL0     C62790   8.581   6.889   0.385 -0.5541 -0.4116  0.6000
  466MOL0     C62791   8.727   6.929   0.400 -0.4558 -0.3427 -0.0283
  466MOL0     N62792   8.778   6.901   0.533  0.2308  0.6808 -0.4703
  466MOL0     C62793   8.739   6.983   0.632 -0.5278 -0.2906 -0.2487
  466MOL0     C62794   8.814   6.947   0.735  1.1633  0.3938 -0.0873
  466MOL0     C62795   8.798   6.987   0.884 -0.7309  0.8658 -0.3132
  466MOL0     C62796   8.940   7.054   0.927 -0.7240  0.6165 -0.2524
  466MOL0     C62797   8.947   7.124   1.067  0.7899 -0.9792  0.3235
  466MOL0     C62798   9.077   7.200   1.085 -0.7534  0.1500 -0.0596
  466MOL0     O62799   9.095   7.300   0.992  0.0740 -0.0980  0.1202
  466MOL0     C62800   9.222   7.332   0.962  1.2153 -1.0373 -0.5429
  466MOL0     C62801   9.268   7.286   0.840  0.4021  0.6798 -0.0590
  466MOL0     C62802   9.396   7.301   0.791  0.2709 -1.0998 -1.0888
  466MOL0     C62803   9.484   7.373   0.877  0.6802  0.6127 -0.4636
  466MOL0     C62804   9.618   7.400   0.835  0.0941 -0.7347  0.5028
  466MOL0     O62805   9.632   7.420   0.704 -0.5230  0.2805  0.1239
  466MOL0     C62806   9.760   7.464   0.661  0.4263  0.4060  0.3463
  466MOL0     C62807   9.878   7.391   0.673 -0.1002  1.2155  0.2011
  466MOL0     C62808  10.009   7.428   0.629  0.0488  1.1138  0.6178
  466MOL0     C62809  10.018   7.546   0.551  0.2215 -0.0940 -0.2433
  466MOL0     O62810  10.132   7.580   0.489 -0.1401  0.7396 -0.1776
  466MOL0     C62811  10.193   7.701   0.556  0.2559  0.6036  1.3872
  466MOL0     C62812  10.308   7.663   0.647 -0.2520 -0.3609 -0.5431
  466MOL0     C62813  10.427   7.595   0.582 -0.0282  0.0621  0.0427
  466MOL0     C62814  10.550   7.591   0.670  0.0190  0.5130 -0.4339
  466MOL0     C62815  10.692   7.543   0.601 -0.5818 -0.9324 -0.1671
  466MOL0     C62816  10.784   7.661   0.564 -0.6289 -0.5478 -0.0560
  466MOL0     C62817  10.916   7.622   0.491 -0.6117 -0.1143  0.6512
  466MOL0     C62818  10.996   7.743   0.438  0.6424  0.3581 -0.4351
  466MOL0    Cl62819  11.046   7.838   0.578 -0.1322  0.1967 -0.6457
  466MOL0     C62820   9.900   7.614   0.522  0.8568  0.0519 -0.4870
  466MOL0     C62821   9.773   7.574   0.582 -0.6307 -0.1469  0.7911
  466MOL0     O62822   9.710   7.421   0.924 -0.0593 -0.7224 -0.6388
  466MOL0     C62823   9.440   7.415   1.004 -0.4368 -0.1454  1.2011
  466MOL0     C62824   9.303   7.404   1.038 -0.5948 -0.2606  0.0881
  466MOL0     N62825   8.904   6.848   0.697 -0.4225 -0.4014  0.2119
  466MOL0     N62826   8.883   6.819   0.579 -0.1681 -0.5273  0.2064
  466MOL0     C62827   7.732   6.513   0.584 -0.2182  0.6196 -0.4579
  466MOL0     C62828   7.604   6.463   0.609  0.2704  0.5712 -0.3721
  466MOL0     C62829   7.308   6.106   0.705 -1.2929 -0.1525  0.1294
  466MOL0     C62830   7.226   6.081   0.592  0.7917 -0.8992  0.6275
  466MOL0     C62831   7.096   6.026   0.611 -0.0817 -0.1057  0.9868
  466MOL0     C62832   7.050   5.990   0.741  0.7465 -0.8761 -1.1692
  466MOL0     O62833   6.924   5.938   0.756 -0.8209  0.0452  0.8346
  466MOL0     C62834   6.882   5.916   0.889  0.0937  0.8459  0.8834
  466MOL0     C62835   6.744   5.835   0.883 -0.0032 -0.5168  0.0586
  466MOL0     C62836   6.623   5.918   0.815  0.1821  0.3770 -0.0795
  466MOL0     C62837   6.492   5.844   0.857  0.2725 -0.3104 -0.2597
  466MOL0     C62838   6.451   5.856   0.999 -0.5024  0.4396 -0.0074
  466MOL0     C62839   6.404   5.858   1.109 -0.0138 -0.3482 -0.3926
  466MOL0     C62840   7.144   6.000   0.848 -0.5984 -0.5538  0.7983
  466MOL0     C62841   7.272   6.058   0.827  0.1425  1.0394  0.5117
  466MOL0     C62842   7.356   6.069   0.952  0.3973 -0.7394  0.5212
  466MOL0     H62843   7.608   6.207   0.394 -1.9764  1.9117 -1.8382
  466MOL0     H62844   7.826   6.302   0.343  2.4179  2.4968 -0.3898
  466MOL0     H62845   8.016   6.393   0.304  3.0140  0.6411 -1.9956
  466MOL0     H62846   8.018   6.555   0.283 -1.0960 -3.0841 -2.8525
  466MOL0     H62847   8.183   6.422   0.485 -3.8205 -1.4256 -0.3364
  466MOL0     H62848   8.177   6.601   0.464 -0.1149 -0.4415  1.9001
  466MOL0     H62849   8.243   6.554   0.216  0.9607  0.1361 -0.6902
  466MOL0     H62850   8.257   6.385   0.268 -2.1072 -1.6969  4.5404
  466MOL0     H62851   8.421   6.490   0.440  2.7458 -1.8384 -1.1565
  466MOL0     H62852   8.485   6.498   0.284  0.1856  1.6367  1.8328
  466MOL0     H62853   8.447   6.714   0.229  0.3887 -2.5374 -0.8104
  466MOL0     H62854   8.333   6.743   0.368 -0.1771  1.1317 -3.7507
  466MOL0     H62855   8.536   6.719   0.514 -0.4927  2.9218  0.7958
  466MOL0     H62856   8.628   6.671   0.376  1.4196  1.0224  1.9847
  466MOL0     H62857   8.517   6.956   0.443 -1.0680  0.0225 -0.4335
  466MOL0     H62858   8.553   6.915   0.282  0.9617 -0.4552  0.1466
  466MOL0     H62859   8.791   6.879   0.327 -1.1043  0.1953 -0.9851
  466MOL0     H62860   8.728   7.038   0.398 -0.6971 -0.1541  3.5784
  466MOL0     H62861   8.650   7.045   0.631 -1.8382 -2.0876  0.2251
  466MOL0     H62862   8.716   7.059   0.897 -0.6862  0.8345  0.1789
  466MOL0     H62863   8.779   6.902   0.951 -1.6363 -0.0548 -1.6694
  466MOL0     H62864   9.023   6.983   0.917 -1.0717  0.2491 -0.5290
  466MOL0     H62865   8.944   7.138   0.857  0.3338  1.5031  0.8311
  466MOL0     H62866   8.921   7.050   1.143  0.2969  0.3195  1.4578
  466MOL0     H62867   8.863   7.194   1.076 -0.9580 -3.1775  2.5043
  466MOL0     H62868   9.160   7.130   1.096 -0.6768  0.1242 -0.7510
  466MOL0     H62869   9.077   7.235   1.188  1.3209 -3.1032  1.1743
  466MOL0     H62870   9.196   7.245   0.771  1.6525 -1.7571 -0.0306
  466MOL0     H62871   9.414   7.274   0.687  1.2685  1.0872 -1.5414
  466MOL0     H62872   9.863   7.293   0.719 -1.4713  1.7659  0.9838
  466MOL0     H62873  10.093   7.362   0.648  0.4507  1.6178  0.5959
  466MOL0     H62874  10.239   7.759   0.475 -1.3848 -0.0825 -0.0926
  466MOL0     H62875  10.120   7.772   0.596 -1.2754  0.7643 -1.4406
  466MOL0     H62876  10.342   7.750   0.703 -2.1666  1.3639 -1.9261
  466MOL0     H62877  10.272   7.599   0.728 -1.3524  2.9386  1.7449
  466MOL0     H62878  10.408   7.488   0.564  1.9308 -1.1368  3.8912
  466MOL0     H62879  10.454   7.648   0.490  0.3991 -0.1691  0.0303
  466MOL0     H62880  10.521   7.527   0.754 -1.3333  4.5560  2.4895
  466MOL0     H62881  10.558   7.689   0.718  1.0439  0.9006 -1.3684
  466MOL0     H62882  10.668   7.492   0.507  1.0518 -0.1003 -1.0725
  466MOL0     H62883  10.738   7.482   0.679 -1.5061 -0.2358  0.9591
  466MOL0     H62884  10.733   7.731   0.496  0.3026  1.6279  1.3715
  466MOL0     H62885  10.810   7.717   0.654 -1.6759  1.1030 -0.7332
  466MOL0     H62886  10.891   7.558   0.406  1.3104 -2.3058  1.6463
  466MOL0     H62887  10.987   7.571   0.556  0.3259 -0.5189 -0.6366
  466MOL0     H62888  11.084   7.701   0.390  0.5296  1.1754 -1.4052
  466MOL0     H62889  10.941   7.809   0.369  2.0890  2.5534  0.3850
  466MOL0     H62890   9.912   7.703   0.460  4.7986 -0.1504 -0.2525
  466MOL0     H62891   9.679   7.622   0.561  0.7685  2.3752 -0.0642
  466MOL0     H62892   9.510   7.459   1.075  0.3365 -0.2759  0.5387
  466MOL0     H62893   9.272   7.452   1.130  4.6325  2.8557  0.6293
  466MOL0     H62894   7.763   6.610   0.624 -0.9266  1.2447 -1.3754
  466MOL0     H62895   7.530   6.520   0.664 -0.8440 -1.1425 -0.0328
  466MOL0     H62896   7.259   6.098   0.489  0.6353  2.0758  0.9815
  466MOL0     H62897   7.029   6.005   0.529  0.3590 -1.5586  0.9650
  466MOL0     H62898   6.867   6.002   0.955 -0.4702  1.7844 -0.4208
  466MOL0     H62899   6.948   5.857   0.954 -0.4816 -2.0973 -1.0346
  466MOL0     H62900   6.722   5.812   0.988  1.8088 -0.5537  0.4700
  466MOL0     H62901   6.767   5.741   0.832  0.5276  0.2538 -1.1587
  466MOL0     H62902   6.632   5.922   0.706  1.4131  2.1486  0.0552
  466MOL0     H62903   6.624   6.024   0.839 -0.6432  1.1069 -2.9852
  466MOL0     H62904   6.407   5.890   0.807 -2.2472 -1.5546  2.5714
  466MOL0     H62905   6.493   5.740   0.824 -1.7041 -0.6545  0.6189
  466MOL0     H62906   6.356   5.862   1.204 -0.6887 -1.7056 -0.6621
  466MOL0     H62907   7.126   5.958   0.946 -2.6021  4.2821  2.8146
  466MOL0     H62908   7.293   6.072   1.042  0.5036  2.4521  0.5816
  466MOL0     H62909   7.410   5.974   0.952  1.8628  0.0435  1.8395
  466MOL0     H62910   7.426   6.152   0.953  1.2556 -1.3680 -1.7073
  467MOL0     O62911   8.402  11.050   2.583 -0.7206 -0.3159  0.6274
  467MOL0     C62912   8.398  10.973   2.491  1.1533  0.7703  0.7829
  467MOL0     O62913   8.502  10.935   2.411 -0.2231 -0.5477 -0.0160
  467MOL0     C62914   8.625  10.981   2.438 -0.0143 -0.0529 -0.0017
  467MOL0     C62915   8.719  10.877   2.416 -0.0978  0.4524 -0.2422
  467MOL0     C62916   8.856  10.902   2.441 -0.4412 -0.3793  0.5925
  467MOL0     C62917   8.902  11.021   2.499 -0.2730  0.0427 -0.7202
  467MOL0     O62918   9.039  11.052   2.530  0.8213  0.8323 -0.0757
  467MOL0     C62919   9.136  10.951   2.556  0.7903  0.5989  0.7657
  467MOL0     C62920   9.280  11.008   2.566 -0.6042 -0.2652 -1.1734
  467MOL0     C62921   9.292  11.093   2.693  0.1137  0.5558  0.6045
  467MOL0     C62922   9.312  11.017   2.829 -0.2705  0.6675  0.1422
  467MOL0     C62923   9.348  11.101   2.944 -0.0513 -0.3057  0.3610
  467MOL0     C62924   9.332  11.023   3.070  1.0583  0.3282  0.1353
  467MOL0     C62925   9.392  11.079   3.199  0.1792  0.1738  0.3335
  467MOL0     C62926   9.328  11.208   3.235  0.0078 -0.7439  0.3027
  467MOL0     N62927   9.368  11.247   3.374  0.0907  0.7162  1.0970
  467MOL0     C62928   9.329  11.188   3.488  0.5625 -0.3976 -0.0222
  467MOL0     C62929   9.359  11.262   3.589 -1.0296  0.0753 -0.9913
  467MOL0     C62930   9.350  11.227   3.731  0.7599 -0.5252  0.4197
  467MOL0     C62931   9.482  11.177   3.795 -0.9104 -1.2246  0.2590
  467MOL0     C62932   9.495  11.230   3.932  0.5412 -0.1996 -0.0837
  467MOL0     C62933   9.390  11.169   4.035  0.1874 -0.0307 -0.2075
  467MOL0     O62934   9.402  11.026   4.064 -0.1883 -0.4388 -0.2948
  467MOL0     C62935   9.522  10.983   4.115  0.8049 -0.4232 -0.6109
  467MOL0     C62936   9.578  11.026   4.236  0.0144 -1.2153  0.4431
  467MOL0     C62937   9.697  10.972   4.284 -0.6264 -1.1681  0.4177
  467MOL0     C62938   9.766  10.875   4.207  0.3242 -0.2987  0.4767
  467MOL0     C62939   9.893  10.820   4.251 -1.1365  0.2306 -0.2920
  467MOL0     O62940   9.941  10.864   4.377  0.0276 -0.4723  0.5139
  467MOL0     C62941  10.059  10.818   4.424  0.1348  0.4774 -0.0419
  467MOL0     C62942  10.174  10.853   4.352  0.4774 -1.1120 -0.3670
  467MOL0     C62943  10.300  10.805   4.400 -0.2167 -0.2565 -0.5404
  467MOL0     C62944  10.307  10.732   4.523  0.2784  0.0163 -0.3793
  467MOL0     O62945  10.410  10.656   4.557 -0.8556 -0.4381 -0.1642
  467MOL0     C62946  10.544  10.713   4.563 -0.7258  0.6017 -1.1420
  467MOL0     C62947  10.564  10.819   4.674  0.7270 -0.6019 -0.1880
  467MOL0     C62948  10.530  10.785   4.809 -1.1587  0.2073 -1.3089
  467MOL0     C62949  10.642  10.693   4.871 -0.2040 -0.0671  0.5733
  467MOL0     C62950  10.611  10.668   5.020  1.1694 -1.0713 -0.0626
  467MOL0     C62951  10.644  10.787   5.109  0.2791 -0.5046 -0.0071
  467MOL0     C62952  10.629  10.750   5.256 -0.7699  0.2568 -0.6081
  467MOL0     C62953  10.617  10.870   5.349 -0.1596  0.1201  0.0604
  467MOL0    Cl62954  10.773  10.975   5.354  0.5211  0.1132 -0.1523
  467MOL0     C62955  10.189  10.701   4.591  0.3079  0.0140 -0.1449
  467MOL0     C62956  10.067  10.750   4.549  0.6101 -0.9540  0.7068
  467MOL0     O62957   9.950  10.741   4.172 -1.0185  0.1370 -0.3934
  467MOL0     C62958   9.712  10.838   4.087  0.1397 -0.3797 -0.3435
  467MOL0     C62959   9.598  10.896   4.037 -1.3409  0.1760  0.6121
  467MOL0     N62960   9.443  11.361   3.531 -0.6601 -0.9618 -0.9688
  467MOL0     N62961   9.452  11.351   3.404  0.4360 -0.0300 -0.6714
  467MOL0     C62962   8.809  11.116   2.513  0.1179  0.4486 -0.3389
  467MOL0     C62963   8.667  11.102   2.480  0.4197  0.5950  0.1128
  467MOL0     C62964   8.266  10.914   2.442 -0.1657  0.4420 -0.4300
  467MOL0     C62965   8.276  10.829   2.336 -0.6711  0.3613  0.0410
  467MOL0     C62966   8.168  10.776   2.276  0.7177 -0.5825  0.3783
  467MOL0     C62967   8.036  10.807   2.319  0.5756  0.2399  0.2448
  467MOL0     O62968   7.931  10.744   2.261 -0.2133 -0.1396 -0.8392
  467MOL0     C62969   7.930  10.752   2.119 -0.7404  0.0380 -0.9450
  467MOL0     C62970   7.795  10.708   2.075  0.1489  0.3191 -0.0920
  467MOL0     C62971   7.773  10.552   2.077  0.6937  0.3361 -0.1266
  467MOL0     C62972   7.805  10.499   1.935 -0.0136 -0.2811 -0.6105
  467MOL0     C62973   7.933  10.544   1.880  1.1436 -0.5369  0.4606
  467MOL0     C62974   8.039  10.575   1.836  0.2479  0.5249  0.3889
  467MOL0     C62975   8.023  10.891   2.428 -0.1933 -0.9780  0.0234
  467MOL0     C62976   8.136  10.942   2.502 -1.0029 -0.7185  0.6767
  467MOL0     C62977   8.113  11.018   2.625  0.3219 -0.3463 -0.0359
  467MOL0     H62978   8.685  10.779   2.385  1.7470  0.1321 -1.4074
  467MOL0     H62979   8.924  10.818   2.437  3.2005  2.1714  2.4513
  467MOL0     H62980   9.117  10.895   2.649 -0.2174 -2.3995 -1.0885
  467MOL0     H62981   9.136  10.875   2.477  2.8714 -1.0067  2.1995
  467MOL0     H62982   9.286  11.059   2.469 -2.5970  0.2178 -1.1021
  467MOL0     H62983   9.353  10.927   2.570 -1.1423 -0.6994  1.2325
  467MOL0     H62984   9.206  11.159   2.703 -1.4070 -0.7774 -2.4023
  467MOL0     H62985   9.375  11.164   2.685  1.5189 -1.2193 -2.5846
  467MOL0     H62986   9.235  10.943   2.851  2.3668 -3.2516 -2.5280
  467MOL0     H62987   9.398  10.951   2.812  0.1697  1.2928 -0.0920
  467MOL0     H62988   9.450  11.138   2.934 -0.3167 -0.1538 -2.8005
  467MOL0     H62989   9.282  11.188   2.948  0.7037  0.2405  1.1907
  467MOL0     H62990   9.230  10.988   3.086  1.4158 -2.3133 -2.3958
  467MOL0     H62991   9.377  10.925   3.053  2.2100  0.9622 -0.6838
  467MOL0     H62992   9.500  11.085   3.186  0.2212  0.3413  0.7701
  467MOL0     H62993   9.381  11.004   3.278  1.8766 -1.2788 -0.7065
  467MOL0     H62994   9.365  11.277   3.159  4.3331 -2.2597  0.7576
  467MOL0     H62995   9.219  11.196   3.230  0.0254 -0.3813 -2.0916
  467MOL0     H62996   9.281  11.092   3.504  0.0378 -0.1027  0.1749
  467MOL0     H62997   9.336  11.323   3.782  0.6607 -1.1535  1.6250
  467MOL0     H62998   9.266  11.161   3.753  1.9042 -2.1464  0.0898
  467MOL0     H62999   9.488  11.068   3.800  2.7955 -1.1034  1.8240
  467MOL0     H63000   9.564  11.210   3.730  0.1227 -0.4651  1.8840
  467MOL0     H63001   9.494  11.339   3.926 -2.3461 -0.1463  0.2981
  467MOL0     H63002   9.597  11.211   3.968  1.1244  3.0989  0.3004
  467MOL0     H63003   9.285  11.178   4.005 -0.5079 -3.9772  0.5511
  467MOL0     H63004   9.408  11.235   4.121  0.2048  0.2611 -0.4308
  467MOL0     H63005   9.522  11.100   4.293 -2.3681 -2.4660 -0.1521
  467MOL0     H63006   9.752  11.011   4.370 -2.5050  2.6355  0.1238
  467MOL0     H63007  10.157  10.902   4.257  0.4314 -2.9982 -1.3646
  467MOL0     H63008  10.388  10.811   4.338 -1.0129  4.0076 -1.5825
  467MOL0     H63009  10.584  10.615   4.590 -2.8016 -1.2456 -4.2221
  467MOL0     H63010  10.574  10.749   4.465  3.0034  1.0733  0.0063
  467MOL0     H63011  10.667  10.857   4.673  0.8794 -0.8694  1.5920
  467MOL0     H63012  10.503  10.909   4.660  0.7291  0.3067  4.2018
  467MOL0     H63013  10.538  10.876   4.869 -0.1236 -1.1910  0.7963
  467MOL0     H63014  10.436  10.730   4.814 -0.7464 -0.4713 -0.7853
  467MOL0     H63015  10.740  10.738   4.852  0.4373 -1.3455  0.7513
  467MOL0     H63016  10.632  10.599   4.816 -1.2498 -0.0640  0.7318
  467MOL0     H63017  10.666  10.582   5.061  2.3423  0.9848  3.0716
  467MOL0     H63018  10.505  10.647   5.038  0.4791  1.5910 -0.6322
  467MOL0     H63019  10.745  10.823   5.088  1.5015 -2.4090  2.1898
  467MOL0     H63020  10.567  10.860   5.080  2.2965  1.4038 -0.9174
  467MOL0     H63021  10.703  10.678   5.293 -2.8233 -1.4988  0.2594
  467MOL0     H63022  10.529  10.711   5.274  0.0465 -2.4917 -1.5646
  467MOL0     H63023  10.536  10.932   5.309 -0.2539  0.0154  0.0894
  467MOL0     H63024  10.597  10.835   5.451  0.2333  0.3652  0.2267
  467MOL0     H63025  10.196  10.648   4.685 -1.8002  0.8174  0.5310
  467MOL0     H63026   9.973  10.745   4.605 -0.6113  5.0126 -0.1706
  467MOL0     H63027   9.764  10.770   4.021  0.5320  0.4189 -0.8666
  467MOL0     H63028   9.561  10.886   3.936 -0.4767  0.5242  0.2500
  467MOL0     H63029   8.844  11.217   2.532 -0.0897  0.9512 -2.3987
  467MOL0     H63030   8.594  11.182   2.486  1.4670  1.6258 -0.5270
  467MOL0     H63031   8.368  10.796   2.289 -0.4909 -0.2720  0.8055
  467MOL0     H63032   8.179  10.728   2.179  0.1060 -1.2195  0.6122
  467MOL0     H63033   8.006  10.692   2.069  0.2051  0.6429 -0.2814
  467MOL0     H63034   7.935  10.853   2.078 -2.5900  0.8712  0.6867
  467MOL0     H63035   7.777  10.750   1.975 -3.6269  0.0406  0.3267
  467MOL0     H63036   7.723  10.744   2.150  0.9589  1.5359  0.1233
  467MOL0     H63037   7.671  10.519   2.099  0.5589  0.4027 -0.6441
  467MOL0     H63038   7.834  10.495   2.148  3.6990  0.8394 -2.1399
  467MOL0     H63039   7.817  10.390   1.937  0.5106 -0.2886 -2.3821
  467MOL0     H63040   7.722  10.520   1.867  1.7241 -2.3654 -3.6305
  467MOL0     H63041   8.139  10.598   1.806  1.1034 -3.3762 -0.3199
  467MOL0     H63042   7.923  10.922   2.456 -0.5963  0.5504 -2.7240
  467MOL0     H63043   8.141  11.123   2.620  0.4095 -0.4186 -1.3920
  467MOL0     H63044   8.010  11.012   2.661  0.1720  1.5823 -0.0386
  467MOL0     H63045   8.183  10.980   2.700  2.6755  1.6497 -1.0826
  468MOL0     O63046   8.727   2.252   4.833  0.0175 -0.6723  0.5185
  468MOL0     C63047   8.763   2.330   4.748 -0.3415 -0.6299 -0.6629
  468MOL0     O63048   8.889   2.375   4.726 -0.4484  0.2338 -0.1926
  468MOL0     C63049   9.001   2.325   4.789  0.9583 -0.6702  0.2663
  468MOL0     C63050   9.120   2.393   4.749  0.8931 -0.6515 -0.4062
  468MOL0     C63051   9.245   2.381   4.822  0.3509 -0.2695  0.4313
  468MOL0     C63052   9.251   2.275   4.913  0.8382  0.5772 -0.5394
  468MOL0     O63053   9.364   2.233   4.980 -0.1143 -0.7529 -0.3318
  468MOL0     C63054   9.486   2.309   4.991 -0.6351  0.5878  0.1702
  468MOL0     C63055   9.572   2.262   4.869  0.1996 -0.8982  0.2330
  468MOL0     C63056   9.707   2.314   4.867 -0.8029 -1.1847 -0.9917
  468MOL0     C63057   9.780   2.265   4.739 -0.6085  0.3828 -0.7880
  468MOL0     C63058   9.925   2.307   4.743 -0.3005  0.1998 -0.0901
  468MOL0     C63059  10.012   2.263   4.638 -0.8342  0.5503  0.1091
  468MOL0     C63060  10.157   2.308   4.659  0.6128  0.1078  0.0192
  468MOL0     C63061  10.249   2.245   4.558  0.5540 -1.1006 -0.0883
  468MOL0     N63062  10.392   2.259   4.580 -0.5649  1.0475  0.0023
  468MOL0     C63063  10.459   2.377   4.600 -0.9856 -0.7318  0.1616
  468MOL0     C63064  10.596   2.351   4.601  1.0479 -0.7445 -0.4539
  468MOL0     C63065  10.698   2.456   4.626  0.0811 -0.3394 -0.7553
  468MOL0     C63066  10.803   2.437   4.521 -0.0942  0.7568 -0.5629
  468MOL0     C63067  10.910   2.537   4.525  0.5211  0.6867 -0.5082
  468MOL0     C63068  11.050   2.472   4.511  0.2859 -0.4139  1.0307
  468MOL0     O63069  11.085   2.410   4.633 -0.2616  0.0914 -0.6796
  468MOL0     C63070  11.221   2.409   4.653  0.8136  0.5203 -0.5252
  468MOL0     C63071  11.282   2.462   4.766  0.3028  0.2356 -0.3047
  468MOL0     C63072  11.417   2.467   4.779 -0.1276  0.4271 -0.7385
  468MOL0     C63073  11.512   2.422   4.684  0.0602 -1.5253 -0.9244
  468MOL0     C63074  11.659   2.441   4.695  0.4392  0.3870 -0.3427
  468MOL0     O63075  11.741   2.407   4.587 -0.2166 -0.6751 -0.3652
  468MOL0     C63076  11.880   2.415   4.604 -0.3604  0.0605  0.8159
  468MOL0     C63077  11.953   2.384   4.726 -0.4200  0.5844  0.4963
  468MOL0     C63078  12.087   2.396   4.732 -1.0609 -0.4546  0.2953
  468MOL0     C63079  12.164   2.422   4.622  0.3115 -0.0091  0.4074
  468MOL0     O63080  12.299   2.427   4.621 -0.0710 -0.3112  0.2649
  468MOL0     C63081  12.380   2.448   4.739 -0.0466  1.0650  0.7261
  468MOL0     C63082  12.403   2.313   4.805  0.3607 -0.0053  0.5318
  468MOL0     C63083  12.489   2.331   4.924 -0.0688  0.1398 -0.3796
  468MOL0     C63084  12.635   2.364   4.898  0.3620 -0.6624 -0.2824
  468MOL0     C63085  12.723   2.257   4.839 -0.1165  0.3777 -0.0450
  468MOL0     C63086  12.870   2.295   4.841  0.2278 -0.2561  0.1249
  468MOL0     C63087  12.905   2.447   4.821 -0.3417  0.5727 -0.6826
  468MOL0     C63088  12.860   2.509   4.685 -0.6179 -0.2422  0.1576
  468MOL0    Cl63089  12.926   2.677   4.686 -0.3221 -0.3934 -0.0908
  468MOL0     C63090  12.101   2.442   4.502  1.0501  0.3459  0.2220
  468MOL0     C63091  11.961   2.440   4.485  0.1117 -0.4335  0.4928
  468MOL0     O63092  11.694   2.507   4.787 -0.8471  0.0651 -0.8403
  468MOL0     C63093  11.449   2.359   4.573  0.0129  0.3237 -0.6850
  468MOL0     C63094  11.310   2.345   4.563  0.1903 -0.9516  0.7641
  468MOL0     N63095  10.610   2.216   4.603  0.6114  0.8409  0.5051
  468MOL0     N63096  10.492   2.159   4.592  0.6122 -0.3859 -0.0183
  468MOL0     C63097   9.140   2.194   4.936 -0.5350 -0.6654 -0.2143
  468MOL0     C63098   9.010   2.224   4.886 -0.7854 -0.8469  0.6098
  468MOL0     C63099   8.653   2.396   4.679  0.5259  0.3018 -0.0708
  468MOL0     C63100   8.679   2.530   4.641  0.4643 -0.1447  1.1428
  468MOL0     C63101   8.585   2.611   4.576 -0.3522 -0.5531  0.1069
  468MOL0     C63102   8.467   2.556   4.529  0.0512 -0.5199  0.0664
  468MOL0     O63103   8.389   2.639   4.451 -0.1760 -0.2896  0.5924
  468MOL0     C63104   8.296   2.586   4.356  0.4375  0.1025 -0.9363
  468MOL0     C63105   8.353   2.499   4.245 -0.0595 -0.2748  0.6489
  468MOL0     C63106   8.478   2.549   4.194 -0.4594  0.1802  0.9038
  468MOL0     C63107   8.461   2.673   4.112  0.4318  0.7314  0.3354
  468MOL0     C63108   8.589   2.703   4.041  0.1342 -0.0451 -0.3114
  468MOL0     C63109   8.696   2.742   4.004 -0.8476 -0.0663 -0.3152
  468MOL0     C63110   8.440   2.420   4.566  0.0002 -0.8511  1.0775
  468MOL0     C63111   8.531   2.345   4.648  0.9294 -0.3003  0.7631
  468MOL0     C63112   8.473   2.208   4.702  0.4437 -0.3491  0.8356
  468MOL0     H63113   9.121   2.457   4.661 -1.2183 -2.8282 -2.1336
  468MOL0     H63114   9.330   2.441   4.792  0.9242 -1.2263  0.0748
  468MOL0     H63115   9.470   2.417   4.982  0.1543  0.7886  1.0580
  468MOL0     H63116   9.552   2.297   5.077  1.5359  3.7070 -0.8337
  468MOL0     H63117   9.529   2.300   4.776  0.7972 -0.8408 -0.0226
  468MOL0     H63118   9.577   2.153   4.865  2.0959 -0.8374  0.2425
  468MOL0     H63119   9.754   2.268   4.955  0.1158  0.8585 -0.3675
  468MOL0     H63120   9.716   2.422   4.879  0.4123 -1.2144 -1.4218
  468MOL0     H63121   9.785   2.156   4.726 -0.4497  0.5096 -1.8590
  468MOL0     H63122   9.737   2.306   4.648 -1.3578  1.1651 -0.0998
  468MOL0     H63123   9.933   2.416   4.751  3.6451  0.0147  0.5303
  468MOL0     H63124   9.949   2.263   4.840 -2.2532  1.4109  1.0201
  468MOL0     H63125  10.004   2.154   4.645 -0.8500  0.6313  2.2986
  468MOL0     H63126   9.980   2.289   4.537  2.1375 -0.4354 -1.2226
  468MOL0     H63127  10.203   2.283   4.755  4.4593  2.3838 -0.9966
  468MOL0     H63128  10.160   2.417   4.649 -0.9884  0.1940  0.3178
  468MOL0     H63129  10.222   2.140   4.555 -4.3154 -0.1667  1.6299
  468MOL0     H63130  10.220   2.302   4.469 -2.4048 -1.2161  0.6896
  468MOL0     H63131  10.425   2.480   4.601 -1.5082 -0.8852 -0.9730
  468MOL0     H63132  10.662   2.559   4.613 -0.1677 -0.2554  0.4986
  468MOL0     H63133  10.742   2.446   4.725  0.6958 -2.9949 -1.2236
  468MOL0     H63134  10.844   2.336   4.530  0.1715  0.8586 -0.6134
  468MOL0     H63135  10.749   2.448   4.426 -0.9068 -0.9413 -0.3310
  468MOL0     H63136  10.913   2.583   4.625 -0.7481  0.6522 -0.4371
  468MOL0     H63137  10.898   2.614   4.449  0.4320 -0.7046 -1.9516
  468MOL0     H63138  11.116   2.558   4.499 -0.7396  0.7981  3.5271
  468MOL0     H63139  11.047   2.401   4.427 -3.0206  0.9597 -0.1783
  468MOL0     H63140  11.222   2.517   4.838  1.4780  1.5167 -0.2531
  468MOL0     H63141  11.453   2.514   4.870 -1.7837  0.9375 -0.3011
  468MOL0     H63142  11.893   2.345   4.807 -2.7380  1.1929 -0.8339
  468MOL0     H63143  12.135   2.369   4.825  2.4073 -1.3508 -1.5588
  468MOL0     H63144  12.475   2.488   4.703  0.1007  2.1616  2.2283
  468MOL0     H63145  12.325   2.509   4.811 -2.9811 -2.4762  1.7972
  468MOL0     H63146  12.314   2.260   4.838 -0.2610 -1.0182 -2.4564
  468MOL0     H63147  12.452   2.252   4.728 -1.9399 -0.0128 -1.0028
  468MOL0     H63148  12.446   2.408   4.989 -2.0529 -3.2524  2.7398
  468MOL0     H63149  12.489   2.241   4.986  0.9678 -0.3427 -1.0477
  468MOL0     H63150  12.677   2.389   4.996  2.0690  1.8779 -1.5568
  468MOL0     H63151  12.641   2.458   4.842  1.6958 -0.5623 -0.0144
  468MOL0     H63152  12.702   2.235   4.734  1.3166 -0.7828 -0.1193
  468MOL0     H63153  12.717   2.163   4.895  2.7303  0.5624  0.6953
  468MOL0     H63154  12.913   2.261   4.936 -1.0658  1.8871  1.5635
  468MOL0     H63155  12.910   2.239   4.757 -0.9203  0.4360 -0.9135
  468MOL0     H63156  13.013   2.463   4.826 -0.4783  1.6225 -0.8107
  468MOL0     H63157  12.859   2.499   4.906 -0.1550  1.8469 -1.3314
  468MOL0     H63158  12.906   2.446   4.609  0.7790 -0.6491  1.3035
  468MOL0     H63159  12.752   2.505   4.672 -0.9883 -0.0259  2.6431
  468MOL0     H63160  12.152   2.471   4.410 -0.2384  1.4956 -0.1640
  468MOL0     H63161  11.915   2.456   4.388  1.9112 -1.8360 -0.6459
  468MOL0     H63162  11.511   2.314   4.496  0.3327 -3.0682  1.3554
  468MOL0     H63163  11.258   2.299   4.480 -0.0931 -1.1899  1.0718
  468MOL0     H63164   9.146   2.115   5.010 -1.3850 -0.3567  0.1943
  468MOL0     H63165   8.927   2.167   4.926 -2.4387  0.9163 -0.1978
  468MOL0     H63166   8.770   2.590   4.644  0.5102 -0.0738 -0.6234
  468MOL0     H63167   8.617   2.709   4.542 -0.3232 -1.1969 -1.8391
  468MOL0     H63168   8.242   2.676   4.324  0.0753 -0.7662 -2.9310
  468MOL0     H63169   8.219   2.526   4.405  0.9468 -0.8225 -1.2425
  468MOL0     H63170   8.293   2.476   4.157  0.6693  1.9273 -0.5107
  468MOL0     H63171   8.364   2.409   4.307 -3.0367  0.2346  2.0789
  468MOL0     H63172   8.513   2.473   4.123  0.0612  1.4706 -0.2579
  468MOL0     H63173   8.550   2.572   4.273  0.3051  0.7386  0.0700
  468MOL0     H63174   8.380   2.658   4.039  1.4787 -1.9271 -0.3658
  468MOL0     H63175   8.431   2.754   4.179 -1.6049  0.6628 -0.4228
  468MOL0     H63176   8.773   2.802   3.958 -0.3690 -0.4124  0.0224
  468MOL0     H63177   8.345   2.386   4.526 -0.0387  2.1992 -1.7792
  468MOL0     H63178   8.467   2.217   4.811  2.0852  2.5470  0.7960
  468MOL0     H63179   8.372   2.187   4.666  1.0804  1.0240 -1.9627
  468MOL0     H63180   8.543   2.130   4.670  2.9596  2.6710 -1.7034
  469MOL0     O63181   0.929   5.734   4.903  0.5382 -0.1623 -0.6564
  469MOL0     C63182   0.920   5.631   4.978 -0.1987 -0.0403 -0.2568
  469MOL0     O63183   1.028   5.547   5.017 -0.3451 -0.4535  0.2511
  469MOL0     C63184   1.142   5.583   4.965 -0.1826  0.1155  0.5950
  469MOL0     C63185   1.189   5.515   4.851 -0.8864  0.3108  0.1812
  469MOL0     C63186   1.308   5.554   4.789  0.0474 -0.0445  0.3191
  469MOL0     C63187   1.395   5.642   4.847 -0.0304  0.2466  0.3520
  469MOL0     O63188   1.508   5.673   4.778  0.2493 -0.2699  0.9809
  469MOL0     C63189   1.572   5.790   4.826  0.0245 -0.3517 -0.4702
  469MOL0     C63190   1.658   5.843   4.715 -0.4433  0.6277  0.4178
  469MOL0     C63191   1.747   5.954   4.768  0.6600  0.0451 -0.2559
  469MOL0     C63192   1.874   5.991   4.687 -0.5508 -0.0402  0.6397
  469MOL0     C63193   1.977   5.879   4.655 -0.7870 -0.5037  0.3315
  469MOL0     C63194   2.043   5.804   4.770 -0.2649  0.1068  0.7134
  469MOL0     C63195   2.110   5.888   4.871 -0.5999 -0.1093 -0.7730
  469MOL0     C63196   2.191   5.800   4.976  0.3711 -0.3828  0.8459
  469MOL0     N63197   2.336   5.799   4.959 -0.8212 -0.8048  0.3064
  469MOL0     C63198   2.418   5.895   5.020 -0.2428  0.0611 -0.3613
  469MOL0     C63199   2.536   5.876   4.965 -0.1903  0.5884 -0.2012
  469MOL0     C63200   2.655   5.966   4.990  0.2429  0.4722  0.2425
  469MOL0     C63201   2.765   5.910   5.071  0.0037  0.0233 -0.9817
  469MOL0     C63202   2.824   5.779   5.020  0.0507 -0.1443 -0.7439
  469MOL0     C63203   2.932   5.718   5.111 -0.0858  0.1565 -0.7887
  469MOL0     O63204   2.850   5.654   5.211 -0.4166 -0.1536  0.7260
  469MOL0     C63205   2.906   5.572   5.303  0.2156  0.3453  0.6358
  469MOL0     C63206   3.032   5.581   5.353 -0.2191  0.2539 -1.1625
  469MOL0     C63207   3.086   5.477   5.434 -0.5928 -0.0708 -0.0164
  469MOL0     C63208   3.020   5.357   5.463 -0.4847 -0.0569 -0.2461
  469MOL0     C63209   3.082   5.252   5.545  0.1202 -0.7270  0.1335
  469MOL0     O63210   3.176   5.287   5.629 -0.1059 -0.0578  0.0096
  469MOL0     C63211   3.243   5.189   5.697  0.1727  0.4954 -0.6008
  469MOL0     C63212   3.384   5.198   5.688 -0.2953 -0.0727 -0.4815
  469MOL0     C63213   3.467   5.096   5.737  0.2079  0.3446  0.3969
  469MOL0     C63214   3.411   4.988   5.807  0.1874  0.1978  0.2817
  469MOL0     O63215   3.489   4.891   5.863  0.3123 -0.0906  1.1234
  469MOL0     C63216   3.635   4.900   5.863  0.2531 -0.4629 -0.4436
  469MOL0     C63217   3.690   4.782   5.951 -0.4047  0.0294  0.0308
  469MOL0     C63218   3.837   4.748   5.906  0.9495 -0.0275 -0.0270
  469MOL0     C63219   3.937   4.853   5.932 -0.5165 -0.0169  0.4749
  469MOL0     C63220   3.952   4.903   6.071 -0.5558 -0.5680 -0.6293
  469MOL0     C63221   4.034   5.031   6.093  0.4669  0.0548 -0.5095
  469MOL0     C63222   3.945   5.147   6.057  0.3546 -0.1173  0.3071
  469MOL0     C63223   4.028   5.274   6.063  0.4147  0.6506 -0.1045
  469MOL0    Cl63224   3.910   5.413   6.025 -0.3361  0.2703  0.1012
  469MOL0     C63225   3.276   4.982   5.836 -1.3171  0.2822 -0.2821
  469MOL0     C63226   3.193   5.075   5.772 -0.3090  0.5043 -0.9387
  469MOL0     O63227   3.025   5.146   5.550 -0.6274 -0.4244 -0.2500
  469MOL0     C63228   2.896   5.347   5.404 -0.0229  0.4830 -0.3113
  469MOL0     C63229   2.841   5.452   5.337  0.0134 -0.0896  0.9680
  469MOL0     N63230   2.539   5.762   4.883  0.8297 -0.0719 -0.1361
  469MOL0     N63231   2.413   5.719   4.885 -0.7558  0.1860 -0.4046
  469MOL0     C63232   1.363   5.685   4.978  0.0259  0.3711 -0.4071
  469MOL0     C63233   1.234   5.661   5.028 -0.3894  0.0655 -0.2539
  469MOL0     C63234   0.789   5.591   5.027  0.7571  0.4605  0.0573
  469MOL0     C63235   0.775   5.457   5.067 -0.1854  0.5495  0.7113
  469MOL0     C63236   0.652   5.393   5.107  0.7392  0.2580  0.6850
  469MOL0     C63237   0.536   5.466   5.097 -0.0881  0.2355  0.6060
  469MOL0     O63238   0.417   5.413   5.126  0.3491  0.8141 -0.7351
  469MOL0     C63239   0.397   5.421   5.273  0.1083  1.3376  0.5096
  469MOL0     C63240   0.262   5.368   5.308  0.4022 -0.0864 -0.4280
  469MOL0     C63241   0.143   5.460   5.259  0.0386  0.0805  0.4163
  469MOL0     C63242   0.064   5.520   5.373 -0.5733 -0.1667  0.5306
  469MOL0     C63243   0.144   5.624   5.437  0.2931  0.0497  0.2895
  469MOL0     C63244   0.211   5.717   5.484  0.5767  0.7841 -0.5083
  469MOL0     C63245   0.541   5.598   5.053 -0.7103 -0.4645  0.2840
  469MOL0     C63246   0.667   5.667   5.017 -0.0369  0.1778 -0.5392
  469MOL0     C63247   0.672   5.807   4.980  0.1574 -1.1625 -0.0171
  469MOL0     H63248   1.117   5.453   4.799  1.1323 -2.5818  0.5676
  469MOL0     H63249   1.329   5.521   4.688  1.0462  1.6272 -0.0580
  469MOL0     H63250   1.512   5.871   4.867  0.4113 -0.8283  1.1051
  469MOL0     H63251   1.638   5.753   4.905 -1.1715 -0.7550  0.3742
  469MOL0     H63252   1.607   5.882   4.627  1.5139  0.6077 -0.8028
  469MOL0     H63253   1.723   5.761   4.682  1.5314  2.4171 -0.3533
  469MOL0     H63254   1.778   5.927   4.870  2.5414  2.9860  0.0646
  469MOL0     H63255   1.678   6.038   4.784 -3.2211 -2.6825 -1.1029
  469MOL0     H63256   1.839   6.029   4.590 -0.7229 -0.3028  0.5988
  469MOL0     H63257   1.928   6.077   4.727  0.7365 -0.1470 -0.7617
  469MOL0     H63258   1.934   5.821   4.573 -1.1531  0.7318 -0.3814
  469MOL0     H63259   2.054   5.933   4.600 -1.0727  0.6711  1.0480
  469MOL0     H63260   1.969   5.739   4.818 -0.2431  1.7051  3.0711
  469MOL0     H63261   2.114   5.731   4.730 -0.8763 -0.8208  1.2838
  469MOL0     H63262   2.037   5.957   4.915 -0.3960 -1.0407  1.1289
  469MOL0     H63263   2.181   5.951   4.817 -0.3937 -1.4985 -2.1868
  469MOL0     H63264   2.168   5.839   5.075  2.3063 -0.0893  1.2120
  469MOL0     H63265   2.148   5.700   4.980  3.0570 -1.6097  0.8382
  469MOL0     H63266   2.386   5.985   5.071 -0.9345 -1.8411  2.8742
  469MOL0     H63267   2.691   5.997   4.891  3.0892 -1.3093  0.5935
  469MOL0     H63268   2.632   6.061   5.038 -2.2446  0.6762 -1.1449
  469MOL0     H63269   2.844   5.984   5.088  0.1911 -0.4574  0.3359
  469MOL0     H63270   2.712   5.899   5.166 -2.2353  1.2734 -2.0193
  469MOL0     H63271   2.872   5.802   4.925 -0.2792  3.3970 -0.2097
  469MOL0     H63272   2.755   5.696   5.003  0.7304 -0.2016 -3.6545
  469MOL0     H63273   2.993   5.803   5.142 -2.0770  1.3658  0.0520
  469MOL0     H63274   2.987   5.636   5.063 -2.5571 -1.1361 -1.6019
  469MOL0     H63275   3.104   5.663   5.353  1.8904 -1.5234 -1.6791
  469MOL0     H63276   3.177   5.488   5.493  0.9968 -3.6331 -1.5105
  469MOL0     H63277   3.429   5.282   5.635  0.6417  0.2635  0.7940
  469MOL0     H63278   3.574   5.105   5.722  0.4477  1.8313  2.6126
  469MOL0     H63279   3.678   4.890   5.763 -1.9362 -2.6784 -1.2472
  469MOL0     H63280   3.663   4.988   5.922 -1.6040 -1.1778  1.6247
  469MOL0     H63281   3.695   4.807   6.057  3.2315 -1.5347  0.3737
  469MOL0     H63282   3.631   4.691   5.937  0.1446 -0.3062 -0.1128
  469MOL0     H63283   3.866   4.660   5.964 -1.4931 -1.0339 -0.2244
  469MOL0     H63284   3.846   4.713   5.803 -1.9523 -3.0676  0.5769
  469MOL0     H63285   3.907   4.936   5.867 -0.8131  0.4816  1.2350
  469MOL0     H63286   4.039   4.828   5.901 -0.3822  1.1153 -0.0555
  469MOL0     H63287   3.989   4.824   6.138  1.8366 -0.7466 -2.0612
  469MOL0     H63288   3.854   4.921   6.118 -0.0258 -2.6362  1.5129
  469MOL0     H63289   4.066   5.039   6.197 -2.2909 -0.5940  0.4650
  469MOL0     H63290   4.126   5.036   6.034 -0.2661  3.0823 -1.5241
  469MOL0     H63291   3.867   5.145   6.134 -0.5267 -2.7355 -0.5357
  469MOL0     H63292   3.906   5.150   5.955  1.3392  0.1535 -0.0677
  469MOL0     H63293   4.067   5.292   6.164  0.1837 -1.0517  0.3242
  469MOL0     H63294   4.116   5.272   5.999  1.3445  0.7647  1.1445
  469MOL0     H63295   3.238   4.913   5.911  2.0580 -2.1620 -0.6316
  469MOL0     H63296   3.088   5.079   5.797 -0.4712 -0.8028 -1.3560
  469MOL0     H63297   2.839   5.258   5.427  2.5081 -0.7282  1.8538
  469MOL0     H63298   2.740   5.434   5.301  0.1520  0.3075  0.3582
  469MOL0     H63299   1.430   5.746   5.038 -1.6168  0.4410  1.4680
  469MOL0     H63300   1.208   5.699   5.126  1.0532 -0.3399  0.3146
  469MOL0     H63301   0.864   5.395   5.059  0.6695  1.5927  1.7959
  469MOL0     H63302   0.646   5.291   5.144 -0.5034 -1.0758 -2.7904
  469MOL0     H63303   0.401   5.526   5.303 -2.3965  2.0856 -1.4829
  469MOL0     H63304   0.474   5.362   5.324 -0.2327  0.4171 -0.0200
  469MOL0     H63305   0.266   5.346   5.415  0.4505  1.7332 -0.0260
  469MOL0     H63306   0.250   5.269   5.263 -1.1353  0.2922 -0.8786
  469MOL0     H63307   0.071   5.411   5.193  0.6837 -1.9544  1.1082
  469MOL0     H63308   0.187   5.535   5.193 -3.3686  1.8658 -0.0272
  469MOL0     H63309  -0.022   5.574   5.332  0.6021  1.4670  0.1457
  469MOL0     H63310   0.022   5.447   5.444  0.5294  0.3666  1.7718
  469MOL0     H63311   0.248   5.802   5.538 -3.3007  3.0283 -0.9761
  469MOL0     H63312   0.448   5.651   5.037 -0.4503 -0.2445 -0.5319
  469MOL0     H63313   0.682   5.812   4.872  3.5643  1.2847  0.2808
  469MOL0     H63314   0.584   5.868   5.003  0.6135 -0.1771 -0.8268
  469MOL0     H63315   0.749   5.875   5.018 -0.6412  1.7732 -3.1420
  470MOL0     O63316   1.489   1.143   3.667  0.6241 -0.4587 -0.7307
  470MOL0     C63317   1.426   1.059   3.740 -0.1310  0.1133  0.6341
  470MOL0     O63318   1.445   0.923   3.736  0.1924 -0.6980 -0.4415
  470MOL0     C63319   1.523   0.860   3.639  1.0183  1.2648  0.0813
  470MOL0     C63320   1.582   0.728   3.668  0.2070 -0.1497 -0.6327
  470MOL0     C63321   1.662   0.661   3.578 -0.2429  0.0466  0.4880
  470MOL0     C63322   1.680   0.705   3.447 -0.6605 -0.0237  0.0673
  470MOL0     O63323   1.752   0.629   3.357 -0.5608  0.1050 -0.0175
  470MOL0     C63324   1.866   0.703   3.305 -0.3128  0.3689  0.6897
  470MOL0     C63325   1.976   0.671   3.412 -0.5415 -0.6419 -0.3644
  470MOL0     C63326   2.108   0.747   3.394 -0.7521 -1.4729 -0.0319
  470MOL0     C63327   2.142   0.783   3.252 -1.2471  0.4489 -0.4763
  470MOL0     C63328   2.284   0.841   3.240 -0.6222  0.0060 -0.1198
  470MOL0     C63329   2.321   0.852   3.097 -0.2534 -0.1672 -0.0427
  470MOL0     C63330   2.425   0.954   3.068 -1.0414  0.5492 -0.5021
  470MOL0     C63331   2.513   0.914   2.951  0.6092 -0.0036 -0.2255
  470MOL0     N63332   2.584   0.791   2.956 -0.3376 -0.6762  0.4514
  470MOL0     C63333   2.582   0.696   2.856 -0.0995 -0.5692 -0.3004
  470MOL0     C63334   2.670   0.602   2.896 -0.1803 -0.2852 -0.7433
  470MOL0     C63335   2.706   0.465   2.842 -0.2319  0.0420 -0.4182
  470MOL0     C63336   2.616   0.416   2.734 -0.1421 -0.8268  0.6400
  470MOL0     C63337   2.482   0.362   2.791  0.1944 -0.7542 -1.1631
  470MOL0     C63338   2.361   0.456   2.809 -0.4639  0.7755 -0.4245
  470MOL0     O63339   2.377   0.517   2.938  0.2793  0.0918 -0.6153
  470MOL0     C63340   2.313   0.456   3.044 -0.2253 -0.6615 -0.3397
  470MOL0     C63341   2.388   0.405   3.145 -0.6594  0.8109  0.5580
  470MOL0     C63342   2.325   0.343   3.260 -0.2914 -0.3159 -0.3826
  470MOL0     C63343   2.188   0.364   3.283  0.7812  0.0068 -0.2726
  470MOL0     C63344   2.114   0.316   3.405 -0.0875  0.2540  0.1759
  470MOL0     O63345   1.974   0.310   3.397  0.1062 -0.0904  0.5219
  470MOL0     C63346   1.892   0.252   3.492  0.2825 -0.5186  0.4226
  470MOL0     C63347   1.924   0.158   3.591 -0.8302 -0.3353  0.7653
  470MOL0     C63348   1.828   0.106   3.674 -0.6619  0.0265 -0.0466
  470MOL0     C63349   1.689   0.141   3.652 -0.3155  0.5621 -0.0663
  470MOL0     O63350   1.588   0.091   3.721  0.2309  0.5651 -0.0271
  470MOL0     C63351   1.601  -0.048   3.748 -0.2776 -0.4318 -0.4584
  470MOL0     C63352   1.459  -0.124   3.749 -0.8979 -0.0947 -0.2419
  470MOL0     C63353   1.346  -0.052   3.827 -0.1253  0.2273  0.8673
  470MOL0     C63354   1.204  -0.047   3.758  0.1530 -0.1863  0.6068
  470MOL0     C63355   1.112   0.026   3.856  0.1382  0.3256 -0.5226
  470MOL0     C63356   0.974   0.041   3.795  0.2109  0.6210 -0.6513
  470MOL0     C63357   0.870   0.102   3.884 -0.3244  1.1595  0.4433
  470MOL0     C63358   0.731   0.061   3.841 -0.1771  0.3038 -0.0532
  470MOL0    Cl63359   0.628   0.209   3.850  0.0801  0.0212 -0.6432
  470MOL0     C63360   1.658   0.239   3.562  0.9571 -0.2254 -0.2442
  470MOL0     C63361   1.757   0.288   3.479  0.4821  0.4230 -0.0907
  470MOL0     O63362   2.178   0.268   3.496 -0.2901  0.3751 -0.4932
  470MOL0     C63363   2.112   0.408   3.176 -0.2137 -0.4384 -1.1122
  470MOL0     C63364   2.172   0.450   3.058  0.6312  0.2388  0.0591
  470MOL0     N63365   2.734   0.651   3.010  0.2438  0.1199 -1.0505
  470MOL0     N63366   2.684   0.766   3.043 -0.4679 -0.0257  0.7569
  470MOL0     C63367   1.609   0.824   3.410  0.7115 -0.0270  0.6323
  470MOL0     C63368   1.530   0.897   3.497 -0.5871 -0.4287 -0.0744
  470MOL0     C63369   1.316   1.111   3.835  0.1963 -0.6945  0.3179
  470MOL0     C63370   1.308   1.248   3.871  0.7041 -0.0242  0.1265
  470MOL0     C63371   1.203   1.308   3.943  0.0249 -0.2891 -0.5410
  470MOL0     C63372   1.093   1.228   3.995 -0.3324 -0.4583  0.8578
  470MOL0     O63373   0.983   1.273   4.067 -0.2292 -0.0537 -0.4608
  470MOL0     C63374   0.860   1.192   4.073 -0.1226 -0.0495  0.3746
  470MOL0     C63375   0.761   1.256   4.167  0.4627 -0.6342  0.3059
  470MOL0     C63376   0.628   1.178   4.168 -0.9059 -0.1054 -0.2960
  470MOL0     C63377   0.546   1.187   4.036 -0.1908 -1.2158 -0.6385
  470MOL0     C63378   0.403   1.175   4.065  0.4971 -0.0634  1.8433
  470MOL0     C63379   0.288   1.166   4.106  0.3423 -0.8581 -0.3844
  470MOL0     C63380   1.100   1.095   3.953 -0.3985 -0.2815 -0.2845
  470MOL0     C63381   1.203   1.032   3.876 -0.0789 -0.4941 -0.4055
  470MOL0     C63382   1.178   0.884   3.842  0.3367  0.2495 -0.0760
  470MOL0     H63383   1.562   0.690   3.768 -1.8052 -1.1745 -1.3792
  470MOL0     H63384   1.709   0.569   3.610 -1.3676 -0.1801  1.5339
  470MOL0     H63385   1.903   0.671   3.207 -1.2364  3.5581 -0.8205
  470MOL0     H63386   1.832   0.807   3.301 -0.6018  0.4239  3.1405
  470MOL0     H63387   1.996   0.565   3.395 -0.6447 -0.3344 -2.5857
  470MOL0     H63388   1.938   0.692   3.513  2.3469  2.4691  0.2620
  470MOL0     H63389   2.192   0.700   3.446  0.1340 -0.8970 -0.8779
  470MOL0     H63390   2.096   0.834   3.459  3.0120  0.2931 -1.3536
  470MOL0     H63391   2.132   0.685   3.204 -0.3011  0.4390 -0.6747
  470MOL0     H63392   2.071   0.857   3.214 -1.9544 -1.0079 -2.1326
  470MOL0     H63393   2.301   0.941   3.282  0.8696  0.9584 -2.7199
  470MOL0     H63394   2.356   0.778   3.293 -0.3689 -0.1290 -0.6185
  470MOL0     H63395   2.342   0.752   3.059 -1.4329  0.2773 -2.0385
  470MOL0     H63396   2.234   0.883   3.037  1.0458  0.6712 -1.5857
  470MOL0     H63397   2.489   0.942   3.156 -0.8474 -1.7298 -0.8762
  470MOL0     H63398   2.383   1.053   3.051  0.8517  1.4018 -0.4068
  470MOL0     H63399   2.455   0.904   2.859 -0.4422 -0.9187  0.5055
  470MOL0     H63400   2.583   0.996   2.934  0.5883  0.1115  0.2138
  470MOL0     H63401   2.518   0.686   2.769 -1.7494  0.2344  0.7579
  470MOL0     H63402   2.805   0.473   2.797  1.6017 -1.2749  2.9827
  470MOL0     H63403   2.708   0.386   2.918  1.4694  0.5159  0.0853
  470MOL0     H63404   2.596   0.489   2.656 -0.4645 -2.4727 -0.8930
  470MOL0     H63405   2.679   0.346   2.678  1.0493  0.3122  0.4941
  470MOL0     H63406   2.499   0.317   2.890 -1.4744  2.7423  0.8947
  470MOL0     H63407   2.453   0.287   2.717 -4.4664  1.2058 -1.6282
  470MOL0     H63408   2.272   0.393   2.812  0.6606 -0.9418  2.8073
  470MOL0     H63409   2.361   0.525   2.725  0.7551  1.5781  0.1934
  470MOL0     H63410   2.495   0.418   3.137 -0.5498  0.2063  0.9206
  470MOL0     H63411   2.385   0.310   3.344  0.3362 -0.8784 -1.0373
  470MOL0     H63412   2.027   0.123   3.597 -1.3483 -2.6631 -2.1668
  470MOL0     H63413   1.864   0.032   3.745 -1.5905 -3.1046 -2.6330
  470MOL0     H63414   1.661  -0.098   3.671 -1.2133  0.1013 -1.5580
  470MOL0     H63415   1.648  -0.047   3.847  0.7764 -0.5611 -0.9392
  470MOL0     H63416   1.435  -0.120   3.642  1.2005  0.0788 -0.7720
  470MOL0     H63417   1.474  -0.225   3.788  0.9796  0.0629 -0.4160
  470MOL0     H63418   1.331  -0.098   3.925 -1.1563  1.8781  1.5249
  470MOL0     H63419   1.373   0.053   3.844 -0.5570  0.7994 -1.6128
  470MOL0     H63420   1.170  -0.148   3.735 -0.9257  0.7609 -2.6073
  470MOL0     H63421   1.199   0.016   3.668  0.7404  2.3778  2.2847
  470MOL0     H63422   1.149   0.122   3.893  0.3464  0.1830 -0.3553
  470MOL0     H63423   1.110  -0.042   3.942  2.5380 -0.4141 -0.9697
  470MOL0     H63424   0.959   0.081   3.694  0.0060 -1.8215 -1.6738
  470MOL0     H63425   0.930  -0.058   3.777 -1.2930  0.6888  2.1049
  470MOL0     H63426   0.894   0.208   3.894 -2.0955  2.1789 -3.7877
  470MOL0     H63427   0.886   0.056   3.982 -1.2951  1.2322  0.6415
  470MOL0     H63428   0.709   0.015   3.744 -0.2735  0.1143  0.0583
  470MOL0     H63429   0.693  -0.019   3.905  1.7240  0.2840  1.1228
  470MOL0     H63430   1.559   0.282   3.559  1.2020  0.3289 -0.4824
  470MOL0     H63431   1.731   0.373   3.417 -1.0790  1.6262  2.0920
  470MOL0     H63432   2.005   0.422   3.177 -0.1718 -0.1270 -0.7649
  470MOL0     H63433   2.097   0.481   2.985 -1.4991 -1.8226  1.2478
  470MOL0     H63434   1.616   0.855   3.306 -1.0276 -0.0910  0.4569
  470MOL0     H63435   1.485   0.992   3.470  1.4476  0.5881 -0.1113
  470MOL0     H63436   1.379   1.321   3.836 -0.3076 -0.3549 -2.8564
  470MOL0     H63437   1.208   1.414   3.963  0.2215  0.1342 -2.5974
  470MOL0     H63438   0.892   1.099   4.120  0.5190  1.7090  3.7283
  470MOL0     H63439   0.820   1.170   3.974 -0.7057 -0.5159  0.6997
  470MOL0     H63440   0.731   1.353   4.128 -4.1696 -1.5603  0.9115
  470MOL0     H63441   0.809   1.266   4.265  1.1166  1.4167 -0.1974
  470MOL0     H63442   0.561   1.231   4.236 -0.5855  1.8006 -1.3860
  470MOL0     H63443   0.643   1.073   4.197 -1.2604  0.0840  0.5780
  470MOL0     H63444   0.573   1.284   3.992  2.0993 -1.4761  0.0402
  470MOL0     H63445   0.580   1.114   3.962  1.6328  0.8602 -1.9717
  470MOL0     H63446   0.185   1.170   4.137  0.9124  3.1785  1.6990
  470MOL0     H63447   1.012   1.033   3.969 -1.5571  1.5070  0.6316
  470MOL0     H63448   1.166   0.872   3.734  0.1938 -3.1535  0.2005
  470MOL0     H63449   1.262   0.824   3.878 -0.3200 -0.6331  0.0364
  470MOL0     H63450   1.096   0.840   3.901  0.6210  1.6115  1.3872
  471MOL0     O63451   6.076   8.641  10.654 -0.0542  0.1316 -1.0226
  471MOL0     C63452   6.121   8.748  10.637  0.2729 -0.2785  0.1792
  471MOL0     O63453   6.060   8.852  10.573 -0.0988  0.2016 -1.0568
  471MOL0     C63454   5.929   8.819  10.551  0.2843 -0.0218 -1.0984
  471MOL0     C63455   5.836   8.863  10.648 -0.2956 -0.4564  0.2112
  471MOL0     C63456   5.698   8.824  10.624 -0.0146  0.0273  0.4810
  471MOL0     C63457   5.662   8.763  10.502  0.0265 -0.0203 -0.5088
  471MOL0     O63458   5.535   8.718  10.500  0.4591  0.2307 -1.0143
  471MOL0     C63459   5.462   8.716  10.375 -0.1394  0.1728  0.8438
  471MOL0     C63460   5.395   8.856  10.353  0.3746 -0.5899 -0.4261
  471MOL0     C63461   5.312   8.869  10.231  0.2754  0.4543  0.5394
  471MOL0     C63462   5.376   8.832  10.098  0.0885 -0.4624 -0.0909
  471MOL0     C63463   5.484   8.917  10.039 -0.5787  0.3352 -0.8127
  471MOL0     C63464   5.449   9.063  10.034  0.2112  0.1274 -0.4879
  471MOL0     C63465   5.565   9.155   9.996 -0.4009 -0.6591 -0.5179
  471MOL0     C63466   5.604   9.167   9.849  0.1691  0.7914  0.1691
  471MOL0     N63467   5.750   9.183   9.831  0.0001 -0.7089 -0.8135
  471MOL0     C63468   5.848   9.247   9.916 -0.1509  0.3133 -0.5782
  471MOL0     C63469   5.964   9.208   9.856  0.0194  0.0550 -0.1934
  471MOL0     C63470   6.104   9.212   9.904 -0.3259  0.4712 -0.2326
  471MOL0     C63471   6.197   9.332   9.853  0.3107 -0.1534 -0.1982
  471MOL0     C63472   6.159   9.465   9.934 -0.6191 -0.4827  0.4435
  471MOL0     C63473   6.269   9.564   9.943 -0.5941 -0.6784 -0.0418
  471MOL0     O63474   6.377   9.493  10.008 -0.6449 -0.2056  0.3513
  471MOL0     C63475   6.486   9.572  10.028 -0.5527  0.6689 -0.1446
  471MOL0     C63476   6.584   9.579   9.926 -0.1024  0.2480  1.0674
  471MOL0     C63477   6.689   9.664   9.948 -0.4136  0.2639  0.5089
  471MOL0     C63478   6.706   9.745  10.067  0.3481  0.2544 -0.8975
  471MOL0     C63479   6.811   9.842  10.089  0.4594 -0.4618  0.1973
  471MOL0     O63480   6.816   9.911  10.207 -0.3315 -0.5379 -0.1270
  471MOL0     C63481   6.900  10.021  10.242  0.0283  0.6180 -0.2636
  471MOL0     C63482   6.907  10.058  10.374  0.3668 -0.3016 -0.3717
  471MOL0     C63483   6.997  10.162  10.410  0.7615 -0.3827  0.6114
  471MOL0     C63484   7.075  10.224  10.312 -0.3199 -0.8853 -0.0378
  471MOL0     O63485   7.159  10.315  10.370  0.5439 -0.0304  0.3670
  471MOL0     C63486   7.178  10.444  10.303  0.8112 -0.5229  0.5350
  471MOL0     C63487   7.222  10.549  10.421 -0.4941  0.7654  0.9865
  471MOL0     C63488   7.297  10.680  10.374 -0.1899 -0.1786 -0.4700
  471MOL0     C63489   7.354  10.765  10.493  0.1571 -0.1575 -0.9729
  471MOL0     C63490   7.435  10.883  10.438  0.2602 -0.1008  0.2994
  471MOL0     C63491   7.340  10.998  10.408 -0.8413  0.6331 -0.6051
  471MOL0     C63492   7.422  11.128  10.359 -0.0989  0.2534 -1.3001
  471MOL0     C63493   7.320  11.209  10.274  0.0989  0.7970  0.0937
  471MOL0    Cl63494   7.372  11.376  10.234 -0.2696 -0.0345  0.0754
  471MOL0     C63495   7.070  10.184  10.174  0.0440 -0.0590 -0.0283
  471MOL0     C63496   6.982  10.080  10.142  0.7556  0.4933  0.3450
  471MOL0     O63497   6.884   9.855   9.996  0.4544  0.2490 -0.0122
  471MOL0     C63498   6.605   9.740  10.158 -0.0243  0.4337 -0.2959
  471MOL0     C63499   6.498   9.647  10.146  0.2728 -0.0502 -0.5540
  471MOL0     N63500   5.940   9.139   9.734  0.2082 -0.3601  0.2029
  471MOL0     N63501   5.815   9.122   9.728  0.6086 -0.9785  0.0643
  471MOL0     C63502   5.754   8.731  10.410 -0.1514 -0.9690 -0.5903
  471MOL0     C63503   5.888   8.748  10.441  0.8499  0.0099 -0.5571
  471MOL0     C63504   6.271   8.758  10.646  0.1247 -0.4790 -0.3875
  471MOL0     C63505   6.336   8.850  10.571  0.4796  0.1869  0.0311
  471MOL0     C63506   6.464   8.881  10.598 -0.7796 -0.2199 -0.4449
  471MOL0     C63507   6.542   8.822  10.700  0.5744  0.2210 -0.1945
  471MOL0     O63508   6.672   8.870  10.713 -0.0211  0.3653 -0.0299
  471MOL0     C63509   6.752   8.811  10.816 -0.1327 -0.0328 -0.7652
  471MOL0     C63510   6.777   8.904  10.933  0.6447 -0.8992 -0.0218
  471MOL0     C63511   6.864   8.850  11.050  0.1650  0.6053  0.5194
  471MOL0     C63512   6.784   8.763  11.150 -0.4405  0.1797  0.6802
  471MOL0     C63513   6.883   8.697  11.237  1.0788 -0.0908  0.5628
  471MOL0     C63514   6.943   8.630  11.321  0.0635  0.0183  0.2357
  471MOL0     C63515   6.466   8.737  10.787 -0.1344  0.1192 -0.1416
  471MOL0     C63516   6.334   8.697  10.759  0.1657  0.1630  0.3202
  471MOL0     C63517   6.267   8.596  10.854 -0.5961  0.2022  0.1150
  471MOL0     H63518   5.849   8.929  10.733 -0.6817 -0.7833  0.5283
  471MOL0     H63519   5.614   8.844  10.690  0.5200 -0.8081  1.4179
  471MOL0     H63520   5.538   8.699  10.298  1.9395  4.0593  1.7488
  471MOL0     H63521   5.379   8.645  10.367 -0.0865  0.2411 -0.4151
  471MOL0     H63522   5.479   8.925  10.354 -2.3919  3.1038  0.0837
  471MOL0     H63523   5.340   8.883  10.444  0.1781  2.2530 -1.2983
  471MOL0     H63524   5.267   8.968  10.223 -2.7625 -0.8617 -0.4879
  471MOL0     H63525   5.223   8.805  10.239 -1.2981  2.6940  2.1901
  471MOL0     H63526   5.417   8.730  10.095  1.2684 -0.0225  0.6030
  471MOL0     H63527   5.295   8.829  10.025  0.4645  2.5857 -0.7556
  471MOL0     H63528   5.568   8.901  10.107 -0.5899 -1.9565 -1.2284
  471MOL0     H63529   5.515   8.883   9.939  0.1724  2.3216 -1.2907
  471MOL0     H63530   5.373   9.070   9.956 -1.5886 -3.5302  0.7061
  471MOL0     H63531   5.416   9.085  10.136 -0.8666 -2.9292 -0.0672
  471MOL0     H63532   5.648   9.124  10.060  0.7833  0.5183 -1.4023
  471MOL0     H63533   5.551   9.260  10.023  0.9838 -0.1510 -1.6175
  471MOL0     H63534   5.570   9.078   9.796  0.6787  0.9642 -0.4624
  471MOL0     H63535   5.548   9.251   9.807 -1.0982 -0.0628  0.0952
  471MOL0     H63536   5.854   9.290  10.016  1.1203 -2.0530  0.4489
  471MOL0     H63537   6.092   9.207  10.013 -1.8116 -2.0388 -0.4499
  471MOL0     H63538   6.156   9.122   9.870 -0.9276  0.2148 -0.4759
  471MOL0     H63539   6.297   9.293   9.870  0.3444  0.1695  0.3880
  471MOL0     H63540   6.182   9.336   9.745 -1.3946 -2.4334 -0.1211
  471MOL0     H63541   6.124   9.432  10.032  2.0046 -0.5275  1.4379
  471MOL0     H63542   6.080   9.523   9.884 -2.0509 -0.4294  2.6396
  471MOL0     H63543   6.241   9.654   9.999 -0.2613  0.9062 -2.2891
  471MOL0     H63544   6.285   9.594   9.839 -2.6187 -2.1404 -0.8450
  471MOL0     H63545   6.578   9.514   9.840 -2.1639  0.3309  1.1001
  471MOL0     H63546   6.765   9.680   9.872 -2.1386  0.4692 -1.2544
  471MOL0     H63547   6.859  10.006  10.456 -0.0734  2.6684  1.4322
  471MOL0     H63548   7.000  10.192  10.514  0.4532  2.2273 -0.0791
  471MOL0     H63549   7.251  10.434  10.222  1.3098 -1.4046  1.0771
  471MOL0     H63550   7.082  10.479  10.263 -0.8310 -4.3910  0.6670
  471MOL0     H63551   7.132  10.580  10.476 -0.6069  1.6860  0.3127
  471MOL0     H63552   7.290  10.498  10.489  0.5573  3.4967  2.1317
  471MOL0     H63553   7.386  10.646  10.321  1.6041  1.2494  1.4319
  471MOL0     H63554   7.239  10.747  10.310 -1.7839 -0.4894  0.6087
  471MOL0     H63555   7.413  10.697  10.555 -1.5902 -0.4826  0.4153
  471MOL0     H63556   7.275  10.797  10.562 -0.5140  0.4573 -2.0060
  471MOL0     H63557   7.501  10.857  10.355  0.5352 -1.2829  0.8581
  471MOL0     H63558   7.507  10.925  10.509 -0.3874 -1.1505  1.6241
  471MOL0     H63559   7.278  10.968  10.323 -2.4737  0.0598  0.7482
  471MOL0     H63560   7.273  11.030  10.488 -0.3818 -1.4364  0.6587
  471MOL0     H63561   7.502  11.101  10.290 -1.7062  1.0519 -3.6506
  471MOL0     H63562   7.461  11.185  10.444 -1.7569 -0.3238 -0.0947
  471MOL0     H63563   7.300  11.153  10.182 -1.6054  0.2742  0.7418
  471MOL0     H63564   7.223  11.219  10.324 -0.3590 -1.7671 -0.1457
  471MOL0     H63565   7.130  10.225  10.093 -0.7221 -0.4845 -0.8284
  471MOL0     H63566   6.977  10.066  10.034 -2.4223 -1.6435  0.6456
  471MOL0     H63567   6.601   9.807  10.243 -4.0755 -0.2362  0.2677
  471MOL0     H63568   6.415   9.640  10.215 -0.3262 -2.9805 -1.4637
  471MOL0     H63569   5.726   8.676  10.321 -1.0989 -1.3744 -0.0574
  471MOL0     H63570   5.961   8.704  10.374  0.8828  2.7276 -2.4645
  471MOL0     H63571   6.302   8.887  10.474  1.1254 -0.3793 -0.4231
  471MOL0     H63572   6.518   8.948  10.532  2.0935 -0.6403  1.3003
  471MOL0     H63573   6.845   8.790  10.763 -0.5370  1.0695 -1.9648
  471MOL0     H63574   6.726   8.711  10.854  1.4352  0.6002  2.3855
  471MOL0     H63575   6.678   8.924  10.975 -0.1631 -2.9735 -0.7947
  471MOL0     H63576   6.825   8.994  10.894 -1.6076  0.5822  0.4290
  471MOL0     H63577   6.900   8.938  11.104 -3.6171  1.1056  2.5862
  471MOL0     H63578   6.947   8.791  11.010  1.6667 -0.1679  4.3471
  471MOL0     H63579   6.722   8.835  11.205 -2.2011 -2.0792  1.8579
  471MOL0     H63580   6.710   8.697  11.103  1.3115 -0.9129 -0.6426
  471MOL0     H63581   7.009   8.591  11.396  0.7207  1.0312  0.1937
  471MOL0     H63582   6.510   8.714  10.884 -0.5698  1.5321  0.4163
  471MOL0     H63583   6.238   8.507  10.796  2.3087 -2.3176  2.2206
  471MOL0     H63584   6.338   8.561  10.929  2.8431  2.0330 -2.0106
  471MOL0     H63585   6.180   8.639  10.905  0.1603  2.5668 -0.4451
  472MOL0     O63586   4.677   6.475   9.275 -0.8041 -0.4764 -0.0433
  472MOL0     C63587   4.703   6.544   9.377  0.5497  0.6720  1.0401
  472MOL0     O63588   4.745   6.670   9.380  0.7891 -0.0666 -0.3003
  472MOL0     C63589   4.772   6.737   9.262  0.3381 -0.7683  0.4796
  472MOL0     C63590   4.730   6.713   9.126  0.0554  0.0721 -1.2186
  472MOL0     C63591   4.787   6.792   9.019  0.4067  1.3548  1.2250
  472MOL0     C63592   4.869   6.901   9.054 -0.3220 -0.0919  0.9111
  472MOL0     O63593   4.941   6.964   8.952 -0.8026  0.3983  0.0773
  472MOL0     C63594   5.041   6.881   8.887 -0.1562 -1.3086 -0.7766
  472MOL0     C63595   5.163   6.962   8.840 -0.2070 -0.0594 -0.1178
  472MOL0     C63596   5.220   7.053   8.942  0.2169 -0.1994  0.4429
  472MOL0     C63597   5.357   7.116   8.891  0.2671  0.5063 -0.6080
  472MOL0     C63598   5.418   7.226   8.980 -0.4477  0.0475  0.5709
  472MOL0     C63599   5.540   7.279   8.902  1.4150  0.2419 -0.5132
  472MOL0     C63600   5.613   7.377   8.993 -0.2996  0.1425  0.1915
  472MOL0     C63601   5.734   7.443   8.925 -0.8978 -0.6297  0.0859
  472MOL0     N63602   5.789   7.550   9.005  0.8059 -0.2830 -0.8795
  472MOL0     C63603   5.853   7.531   9.121 -0.2810 -0.4657 -0.9356
  472MOL0     C63604   5.900   7.655   9.151  0.1967 -0.0819  0.1315
  472MOL0     C63605   5.976   7.702   9.278 -0.1808  0.2162 -0.6964
  472MOL0     C63606   6.128   7.681   9.264  0.2127 -0.5034 -0.5157
  472MOL0     C63607   6.209   7.802   9.254 -0.5055  0.1683  0.2008
  472MOL0     C63608   6.203   7.884   9.384  0.5743 -0.6025  0.2254
  472MOL0     O63609   6.296   7.996   9.381  0.8443  0.2938 -0.2198
  472MOL0     C63610   6.431   7.984   9.406 -0.2528 -0.0993 -0.1710
  472MOL0     C63611   6.504   7.862   9.436  0.8429 -1.2257 -0.8808
  472MOL0     C63612   6.642   7.863   9.457  0.2393  0.6892  0.7264
  472MOL0     C63613   6.724   7.977   9.443 -0.0255 -0.3638  0.4321
  472MOL0     C63614   6.868   7.975   9.462  0.0627  0.3470  0.4208
  472MOL0     O63615   6.934   7.853   9.441 -0.3441  0.0477  0.0144
  472MOL0     C63616   7.070   7.846   9.436 -0.4565  0.1689  0.1617
  472MOL0     C63617   7.154   7.948   9.377 -0.4254  0.0490 -0.0974
  472MOL0     C63618   7.284   7.926   9.360 -0.0631  0.5350 -0.1890
  472MOL0     C63619   7.343   7.800   9.386  0.8307  0.1506  0.5058
  472MOL0     O63620   7.482   7.792   9.384 -0.0085  0.2348  0.0033
  472MOL0     C63621   7.560   7.695   9.465  0.6186 -1.0777  1.3083
  472MOL0     C63622   7.703   7.701   9.431 -0.1000 -0.3073  0.9728
  472MOL0     C63623   7.780   7.668   9.565 -0.3226 -0.2590  0.0605
  472MOL0     C63624   7.926   7.672   9.546 -0.0160 -0.3016 -1.0323
  472MOL0     C63625   8.000   7.639   9.678 -0.5798 -0.0594  0.5853
  472MOL0     C63626   8.152   7.651   9.654 -0.4285 -0.0749  1.0624
  472MOL0     C63627   8.247   7.589   9.753 -0.4128 -0.7674 -0.2679
  472MOL0     C63628   8.253   7.671   9.881  0.3082  0.2977 -0.0848
  472MOL0    Cl63629   8.410   7.634   9.955 -0.4182 -0.1554  0.0031
  472MOL0     C63630   7.269   7.698   9.447  0.0063 -0.3455  0.2915
  472MOL0     C63631   7.134   7.731   9.469 -0.7572 -0.2260  0.3540
  472MOL0     O63632   6.916   8.078   9.501 -0.0171 -0.1894 -0.5376
  472MOL0     C63633   6.655   8.089   9.389 -0.3639  0.1993  0.5452
  472MOL0     C63634   6.514   8.094   9.368 -0.0922 -0.0876 -0.5431
  472MOL0     N63635   5.868   7.741   9.047 -0.5604 -0.1661  0.3605
  472MOL0     N63636   5.807   7.679   8.959 -0.4137  0.4338  0.4296
  472MOL0     C63637   4.889   6.937   9.185 -0.3366 -1.0005  0.9918
  472MOL0     C63638   4.847   6.853   9.287 -0.2032 -0.1109  0.3628
  472MOL0     C63639   4.680   6.479   9.507 -0.0000  0.3658 -0.3109
  472MOL0     C63640   4.710   6.550   9.629  0.2502 -0.1707  0.4132
  472MOL0     C63641   4.699   6.497   9.754  0.0571 -0.0139 -0.4526
  472MOL0     C63642   4.675   6.364   9.768  0.8389  0.0201  0.1487
  472MOL0     O63643   4.683   6.308   9.891  0.2479 -0.0630  0.2484
  472MOL0     C63644   4.706   6.170   9.900  0.2127 -0.3630  0.6622
  472MOL0     C63645   4.765   6.137  10.031  0.2530 -1.0742  0.1443
  472MOL0     C63646   4.680   6.170  10.159 -0.4675 -0.1300 -0.0650
  472MOL0     C63647   4.539   6.121  10.135 -0.0289  0.7938  0.8957
  472MOL0     C63648   4.460   6.120  10.260 -0.5033 -0.5682  0.6060
  472MOL0     C63649   4.389   6.131  10.363 -0.2628  0.7312  0.8987
  472MOL0     C63650   4.627   6.297   9.656  0.0173 -0.6957 -0.4875
  472MOL0     C63651   4.622   6.349   9.524  0.5549 -0.4666 -0.3386
  472MOL0     C63652   4.561   6.254   9.423  0.2222  0.2457 -0.0795
  472MOL0     H63653   4.652   6.640   9.109  1.2170 -1.2905 -0.9136
  472MOL0     H63654   4.772   6.753   8.919  2.7833 -3.6639  2.4899
  472MOL0     H63655   5.066   6.800   8.955 -1.4736 -2.2745 -1.3898
  472MOL0     H63656   4.998   6.823   8.804 -0.7901  1.9360 -2.9432
  472MOL0     H63657   5.142   7.015   8.746  1.0089 -0.4299 -0.6217
  472MOL0     H63658   5.244   6.901   8.797  0.0430 -0.0702  0.3609
  472MOL0     H63659   5.235   6.995   9.033  4.1573  1.6782  1.2120
  472MOL0     H63660   5.148   7.130   8.971  1.8568  3.0026 -3.0209
  472MOL0     H63661   5.429   7.039   8.865  0.6126  0.5512  0.1782
  472MOL0     H63662   5.335   7.163   8.795  2.6457  0.0697 -1.4321
  472MOL0     H63663   5.335   7.298   8.981 -0.5772  0.2234 -3.6819
  472MOL0     H63664   5.457   7.190   9.075  2.0983  3.1702  0.8879
  472MOL0     H63665   5.617   7.203   8.886  2.6084  1.0089  1.2151
  472MOL0     H63666   5.519   7.309   8.799 -2.8110 -3.5379 -1.0289
  472MOL0     H63667   5.655   7.321   9.078 -0.1612 -2.4850 -1.4948
  472MOL0     H63668   5.535   7.450   9.019  1.2436  1.3000  1.8408
  472MOL0     H63669   5.818   7.376   8.904 -0.1489 -0.2552  1.7100
  472MOL0     H63670   5.697   7.477   8.828 -0.4040 -3.4962 -1.1993
  472MOL0     H63671   5.863   7.441   9.180  1.3827 -0.0854 -0.6037
  472MOL0     H63672   5.943   7.805   9.294 -0.2596  0.1191 -0.2258
  472MOL0     H63673   5.953   7.643   9.366  0.1361 -0.6074 -1.1577
  472MOL0     H63674   6.154   7.633   9.359 -0.1414 -1.4029 -0.8628
  472MOL0     H63675   6.154   7.617   9.180  0.3023 -0.6064 -0.4098
  472MOL0     H63676   6.173   7.861   9.169 -1.5900  2.4454  2.0838
  472MOL0     H63677   6.315   7.781   9.238 -0.5816 -0.9926  1.1342
  472MOL0     H63678   6.226   7.825   9.473 -0.0029  1.8529  2.0828
  472MOL0     H63679   6.106   7.935   9.386  2.4743  3.8226 -3.3349
  472MOL0     H63680   6.453   7.767   9.425 -1.6768  0.0083 -0.4805
  472MOL0     H63681   6.691   7.767   9.469 -0.8206  0.1981  1.3724
  472MOL0     H63682   7.118   8.048   9.356 -1.0382  0.2050  1.5245
  472MOL0     H63683   7.336   8.002   9.302 -0.4815  1.0139  0.0610
  472MOL0     H63684   7.541   7.720   9.570  0.9308 -1.5850  1.4846
  472MOL0     H63685   7.532   7.591   9.449 -3.4985  0.2095 -1.8609
  472MOL0     H63686   7.732   7.641   9.345  0.3714  1.1148  0.0989
  472MOL0     H63687   7.726   7.804   9.403 -0.5818 -0.7580 -1.2347
  472MOL0     H63688   7.749   7.741   9.640 -0.8714  2.0935 -2.3023
  472MOL0     H63689   7.753   7.568   9.598  0.2464  0.0635  1.5820
  472MOL0     H63690   7.952   7.773   9.512 -2.6477  0.9042  0.2877
  472MOL0     H63691   7.949   7.598   9.468 -4.3914 -0.7674 -2.1114
  472MOL0     H63692   7.979   7.534   9.701 -1.8111 -0.0474 -0.3748
  472MOL0     H63693   7.974   7.698   9.767 -0.8977  0.8431 -0.0849
  472MOL0     H63694   8.175   7.614   9.554 -1.6922  1.9194 -0.0296
  472MOL0     H63695   8.174   7.758   9.650  2.7456 -0.6572 -2.6912
  472MOL0     H63696   8.342   7.596   9.700 -0.2908  2.6268  0.1557
  472MOL0     H63697   8.224   7.485   9.779  1.2268 -0.8930  0.7632
  472MOL0     H63698   8.244   7.778   9.860 -2.3195 -0.0831 -1.3126
  472MOL0     H63699   8.157   7.654   9.929  0.6163  2.3528  1.4031
  472MOL0     H63700   7.304   7.601   9.480  0.7738 -0.5763 -1.1192
  472MOL0     H63701   7.069   7.652   9.505  0.0808 -1.5925 -0.9994
  472MOL0     H63702   6.709   8.180   9.365 -2.9266  1.5364 -0.6410
  472MOL0     H63703   6.470   8.186   9.331  0.4918 -0.4074 -2.1262
  472MOL0     H63704   4.943   7.031   9.193 -1.1461 -0.2501 -1.3595
  472MOL0     H63705   4.880   6.866   9.390 -3.4835  0.9450  1.4247
  472MOL0     H63706   4.750   6.650   9.621  0.2580 -0.2139 -0.1695
  472MOL0     H63707   4.711   6.565   9.838  0.6982  0.6650 -1.0712
  472MOL0     H63708   4.775   6.138   9.821  1.3629  1.3981  0.9136
  472MOL0     H63709   4.610   6.118   9.886 -1.3910  0.5694  6.0847
  472MOL0     H63710   4.865   6.182  10.038  0.2039 -1.1966  2.4130
  472MOL0     H63711   4.779   6.029  10.041  2.9966 -0.8802 -0.7318
  472MOL0     H63712   4.684   6.272  10.198  0.7790 -0.3712  0.4949
  472MOL0     H63713   4.721   6.107  10.238  3.8518  0.8153 -1.3366
  472MOL0     H63714   4.484   6.168  10.053  0.2022 -2.1493 -1.0976
  472MOL0     H63715   4.540   6.014  10.113  1.0190  0.8957  0.3531
  472MOL0     H63716   4.326   6.142  10.450  0.1169 -0.3861  1.3465
  472MOL0     H63717   4.579   6.204   9.686 -1.8854  0.0722 -1.0163
  472MOL0     H63718   4.512   6.172   9.476 -2.0123  1.6464  0.1988
  472MOL0     H63719   4.491   6.309   9.359  2.9812  3.1202 -0.8789
  472MOL0     H63720   4.639   6.213   9.359  0.5753  0.4315  0.2281
  473MOL0     O63721   7.954   3.848   7.259 -0.2858  0.2585 -0.4643
  473MOL0     C63722   7.913   3.955   7.229 -0.0022  0.1547 -0.2741
  473MOL0     O63723   7.990   4.056   7.189 -0.5764 -0.4714 -0.0517
  473MOL0     C63724   8.126   4.065   7.209 -0.7636 -0.9926 -0.0088
  473MOL0     C63725   8.168   4.198   7.190 -0.4816 -0.0259  1.7839
  473MOL0     C63726   8.305   4.227   7.200 -0.6036  0.1892 -0.0820
  473MOL0     C63727   8.398   4.126   7.228 -0.2323 -0.8383 -0.3830
  473MOL0     O63728   8.533   4.156   7.239  0.0096  0.0935  0.6634
  473MOL0     C63729   8.605   4.111   7.125  0.0293 -0.0834 -0.9989
  473MOL0     C63730   8.751   4.163   7.133  0.3381 -0.2089  0.1316
  473MOL0     C63731   8.825   4.113   7.258 -0.2741 -0.4774  0.5378
  473MOL0     C63732   8.964   4.197   7.267  0.0435 -0.2301  0.1641
  473MOL0     C63733   9.084   4.102   7.235 -0.3890  0.4535  0.5624
  473MOL0     C63734   9.120   4.106   7.091 -0.6692  0.4341 -0.1802
  473MOL0     C63735   9.226   4.007   7.046 -0.0498  0.0523  0.1505
  473MOL0     C63736   9.165   3.864   7.043 -0.2097 -0.5845 -0.5850
  473MOL0     N63737   9.264   3.777   7.096  0.4011  0.9403 -0.2345
  473MOL0     C63738   9.376   3.742   7.033  0.6840 -0.1648 -0.0047
  473MOL0     C63739   9.451   3.672   7.125  0.7734  0.1325 -0.1406
  473MOL0     C63740   9.593   3.623   7.089  0.6963  0.4072  0.1261
  473MOL0     C63741   9.692   3.726   7.127 -0.0578 -0.0017 -0.4879
  473MOL0     C63742   9.829   3.689   7.092  0.0886  0.7941 -0.4307
  473MOL0     C63743   9.931   3.801   7.101 -0.1039  0.2379  0.3590
  473MOL0     O63744   9.966   3.808   7.238 -0.3099 -0.4154 -0.6408
  473MOL0     C63745  10.092   3.785   7.269  0.5682  0.2345 -0.6216
  473MOL0     C63746  10.160   3.880   7.346  0.0889 -0.5886  0.9761
  473MOL0     C63747  10.288   3.865   7.391 -0.3919  0.6620 -0.2138
  473MOL0     C63748  10.364   3.754   7.347  0.8388  0.0551  0.8195
  473MOL0     C63749  10.506   3.734   7.384 -0.3095  0.1323 -0.3201
  473MOL0     O63750  10.570   3.640   7.309  0.7173  0.0674 -0.6910
  473MOL0     C63751  10.700   3.606   7.343  0.2971  0.7603  0.6721
  473MOL0     C63752  10.728   3.464   7.335  0.5492 -0.0817 -0.3372
  473MOL0     C63753  10.852   3.425   7.379 -0.9409  0.5873  0.1025
  473MOL0     C63754  10.952   3.515   7.409 -0.0272 -0.2791 -0.4990
  473MOL0     O63755  11.079   3.485   7.438  0.2849  0.0777  0.0622
  473MOL0     C63756  11.119   3.349   7.461 -0.1107 -0.1613 -0.6592
  473MOL0     C63757  11.279   3.347   7.477 -0.5158  0.0019 -0.0961
  473MOL0     C63758  11.318   3.446   7.591  0.3652 -0.3429  0.6293
  473MOL0     C63759  11.470   3.453   7.623 -0.5824  0.3002  0.7350
  473MOL0     C63760  11.474   3.549   7.746 -1.1983  0.5282  0.4710
  473MOL0     C63761  11.624   3.561   7.792 -0.5927  0.0645  0.0349
  473MOL0     C63762  11.647   3.676   7.892  0.2962  0.9194 -0.6846
  473MOL0     C63763  11.786   3.689   7.946 -0.1381  0.0407  0.5607
  473MOL0    Cl63764  11.849   3.548   8.027  0.3561 -0.5105  0.1006
  473MOL0     C63765  10.928   3.656   7.404  0.0917  0.5368 -0.1278
  473MOL0     C63766  10.801   3.698   7.374 -0.5029  0.2607  0.3406
  473MOL0     O63767  10.543   3.785   7.494 -0.4885  0.5389  0.4680
  473MOL0     C63768  10.290   3.659   7.273  0.9144  0.1028  0.0439
  473MOL0     C63769  10.158   3.673   7.234 -0.4990  0.2894 -0.7888
  473MOL0     N63770   9.394   3.671   7.252  0.8054 -1.2653 -0.0318
  473MOL0     N63771   9.275   3.734   7.229 -0.7005  0.7822  0.0473
  473MOL0     C63772   8.350   3.994   7.249  0.7606  0.4496 -0.3039
  473MOL0     C63773   8.216   3.961   7.243 -0.1644 -0.6061 -0.2128
  473MOL0     C63774   7.769   3.987   7.220 -0.7909 -0.2750 -0.6946
  473MOL0     C63775   7.737   4.124   7.216  0.4076 -0.4110 -0.1873
  473MOL0     C63776   7.608   4.169   7.192  1.5147 -0.3819 -0.5811
  473MOL0     C63777   7.501   4.077   7.189 -0.7216  0.4324 -0.6431
  473MOL0     O63778   7.382   4.128   7.173  0.1580  0.0988  0.6414
  473MOL0     C63779   7.273   4.053   7.121  0.1310  0.0217 -0.1082
  473MOL0     C63780   7.275   4.062   6.969  1.1428 -0.3817 -0.2127
  473MOL0     C63781   7.137   4.020   6.903  0.6396  0.3336 -1.0305
  473MOL0     C63782   7.041   4.145   6.881  0.0098  0.1302  0.6692
  473MOL0     C63783   6.904   4.096   6.845 -0.3017 -0.4052 -0.6553
  473MOL0     C63784   6.794   4.069   6.818 -0.3524  0.1372 -0.1800
  473MOL0     C63785   7.530   3.943   7.201  0.6955 -1.1097 -0.2909
  473MOL0     C63786   7.659   3.894   7.220 -0.2709  0.2490 -0.2822
  473MOL0     C63787   7.663   3.736   7.220  0.0954 -0.0257 -0.1683
  473MOL0     H63788   8.101   4.273   7.149  2.1255  2.5857  1.9863
  473MOL0     H63789   8.351   4.325   7.200 -1.8585  0.9509 -3.8702
  473MOL0     H63790   8.595   4.003   7.121 -0.3363 -0.1046  0.1835
  473MOL0     H63791   8.558   4.140   7.030  0.0725 -0.3868 -1.1153
  473MOL0     H63792   8.742   4.271   7.116  2.6913  0.0455  0.1834
  473MOL0     H63793   8.812   4.115   7.056  1.5045  3.4862 -1.4681
  473MOL0     H63794   8.847   4.007   7.241 -0.6853 -0.3669 -0.7444
  473MOL0     H63795   8.766   4.128   7.349  1.4512  2.2057  1.3386
  473MOL0     H63796   8.961   4.273   7.189  1.6384 -0.3257 -0.0181
  473MOL0     H63797   8.973   4.248   7.363 -1.2678  1.8381 -0.7350
  473MOL0     H63798   9.178   4.121   7.289 -0.9627  1.2753  1.3016
  473MOL0     H63799   9.057   4.003   7.273  0.1277  0.3698  0.7292
  473MOL0     H63800   9.035   4.078   7.029 -1.0828 -1.5070  1.1758
  473MOL0     H63801   9.157   4.207   7.069 -0.2115  0.5417  1.0080
  473MOL0     H63802   9.309   4.009   7.118  0.1392 -1.1683 -0.0105
  473MOL0     H63803   9.265   4.040   6.950 -0.4329 -2.0769 -0.7896
  473MOL0     H63804   9.074   3.846   7.101 -0.4120  1.9195 -0.0049
  473MOL0     H63805   9.142   3.831   6.942 -2.6208 -2.9405  0.6135
  473MOL0     H63806   9.405   3.793   6.941 -1.6757  1.5064  0.0895
  473MOL0     H63807   9.620   3.532   7.144  2.9026  0.3691 -0.9073
  473MOL0     H63808   9.599   3.600   6.982 -3.0499  0.5685 -0.2500
  473MOL0     H63809   9.657   3.820   7.084  1.5475  0.7054 -0.3213
  473MOL0     H63810   9.687   3.741   7.235 -0.3776  0.8336 -0.6095
  473MOL0     H63811   9.827   3.654   6.988 -2.8624 -1.6456  0.2779
  473MOL0     H63812   9.860   3.603   7.152  0.2144  1.4104  0.3946
  473MOL0     H63813   9.891   3.900   7.077  1.6229  1.2926  1.6169
  473MOL0     H63814  10.011   3.781   7.029 -0.5573  1.4952 -0.5372
  473MOL0     H63815  10.111   3.974   7.372  0.5679  0.1470 -0.6420
  473MOL0     H63816  10.346   3.930   7.456  0.8897 -2.8679  2.5166
  473MOL0     H63817  10.658   3.388   7.302  0.1989  1.4062 -3.4786
  473MOL0     H63818  10.885   3.322   7.382  2.0208  1.3830 -0.9699
  473MOL0     H63819  11.080   3.299   7.550  0.7072 -0.9047 -0.7036
  473MOL0     H63820  11.089   3.277   7.384 -1.2470  1.7807 -2.1409
  473MOL0     H63821  11.324   3.251   7.503 -0.9005 -0.5103 -1.2815
  473MOL0     H63822  11.322   3.381   7.382 -0.0516  4.2943  1.3928
  473MOL0     H63823  11.294   3.548   7.558  3.4916 -0.1076 -1.3833
  473MOL0     H63824  11.262   3.426   7.683 -0.6543  0.8646  0.3016
  473MOL0     H63825  11.525   3.476   7.531 -2.3994  0.7572 -0.2808
  473MOL0     H63826  11.503   3.351   7.642 -1.7599 -0.3366 -0.5023
  473MOL0     H63827  11.421   3.495   7.825 -1.1241  2.8938  2.2696
  473MOL0     H63828  11.421   3.642   7.726 -1.2624  0.7019  1.3768
  473MOL0     H63829  11.645   3.463   7.836  1.0630  1.0090  1.4908
  473MOL0     H63830  11.689   3.559   7.704 -1.2996  0.8758 -0.5204
  473MOL0     H63831  11.574   3.667   7.973 -0.6989 -0.0087 -1.6362
  473MOL0     H63832  11.622   3.764   7.831 -2.0550  0.7648 -0.0505
  473MOL0     H63833  11.854   3.715   7.865 -1.2110  2.5649  0.3715
  473MOL0     H63834  11.794   3.765   8.024 -2.8693  0.5877  0.4224
  473MOL0     H63835  11.016   3.717   7.418  0.1951  1.1747 -2.9488
  473MOL0     H63836  10.767   3.801   7.368 -2.6378 -0.3531  0.9729
  473MOL0     H63837  10.340   3.564   7.258  1.3682  0.6281 -1.9253
  473MOL0     H63838  10.107   3.589   7.188 -1.8323 -1.1967  3.0058
  473MOL0     H63839   8.417   3.912   7.274  0.1801 -0.4212 -1.4912
  473MOL0     H63840   8.185   3.857   7.246  1.8417 -1.2537 -0.2139
  473MOL0     H63841   7.805   4.203   7.244 -0.1449  0.1081 -0.2855
  473MOL0     H63842   7.582   4.274   7.205  0.3644 -0.6532 -0.5724
  473MOL0     H63843   7.185   4.096   7.171 -0.5551 -4.7539  3.5537
  473MOL0     H63844   7.274   3.948   7.153 -1.2069  0.4111  1.3441
  473MOL0     H63845   7.360   4.009   6.925  1.9380  1.6009 -1.2194
  473MOL0     H63846   7.291   4.167   6.941 -1.8322  0.4178  0.7869
  473MOL0     H63847   7.077   3.955   6.967 -0.0471  1.7535 -0.1843
  473MOL0     H63848   7.151   3.968   6.808  1.4137 -0.3926 -0.5292
  473MOL0     H63849   7.030   4.201   6.974 -0.2377  0.3067  0.5340
  473MOL0     H63850   7.073   4.210   6.799  0.3624  2.1135  2.3134
  473MOL0     H63851   6.699   4.033   6.785 -0.1644 -1.3844  0.8380
  473MOL0     H63852   7.445   3.875   7.195 -1.2959  1.0142  1.8975
  473MOL0     H63853   7.571   3.685   7.191  0.8760 -3.1416  2.2437
  473MOL0     H63854   7.754   3.704   7.167  0.7440  0.7795  0.4430
  473MOL0     H63855   7.664   3.701   7.323  2.1931 -1.2557 -0.5360
  474MOL0     O63856   0.092  10.845   0.122 -0.3688 -0.3905 -0.2701
  474MOL0     C63857  -0.024  10.889   0.122  0.8730  0.0532 -0.1448
  474MOL0     O63858  -0.088  10.946   0.231  0.1169 -0.0999  0.2519
  474MOL0     C63859  -0.013  10.937   0.347 -1.0815 -0.8170 -0.1577
  474MOL0     C63860   0.109  11.004   0.368  0.2502 -0.7866  0.8440
  474MOL0     C63861   0.166  11.020   0.492 -0.2040 -0.0025  0.6035
  474MOL0     C63862   0.118  10.939   0.595  0.4029  0.2699  0.6744
  474MOL0     O63863   0.191  10.953   0.709 -0.2283 -0.7733 -0.3554
  474MOL0     C63864   0.332  10.962   0.713  0.1513  0.2836  0.2967
  474MOL0     C63865   0.383  10.960   0.858  0.3529  1.2121  0.4120
  474MOL0     C63866   0.392  11.107   0.909 -0.8301 -0.2566 -0.5192
  474MOL0     C63867   0.459  11.106   1.051  0.2578  0.3762  0.2699
  474MOL0     C63868   0.495  11.247   1.098  0.5620 -0.3976 -0.1092
  474MOL0     C63869   0.539  11.250   1.249  0.3887  0.0083  0.4421
  474MOL0     C63870   0.524  11.387   1.320 -0.1812  0.0465  0.0252
  474MOL0     C63871   0.651  11.476   1.306  0.8998  0.1698 -0.5565
  474MOL0     N63872   0.690  11.500   1.163 -0.1308  0.4147 -0.2380
  474MOL0     C63873   0.640  11.605   1.094 -0.7177 -0.2272 -0.2488
  474MOL0     C63874   0.719  11.601   0.981 -0.8834 -0.1129 -0.3812
  474MOL0     C63875   0.689  11.698   0.874 -0.2363  0.0277  0.0480
  474MOL0     C63876   0.659  11.622   0.740  0.6619  0.5188 -0.2519
  474MOL0     C63877   0.619  11.718   0.620  0.2661  0.1708 -0.1921
  474MOL0     C63878   0.585  11.635   0.499 -0.0538  0.7529 -0.5759
  474MOL0     O63879   0.474  11.548   0.511  0.2748  0.5797 -0.2350
  474MOL0     C63880   0.433  11.485   0.397  0.8531  1.0592 -0.6598
  474MOL0     C63881   0.493  11.499   0.270  0.8578 -0.5159 -0.6239
  474MOL0     C63882   0.447  11.428   0.163 -1.0724 -0.3686 -0.1201
  474MOL0     C63883   0.336  11.350   0.186 -0.0138  1.0378  0.1135
  474MOL0     C63884   0.286  11.286   0.063 -0.0608  0.1577  0.1770
  474MOL0     O63885   0.359  11.308  -0.050 -0.3831  0.0971 -0.6705
  474MOL0     C63886   0.330  11.264  -0.175  1.1157 -0.0104 -0.1283
  474MOL0     C63887   0.201  11.239  -0.218  0.2325  0.0944 -0.7254
  474MOL0     C63888   0.166  11.201  -0.348  0.8569  0.1959 -0.0652
  474MOL0     C63889   0.270  11.187  -0.447  0.9655  0.1316  0.3851
  474MOL0     O63890   0.231  11.132  -0.563  0.3229 -0.2865  0.4533
  474MOL0     C63891   0.319  11.041  -0.624  0.2595 -0.1881 -0.5059
  474MOL0     C63892   0.266  10.988  -0.763  0.3069  0.2991  0.2428
  474MOL0     C63893   0.261  11.103  -0.871  0.2465  0.1962 -0.2713
  474MOL0     C63894   0.285  11.052  -1.010  0.5971 -0.3382  0.1042
  474MOL0     C63895   0.271  11.173  -1.103  0.0236 -0.2062 -0.0817
  474MOL0     C63896   0.286  11.124  -1.243 -0.4627 -0.6335 -0.7389
  474MOL0     C63897   0.331  11.237  -1.337  0.4490  0.2842  0.3050
  474MOL0     C63898   0.215  11.329  -1.386  0.1674  0.3667  0.2774
  474MOL0    Cl63899   0.128  11.418  -1.260 -0.0384  0.2362 -0.3966
  474MOL0     C63900   0.392  11.223  -0.415 -0.2980 -0.1075 -0.4053
  474MOL0     C63901   0.427  11.259  -0.279 -0.1211 -0.5622 -0.6832
  474MOL0     O63902   0.181  11.213   0.073  0.0302 -0.8789  0.7094
  474MOL0     C63903   0.269  11.335   0.312 -0.0216  0.1167 -0.2319
  474MOL0     C63904   0.312  11.411   0.417 -0.7577 -0.2235 -0.0885
  474MOL0     N63905   0.818  11.509   0.988  0.5103 -0.0337 -0.5247
  474MOL0     N63906   0.787  11.438   1.091 -0.2649  0.4104 -0.2708
  474MOL0     C63907   0.007  10.864   0.582 -0.1744  0.0145  0.6328
  474MOL0     C63908  -0.065  10.869   0.457 -0.3198  0.4614 -0.8567
  474MOL0     C63909  -0.113  10.868   0.004  0.5377  0.6001 -0.4639
  474MOL0     C63910  -0.246  10.836   0.031  0.2456  0.3258  0.1245
  474MOL0     C63911  -0.328  10.785  -0.071 -0.6363 -0.4821  1.2020
  474MOL0     C63912  -0.278  10.768  -0.207 -0.5630 -0.3136 -0.1207
  474MOL0     O63913  -0.353  10.714  -0.313 -0.2637  0.4328  0.5770
  474MOL0     C63914  -0.495  10.709  -0.320 -0.1392 -0.2844  0.3451
  474MOL0     C63915  -0.541  10.675  -0.462  0.5139  0.2541 -1.7083
  474MOL0     C63916  -0.522  10.803  -0.540  0.1403  0.3929  0.2837
  474MOL0     C63917  -0.617  10.797  -0.665  0.0707 -0.0028 -0.2270
  474MOL0     C63918  -0.596  10.923  -0.737 -0.2187 -0.1892  0.2285
  474MOL0     C63919  -0.594  11.035  -0.783  0.0823 -0.6781  0.2480
  474MOL0     C63920  -0.149  10.808  -0.230 -0.3239  0.8885 -0.1529
  474MOL0     C63921  -0.068  10.862  -0.121 -0.0324 -0.0182  0.5535
  474MOL0     C63922   0.063  10.896  -0.176 -0.4836  0.3692 -0.6162
  474MOL0     H63923   0.150  11.045   0.276 -0.0665 -0.5713  0.8006
  474MOL0     H63924   0.238  11.097   0.518 -0.3786 -0.2352  1.8392
  474MOL0     H63925   0.366  10.878   0.654 -2.0941  0.8887 -2.0354
  474MOL0     H63926   0.377  11.046   0.659  2.1544 -1.9031 -1.5981
  474MOL0     H63927   0.477  10.905   0.851 -2.7273 -5.0234  0.5290
  474MOL0     H63928   0.312  10.903   0.918 -0.8337  1.4510 -0.6958
  474MOL0     H63929   0.294  11.155   0.910 -0.6305  0.2820 -2.4418
  474MOL0     H63930   0.458  11.153   0.835  0.8917 -2.8106 -0.7062
  474MOL0     H63931   0.392  11.064   1.127 -1.0059  0.5278 -0.7380
  474MOL0     H63932   0.545  11.040   1.041 -2.0738 -3.2581  1.8046
  474MOL0     H63933   0.585  11.282   1.047  1.1775  0.0557  1.2263
  474MOL0     H63934   0.416  11.320   1.081  0.8840  0.3994  1.5905
  474MOL0     H63935   0.485  11.175   1.307  0.6359 -1.4040 -1.0539
  474MOL0     H63936   0.642  11.212   1.251  0.8560  1.2867  1.5974
  474MOL0     H63937   0.518  11.384   1.429  5.4598  0.2194  0.6358
  474MOL0     H63938   0.436  11.436   1.279 -0.0537 -0.2488 -0.6102
  474MOL0     H63939   0.627  11.569   1.359 -2.5478 -1.1950  0.5246
  474MOL0     H63940   0.738  11.439   1.362 -1.7707  0.0450  3.9943
  474MOL0     H63941   0.547  11.658   1.112  0.1003  1.4717 -0.7572
  474MOL0     H63942   0.601  11.757   0.903 -0.8500  0.4183 -2.4149
  474MOL0     H63943   0.770  11.771   0.864  0.5958 -1.2323 -3.8959
  474MOL0     H63944   0.751  11.568   0.717  1.7676  2.3732 -0.3661
  474MOL0     H63945   0.577  11.555   0.768  2.4345 -1.4196  0.5587
  474MOL0     H63946   0.705  11.787   0.619  0.3999  0.3226  3.8121
  474MOL0     H63947   0.533  11.780   0.647 -0.7228 -0.3715 -2.0008
  474MOL0     H63948   0.676  11.577   0.477  2.4251  3.9285  0.6177
  474MOL0     H63949   0.566  11.705   0.417 -1.2617  1.2424  0.1117
  474MOL0     H63950   0.580  11.560   0.247  0.7379 -0.4352 -0.8719
  474MOL0     H63951   0.504  11.449   0.073 -1.6859 -1.7510 -0.8554
  474MOL0     H63952   0.118  11.253  -0.150  1.3025  2.5410  0.1722
  474MOL0     H63953   0.061  11.184  -0.370  1.7383 -3.0856 -2.7117
  474MOL0     H63954   0.415  11.090  -0.644 -0.9424  2.0436 -1.0913
  474MOL0     H63955   0.325  10.950  -0.563  0.7361 -1.6177 -2.5640
  474MOL0     H63956   0.344  10.917  -0.791  2.2995  0.8649  3.7558
  474MOL0     H63957   0.167  10.942  -0.751  0.3899  0.6414  3.0676
  474MOL0     H63958   0.165  11.155  -0.861 -0.3504 -0.7540 -0.8078
  474MOL0     H63959   0.317  11.193  -0.847 -0.5617  0.2071  1.7998
  474MOL0     H63960   0.221  10.967  -1.034  4.0376 -3.4292  0.9955
  474MOL0     H63961   0.379  10.996  -1.018  1.4608  0.9771  0.6277
  474MOL0     H63962   0.343  11.253  -1.083  1.8240 -2.3432  2.6684
  474MOL0     H63963   0.169  11.209  -1.091  0.2869  1.2372 -1.7382
  474MOL0     H63964   0.365  11.049  -1.250  1.0497  0.8835 -0.5783
  474MOL0     H63965   0.194  11.079  -1.281 -0.1721 -0.5820 -1.5226
  474MOL0     H63966   0.368  11.186  -1.426 -2.2320  1.1205 -1.3990
  474MOL0     H63967   0.399  11.312  -1.294  2.4519 -1.2092 -0.1210
  474MOL0     H63968   0.252  11.399  -1.462  1.2066 -1.1418 -0.6654
  474MOL0     H63969   0.134  11.273  -1.433 -0.1179  0.4206  0.7015
  474MOL0     H63970   0.477  11.230  -0.482  0.2119 -0.4620  0.1888
  474MOL0     H63971   0.530  11.289  -0.262  0.6639 -3.4367  0.1730
  474MOL0     H63972   0.185  11.266   0.305  1.0616 -1.1849 -0.8012
  474MOL0     H63973   0.270  11.406   0.517  0.3224  2.1292  0.5529
  474MOL0     H63974  -0.018  10.791   0.659  1.0415  0.9752  1.9876
  474MOL0     H63975  -0.155  10.809   0.456  0.9057 -1.6447  2.0967
  474MOL0     H63976  -0.296  10.819   0.126  0.0277 -0.1737 -0.0724
  474MOL0     H63977  -0.428  10.764  -0.036 -0.6538 -1.0949  0.7911
  474MOL0     H63978  -0.546  10.797  -0.280 -0.7843  0.2302 -1.4840
  474MOL0     H63979  -0.534  10.630  -0.254  0.8626 -0.5709  0.6139
  474MOL0     H63980  -0.646  10.645  -0.461  0.0541  1.5328  1.2119
  474MOL0     H63981  -0.485  10.590  -0.499  0.2505 -0.4825 -0.4738
  474MOL0     H63982  -0.417  10.801  -0.571 -0.5610 -3.8019 -2.8056
  474MOL0     H63983  -0.536  10.899  -0.491 -0.0665  0.8797 -0.7028
  474MOL0     H63984  -0.591  10.711  -0.727 -1.4414 -0.7011  0.0613
  474MOL0     H63985  -0.723  10.784  -0.641 -0.6012  1.6315 -1.9992
  474MOL0     H63986  -0.600  11.140  -0.806  0.0319 -0.6229  0.5119
  474MOL0     H63987  -0.100  10.796  -0.326 -1.8360  3.2979 -1.3334
  474MOL0     H63988   0.134  10.813  -0.172 -1.1359 -0.1836  3.5813
  474MOL0     H63989   0.047  10.937  -0.277  0.7218  1.0541 -0.5470
  474MOL0     H63990   0.108  10.978  -0.118  0.7464  0.0149 -1.0368
  475MOL0     O63991  11.159   0.612   3.988 -0.4265  0.9190  0.5056
  475MOL0     C63992  11.188   0.672   3.879  0.4822  0.0100 -0.3620
  475MOL0     O63993  11.294   0.650   3.803 -0.5053 -0.3494  0.3493
  475MOL0     C63994  11.365   0.530   3.823  0.2168  0.7017 -0.4992
  475MOL0     C63995  11.503   0.531   3.861 -0.0540 -1.1009 -0.2443
  475MOL0     C63996  11.581   0.414   3.876  0.4816 -0.0202 -0.2924
  475MOL0     C63997  11.516   0.289   3.857 -0.0666 -0.5914  0.0396
  475MOL0     O63998  11.598   0.183   3.891  0.1277 -0.0797 -1.0890
  475MOL0     C63999  11.536   0.050   3.877  0.0100 -0.1169  0.7319
  475MOL0     C64000  11.621  -0.067   3.896 -0.3433 -0.0991  0.0082
  475MOL0     C64001  11.710  -0.065   4.023 -0.2007 -0.0682  0.2900
  475MOL0     C64002  11.810  -0.178   4.017 -0.3015  1.5094  0.3257
  475MOL0     C64003  11.896  -0.180   4.150  0.7041  0.8819  0.2990
  475MOL0     C64004  11.942  -0.050   4.224  0.3316 -0.6678  0.2960
  475MOL0     C64005  11.997  -0.086   4.359 -0.7477 -0.0149  0.0989
  475MOL0     C64006  12.089   0.018   4.433  0.2483  0.4854 -0.5483
  475MOL0     N64007  12.134  -0.046   4.561 -0.1269  0.0565  0.6471
  475MOL0     C64008  12.070  -0.010   4.679  0.0434  0.6691 -0.4954
  475MOL0     C64009  12.125  -0.092   4.764  0.5601 -0.2962 -0.4349
  475MOL0     C64010  12.097  -0.087   4.912  1.3866 -0.3907  0.3398
  475MOL0     C64011  12.221  -0.059   5.000  1.2764 -0.0231 -0.7376
  475MOL0     C64012  12.318   0.063   4.976 -0.5522 -0.2993 -0.4214
  475MOL0     C64013  12.395   0.095   5.104  0.0257 -0.5295  1.1140
  475MOL0     O64014  12.495  -0.003   5.134 -0.1729  0.1065 -0.3216
  475MOL0     C64015  12.624  -0.001   5.086  0.3081 -0.2326 -0.1639
  475MOL0     C64016  12.695  -0.116   5.101 -0.6245 -0.1950 -0.7345
  475MOL0     C64017  12.831  -0.134   5.049  0.1289 -0.9616 -0.4637
  475MOL0     C64018  12.894  -0.028   4.981 -0.0008  0.5712  0.1072
  475MOL0     C64019  13.032  -0.040   4.917 -0.5137 -0.9746  0.4295
  475MOL0     O64020  13.103  -0.152   4.926  0.3282  0.4398  0.0191
  475MOL0     C64021  13.238  -0.143   4.943  0.3474  0.7758 -0.2203
  475MOL0     C64022  13.301  -0.056   5.042  0.3138 -0.0245  0.6371
  475MOL0     C64023  13.435  -0.045   5.056 -0.4452  0.0734  0.0741
  475MOL0     C64024  13.520  -0.119   4.979  0.2745  0.5879  0.1537
  475MOL0     O64025  13.658  -0.127   4.992 -0.2858 -0.2354  0.6735
  475MOL0     C64026  13.719  -0.032   5.078  0.0651 -0.0498  0.2914
  475MOL0     C64027  13.864  -0.083   5.096  0.0232 -0.2735 -0.8783
  475MOL0     C64028  13.945   0.011   5.189 -1.0052 -0.3460 -0.5966
  475MOL0     C64029  13.907   0.006   5.339  0.2329 -0.2183  0.7588
  475MOL0     C64030  13.978   0.114   5.427  0.1759 -0.1634  0.0060
  475MOL0     C64031  14.127   0.107   5.424  0.4474  0.1015  0.7894
  475MOL0     C64032  14.200   0.217   5.497 -0.3693  0.2658  0.7728
  475MOL0     C64033  14.347   0.191   5.498 -0.2594  0.9110 -0.0098
  475MOL0    Cl64034  14.404   0.245   5.342 -0.1848  0.0045 -0.5136
  475MOL0     C64035  13.459  -0.219   4.889  0.5928  0.1156 -0.1105
  475MOL0     C64036  13.321  -0.224   4.865  0.1321  0.3449 -0.8700
  475MOL0     O64037  13.069   0.060   4.860 -0.0365 -0.3341  0.0665
  475MOL0     C64038  12.821   0.088   4.970 -0.0783  0.0295  0.2528
  475MOL0     C64039  12.687   0.111   5.025 -0.9259  1.3681 -0.9452
  475MOL0     N64040  12.229  -0.173   4.706 -0.8982 -0.0846 -0.0270
  475MOL0     N64041  12.224  -0.138   4.584 -0.1390  0.1578  0.0940
  475MOL0     C64042  11.382   0.290   3.816 -0.3575 -0.1441 -0.1497
  475MOL0     C64043  11.306   0.405   3.791 -0.7986 -0.5378  0.2851
  475MOL0     C64044  11.095   0.780   3.834  1.2099  0.2356 -0.2317
  475MOL0     C64045  11.022   0.847   3.932  0.0678  0.1410  0.1892
  475MOL0     C64046  10.928   0.930   3.897 -0.0166 -1.5995 -0.0026
  475MOL0     C64047  10.890   0.950   3.762  0.7128 -0.5904  1.0443
  475MOL0     O64048  10.791   1.034   3.723 -0.2587 -0.0352  0.4862
  475MOL0     C64049  10.663   0.981   3.717  0.3357 -0.3105 -0.2529
  475MOL0     C64050  10.583   0.999   3.851 -0.2394  0.2163 -0.4226
  475MOL0     C64051  10.444   0.937   3.820  0.0252  0.0843  0.3079
  475MOL0     C64052  10.349   0.958   3.933 -0.1052  0.1214 -0.2437
  475MOL0     C64053  10.392   0.884   4.047 -0.7143 -0.4744 -0.3506
  475MOL0     C64054  10.421   0.807   4.138  0.7394 -0.4805 -0.2946
  475MOL0     C64055  10.967   0.900   3.667  0.1189  0.5228  0.8269
  475MOL0     C64056  11.070   0.810   3.698 -0.0421  0.8084 -0.2340
  475MOL0     C64057  11.144   0.745   3.580  0.2770 -0.3577 -0.4408
  475MOL0     H64058  11.540   0.630   3.885 -3.1388  0.2446 -0.5524
  475MOL0     H64059  11.687   0.413   3.898  0.2999  2.8392  1.2093
  475MOL0     H64060  11.459   0.044   3.955  1.7700 -0.9013  2.5127
  475MOL0     H64061  11.495   0.032   3.777  1.0568 -2.6495  0.6719
  475MOL0     H64062  11.690  -0.070   3.812 -1.2424 -0.7794 -0.7307
  475MOL0     H64063  11.561  -0.157   3.881 -1.1413  0.9413 -4.1764
  475MOL0     H64064  11.645  -0.072   4.111  1.1748 -2.1131  1.1979
  475MOL0     H64065  11.766   0.029   4.024  2.0985 -1.3527 -1.2736
  475MOL0     H64066  11.760  -0.275   4.017  1.3367  0.5924  1.5265
  475MOL0     H64067  11.882  -0.162   3.937  1.3999  1.0463  1.6844
  475MOL0     H64068  11.828  -0.233   4.217  0.0259 -0.1775 -1.1759
  475MOL0     H64069  11.982  -0.246   4.132 -2.6403 -3.8321 -0.3127
  475MOL0     H64070  12.010   0.009   4.162  0.6022 -2.7561 -1.5077
  475MOL0     H64071  11.857   0.018   4.235  3.3090  3.1687  1.6907
  475MOL0     H64072  12.055  -0.179   4.353 -0.7418 -0.1289  1.6413
  475MOL0     H64073  11.912  -0.102   4.426 -3.6751 -1.9889 -3.6592
  475MOL0     H64074  12.178   0.039   4.374  1.1550  0.2121  0.6814
  475MOL0     H64075  12.033   0.108   4.461 -0.2232  0.1721 -0.4618
  475MOL0     H64076  11.993   0.067   4.691 -0.2906 -0.0639  3.2580
  475MOL0     H64077  12.032  -0.001   4.931 -1.2978 -2.2926  0.2488
  475MOL0     H64078  12.050  -0.181   4.942 -0.1156  0.4861  0.8620
  475MOL0     H64079  12.179  -0.035   5.098  1.7495 -0.7430 -0.3498
  475MOL0     H64080  12.280  -0.151   5.005  1.9257  0.4242  0.2702
  475MOL0     H64081  12.267   0.147   4.929  2.6847  1.5225 -0.9627
  475MOL0     H64082  12.392   0.029   4.902 -0.0003 -0.1578  0.0625
  475MOL0     H64083  12.321   0.128   5.177  0.2950  0.9222  0.7629
  475MOL0     H64084  12.448   0.190   5.091 -0.4002 -0.4197  0.0827
  475MOL0     H64085  12.648  -0.198   5.154 -2.7820  0.4313 -1.5444
  475MOL0     H64086  12.869  -0.236   5.048 -0.0669 -1.0468 -2.5605
  475MOL0     H64087  13.232   0.007   5.098 -2.2568  0.7131 -2.9989
  475MOL0     H64088  13.465   0.029   5.129 -0.0004  1.0405 -1.0429
  475MOL0     H64089  13.720   0.070   5.037  4.2179 -0.2013 -0.3947
  475MOL0     H64090  13.668  -0.039   5.174  0.1305 -0.4206  0.2984
  475MOL0     H64091  13.860  -0.182   5.140 -0.0390  0.9222  2.0350
  475MOL0     H64092  13.910  -0.095   4.997  0.4203 -1.8559 -0.5167
  475MOL0     H64093  14.049  -0.022   5.188 -0.7048 -0.0162  3.5742
  475MOL0     H64094  13.929   0.114   5.155  0.0419 -0.2115 -0.7233
  475MOL0     H64095  13.929  -0.096   5.374  0.8561 -0.2881  0.1699
  475MOL0     H64096  13.799   0.021   5.350  0.4513  1.1622  1.0996
  475MOL0     H64097  13.947   0.087   5.528  0.0215  1.5758  0.4397
  475MOL0     H64098  13.937   0.215   5.421 -0.2696 -0.2755  0.9878
  475MOL0     H64099  14.155   0.007   5.456 -1.1033 -1.6585 -2.7800
  475MOL0     H64100  14.152   0.113   5.318 -3.3573 -2.4308 -0.4647
  475MOL0     H64101  14.166   0.211   5.601  3.5498 -1.6132  2.1355
  475MOL0     H64102  14.176   0.318   5.460  0.6910  0.0235 -0.6539
  475MOL0     H64103  14.394   0.260   5.569 -2.1897  1.2695  0.9945
  475MOL0     H64104  14.379   0.088   5.514 -0.0402  0.8724 -0.6712
  475MOL0     H64105  13.514  -0.300   4.843 -1.6482 -1.4455 -0.1880
  475MOL0     H64106  13.276  -0.290   4.792 -0.2925  0.2688 -0.5460
  475MOL0     H64107  12.858   0.176   4.917 -0.4096  0.3095  0.4824
  475MOL0     H64108  12.648   0.211   5.008 -2.2614  1.2283  1.0165
  475MOL0     H64109  11.324   0.200   3.799 -0.0667 -0.1174 -1.3756
  475MOL0     H64110  11.203   0.397   3.758 -0.0531 -0.0581 -2.3962
  475MOL0     H64111  11.041   0.828   4.037  0.7741  1.1293  0.2598
  475MOL0     H64112  10.878   0.996   3.966 -0.3079  0.0259 -1.7027
  475MOL0     H64113  10.645   0.875   3.697  1.0131 -0.5769  0.5259
  475MOL0     H64114  10.611   1.037   3.638 -3.5004 -2.6850  0.2998
  475MOL0     H64115  10.582   1.104   3.881 -3.9133  0.1798  0.0947
  475MOL0     H64116  10.636   0.948   3.932 -0.6136  2.8208  1.5864
  475MOL0     H64117  10.467   0.831   3.807 -1.2540 -0.7018  3.5945
  475MOL0     H64118  10.404   0.993   3.735 -0.1896 -0.7135 -0.1273
  475MOL0     H64119  10.333   1.064   3.956  2.2773  0.8168 -1.4604
  475MOL0     H64120  10.254   0.918   3.896  0.8015 -0.1243 -2.5058
  475MOL0     H64121  10.447   0.742   4.219  0.4984 -0.0829  0.1110
  475MOL0     H64122  10.942   0.916   3.563 -0.5550  2.1164  1.2092
  475MOL0     H64123  11.252   0.763   3.582  0.3948  0.7372 -5.1767
  475MOL0     H64124  11.107   0.643   3.591 -2.5616  0.6167 -0.1417
  475MOL0     H64125  11.120   0.784   3.481  2.1020  4.3296  0.7065
  476MOL0     O64126   6.245   4.472   5.236 -0.4763  0.3251 -0.3939
  476MOL0     C64127   6.148   4.542   5.278 -0.4818 -0.5151  0.2253
  476MOL0     O64128   6.145   4.623   5.391  0.2521  0.5574  0.1015
  476MOL0     C64129   6.256   4.610   5.466  0.5243  0.1275  0.7177
  476MOL0     C64130   6.349   4.714   5.465  0.1603 -0.1958 -0.0503
  476MOL0     C64131   6.463   4.697   5.549  0.2927 -0.1518 -1.2072
  476MOL0     C64132   6.478   4.590   5.637  0.1506  0.3081 -0.0738
  476MOL0     O64133   6.578   4.614   5.728  0.1586 -0.1555 -0.1616
  476MOL0     C64134   6.517   4.650   5.848  0.7993  1.4457 -0.2431
  476MOL0     C64135   6.613   4.725   5.938  0.0773 -0.5560  0.4656
  476MOL0     C64136   6.703   4.627   6.019  0.7977  0.2409 -0.6678
  476MOL0     C64137   6.806   4.691   6.107 -0.0033  0.7764 -1.1258
  476MOL0     C64138   6.931   4.718   6.035 -0.4664 -0.6539  0.7892
  476MOL0     C64139   6.932   4.844   5.947 -0.0329 -0.7045  0.4659
  476MOL0     C64140   7.077   4.895   5.919  0.2153 -0.6790 -0.2455
  476MOL0     C64141   7.111   5.040   5.973 -0.1979 -0.0612  0.1734
  476MOL0     N64142   7.113   5.050   6.114 -0.6394  1.1178  0.5756
  476MOL0     C64143   7.220   5.008   6.195  1.0130 -0.0507 -0.0284
  476MOL0     C64144   7.192   5.049   6.319 -0.3057 -1.1323  0.2899
  476MOL0     C64145   7.279   5.027   6.438  0.7803 -0.3209 -1.0176
  476MOL0     C64146   7.271   4.872   6.453  0.0434 -0.1963 -0.3813
  476MOL0     C64147   7.347   4.827   6.581  0.9270 -0.8325 -0.4359
  476MOL0     C64148   7.488   4.784   6.562  0.6082  0.5033  1.2091
  476MOL0     O64149   7.558   4.869   6.463  0.8450 -0.1588  0.5136
  476MOL0     C64150   7.683   4.832   6.431  1.0958  0.0197  0.0496
  476MOL0     C64151   7.743   4.916   6.342 -0.0982 -0.0513 -0.0041
  476MOL0     C64152   7.883   4.929   6.326  0.6011 -0.2390  0.6370
  476MOL0     C64153   7.965   4.836   6.388 -0.6884  0.4900 -1.0313
  476MOL0     C64154   8.107   4.824   6.373 -0.7875 -0.0279  0.5467
  476MOL0     O64155   8.161   4.700   6.402  0.3243  0.2906  0.9289
  476MOL0     C64156   8.292   4.686   6.394 -0.1908 -1.3211  0.1830
  476MOL0     C64157   8.362   4.648   6.501 -0.9653  0.3140 -0.3144
  476MOL0     C64158   8.504   4.633   6.496  0.4341  0.0133  0.6102
  476MOL0     C64159   8.575   4.646   6.368  0.6762 -0.5669  0.3601
  476MOL0     O64160   8.708   4.621   6.375  0.0450  0.1687  0.3676
  476MOL0     C64161   8.782   4.697   6.281 -0.4257 -0.4579  0.3329
  476MOL0     C64162   8.939   4.673   6.306  1.1326 -0.3724 -0.2384
  476MOL0     C64163   8.970   4.742   6.438 -0.4100 -0.3337 -0.0447
  476MOL0     C64164   9.102   4.683   6.502 -0.3663  0.3844 -0.6629
  476MOL0     C64165   9.141   4.749   6.635 -0.4210 -0.1261  0.9460
  476MOL0     C64166   9.280   4.701   6.684  0.6785 -0.8158  0.4387
  476MOL0     C64167   9.325   4.769   6.821  0.4339 -0.4606  0.2918
  476MOL0     C64168   9.484   4.735   6.826 -0.6035 -0.3800 -0.0153
  476MOL0    Cl64169   9.503   4.545   6.827  0.0694 -0.1582  0.4114
  476MOL0     C64170   8.494   4.679   6.254  0.3637  0.1610  0.8012
  476MOL0     C64171   8.353   4.703   6.271 -0.9667  0.6580  0.2422
  476MOL0     O64172   8.179   4.925   6.332  0.1044  0.6244  0.1355
  476MOL0     C64173   7.902   4.740   6.477 -0.5059 -0.6161  0.8498
  476MOL0     C64174   7.765   4.744   6.502  0.0180 -0.3583  0.1356
  476MOL0     N64175   7.072   5.115   6.307  0.1328  0.2333 -0.7469
  476MOL0     N64176   7.017   5.110   6.189  0.9833 -0.2457 -0.0065
  476MOL0     C64177   6.391   4.484   5.629  0.8010  0.2560  0.0145
  476MOL0     C64178   6.272   4.496   5.549 -0.8617  0.1722  0.3674
  476MOL0     C64179   6.036   4.531   5.186  0.7277  1.2807 -0.0979
  476MOL0     C64180   6.014   4.635   5.097 -0.4288  0.4316 -0.2554
  476MOL0     C64181   5.900   4.626   5.006  0.6411 -0.0019 -1.6602
  476MOL0     C64182   5.817   4.513   5.008 -0.5447  0.3899  0.7682
  476MOL0     O64183   5.706   4.514   4.933  0.0421 -0.4963 -0.2940
  476MOL0     C64184   5.603   4.421   4.966  0.0741  0.5475 -0.0035
  476MOL0     C64185   5.470   4.465   4.906 -0.2347 -0.2167 -0.5054
  476MOL0     C64186   5.500   4.507   4.762  0.2962  0.1433  0.0348
  476MOL0     C64187   5.364   4.478   4.689 -1.5143 -0.6360  0.1573
  476MOL0     C64188   5.340   4.568   4.572  0.2718  0.2473 -0.5296
  476MOL0     C64189   5.329   4.652   4.486  1.0706  0.3609  0.0787
  476MOL0     C64190   5.854   4.406   5.084  0.3962  0.3287  0.0258
  476MOL0     C64191   5.967   4.407   5.167  0.7739 -0.0809  0.4307
  476MOL0     C64192   5.992   4.281   5.247  0.5578 -0.4907  0.4620
  476MOL0     H64193   6.352   4.797   5.394 -0.2904 -1.3619 -1.4773
  476MOL0     H64194   6.533   4.780   5.550 -1.2961  1.2540 -0.4297
  476MOL0     H64195   6.441   4.728   5.833  0.5018  2.2845  4.2198
  476MOL0     H64196   6.465   4.569   5.900  0.6547  2.4407  1.2299
  476MOL0     H64197   6.561   4.791   6.008  0.4420 -1.4469  1.5858
  476MOL0     H64198   6.674   4.784   5.868 -1.9229 -0.5520 -1.3662
  476MOL0     H64199   6.748   4.554   5.952  0.4802 -0.3495 -0.2552
  476MOL0     H64200   6.635   4.578   6.090  0.9077  0.2031 -0.5885
  476MOL0     H64201   6.769   4.782   6.155  0.7982  0.3088  0.4535
  476MOL0     H64202   6.819   4.620   6.189  0.6939  0.9137 -1.1179
  476MOL0     H64203   7.013   4.732   6.106 -1.8713  0.1089  2.3229
  476MOL0     H64204   6.958   4.622   5.990 -1.1694 -1.8533  2.8325
  476MOL0     H64205   6.880   4.831   5.852  1.0231  0.1394 -0.2629
  476MOL0     H64206   6.885   4.929   5.997  1.2447  0.1208  0.3295
  476MOL0     H64207   7.071   4.896   5.810 -1.4160 -1.7510 -0.2004
  476MOL0     H64208   7.165   4.833   5.938  0.9950  0.0324 -1.3850
  476MOL0     H64209   7.203   5.079   5.929 -0.7481  0.4798 -0.5330
  476MOL0     H64210   7.028   5.104   5.940  0.9935  2.0684  1.1548
  476MOL0     H64211   7.306   4.959   6.151  0.1617 -0.5206 -1.2610
  476MOL0     H64212   7.386   5.041   6.419  0.8001 -1.2520 -1.6200
  476MOL0     H64213   7.233   5.090   6.515  1.0803  2.4657 -2.9686
  476MOL0     H64214   7.169   4.832   6.455  0.2355 -0.9585 -2.6444
  476MOL0     H64215   7.313   4.814   6.371  0.9023  0.6993 -0.5959
  476MOL0     H64216   7.294   4.735   6.607  0.8047 -0.6451 -0.0170
  476MOL0     H64217   7.335   4.908   6.654 -1.6664  1.0857 -2.7505
  476MOL0     H64218   7.498   4.691   6.505 -1.5149  0.6962  0.4259
  476MOL0     H64219   7.544   4.771   6.655  2.6764  0.9450  0.0796
  476MOL0     H64220   7.691   5.005   6.308 -1.0900 -1.1816 -1.5911
  476MOL0     H64221   7.924   5.000   6.255 -0.5094 -0.6175 -0.4148
  476MOL0     H64222   8.307   4.644   6.595  0.4249  2.2100  0.6470
  476MOL0     H64223   8.562   4.606   6.584 -0.4265  0.2127  1.2645
  476MOL0     H64224   8.774   4.672   6.175  4.0495  1.1100 -0.6209
  476MOL0     H64225   8.761   4.804   6.291  0.4518 -0.3781  1.6677
  476MOL0     H64226   8.960   4.567   6.326  1.3390  0.0641  2.0749
  476MOL0     H64227   9.003   4.708   6.224  1.9600 -2.3266 -0.5062
  476MOL0     H64228   8.997   4.843   6.404 -3.6500  0.1105 -1.6698
  476MOL0     H64229   8.887   4.738   6.509 -0.1688 -0.1008  0.2496
  476MOL0     H64230   9.184   4.703   6.432  1.2531 -0.1034  1.0087
  476MOL0     H64231   9.100   4.574   6.511  2.8906  0.3284  1.3491
  476MOL0     H64232   9.068   4.713   6.707  0.2596  0.3774  1.9117
  476MOL0     H64233   9.151   4.857   6.618  2.4962 -0.2367  1.3548
  476MOL0     H64234   9.265   4.593   6.698  1.0014 -0.6175  2.6391
  476MOL0     H64235   9.365   4.712   6.616  1.8565  0.4771  2.0393
  476MOL0     H64236   9.271   4.729   6.907 -1.0916  2.4938  0.8134
  476MOL0     H64237   9.315   4.878   6.825  2.6929 -0.2076  0.6374
  476MOL0     H64238   9.551   4.773   6.749 -0.0624  4.1165  2.3316
  476MOL0     H64239   9.512   4.777   6.922  0.4273  2.2215 -1.3576
  476MOL0     H64240   8.531   4.711   6.157 -1.4715 -2.5498 -0.9437
  476MOL0     H64241   8.290   4.727   6.185 -0.1562  0.0685 -0.5281
  476MOL0     H64242   7.966   4.667   6.525 -0.5789  0.7208  3.1831
  476MOL0     H64243   7.732   4.665   6.569 -0.2606  1.6306  2.4906
  476MOL0     H64244   6.403   4.410   5.708  1.9011  4.0928  3.7949
  476MOL0     H64245   6.194   4.421   5.552 -1.0301  0.3500  0.4001
  476MOL0     H64246   6.070   4.728   5.103 -0.0488  0.1160  1.6555
  476MOL0     H64247   5.883   4.718   4.950 -0.2795  1.3061  0.6088
  476MOL0     H64248   5.586   4.410   5.073  0.3217 -0.0220 -0.0196
  476MOL0     H64249   5.620   4.319   4.929 -0.4179  0.4050  0.1648
  476MOL0     H64250   5.435   4.550   4.966  0.1473 -0.1580 -0.3610
  476MOL0     H64251   5.399   4.381   4.911 -1.4686  0.7892 -0.4636
  476MOL0     H64252   5.580   4.443   4.723 -0.8091 -0.6015 -1.0865
  476MOL0     H64253   5.517   4.615   4.758 -3.8829  0.9740  0.3286
  476MOL0     H64254   5.373   4.374   4.655  0.6598 -0.8234  1.1371
  476MOL0     H64255   5.276   4.499   4.751 -2.6830 -1.0663 -1.2867
  476MOL0     H64256   5.323   4.724   4.407 -4.6849 -0.3263 -0.5611
  476MOL0     H64257   5.808   4.307   5.082  3.5173 -1.2942  1.3132
  476MOL0     H64258   6.046   4.216   5.178 -0.4147 -0.8178  0.0014
  476MOL0     H64259   6.035   4.288   5.347 -2.5396 -0.8176  1.9443
  476MOL0     H64260   5.896   4.236   5.272  1.3183 -1.4029  1.8738
  477MOL0     O64261   5.384   7.291   8.194 -0.1594  0.3040 -0.4134
  477MOL0     C64262   5.324   7.394   8.161 -0.3724 -0.1480 -0.4883
  477MOL0     O64263   5.371   7.470   8.057  0.0892 -1.2312 -0.7906
  477MOL0     C64264   5.494   7.445   7.997  0.9751 -0.1521 -0.0223
  477MOL0     C64265   5.516   7.351   7.897 -0.2706 -0.5882  0.8841
  477MOL0     C64266   5.638   7.340   7.837 -0.4727 -0.6496  0.4168
  477MOL0     C64267   5.737   7.431   7.857 -0.4039  0.8446 -0.1263
  477MOL0     O64268   5.857   7.415   7.796 -0.0217 -0.6984  0.5711
  477MOL0     C64269   5.942   7.337   7.884  0.4409 -0.3389  0.0371
  477MOL0     C64270   6.050   7.277   7.803 -0.8907  0.7902  0.1195
  477MOL0     C64271   6.009   7.208   7.676 -0.2681 -0.4739  0.5513
  477MOL0     C64272   6.107   7.101   7.620  0.4881  0.0829 -0.4868
  477MOL0     C64273   6.231   7.166   7.568  0.6870 -0.0506  0.2874
  477MOL0     C64274   6.212   7.243   7.433 -0.2710  0.3889 -0.5280
  477MOL0     C64275   6.345   7.281   7.365  0.0523  0.1197 -0.1333
  477MOL0     C64276   6.434   7.368   7.459  0.1201 -0.4742 -0.8746
  477MOL0     N64277   6.569   7.418   7.390  0.4601 -0.0302 -0.7848
  477MOL0     C64278   6.599   7.402   7.255  0.6868  0.6698  0.2056
  477MOL0     C64279   6.690   7.498   7.229 -0.7120  0.1309 -0.8356
  477MOL0     C64280   6.761   7.516   7.100 -0.0917  0.7349 -0.0432
  477MOL0     C64281   6.910   7.471   7.094 -0.0098  0.3410 -0.1695
  477MOL0     C64282   6.975   7.492   6.956 -0.0153  0.7541 -0.5530
  477MOL0     C64283   7.125   7.482   6.954 -0.2706  0.8098  0.4760
  477MOL0     O64284   7.161   7.509   6.814  0.5303  0.7848  0.0781
  477MOL0     C64285   7.294   7.528   6.784 -0.2246 -0.6009  1.0657
  477MOL0     C64286   7.317   7.578   6.654  0.1004 -0.8536 -0.3877
  477MOL0     C64287   7.444   7.605   6.610 -0.1888  0.4144 -0.3991
  477MOL0     C64288   7.550   7.600   6.701  0.6075 -0.6917 -0.3383
  477MOL0     C64289   7.686   7.648   6.675 -0.1000 -0.0818  0.3099
  477MOL0     O64290   7.703   7.698   6.547  0.5360  0.2532 -0.5780
  477MOL0     C64291   7.814   7.773   6.526  0.3183  0.7405  0.4115
  477MOL0     C64292   7.927   7.707   6.488  0.3400 -0.3518 -0.0079
  477MOL0     C64293   8.049   7.776   6.479 -0.0218  0.0576 -0.6036
  477MOL0     C64294   8.075   7.906   6.526  0.9174 -0.2827  0.1499
  477MOL0     O64295   8.203   7.945   6.527 -0.0127 -0.0055 -0.1983
  477MOL0     C64296   8.241   8.032   6.634  0.3168 -0.3077  0.1476
  477MOL0     C64297   8.378   8.092   6.605  0.0776 -0.9586 -0.0346
  477MOL0     C64298   8.361   8.160   6.463 -0.2912  0.8445  0.4323
  477MOL0     C64299   8.492   8.234   6.435 -0.4201  1.5000  0.0782
  477MOL0     C64300   8.513   8.350   6.533 -0.2990 -0.0213 -0.2998
  477MOL0     C64301   8.605   8.452   6.457 -0.5525 -1.6039  0.1967
  477MOL0     C64302   8.747   8.407   6.419  0.4179  0.0557 -0.0422
  477MOL0     C64303   8.839   8.405   6.543  0.0273 -1.1558 -0.0651
  477MOL0    Cl64304   8.995   8.383   6.488 -0.4848  0.2325  0.2712
  477MOL0     C64305   7.959   7.970   6.572  0.0684 -0.2632  0.9621
  477MOL0     C64306   7.828   7.904   6.576 -0.0502 -0.1724  0.3073
  477MOL0     O64307   7.769   7.659   6.765  0.3827  0.1892  0.3641
  477MOL0     C64308   7.524   7.553   6.830 -0.1465  0.4507 -0.2085
  477MOL0     C64309   7.402   7.512   6.872  0.4168 -0.6050 -0.3193
  477MOL0     N64310   6.709   7.573   7.340  0.3843 -0.1610 -0.1388
  477MOL0     N64311   6.622   7.538   7.424 -0.5064  0.4793 -0.3800
  477MOL0     C64312   5.715   7.532   7.949 -0.0744 -0.6395 -0.2143
  477MOL0     C64313   5.593   7.541   8.017  0.1212 -0.4818  0.2711
  477MOL0     C64314   5.201   7.434   8.220 -0.1291 -0.0727 -0.7861
  477MOL0     C64315   5.113   7.525   8.161  1.3580  0.9860 -0.3330
  477MOL0     C64316   4.988   7.542   8.222  0.2335  0.8184  0.6463
  477MOL0     C64317   4.949   7.503   8.351 -0.0240  0.3713 -0.1536
  477MOL0     O64318   4.825   7.529   8.389  0.0922 -0.0651  0.1889
  477MOL0     C64319   4.789   7.506   8.532  0.1443  0.6403  0.0140
  477MOL0     C64320   4.640   7.544   8.552  0.3968  0.2674 -0.0094
  477MOL0     C64321   4.539   7.471   8.459 -1.2188 -0.0233  0.2734
  477MOL0     C64322   4.399   7.432   8.502 -0.0313  0.3041 -0.2935
  477MOL0     C64323   4.395   7.354   8.620 -0.2611  0.1108  0.4950
  477MOL0     C64324   4.400   7.287   8.723  0.9631 -0.0435 -0.0591
  477MOL0     C64325   5.047   7.425   8.419  0.7511 -0.1095  0.2649
  477MOL0     C64326   5.165   7.387   8.356  0.2296  0.2149 -0.2338
  477MOL0     C64327   5.248   7.282   8.432  0.0902 -0.6856  0.1914
  477MOL0     H64328   5.435   7.287   7.862 -0.9428  1.3129 -1.2636
  477MOL0     H64329   5.660   7.258   7.769 -2.0019  1.0080 -2.2851
  477MOL0     H64330   5.986   7.399   7.963  0.2797  1.4283 -1.2122
  477MOL0     H64331   5.886   7.253   7.926  0.4659 -1.5641 -2.2591
  477MOL0     H64332   6.110   7.213   7.869 -0.7164 -0.2657 -1.0237
  477MOL0     H64333   6.117   7.354   7.763  0.4363 -0.7928 -0.8354
  477MOL0     H64334   5.990   7.273   7.589 -0.7363 -3.6880 -1.9535
  477MOL0     H64335   5.912   7.159   7.691 -0.8734  0.8630  1.1861
  477MOL0     H64336   6.123   7.024   7.696 -3.9164 -0.0665  0.5570
  477MOL0     H64337   6.060   7.060   7.530 -2.1686  2.7129 -0.4486
  477MOL0     H64338   6.272   7.239   7.638 -1.1079  0.3501  0.9519
  477MOL0     H64339   6.308   7.088   7.562  2.1603  1.3582 -0.0268
  477MOL0     H64340   6.156   7.169   7.375  1.9973 -2.8365  1.0776
  477MOL0     H64341   6.145   7.327   7.454  0.0265 -0.0931  3.0683
  477MOL0     H64342   6.320   7.335   7.273 -1.4548 -0.0231  0.1657
  477MOL0     H64343   6.399   7.194   7.325 -0.5176 -0.3497  0.1116
  477MOL0     H64344   6.388   7.459   7.498  4.3361  2.2770 -1.7210
  477MOL0     H64345   6.457   7.291   7.533 -1.9399 -0.0634  0.2746
  477MOL0     H64346   6.556   7.347   7.172 -1.8350  2.0984  0.4523
  477MOL0     H64347   6.695   7.460   7.033  2.1523 -2.4973  0.2211
  477MOL0     H64348   6.768   7.620   7.066 -0.7930  0.4877 -0.9815
  477MOL0     H64349   6.963   7.531   7.169  2.1254 -0.0434 -1.3134
  477MOL0     H64350   6.909   7.367   7.126 -1.3668  0.8658  1.6828
  477MOL0     H64351   6.940   7.586   6.913 -1.4628  0.0873 -0.9302
  477MOL0     H64352   6.935   7.415   6.889 -0.5262 -1.4784  2.1279
  477MOL0     H64353   7.159   7.383   6.985 -1.8059  0.1893  0.2804
  477MOL0     H64354   7.163   7.559   7.021 -1.2812  1.8763 -0.1352
  477MOL0     H64355   7.233   7.585   6.587 -1.7383  0.2229  1.8800
  477MOL0     H64356   7.454   7.616   6.503  2.2951 -2.4653 -0.6190
  477MOL0     H64357   7.908   7.602   6.466 -1.0466 -1.0282  3.5957
  477MOL0     H64358   8.141   7.722   6.455 -0.5255 -0.8949 -0.4509
  477MOL0     H64359   8.170   8.114   6.653 -0.9658 -1.0493 -1.1982
  477MOL0     H64360   8.246   7.975   6.728  2.5895 -1.7442 -0.7644
  477MOL0     H64361   8.425   8.161   6.676  1.9230 -1.7427 -0.4382
  477MOL0     H64362   8.454   8.018   6.580 -0.9833 -1.8896 -0.6144
  477MOL0     H64363   8.346   8.085   6.385 -3.6351 -0.1581  1.8440
  477MOL0     H64364   8.281   8.235   6.468 -1.0309  0.0034  1.9574
  477MOL0     H64365   8.491   8.265   6.330 -2.8114 -0.0711 -0.4498
  477MOL0     H64366   8.571   8.158   6.441 -3.3020 -1.7998 -0.5487
  477MOL0     H64367   8.563   8.319   6.625  1.2471  2.4114 -0.2298
  477MOL0     H64368   8.422   8.403   6.561  0.1805  0.9879 -0.5949
  477MOL0     H64369   8.557   8.483   6.363 -0.4912 -0.7778  0.4256
  477MOL0     H64370   8.593   8.541   6.519 -0.1624 -0.7930 -0.8588
  477MOL0     H64371   8.785   8.483   6.350 -0.1093 -0.9399 -1.4868
  477MOL0     H64372   8.755   8.311   6.368  0.0950 -0.0081  0.0286
  477MOL0     H64373   8.838   8.497   6.602  0.3194 -0.1901 -1.5159
  477MOL0     H64374   8.812   8.325   6.613 -1.8509  0.8165  1.6195
  477MOL0     H64375   7.952   8.072   6.608  0.6090 -0.5856  2.0253
  477MOL0     H64376   7.748   7.964   6.619  0.5897  2.4137 -1.8040
  477MOL0     H64377   7.594   7.559   6.913 -2.3135  0.8393  1.6979
  477MOL0     H64378   7.387   7.498   6.978 -0.6770  1.8167 -0.0730
  477MOL0     H64379   5.787   7.609   7.975  0.0826 -1.6253  2.7388
  477MOL0     H64380   5.582   7.614   8.096  0.6760  1.3589 -1.2686
  477MOL0     H64381   5.121   7.558   8.058 -2.1712 -0.1157 -1.1101
  477MOL0     H64382   4.917   7.588   8.154 -0.0417 -1.7551 -0.9324
  477MOL0     H64383   4.861   7.554   8.599  1.5683 -4.9319  3.1682
  477MOL0     H64384   4.801   7.398   8.545 -2.2720  0.1204 -1.5574
  477MOL0     H64385   4.651   7.653   8.546  3.2593  0.0283 -0.5667
  477MOL0     H64386   4.608   7.515   8.653 -0.7866  0.0730 -0.4272
  477MOL0     H64387   4.590   7.375   8.443  3.4642  2.0582  0.9878
  477MOL0     H64388   4.543   7.516   8.359 -3.5916 -0.7138 -0.1908
  477MOL0     H64389   4.330   7.516   8.515 -1.3066 -0.6131 -0.8471
  477MOL0     H64390   4.351   7.374   8.422  3.0303 -0.9798 -1.3451
  477MOL0     H64391   4.403   7.223   8.809 -0.5546 -1.2283 -0.8279
  477MOL0     H64392   5.022   7.388   8.517 -0.3939 -0.2743 -0.0700
  477MOL0     H64393   5.351   7.315   8.450  0.2012 -0.2055 -1.2315
  477MOL0     H64394   5.203   7.268   8.531  1.5410 -1.4053  0.7776
  477MOL0     H64395   5.261   7.185   8.385  1.2848 -1.0246  1.1550
  478MOL0     O64396   3.326   7.904   3.440 -0.8587 -0.5451 -0.2703
  478MOL0     C64397   3.285   7.799   3.484  0.5505  0.0434 -0.6801
  478MOL0     O64398   3.312   7.759   3.613  0.2236  0.1001 -0.2015
  478MOL0     C64399   3.414   7.819   3.683  0.1206 -0.5672 -0.2695
  478MOL0     C64400   3.544   7.771   3.683 -0.0161 -0.4096  0.2100
  478MOL0     C64401   3.639   7.822   3.771 -0.3106  0.2957 -0.1481
  478MOL0     C64402   3.622   7.931   3.853 -0.7265  0.1809 -0.9613
  478MOL0     O64403   3.730   7.971   3.934  0.5204  0.1458 -0.2142
  478MOL0     C64404   3.770   8.108   3.938  0.0605 -0.4117 -0.1116
  478MOL0     C64405   3.891   8.147   4.023  0.3542 -0.3964 -0.3613
  478MOL0     C64406   4.008   8.122   3.931  0.6247  0.4453 -0.0956
  478MOL0     C64407   4.150   8.130   3.993  0.9030  0.4960 -0.5716
  478MOL0     C64408   4.275   8.088   3.912  1.0821 -0.9118  0.2910
  478MOL0     C64409   4.380   8.025   4.005  0.1196  0.4343 -0.8980
  478MOL0     C64410   4.505   8.008   3.929 -0.5253 -0.6389  0.9515
  478MOL0     C64411   4.496   7.916   3.805  0.0006 -0.4250 -0.0373
  478MOL0     N64412   4.619   7.885   3.723 -0.3537  0.2633 -0.1406
  478MOL0     C64413   4.725   7.810   3.771  0.5351  0.1631  0.0256
  478MOL0     C64414   4.809   7.784   3.662 -0.4346  0.3547  0.4653
  478MOL0     C64415   4.925   7.694   3.651  0.5141 -0.2513  0.8304
  478MOL0     C64416   5.026   7.753   3.542  0.5381  0.1741 -0.3404
  478MOL0     C64417   5.138   7.656   3.518  0.6485  0.0590  0.3783
  478MOL0     C64418   5.221   7.608   3.643 -0.1058  0.4471 -0.3798
  478MOL0     O64419   5.264   7.713   3.736  0.2234  0.5709 -0.5189
  478MOL0     C64420   5.382   7.680   3.796  0.3502 -0.7102 -0.0057
  478MOL0     C64421   5.378   7.597   3.905  0.5049  1.1263  0.1071
  478MOL0     C64422   5.489   7.580   3.986 -0.1372  0.3503  0.0864
  478MOL0     C64423   5.614   7.644   3.954 -1.0196 -0.6125 -0.6176
  478MOL0     C64424   5.729   7.635   4.050  0.1145 -0.0359 -0.0456
  478MOL0     O64425   5.857   7.642   3.992  0.6304  0.3384 -0.7259
  478MOL0     C64426   5.957   7.676   4.068 -0.3454  0.1953 -0.1265
  478MOL0     C64427   5.971   7.798   4.142  0.5441  0.5081  0.0124
  478MOL0     C64428   6.081   7.807   4.231  0.7895  0.5434 -0.2541
  478MOL0     C64429   6.174   7.696   4.263  0.8923  0.2305 -0.7279
  478MOL0     O64430   6.268   7.713   4.363  0.3833  1.0126  0.0900
  478MOL0     C64431   6.349   7.596   4.396  0.4811  0.1900 -0.6701
  478MOL0     C64432   6.434   7.620   4.519  0.1903 -0.5474 -0.1994
  478MOL0     C64433   6.554   7.704   4.475  1.1004 -0.1084  0.1795
  478MOL0     C64434   6.657   7.713   4.580  0.3332  0.6696  0.1696
  478MOL0     C64435   6.767   7.811   4.548  0.2802 -0.1158  1.1443
  478MOL0     C64436   6.727   7.954   4.565  0.8230 -0.3468 -0.2965
  478MOL0     C64437   6.840   8.041   4.514 -0.7289 -0.0173 -1.0475
  478MOL0     C64438   6.847   8.056   4.368 -0.0071  0.6496  1.1737
  478MOL0    Cl64439   6.954   7.919   4.303 -0.0140 -0.0996  0.0400
  478MOL0     C64440   6.145   7.581   4.192 -0.0702 -0.2667  0.5737
  478MOL0     C64441   6.043   7.572   4.096 -0.3384 -0.1551  0.4918
  478MOL0     O64442   5.707   7.637   4.170  0.0774 -0.2430 -0.3931
  478MOL0     C64443   5.615   7.723   3.841 -1.3995 -0.0873 -0.7613
  478MOL0     C64444   5.503   7.743   3.770 -0.0449 -0.8959  0.4466
  478MOL0     N64445   4.737   7.839   3.556  1.1344 -0.1323  0.4059
  478MOL0     N64446   4.633   7.911   3.589 -1.2995  0.0823 -0.0573
  478MOL0     C64447   3.489   7.983   3.857 -0.3032 -0.3101  0.5245
  478MOL0     C64448   3.389   7.929   3.772  1.0283  0.9007 -0.0993
  478MOL0     C64449   3.197   7.713   3.406 -0.1006 -0.2114  0.0743
  478MOL0     C64450   3.108   7.628   3.476 -0.3759 -0.7950 -0.1128
  478MOL0     C64451   3.019   7.541   3.414 -0.6997  0.2456 -0.5234
  478MOL0     C64452   3.020   7.532   3.277  0.8319 -0.7578 -0.6440
  478MOL0     O64453   2.932   7.462   3.203 -0.5783 -0.7908 -0.0581
  478MOL0     C64454   2.848   7.369   3.264  0.5057  0.4174 -0.3526
  478MOL0     C64455   2.807   7.271   3.150  0.4278  0.6438  0.3846
  478MOL0     C64456   2.760   7.135   3.214 -0.1152 -0.3916 -0.3164
  478MOL0     C64457   2.633   7.155   3.303 -0.7341  0.6035  0.5732
  478MOL0     C64458   2.509   7.171   3.223 -0.5483 -0.4283  1.0078
  478MOL0     C64459   2.410   7.197   3.153 -0.7572  0.5780  0.2384
  478MOL0     C64460   3.111   7.609   3.203  0.4431 -0.0148 -0.3508
  478MOL0     C64461   3.205   7.699   3.266 -0.0828 -0.6474  0.7378
  478MOL0     C64462   3.298   7.770   3.175  0.9216  0.6862 -0.1224
  478MOL0     H64463   3.557   7.684   3.618 -0.2548  0.7853 -1.4946
  478MOL0     H64464   3.740   7.783   3.773 -1.2159 -2.2467  1.1061
  478MOL0     H64465   3.800   8.134   3.836  2.8202 -0.6248  0.5670
  478MOL0     H64466   3.686   8.171   3.968 -2.2805 -3.1219 -0.5593
  478MOL0     H64467   3.894   8.084   4.113 -0.3777 -1.6506 -1.1826
  478MOL0     H64468   3.902   8.252   4.051 -0.1456 -0.0936 -1.2476
  478MOL0     H64469   4.005   8.198   3.853 -1.1201 -0.1516 -0.6624
  478MOL0     H64470   3.988   8.025   3.884 -0.3418  0.4132  0.3580
  478MOL0     H64471   4.156   8.232   4.033 -2.3313  2.0867 -3.6018
  478MOL0     H64472   4.146   8.061   4.078 -1.7205 -0.4105 -1.3558
  478MOL0     H64473   4.232   8.023   3.835 -2.6663  1.6484 -0.0641
  478MOL0     H64474   4.317   8.175   3.861  2.4295  0.6169  3.7283
  478MOL0     H64475   4.394   8.085   4.096 -0.7229 -1.5280  0.6027
  478MOL0     H64476   4.351   7.927   4.044 -0.2377  0.9052  0.0525
  478MOL0     H64477   4.582   7.960   3.990 -0.3859 -0.6978  0.7303
  478MOL0     H64478   4.534   8.110   3.903  0.2061 -0.6053  1.8546
  478MOL0     H64479   4.462   7.816   3.835  0.3449 -0.2799  0.8628
  478MOL0     H64480   4.416   7.957   3.743  0.6299 -1.4230 -1.5553
  478MOL0     H64481   4.747   7.774   3.871 -0.1191  1.2953  0.5870
  478MOL0     H64482   4.973   7.686   3.749 -0.2248 -0.4514  1.1794
  478MOL0     H64483   4.888   7.595   3.621  2.0644 -0.8777  0.8948
  478MOL0     H64484   4.975   7.783   3.451 -1.0811 -0.9548  0.1492
  478MOL0     H64485   5.080   7.837   3.587 -0.2543 -0.9661  3.1172
  478MOL0     H64486   5.205   7.718   3.459 -1.0074  1.3284 -0.2638
  478MOL0     H64487   5.103   7.573   3.456  1.5051 -0.0164 -0.0105
  478MOL0     H64488   5.308   7.547   3.620 -0.1989  0.3058 -0.3595
  478MOL0     H64489   5.149   7.552   3.703 -1.9218 -0.7362 -3.4020
  478MOL0     H64490   5.291   7.535   3.927 -0.1525  0.7335 -3.1465
  478MOL0     H64491   5.491   7.523   4.078  3.4862  1.6523  0.9933
  478MOL0     H64492   5.890   7.869   4.132 -1.6438 -1.6360  1.3733
  478MOL0     H64493   6.089   7.886   4.305 -3.0978  1.3367 -0.4941
  478MOL0     H64494   6.292   7.505   4.418  1.0360 -0.4269 -1.7178
  478MOL0     H64495   6.409   7.576   4.307 -0.8172 -1.3298 -1.2324
  478MOL0     H64496   6.379   7.664   4.603  0.2063 -2.5250  0.9086
  478MOL0     H64497   6.470   7.522   4.550 -0.8372 -0.1143  2.6456
  478MOL0     H64498   6.593   7.655   4.385 -2.8838 -0.6799 -1.4515
  478MOL0     H64499   6.521   7.806   4.452  1.5857  0.6194  2.4146
  478MOL0     H64500   6.697   7.611   4.581 -1.4917 -0.0834  1.2303
  478MOL0     H64501   6.619   7.745   4.677 -1.8286  1.8082 -0.9800
  478MOL0     H64502   6.803   7.804   4.445  2.2239  0.7844  1.7265
  478MOL0     H64503   6.854   7.797   4.612  0.4748 -0.4889  0.7958
  478MOL0     H64504   6.634   7.980   4.512 -0.3703  0.6075  2.1338
  478MOL0     H64505   6.701   7.965   4.671 -1.5197 -3.6666 -0.3416
  478MOL0     H64506   6.930   8.016   4.571 -0.3021  0.1791 -1.6198
  478MOL0     H64507   6.840   8.146   4.546 -0.1712 -0.2936 -0.1147
  478MOL0     H64508   6.746   8.045   4.329  0.6389 -1.5565 -0.0527
  478MOL0     H64509   6.897   8.150   4.341 -0.3798  0.2771 -0.9948
  478MOL0     H64510   6.201   7.488   4.197 -2.2144 -1.5772  1.7888
  478MOL0     H64511   6.013   7.472   4.066 -4.3064  0.6359  1.1705
  478MOL0     H64512   5.702   7.784   3.821 -0.2134 -0.8781  1.7061
  478MOL0     H64513   5.490   7.818   3.693 -2.4135 -1.3696  0.3323
  478MOL0     H64514   3.469   8.078   3.906  1.1053 -0.7073  1.9608
  478MOL0     H64515   3.287   7.965   3.778  0.2572 -1.0747 -0.6827
  478MOL0     H64516   3.114   7.627   3.584  0.4461  3.3075  0.0269
  478MOL0     H64517   2.952   7.477   3.471 -1.2402  1.5527  0.3618
  478MOL0     H64518   2.767   7.418   3.318 -0.6625 -1.4782 -0.3274
  478MOL0     H64519   2.898   7.303   3.336 -1.3252 -0.5607  0.0603
  478MOL0     H64520   2.889   7.252   3.079 -0.8871 -1.6712 -0.6069
  478MOL0     H64521   2.730   7.308   3.081  1.0974 -2.1728 -2.0730
  478MOL0     H64522   2.842   7.086   3.267 -3.0573 -0.5956  4.6100
  478MOL0     H64523   2.736   7.060   3.138  0.2831  1.0593 -1.9574
  478MOL0     H64524   2.626   7.064   3.363 -0.1808  0.5770  0.6092
  478MOL0     H64525   2.639   7.241   3.370 -0.3971 -0.6026  2.1709
  478MOL0     H64526   2.326   7.195   3.086 -0.5179 -2.1107 -0.1278
  478MOL0     H64527   3.117   7.586   3.097  0.0360  1.0321 -0.6078
  478MOL0     H64528   3.261   7.871   3.153  2.5027  1.5599  0.9573
  478MOL0     H64529   3.403   7.775   3.207  0.9525  1.4248 -0.3275
  478MOL0     H64530   3.301   7.729   3.074 -1.0174 -1.2994  0.5613
  479MOL0     O64531   5.118   8.787   1.149 -0.9377 -0.2427  0.0290
  479MOL0     C64532   5.031   8.829   1.222 -0.0536  0.0820  0.6573
  479MOL0     O64533   5.029   8.951   1.280 -0.6937  0.7258  0.1329
  479MOL0     C64534   5.124   9.041   1.254 -0.3870 -0.0509  0.3334
  479MOL0     C64535   5.222   9.052   1.348 -0.9714  0.0123 -0.6147
  479MOL0     C64536   5.324   9.152   1.320 -0.1069 -0.3217 -0.2165
  479MOL0     C64537   5.325   9.231   1.200  0.7512  0.2943  0.0739
  479MOL0     O64538   5.427   9.317   1.182 -0.4865 -1.1056  0.4264
  479MOL0     C64539   5.472   9.359   1.051  0.9190  0.3802 -0.5308
  479MOL0     C64540   5.591   9.436   1.078  0.3644 -0.0023  0.5147
  479MOL0     C64541   5.725   9.352   1.085  0.1075 -0.4122  0.0002
  479MOL0     C64542   5.850   9.428   1.023 -0.7281 -0.2103  0.3714
  479MOL0     C64543   5.895   9.546   1.098 -0.3691 -0.1573 -0.1327
  479MOL0     C64544   5.940   9.517   1.245  0.1604  0.3516 -0.2371
  479MOL0     C64545   6.040   9.397   1.259 -0.3375 -0.2596  0.6559
  479MOL0     C64546   6.093   9.387   1.399  0.4594  0.0641  0.5518
  479MOL0     N64547   6.147   9.251   1.442 -0.5532 -0.3753  0.6468
  479MOL0     C64548   6.285   9.217   1.440 -0.0387  0.1002  0.0588
  479MOL0     C64549   6.290   9.111   1.523  0.2166  0.4890 -0.0738
  479MOL0     C64550   6.426   9.043   1.547  0.4750  0.4707  0.3845
  479MOL0     C64551   6.481   9.083   1.684  0.1479  0.3336 -1.2063
  479MOL0     C64552   6.630   9.125   1.688  0.3929 -0.7495 -0.4065
  479MOL0     C64553   6.665   9.265   1.631 -0.6826  0.2136  0.7447
  479MOL0     O64554   6.780   9.299   1.714 -0.1997  0.1059 -0.0070
  479MOL0     C64555   6.906   9.283   1.668 -0.1173  0.1244 -0.1538
  479MOL0     C64556   6.986   9.177   1.712 -0.7260  0.1279  0.2515
  479MOL0     C64557   7.119   9.161   1.673 -0.0937  0.1561  0.3042
  479MOL0     C64558   7.179   9.269   1.602 -0.5631 -0.1567 -0.0583
  479MOL0     C64559   7.319   9.271   1.553 -1.1048  0.7236  0.0601
  479MOL0     O64560   7.360   9.372   1.483  0.1590 -0.4482 -0.2350
  479MOL0     C64561   7.469   9.363   1.406 -0.5361  0.3465  0.1007
  479MOL0     C64562   7.571   9.460   1.408 -0.3191  0.1631 -0.3657
  479MOL0     C64563   7.688   9.449   1.333 -0.8094  0.0906  0.0279
  479MOL0     C64564   7.709   9.346   1.241  0.9924 -0.5246 -0.0252
  479MOL0     O64565   7.806   9.345   1.147  0.4623 -0.6735 -0.5119
  479MOL0     C64566   7.892   9.450   1.131  0.5242  0.5769  0.2231
  479MOL0     C64567   8.012   9.456   1.225  0.2498 -0.4647  0.2154
  479MOL0     C64568   8.105   9.328   1.229  0.1130  0.4237  0.3320
  479MOL0     C64569   8.252   9.355   1.255  0.3161  0.2556  0.6247
  479MOL0     C64570   8.344   9.233   1.241  0.8808 -0.3425  0.9887
  479MOL0     C64571   8.316   9.152   1.111  1.3843  0.3614  0.0554
  479MOL0     C64572   8.421   9.042   1.107  0.7897  0.5274  0.6715
  479MOL0     C64573   8.420   8.931   1.211  0.3058 -0.1458 -0.5420
  479MOL0    Cl64574   8.550   8.806   1.197  0.0836 -0.3019  0.0896
  479MOL0     C64575   7.610   9.253   1.230  0.5539  0.3480 -0.0612
  479MOL0     C64576   7.490   9.262   1.305 -0.6262 -0.4264 -0.6207
  479MOL0     O64577   7.379   9.170   1.576  0.7637  0.0393  0.6319
  479MOL0     C64578   7.102   9.373   1.564  0.7723 -0.3272  0.7362
  479MOL0     C64579   6.965   9.376   1.595 -0.4262  0.0458 -0.0733
  479MOL0     N64580   6.164   9.081   1.571  0.0125 -0.4459  0.5374
  479MOL0     N64581   6.072   9.164   1.511 -0.8352  1.1886  0.0636
  479MOL0     C64582   5.220   9.210   1.113 -0.0778  1.0948  0.3944
  479MOL0     C64583   5.124   9.109   1.134 -0.2642 -0.1017  1.3012
  479MOL0     C64584   4.932   8.725   1.249  0.4467  0.9662  0.0032
  479MOL0     C64585   4.970   8.588   1.239  0.3565  0.2788  0.0221
  479MOL0     C64586   4.886   8.475   1.245 -0.5981 -0.3354  0.0274
  479MOL0     C64587   4.753   8.505   1.268  0.3570  0.2792 -0.9029
  479MOL0     O64588   4.661   8.401   1.293 -0.1849  0.0342  1.3109
  479MOL0     C64589   4.701   8.266   1.269  0.1888 -0.1621  0.1466
  479MOL0     C64590   4.580   8.165   1.306 -1.1991  0.7562 -0.5133
  479MOL0     C64591   4.523   8.167   1.449  0.2667 -0.6928 -0.2207
  479MOL0     C64592   4.412   8.269   1.452  0.5434 -0.0931 -0.0631
  479MOL0     C64593   4.320   8.247   1.562 -0.3125 -0.2160  0.6980
  479MOL0     C64594   4.242   8.210   1.644  0.9017  0.6784  0.1681
  479MOL0     C64595   4.703   8.640   1.273 -0.3953  0.5867 -0.5137
  479MOL0     C64596   4.793   8.748   1.275  0.7678  0.0292  0.0143
  479MOL0     C64597   4.730   8.881   1.294  0.8411 -1.0938  0.1901
  479MOL0     H64598   5.219   8.995   1.440 -2.2333 -1.5632 -1.5682
  479MOL0     H64599   5.399   9.173   1.395  0.2089  1.0463 -0.8721
  479MOL0     H64600   5.500   9.272   0.991 -0.3801 -1.2117  1.0651
  479MOL0     H64601   5.394   9.413   0.996 -0.2008  0.6900  1.3004
  479MOL0     H64602   5.585   9.490   1.173  0.1617  4.2813 -1.7069
  479MOL0     H64603   5.609   9.493   0.986  0.3348 -0.9323 -0.0774
  479MOL0     H64604   5.718   9.257   1.031 -0.4755  0.4224 -1.4499
  479MOL0     H64605   5.755   9.321   1.185  1.3838  1.8856  0.4037
  479MOL0     H64606   5.939   9.365   1.029  0.6403  1.4447 -1.2196
  479MOL0     H64607   5.831   9.451   0.918  0.5678  0.9501  0.3632
  479MOL0     H64608   5.981   9.599   1.057 -0.4602  2.0185  2.2448
  479MOL0     H64609   5.810   9.615   1.096  0.3938  0.7951 -2.0336
  479MOL0     H64610   5.963   9.613   1.293 -0.3444 -0.2138  1.2144
  479MOL0     H64611   5.848   9.491   1.299 -0.3152 -0.1338 -1.2551
  479MOL0     H64612   6.119   9.396   1.183 -0.7252 -0.2467  0.2470
  479MOL0     H64613   5.986   9.304   1.237  0.7535 -0.3539 -2.1014
  479MOL0     H64614   6.173   9.460   1.413  2.0993 -1.8088  1.4773
  479MOL0     H64615   6.006   9.411   1.462  0.1331 -0.0090  0.1291
  479MOL0     H64616   6.351   9.278   1.378 -0.1755  2.3938  2.0238
  479MOL0     H64617   6.421   8.934   1.549  1.1701  0.4338  0.4155
  479MOL0     H64618   6.495   9.062   1.464  2.4382 -0.2969  1.7788
  479MOL0     H64619   6.422   9.165   1.725 -0.2366 -1.6410  2.6827
  479MOL0     H64620   6.465   8.993   1.744  3.1131 -0.0949 -0.8927
  479MOL0     H64621   6.694   9.054   1.634 -0.0554  0.9129 -3.3252
  479MOL0     H64622   6.649   9.130   1.796  1.5619 -0.6947 -0.6033
  479MOL0     H64623   6.578   9.331   1.645 -0.4304  0.1175  3.2211
  479MOL0     H64624   6.692   9.267   1.526 -1.4873 -3.5013  0.3428
  479MOL0     H64625   6.938   9.096   1.766 -0.8476 -0.7086 -1.0602
  479MOL0     H64626   7.183   9.075   1.695  2.7492  1.6598 -1.4282
  479MOL0     H64627   7.554   9.546   1.471 -1.0945  0.6249 -1.1830
  479MOL0     H64628   7.771   9.519   1.338  0.5713 -1.5193  0.7864
  479MOL0     H64629   7.929   9.443   1.028 -1.6776  3.2871 -0.8719
  479MOL0     H64630   7.841   9.547   1.125 -1.1809 -0.3340 -0.4599
  479MOL0     H64631   8.072   9.540   1.189  0.9210 -1.9968 -2.5335
  479MOL0     H64632   7.972   9.477   1.325 -1.5199  0.1574 -0.5865
  479MOL0     H64633   8.071   9.255   1.303 -1.6362 -2.9575 -3.3985
  479MOL0     H64634   8.093   9.276   1.133  0.7435  0.1675  0.3870
  479MOL0     H64635   8.270   9.396   1.355 -2.0910  0.0340  1.2032
  479MOL0     H64636   8.280   9.432   1.183 -1.9517  0.9842  0.4687
  479MOL0     H64637   8.322   9.171   1.329  0.8889 -3.1319 -0.8823
  479MOL0     H64638   8.446   9.271   1.230  0.0935  1.1130 -2.3917
  479MOL0     H64639   8.216   9.108   1.111  1.0217  1.1474 -1.1571
  479MOL0     H64640   8.331   9.220   1.027 -0.5213 -1.4177 -1.8579
  479MOL0     H64641   8.522   9.083   1.118  0.9845  0.3184 -0.2646
  479MOL0     H64642   8.424   8.987   1.012  1.2625 -2.5739  2.3420
  479MOL0     H64643   8.429   8.967   1.314  3.0665 -1.7328 -0.1232
  479MOL0     H64644   8.321   8.887   1.222 -0.4791  2.1262  4.1509
  479MOL0     H64645   7.626   9.173   1.159  3.9332  0.2616  0.6378
  479MOL0     H64646   7.407   9.197   1.277  0.5490 -1.7275 -1.2366
  479MOL0     H64647   7.138   9.453   1.500 -0.7463 -1.6286 -1.9637
  479MOL0     H64648   6.902   9.461   1.569 -2.1688 -1.1881 -0.0377
  479MOL0     H64649   5.219   9.270   1.022  4.8891  0.2360 -0.5188
  479MOL0     H64650   5.049   9.091   1.058 -1.2195 -0.0066  2.2025
  479MOL0     H64651   5.075   8.560   1.232  0.8242  1.5530  1.5316
  479MOL0     H64652   4.925   8.376   1.226 -1.4768 -0.5104 -0.9321
  479MOL0     H64653   4.790   8.239   1.328  0.0906 -1.1609 -0.1498
  479MOL0     H64654   4.729   8.246   1.165  1.9153 -0.6319  0.6601
  479MOL0     H64655   4.609   8.063   1.280  0.7994  1.5710 -1.6831
  479MOL0     H64656   4.507   8.186   1.228  0.8487  2.2091 -2.1352
  479MOL0     H64657   4.605   8.197   1.516  0.0521  1.0120 -0.6889
  479MOL0     H64658   4.494   8.067   1.481  0.2795 -0.8803 -0.7895
  479MOL0     H64659   4.451   8.371   1.466  0.1387  0.2332 -1.1978
  479MOL0     H64660   4.359   8.273   1.357 -0.1062 -0.1990  0.2865
  479MOL0     H64661   4.162   8.186   1.710  1.6132 -0.6634  0.5729
  479MOL0     H64662   4.597   8.656   1.287 -0.0709  1.9887  0.5065
  479MOL0     H64663   4.768   8.964   1.234  1.1815 -0.5006  1.1907
  479MOL0     H64664   4.623   8.880   1.273  0.8992  0.6498 -0.2792
  479MOL0     H64665   4.743   8.906   1.400 -0.5529  0.4617  0.0327
  480MOL0     O64666  10.930   5.301   4.345  0.2930  0.0904 -0.3853
  480MOL0     C64667  10.929   5.236   4.450 -0.3255 -0.1026 -0.4971
  480MOL0     O64668  11.041   5.211   4.516  0.5490  0.6133  0.0871
  480MOL0     C64669  11.160   5.253   4.465 -0.0431 -1.2151  0.3949
  480MOL0     C64670  11.216   5.198   4.347  0.2486  0.5108 -0.2613
  480MOL0     C64671  11.344   5.222   4.306  0.2723  0.2279 -0.4775
  480MOL0     C64672  11.415   5.325   4.368  0.2378 -0.4979 -0.1018
  480MOL0     O64673  11.544   5.347   4.329 -0.3593 -1.1362 -0.1432
  480MOL0     C64674  11.607   5.468   4.385  0.0945  0.1797 -0.0510
  480MOL0     C64675  11.712   5.533   4.295  0.7077  0.1802  0.8747
  480MOL0     C64676  11.649   5.558   4.149 -0.1053 -0.3372 -0.6745
  480MOL0     C64677  11.759   5.608   4.061  0.1203  0.5439  0.2265
  480MOL0     C64678  11.710   5.668   3.929 -0.4099 -0.3924  0.3511
  480MOL0     C64679  11.833   5.730   3.857  0.5592  0.6416 -0.0543
  480MOL0     C64680  11.801   5.790   3.722  0.3511 -1.0411  0.2372
  480MOL0     C64681  11.713   5.912   3.739 -0.0593 -0.3363  1.0851
  480MOL0     N64682  11.702   5.971   3.605  0.8249  0.7233 -0.1766
  480MOL0     C64683  11.779   6.078   3.557 -0.0085 -0.1130 -0.4029
  480MOL0     C64684  11.737   6.092   3.427  0.1810 -0.6628  0.2378
  480MOL0     C64685  11.789   6.181   3.326 -0.0674 -0.1331 -0.4967
  480MOL0     C64686  11.943   6.169   3.309  0.1911  0.1791  0.2677
  480MOL0     C64687  12.024   6.249   3.417  0.3922 -0.4167 -0.1692
  480MOL0     C64688  12.170   6.205   3.433 -0.3358  0.7232  0.0880
  480MOL0     O64689  12.240   6.214   3.303 -0.3083  1.2757 -0.1083
  480MOL0     C64690  12.377   6.196   3.322 -0.4565 -0.2670 -0.3648
  480MOL0     C64691  12.467   6.306   3.320 -1.0000  0.5388  0.0637
  480MOL0     C64692  12.608   6.286   3.326 -0.3718 -0.1945  0.1710
  480MOL0     C64693  12.656   6.155   3.331  0.2051 -0.1252  1.7172
  480MOL0     C64694  12.800   6.133   3.324 -0.0181  1.2759  1.0882
  480MOL0     O64695  12.841   6.007   3.347  0.1895  0.8536 -0.9985
  480MOL0     C64696  12.964   5.962   3.357 -0.5539 -0.0601 -0.7675
  480MOL0     C64697  13.084   6.036   3.332  0.2725 -0.7850  0.4484
  480MOL0     C64698  13.215   5.986   3.356  0.4074 -0.6226  0.0619
  480MOL0     C64699  13.230   5.850   3.400  0.6771 -0.1643 -0.4361
  480MOL0     O64700  13.350   5.790   3.390  0.7045  0.3399 -0.7309
  480MOL0     C64701  13.416   5.823   3.510  0.4732  0.1154  0.0785
  480MOL0     C64702  13.522   5.708   3.524  0.5217 -0.4645 -0.8511
  480MOL0     C64703  13.578   5.718   3.667  0.4654  0.4210  0.5435
  480MOL0     C64704  13.700   5.816   3.678  0.3837 -0.6222 -0.2632
  480MOL0     C64705  13.743   5.835   3.827 -1.5337  0.9012  0.1442
  480MOL0     C64706  13.635   5.925   3.892 -0.3142  0.1199  0.6595
  480MOL0     C64707  13.680   5.974   4.028  0.5527 -0.4493  0.4243
  480MOL0     C64708  13.707   5.868   4.142  0.1618 -0.2214  0.2671
  480MOL0    Cl64709  13.874   5.823   4.152 -0.3769  0.4565  0.2335
  480MOL0     C64710  13.109   5.775   3.430  0.1280  0.3050  0.3318
  480MOL0     C64711  12.979   5.832   3.394  0.0833  1.3638  0.1545
  480MOL0     O64712  12.878   6.230   3.301  0.5664 -0.0502  0.5106
  480MOL0     C64713  12.568   6.049   3.338  0.2481 -0.4832 -0.5387
  480MOL0     C64714  12.435   6.068   3.329  0.3824 -0.1267  0.9691
  480MOL0     N64715  11.630   6.013   3.401  0.7303 -0.3255  0.7546
  480MOL0     N64716  11.601   5.950   3.516 -0.0599 -0.0874  0.3205
  480MOL0     C64717  11.355   5.390   4.483 -0.4767 -0.1820  0.1550
  480MOL0     C64718  11.230   5.355   4.536  0.1831  0.4852 -0.3476
  480MOL0     C64719  10.805   5.178   4.499  0.8978  0.6077 -0.3494
  480MOL0     C64720  10.773   5.184   4.642 -0.2046  0.2330  0.0563
  480MOL0     C64721  10.665   5.112   4.691 -0.4481 -1.0159 -0.9996
  480MOL0     C64722  10.570   5.060   4.610  0.0830  0.0840  0.1704
  480MOL0     O64723  10.458   4.994   4.655  0.1172 -0.0724 -0.3450
  480MOL0     C64724  10.433   4.997   4.800  1.4109  0.3560 -0.2580
  480MOL0     C64725  10.278   5.011   4.807 -0.1843 -0.1890  0.6447
  480MOL0     C64726  10.207   5.002   4.948 -0.0063  0.0368  0.3593
  480MOL0     C64727  10.059   4.990   4.955 -0.7626  0.0185 -0.0280
  480MOL0     C64728   9.990   5.110   4.928  0.5099 -0.5435  0.0852
  480MOL0     C64729   9.929   5.211   4.904 -0.6693 -0.1676 -0.5798
  480MOL0     C64730  10.594   5.054   4.476 -0.3360  0.4341 -0.6568
  480MOL0     C64731  10.710   5.111   4.418  0.0483 -0.1634  0.3727
  480MOL0     C64732  10.727   5.103   4.267  0.2287  0.5362 -0.1704
  480MOL0     H64733  11.159   5.124   4.292  2.6909 -1.8615  0.1811
  480MOL0     H64734  11.387   5.169   4.222 -0.9315 -1.2322 -0.2033
  480MOL0     H64735  11.529   5.543   4.402 -0.2328  0.3734 -2.1872
  480MOL0     H64736  11.663   5.439   4.475  0.1267  0.8737  0.1582
  480MOL0     H64737  11.797   5.463   4.296 -0.1233 -0.8450  2.2785
  480MOL0     H64738  11.744   5.624   4.346 -0.8666  1.3411 -0.1060
  480MOL0     H64739  11.578   5.637   4.173  3.3750  2.2801  2.2510
  480MOL0     H64740  11.597   5.470   4.110 -1.0904  1.4582 -3.6995
  480MOL0     H64741  11.827   5.679   4.109  1.6294  0.8785 -2.2152
  480MOL0     H64742  11.823   5.523   4.034 -2.0709 -0.5885 -1.7413
  480MOL0     H64743  11.665   5.594   3.861 -1.9496 -0.1382  1.0511
  480MOL0     H64744  11.633   5.744   3.948 -1.3803 -1.8175  2.5168
  480MOL0     H64745  11.892   5.798   3.920  2.1734 -0.7874  0.0517
  480MOL0     H64746  11.889   5.642   3.825  0.3177  1.0383 -1.6617
  480MOL0     H64747  11.759   5.710   3.661  0.1645 -0.5011 -0.3553
  480MOL0     H64748  11.889   5.828   3.669 -1.1894  0.2340 -1.5349
  480MOL0     H64749  11.619   5.869   3.777 -0.9137 -0.5793 -1.1295
  480MOL0     H64750  11.758   5.991   3.800  1.9059  0.1704 -0.9048
  480MOL0     H64751  11.858   6.120   3.620 -2.0165  0.3770  1.9539
  480MOL0     H64752  11.747   6.155   3.229 -0.1456 -2.2518  0.0692
  480MOL0     H64753  11.760   6.283   3.355 -0.6977 -0.6709  0.8197
  480MOL0     H64754  11.970   6.065   3.325  1.3692  0.4059 -0.1343
  480MOL0     H64755  11.972   6.199   3.208  0.4336  1.4055  0.6752
  480MOL0     H64756  11.980   6.245   3.517  0.9198 -1.5825  0.0282
  480MOL0     H64757  12.030   6.354   3.385  2.7229  0.5731  2.9671
  480MOL0     H64758  12.167   6.101   3.467  2.1604 -0.2425 -2.2776
  480MOL0     H64759  12.218   6.276   3.501  0.1993  0.3464  0.1042
  480MOL0     H64760  12.436   6.409   3.305  2.3098  1.4868 -1.2930
  480MOL0     H64761  12.669   6.375   3.324 -2.7193  1.5053 -2.0236
  480MOL0     H64762  13.075   6.140   3.303 -1.2927 -1.4837 -1.8828
  480MOL0     H64763  13.310   6.036   3.344 -0.0327 -0.1727 -2.0266
  480MOL0     H64764  13.452   5.926   3.513  1.2156 -0.1052  3.4491
  480MOL0     H64765  13.349   5.817   3.597  1.3492  0.1448  0.7597
  480MOL0     H64766  13.469   5.613   3.518  0.1817 -0.2445 -1.4681
  480MOL0     H64767  13.601   5.710   3.449  1.8054  4.1758  0.2575
  480MOL0     H64768  13.507   5.756   3.741  0.9513  2.3212  0.0922
  480MOL0     H64769  13.601   5.616   3.699 -1.2605 -0.4646 -0.8580
  480MOL0     H64770  13.670   5.912   3.637 -1.5625 -1.6391 -1.3824
  480MOL0     H64771  13.790   5.785   3.624  0.5133 -0.1085 -0.3392
  480MOL0     H64772  13.842   5.882   3.822 -0.0175 -1.8828  1.5111
  480MOL0     H64773  13.751   5.733   3.865  0.5335 -0.0409 -2.4931
  480MOL0     H64774  13.607   6.015   3.836 -3.8170  0.0546  2.0418
  480MOL0     H64775  13.542   5.868   3.906 -0.2774 -0.5393 -1.4734
  480MOL0     H64776  13.600   6.030   4.078  1.1877 -1.1920  2.3514
  480MOL0     H64777  13.764   6.043   4.017  1.0914 -1.1629  0.0133
  480MOL0     H64778  13.685   5.902   4.244  1.8771  1.2352  0.1985
  480MOL0     H64779  13.638   5.783   4.134 -0.1595  0.1240 -0.7338
  480MOL0     H64780  13.113   5.668   3.447 -0.7527  0.4469  1.5874
  480MOL0     H64781  12.888   5.775   3.408  1.7514 -1.2592  1.0310
  480MOL0     H64782  12.611   5.949   3.333  0.9119 -0.3962  2.2416
  480MOL0     H64783  12.381   5.974   3.323  1.4830 -0.6942 -0.6057
  480MOL0     H64784  11.402   5.471   4.538 -1.4766  2.5186 -2.6767
  480MOL0     H64785  11.193   5.394   4.630  2.3084  1.3710  0.1801
  480MOL0     H64786  10.824   5.228   4.727 -3.3230 -0.8987  2.7269
  480MOL0     H64787  10.659   5.108   4.800  1.5252 -4.6680 -0.8703
  480MOL0     H64788  10.465   5.087   4.854 -4.2160  1.2114  2.3120
  480MOL0     H64789  10.469   4.920   4.869 -1.2327  1.0579  2.0838
  480MOL0     H64790  10.240   4.929   4.745 -1.8815 -0.7045  2.2852
  480MOL0     H64791  10.248   5.099   4.750  0.3859 -0.6216 -0.3588
  480MOL0     H64792  10.243   5.085   5.009 -2.0426  0.7203  0.6813
  480MOL0     H64793  10.245   4.907   4.989  0.5403 -0.7855 -1.8800
  480MOL0     H64794  10.025   4.910   4.888 -0.8620  2.6156 -3.3526
  480MOL0     H64795  10.045   4.960   5.059  2.1786 -1.7129 -0.0112
  480MOL0     H64796   9.863   5.294   4.886 -2.9890 -1.6698  0.6069
  480MOL0     H64797  10.524   5.005   4.409  0.4807  0.3363 -1.4742
  480MOL0     H64798  10.695   5.194   4.215 -2.3692  1.3882  2.5624
  480MOL0     H64799  10.830   5.074   4.247  0.4236 -0.1269  1.6037
  480MOL0     H64800  10.677   5.013   4.231 -0.2079 -0.2032  2.0983
  481MOL0     O64801   7.083   1.837   9.846  0.0580  0.2163  0.7599
  481MOL0     C64802   7.025   1.939   9.812  0.3320  0.1457  0.9595
  481MOL0     O64803   7.081   2.039   9.737  0.0263  0.2672 -0.3438
  481MOL0     C64804   7.214   2.030   9.719 -0.4395  0.1550 -0.4596
  481MOL0     C64805   7.270   1.980   9.597 -0.3825  0.0766 -0.6703
  481MOL0     C64806   7.404   1.966   9.564  0.3211  0.4038  0.0540
  481MOL0     C64807   7.490   2.010   9.660  0.6614  0.7314  0.0262
  481MOL0     O64808   7.619   1.984   9.627 -1.1913 -0.1077  0.2962
  481MOL0     C64809   7.719   2.082   9.655  0.6609 -0.2711  0.3677
  481MOL0     C64810   7.846   2.026   9.589  0.8895  0.6582  0.0102
  481MOL0     C64811   7.949   2.126   9.604  0.6921 -0.3948  0.4824
  481MOL0     C64812   8.089   2.077   9.582 -0.6608 -0.0343  0.4696
  481MOL0     C64813   8.185   2.192   9.614  0.3418 -0.0933 -0.3946
  481MOL0     C64814   8.179   2.319   9.526 -0.3130  0.3757 -0.2423
  481MOL0     C64815   8.301   2.414   9.561  0.0688  0.9104 -0.0701
  481MOL0     C64816   8.304   2.542   9.470 -0.1355 -0.0541 -0.4007
  481MOL0     N64817   8.398   2.647   9.529  0.6281  0.1658  0.1844
  481MOL0     C64818   8.522   2.617   9.579 -0.3157 -0.7168  0.2129
  481MOL0     C64819   8.568   2.730   9.635  0.1945 -1.0333 -0.0532
  481MOL0     C64820   8.697   2.731   9.710 -0.3466  0.2227  0.0520
  481MOL0     C64821   8.814   2.803   9.630  0.3218  0.3071  0.0863
  481MOL0     C64822   8.895   2.714   9.533 -0.5043  0.2797 -0.3655
  481MOL0     C64823   8.994   2.617   9.613  1.0530  0.0394 -0.1190
  481MOL0     O64824   9.100   2.694   9.668 -0.0336  0.2735 -0.7150
  481MOL0     C64825   9.217   2.636   9.711 -0.4629 -0.0908  0.4832
  481MOL0     C64826   9.326   2.713   9.752  0.5005 -0.8447  0.4192
  481MOL0     C64827   9.450   2.655   9.779 -0.3909 -0.3897 -0.5501
  481MOL0     C64828   9.476   2.520   9.753  0.8181  0.2645  0.5962
  481MOL0     C64829   9.615   2.461   9.763 -0.2169 -0.2528 -0.3195
  481MOL0     O64830   9.712   2.531   9.832 -0.3373  0.3108  0.4979
  481MOL0     C64831   9.841   2.489   9.834  0.3428  0.6006  0.3631
  481MOL0     C64832   9.916   2.458   9.723 -0.0480 -0.7398  0.5341
  481MOL0     C64833  10.048   2.438   9.740  0.8047 -0.0250 -0.7609
  481MOL0     C64834  10.115   2.447   9.861 -0.0787 -0.4838  0.6371
  481MOL0     O64835  10.256   2.445   9.860  0.0095  0.0568 -0.1720
  481MOL0     C64836  10.321   2.555   9.919  0.1185 -1.2924  0.2651
  481MOL0     C64837  10.444   2.601   9.840  0.0509 -0.5541  0.1298
  481MOL0     C64838  10.528   2.718   9.892  0.5867 -0.0045 -1.2993
  481MOL0     C64839  10.655   2.731   9.803  1.0188  0.1123  0.2632
  481MOL0     C64840  10.758   2.826   9.863  0.2620 -0.1167  0.1016
  481MOL0     C64841  10.886   2.855   9.777  0.4563  0.0422 -0.6579
  481MOL0     C64842  10.956   2.729   9.729  0.1052  1.1043  0.5363
  481MOL0     C64843  11.100   2.764   9.690  0.9246 -1.4878 -0.4571
  481MOL0    Cl64844  11.168   2.619   9.644  0.1240 -0.1445  0.4774
  481MOL0     C64845  10.043   2.489   9.972 -0.6261 -0.8375  0.2624
  481MOL0     C64846   9.905   2.509   9.959 -0.6319  0.0846  0.0928
  481MOL0     O64847   9.633   2.355   9.702  0.7482 -0.1810  0.1988
  481MOL0     C64848   9.362   2.440   9.724  0.3665 -0.3521  0.4561
  481MOL0     C64849   9.236   2.498   9.716  0.3111  0.4823  0.7413
  481MOL0     N64850   8.467   2.823   9.618 -0.1050  0.2262 -0.5884
  481MOL0     N64851   8.368   2.783   9.549  0.2761 -0.0964 -0.0416
  481MOL0     C64852   7.445   2.059   9.788 -0.4258  0.9851 -0.1380
  481MOL0     C64853   7.308   2.063   9.816  0.4356  0.0973 -1.0798
  481MOL0     C64854   6.876   1.954   9.840  0.4678 -0.4031 -0.4771
  481MOL0     C64855   6.790   1.862   9.771  0.4928 -0.5629  0.5624
  481MOL0     C64856   6.652   1.866   9.789  0.6344 -0.5186 -0.7170
  481MOL0     C64857   6.591   1.948   9.885  0.4992  0.6542 -0.5291
  481MOL0     O64858   6.457   1.953   9.918  0.4782  0.7367 -0.3491
  481MOL0     C64859   6.362   1.868   9.853  0.0168 -0.8973  0.1702
  481MOL0     C64860   6.354   1.735   9.932  0.1808  0.4918 -0.3909
  481MOL0     C64861   6.227   1.660   9.929  1.0549  1.4264  1.7970
  481MOL0     C64862   6.209   1.545  10.025  0.2348 -0.4921  0.6382
  481MOL0     C64863   6.302   1.435   9.989  0.0073 -1.0433 -0.2286
  481MOL0     C64864   6.377   1.337   9.967  1.2923 -0.6449 -0.2033
  481MOL0     C64865   6.676   2.037   9.947 -0.2314 -1.0294 -0.4053
  481MOL0     C64866   6.815   2.049   9.922  0.0579  0.4136  0.5867
  481MOL0     C64867   6.895   2.143   9.997 -0.5427  0.2454 -0.3510
  481MOL0     H64868   7.203   1.950   9.517  1.7456 -3.7750 -1.2528
  481MOL0     H64869   7.437   1.922   9.471 -2.5161  3.0444 -2.4182
  481MOL0     H64870   7.689   2.180   9.616  2.7642  0.2314 -0.1030
  481MOL0     H64871   7.732   2.092   9.763 -1.1481 -4.0571  1.1210
  481MOL0     H64872   7.818   2.008   9.485  0.3454  1.7808 -0.0572
  481MOL0     H64873   7.877   1.931   9.633 -0.2605  0.3039  0.1012
  481MOL0     H64874   7.944   2.174   9.702  1.6318  0.9488 -0.0940
  481MOL0     H64875   7.935   2.213   9.538  1.0841  0.3222  1.3304
  481MOL0     H64876   8.095   1.987   9.645  0.4418  1.4100  2.5513
  481MOL0     H64877   8.117   2.058   9.479 -1.5439  0.9960  0.0187
  481MOL0     H64878   8.172   2.214   9.720  2.9241 -1.7660  0.3411
  481MOL0     H64879   8.287   2.157   9.598  1.1040  1.2486  1.2959
  481MOL0     H64880   8.172   2.305   9.418 -1.4560  1.9002 -0.3959
  481MOL0     H64881   8.089   2.377   9.545  1.7396  4.3117 -1.3732
  481MOL0     H64882   8.394   2.358   9.569 -0.3473  0.0132 -1.1942
  481MOL0     H64883   8.268   2.445   9.661  2.6737  1.7727  0.5893
  481MOL0     H64884   8.343   2.514   9.371  3.0986 -0.1388  0.7777
  481MOL0     H64885   8.202   2.577   9.452  0.6687  2.7673  0.0006
  481MOL0     H64886   8.572   2.521   9.581  1.3641  0.1316  0.2556
  481MOL0     H64887   8.670   2.786   9.800 -0.1798 -3.0751  2.3122
  481MOL0     H64888   8.718   2.627   9.737 -1.9894 -0.1511 -0.0005
  481MOL0     H64889   8.776   2.883   9.565 -0.4468  0.0763  0.2351
  481MOL0     H64890   8.873   2.847   9.710 -0.4524  2.6778 -0.5620
  481MOL0     H64891   8.952   2.774   9.461  2.1777 -0.7744  0.7479
  481MOL0     H64892   8.826   2.651   9.476  0.1316 -2.0774  1.3481
  481MOL0     H64893   9.048   2.551   9.544  1.5524  0.3644 -0.0453
  481MOL0     H64894   8.939   2.556   9.685 -1.1910  2.2890  0.2190
  481MOL0     H64895   9.310   2.820   9.754  0.5447 -0.7739 -1.2189
  481MOL0     H64896   9.529   2.722   9.809  1.5913 -1.7292 -2.4515
  481MOL0     H64897   9.888   2.470   9.619  1.4506 -0.3139  0.1580
  481MOL0     H64898  10.100   2.419   9.647 -3.0478 -1.5871 -2.8584
  481MOL0     H64899  10.249   2.635   9.938 -1.5524 -2.0274 -2.3185
  481MOL0     H64900  10.363   2.513  10.011 -0.1273 -1.2510  0.3970
  481MOL0     H64901  10.512   2.518   9.818  2.1847  1.0642  0.2430
  481MOL0     H64902  10.407   2.636   9.743 -2.5491 -2.1758  0.4376
  481MOL0     H64903  10.474   2.814   9.892 -1.6710 -1.2057 -0.8842
  481MOL0     H64904  10.569   2.694   9.990 -0.1835 -1.9114 -1.4111
  481MOL0     H64905  10.628   2.767   9.703 -0.0982  3.1730  1.5577
  481MOL0     H64906  10.711   2.637   9.801  0.7094 -0.0762 -1.8842
  481MOL0     H64907  10.786   2.778   9.957 -0.0140 -0.0447  0.2232
  481MOL0     H64908  10.707   2.916   9.899 -1.5224 -2.0892  2.9389
  481MOL0     H64909  10.848   2.913   9.692 -0.2469  1.4983  0.6031
  481MOL0     H64910  10.946   2.925   9.836 -1.0731  1.1009 -0.2971
  481MOL0     H64911  10.895   2.694   9.645 -0.0238 -1.9340  1.7792
  481MOL0     H64912  10.954   2.651   9.805  1.2687  1.0598  0.5260
  481MOL0     H64913  11.098   2.835   9.607  0.9123 -0.8238  0.1052
  481MOL0     H64914  11.166   2.811   9.763  2.4544  2.7956 -4.1646
  481MOL0     H64915  10.095   2.501  10.066  0.5324  0.8742 -0.5497
  481MOL0     H64916   9.850   2.553  10.042  0.0082 -0.0336  0.5849
  481MOL0     H64917   9.370   2.332   9.719  0.4671 -0.2911 -1.4614
  481MOL0     H64918   9.144   2.441   9.703  2.2477 -2.2281 -2.9997
  481MOL0     H64919   7.525   2.076   9.859 -0.3112  1.4920 -0.3848
  481MOL0     H64920   7.281   2.095   9.916  3.6161 -1.3510  0.3786
  481MOL0     H64921   6.834   1.788   9.704  2.9842  1.8855 -0.7070
  481MOL0     H64922   6.600   1.798   9.722  1.8633 -0.2299 -2.0123
  481MOL0     H64923   6.388   1.845   9.749 -0.1867 -1.5612  0.2585
  481MOL0     H64924   6.265   1.918   9.858  1.4105  1.8260  2.4075
  481MOL0     H64925   6.376   1.746  10.039 -1.0264  1.3197 -0.2074
  481MOL0     H64926   6.424   1.668   9.882  0.8964  1.6531 -0.9870
  481MOL0     H64927   6.220   1.625   9.826 -1.4474  3.0793  1.3157
  481MOL0     H64928   6.135   1.718   9.936 -0.6779 -1.0511  1.1171
  481MOL0     H64929   6.223   1.584  10.126  1.7121  2.2976 -0.5294
  481MOL0     H64930   6.108   1.504  10.016 -1.0092  2.1675  1.3735
  481MOL0     H64931   6.450   1.263   9.943  4.1438  1.7264  0.6003
  481MOL0     H64932   6.633   2.112  10.013 -1.1771 -1.5477 -0.4164
  481MOL0     H64933   6.965   2.082  10.054 -0.7481 -0.1758 -0.5426
  481MOL0     H64934   6.956   2.218   9.945  2.4566 -0.6718  1.6268
  481MOL0     H64935   6.830   2.193  10.070 -1.5593 -2.0413  0.3925
  482MOL0     O64936   4.701   1.775   0.362  0.5238  0.0330  0.2306
  482MOL0     C64937   4.723   1.883   0.302 -0.5608  0.2068  0.1548
  482MOL0     O64938   4.834   1.966   0.326  0.3815  1.4081 -0.6174
  482MOL0     C64939   4.933   1.930   0.406 -0.2310  0.6452 -0.4479
  482MOL0     C64940   5.052   1.902   0.348 -0.0948  1.1618  0.2141
  482MOL0     C64941   5.154   1.845   0.418 -0.5022  0.7155  0.1565
  482MOL0     C64942   5.142   1.813   0.555  0.3376  0.5038 -0.1452
  482MOL0     O64943   5.238   1.748   0.627 -0.7446 -0.3299  0.2479
  482MOL0     C64944   5.294   1.624   0.579 -0.0499 -0.4432  0.4804
  482MOL0     C64945   5.233   1.506   0.664  0.1082  0.5367  0.7560
  482MOL0     C64946   5.335   1.432   0.760 -0.0858 -0.0397  0.0497
  482MOL0     C64947   5.421   1.347   0.662 -1.3623  0.3400 -0.4282
  482MOL0     C64948   5.522   1.264   0.749  0.2271 -0.3625  0.0957
  482MOL0     C64949   5.650   1.218   0.664  0.8722 -0.7184 -0.1397
  482MOL0     C64950   5.756   1.335   0.640  0.2117 -0.2317  0.2291
  482MOL0     C64951   5.831   1.379   0.767  0.2597 -0.1905 -0.2388
  482MOL0     N64952   5.949   1.474   0.748  0.1163 -0.2482  0.0015
  482MOL0     C64953   6.083   1.456   0.774 -0.1330  0.0169  0.2049
  482MOL0     C64954   6.141   1.571   0.764  0.2294 -0.9866  0.5652
  482MOL0     C64955   6.292   1.583   0.776  0.8273 -0.5671 -0.2503
  482MOL0     C64956   6.337   1.725   0.812  0.4714 -0.7014 -0.7248
  482MOL0     C64957   6.455   1.717   0.915  0.4627 -0.2184  0.4975
  482MOL0     C64958   6.513   1.855   0.941  0.8162 -0.6008 -0.5222
  482MOL0     O64959   6.604   1.835   1.054  0.0980 -0.1102  0.8515
  482MOL0     C64960   6.733   1.838   1.025  0.4828 -0.1466 -0.3125
  482MOL0     C64961   6.785   1.852   0.892 -0.1647  0.7484  0.1285
  482MOL0     C64962   6.920   1.878   0.875 -0.9174  0.0113 -0.1611
  482MOL0     C64963   7.010   1.905   0.979  0.1898 -0.2573 -0.3531
  482MOL0     C64964   7.150   1.939   0.957 -0.0404  0.2008 -0.3148
  482MOL0     O64965   7.207   2.007   1.062 -0.1274  0.0025 -0.1725
  482MOL0     C64966   7.319   2.084   1.044  0.1744 -0.6873 -0.1800
  482MOL0     C64967   7.343   2.168   0.932 -0.9803 -0.0985 -0.2555
  482MOL0     C64968   7.460   2.239   0.934 -0.0470 -0.8320  0.5787
  482MOL0     C64969   7.560   2.225   1.029 -0.2933 -0.3806 -0.3332
  482MOL0     O64970   7.667   2.310   1.011  0.0562 -0.2477 -0.2687
  482MOL0     C64971   7.782   2.294   1.097 -0.5382  0.6403 -0.3713
  482MOL0     C64972   7.878   2.422   1.077  0.6314  0.3496  0.6771
  482MOL0     C64973   7.996   2.416   1.173  0.0057 -0.2640  0.7742
  482MOL0     C64974   8.079   2.542   1.154 -0.1723 -0.3449 -0.1854
  482MOL0     C64975   8.198   2.544   1.251 -0.7192 -0.0658 -0.3588
  482MOL0     C64976   8.320   2.457   1.214  0.0115 -0.0028 -0.8844
  482MOL0     C64977   8.429   2.494   1.316 -0.7014 -0.2748 -0.7771
  482MOL0     C64978   8.544   2.396   1.310 -0.7932 -0.0569  0.7255
  482MOL0    Cl64979   8.684   2.441   1.412 -0.5728 -0.0213  0.2463
  482MOL0     C64980   7.537   2.138   1.137  0.3004 -0.3851  0.1434
  482MOL0     C64981   7.413   2.076   1.149 -0.3163 -0.4518 -0.0149
  482MOL0     O64982   7.208   1.918   0.851 -0.3492  0.7791 -0.4000
  482MOL0     C64983   6.965   1.887   1.110 -0.2697 -0.4692  0.7820
  482MOL0     C64984   6.824   1.853   1.131  0.6753 -0.8620 -0.1592
  482MOL0     N64985   6.045   1.659   0.724  0.7590  0.1060 -0.1139
  482MOL0     N64986   5.932   1.599   0.712  0.2544  0.1934  0.2237
  482MOL0     C64987   5.023   1.844   0.616 -0.0600 -0.5113 -0.8626
  482MOL0     C64988   4.923   1.906   0.546  0.2804  0.2637 -0.1218
  482MOL0     C64989   4.629   1.930   0.198 -0.1635  0.5518  0.4505
  482MOL0     C64990   4.505   1.866   0.186 -0.0642 -0.1770 -0.8130
  482MOL0     C64991   4.400   1.908   0.112  0.7360 -0.7550  1.3149
  482MOL0     C64992   4.416   2.013   0.023  0.0163 -0.0968 -0.0760
  482MOL0     O64993   4.295   2.057  -0.031  0.9403  0.1644 -0.1841
  482MOL0     C64994   4.296   2.127  -0.167  0.0005  0.2468  0.0480
  482MOL0     C64995   4.152   2.143  -0.211 -0.0888  0.9684 -1.1626
  482MOL0     C64996   4.140   2.153  -0.359 -0.6810 -0.0694 -0.4302
  482MOL0     C64997   4.186   2.279  -0.416  0.0287  0.0224 -0.0869
  482MOL0     C64998   4.143   2.294  -0.553 -0.4036 -0.3562  0.6933
  482MOL0     C64999   4.114   2.325  -0.669  1.1153 -0.1276 -0.4409
  482MOL0     C65000   4.541   2.069   0.018  0.6461 -0.1576 -0.6726
  482MOL0     C65001   4.646   2.031   0.100 -0.3225  0.2137 -0.1788
  482MOL0     C65002   4.788   2.101   0.092  0.5874 -0.4284  0.3575
  482MOL0     H65003   5.062   1.923   0.242  1.6791 -0.3334  0.0531
  482MOL0     H65004   5.248   1.823   0.370  0.6171  0.8988  2.1585
  482MOL0     H65005   5.262   1.615   0.475  1.3063  4.2875 -0.6132
  482MOL0     H65006   5.402   1.622   0.592  0.2802 -0.5209 -1.9193
  482MOL0     H65007   5.189   1.427   0.603  3.7073 -3.5302  2.8222
  482MOL0     H65008   5.149   1.551   0.717  0.1471  1.0361  0.4003
  482MOL0     H65009   5.287   1.364   0.831  1.1577  2.1898  3.2397
  482MOL0     H65010   5.400   1.508   0.804  0.6589 -0.0337 -1.0084
  482MOL0     H65011   5.362   1.279   0.600 -3.3084  3.1332 -1.8288
  482MOL0     H65012   5.486   1.410   0.600 -0.3029 -1.6129 -1.4100
  482MOL0     H65013   5.564   1.330   0.825 -1.5841  1.5369 -0.4674
  482MOL0     H65014   5.464   1.183   0.795  1.9389  0.1578  3.4666
  482MOL0     H65015   5.703   1.130   0.701  0.5647 -1.6458 -1.7640
  482MOL0     H65016   5.613   1.189   0.564  0.8082  2.0026 -0.9930
  482MOL0     H65017   5.696   1.410   0.588  0.3321 -0.8977 -0.9034
  482MOL0     H65018   5.830   1.299   0.567 -0.7140 -1.1989 -0.2605
  482MOL0     H65019   5.764   1.437   0.832  2.4656  0.5534  1.5163
  482MOL0     H65020   5.859   1.295   0.832  0.0675  0.1606  0.3115
  482MOL0     H65021   6.132   1.361   0.790  0.7277  0.1015 -1.6203
  482MOL0     H65022   6.316   1.513   0.856  0.7958  0.2012  0.4563
  482MOL0     H65023   6.329   1.548   0.680 -0.3811  0.5694 -1.1772
  482MOL0     H65024   6.374   1.770   0.719  0.2439  2.5944  0.6356
  482MOL0     H65025   6.257   1.788   0.852 -0.2043 -2.8490  1.5145
  482MOL0     H65026   6.536   1.652   0.881  1.7260  1.1033  0.9041
  482MOL0     H65027   6.411   1.683   1.009 -1.3081 -1.5065 -0.7177
  482MOL0     H65028   6.431   1.914   0.983  0.5407 -2.1448  1.1918
  482MOL0     H65029   6.544   1.901   0.847 -1.8090 -1.3761 -1.8743
  482MOL0     H65030   6.730   1.844   0.799 -1.9760 -0.1414  1.2169
  482MOL0     H65031   6.967   1.899   0.780  2.5266  0.5910  1.5075
  482MOL0     H65032   7.276   2.165   0.847 -0.5638 -2.1521 -0.5755
  482MOL0     H65033   7.484   2.316   0.861  1.4758 -0.3233  1.5726
  482MOL0     H65034   7.757   2.290   1.203 -1.5802  1.5957 -0.5584
  482MOL0     H65035   7.820   2.195   1.070 -2.6782 -0.9788  2.0409
  482MOL0     H65036   7.905   2.436   0.972 -3.1406  0.7176 -0.3628
  482MOL0     H65037   7.820   2.508   1.109  0.5344 -0.1327  1.8851
  482MOL0     H65038   7.957   2.432   1.273  2.2946 -0.2452  1.7290
  482MOL0     H65039   8.049   2.321   1.162  1.0762  0.5615 -2.7511
  482MOL0     H65040   8.020   2.632   1.173  1.8787  0.7737  1.3592
  482MOL0     H65041   8.109   2.553   1.049 -0.7793 -1.2590 -0.4613
  482MOL0     H65042   8.168   2.522   1.353 -1.5392 -0.8199 -0.7546
  482MOL0     H65043   8.232   2.648   1.246  0.6491 -0.4506  0.3243
  482MOL0     H65044   8.295   2.351   1.224 -3.3160  0.5555 -2.0026
  482MOL0     H65045   8.348   2.480   1.111  1.0513 -0.6677 -0.7698
  482MOL0     H65046   8.387   2.496   1.417 -0.7199 -3.1982 -0.6307
  482MOL0     H65047   8.472   2.590   1.285 -0.3115  0.6768  2.4222
  482MOL0     H65048   8.504   2.296   1.331  0.0539 -0.9120 -1.4599
  482MOL0     H65049   8.577   2.381   1.207 -1.0360 -0.2045  0.6682
  482MOL0     H65050   7.615   2.126   1.211  3.2058  0.7330 -2.4869
  482MOL0     H65051   7.395   2.002   1.226 -0.6449 -2.1340 -1.6246
  482MOL0     H65052   7.038   1.893   1.190  1.5685  1.2552 -0.9327
  482MOL0     H65053   6.781   1.868   1.229  1.0114 -2.2796  0.2296
  482MOL0     H65054   5.007   1.825   0.722 -0.4466  0.0007 -0.8223
  482MOL0     H65055   4.830   1.941   0.590  0.8388 -0.1164  1.4284
  482MOL0     H65056   4.478   1.782   0.250  0.0482  2.1971  2.6052
  482MOL0     H65057   4.302   1.863   0.130  0.2811 -0.6847 -0.7200
  482MOL0     H65058   4.351   2.076  -0.246 -3.3582 -0.5396 -1.9974
  482MOL0     H65059   4.340   2.226  -0.152 -0.7818  0.4466  1.1643
  482MOL0     H65060   4.108   2.230  -0.160 -1.8001 -2.4948  4.1448
  482MOL0     H65061   4.096   2.053  -0.183 -1.2594  1.1209 -2.8580
  482MOL0     H65062   4.036   2.137  -0.389 -1.2939  3.1574 -0.4680
  482MOL0     H65063   4.197   2.071  -0.403 -0.0542  0.2450 -0.2084
  482MOL0     H65064   4.159   2.368  -0.357  2.5903  0.3546  0.7113
  482MOL0     H65065   4.295   2.284  -0.401  0.5839  1.1388 -3.5568
  482MOL0     H65066   4.065   2.346  -0.762 -0.6650  1.3402  0.7427
  482MOL0     H65067   4.544   2.153  -0.050 -3.0876  0.6810  0.0066
  482MOL0     H65068   4.863   2.023   0.108  0.3336 -0.9417 -0.8541
  482MOL0     H65069   4.812   2.156   0.001 -0.1759  0.3296  0.6008
  482MOL0     H65070   4.810   2.167   0.176  3.3654  1.4211 -1.6690
  483MOL0     O65071   1.293   9.800   1.081  0.0071 -0.1384 -0.3854
  483MOL0     C65072   1.340   9.779   1.199 -0.0584  0.4365  0.1088
  483MOL0     O65073   1.274   9.732   1.307  0.0068 -0.1353 -0.3738
  483MOL0     C65074   1.156   9.661   1.295  0.5682 -1.1224 -0.1513
  483MOL0     C65075   1.150   9.533   1.328 -0.3915  1.2474 -0.3381
  483MOL0     C65076   1.027   9.460   1.350  0.6582  0.2897 -0.0148
  483MOL0     C65077   0.912   9.538   1.358  0.6620  0.4534 -0.6694
  483MOL0     O65078   0.792   9.488   1.410  0.4958  0.6004 -0.0097
  483MOL0     C65079   0.770   9.349   1.377 -0.3284  0.0248 -0.0529
  483MOL0     C65080   0.621   9.312   1.398  0.1694  0.2695 -0.4058
  483MOL0     C65081   0.592   9.160   1.360 -0.9155  0.1269  0.5311
  483MOL0     C65082   0.697   9.054   1.426  0.6276  0.0702  0.2359
  483MOL0     C65083   0.666   8.913   1.380 -0.8400  0.4282  0.7307
  483MOL0     C65084   0.718   8.864   1.244  0.0119 -0.9514 -0.4182
  483MOL0     C65085   0.730   8.714   1.221 -0.6835 -0.2156  0.7926
  483MOL0     C65086   0.600   8.653   1.181  0.4650 -0.2609 -0.2578
  483MOL0     N65087   0.601   8.503   1.227 -0.1674 -0.6722  0.0563
  483MOL0     C65088   0.597   8.466   1.363 -0.1407 -0.3404 -0.6002
  483MOL0     C65089   0.576   8.340   1.353 -0.3947  0.6998  0.2405
  483MOL0     C65090   0.568   8.249   1.476 -0.2223 -0.0689  0.3464
  483MOL0     C65091   0.482   8.118   1.449  0.0153  0.0112 -0.0682
  483MOL0     C65092   0.337   8.145   1.428 -0.3037 -0.2033  0.2244
  483MOL0     C65093   0.249   8.187   1.548  0.0144 -0.8293 -0.0617
  483MOL0     O65094   0.237   8.329   1.558 -0.1493 -0.6011  0.3505
  483MOL0     C65095   0.117   8.381   1.597  0.0763 -0.8166  0.5517
  483MOL0     C65096   0.085   8.507   1.549 -0.6103 -0.4697  0.1119
  483MOL0     C65097  -0.024   8.577   1.599 -0.2293 -0.3398  0.5726
  483MOL0     C65098  -0.106   8.522   1.694 -0.6351 -0.3070  0.1550
  483MOL0     C65099  -0.213   8.604   1.752 -0.4034 -0.9333  1.1927
  483MOL0     O65100  -0.236   8.726   1.692 -0.1656 -0.1833  0.8947
  483MOL0     C65101  -0.342   8.799   1.737 -0.0555  0.3599  0.1246
  483MOL0     C65102  -0.317   8.914   1.819  0.5331  0.5806  0.4855
  483MOL0     C65103  -0.417   8.979   1.877  0.1816  1.5798  0.2623
  483MOL0     C65104  -0.548   8.941   1.847  0.0610  0.7805 -0.2498
  483MOL0     O65105  -0.650   9.011   1.913  0.6937 -0.1427  0.2893
  483MOL0     C65106  -0.640   9.149   1.935 -0.0265 -0.4001  0.2815
  483MOL0     C65107  -0.783   9.211   1.963 -0.4004 -0.9675  0.4496
  483MOL0     C65108  -0.769   9.369   1.959  0.1706  0.1823 -0.0675
  483MOL0     C65109  -0.869   9.440   2.059 -0.1023 -0.3543  0.4917
  483MOL0     C65110  -0.849   9.600   2.056  1.2234 -0.0488 -0.7283
  483MOL0     C65111  -0.960   9.689   2.128 -0.4010 -0.6833 -0.1963
  483MOL0     C65112  -0.965   9.674   2.281 -0.2868  0.0970  0.4486
  483MOL0     C65113  -1.091   9.726   2.348  0.4240 -0.4854  0.3232
  483MOL0    Cl65114  -1.239   9.621   2.300 -0.2344  0.2387 -0.2216
  483MOL0     C65115  -0.575   8.835   1.757 -0.9823 -0.9148  0.8092
  483MOL0     C65116  -0.470   8.764   1.702  0.7445 -0.1495  0.0819
  483MOL0     O65117  -0.279   8.554   1.839  0.2597  0.1843 -0.4480
  483MOL0     C65118  -0.084   8.390   1.739 -0.9243  0.1267  0.0750
  483MOL0     C65119   0.021   8.315   1.681 -0.7780 -0.7501 -0.1924
  483MOL0     N65120   0.568   8.291   1.221 -0.6226 -0.3233  0.2470
  483MOL0     N65121   0.586   8.394   1.146  0.3703 -0.0479  0.4124
  483MOL0     C65122   0.910   9.670   1.323 -0.0521 -0.3045 -0.5559
  483MOL0     C65123   1.034   9.733   1.298 -0.0508  0.9159  0.0195
  483MOL0     C65124   1.476   9.817   1.220 -0.8433 -0.8152 -0.1586
  483MOL0     C65125   1.531   9.796   1.349 -0.0866  1.7435  0.2125
  483MOL0     C65126   1.662   9.837   1.385  0.0803 -0.0546  0.7748
  483MOL0     C65127   1.738   9.899   1.297  0.8220 -0.7335 -0.7793
  483MOL0     O65128   1.855   9.942   1.346  0.3237 -0.4997 -0.6143
  483MOL0     C65129   1.954   9.990   1.251  0.4335  0.6436 -0.2657
  483MOL0     C65130   2.065  10.036   1.343 -0.4586  0.4711  0.8583
  483MOL0     C65131   2.193   9.943   1.342  0.1619 -0.2293  0.5482
  483MOL0     C65132   2.301   9.997   1.438  0.3720 -0.7235  0.1510
  483MOL0     C65133   2.268   9.973   1.579 -0.3233 -0.2004 -0.1253
  483MOL0     C65134   2.243   9.956   1.694 -0.1817 -0.7959 -0.3721
  483MOL0     C65135   1.691   9.917   1.162 -0.2317 -0.6305  0.9818
  483MOL0     C65136   1.565   9.865   1.124 -0.1527  0.3188 -0.5996
  483MOL0     C65137   1.536   9.872   0.970 -0.0462  0.4896 -0.2967
  483MOL0     H65138   1.247   9.485   1.340 -2.2240 -2.1170  3.2922
  483MOL0     H65139   1.034   9.359   1.390  0.1875  0.6467  1.0084
  483MOL0     H65140   0.791   9.332   1.271 -0.9173  4.3695 -1.0940
  483MOL0     H65141   0.837   9.288   1.438 -0.8278 -0.3863  0.0932
  483MOL0     H65142   0.547   9.378   1.351  1.8453  1.7970 -1.0026
  483MOL0     H65143   0.599   9.320   1.505 -0.3356  3.5496 -0.6622
  483MOL0     H65144   0.591   9.141   1.252 -0.1079  0.2418  0.4968
  483MOL0     H65145   0.491   9.142   1.398 -0.8313  0.2485  0.8189
  483MOL0     H65146   0.797   9.093   1.407 -0.7798  4.6826  1.2317
  483MOL0     H65147   0.686   9.062   1.535  0.9548 -1.9512  0.4590
  483MOL0     H65148   0.708   8.846   1.456 -3.5984  0.2394  2.2604
  483MOL0     H65149   0.558   8.892   1.382 -0.5506 -2.1569 -2.6957
  483MOL0     H65150   0.672   8.908   1.155 -2.5314  1.6210  1.9615
  483MOL0     H65151   0.820   8.902   1.242 -0.3263 -0.0223 -0.9438
  483MOL0     H65152   0.752   8.667   1.318  0.4746 -0.4533  0.4246
  483MOL0     H65153   0.809   8.685   1.152  0.5354  0.7883  1.7207
  483MOL0     H65154   0.516   8.702   1.230  0.2763 -0.4260 -0.4165
  483MOL0     H65155   0.585   8.666   1.074 -0.5388  2.2363  0.1158
  483MOL0     H65156   0.612   8.524   1.453  1.3892 -1.7567  0.0924
  483MOL0     H65157   0.666   8.212   1.507  0.1086 -0.6914 -1.3274
  483MOL0     H65158   0.525   8.301   1.562  0.1211 -0.9914  1.0928
  483MOL0     H65159   0.526   8.076   1.358  0.5241 -1.4608  0.8210
  483MOL0     H65160   0.490   8.058   1.540  1.1357  1.6498  0.9662
  483MOL0     H65161   0.286   8.057   1.386 -0.9240  0.0644  0.3969
  483MOL0     H65162   0.326   8.223   1.352  3.0777  1.5349  1.3475
  483MOL0     H65163   0.291   8.150   1.642  2.4411  1.2673 -0.1896
  483MOL0     H65164   0.153   8.140   1.527 -0.9475  1.3183 -0.7591
  483MOL0     H65165   0.150   8.553   1.476 -1.1305 -2.4092 -1.6627
  483MOL0     H65166  -0.045   8.682   1.577 -0.3117 -0.5114 -0.1741
  483MOL0     H65167  -0.214   8.945   1.830  1.6748 -2.5287 -0.4171
  483MOL0     H65168  -0.388   9.065   1.935  0.9137  1.5963 -0.1106
  483MOL0     H65169  -0.583   9.164   2.027 -3.0115  0.0733  2.2227
  483MOL0     H65170  -0.590   9.193   1.848  1.2444  0.3223  1.3328
  483MOL0     H65171  -0.849   9.183   1.880 -0.8392  0.3012  0.3471
  483MOL0     H65172  -0.844   9.180   2.048  0.7607 -2.3289  0.8338
  483MOL0     H65173  -0.672   9.401   1.999 -0.2469  1.7329 -0.2366
  483MOL0     H65174  -0.784   9.400   1.855  2.0809  1.4728 -0.0292
  483MOL0     H65175  -0.853   9.415   2.164  0.1892  1.9269  1.0386
  483MOL0     H65176  -0.973   9.413   2.038  0.2900 -0.4279 -1.6463
  483MOL0     H65177  -0.860   9.638   1.954 -2.4768 -3.4556 -1.8689
  483MOL0     H65178  -0.751   9.628   2.096  0.5449  2.2168 -0.4756
  483MOL0     H65179  -0.951   9.796   2.107 -0.0346 -0.5724  0.5035
  483MOL0     H65180  -1.061   9.655   2.104 -1.9153 -0.0359  4.2745
  483MOL0     H65181  -0.879   9.722   2.329 -1.1180  0.3658  1.7412
  483MOL0     H65182  -0.962   9.568   2.305 -1.3350 -0.3708 -1.3321
  483MOL0     H65183  -1.071   9.707   2.454  2.3173  0.1309  0.1191
  483MOL0     H65184  -1.110   9.832   2.328 -2.2617 -0.1955  3.5109
  483MOL0     H65185  -0.676   8.817   1.721 -1.0135  1.2179 -0.3570
  483MOL0     H65186  -0.493   8.682   1.634  3.3482  1.2357 -2.7089
  483MOL0     H65187  -0.141   8.351   1.822 -0.3652 -0.0256  0.3909
  483MOL0     H65188   0.036   8.218   1.728 -0.8222 -0.2602  0.8660
  483MOL0     H65189   0.813   9.720   1.326 -0.1576 -0.4812 -0.9875
  483MOL0     H65190   1.029   9.839   1.274 -1.7501  0.4086 -2.1425
  483MOL0     H65191   1.472   9.740   1.420 -1.6833  2.9227 -0.1339
  483MOL0     H65192   1.694   9.820   1.488  0.4752 -3.0623  0.2352
  483MOL0     H65193   1.907  10.068   1.190  1.4397  0.9204 -0.7076
  483MOL0     H65194   1.977   9.906   1.185 -3.2621 -1.4638  0.8369
  483MOL0     H65195   2.026  10.054   1.443  0.3404  0.2118  1.2228
  483MOL0     H65196   2.088  10.131   1.295  0.4632  1.1591  2.5924
  483MOL0     H65197   2.232   9.929   1.241 -2.5250 -0.7756 -0.5079
  483MOL0     H65198   2.166   9.842   1.374  0.7585 -0.4716  0.2904
  483MOL0     H65199   2.400   9.953   1.421  0.5362  0.4092 -2.3517
  483MOL0     H65200   2.310  10.103   1.415 -1.9091 -0.6710 -0.7462
  483MOL0     H65201   2.230   9.949   1.800  0.3020  5.7079  0.5292
  483MOL0     H65202   1.733   9.981   1.085 -4.0054  3.5236  2.0050
  483MOL0     H65203   1.479   9.964   0.957 -0.4115  0.0971 -1.6198
  483MOL0     H65204   1.628   9.869   0.911 -0.4289  0.2638 -0.8982
  483MOL0     H65205   1.485   9.783   0.932  1.6052  0.1926 -1.9485
  484MOL0     O65206  11.211   1.460  11.066 -0.4897 -0.8013 -0.2324
  484MOL0     C65207  11.199   1.399  10.964  0.4728 -0.5102  0.4707
  484MOL0     O65208  11.293   1.381  10.869 -0.2321  0.4666  0.1239
  484MOL0     C65209  11.424   1.430  10.879 -0.1859  0.6432 -0.4960
  484MOL0     C65210  11.532   1.351  10.828 -0.0746  0.1036  0.0940
  484MOL0     C65211  11.667   1.395  10.838  0.5077 -0.5993 -0.7753
  484MOL0     C65212  11.696   1.525  10.901  0.2198  0.6055 -0.3607
  484MOL0     O65213  11.817   1.588  10.917 -0.2939  1.4912 -0.4420
  484MOL0     C65214  11.941   1.540  10.873 -0.8675 -0.4285 -0.5526
  484MOL0     C65215  11.965   1.548  10.711  0.5166 -0.0043  0.3568
  484MOL0     C65216  11.916   1.677  10.636 -0.4886 -0.0235  0.6688
  484MOL0     C65217  12.030   1.779  10.611  0.1572  0.1263 -0.5942
  484MOL0     C65218  12.110   1.723  10.489 -0.1492 -0.7889  0.3339
  484MOL0     C65219  12.214   1.819  10.421 -0.4084  0.4328 -0.6800
  484MOL0     C65220  12.359   1.821  10.476 -0.5816  1.1775 -0.3167
  484MOL0     C65221  12.428   1.677  10.471  0.3561  1.2463  0.2024
  484MOL0     N65222  12.576   1.701  10.472  0.5094 -0.6738 -0.8690
  484MOL0     C65223  12.659   1.748  10.371 -0.5412  0.5920 -0.3971
  484MOL0     C65224  12.787   1.741  10.422  0.4299 -0.1083 -0.2272
  484MOL0     C65225  12.915   1.772  10.343  0.8748  0.3638  0.1352
  484MOL0     C65226  13.030   1.678  10.384 -0.6739  0.4679 -0.1923
  484MOL0     C65227  13.158   1.733  10.324  0.0413 -0.2698  0.2475
  484MOL0     C65228  13.283   1.663  10.389  0.1909  0.2920  0.9578
  484MOL0     O65229  13.401   1.709  10.322  0.0101  0.0462  0.3775
  484MOL0     C65230  13.515   1.644  10.349 -0.8286  0.3519  0.3258
  484MOL0     C65231  13.528   1.547  10.443 -0.9695  0.9491 -0.1478
  484MOL0     C65232  13.664   1.503  10.481 -0.3339  0.8276  0.4537
  484MOL0     C65233  13.774   1.544  10.407  0.3900 -0.6816 -1.3912
  484MOL0     C65234  13.905   1.482  10.435  0.6563  0.9072 -0.1416
  484MOL0     O65235  14.001   1.512  10.336 -0.0881  0.4924 -0.9855
  484MOL0     C65236  14.122   1.450  10.350 -0.6369 -0.1852  0.2403
  484MOL0     C65237  14.153   1.350  10.251 -0.2460 -0.2492 -0.6575
  484MOL0     C65238  14.285   1.292  10.252 -0.9435  0.3828  0.0846
  484MOL0     C65239  14.377   1.329  10.350  0.2020 -0.2524 -0.2392
  484MOL0     O65240  14.510   1.291  10.352  0.1491  0.0406  0.4154
  484MOL0     C65241  14.571   1.223  10.242 -0.1462  0.3908 -0.1315
  484MOL0     C65242  14.718   1.185  10.285  0.8553  0.2016  1.0542
  484MOL0     C65243  14.822   1.198  10.175 -0.3814  0.1678  0.7975
  484MOL0     C65244  14.944   1.117  10.227 -0.3439 -1.2635  0.3120
  484MOL0     C65245  15.050   1.087  10.123 -0.4371  0.5771  0.4633
  484MOL0     C65246  15.184   1.040  10.192  0.1759 -0.5059  0.4235
  484MOL0     C65247  15.184   0.903  10.264  0.8886 -0.1206  0.3994
  484MOL0     C65248  15.322   0.860  10.327 -0.2580 -0.9643 -0.3875
  484MOL0    Cl65249  15.308   0.707  10.425  0.2147  0.4913  0.0524
  484MOL0     C65250  14.337   1.414  10.448 -0.1131  0.5777  0.3375
  484MOL0     C65251  14.214   1.484  10.452  0.1332  0.5916 -0.0770
  484MOL0     O65252  13.919   1.401  10.528  0.4661 -0.2715  0.0280
  484MOL0     C65253  13.758   1.655  10.318 -0.7721  0.7844  0.2665
  484MOL0     C65254  13.631   1.697  10.292 -0.2126 -0.4058  0.2757
  484MOL0     N65255  12.777   1.702  10.555  0.0125 -0.4194 -0.1835
  484MOL0     N65256  12.647   1.682  10.584  0.0968  0.7444 -0.4264
  484MOL0     C65257  11.591   1.599  10.956  0.1251 -0.7489  0.7829
  484MOL0     C65258  11.453   1.552  10.942 -0.5075 -0.6194 -0.1125
  484MOL0     C65259  11.055   1.351  10.923  0.3213 -0.1247  0.5600
  484MOL0     C65260  10.939   1.433  10.929  0.7378 -0.4910 -0.0362
  484MOL0     C65261  10.817   1.392  10.890  0.8745  0.4175  0.1505
  484MOL0     C65262  10.792   1.256  10.873  0.2337  0.5998 -0.0246
  484MOL0     O65263  10.668   1.205  10.833  0.1161  0.2677 -0.7495
  484MOL0     C65264  10.557   1.239  10.917  0.3975 -0.2357  0.3380
  484MOL0     C65265  10.572   1.177  11.052  0.1103  0.1409  0.7258
  484MOL0     C65266  10.587   1.023  11.059  0.1084  0.1972  0.5121
  484MOL0     C65267  10.470   0.939  10.998  0.8857  0.6931 -0.0576
  484MOL0     C65268  10.340   0.948  11.057  0.2902  1.0420  0.0849
  484MOL0     C65269  10.241   0.936  11.125  0.1504 -1.3860  1.5240
  484MOL0     C65270  10.894   1.168  10.869 -1.1532  0.5793  0.2607
  484MOL0     C65271  11.025   1.217  10.889  0.7299  1.3176 -0.0047
  484MOL0     C65272  11.125   1.112  10.899  0.0563 -0.3753  0.2218
  484MOL0     H65273  11.523   1.255  10.778 -1.5753  0.1991  0.1597
  484MOL0     H65274  11.750   1.333  10.806  0.3989 -0.7132 -0.8360
  484MOL0     H65275  12.026   1.594  10.916 -0.7269 -0.7384 -0.4327
  484MOL0     H65276  11.949   1.435  10.903 -2.4127 -0.4708 -0.2190
  484MOL0     H65277  11.926   1.464  10.653  1.5097  2.2662 -3.9938
  484MOL0     H65278  12.074   1.552  10.723  0.7087 -0.4483 -1.1514
  484MOL0     H65279  11.838   1.727  10.693  0.7261  3.8613 -0.7573
  484MOL0     H65280  11.861   1.654  10.544 -3.0699  2.3872  1.4937
  484MOL0     H65281  11.996   1.881  10.589 -0.1606  0.0739 -0.3632
  484MOL0     H65282  12.086   1.783  10.704  1.7625 -1.3040 -1.4463
  484MOL0     H65283  12.164   1.628  10.503 -0.8191 -1.0016  1.6919
  484MOL0     H65284  12.041   1.711  10.406  1.7227  1.4356 -1.6941
  484MOL0     H65285  12.221   1.796  10.315  1.1711 -3.2756  0.0668
  484MOL0     H65286  12.185   1.925  10.424 -0.5204  0.4118 -1.0058
  484MOL0     H65287  12.363   1.859  10.578 -0.7526  0.8632 -0.1914
  484MOL0     H65288  12.411   1.898  10.418 -2.9789  0.5632 -3.6487
  484MOL0     H65289  12.398   1.614  10.555  4.8953 -1.2422  0.2693
  484MOL0     H65290  12.397   1.615  10.386  2.9578 -0.5073  0.4362
  484MOL0     H65291  12.633   1.767  10.267 -1.9041  0.1555 -0.1672
  484MOL0     H65292  12.895   1.749  10.238 -0.9442  0.9887  0.3019
  484MOL0     H65293  12.931   1.881  10.349 -1.2628  0.8542 -1.9236
  484MOL0     H65294  13.046   1.671  10.492 -0.3988 -1.6444 -0.3227
  484MOL0     H65295  13.006   1.576  10.352 -1.8150  0.6268  0.1088
  484MOL0     H65296  13.164   1.838  10.356 -1.5736 -1.1372  3.9217
  484MOL0     H65297  13.153   1.734  10.215 -0.9212  0.7779  0.2819
  484MOL0     H65298  13.265   1.560  10.357  0.9439  0.8485 -1.4664
  484MOL0     H65299  13.285   1.682  10.496  2.7659  2.1148  0.7038
  484MOL0     H65300  13.446   1.515  10.505 -0.6534 -0.7302 -0.5256
  484MOL0     H65301  13.659   1.427  10.558  1.0050  1.3094  1.0370
  484MOL0     H65302  14.097   1.321  10.164 -0.1081  0.0856 -0.8589
  484MOL0     H65303  14.321   1.223  10.177 -1.7889  0.4485 -0.3861
  484MOL0     H65304  14.523   1.129  10.215  2.0897 -0.2433 -2.1836
  484MOL0     H65305  14.570   1.298  10.163 -1.4099 -0.0636 -0.5636
  484MOL0     H65306  14.757   1.243  10.369  4.0073  0.3739 -0.3837
  484MOL0     H65307  14.717   1.082  10.322 -1.8357 -1.1378 -2.2123
  484MOL0     H65308  14.786   1.158  10.080  0.8664  1.5664 -0.3105
  484MOL0     H65309  14.835   1.303  10.148  1.8440 -0.7893 -2.5360
  484MOL0     H65310  14.918   1.016  10.261  0.5293 -1.3428  0.7635
  484MOL0     H65311  14.974   1.168  10.319 -0.2349  3.3716 -1.9901
  484MOL0     H65312  15.070   1.174  10.061 -2.2337  2.2436  2.0917
  484MOL0     H65313  15.009   1.008  10.060 -0.8078 -1.5421  3.1652
  484MOL0     H65314  15.262   1.044  10.116 -1.0199  2.3590 -0.8018
  484MOL0     H65315  15.206   1.107  10.275 -0.7748 -2.3246  2.2201
  484MOL0     H65316  15.160   0.820  10.197 -0.2346 -0.2631  0.9555
  484MOL0     H65317  15.112   0.905  10.347 -2.1071  2.6828 -1.9973
  484MOL0     H65318  15.388   0.859  10.240  1.3374  1.0778  0.7020
  484MOL0     H65319  15.349   0.938  10.399 -1.8554  1.2075 -1.9987
  484MOL0     H65320  14.408   1.426  10.529  0.6540  1.0317 -0.3866
  484MOL0     H65321  14.190   1.559  10.526  3.4651  0.7885  0.9447
  484MOL0     H65322  13.838   1.705  10.265 -0.8859  4.2737  3.0248
  484MOL0     H65323  13.617   1.776  10.218  1.0334  0.1694  0.6262
  484MOL0     H65324  11.611   1.700  10.991  0.5695 -0.3511 -0.5843
  484MOL0     H65325  11.382   1.612  10.997  1.5123  1.0683  0.8047
  484MOL0     H65326  10.951   1.537  10.958  1.0979 -0.9911  1.7183
  484MOL0     H65327  10.736   1.464  10.885  0.3026 -0.0087  2.2874
  484MOL0     H65328  10.468   1.204  10.864  0.9518 -0.1721 -0.6515
  484MOL0     H65329  10.571   1.347  10.928  1.4841 -0.3224 -0.0869
  484MOL0     H65330  10.488   1.220  11.108 -0.2782  1.1438 -0.5601
  484MOL0     H65331  10.664   1.217  11.097 -0.5604  3.7535 -0.7277
  484MOL0     H65332  10.599   1.000  11.165  3.1511  1.0905  0.4509
  484MOL0     H65333  10.684   0.989  11.022 -0.3748 -2.9589  1.8173
  484MOL0     H65334  10.453   0.974  10.896 -2.1646  2.3354  0.8747
  484MOL0     H65335  10.500   0.834  10.993 -0.2000  0.4138 -1.3024
  484MOL0     H65336  10.150   0.936  11.182 -3.6599 -0.2751 -3.8185
  484MOL0     H65337  10.871   1.065  10.841  2.4137 -0.5654  1.0132
  484MOL0     H65338  11.086   1.012  10.877  1.8407 -0.8092 -1.2408
  484MOL0     H65339  11.224   1.127  10.855  0.5118 -0.4678  1.1832
  484MOL0     H65340  11.157   1.116  11.004  2.9853 -2.6751 -0.4228
  485MOL0     O65341   6.218   6.294   0.976  0.4848 -0.5001  0.4181
  485MOL0     C65342   6.183   6.299   1.094  0.6926  0.0929 -0.2292
  485MOL0     O65343   6.258   6.346   1.195 -0.5832  0.2015 -0.8332
  485MOL0     C65344   6.391   6.369   1.192 -0.9397  0.0200  0.6363
  485MOL0     C65345   6.438   6.457   1.297  0.0188  0.1554 -0.2175
  485MOL0     C65346   6.577   6.489   1.301 -0.0526 -0.7374  0.3076
  485MOL0     C65347   6.666   6.436   1.214  0.1283 -0.4230  1.2663
  485MOL0     O65348   6.804   6.441   1.237 -0.3276 -0.1686  0.1302
  485MOL0     C65349   6.862   6.565   1.288 -0.0971  0.3175  0.3257
  485MOL0     C65350   7.014   6.562   1.261 -0.3574 -0.2837  0.3832
  485MOL0     C65351   7.091   6.695   1.281  0.7620  0.9885 -0.3709
  485MOL0     C65352   7.171   6.687   1.410  1.0057  0.2786  1.6695
  485MOL0     C65353   7.222   6.819   1.446 -0.4161 -0.6458  0.8778
  485MOL0     C65354   7.287   6.806   1.592 -0.2497 -0.6684  0.1292
  485MOL0     C65355   7.414   6.718   1.598 -0.1281  0.0552  1.5442
  485MOL0     C65356   7.469   6.682   1.738  0.4933 -0.7469  0.1801
  485MOL0     N65357   7.534   6.804   1.797 -0.1026 -0.7056  0.0077
  485MOL0     C65358   7.660   6.846   1.785  0.2253 -0.5278 -0.0749
  485MOL0     C65359   7.672   6.966   1.856  0.5375  0.4160 -0.1285
  485MOL0     C65360   7.792   7.053   1.887  0.7905  0.3951  0.7168
  485MOL0     C65361   7.855   6.987   2.012  0.3795 -0.8867  0.9071
  485MOL0     C65362   7.956   7.085   2.076  0.0447 -0.2047  0.5291
  485MOL0     C65363   8.062   7.016   2.160 -0.3834 -0.0553  0.0385
  485MOL0     O65364   8.120   6.904   2.096 -0.0738  0.0772  0.0276
  485MOL0     C65365   8.224   6.927   2.008  0.4545 -0.5458  0.3314
  485MOL0     C65366   8.213   6.885   1.872 -0.2858 -0.3585  0.1471
  485MOL0     C65367   8.311   6.923   1.779 -0.0716  0.7997  0.4924
  485MOL0     C65368   8.415   7.011   1.817 -0.6401  0.4656 -0.4005
  485MOL0     C65369   8.528   7.046   1.732  0.3721 -0.6738  0.0338
  485MOL0     O65370   8.603   7.153   1.761  0.3727  0.0848  0.9665
  485MOL0     C65371   8.716   7.168   1.689 -0.1837  0.1856  0.6318
  485MOL0     C65372   8.799   7.054   1.647  0.4847 -0.7327 -0.6635
  485MOL0     C65373   8.917   7.083   1.568 -0.9772 -0.0396 -1.2412
  485MOL0     C65374   8.964   7.214   1.554 -0.2072  0.4901 -0.0547
  485MOL0     O65375   9.072   7.239   1.475  0.3355  0.0086 -0.1672
  485MOL0     C65376   9.146   7.121   1.422 -0.5730  0.3031  0.8197
  485MOL0     C65377   9.280   7.166   1.364 -0.1279 -0.0313 -0.0051
  485MOL0     C65378   9.355   7.054   1.287 -0.0007  0.0630 -0.3540
  485MOL0     C65379   9.473   7.127   1.222  0.2190  0.7120  0.3053
  485MOL0     C65380   9.555   7.037   1.137 -0.1435  0.4176  0.6488
  485MOL0     C65381   9.699   7.100   1.109  0.3190 -0.1127 -0.5241
  485MOL0     C65382   9.784   7.009   1.037 -0.5546 -0.4250  0.3473
  485MOL0     C65383   9.908   7.079   0.984 -0.4569  0.0129 -0.0652
  485MOL0    Cl65384   9.965   6.996   0.835 -0.0077 -0.3924 -0.0187
  485MOL0     C65385   8.887   7.315   1.599  0.4937 -0.0353 -0.7177
  485MOL0     C65386   8.771   7.297   1.673  0.2457 -0.2172  0.5492
  485MOL0     O65387   8.524   6.987   1.627  0.0477  0.6600 -0.0979
  485MOL0     C65388   8.422   7.048   1.951 -0.1105 -0.5514 -0.8662
  485MOL0     C65389   8.335   7.004   2.050  0.2444  0.7654 -0.1042
  485MOL0     N65390   7.546   6.993   1.910 -0.6085  0.6691  0.5436
  485MOL0     N65391   7.464   6.898   1.865  0.8899 -0.7283 -0.0378
  485MOL0     C65392   6.624   6.359   1.111  0.4099  0.0417 -0.6503
  485MOL0     C65393   6.481   6.318   1.100 -0.2788  0.2798 -0.1344
  485MOL0     C65394   6.039   6.275   1.132  1.0201  0.8650 -0.6099
  485MOL0     C65395   5.998   6.311   1.259 -0.0332 -0.1744 -0.7386
  485MOL0     C65396   5.876   6.277   1.324  1.1035  0.0426  0.2542
  485MOL0     C65397   5.781   6.222   1.236 -0.8848 -0.4828 -0.4456
  485MOL0     O65398   5.653   6.197   1.269 -0.0748  0.0169 -0.0267
  485MOL0     C65399   5.573   6.306   1.305 -0.1251 -0.1866  0.3189
  485MOL0     C65400   5.483   6.286   1.432 -0.1133  0.0185 -0.9812
  485MOL0     C65401   5.435   6.147   1.429  1.1897 -0.3502  0.1105
  485MOL0     C65402   5.336   6.112   1.545  0.3054  0.3781 -1.0030
  485MOL0     C65403   5.406   6.134   1.680  0.1410  0.2511 -0.0919
  485MOL0     C65404   5.451   6.173   1.785  0.0415 -0.1850 -0.0705
  485MOL0     C65405   5.817   6.187   1.114 -0.2563  0.2340  0.5052
  485MOL0     C65406   5.941   6.219   1.049 -0.3908  0.6188 -0.0562
  485MOL0     C65407   5.962   6.167   0.908 -0.3645 -0.1074 -0.7872
  485MOL0     H65408   6.369   6.498   1.370 -1.8383 -0.4000 -1.5988
  485MOL0     H65409   6.617   6.548   1.383 -0.9159  2.5638 -1.4932
  485MOL0     H65410   6.812   6.653   1.248  2.4102  0.3618 -3.1490
  485MOL0     H65411   6.844   6.559   1.396  1.6941 -0.1095  0.6390
  485MOL0     H65412   7.036   6.539   1.157 -0.0796 -0.4890  0.4853
  485MOL0     H65413   7.054   6.477   1.317  1.3835 -2.5512 -3.8844
  485MOL0     H65414   7.018   6.777   1.280  1.4376  1.6232 -1.7800
  485MOL0     H65415   7.154   6.712   1.193 -0.8940 -0.8201 -1.9806
  485MOL0     H65416   7.096   6.650   1.480  0.0125 -2.3706 -0.6019
  485MOL0     H65417   7.247   6.608   1.404 -0.2533 -0.8790 -1.2854
  485MOL0     H65418   7.291   6.855   1.369 -0.4829 -2.0246  0.1372
  485MOL0     H65419   7.134   6.884   1.447 -0.0178  0.1068 -2.1689
  485MOL0     H65420   7.312   6.906   1.628 -1.6249 -0.8707  1.7944
  485MOL0     H65421   7.226   6.766   1.673  1.9299 -3.1118  0.7034
  485MOL0     H65422   7.484   6.768   1.530  0.8120 -0.6749  1.9587
  485MOL0     H65423   7.401   6.625   1.541 -1.3573 -0.2959  2.3747
  485MOL0     H65424   7.389   6.634   1.796 -0.3837 -2.0367 -1.9848
  485MOL0     H65425   7.547   6.605   1.731 -0.7603 -1.9063 -2.1126
  485MOL0     H65426   7.728   6.797   1.717 -2.1821 -0.5053 -2.7234
  485MOL0     H65427   7.861   7.053   1.802  0.6646  1.2846  0.6034
  485MOL0     H65428   7.761   7.157   1.896  1.4064  1.1238 -3.4080
  485MOL0     H65429   7.775   6.959   2.082 -1.0018  1.2187  0.2726
  485MOL0     H65430   7.903   6.893   1.984  2.9897  0.3409  1.0104
  485MOL0     H65431   7.898   7.148   2.144 -0.8693 -0.2456 -0.1803
  485MOL0     H65432   7.998   7.148   1.997  0.5380  0.7044  1.4795
  485MOL0     H65433   8.002   6.986   2.246  0.3948  0.9865  0.9648
  485MOL0     H65434   8.137   7.082   2.202 -1.9146  0.5817  1.8976
  485MOL0     H65435   8.117   6.849   1.837 -1.3234  2.0925  0.2700
  485MOL0     H65436   8.302   6.900   1.673  2.6440  0.0383  0.3576
  485MOL0     H65437   8.766   6.956   1.678 -2.5684  0.5562  0.6188
  485MOL0     H65438   8.964   6.989   1.541  0.2283  0.6564 -1.6203
  485MOL0     H65439   9.165   7.042   1.496 -3.3727  0.0608  1.3737
  485MOL0     H65440   9.086   7.070   1.346 -1.4405  1.7756  0.4861
  485MOL0     H65441   9.260   7.242   1.288  0.5920 -0.4347 -0.6009
  485MOL0     H65442   9.344   7.194   1.448  0.6489 -2.7905  0.4061
  485MOL0     H65443   9.390   6.974   1.352  0.3834 -0.9529 -1.7710
  485MOL0     H65444   9.295   7.010   1.207  1.9731 -1.8955 -0.8514
  485MOL0     H65445   9.532   7.184   1.295 -1.3218 -2.5721  4.5303
  485MOL0     H65446   9.428   7.201   1.155  1.7376  0.2283 -1.3196
  485MOL0     H65447   9.506   7.018   1.041 -3.4306 -0.7484  2.4062
  485MOL0     H65448   9.561   6.943   1.192  2.4951  1.3783  2.2335
  485MOL0     H65449   9.675   7.194   1.056 -1.4537 -0.0523  0.2921
  485MOL0     H65450   9.742   7.124   1.206 -0.4664 -0.3291 -0.1135
  485MOL0     H65451   9.731   6.967   0.951 -0.2857  1.0296 -0.5641
  485MOL0     H65452   9.813   6.924   1.099  2.8798 -0.0311 -0.5112
  485MOL0     H65453   9.886   7.183   0.958 -1.0782  0.0383  0.5469
  485MOL0     H65454   9.985   7.073   1.062 -0.5072  1.2110  0.0950
  485MOL0     H65455   8.926   7.413   1.574 -0.0664 -0.1030 -1.9124
  485MOL0     H65456   8.726   7.391   1.704  3.2079  1.4043  0.3816
  485MOL0     H65457   8.499   7.115   1.987  0.2452 -1.0037 -0.7860
  485MOL0     H65458   8.341   7.032   2.155 -1.6303  2.9342 -0.4807
  485MOL0     H65459   6.698   6.320   1.041  1.2971  1.0825 -0.3133
  485MOL0     H65460   6.452   6.246   1.025 -2.4830  0.5307  0.4250
  485MOL0     H65461   6.067   6.346   1.335  0.9483 -0.7581 -1.3428
  485MOL0     H65462   5.842   6.287   1.427 -0.4713  0.7096 -0.2995
  485MOL0     H65463   5.509   6.326   1.219 -0.1939  2.7196  0.9257
  485MOL0     H65464   5.635   6.396   1.316 -0.5829  0.0604  0.9529
  485MOL0     H65465   5.393   6.346   1.414 -0.7662 -1.0225 -1.2243
  485MOL0     H65466   5.538   6.305   1.525  0.8413  1.9399 -1.8618
  485MOL0     H65467   5.521   6.082   1.443  1.5264  0.5864  3.1758
  485MOL0     H65468   5.382   6.132   1.335 -1.7198  0.0109  1.5519
  485MOL0     H65469   5.241   6.166   1.543  0.1590  0.1357 -0.5581
  485MOL0     H65470   5.313   6.005   1.551  1.0406  0.1796 -1.5684
  485MOL0     H65471   5.498   6.202   1.877  1.8616  0.6068 -1.1940
  485MOL0     H65472   5.736   6.151   1.052 -1.1916  2.5122  0.3134
  485MOL0     H65473   5.876   6.112   0.869  1.0364 -0.7649 -3.0854
  485MOL0     H65474   5.996   6.242   0.837  2.1236  0.4095  0.8234
  485MOL0     H65475   6.027   6.079   0.920 -4.0129 -3.3113 -2.1673
  486MOL0     O65476   9.224   0.032  10.896  0.0816  0.2257 -0.5984
  486MOL0     C65477   9.208  -0.056  10.817 -1.5524  0.4242  0.5186
  486MOL0     O65478   9.309  -0.095  10.726 -0.1315  0.6799 -0.4823
  486MOL0     C65479   9.410  -0.010  10.710 -0.0410 -0.5485  0.3022
  486MOL0     C65480   9.508  -0.010  10.810 -0.4651  0.5933  0.4504
  486MOL0     C65481   9.625   0.069  10.789 -0.6807  0.3324 -1.0763
  486MOL0     C65482   9.631   0.148  10.675 -0.2323 -0.2357 -0.8136
  486MOL0     O65483   9.729   0.246  10.675  0.3403  0.6428 -0.0728
  486MOL0     C65484   9.729   0.354  10.573  0.2495  0.5520 -0.3193
  486MOL0     C65485   9.788   0.317  10.436 -0.9024  0.7695 -0.4235
  486MOL0     C65486   9.939   0.357  10.430 -0.0078  0.2862  0.0622
  486MOL0     C65487  10.002   0.293  10.308  0.4680 -0.4531  0.3079
  486MOL0     C65488  10.148   0.284  10.303  0.1789  0.8534  0.5736
  486MOL0     C65489  10.191   0.250  10.154 -0.2288  0.2555  0.0712
  486MOL0     C65490  10.341   0.211  10.137  0.2922  0.0720 -0.1555
  486MOL0     C65491  10.369   0.188   9.990  0.4145 -1.0667  0.6061
  486MOL0     N65492  10.505   0.126   9.969  0.3376  0.4596  0.1843
  486MOL0     C65493  10.622   0.195   9.974 -0.4528 -0.0849 -0.4225
  486MOL0     C65494  10.716   0.113   9.932  0.2701  0.2795  0.2591
  486MOL0     C65495  10.859   0.145   9.905 -0.8639 -0.4349  0.6433
  486MOL0     C65496  10.958   0.029   9.939  0.3632  0.1815 -0.3327
  486MOL0     C65497  11.101   0.045   9.892 -0.3393  0.1863  0.2535
  486MOL0     C65498  11.191  -0.090   9.893 -0.0812 -0.3961 -0.5490
  486MOL0     O65499  11.206  -0.120  10.032  0.2615  0.1040  0.0158
  486MOL0     C65500  11.276  -0.236  10.061  0.3064  0.0924  0.1477
  486MOL0     C65501  11.323  -0.331   9.962  0.2337 -0.6768  0.0349
  486MOL0     C65502  11.372  -0.447  10.011  0.3129  0.3131 -0.7771
  486MOL0     C65503  11.369  -0.478  10.153  1.4649  0.1645  0.2770
  486MOL0     C65504  11.411  -0.614  10.205 -0.4030  0.8840  0.6061
  486MOL0     O65505  11.481  -0.687  10.112 -0.3532  0.8889 -0.0192
  486MOL0     C65506  11.563  -0.794  10.140 -1.0118 -0.0806 -1.1842
  486MOL0     C65507  11.577  -0.908  10.062  0.1996  0.0489  1.0113
  486MOL0     C65508  11.653  -1.020  10.092  0.7645  0.1728 -0.3873
  486MOL0     C65509  11.715  -1.028  10.213  0.0349  0.5000  0.4369
  486MOL0     O65510  11.785  -1.145  10.230 -0.7529 -0.4292  0.1741
  486MOL0     C65511  11.907  -1.136  10.304  0.0257 -0.6196  0.8312
  486MOL0     C65512  11.992  -1.259  10.293  0.9575 -0.1482 -0.3097
  486MOL0     C65513  11.904  -1.391  10.326  0.1719  0.6124 -0.1170
  486MOL0     C65514  11.950  -1.456  10.459  0.2552  0.0236  0.3610
  486MOL0     C65515  11.901  -1.609  10.468 -0.0133 -0.4704  0.5552
  486MOL0     C65516  11.748  -1.616  10.496  0.7382 -0.2426 -0.0644
  486MOL0     C65517  11.694  -1.762  10.529  0.0296  0.7299  0.7022
  486MOL0     C65518  11.544  -1.788  10.516 -0.0782  0.3409  0.5859
  486MOL0    Cl65519  11.447  -1.669  10.605  0.1024  0.5955 -0.6606
  486MOL0     C65520  11.715  -0.912  10.292 -0.8330  0.0126  0.4926
  486MOL0     C65521  11.645  -0.799  10.257 -0.1290  0.7803 -0.5104
  486MOL0     O65522  11.396  -0.640  10.317  0.0171  0.5669  0.1659
  486MOL0     C65523  11.318  -0.384  10.241  0.1130  0.0328 -1.0595
  486MOL0     C65524  11.275  -0.263  10.195 -0.0414  0.0977 -0.5099
  486MOL0     N65525  10.651  -0.010   9.902  0.6438  0.2919 -0.1816
  486MOL0     N65526  10.524   0.006   9.928  0.2327  0.5947  0.1290
  486MOL0     C65527   9.515   0.160  10.588  0.1118  0.0149 -0.4502
  486MOL0     C65528   9.405   0.089  10.615  0.2178 -0.4257  0.6292
  486MOL0     C65529   9.097  -0.139  10.824  0.6053  0.6970  0.5668
  486MOL0     C65530   9.098  -0.274  10.764  1.3601  0.8073 -0.4389
  486MOL0     C65531   8.986  -0.351  10.779 -0.4341  0.3570 -0.5479
  486MOL0     C65532   8.873  -0.313  10.840  0.7032 -0.7467 -0.0636
  486MOL0     O65533   8.762  -0.398  10.835  0.3282  0.3977 -0.1147
  486MOL0     C65534   8.632  -0.355  10.852 -0.4552  0.4513 -0.2386
  486MOL0     C65535   8.532  -0.471  10.825  0.4377 -0.8754  0.6697
  486MOL0     C65536   8.391  -0.444  10.883 -0.4763  0.3460  0.5962
  486MOL0     C65537   8.304  -0.349  10.793  0.5659 -0.6642  0.8287
  486MOL0     C65538   8.160  -0.363  10.832  0.1620  0.4377  0.8603
  486MOL0     C65539   8.043  -0.387  10.867 -0.1165  0.2445 -0.2265
  486MOL0     C65540   8.874  -0.178  10.883  0.3147  0.2992 -0.5062
  486MOL0     C65541   8.976  -0.088  10.875 -0.3506 -0.1868  0.2071
  486MOL0     C65542   8.944   0.058  10.911 -0.0364 -1.1244  0.4246
  486MOL0     H65543   9.487  -0.066  10.901  0.6784  0.3960  0.6134
  486MOL0     H65544   9.712   0.074  10.854 -2.3519  2.3049  1.1747
  486MOL0     H65545   9.628   0.392  10.559 -0.7273 -2.7251 -4.1326
  486MOL0     H65546   9.799   0.431  10.607  0.5840 -0.0973  0.5058
  486MOL0     H65547   9.743   0.367  10.350  2.1723  1.3634 -1.8127
  486MOL0     H65548   9.775   0.209  10.424  2.6804 -0.0300  1.4321
  486MOL0     H65549   9.986   0.329  10.525 -0.1948 -0.4293 -0.0462
  486MOL0     H65550   9.941   0.466  10.430  2.6312  0.3080 -1.1154
  486MOL0     H65551   9.966   0.192  10.284  0.5718 -0.6470  0.9496
  486MOL0     H65552   9.970   0.361  10.229 -0.2367 -2.7710 -1.5332
  486MOL0     H65553  10.191   0.380  10.333 -1.9743  2.1641 -0.3130
  486MOL0     H65554  10.181   0.197  10.360  1.2342 -0.3459 -1.6980
  486MOL0     H65555  10.127   0.169  10.118  0.6731 -1.0058  1.1983
  486MOL0     H65556  10.177   0.337  10.089 -1.7874 -0.1475 -0.1666
  486MOL0     H65557  10.361   0.116  10.187  1.7137  0.8561  0.8295
  486MOL0     H65558  10.411   0.289  10.167 -0.7231  1.6930 -1.7849
  486MOL0     H65559  10.293   0.117   9.956 -1.8733  2.2550 -1.8128
  486MOL0     H65560  10.344   0.281   9.938 -0.6627 -0.1583  2.6478
  486MOL0     H65561  10.634   0.299  10.001  1.8675 -0.9786  2.5947
  486MOL0     H65562  10.868   0.165   9.798 -1.0773 -2.2135  0.2516
  486MOL0     H65563  10.895   0.232   9.959  4.0999 -0.4641 -1.9857
  486MOL0     H65564  10.961  -0.001  10.044 -3.0519  1.3544  0.2268
  486MOL0     H65565  10.922  -0.063   9.891 -1.5919  2.3914 -3.4894
  486MOL0     H65566  11.146   0.131   9.941 -0.2996  1.1089 -1.3362
  486MOL0     H65567  11.097   0.077   9.787 -1.2400  1.5050  0.6652
  486MOL0     H65568  11.285  -0.059   9.846  0.6293  5.2047  3.5084
  486MOL0     H65569  11.139  -0.170   9.840  0.4252 -0.7722 -0.4856
  486MOL0     H65570  11.330  -0.309   9.856 -0.8761 -1.3470 -0.1877
  486MOL0     H65571  11.394  -0.527   9.940 -0.6777 -0.5722 -0.1131
  486MOL0     H65572  11.522  -0.915   9.968  2.7754 -2.6407 -0.4331
  486MOL0     H65573  11.659  -1.103  10.022  1.1630  0.7484 -1.0451
  486MOL0     H65574  11.961  -1.046  10.275  0.0497 -1.0897 -0.6627
  486MOL0     H65575  11.880  -1.123  10.410  1.5648 -0.4347  1.2248
  486MOL0     H65576  12.031  -1.260  10.190 -3.3733 -1.7125 -2.1460
  486MOL0     H65577  12.086  -1.252  10.349 -0.1577  0.9707  1.5164
  486MOL0     H65578  11.801  -1.356  10.330  0.2707  1.2503 -2.1583
  486MOL0     H65579  11.923  -1.458  10.242 -1.0716 -0.8213  0.7027
  486MOL0     H65580  11.906  -1.402  10.543 -3.9416  0.2808 -1.7288
  486MOL0     H65581  12.058  -1.471  10.467  0.2754  0.3968  0.8421
  486MOL0     H65582  11.949  -1.656  10.554  0.9179  0.6966  0.6943
  486MOL0     H65583  11.929  -1.660  10.375 -1.9324 -0.7068  0.0590
  486MOL0     H65584  11.720  -1.550  10.578  2.3020 -0.3307  0.5820
  486MOL0     H65585  11.708  -1.576  10.402  1.3506 -1.3416 -0.8158
  486MOL0     H65586  11.719  -1.790  10.632  0.5401 -0.7433  0.2087
  486MOL0     H65587  11.755  -1.822  10.460  0.0187  1.1938  0.2880
  486MOL0     H65588  11.514  -1.783  10.411  0.4442  1.8207  0.4943
  486MOL0     H65589  11.526  -1.891  10.551  0.0097  0.6404  1.5486
  486MOL0     H65590  11.760  -0.908  10.390 -1.9251 -1.3456  1.0704
  486MOL0     H65591  11.664  -0.722  10.331  1.5905 -1.1541  1.1805
  486MOL0     H65592  11.311  -0.409  10.347  1.5966 -1.2116 -1.2150
  486MOL0     H65593  11.244  -0.193  10.271  0.2015 -0.5065  0.1532
  486MOL0     H65594   9.501   0.230  10.506 -1.2215  1.2224  0.7405
  486MOL0     H65595   9.314   0.098  10.556  0.5540  0.9765  0.3121
  486MOL0     H65596   9.173  -0.331  10.711 -0.4628 -1.8211 -0.4193
  486MOL0     H65597   8.985  -0.455  10.748  0.7777 -0.5455  2.1472
  486MOL0     H65598   8.618  -0.274  10.779  0.5214  0.9676  0.1204
  486MOL0     H65599   8.611  -0.317  10.952 -0.4746 -1.6140  0.5946
  486MOL0     H65600   8.576  -0.561  10.869 -0.7045 -1.0628  1.4913
  486MOL0     H65601   8.537  -0.487  10.717 -0.0573 -2.5409  0.8775
  486MOL0     H65602   8.401  -0.401  10.983  2.4692 -1.1164  1.0184
  486MOL0     H65603   8.345  -0.543  10.877  0.5257 -0.2124  1.8181
  486MOL0     H65604   8.340  -0.247  10.809  3.0828 -1.4432  0.5032
  486MOL0     H65605   8.308  -0.372  10.686  0.6780 -0.6993  0.8392
  486MOL0     H65606   7.940  -0.409  10.890 -0.1081  1.0948  0.7366
  486MOL0     H65607   8.780  -0.139  10.918 -0.6804 -1.9208 -0.5401
  486MOL0     H65608   8.837   0.080  10.915  0.5408  2.6891 -0.8461
  486MOL0     H65609   8.995   0.092  11.001 -1.4395 -0.0530  0.8531
  486MOL0     H65610   8.977   0.124  10.830  0.2459 -1.0528  0.5975
  487MOL0     O65611   4.584   0.141  11.204  0.2473 -0.2740  1.2690
  487MOL0     C65612   4.670   0.092  11.279  0.1791  0.1390  0.1961
  487MOL0     O65613   4.806   0.120  11.275  0.3905 -0.4900  0.3331
  487MOL0     C65614   4.862   0.205  11.179  0.4629 -0.0514  0.7383
  487MOL0     C65615   4.934   0.156  11.066 -0.1726 -0.2110 -0.6173
  487MOL0     C65616   4.996   0.242  10.971  0.5034 -0.8055 -0.1690
  487MOL0     C65617   4.962   0.376  10.998 -0.6009 -0.7854  0.1379
  487MOL0     O65618   4.997   0.474  10.900  0.4189  0.2996 -0.8094
  487MOL0     C65619   5.117   0.542  10.926 -0.9773 -0.4020 -0.5963
  487MOL0     C65620   5.212   0.530  10.811 -0.0609 -0.0062 -0.2537
  487MOL0     C65621   5.352   0.570  10.861  0.4542 -1.3320  0.4416
  487MOL0     C65622   5.424   0.646  10.741  0.1952  0.0417  0.7541
  487MOL0     C65623   5.548   0.723  10.795  0.4959  0.3205 -0.2166
  487MOL0     C65624   5.632   0.803  10.690  0.9310  0.1562  0.3312
  487MOL0     C65625   5.742   0.864  10.759 -1.1266 -0.3084  0.4871
  487MOL0     C65626   5.830   0.940  10.660 -0.3729  0.3750 -0.3929
  487MOL0     N65627   5.946   0.859  10.622  0.5566  0.8175 -0.6081
  487MOL0     C65628   6.056   0.839  10.704 -0.4094 -0.3390 -0.0928
  487MOL0     C65629   6.122   0.749  10.627  0.7838 -0.5428  1.5179
  487MOL0     C65630   6.246   0.683  10.659  0.0887 -0.6688 -0.6796
  487MOL0     C65631   6.370   0.784  10.653 -0.1623  0.8077 -0.4486
  487MOL0     C65632   6.402   0.859  10.784  0.3978  0.3215  1.0289
  487MOL0     C65633   6.531   0.936  10.776  0.0818  0.8088  0.4054
  487MOL0     O65634   6.636   0.832  10.765 -0.2399  0.8842  0.1685
  487MOL0     C65635   6.760   0.875  10.713  0.4785  0.2720 -0.5750
  487MOL0     C65636   6.812   0.812  10.602  0.3477  0.1366 -0.4164
  487MOL0     C65637   6.943   0.861  10.563  0.3039 -0.9377  0.6072
  487MOL0     C65638   7.000   0.985  10.615 -0.5989 -0.3149  0.5989
  487MOL0     C65639   7.126   1.033  10.559 -0.5915  0.4216 -0.0974
  487MOL0     O65640   7.195   0.937  10.488 -0.2078  0.5007 -0.9010
  487MOL0     C65641   7.304   0.975  10.419  0.3034 -0.1508  0.1353
  487MOL0     C65642   7.298   1.024  10.287  0.2196 -0.6326  0.1206
  487MOL0     C65643   7.415   1.071  10.222 -0.2497  0.3679  0.0677
  487MOL0     C65644   7.543   1.052  10.288  0.6990  0.2462  0.3096
  487MOL0     O65645   7.660   1.088  10.231 -0.2257 -0.0321 -0.2488
  487MOL0     C65646   7.649   1.228  10.201 -0.3392  0.2771 -0.2379
  487MOL0     C65647   7.791   1.279  10.152 -0.5797 -0.3020  0.4494
  487MOL0     C65648   7.805   1.270   9.998 -1.0787 -0.8861  0.1146
  487MOL0     C65649   7.935   1.347   9.941 -0.2065  0.0671  1.3074
  487MOL0     C65650   7.966   1.287   9.800  0.4787 -0.8255 -0.2685
  487MOL0     C65651   8.098   1.329   9.758 -0.0013 -0.1260  0.4964
  487MOL0     C65652   8.140   1.263   9.629  0.2042  0.7447 -0.1865
  487MOL0     C65653   8.275   1.308   9.589  0.1348  0.6790  0.0167
  487MOL0    Cl65654   8.402   1.223   9.680  0.0937  0.0798  0.1844
  487MOL0     C65655   7.543   0.984  10.409 -0.0022 -0.2290  0.5177
  487MOL0     C65656   7.432   0.959  10.471  0.6028 -0.6647  0.0315
  487MOL0     O65657   7.157   1.151  10.562  0.4377 -0.5459  0.3812
  487MOL0     C65658   6.934   1.053  10.721  0.3764  0.7689  0.4250
  487MOL0     C65659   6.818   0.988  10.776  0.2695  0.8519 -0.2281
  487MOL0     N65660   6.070   0.742  10.502  0.3068 -0.4711  0.1184
  487MOL0     N65661   5.960   0.807  10.501 -0.3638  0.0608 -0.5462
  487MOL0     C65662   4.882   0.432  11.100 -0.1983  0.6853  0.2805
  487MOL0     C65663   4.840   0.342  11.196 -0.0957 -0.0368  0.9135
  487MOL0     C65664   4.627  -0.007  11.376  0.4334  0.8705 -0.6615
  487MOL0     C65665   4.507   0.021  11.438  0.7610  0.4805 -0.1404
  487MOL0     C65666   4.457  -0.069  11.526  0.3657  0.4575  0.1768
  487MOL0     C65667   4.519  -0.188  11.559  0.5413  0.7275  0.0250
  487MOL0     O65668   4.468  -0.261  11.659  0.3431  0.4853  0.3663
  487MOL0     C65669   4.471  -0.398  11.649  0.0451 -0.0057 -0.5316
  487MOL0     C65670   4.340  -0.453  11.724  0.1230 -1.0159  1.4028
  487MOL0     C65671   4.215  -0.372  11.688 -0.5014  0.1289 -0.0584
  487MOL0     C65672   4.102  -0.425  11.776  0.8407  0.8109 -0.3543
  487MOL0     C65673   3.965  -0.378  11.745  0.0823 -0.2330 -0.2204
  487MOL0     C65674   3.855  -0.329  11.717  0.5141 -0.3990  0.5152
  487MOL0     C65675   4.636  -0.225  11.484  0.5314 -0.6536  0.2761
  487MOL0     C65676   4.701  -0.133  11.403  0.3254 -0.5881  0.0943
  487MOL0     C65677   4.831  -0.169  11.334 -0.8119  0.5851  1.0449
  487MOL0     H65678   4.954   0.050  11.059 -3.8755 -1.1755  0.6781
  487MOL0     H65679   5.054   0.222  10.881 -1.2457  0.1705 -1.6042
  487MOL0     H65680   5.090   0.645  10.951 -1.4057 -0.6189 -0.1543
  487MOL0     H65681   5.167   0.493  11.009  0.7866 -0.1958 -1.4945
  487MOL0     H65682   5.165   0.590  10.733  0.3089  1.5720  0.7093
  487MOL0     H65683   5.229   0.426  10.780  0.3720  0.1198 -0.4516
  487MOL0     H65684   5.421   0.488  10.882  2.0995 -0.6107 -1.7610
  487MOL0     H65685   5.342   0.642  10.942 -1.2406 -0.5236 -0.4175
  487MOL0     H65686   5.465   0.568  10.676  0.7685 -2.3478  3.7389
  487MOL0     H65687   5.363   0.717  10.685  1.3372  1.6194  1.4246
  487MOL0     H65688   5.496   0.783  10.871 -1.0323  0.4584 -1.3216
  487MOL0     H65689   5.601   0.642  10.846  0.0706 -0.8789 -1.5885
  487MOL0     H65690   5.668   0.732  10.614 -0.5641 -3.4252  2.6942
  487MOL0     H65691   5.561   0.872  10.644  0.1340  0.9108  2.5814
  487MOL0     H65692   5.806   0.798  10.818  0.5162  0.4549 -0.3741
  487MOL0     H65693   5.698   0.937  10.828 -1.0395  0.2270 -0.0092
  487MOL0     H65694   5.779   0.972  10.569 -0.3964  0.7603 -0.2480
  487MOL0     H65695   5.868   1.025  10.718  0.5765  1.7428 -2.8706
  487MOL0     H65696   6.085   0.869  10.805  1.1025  2.6287 -1.3017
  487MOL0     H65697   6.245   0.645  10.762  0.1670 -0.4714 -0.6048
  487MOL0     H65698   6.266   0.607  10.582 -0.0972 -3.3468  1.7327
  487MOL0     H65699   6.459   0.723  10.632  0.8947  2.4550 -0.9461
  487MOL0     H65700   6.367   0.859  10.574  3.4684 -0.1958 -1.7336
  487MOL0     H65701   6.409   0.788  10.867 -1.2163 -2.2707 -0.9095
  487MOL0     H65702   6.323   0.931  10.807 -1.6705 -1.0584 -1.2707
  487MOL0     H65703   6.532   0.974  10.878  0.8733 -0.8045  1.0397
  487MOL0     H65704   6.525   1.010  10.696 -2.9350 -0.3462 -0.6117
  487MOL0     H65705   6.762   0.735  10.545 -0.1017  0.8257 -0.9612
  487MOL0     H65706   6.983   0.812  10.475  0.1017  2.5309 -1.6386
  487MOL0     H65707   7.198   1.033  10.248 -0.1630 -1.7000  0.7832
  487MOL0     H65708   7.386   1.110  10.125 -0.3468  0.3125  0.0745
  487MOL0     H65709   7.572   1.255  10.129 -0.2262  1.7583  0.1554
  487MOL0     H65710   7.619   1.279  10.293 -2.2496 -0.0127 -0.6687
  487MOL0     H65711   7.803   1.386  10.169  1.2941 -0.4658  0.3761
  487MOL0     H65712   7.883   1.236  10.191  2.6564  2.2206 -3.5876
  487MOL0     H65713   7.811   1.165   9.968  2.0825 -0.1803 -2.2450
  487MOL0     H65714   7.714   1.302   9.946 -1.4794 -0.0826  1.2605
  487MOL0     H65715   8.023   1.325  10.002 -1.4878 -1.2314  2.7827
  487MOL0     H65716   7.900   1.451   9.943  1.0875  0.5591  3.9916
  487MOL0     H65717   7.893   1.288   9.718 -0.9325 -1.9345  0.9049
  487MOL0     H65718   7.968   1.178   9.809  1.0239 -0.7841  0.1145
  487MOL0     H65719   8.083   1.437   9.746  0.8554  0.2100  2.1278
  487MOL0     H65720   8.174   1.310   9.834  0.1945  1.6267  0.7736
  487MOL0     H65721   8.061   1.279   9.555  1.0167  0.6062 -1.1096
  487MOL0     H65722   8.152   1.155   9.643  2.6092  0.8868 -0.7676
  487MOL0     H65723   8.300   1.285   9.485  2.1903  1.7860  0.2088
  487MOL0     H65724   8.283   1.417   9.592 -1.5602  0.8099  1.8754
  487MOL0     H65725   7.639   0.984  10.458 -0.0968  2.0880  0.7953
  487MOL0     H65726   7.441   0.918  10.571  2.8821  0.3239  0.3054
  487MOL0     H65727   6.974   1.148  10.756  4.6809  0.2418 -2.3951
  487MOL0     H65728   6.778   1.022  10.872  0.1677  0.4788 -0.1389
  487MOL0     H65729   4.855   0.537  11.112  1.0321  1.0510  0.0372
  487MOL0     H65730   4.783   0.379  11.281  0.9260 -0.1338  1.6568
  487MOL0     H65731   4.448   0.111  11.427  3.8611  3.1804  2.9241
  487MOL0     H65732   4.361  -0.047  11.573 -0.7858 -0.7485 -1.4842
  487MOL0     H65733   4.559  -0.438  11.699 -1.5300 -0.3971  2.1000
  487MOL0     H65734   4.465  -0.418  11.542 -1.8112  2.3022 -0.9558
  487MOL0     H65735   4.361  -0.445  11.831  2.4953  0.8916  0.8815
  487MOL0     H65736   4.333  -0.559  11.699  0.3868 -0.3906 -1.7398
  487MOL0     H65737   4.186  -0.384  11.583 -0.3685 -1.1949  0.0290
  487MOL0     H65738   4.225  -0.265  11.708 -3.9782  0.2582  1.7400
  487MOL0     H65739   4.103  -0.534  11.769 -1.7058  0.8066 -1.9908
  487MOL0     H65740   4.133  -0.385  11.873  5.1984  1.0093 -1.6186
  487MOL0     H65741   3.754  -0.296  11.700 -0.0940 -2.5858 -0.6444
  487MOL0     H65742   4.697  -0.310  11.512  3.2344  1.0676 -0.0101
  487MOL0     H65743   4.910  -0.099  11.361 -0.4606  1.0714 -1.0947
  487MOL0     H65744   4.859  -0.268  11.372 -1.1135 -0.7693 -1.9547
  487MOL0     H65745   4.821  -0.191  11.227  3.3567 -1.1460  0.8383
  488MOL0     O65746   6.948   6.960  10.020  0.5404  0.5362 -0.3126
  488MOL0     C65747   6.933   6.988  10.140 -0.2741 -0.2951 -0.6234
  488MOL0     O65748   7.029   6.965  10.236 -0.1706  0.6631 -0.1539
  488MOL0     C65749   7.142   6.902  10.200  0.1918 -0.3661 -0.1287
  488MOL0     C65750   7.231   6.960  10.115  0.2026 -0.0831  0.3391
  488MOL0     C65751   7.358   6.908  10.091 -0.3802  0.4156 -0.3310
  488MOL0     C65752   7.390   6.792  10.163 -0.3294  0.0625  0.1386
  488MOL0     O65753   7.513   6.723  10.159  1.0679 -0.0264 -0.1834
  488MOL0     C65754   7.624   6.757  10.084 -0.2815  1.1534  0.0010
  488MOL0     C65755   7.731   6.635  10.095 -0.3382  0.5509 -0.0830
  488MOL0     C65756   7.863   6.670  10.014  0.0433 -0.3080  0.4007
  488MOL0     C65757   7.971   6.565  10.003  0.5575 -0.0974  0.3243
  488MOL0     C65758   8.108   6.624   9.966  0.4698  0.5626  0.3779
  488MOL0     C65759   8.212   6.510   9.919  1.0990 -1.0312 -0.1427
  488MOL0     C65760   8.358   6.558   9.903  0.0733  0.4314  0.9847
  488MOL0     C65761   8.387   6.618   9.765 -0.7188 -0.5706 -1.3042
  488MOL0     N65762   8.530   6.644   9.763  0.9062 -0.5156 -0.4182
  488MOL0     C65763   8.604   6.709   9.858  0.6897 -0.7335  0.2984
  488MOL0     C65764   8.725   6.682   9.823 -0.7435 -0.3056 -0.7261
  488MOL0     C65765   8.850   6.720   9.907 -0.1116 -0.0030  0.0169
  488MOL0     C65766   8.983   6.739   9.833 -0.0214 -0.1711 -0.0823
  488MOL0     C65767   9.080   6.784   9.935 -0.7478 -0.4858  0.1005
  488MOL0     C65768   9.214   6.825   9.873  0.0111  0.4865  0.3236
  488MOL0     O65769   9.292   6.886   9.978 -0.3821  0.6422  0.2466
  488MOL0     C65770   9.425   6.909   9.965 -0.5016  0.9766 -0.0570
  488MOL0     C65771   9.508   6.850   9.868  0.0172  0.1634 -0.6061
  488MOL0     C65772   9.638   6.897   9.836 -0.1591 -0.0987 -0.1628
  488MOL0     C65773   9.690   7.005   9.916  0.3486 -0.3059 -0.2525
  488MOL0     C65774   9.825   7.052   9.891  1.2739  0.4692 -1.5594
  488MOL0     O65775   9.904   6.954   9.848 -0.5534 -0.1783  0.3031
  488MOL0     C65776  10.034   6.978   9.810 -0.1036  0.0412 -0.3327
  488MOL0     C65777  10.121   7.080   9.849  0.6135  0.1873  0.1943
  488MOL0     C65778  10.250   7.080   9.810  0.0726 -0.3127  0.9094
  488MOL0     C65779  10.302   6.988   9.722 -0.3226  0.4940 -0.0991
  488MOL0     O65780  10.420   6.999   9.653 -0.2070 -0.6367 -0.4235
  488MOL0     C65781  10.509   7.113   9.676  0.3767 -0.6043  0.3868
  488MOL0     C65782  10.632   7.101   9.579  1.1447  0.4420 -0.2249
  488MOL0     C65783  10.679   7.241   9.555  0.2339 -0.0663  0.7468
  488MOL0     C65784  10.821   7.225   9.493 -0.4979  0.2947 -0.9742
  488MOL0     C65785  10.869   7.350   9.431  0.5990  0.5208 -0.2055
  488MOL0     C65786  10.999   7.328   9.357  0.2947  0.5906 -0.1803
  488MOL0     C65787  11.022   7.440   9.253  0.2217  0.1091  0.2439
  488MOL0     C65788  11.170   7.443   9.209  0.5062  0.1079 -0.2631
  488MOL0    Cl65789  11.209   7.596   9.121 -0.1601  0.3812  0.1128
  488MOL0     C65790  10.211   6.885   9.677  0.4641 -0.1948 -0.4495
  488MOL0     C65791  10.083   6.873   9.728  1.0272  0.0139 -0.2210
  488MOL0     O65792   9.850   7.168   9.901  0.5531 -0.3562 -0.1680
  488MOL0     C65793   9.609   7.070  10.008 -0.6720 -0.2178 -0.9474
  488MOL0     C65794   9.479   7.015  10.034 -0.3597  0.7514  0.5237
  488MOL0     N65795   8.732   6.620   9.698  0.3350  0.6516 -0.4043
  488MOL0     N65796   8.606   6.601   9.666 -0.3193  0.0250  0.4464
  488MOL0     C65797   7.296   6.725  10.243  0.1992  0.3526  0.3650
  488MOL0     C65798   7.170   6.779  10.260  0.7610 -0.5267  0.1823
  488MOL0     C65799   6.810   7.062  10.168  0.1590 -0.1626  0.1720
  488MOL0     C65800   6.696   7.049  10.086  0.1314  0.2187 -0.3173
  488MOL0     C65801   6.580   7.129  10.096 -0.0227 -0.2083 -0.4926
  488MOL0     C65802   6.581   7.222  10.194 -0.1752 -1.3059  0.9673
  488MOL0     O65803   6.485   7.317  10.213  0.4098  0.3866  0.6988
  488MOL0     C65804   6.453   7.405  10.107  0.2629 -1.4981 -0.7629
  488MOL0     C65805   6.302   7.395  10.068 -0.7262 -0.6473 -0.2170
  488MOL0     C65806   6.207   7.485  10.161 -0.3601 -0.2806 -0.0886
  488MOL0     C65807   6.152   7.390  10.270  0.6552 -0.1624 -0.1498
  488MOL0     C65808   6.091   7.469  10.376 -0.0030  0.0445  0.1618
  488MOL0     C65809   6.055   7.524  10.479  0.1527  1.1110  0.0373
  488MOL0     C65810   6.683   7.216  10.291 -0.2222 -0.2243 -0.7212
  488MOL0     C65811   6.795   7.145  10.276 -0.1140  0.1028 -1.3226
  488MOL0     C65812   6.904   7.156  10.380 -0.6370  0.0235 -0.8611
  488MOL0     H65813   7.207   7.061  10.083  1.6212  0.7383  1.7144
  488MOL0     H65814   7.431   6.957  10.028  0.2140  1.6909  1.2785
  488MOL0     H65815   7.593   6.771   9.980 -4.3638 -0.0924  0.8705
  488MOL0     H65816   7.668   6.848  10.123  0.4433  0.6909  0.2797
  488MOL0     H65817   7.687   6.553  10.037  3.3186  0.7168 -3.5712
  488MOL0     H65818   7.759   6.613  10.198 -0.5014 -1.3471 -0.4017
  488MOL0     H65819   7.904   6.755  10.069  0.4445 -2.2645  3.3887
  488MOL0     H65820   7.837   6.697   9.911 -0.1191 -3.8314 -0.5968
  488MOL0     H65821   7.981   6.513  10.098 -0.3218  2.5469  2.0037
  488MOL0     H65822   7.932   6.497   9.926 -2.1383  0.8288  0.7580
  488MOL0     H65823   8.093   6.702   9.890 -1.3636 -1.1367 -1.1263
  488MOL0     H65824   8.140   6.657  10.065  1.4884 -3.2844  1.5039
  488MOL0     H65825   8.212   6.435   9.998 -1.0708  1.6721  2.6452
  488MOL0     H65826   8.175   6.467   9.825 -0.0800 -0.8872  0.2388
  488MOL0     H65827   8.423   6.473   9.922 -1.3500 -0.9342  0.0007
  488MOL0     H65828   8.385   6.630   9.981  1.6557 -0.0082  0.8654
  488MOL0     H65829   8.371   6.538   9.692  0.4087 -1.5955 -0.4838
  488MOL0     H65830   8.327   6.706   9.741  1.6812  1.3628 -0.6085
  488MOL0     H65831   8.568   6.754   9.950 -1.0730 -1.1921 -0.1223
  488MOL0     H65832   8.844   6.818   9.955 -0.1851  0.6800 -1.3343
  488MOL0     H65833   8.861   6.639   9.980 -2.0056 -1.8226 -1.5785
  488MOL0     H65834   9.012   6.649   9.778  3.7255  1.3631 -0.8926
  488MOL0     H65835   8.980   6.824   9.764  1.2403  0.4736  0.6278
  488MOL0     H65836   9.103   6.705  10.007 -1.3602 -0.1910  0.6275
  488MOL0     H65837   9.050   6.867   9.999  1.4035  0.9486 -0.6403
  488MOL0     H65838   9.196   6.889   9.787  0.3720 -0.2139 -0.2888
  488MOL0     H65839   9.254   6.731   9.832 -2.0188  0.0713 -0.8345
  488MOL0     H65840   9.463   6.782   9.796 -0.6542 -0.0032 -0.0416
  488MOL0     H65841   9.705   6.867   9.756 -0.5745  0.4024 -0.7088
  488MOL0     H65842  10.085   7.157   9.917  0.0478 -0.6199  0.8228
  488MOL0     H65843  10.315   7.155   9.855  1.2572 -0.0374 -1.1547
  488MOL0     H65844  10.466   7.209   9.646  2.3564  0.5489  1.0661
  488MOL0     H65845  10.547   7.103   9.779  1.1991  0.8552  0.2473
  488MOL0     H65846  10.707   7.033   9.620 -0.6116 -1.0028  0.7435
  488MOL0     H65847  10.599   7.051   9.487  0.2404 -1.2962  0.9843
  488MOL0     H65848  10.616   7.312   9.501 -0.3396 -2.3478 -1.7924
  488MOL0     H65849  10.689   7.292   9.652 -3.8008  2.4635  0.0687
  488MOL0     H65850  10.804   7.145   9.421 -1.5777 -0.9912  0.6150
  488MOL0     H65851  10.893   7.182   9.563  0.1946  1.3660 -1.0201
  488MOL0     H65852  10.887   7.412   9.519 -1.0529 -1.4984  1.6751
  488MOL0     H65853  10.798   7.395   9.362 -2.6118 -1.8040  1.3430
  488MOL0     H65854  11.085   7.318   9.424 -0.2675 -0.5705  0.3906
  488MOL0     H65855  10.996   7.237   9.297  2.3309  1.2706 -1.4472
  488MOL0     H65856  10.987   7.537   9.291  1.7711  0.4386  0.9091
  488MOL0     H65857  10.957   7.436   9.166 -1.4420  1.7464  1.3313
  488MOL0     H65858  11.238   7.439   9.294 -0.1839  2.1089  0.4323
  488MOL0     H65859  11.188   7.351   9.152 -1.2047  0.3974 -1.3744
  488MOL0     H65860  10.242   6.816   9.600  1.5781 -1.5452  1.1487
  488MOL0     H65861  10.010   6.796   9.704  1.3611 -0.5578  0.5415
  488MOL0     H65862   9.644   7.162  10.054  0.5159 -1.6790  1.2294
  488MOL0     H65863   9.411   7.065  10.102  0.3629  0.0424  1.7984
  488MOL0     H65864   7.315   6.637  10.304 -2.0888 -0.7473 -0.3669
  488MOL0     H65865   7.097   6.728  10.322  2.0230 -0.9547  1.3641
  488MOL0     H65866   6.711   6.976  10.007  2.6313 -0.9847  1.1522
  488MOL0     H65867   6.498   7.116  10.025  0.8020  0.7344 -1.6432
  488MOL0     H65868   6.523   7.389  10.024  0.5397 -1.9781 -0.4390
  488MOL0     H65869   6.456   7.509  10.142 -2.1535 -1.3200 -0.9394
  488MOL0     H65870   6.274   7.290  10.055 -2.0194 -0.8842  3.3705
  488MOL0     H65871   6.296   7.434   9.966 -1.0419 -2.9691 -1.1403
  488MOL0     H65872   6.127   7.521  10.096  1.4578  0.7321 -1.8630
  488MOL0     H65873   6.254   7.573  10.207 -2.9987  0.5066  1.3673
  488MOL0     H65874   6.087   7.317  10.220  0.7367 -1.9952  2.2336
  488MOL0     H65875   6.234   7.327  10.305  0.2561 -0.5148  0.1633
  488MOL0     H65876   6.044   7.566  10.577  4.9474 -0.0036  1.3339
  488MOL0     H65877   6.668   7.274  10.382  0.8112 -0.4984 -0.3634
  488MOL0     H65878   7.006   7.167  10.342 -0.9847 -1.7175 -2.4139
  488MOL0     H65879   6.881   7.247  10.437  0.1661 -1.4270  1.9374
  488MOL0     H65880   6.895   7.068  10.445 -3.4941  0.8516  0.0428
  489MOL0     O65881   9.121   4.178   4.814 -0.2567 -0.3643  0.5308
  489MOL0     C65882   9.093   4.301   4.808  0.0905 -0.2507 -0.4215
  489MOL0     O65883   9.155   4.399   4.879 -0.0587 -0.4141  0.4216
  489MOL0     C65884   9.277   4.362   4.925 -0.9723  0.2101  1.2509
  489MOL0     C65885   9.382   4.422   4.857 -0.2531 -1.2330 -0.6470
  489MOL0     C65886   9.513   4.391   4.889  0.3709  0.3202 -0.9069
  489MOL0     C65887   9.534   4.309   5.002  0.1328 -0.5148 -0.4671
  489MOL0     O65888   9.668   4.265   5.030  0.5087  0.0505 -0.2230
  489MOL0     C65889   9.703   4.134   4.992 -0.3284  0.1020  0.0579
  489MOL0     C65890   9.799   4.082   5.102  0.5646 -0.4614  0.6514
  489MOL0     C65891   9.816   3.927   5.079 -0.8380  0.1895  0.4728
  489MOL0     C65892   9.940   3.889   5.154 -0.5704  0.0569 -1.2298
  489MOL0     C65893   9.999   3.749   5.126  0.5489 -0.7147  0.2415
  489MOL0     C65894  10.126   3.713   5.203 -0.3927 -0.6359 -0.2181
  489MOL0     C65895  10.246   3.754   5.127  0.5549 -0.5212  0.3958
  489MOL0     C65896  10.381   3.726   5.197  0.3378  0.3385 -0.6060
  489MOL0     N65897  10.487   3.731   5.099 -0.5922  0.5665  0.1942
  489MOL0     C65898  10.591   3.829   5.082  0.3268  0.3550 -0.8418
  489MOL0     C65899  10.642   3.810   4.960 -0.2072 -0.3837 -0.2089
  489MOL0     C65900  10.745   3.907   4.900 -0.8612  0.2973 -0.0224
  489MOL0     C65901  10.881   3.841   4.867 -0.5400 -0.0605  0.9992
  489MOL0     C65902  10.889   3.812   4.716  0.8525  0.4286 -0.4593
  489MOL0     C65903  11.029   3.776   4.665  0.7402  0.8067 -0.5502
  489MOL0     O65904  11.068   3.848   4.552  0.0090  0.2539 -0.0596
  489MOL0     C65905  11.204   3.849   4.506 -0.3368  0.7383 -0.6502
  489MOL0     C65906  11.227   3.936   4.401  0.1776  0.3675  0.6276
  489MOL0     C65907  11.360   3.956   4.350 -0.2709  0.3236 -1.2111
  489MOL0     C65908  11.466   3.896   4.414 -0.2921  0.2299  0.2919
  489MOL0     C65909  11.602   3.915   4.385  0.1093  0.3851  1.2421
  489MOL0     O65910  11.694   3.812   4.412  0.1471  0.8672  0.7107
  489MOL0     C65911  11.830   3.844   4.420 -0.1037 -0.6801 -0.4086
  489MOL0     C65912  11.889   3.816   4.547  0.3402 -0.5884 -0.0185
  489MOL0     C65913  12.033   3.849   4.563  0.1354  0.5834 -0.4016
  489MOL0     C65914  12.107   3.902   4.458  0.1896  0.2921  0.0245
  489MOL0     O65915  12.241   3.915   4.484  0.6368  0.3196  0.3198
  489MOL0     C65916  12.321   3.994   4.404 -0.5883 -0.1289 -0.0397
  489MOL0     C65917  12.458   4.036   4.463  0.7748 -1.4875 -0.1045
  489MOL0     C65918  12.562   3.928   4.507 -0.0156 -1.8275 -0.1444
  489MOL0     C65919  12.678   4.005   4.573  0.6522 -0.1302  0.1805
  489MOL0     C65920  12.776   3.910   4.649  0.7369  0.8573 -0.1663
  489MOL0     C65921  12.843   3.809   4.553 -0.3463  0.3294 -0.3832
  489MOL0     C65922  12.948   3.728   4.626 -0.8907 -0.8426 -0.1283
  489MOL0     C65923  13.027   3.632   4.534  0.1831  0.0120  0.3135
  489MOL0    Cl65924  13.137   3.528   4.625  0.4192  0.4167 -0.1646
  489MOL0     C65925  12.041   3.935   4.337  0.3315 -0.8172  0.1278
  489MOL0     C65926  11.910   3.906   4.325 -1.1470  0.1445 -0.1815
  489MOL0     O65927  11.636   4.019   4.329  0.8508 -0.9081  0.1869
  489MOL0     C65928  11.443   3.812   4.531 -0.0978  0.6087 -0.7366
  489MOL0     C65929  11.311   3.784   4.571  0.7473 -0.0573  0.2575
  489MOL0     N65930  10.587   3.698   4.903 -0.0293  0.6222  0.6323
  489MOL0     N65931  10.491   3.658   4.980  0.7718  0.0742 -0.2249
  489MOL0     C65932   9.429   4.264   5.083 -0.8267 -0.9556  1.4485
  489MOL0     C65933   9.304   4.289   5.043  0.1672  0.3209 -0.2666
  489MOL0     C65934   9.007   4.343   4.698 -0.0004 -0.7525  0.6530
  489MOL0     C65935   9.043   4.451   4.612 -0.6044 -1.0018  0.9211
  489MOL0     C65936   8.968   4.494   4.506 -1.2755  0.3988  0.1231
  489MOL0     C65937   8.851   4.424   4.475 -0.1769 -0.6802 -0.5219
  489MOL0     O65938   8.770   4.452   4.368  0.0215 -0.0204  1.0446
  489MOL0     C65939   8.753   4.595   4.328 -0.7981  0.1392  0.4829
  489MOL0     C65940   8.826   4.615   4.195 -0.3359  0.1883 -0.1005
  489MOL0     C65941   8.792   4.515   4.083 -0.3842  0.8526  0.6140
  489MOL0     C65942   8.860   4.547   3.943  0.2017 -0.0814  0.6619
  489MOL0     C65943   8.802   4.663   3.876  0.0986 -0.0413 -0.5418
  489MOL0     C65944   8.771   4.771   3.830 -0.0582  0.2021  0.7548
  489MOL0     C65945   8.807   4.323   4.559 -0.2436 -0.0374  0.6088
  489MOL0     C65946   8.890   4.271   4.663 -0.5616 -1.2879 -0.9587
  489MOL0     C65947   8.837   4.152   4.747  0.0360 -0.8796 -0.7079
  489MOL0     H65948   9.366   4.494   4.777 -1.0501  2.1883  2.3416
  489MOL0     H65949   9.605   4.416   4.837  2.1979  0.3736  2.0959
  489MOL0     H65950   9.618   4.066   4.979  1.0453 -1.1272 -4.0511
  489MOL0     H65951   9.771   4.124   4.907  3.4939 -2.2982  3.0892
  489MOL0     H65952   9.754   4.117   5.195  1.4643  0.4990  0.7477
  489MOL0     H65953   9.894   4.134   5.092 -0.0818  0.7033  0.4959
  489MOL0     H65954   9.829   3.905   4.973  4.6749  0.8352  0.7227
  489MOL0     H65955   9.729   3.870   5.113 -0.5489 -1.4722 -1.4350
  489MOL0     H65956  10.024   3.956   5.133  0.7440 -0.7528  1.0416
  489MOL0     H65957   9.925   3.904   5.262  1.2183  0.4605 -1.0027
  489MOL0     H65958   9.918   3.682   5.156 -0.1341 -0.3400 -0.7184
  489MOL0     H65959  10.012   3.736   5.018 -2.7161  1.7506 -0.6288
  489MOL0     H65960  10.129   3.766   5.299 -0.1212  1.5150 -1.3562
  489MOL0     H65961  10.126   3.604   5.211 -0.0120 -0.6817 -0.7568
  489MOL0     H65962  10.240   3.863   5.113  0.6675 -0.3644  1.5313
  489MOL0     H65963  10.242   3.700   5.031 -0.4561  0.1287  0.0542
  489MOL0     H65964  10.401   3.807   5.268  1.0699 -0.5861  0.2640
  489MOL0     H65965  10.379   3.630   5.250 -0.3165  0.6194 -0.1059
  489MOL0     H65966  10.628   3.897   5.158  0.2086  1.1567 -1.5002
  489MOL0     H65967  10.700   3.952   4.810  0.3083  0.8063 -0.3811
  489MOL0     H65968  10.769   3.988   4.969  1.2446  0.1868 -0.5562
  489MOL0     H65969  10.953   3.917   4.899 -0.8135  0.8002 -0.3365
  489MOL0     H65970  10.911   3.751   4.921  1.5884 -1.3359 -2.0163
  489MOL0     H65971  10.854   3.903   4.665  2.4281  0.1856 -2.0822
  489MOL0     H65972  10.817   3.732   4.701  1.1544 -0.0193  0.4555
  489MOL0     H65973  11.032   3.669   4.645 -1.5404  0.4538  0.6364
  489MOL0     H65974  11.102   3.800   4.743  3.1679 -1.3836 -2.0057
  489MOL0     H65975  11.147   3.971   4.337  1.1101 -1.2141 -1.5484
  489MOL0     H65976  11.374   4.030   4.272 -0.3235 -0.7337 -2.2390
  489MOL0     H65977  11.832   3.772   4.627  0.4594 -0.1732  0.2993
  489MOL0     H65978  12.084   3.822   4.655  0.4819  1.3131 -0.3701
  489MOL0     H65979  12.354   3.952   4.308  2.0343 -1.2777  1.2849
  489MOL0     H65980  12.264   4.084   4.379  1.4566  0.9785 -0.8809
  489MOL0     H65981  12.513   4.096   4.390 -0.2941 -1.2313 -0.7126
  489MOL0     H65982  12.429   4.094   4.552  3.3063  0.6632 -0.5652
  489MOL0     H65983  12.521   3.858   4.582 -0.8621 -0.9245  0.2614
  489MOL0     H65984  12.599   3.872   4.421 -0.6271 -2.8521  0.2254
  489MOL0     H65985  12.644   4.078   4.647  0.0267 -0.2632  0.0322
  489MOL0     H65986  12.729   4.074   4.505  2.3103  0.2654  1.7398
  489MOL0     H65987  12.732   3.855   4.732 -1.0819  3.5245  0.7186
  489MOL0     H65988  12.860   3.963   4.696  2.2918 -2.2660  0.8901
  489MOL0     H65989  12.774   3.741   4.503  0.7926 -0.4555 -0.9294
  489MOL0     H65990  12.890   3.872   4.476 -1.9678  0.5695 -1.2127
  489MOL0     H65991  12.895   3.665   4.698  0.1591 -0.5584  0.9261
  489MOL0     H65992  13.023   3.793   4.671 -0.0483  0.4883 -3.2197
  489MOL0     H65993  12.965   3.565   4.474  1.6842 -1.6835  0.5547
  489MOL0     H65994  13.076   3.693   4.458 -2.7202  2.6877  0.3727
  489MOL0     H65995  12.092   3.990   4.258 -2.2346  1.3065 -0.2033
  489MOL0     H65996  11.855   3.929   4.234 -0.1080  0.3846 -0.7640
  489MOL0     H65997  11.523   3.777   4.595 -2.2888 -1.4219  1.0477
  489MOL0     H65998  11.292   3.723   4.659 -1.1554 -0.2476 -0.2403
  489MOL0     H65999   9.454   4.199   5.166 -0.2990 -1.8253  0.6369
  489MOL0     H66000   9.219   4.276   5.110 -0.1201  0.9286 -0.5075
  489MOL0     H66001   9.133   4.508   4.632 -2.3992  2.0200  0.9952
  489MOL0     H66002   8.991   4.581   4.446 -1.7042 -0.5291 -1.4375
  489MOL0     H66003   8.789   4.671   4.398  0.3184  2.1661 -2.0716
  489MOL0     H66004   8.648   4.625   4.325 -0.3065  1.9598 -1.5620
  489MOL0     H66005   8.933   4.625   4.219  0.1294  0.8043 -2.2070
  489MOL0     H66006   8.797   4.713   4.156 -0.7969 -0.0863 -0.4508
  489MOL0     H66007   8.686   4.525   4.056 -0.0059 -1.1279 -2.0343
  489MOL0     H66008   8.808   4.410   4.108 -2.7613  0.2980  0.0606
  489MOL0     H66009   8.969   4.556   3.956  0.5176  0.2260 -1.7406
  489MOL0     H66010   8.832   4.468   3.873 -5.3491  1.9886  0.0937
  489MOL0     H66011   8.746   4.874   3.810  1.3893  0.0499 -2.4572
  489MOL0     H66012   8.715   4.272   4.531  2.1623 -3.1710 -2.4747
  489MOL0     H66013   8.890   4.058   4.727 -3.9904 -3.3461 -0.8524
  489MOL0     H66014   8.846   4.185   4.851 -0.1556 -2.4383 -0.1776
  489MOL0     H66015   8.730   4.133   4.733 -0.5821  1.0782  0.8818
  490MOL0     O66016   8.332   1.430   1.214 -0.2957 -0.1796 -0.8518
  490MOL0     C66017   8.363   1.408   1.335 -0.6391  0.2517  0.7978
  490MOL0     O66018   8.487   1.386   1.394  0.0548 -0.1989 -0.1478
  490MOL0     C66019   8.590   1.435   1.331 -0.2533 -0.2055 -0.5900
  490MOL0     C66020   8.681   1.353   1.265 -0.1632 -0.4539  0.1503
  490MOL0     C66021   8.803   1.403   1.218 -0.2652  0.4502  0.6041
  490MOL0     C66022   8.830   1.544   1.211  0.8462 -0.0445  1.0039
  490MOL0     O66023   8.942   1.609   1.157  0.3482 -0.3574 -0.7918
  490MOL0     C66024   9.069   1.548   1.143 -0.1613 -0.3827  0.1154
  490MOL0     C66025   9.144   1.593   1.012  0.4249  0.5151 -0.6076
  490MOL0     C66026   9.247   1.488   0.984 -0.4831 -0.3752  0.9027
  490MOL0     C66027   9.384   1.530   1.039 -0.0465 -0.0150 -0.4286
  490MOL0     C66028   9.433   1.431   1.155  0.6625  0.6905 -0.5161
  490MOL0     C66029   9.586   1.437   1.178 -0.7555  0.2139  0.3240
  490MOL0     C66030   9.622   1.328   1.284  0.7762 -0.3920  0.2504
  490MOL0     C66031   9.599   1.365   1.424  0.5781  0.1573  0.3417
  490MOL0     N66032   9.695   1.455   1.488  0.4403 -0.6414  1.3733
  490MOL0     C66033   9.671   1.566   1.564  0.0132 -0.3670 -1.0455
  490MOL0     C66034   9.790   1.602   1.622 -0.1213 -0.0491 -0.0820
  490MOL0     C66035   9.816   1.710   1.728 -0.3380 -0.7914 -0.5076
  490MOL0     C66036   9.816   1.646   1.873 -0.5318 -0.4909 -0.0242
  490MOL0     C66037   9.904   1.719   1.978  0.3472  0.3613  0.7508
  490MOL0     C66038  10.058   1.695   1.955 -0.0447  0.1822 -0.4495
  490MOL0     O66039  10.129   1.682   2.080  0.0264  0.8605 -0.0993
  490MOL0     C66040  10.188   1.790   2.129 -0.1739 -0.6734 -0.0301
  490MOL0     C66041  10.291   1.767   2.217 -0.0695 -0.5485 -0.7799
  490MOL0     C66042  10.354   1.881   2.273  0.0526  0.5448 -0.0690
  490MOL0     C66043  10.325   2.019   2.243 -0.1211 -0.4930  0.1343
  490MOL0     C66044  10.394   2.129   2.305 -0.5952 -0.1294  1.0958
  490MOL0     O66045  10.502   2.107   2.380  0.3147  0.1449  0.2504
  490MOL0     C66046  10.603   2.205   2.389  1.8669  0.5122  0.4097
  490MOL0     C66047  10.691   2.189   2.495 -0.0474  0.9464  0.7568
  490MOL0     C66048  10.800   2.264   2.493 -0.9437 -0.0840  0.0528
  490MOL0     C66049  10.829   2.358   2.392 -0.1210 -0.3499 -0.1959
  490MOL0     O66050  10.955   2.410   2.410 -0.3997 -0.2734  0.2921
  490MOL0     C66051  11.041   2.387   2.291 -0.5582  0.2320  0.0781
  490MOL0     C66052  11.189   2.386   2.342  0.3399 -0.7840 -0.5878
  490MOL0     C66053  11.288   2.373   2.226 -0.4391 -0.3102 -0.7720
  490MOL0     C66054  11.361   2.502   2.198 -0.7391 -0.1417 -0.1866
  490MOL0     C66055  11.398   2.529   2.056  0.3301  1.0677  0.4402
  490MOL0     C66056  11.504   2.430   2.000 -0.0122 -0.2320 -0.8365
  490MOL0     C66057  11.639   2.453   2.065 -0.5798  0.5443  1.0119
  490MOL0     C66058  11.742   2.348   2.007 -0.3452  0.2224  1.4255
  490MOL0    Cl66059  11.921   2.356   2.057  0.2195 -0.3219 -0.5235
  490MOL0     C66060  10.742   2.384   2.291  0.4061 -0.0604 -0.0799
  490MOL0     C66061  10.619   2.305   2.294 -0.5846  0.6286 -0.1952
  490MOL0     O66062  10.336   2.241   2.289  0.6685  0.4198 -0.1140
  490MOL0     C66063  10.217   2.031   2.161 -0.4739  0.4653  0.0440
  490MOL0     C66064  10.157   1.924   2.097  0.0737 -0.5240 -0.2896
  490MOL0     N66065   9.889   1.513   1.570  0.0318 -0.4727 -0.7418
  490MOL0     N66066   9.831   1.441   1.481  0.0283 -0.4257  0.7601
  490MOL0     C66067   8.737   1.628   1.277  0.5700  0.9883  0.3195
  490MOL0     C66068   8.623   1.578   1.330  0.0352 -0.1047  0.1573
  490MOL0     C66069   8.246   1.387   1.414 -0.8815 -0.0647 -0.2758
  490MOL0     C66070   8.213   1.258   1.472  0.2732  0.3720  0.0588
  490MOL0     C66071   8.092   1.245   1.531 -0.0722  0.0544  0.0860
  490MOL0     C66072   8.004   1.355   1.560 -1.1568 -0.1509  0.1059
  490MOL0     O66073   7.887   1.339   1.632 -1.0888 -0.4507  0.6059
  490MOL0     C66074   7.785   1.430   1.636 -0.1527  0.0252 -0.2028
  490MOL0     C66075   7.666   1.387   1.727 -0.3366  0.6707  0.6686
  490MOL0     C66076   7.537   1.455   1.702 -0.8143 -0.6220 -0.2796
  490MOL0     C66077   7.431   1.410   1.793  0.4235  0.1488  0.1508
  490MOL0     C66078   7.320   1.512   1.798 -0.1845 -0.0431  0.1739
  490MOL0     C66079   7.225   1.590   1.788 -0.0298  0.2834 -0.4857
  490MOL0     C66080   8.046   1.479   1.521  0.3645 -0.0400 -0.9148
  490MOL0     C66081   8.164   1.497   1.442  0.6263  0.3318 -0.1614
  490MOL0     C66082   8.177   1.630   1.390  0.4088  0.3289 -0.6820
  490MOL0     H66083   8.653   1.250   1.283 -6.0910  1.0504  1.6304
  490MOL0     H66084   8.871   1.328   1.180 -0.7893  1.7111 -3.3481
  490MOL0     H66085   9.123   1.572   1.235  0.6557 -0.0519 -0.4413
  490MOL0     H66086   9.056   1.440   1.136 -1.2675 -0.2627  0.1885
  490MOL0     H66087   9.186   1.693   1.027  1.3167  0.1031 -0.3394
  490MOL0     H66088   9.076   1.600   0.926 -0.0772 -0.3380 -0.2832
  490MOL0     H66089   9.264   1.491   0.876  3.8733 -1.2987  1.3926
  490MOL0     H66090   9.221   1.385   1.014  0.6244  0.2945  4.6232
  490MOL0     H66091   9.460   1.525   0.961 -0.1733  0.8501 -0.6245
  490MOL0     H66092   9.375   1.635   1.069 -3.6380 -0.0117 -1.0180
  490MOL0     H66093   9.377   1.451   1.247 -1.9260 -2.3265 -1.2801
  490MOL0     H66094   9.402   1.327   1.141  1.1192 -0.0336  2.8854
  490MOL0     H66095   9.644   1.423   1.086 -0.8877  1.0968  0.1002
  490MOL0     H66096   9.611   1.538   1.211  0.0564  0.6594 -1.5071
  490MOL0     H66097   9.729   1.310   1.274  1.8182  3.0951  3.1446
  490MOL0     H66098   9.570   1.235   1.259 -1.1592  0.5221  0.6320
  490MOL0     H66099   9.499   1.407   1.437  0.5828  0.2283  0.1389
  490MOL0     H66100   9.604   1.275   1.485 -0.9011  0.9733  1.7469
  490MOL0     H66101   9.579   1.623   1.571  1.0968  1.2398  1.4619
  490MOL0     H66102   9.915   1.753   1.714 -1.0537  1.7926  1.6281
  490MOL0     H66103   9.751   1.798   1.725 -0.2684 -0.7462 -0.7134
  490MOL0     H66104   9.712   1.655   1.905 -1.2150 -0.8275 -2.0068
  490MOL0     H66105   9.851   1.543   1.865 -0.3295 -0.4186 -0.0725
  490MOL0     H66106   9.881   1.658   2.066  4.5473 -2.8061 -0.0643
  490MOL0     H66107   9.876   1.825   1.986 -2.6705 -0.0595 -2.1309
  490MOL0     H66108  10.095   1.772   1.887  2.6221  1.1872  1.9593
  490MOL0     H66109  10.068   1.598   1.905 -0.3293  0.2030 -0.5524
  490MOL0     H66110  10.320   1.668   2.250 -0.4224 -0.6226 -0.6917
  490MOL0     H66111  10.434   1.855   2.342 -0.0726 -0.4563 -0.2802
  490MOL0     H66112  10.678   2.110   2.568 -1.5717  0.7852  0.3441
  490MOL0     H66113  10.866   2.242   2.576 -2.6474 -1.2676  1.1370
  490MOL0     H66114  11.015   2.301   2.228  0.1233  0.4178 -0.4674
  490MOL0     H66115  11.053   2.475   2.227  1.6702 -0.3687 -0.4199
  490MOL0     H66116  11.197   2.487   2.381  1.3923 -0.7106 -0.9407
  490MOL0     H66117  11.196   2.308   2.419 -1.6776 -2.4510 -1.9842
  490MOL0     H66118  11.361   2.299   2.259  0.2519  0.8010  0.2712
  490MOL0     H66119  11.235   2.338   2.136 -1.7224  0.7238 -0.4444
  490MOL0     H66120  11.445   2.514   2.268 -0.8340 -4.7269  1.0534
  490MOL0     H66121  11.283   2.579   2.206  0.2294  0.7930  0.5042
  490MOL0     H66122  11.428   2.634   2.049  1.4509  0.8439  1.5049
  490MOL0     H66123  11.302   2.508   2.008  0.6226  0.6455  0.0319
  490MOL0     H66124  11.466   2.329   2.019  2.3395 -0.7498  1.8639
  490MOL0     H66125  11.505   2.439   1.891  2.4517 -1.2407 -0.9690
  490MOL0     H66126  11.629   2.444   2.173 -1.1996  0.1447  0.9287
  490MOL0     H66127  11.683   2.551   2.047  0.5731  0.3995  2.8208
  490MOL0     H66128  11.719   2.243   2.023  3.4662 -0.5108  3.3900
  490MOL0     H66129  11.744   2.362   1.898  0.6937 -3.8841  0.7519
  490MOL0     H66130  10.758   2.464   2.219 -0.7373 -0.2168 -0.5283
  490MOL0     H66131  10.554   2.305   2.207  0.4548  0.3939 -0.9896
  490MOL0     H66132  10.175   2.127   2.133  3.3525  1.8608 -1.4868
  490MOL0     H66133  10.059   1.946   2.054  0.3576 -1.3198 -1.3852
  490MOL0     H66134   8.758   1.734   1.281  1.1810  0.8412  1.2923
  490MOL0     H66135   8.555   1.645   1.382  0.7811  0.7287  0.0630
  490MOL0     H66136   8.273   1.170   1.454  0.8097  0.5466  0.9134
  490MOL0     H66137   8.060   1.148   1.566  2.5388 -0.9080  0.0223
  490MOL0     H66138   7.740   1.443   1.537 -1.7151 -0.2153  0.4604
  490MOL0     H66139   7.829   1.525   1.669  0.8903 -0.7516  0.7023
  490MOL0     H66140   7.699   1.413   1.827  1.1410 -1.5557  0.8346
  490MOL0     H66141   7.650   1.279   1.719 -1.7428  0.7758  1.6526
  490MOL0     H66142   7.504   1.433   1.600 -1.1564  0.1150 -0.3348
  490MOL0     H66143   7.553   1.563   1.706  0.6458 -0.8220 -0.0697
  490MOL0     H66144   7.397   1.309   1.766 -1.0316  0.9870 -1.3797
  490MOL0     H66145   7.473   1.401   1.894  3.8753 -0.7393 -1.2367
  490MOL0     H66146   7.157   1.671   1.769  2.2097  2.5566  0.5794
  490MOL0     H66147   7.976   1.561   1.532  0.4567  0.2020 -2.0115
  490MOL0     H66148   8.181   1.618   1.281 -1.4705  2.8056 -1.1046
  490MOL0     H66149   8.105   1.702   1.431  0.5333 -0.4735  1.0256
  490MOL0     H66150   8.273   1.672   1.423  0.2438  1.0497 -1.0861
  491MOL0     O66151   3.433   8.528   4.088  0.6290 -0.4409 -0.1972
  491MOL0     C66152   3.440   8.583   4.202  0.2473  0.0795  0.6994
  491MOL0     O66153   3.538   8.677   4.240 -0.2506  0.2729  0.2954
  491MOL0     C66154   3.656   8.683   4.166  0.3942  0.0220  0.2068
  491MOL0     C66155   3.696   8.799   4.094  0.3023  0.4389 -1.2724
  491MOL0     C66156   3.817   8.806   4.027 -0.3753 -0.2914 -0.6082
  491MOL0     C66157   3.898   8.690   4.033  0.0553  0.1478 -0.1507
  491MOL0     O66158   4.017   8.696   3.976 -0.0496  0.4501  0.5843
  491MOL0     C66159   4.051   8.597   3.873  1.7000 -0.2186  0.6126
  491MOL0     C66160   4.197   8.622   3.831 -0.1727  0.0879  0.3673
  491MOL0     C66161   4.221   8.532   3.710 -0.5417 -0.6011 -0.6782
  491MOL0     C66162   4.364   8.537   3.659 -1.4038 -0.9460 -0.0250
  491MOL0     C66163   4.410   8.675   3.613  0.0887 -0.2771 -0.4032
  491MOL0     C66164   4.362   8.690   3.460  0.2820 -0.9669  0.3622
  491MOL0     C66165   4.438   8.812   3.395 -0.2689 -0.0012  0.2361
  491MOL0     C66166   4.347   8.929   3.393  0.5789  0.7644  0.7868
  491MOL0     N66167   4.434   9.038   3.352  0.1081 -0.7668  0.1189
  491MOL0     C66168   4.487   9.139   3.431  0.4857  0.0915 -0.5204
  491MOL0     C66169   4.570   9.204   3.348 -0.0936 -0.6280 -0.1194
  491MOL0     C66170   4.650   9.330   3.386  0.0348  0.5700  0.2824
  491MOL0     C66171   4.763   9.370   3.286 -0.7928  0.4116 -0.5284
  491MOL0     C66172   4.712   9.419   3.156 -0.1064  0.8663  0.4106
  491MOL0     C66173   4.809   9.519   3.083  0.0568 -0.5717  0.0700
  491MOL0     O66174   4.934   9.449   3.082  0.3573  0.1652 -0.4632
  491MOL0     C66175   5.038   9.511   3.022 -0.5142 -1.4040 -0.0299
  491MOL0     C66176   5.046   9.641   2.964 -0.7598  0.4300 -0.6378
  491MOL0     C66177   5.172   9.694   2.930  0.1580  0.3009 -0.6221
  491MOL0     C66178   5.295   9.627   2.951  0.3558 -0.7418  0.4186
  491MOL0     C66179   5.428   9.692   2.929  0.6540  0.4978 -0.1551
  491MOL0     O66180   5.541   9.612   2.955 -0.1492 -0.3805  0.4497
  491MOL0     C66181   5.664   9.640   2.915 -0.7627  0.7793 -0.4893
  491MOL0     C66182   5.751   9.532   2.882  0.4213  0.1639 -1.1061
  491MOL0     C66183   5.897   9.539   2.876  1.1629 -0.7825 -0.7266
  491MOL0     C66184   5.955   9.662   2.902  0.3990 -0.0785  0.3833
  491MOL0     O66185   6.094   9.659   2.887 -0.1620 -0.2999 -0.1350
  491MOL0     C66186   6.165   9.780   2.921 -0.3210 -0.1820  0.6540
  491MOL0     C66187   6.310   9.744   2.912  0.2252  0.5168 -0.1175
  491MOL0     C66188   6.388   9.875   2.920 -0.2666 -0.4650 -0.3991
  491MOL0     C66189   6.529   9.865   2.868 -0.2916 -0.3747  0.3213
  491MOL0     C66190   6.620   9.962   2.931  0.9226 -0.4056 -0.0946
  491MOL0     C66191   6.753   9.965   2.864  1.1682 -0.1120 -0.0164
  491MOL0     C66192   6.854  10.026   2.962 -0.0369 -0.2661  0.1268
  491MOL0     C66193   6.991  10.020   2.921  0.2836  0.3664  0.6955
  491MOL0    Cl66194   7.096  10.075   3.063 -0.2372  0.2155  0.4701
  491MOL0     C66195   5.870   9.775   2.915 -0.0203 -0.8708 -0.4723
  491MOL0     C66196   5.727   9.768   2.928  0.3550  0.6831 -0.0519
  491MOL0     O66197   5.438   9.808   2.885  0.8471 -0.1178  0.1951
  491MOL0     C66198   5.280   9.503   3.001 -0.6114  0.3944 -0.5605
  491MOL0     C66199   5.157   9.449   3.038 -0.5341  0.3410  0.3624
  491MOL0     N66200   4.563   9.158   3.226 -0.2787 -0.2886  0.1347
  491MOL0     N66201   4.481   9.056   3.225  0.3073 -1.2026 -0.1282
  491MOL0     C66202   3.845   8.566   4.088  0.2764 -0.5453  0.1942
  491MOL0     C66203   3.728   8.564   4.159  0.2464 -0.7844 -0.6395
  491MOL0     C66204   3.326   8.555   4.294  0.4089 -0.9967  0.1764
  491MOL0     C66205   3.233   8.448   4.259 -0.0258 -0.6750 -0.1505
  491MOL0     C66206   3.144   8.405   4.348  0.4247  0.1814  0.0847
  491MOL0     C66207   3.130   8.456   4.481 -0.0834  0.1993  0.1158
  491MOL0     O66208   3.040   8.398   4.566  0.1081 -1.1939 -0.0125
  491MOL0     C66209   2.968   8.485   4.658 -0.7282 -0.7147 -0.1811
  491MOL0     C66210   2.819   8.504   4.613  0.3953  0.4320 -0.5422
  491MOL0     C66211   2.760   8.368   4.556 -0.2727 -1.3661  0.1845
  491MOL0     C66212   2.616   8.401   4.500  1.1917  0.4875 -1.1214
  491MOL0     C66213   2.550   8.293   4.420  0.5790  0.3117 -0.0221
  491MOL0     C66214   2.515   8.204   4.345 -0.2206 -0.5140 -0.4195
  491MOL0     C66215   3.224   8.556   4.526  0.1188 -0.1241  0.3232
  491MOL0     C66216   3.315   8.612   4.426  0.6117  0.4168 -0.0186
  491MOL0     C66217   3.407   8.726   4.462  0.5745  0.1377  0.1594
  491MOL0     H66218   3.632   8.886   4.095  1.7634  1.5929  1.4368
  491MOL0     H66219   3.843   8.897   3.974  1.4214 -0.6248 -0.3457
  491MOL0     H66220   4.041   8.496   3.914 -0.2067 -1.4089 -2.4570
  491MOL0     H66221   3.987   8.607   3.785  0.8332 -2.8363  0.8742
  491MOL0     H66222   4.264   8.592   3.912  0.7705 -0.1749 -0.4889
  491MOL0     H66223   4.203   8.728   3.805 -0.8736  0.1742  0.5689
  491MOL0     H66224   4.154   8.552   3.625 -3.0533 -1.7279  0.9156
  491MOL0     H66225   4.202   8.430   3.744  3.4900 -1.2449  0.0783
  491MOL0     H66226   4.427   8.506   3.743 -0.6038  1.3914  0.2958
  491MOL0     H66227   4.390   8.460   3.584  2.8321 -0.3269  0.5400
  491MOL0     H66228   4.352   8.754   3.662 -0.4182  1.5136 -3.6078
  491MOL0     H66229   4.514   8.694   3.639 -0.5311  1.4992  0.9649
  491MOL0     H66230   4.395   8.603   3.402  1.9663  1.0739 -1.9852
  491MOL0     H66231   4.253   8.692   3.451 -0.0271 -0.6941  3.2901
  491MOL0     H66232   4.472   8.783   3.295  0.4963  1.2931  0.0982
  491MOL0     H66233   4.527   8.839   3.453 -1.0367  0.6586  1.1359
  491MOL0     H66234   4.257   8.913   3.334  1.6805 -1.3842 -0.4284
  491MOL0     H66235   4.321   8.928   3.500 -2.1619 -1.1599  0.2037
  491MOL0     H66236   4.469   9.155   3.537  0.6825 -3.7227  0.2404
  491MOL0     H66237   4.590   9.420   3.405  1.5381  1.8105 -0.6024
  491MOL0     H66238   4.711   9.308   3.474  1.1329  2.5797  0.0872
  491MOL0     H66239   4.822   9.447   3.336  1.8101 -3.0184  2.1599
  491MOL0     H66240   4.833   9.287   3.272  0.1970  0.8416  1.4426
  491MOL0     H66241   4.618   9.474   3.164 -1.9852 -2.0916  0.1405
  491MOL0     H66242   4.688   9.339   3.086 -1.2433  0.8943  0.7462
  491MOL0     H66243   4.819   9.616   3.133  1.4830  0.2206 -1.6123
  491MOL0     H66244   4.778   9.530   2.978  0.4592 -1.0554 -0.1060
  491MOL0     H66245   4.959   9.706   2.963 -0.4318  0.8721 -0.6063
  491MOL0     H66246   5.175   9.797   2.897 -3.6435  2.4317  4.3776
  491MOL0     H66247   5.701   9.437   2.864 -3.3789  1.3609  1.8035
  491MOL0     H66248   5.965   9.456   2.862 -1.3340 -2.7224 -2.1960
  491MOL0     H66249   6.130   9.858   2.852 -0.6526 -1.0434 -0.1765
  491MOL0     H66250   6.153   9.802   3.028 -0.6257 -2.8944  1.2520
  491MOL0     H66251   6.333   9.675   2.994 -1.3875 -0.0483 -0.0887
  491MOL0     H66252   6.323   9.696   2.815  0.3026 -0.0082  0.1503
  491MOL0     H66253   6.343   9.946   2.850 -0.1786  0.4861  0.4934
  491MOL0     H66254   6.395   9.909   3.024  1.7189 -0.9774 -0.3198
  491MOL0     H66255   6.516   9.871   2.760 -0.3327 -0.0129  0.3445
  491MOL0     H66256   6.565   9.763   2.883  0.9054 -0.3884 -2.1696
  491MOL0     H66257   6.632   9.934   3.036  2.0200  1.1402  0.2406
  491MOL0     H66258   6.581  10.064   2.936 -1.5913 -1.2407 -1.1128
  491MOL0     H66259   6.777   9.862   2.837 -0.2969 -1.0981  2.1370
  491MOL0     H66260   6.763  10.025   2.773  0.8526 -1.5481 -1.0423
  491MOL0     H66261   6.844   9.984   3.062  0.7018  0.6509  0.5949
  491MOL0     H66262   6.822  10.131   2.964 -1.1808 -0.3201 -4.4367
  491MOL0     H66263   7.029   9.922   2.891  0.9147  0.3002  1.6672
  491MOL0     H66264   7.001  10.079   2.829  1.8705 -2.3446 -1.0195
  491MOL0     H66265   5.912   9.873   2.938  0.3694 -1.7153  3.0198
  491MOL0     H66266   5.654   9.846   2.943 -1.2355 -1.1285  2.5153
  491MOL0     H66267   5.368   9.444   3.026 -1.9041 -1.2524  0.2939
  491MOL0     H66268   5.164   9.350   3.082 -0.8590 -0.5429 -1.4938
  491MOL0     H66269   3.892   8.468   4.081 -0.6828 -0.8733 -3.5932
  491MOL0     H66270   3.695   8.474   4.209  0.3543  1.3990  3.9162
  491MOL0     H66271   3.227   8.414   4.156  0.7260 -1.6064  0.0984
  491MOL0     H66272   3.064   8.337   4.320  1.3062 -1.4010  1.2120
  491MOL0     H66273   3.008   8.586   4.669 -2.9034  0.2909 -0.9911
  491MOL0     H66274   2.975   8.440   4.757  2.7443  1.5426  0.7737
  491MOL0     H66275   2.814   8.584   4.539  1.8958  1.1319  0.0864
  491MOL0     H66276   2.768   8.533   4.705 -1.4521 -2.9790 -0.3335
  491MOL0     H66277   2.763   8.290   4.634  0.5135 -1.9293 -0.3885
  491MOL0     H66278   2.815   8.331   4.469 -0.8619 -1.4975 -0.1366
  491MOL0     H66279   2.544   8.431   4.576 -0.5724 -0.5138 -2.3474
  491MOL0     H66280   2.626   8.485   4.431  0.7397  2.2353  0.8243
  491MOL0     H66281   2.493   8.120   4.283 -0.1894  0.7264 -2.1897
  491MOL0     H66282   3.224   8.588   4.629 -2.7442  0.2293  0.2861
  491MOL0     H66283   3.388   8.816   4.402  1.3062  1.0116  1.1964
  491MOL0     H66284   3.386   8.751   4.566 -3.0055  2.1727 -0.8676
  491MOL0     H66285   3.516   8.716   4.461  0.8471  2.0762  2.2349
  492MOL0     O66286   0.508  11.276   2.253 -0.0219 -0.0815 -0.7146
  492MOL0     C66287   0.473  11.391   2.223 -0.0793  0.1568 -0.1816
  492MOL0     O66288   0.567  11.487   2.198 -0.5225  0.0305  0.1013
  492MOL0     C66289   0.695  11.454   2.164 -0.5223 -0.4777 -0.7881
  492MOL0     C66290   0.788  11.564   2.177 -0.0516  0.5341  0.4597
  492MOL0     C66291   0.924  11.562   2.131  0.2196 -0.0579  1.2870
  492MOL0     C66292   0.972  11.448   2.074 -0.3812  1.1136  0.5800
  492MOL0     O66293   1.110  11.448   2.025  0.4587 -0.1160  0.5860
  492MOL0     C66294   1.164  11.325   1.980 -0.6749  0.5903 -0.0261
  492MOL0     C66295   1.321  11.342   1.967  1.4186  0.3409  0.0962
  492MOL0     C66296   1.369  11.428   1.859 -0.0344 -0.3430  0.0410
  492MOL0     C66297   1.362  11.570   1.908  0.3614  0.3669  0.3356
  492MOL0     C66298   1.388  11.658   1.790 -0.4564  0.8211 -0.6453
  492MOL0     C66299   1.445  11.798   1.819  0.1534  0.1308  0.2343
  492MOL0     C66300   1.456  11.880   1.682 -0.2625 -0.3125 -0.3213
  492MOL0     C66301   1.542  11.822   1.568  0.8763  0.8253 -0.0379
  492MOL0     N66302   1.685  11.822   1.591 -0.9259 -0.6865 -0.4722
  492MOL0     C66303   1.768  11.729   1.663 -0.1941 -0.4777 -0.3066
  492MOL0     C66304   1.887  11.796   1.676  0.3862 -0.7177  0.6688
  492MOL0     C66305   2.001  11.739   1.761  0.0081 -0.7984 -0.5997
  492MOL0     C66306   2.097  11.662   1.676 -0.3538 -0.1629 -0.1881
  492MOL0     C66307   2.152  11.736   1.551 -0.8785  0.0554  0.0790
  492MOL0     C66308   2.239  11.856   1.573  0.2439 -0.0450  0.5843
  492MOL0     O66309   2.326  11.842   1.693 -0.5278  0.0765  0.0730
  492MOL0     C66310   2.457  11.793   1.687 -0.6081  0.6377  0.3276
  492MOL0     C66311   2.565  11.884   1.679 -0.4097  0.4977  0.9974
  492MOL0     C66312   2.699  11.837   1.676 -0.6525  0.1685  0.9136
  492MOL0     C66313   2.729  11.703   1.667  0.5055  0.9241  1.0103
  492MOL0     C66314   2.868  11.670   1.644  0.9869 -0.1753 -0.1685
  492MOL0     O66315   2.962  11.770   1.631 -0.4538  0.6428 -0.6730
  492MOL0     C66316   3.092  11.724   1.617 -0.8057  0.5269 -0.4110
  492MOL0     C66317   3.160  11.664   1.730 -0.1170  1.2021 -0.8439
  492MOL0     C66318   3.301  11.627   1.721  0.5956  0.2074  0.8190
  492MOL0     C66319   3.361  11.654   1.598  0.4114  0.4091 -0.6790
  492MOL0     O66320   3.484  11.616   1.558 -0.6531 -0.1009 -0.2628
  492MOL0     C66321   3.575  11.551   1.658 -0.9709 -0.1579  0.0188
  492MOL0     C66322   3.726  11.553   1.599 -0.2983  0.3284  0.8875
  492MOL0     C66323   3.825  11.460   1.675  1.0457 -0.3189 -0.2998
  492MOL0     C66324   3.967  11.513   1.702  0.7369 -0.4647  0.1361
  492MOL0     C66325   4.046  11.412   1.777 -0.8246  0.1229 -0.8119
  492MOL0     C66326   4.186  11.458   1.839 -0.4465 -0.1493 -0.2395
  492MOL0     C66327   4.283  11.494   1.725 -1.0426  0.5021  0.8012
  492MOL0     C66328   4.426  11.527   1.778 -0.9482 -0.4872  0.0532
  492MOL0    Cl66329   4.522  11.622   1.655 -0.3997  0.3700  0.0591
  492MOL0     C66330   3.296  11.721   1.497 -0.2807  0.2648 -1.5646
  492MOL0     C66331   3.166  11.758   1.499 -0.2985  0.2844 -1.1757
  492MOL0     O66332   2.895  11.547   1.638 -0.4637 -0.0525  0.1377
  492MOL0     C66333   2.622  11.615   1.667  0.1221  0.5983 -0.2975
  492MOL0     C66334   2.487  11.655   1.691 -0.2001 -0.1311  0.1927
  492MOL0     N66335   1.876  11.920   1.604 -0.6054 -0.4127 -0.5128
  492MOL0     N66336   1.762  11.930   1.553  0.1657  0.6586  0.8849
  492MOL0     C66337   0.884  11.337   2.064 -0.3275  0.0892 -0.3640
  492MOL0     C66338   0.755  11.333   2.119  0.9442 -0.1360  0.0099
  492MOL0     C66339   0.331  11.436   2.213 -0.1023 -0.3053 -0.2948
  492MOL0     C66340   0.307  11.572   2.218 -0.3864 -0.1396 -0.0948
  492MOL0     C66341   0.176  11.629   2.210 -0.3473  0.3819 -0.2929
  492MOL0     C66342   0.064  11.542   2.212 -0.1328 -0.5533  1.3082
  492MOL0     O66343  -0.059  11.600   2.190  0.5010  0.3621 -0.2676
  492MOL0     C66344  -0.180  11.528   2.221 -0.1221  0.2396  0.1499
  492MOL0     C66345  -0.286  11.639   2.226  0.2080 -0.7461 -0.2513
  492MOL0     C66346  -0.353  11.676   2.091 -0.0205 -0.0804 -0.0657
  492MOL0     C66347  -0.454  11.796   2.120 -0.2372  0.3064 -0.2676
  492MOL0     C66348  -0.393  11.926   2.148 -0.0668  0.2204  0.6584
  492MOL0     C66349  -0.341  12.032   2.180  0.6946 -0.0415 -1.1829
  492MOL0     C66350   0.098  11.405   2.208  0.7444  0.1842  0.5163
  492MOL0     C66351   0.227  11.349   2.201  0.8582  0.1908 -0.0861
  492MOL0     C66352   0.237  11.200   2.189  0.3430 -0.1709  0.0327
  492MOL0     H66353   0.765  11.666   2.208  0.8764  0.2687  2.1564
  492MOL0     H66354   0.989  11.649   2.125  0.7595 -0.4707  1.1234
  492MOL0     H66355   1.154  11.244   2.053  2.8914  2.1923  2.5472
  492MOL0     H66356   1.121  11.308   1.881 -2.2454  3.2482  0.0871
  492MOL0     H66357   1.368  11.243   1.959  0.1033 -0.3054  0.0017
  492MOL0     H66358   1.360  11.374   2.063  1.3677  1.8620 -0.3640
  492MOL0     H66359   1.301  11.420   1.774 -1.4042 -1.3448  1.1972
  492MOL0     H66360   1.470  11.407   1.822  1.9512  4.4218  1.8187
  492MOL0     H66361   1.272  11.607   1.958  0.8762 -0.2420  1.7675
  492MOL0     H66362   1.440  11.588   1.982 -0.5019  2.2914  0.8498
  492MOL0     H66363   1.439  11.601   1.712  1.0805 -1.4930  1.8765
  492MOL0     H66364   1.289  11.675   1.746 -0.8411 -2.6219 -1.3927
  492MOL0     H66365   1.384  11.835   1.902 -0.0024  1.2252 -0.3389
  492MOL0     H66366   1.548  11.782   1.851 -0.2103 -2.2096  0.3699
  492MOL0     H66367   1.493  11.982   1.697 -1.7999  0.4164 -1.2503
  492MOL0     H66368   1.354  11.889   1.643 -0.1164 -0.6953 -0.8032
  492MOL0     H66369   1.504  11.724   1.539  2.5005  0.0761  0.2827
  492MOL0     H66370   1.515  11.881   1.479  2.3990  0.7732 -0.5589
  492MOL0     H66371   1.748  11.643   1.726 -1.9037  1.6524  2.2719
  492MOL0     H66372   2.060  11.818   1.808 -0.2922  0.2559 -1.9343
  492MOL0     H66373   1.970  11.665   1.836  2.4409  1.3683  2.8677
  492MOL0     H66374   2.178  11.622   1.737 -1.1350 -0.4013  0.7185
  492MOL0     H66375   2.044  11.575   1.635 -2.6027  0.2281  1.6889
  492MOL0     H66376   2.069  11.758   1.483 -0.6552  2.6372  0.5341
  492MOL0     H66377   2.208  11.668   1.486 -3.4586  0.5574 -2.9733
  492MOL0     H66378   2.173  11.937   1.605 -1.0591 -1.1528  0.8269
  492MOL0     H66379   2.291  11.883   1.482  0.8066  3.3261  1.7609
  492MOL0     H66380   2.546  11.990   1.682  0.4582  0.9317 -3.1965
  492MOL0     H66381   2.781  11.904   1.699 -0.0197 -1.4063  3.7843
  492MOL0     H66382   3.106  11.644   1.822 -0.1625 -1.3374 -1.3294
  492MOL0     H66383   3.345  11.571   1.803 -0.2112 -0.2616  0.9377
  492MOL0     H66384   3.572  11.597   1.757  1.1114 -1.6245  0.8463
  492MOL0     H66385   3.557  11.447   1.687  0.8211  0.0935  2.3204
  492MOL0     H66386   3.730  11.525   1.493  0.9148 -1.9551  1.4624
  492MOL0     H66387   3.753  11.658   1.611 -2.3990  1.0829 -0.3174
  492MOL0     H66388   3.782  11.420   1.767 -0.2889  1.7280  0.0357
  492MOL0     H66389   3.827  11.372   1.611  3.1280 -0.6110  0.0800
  492MOL0     H66390   3.959  11.604   1.762  1.7224 -0.4433  0.2461
  492MOL0     H66391   4.017  11.531   1.607  2.0861  0.5124  0.9905
  492MOL0     H66392   4.068  11.323   1.717 -1.6087 -2.8527  2.9325
  492MOL0     H66393   3.999  11.373   1.868 -1.5564  0.5196 -1.0101
  492MOL0     H66394   4.174  11.549   1.898 -0.6077  0.1982 -0.8121
  492MOL0     H66395   4.221  11.366   1.888 -2.3269 -1.9408 -2.0524
  492MOL0     H66396   4.240  11.589   1.691 -2.9321 -1.0004 -1.2949
  492MOL0     H66397   4.297  11.427   1.640 -0.8495 -1.4557  2.2882
  492MOL0     H66398   4.409  11.605   1.853 -0.3835 -0.2377 -0.0703
  492MOL0     H66399   4.487  11.447   1.822  1.6772  1.6607  0.6299
  492MOL0     H66400   3.360  11.753   1.415 -2.3416 -1.8480 -4.1945
  492MOL0     H66401   3.136  11.814   1.411  3.6660  0.1029 -2.8472
  492MOL0     H66402   2.645  11.509   1.661 -0.8865  0.4341 -1.6339
  492MOL0     H66403   2.407  11.582   1.704 -0.2842 -0.7859 -3.1392
  492MOL0     H66404   0.928  11.248   2.021 -1.6372  0.1484 -1.9122
  492MOL0     H66405   0.697  11.242   2.111  1.5354 -0.5311  0.1717
  492MOL0     H66406   0.384  11.649   2.220  0.1453 -0.6686  1.3122
  492MOL0     H66407   0.158  11.736   2.200 -2.5692 -0.1559 -3.8818
  492MOL0     H66408  -0.184  11.463   2.308  0.4957 -2.3473 -1.6373
  492MOL0     H66409  -0.211  11.472   2.132  1.6058 -0.5385 -0.0152
  492MOL0     H66410  -0.231  11.717   2.281  0.7988 -1.0510 -0.3960
  492MOL0     H66411  -0.360  11.597   2.295 -0.1554 -1.9088 -1.3173
  492MOL0     H66412  -0.417  11.596   2.053 -0.0597 -1.0564  1.9353
  492MOL0     H66413  -0.273  11.691   2.018 -1.2978  0.8824 -1.3304
  492MOL0     H66414  -0.519  11.816   2.035  2.3244  0.3185 -2.3312
  492MOL0     H66415  -0.516  11.771   2.207  1.6008 -1.0927  0.7366
  492MOL0     H66416  -0.306  12.131   2.200 -0.1828  0.4620 -2.0332
  492MOL0     H66417   0.019  11.333   2.191  1.9612 -0.6975 -1.7665
  492MOL0     H66418   0.142  11.149   2.173  1.8971 -3.4480  0.4356
  492MOL0     H66419   0.308  11.170   2.111 -0.4270 -1.9345 -0.0287
  492MOL0     H66420   0.273  11.162   2.285  1.2137  1.1995  0.2768
  493MOL0     O66421  10.654   9.030   7.878  0.0161 -0.1081  0.9469
  493MOL0     C66422  10.549   9.081   7.830  0.2116  0.4175 -0.5345
  493MOL0     O66423  10.522   9.110   7.703 -0.2799 -0.8638  0.1570
  493MOL0     C66424  10.617   9.097   7.608 -0.1592 -0.2585  0.0160
  493MOL0     C66425  10.733   9.171   7.608 -0.2725  0.0209  0.8186
  493MOL0     C66426  10.820   9.165   7.495 -0.8247 -0.3727  1.0182
  493MOL0     C66427  10.776   9.103   7.379  0.5285 -0.2069  0.3047
  493MOL0     O66428  10.860   9.109   7.271 -0.1856  0.2558  0.4521
  493MOL0     C66429  10.799   9.095   7.139  0.3903 -0.9052  0.5926
  493MOL0     C66430  10.904   9.162   7.041 -0.2523  0.2049 -0.2596
  493MOL0     C66431  11.013   9.064   6.995  0.1002  0.1700  0.2392
  493MOL0     C66432  11.050   9.102   6.852  0.4073 -0.3747  0.0492
  493MOL0     C66433  11.169   9.012   6.798  0.6632  0.1109  0.1878
  493MOL0     C66434  11.196   9.061   6.656  0.3249  0.6503 -1.1143
  493MOL0     C66435  11.313   8.979   6.581 -0.3382 -0.0531 -0.1205
  493MOL0     C66436  11.246   8.869   6.495 -0.5122  0.2865  0.4311
  493MOL0     N66437  11.350   8.790   6.423  0.1803 -0.1960  0.2665
  493MOL0     C66438  11.396   8.665   6.470  0.4179  0.3981  0.6340
  493MOL0     C66439  11.513   8.651   6.403 -0.3774  0.7934 -0.0088
  493MOL0     C66440  11.594   8.519   6.418  0.4666  0.2011  0.2607
  493MOL0     C66441  11.690   8.539   6.528  0.1475  0.0293 -0.5679
  493MOL0     C66442  11.785   8.415   6.513  0.1504  0.4791 -0.2703
  493MOL0     C66443  11.914   8.420   6.594 -0.3307  0.6761  0.4263
  493MOL0     O66444  11.883   8.376   6.728  0.2362 -0.2652  0.1138
  493MOL0     C66445  11.979   8.436   6.805 -0.2260  0.3722  0.4952
  493MOL0     C66446  11.950   8.559   6.862 -0.6799 -0.0101  0.5479
  493MOL0     C66447  12.041   8.634   6.937 -0.0180  0.4447 -0.0638
  493MOL0     C66448  12.171   8.588   6.949  0.4956 -0.5736 -1.1428
  493MOL0     C66449  12.275   8.673   7.017  0.4848  0.0017  0.0180
  493MOL0     O66450  12.402   8.639   6.996 -0.6363  0.0500  0.7873
  493MOL0     C66451  12.505   8.717   7.045 -0.4108 -0.2331 -0.2162
  493MOL0     C66452  12.519   8.854   7.031  0.0969  0.2249  0.0697
  493MOL0     C66453  12.636   8.921   7.070 -0.1524  0.3799  0.4382
  493MOL0     C66454  12.737   8.852   7.137 -0.0191  1.4622 -0.5404
  493MOL0     O66455  12.846   8.927   7.170  0.8554 -0.0438  0.5122
  493MOL0     C66456  12.920   8.898   7.291  0.0053 -0.2425 -0.9021
  493MOL0     C66457  12.973   9.037   7.350 -0.2082  0.0878  0.0654
  493MOL0     C66458  13.110   9.081   7.299  0.4496 -0.1545 -0.3095
  493MOL0     C66459  13.113   9.086   7.139  0.0535 -0.3563  0.3180
  493MOL0     C66460  13.261   9.114   7.105  0.6637  0.5296  0.0455
  493MOL0     C66461  13.319   9.037   6.981 -0.1646  0.1567  0.3973
  493MOL0     C66462  13.258   9.088   6.849 -0.3635  0.5299  0.4712
  493MOL0     C66463  13.314   9.011   6.728  0.3443  0.4006 -0.1497
  493MOL0    Cl66464  13.491   9.035   6.711  0.2130 -0.7667  0.2879
  493MOL0     C66465  12.733   8.710   7.152  0.3986  0.8466  0.7587
  493MOL0     C66466  12.622   8.641   7.092  0.1169 -0.6997  0.4427
  493MOL0     O66467  12.233   8.774   7.073 -0.6105 -0.0751 -0.7213
  493MOL0     C66468  12.206   8.464   6.892 -0.6240 -0.0546 -0.6625
  493MOL0     C66469  12.110   8.387   6.825 -0.6453  0.2641  1.0138
  493MOL0     N66470  11.529   8.763   6.322  0.4030  0.1976  0.0169
  493MOL0     N66471  11.433   8.846   6.335  0.2581  0.7375 -0.3954
  493MOL0     C66472  10.651   9.034   7.382 -0.4180 -0.6481 -0.8468
  493MOL0     C66473  10.582   9.032   7.497  0.2252  0.5260 -0.1382
  493MOL0     C66474  10.426   9.075   7.917 -0.7765  0.8654  0.2623
  493MOL0     C66475  10.437   9.139   8.043  0.3481  0.1212  0.5357
  493MOL0     C66476  10.332   9.119   8.135 -0.1427  0.1740 -0.3699
  493MOL0     C66477  10.213   9.048   8.110  0.7807 -0.3793  0.1884
  493MOL0     O66478  10.113   9.038   8.199 -0.1143 -1.2908 -0.5174
  493MOL0     C66479  10.128   9.075   8.332  0.2982  0.1469 -0.2050
  493MOL0     C66480  10.009   9.026   8.412 -0.0058 -1.1863 -0.2535
  493MOL0     C66481   9.880   9.109   8.397  0.5525 -1.1048  0.3008
  493MOL0     C66482   9.784   9.040   8.500  0.5517 -0.4295  0.3405
  493MOL0     C66483   9.648   9.077   8.480  0.6803 -0.4884 -0.1220
  493MOL0     C66484   9.536   9.107   8.439 -0.1809  0.6054  0.0256
  493MOL0     C66485  10.207   8.989   7.991 -0.4222 -0.0062  0.2640
  493MOL0     C66486  10.309   8.997   7.890  0.2829 -0.6362 -0.7246
  493MOL0     C66487  10.303   8.907   7.765 -0.3378  0.2301  0.0547
  493MOL0     H66488  10.762   9.231   7.694  3.0429 -2.7810  1.8622
  493MOL0     H66489  10.923   9.201   7.500 -1.4976  1.5196  2.4684
  493MOL0     H66490  10.763   8.997   7.109 -1.5086 -0.9907  2.8953
  493MOL0     H66491  10.704   9.149   7.142 -1.2917 -3.7674  1.9016
  493MOL0     H66492  10.944   9.253   7.086 -0.2275 -0.8067  1.9406
  493MOL0     H66493  10.849   9.192   6.952 -0.8697  0.9094  0.3412
  493MOL0     H66494  10.971   8.963   7.006 -0.5041  0.3025 -0.7304
  493MOL0     H66495  11.107   9.074   7.050  0.0586  2.5057 -0.0016
  493MOL0     H66496  10.973   9.077   6.779  0.8566  1.2388 -1.0235
  493MOL0     H66497  11.076   9.208   6.843  1.4506 -0.6276 -0.1082
  493MOL0     H66498  11.261   9.026   6.856 -0.8076  4.0657  1.9372
  493MOL0     H66499  11.123   8.913   6.788 -1.8674  1.3933 -1.8218
  493MOL0     H66500  11.110   9.064   6.588 -0.7685 -0.2178  0.1856
  493MOL0     H66501  11.231   9.163   6.673 -0.1173  0.5736  0.3510
  493MOL0     H66502  11.390   8.939   6.648 -1.0288 -0.8843  0.1914
  493MOL0     H66503  11.372   9.046   6.517  0.3360  0.9850  1.5312
  493MOL0     H66504  11.187   8.809   6.566  0.9831  1.2531  2.6024
  493MOL0     H66505  11.181   8.900   6.413 -0.6695  1.1939  0.8826
  493MOL0     H66506  11.343   8.602   6.540 -1.3413  1.9660  0.8027
  493MOL0     H66507  11.535   8.429   6.440  0.2704  0.0803 -0.7312
  493MOL0     H66508  11.634   8.492   6.320 -0.4101 -0.1651 -0.0084
  493MOL0     H66509  11.737   8.637   6.515 -0.4270  0.7435  2.0978
  493MOL0     H66510  11.637   8.528   6.624 -0.2549  1.0424 -0.6577
  493MOL0     H66511  11.815   8.411   6.408  2.4651 -0.0412  0.3495
  493MOL0     H66512  11.730   8.322   6.532  0.8452  0.1103  0.0109
  493MOL0     H66513  11.959   8.520   6.594 -1.1713  1.0957 -1.4369
  493MOL0     H66514  11.990   8.349   6.561  0.0581  0.3449  1.9904
  493MOL0     H66515  11.848   8.594   6.849 -1.1032 -0.5041  2.2780
  493MOL0     H66516  11.995   8.727   6.969 -3.2340 -0.5327 -1.4176
  493MOL0     H66517  12.442   8.909   6.978 -1.2101 -1.9619 -0.4015
  493MOL0     H66518  12.646   9.029   7.067  1.2229  0.2530 -1.1989
  493MOL0     H66519  12.851   8.851   7.361  0.0321 -0.8351 -1.2641
  493MOL0     H66520  13.002   8.829   7.268 -0.1852 -0.4374 -0.9968
  493MOL0     H66521  12.902   9.117   7.331  0.3001  1.1373  2.2845
  493MOL0     H66522  12.982   9.018   7.458 -0.2870  1.6078  0.3565
  493MOL0     H66523  13.134   9.183   7.331  2.8089 -1.0937  1.1853
  493MOL0     H66524  13.188   9.014   7.337  0.1712 -0.9741 -1.1353
  493MOL0     H66525  13.041   9.161   7.107  2.2893  2.0063  0.4617
  493MOL0     H66526  13.095   8.984   7.104  1.4290 -0.2068 -0.9279
  493MOL0     H66527  13.335   9.091   7.183  1.2076  0.0796 -0.5875
  493MOL0     H66528  13.267   9.222   7.091 -0.2560  0.3470 -2.2399
  493MOL0     H66529  13.429   9.044   6.978  0.1050 -3.0394 -1.5449
  493MOL0     H66530  13.289   8.933   6.990 -5.7087  1.5324  0.9603
  493MOL0     H66531  13.284   9.191   6.823  3.1875 -0.5578 -0.8418
  493MOL0     H66532  13.151   9.066   6.856 -0.0183 -2.7028 -1.8998
  493MOL0     H66533  13.301   8.904   6.750  0.1525  1.0682  3.6161
  493MOL0     H66534  13.258   9.034   6.636 -0.1929  1.5977  0.4551
  493MOL0     H66535  12.802   8.651   7.211  1.5227  1.2298 -0.1480
  493MOL0     H66536  12.617   8.533   7.080  2.2285 -0.6030 -2.3493
  493MOL0     H66537  12.307   8.424   6.897 -0.0660  1.3753  0.2466
  493MOL0     H66538  12.115   8.289   6.780 -2.0612  1.0482 -1.0264
  493MOL0     H66539  10.614   8.982   7.293 -1.6489 -1.9417  0.3680
  493MOL0     H66540  10.480   8.997   7.485  1.2402 -1.8709 -3.0188
  493MOL0     H66541  10.517   9.205   8.074 -2.2545  2.7608  2.1449
  493MOL0     H66542  10.364   9.160   8.231  1.2595 -0.4075 -0.5592
  493MOL0     H66543  10.129   9.184   8.343 -0.6048 -0.0846  4.4204
  493MOL0     H66544  10.220   9.039   8.378  1.1058  1.3405 -0.8351
  493MOL0     H66545  10.025   9.014   8.519 -2.1493  0.7277  0.3626
  493MOL0     H66546   9.974   8.929   8.376  0.9252 -1.1375 -1.3281
  493MOL0     H66547   9.834   9.118   8.298  1.6971 -1.8631 -0.3223
  493MOL0     H66548   9.898   9.214   8.423 -0.5576 -0.6218 -0.7750
  493MOL0     H66549   9.793   8.932   8.488 -0.8137 -0.5911  0.5923
  493MOL0     H66550   9.822   9.058   8.601  1.4239  2.2957 -0.3917
  493MOL0     H66551   9.434   9.111   8.405 -0.0775 -1.5740 -0.7450
  493MOL0     H66552  10.124   8.923   7.971  1.1742 -1.5195 -1.8085
  493MOL0     H66553  10.291   8.974   7.679  0.1665 -0.5766 -0.6699
  493MOL0     H66554  10.394   8.846   7.760 -0.9001 -1.1299  3.7740
  493MOL0     H66555  10.217   8.840   7.761  0.2201 -0.6293  1.6182
  494MOL0     O66556   0.052   3.352   4.861 -0.3828 -0.4372 -0.0352
  494MOL0     C66557  -0.052   3.314   4.919 -0.4001 -0.2970 -0.8194
  494MOL0     O66558  -0.061   3.242   5.035 -0.1060 -0.5089 -0.3686
  494MOL0     C66559   0.049   3.248   5.118 -0.0258  0.3389  0.4744
  494MOL0     C66560   0.108   3.128   5.151 -0.8622 -0.2475  1.1498
  494MOL0     C66561   0.218   3.127   5.242  0.6441 -0.0738  0.1439
  494MOL0     C66562   0.260   3.243   5.308  0.8701 -0.8591  0.2991
  494MOL0     O66563   0.373   3.239   5.389  0.5882 -0.1912 -0.4293
  494MOL0     C66564   0.374   3.335   5.502  0.3963 -0.6430  0.0304
  494MOL0     C66565   0.503   3.318   5.569  0.1375  0.3176 -0.2770
  494MOL0     C66566   0.627   3.373   5.487  1.1611 -1.2414 -1.0663
  494MOL0     C66567   0.757   3.369   5.585  0.1614 -0.5946 -0.0156
  494MOL0     C66568   0.880   3.419   5.501  1.6083 -0.5428  0.4052
  494MOL0     C66569   0.992   3.476   5.591  0.4671  0.9100  0.3433
  494MOL0     C66570   1.101   3.563   5.519 -0.9282  0.6788  0.7793
  494MOL0     C66571   1.211   3.612   5.615  0.1697  0.7260 -0.2638
  494MOL0     N66572   1.340   3.562   5.578 -0.8969  0.5269 -0.7632
  494MOL0     C66573   1.403   3.585   5.461 -0.3244 -1.1699 -0.0803
  494MOL0     C66574   1.489   3.482   5.445 -0.5386  0.0851  0.1155
  494MOL0     C66575   1.568   3.450   5.323  0.5559  0.5110 -0.1917
  494MOL0     C66576   1.584   3.294   5.299  0.4730 -0.2354 -0.3251
  494MOL0     C66577   1.445   3.240   5.271 -0.0093  0.0992 -0.4959
  494MOL0     C66578   1.452   3.085   5.241 -0.0601 -0.0815 -1.4012
  494MOL0     O66579   1.528   3.065   5.113 -0.6913  0.1806 -0.2111
  494MOL0     C66580   1.620   2.965   5.115  0.8286 -1.0459  0.3053
  494MOL0     C66581   1.615   2.868   5.021 -0.5625  0.4989  0.4558
  494MOL0     C66582   1.710   2.762   5.017  0.1400  0.3905 -1.2710
  494MOL0     C66583   1.814   2.766   5.110 -0.3559  0.9681  0.3489
  494MOL0     C66584   1.913   2.651   5.113 -0.0141 -0.1462  0.1361
  494MOL0     O66585   1.877   2.537   5.037  0.8811 -0.9454  0.3788
  494MOL0     C66586   1.944   2.426   5.060  0.1330  0.2731  0.2326
  494MOL0     C66587   1.862   2.333   5.120  0.1466 -0.5471  0.4149
  494MOL0     C66588   1.890   2.198   5.136  0.3851 -0.2534  0.0428
  494MOL0     C66589   2.018   2.160   5.085  0.6058 -0.9346 -0.2379
  494MOL0     O66590   2.059   2.024   5.065  1.2881 -0.2781  0.7887
  494MOL0     C66591   1.994   1.915   5.136  0.6968 -0.2866  0.1368
  494MOL0     C66592   2.035   1.914   5.285  0.2301 -0.2580  0.9575
  494MOL0     C66593   1.932   1.834   5.369 -0.3959  0.2109 -0.1107
  494MOL0     C66594   1.932   1.891   5.512 -0.8049  0.6940  1.1590
  494MOL0     C66595   1.838   1.817   5.614 -0.0785 -0.1198  0.7063
  494MOL0     C66596   1.859   1.861   5.761 -0.1571  0.3976  1.3063
  494MOL0     C66597   1.837   2.010   5.783 -0.3576  1.0107  0.3231
  494MOL0     C66598   1.863   2.045   5.932 -0.9486  0.6764 -0.3261
  494MOL0    Cl66599   2.032   2.111   5.958 -0.0363  0.4556 -0.1566
  494MOL0     C66600   2.101   2.258   5.032  0.0336  0.3081  0.3487
  494MOL0     C66601   2.071   2.396   5.019 -0.1734  0.8656 -0.0287
  494MOL0     O66602   2.005   2.657   5.195  0.5062 -0.6301 -1.0542
  494MOL0     C66603   1.826   2.868   5.201  0.8090 -0.8582 -0.4728
  494MOL0     C66604   1.724   2.970   5.205 -0.2432 -0.0860  0.0350
  494MOL0     N66605   1.487   3.410   5.562  0.3670 -0.1434 -0.5135
  494MOL0     N66606   1.395   3.459   5.645  0.3882 -0.6764  0.7461
  494MOL0     C66607   0.209   3.367   5.259 -0.4518 -0.8576 -0.0802
  494MOL0     C66608   0.100   3.360   5.172  0.0013 -0.3993  0.6200
  494MOL0     C66609  -0.179   3.351   4.863  0.5082  0.4824 -0.1114
  494MOL0     C66610  -0.195   3.362   4.722  0.0320 -0.4496 -0.4345
  494MOL0     C66611  -0.318   3.369   4.662 -0.7533 -0.7322 -0.7974
  494MOL0     C66612  -0.434   3.397   4.737 -0.4153  0.0792 -0.6316
  494MOL0     O66613  -0.555   3.400   4.676  0.0872 -0.5003  0.3555
  494MOL0     C66614  -0.555   3.455   4.534 -0.7991 -0.6983  0.0256
  494MOL0     C66615  -0.695   3.488   4.487  0.3588  0.1055 -0.1065
  494MOL0     C66616  -0.793   3.363   4.484 -0.2658  0.3478  1.1458
  494MOL0     C66617  -0.933   3.407   4.434  0.8201  0.1891 -0.3219
  494MOL0     C66618  -1.032   3.300   4.420  0.1914  0.3405  0.1249
  494MOL0     C66619  -1.121   3.215   4.414 -0.7931 -0.3694 -0.3341
  494MOL0     C66620  -0.425   3.393   4.872 -0.2630  0.6191  0.2096
  494MOL0     C66621  -0.296   3.379   4.941  1.1354 -0.2888  0.0198
  494MOL0     C66622  -0.292   3.381   5.092  0.2937  0.1447  1.0902
  494MOL0     H66623   0.063   3.041   5.104  1.4035 -2.0447  2.1061
  494MOL0     H66624   0.253   3.027   5.267 -0.8828 -0.5458  0.4669
  494MOL0     H66625   0.356   3.435   5.461 -1.4977 -0.5216  1.0319
  494MOL0     H66626   0.286   3.316   5.565 -0.5734  1.3237 -0.6348
  494MOL0     H66627   0.523   3.214   5.595  1.8956  0.7777  0.3226
  494MOL0     H66628   0.492   3.376   5.661  1.2041 -1.2457  0.8888
  494MOL0     H66629   0.605   3.469   5.439 -0.3596 -1.1278 -0.2236
  494MOL0     H66630   0.651   3.299   5.411 -0.3412 -3.5663  0.5938
  494MOL0     H66631   0.733   3.436   5.668 -3.2411 -0.1674 -1.2062
  494MOL0     H66632   0.788   3.270   5.621 -0.9817 -1.9822 -2.6098
  494MOL0     H66633   0.911   3.341   5.431  0.4641 -2.0528  1.5032
  494MOL0     H66634   0.854   3.507   5.442  3.6516  0.7147  1.2353
  494MOL0     H66635   0.937   3.541   5.660 -1.6776  0.1575 -0.5804
  494MOL0     H66636   1.037   3.398   5.653  1.4688  0.3305 -1.0616
  494MOL0     H66637   1.052   3.648   5.472 -0.4594 -0.3026 -1.6236
  494MOL0     H66638   1.141   3.496   5.442  0.3625  0.0496  1.9374
  494MOL0     H66639   1.218   3.721   5.618  0.7154  0.6734  2.2780
  494MOL0     H66640   1.193   3.567   5.713 -0.4528 -2.0520 -1.5472
  494MOL0     H66641   1.375   3.658   5.386 -0.7154  0.6382  1.7093
  494MOL0     H66642   1.530   3.502   5.234  0.9311  1.2137  0.0535
  494MOL0     H66643   1.667   3.491   5.346  1.7211 -2.1133 -0.1659
  494MOL0     H66644   1.660   3.272   5.223  0.3665  4.3124 -2.0916
  494MOL0     H66645   1.628   3.260   5.393  1.0297  3.2877  0.8613
  494MOL0     H66646   1.395   3.288   5.186 -0.5882  0.1284 -0.1364
  494MOL0     H66647   1.382   3.243   5.360  1.4396 -0.9497  0.6301
  494MOL0     H66648   1.350   3.048   5.229 -0.5251  1.0099 -0.9062
  494MOL0     H66649   1.501   3.039   5.327  1.8902  3.0374 -0.6774
  494MOL0     H66650   1.554   2.867   4.931 -0.0144  4.4135 -0.1378
  494MOL0     H66651   1.691   2.686   4.942 -0.2868  0.5162 -1.2957
  494MOL0     H66652   1.764   2.365   5.155 -0.3948 -3.4699  1.8080
  494MOL0     H66653   1.814   2.131   5.173  1.0079  0.2875  2.5017
  494MOL0     H66654   1.887   1.938   5.133  0.8438  0.2919 -1.0641
  494MOL0     H66655   2.014   1.822   5.084  1.3119  0.2125 -0.5413
  494MOL0     H66656   2.134   1.868   5.290  0.2710 -0.5334 -1.2275
  494MOL0     H66657   2.043   2.019   5.316  2.6989  0.9615 -3.0380
  494MOL0     H66658   1.830   1.833   5.330 -0.2194  0.5595 -0.6090
  494MOL0     H66659   1.969   1.731   5.372 -2.0356 -0.4546 -1.3803
  494MOL0     H66660   1.893   1.993   5.507  1.3557  1.5378 -0.0677
  494MOL0     H66661   2.038   1.890   5.541 -1.0936  0.1177  2.2542
  494MOL0     H66662   1.852   1.709   5.608  1.7007  0.0535  0.9948
  494MOL0     H66663   1.735   1.845   5.590  0.1327 -0.1057 -0.2284
  494MOL0     H66664   1.783   1.816   5.826 -2.8532 -1.8537 -2.9150
  494MOL0     H66665   1.959   1.828   5.790 -0.6169 -3.0986 -0.5103
  494MOL0     H66666   1.736   2.036   5.749 -0.8012  0.5658  1.2454
  494MOL0     H66667   1.914   2.060   5.724 -0.1407  0.9953  0.5910
  494MOL0     H66668   1.788   2.123   5.950 -1.0663  1.0566 -2.2369
  494MOL0     H66669   1.851   1.972   6.012  1.3114  1.2951  0.6645
  494MOL0     H66670   2.201   2.228   5.001  0.2141 -1.9890  2.7597
  494MOL0     H66671   2.122   2.485   4.986 -0.5573  1.4229  0.8542
  494MOL0     H66672   1.907   2.870   5.274 -1.3602  3.3280  2.2608
  494MOL0     H66673   1.738   3.037   5.288  2.4351 -0.6835  0.1621
  494MOL0     H66674   0.240   3.464   5.295  0.6261 -0.8090 -1.0910
  494MOL0     H66675   0.055   3.455   5.147 -0.3747 -0.8898 -0.6413
  494MOL0     H66676  -0.111   3.339   4.657 -0.0922 -0.3324 -0.6397
  494MOL0     H66677  -0.327   3.368   4.554 -2.9172  0.2779 -0.6829
  494MOL0     H66678  -0.510   3.382   4.468 -0.3261 -1.5020  1.2063
  494MOL0     H66679  -0.505   3.552   4.541  0.2300 -1.2347  0.2396
  494MOL0     H66680  -0.696   3.534   4.388 -0.6273  0.2611 -0.0264
  494MOL0     H66681  -0.730   3.558   4.563  2.1795  0.4339  0.4781
  494MOL0     H66682  -0.799   3.306   4.577 -1.5276  2.6481  2.5595
  494MOL0     H66683  -0.750   3.289   4.416  0.1182 -0.7156  2.5082
  494MOL0     H66684  -0.967   3.482   4.506 -0.1437  0.6987 -1.2770
  494MOL0     H66685  -0.920   3.459   4.338  4.3516  0.1825  0.0114
  494MOL0     H66686  -1.202   3.144   4.415 -3.8722  2.8365  0.2696
  494MOL0     H66687  -0.515   3.412   4.930 -2.1181  2.0543 -2.8891
  494MOL0     H66688  -0.274   3.281   5.131 -1.9423 -0.2045  1.3535
  494MOL0     H66689  -0.214   3.448   5.129 -0.6883  1.3934  0.9665
  494MOL0     H66690  -0.392   3.408   5.126 -0.1951  1.0158 -0.9090
  495MOL0     O66691  10.656   0.598   1.352  0.4891 -0.9845 -0.1878
  495MOL0     C66692  10.648   0.552   1.242 -0.1688  0.1181  0.0531
  495MOL0     O66693  10.712   0.604   1.132 -0.2860  0.6232  0.3466
  495MOL0     C66694  10.779   0.722   1.134  0.0127 -0.7665 -0.9770
  495MOL0     C66695  10.713   0.849   1.133 -0.7808  0.2119  0.2509
  495MOL0     C66696  10.782   0.971   1.153  0.0342  0.8399  0.7670
  495MOL0     C66697  10.918   0.976   1.184 -0.3111 -0.2027 -0.5663
  495MOL0     O66698  10.998   1.089   1.198  0.0930 -0.3425 -0.3551
  495MOL0     C66699  10.950   1.217   1.145  0.8775  0.0636  1.5282
  495MOL0     C66700  11.059   1.319   1.176 -0.4953 -0.2213  0.2725
  495MOL0     C66701  11.047   1.449   1.092  0.0777  0.2678 -0.6091
  495MOL0     C66702  11.106   1.570   1.177  0.3967  0.6904  0.7028
  495MOL0     C66703  11.084   1.699   1.094  0.5784 -0.2691 -0.0109
  495MOL0     C66704  11.114   1.819   1.188  0.7009  0.4801  0.2560
  495MOL0     C66705  11.263   1.814   1.216 -0.4327  0.0051 -0.3639
  495MOL0     C66706  11.313   1.949   1.278  0.7533  0.1076  0.1184
  495MOL0     N66707  11.319   2.064   1.198  0.1523 -0.5175  0.3124
  495MOL0     C66708  11.419   2.152   1.213  0.8469 -0.3941  0.0694
  495MOL0     C66709  11.396   2.238   1.113 -0.5119  0.5357 -0.0007
  495MOL0     C66710  11.475   2.369   1.099 -0.3596  0.4111 -0.4089
  495MOL0     C66711  11.618   2.355   1.145 -0.4633 -0.7209  0.1912
  495MOL0     C66712  11.706   2.476   1.115  0.4568  0.2119  0.5644
  495MOL0     C66713  11.846   2.470   1.182  0.4450  0.0041  0.0702
  495MOL0     O66714  11.909   2.571   1.105 -0.6724 -0.1738 -0.3316
  495MOL0     C66715  12.047   2.588   1.124 -0.3651 -0.0655  0.1139
  495MOL0     C66716  12.098   2.717   1.102  0.1371  0.7741  0.6389
  495MOL0     C66717  12.236   2.730   1.103 -0.8146  0.0473  0.3309
  495MOL0     C66718  12.328   2.632   1.148 -0.0774  0.2968 -0.7873
  495MOL0     C66719  12.478   2.659   1.143 -0.2815  0.2362 -0.7731
  495MOL0     O66720  12.551   2.541   1.136  0.6347  0.0618  0.5508
  495MOL0     C66721  12.680   2.548   1.094 -0.2231 -0.6435  0.1932
  495MOL0     C66722  12.725   2.486   0.974 -0.5149  0.8211  0.3952
  495MOL0     C66723  12.857   2.489   0.915  0.1150  0.2371  0.1586
  495MOL0     C66724  12.948   2.571   0.980 -0.6795 -0.8611  0.1759
  495MOL0     O66725  13.077   2.589   0.932  0.0101 -0.0385  0.2850
  495MOL0     C66726  13.092   2.633   0.797 -0.0402  0.2639  0.2195
  495MOL0     C66727  13.228   2.604   0.733 -0.2115  0.4300 -0.3020
  495MOL0     C66728  13.335   2.670   0.820 -0.4857 -0.7880 -0.0788
  495MOL0     C66729  13.483   2.627   0.783  0.5260  0.3581 -0.2126
  495MOL0     C66730  13.578   2.695   0.880 -0.2481  1.0070 -0.8234
  495MOL0     C66731  13.711   2.612   0.877  0.8548 -0.5050  1.1356
  495MOL0     C66732  13.791   2.633   1.001 -0.0377  0.5412 -0.2911
  495MOL0     C66733  13.934   2.586   0.979 -0.3238 -0.0105 -0.1471
  495MOL0    Cl66734  14.021   2.695   0.859  0.3993 -0.1654 -0.1316
  495MOL0     C66735  12.901   2.647   1.095 -1.3595 -0.2638  0.0266
  495MOL0     C66736  12.776   2.628   1.154  0.0082 -0.2437  0.3547
  495MOL0     O66737  12.518   2.773   1.150 -0.7448  0.0144  0.0152
  495MOL0     C66738  12.273   2.512   1.182  0.1715  0.1951 -0.4751
  495MOL0     C66739  12.137   2.491   1.174 -0.1603  0.1030  0.2998
  495MOL0     N66740  11.300   2.199   1.027  1.0830  0.0215 -0.3447
  495MOL0     N66741  11.252   2.087   1.079 -0.2010 -1.0784  0.2452
  495MOL0     C66742  10.980   0.846   1.192 -0.4537  0.1547 -1.2245
  495MOL0     C66743  10.912   0.727   1.173 -0.0598  0.4952 -0.3225
  495MOL0     C66744  10.549   0.442   1.208  0.1395  0.2164 -0.1980
  495MOL0     C66745  10.525   0.414   1.075 -0.0596 -0.6599  0.0117
  495MOL0     C66746  10.432   0.310   1.036 -0.3733  0.3565 -0.3263
  495MOL0     C66747  10.361   0.239   1.137 -0.1543 -0.2394  0.0776
  495MOL0     O66748  10.279   0.136   1.114 -0.2971  0.7886  0.4231
  495MOL0     C66749  10.213   0.109   0.988  0.0659 -0.6358  0.4930
  495MOL0     C66750  10.100  -0.001   1.006 -0.0415 -0.5813  0.6118
  495MOL0     C66751  10.024  -0.041   0.870 -0.2920 -0.2681 -0.7302
  495MOL0     C66752   9.926  -0.151   0.871  0.8777 -0.4769  1.3022
  495MOL0     C66753   9.987  -0.267   0.937  0.6848 -0.1021  0.6452
  495MOL0     C66754  10.048  -0.353   0.995 -0.3486  0.0197 -0.8772
  495MOL0     C66755  10.390   0.268   1.271  0.8477  0.2901  0.5210
  495MOL0     C66756  10.477   0.372   1.309 -0.0359 -0.0044 -0.8514
  495MOL0     C66757  10.503   0.384   1.457 -0.1253 -0.7441  0.7801
  495MOL0     H66758  10.612   0.854   1.093 -1.1338 -1.2696  0.8968
  495MOL0     H66759  10.720   1.060   1.152  0.8806  1.4348  0.1129
  495MOL0     H66760  10.939   1.214   1.037 -0.0567 -1.1138  1.6377
  495MOL0     H66761  10.850   1.235   1.185 -0.6468 -3.0518 -0.4905
  495MOL0     H66762  11.158   1.275   1.156  1.0921  3.2177 -0.1098
  495MOL0     H66763  11.051   1.335   1.284 -0.4243  0.8152  0.1340
  495MOL0     H66764  10.943   1.482   1.089  0.4469  1.5693 -4.6025
  495MOL0     H66765  11.082   1.452   0.988 -0.3188  1.0181 -0.7321
  495MOL0     H66766  11.055   1.573   1.274 -1.2844  0.1899 -0.1237
  495MOL0     H66767  11.212   1.545   1.193  0.6926  0.0212 -1.8475
  495MOL0     H66768  11.151   1.704   1.007  1.7192 -0.4884  0.8212
  495MOL0     H66769  10.976   1.691   1.078 -0.2432  3.5562  2.3927
  495MOL0     H66770  11.077   1.911   1.141 -1.2797  0.6692  2.0202
  495MOL0     H66771  11.052   1.825   1.278 -0.5452 -0.8924 -0.4581
  495MOL0     H66772  11.320   1.792   1.125 -0.0827 -0.0586 -0.1292
  495MOL0     H66773  11.291   1.739   1.290 -0.4412 -4.2410 -4.2158
  495MOL0     H66774  11.250   1.962   1.366 -0.0707  0.2941 -0.4900
  495MOL0     H66775  11.419   1.944   1.308  0.9654  3.0013  0.1257
  495MOL0     H66776  11.496   2.153   1.290  1.0820 -0.2614 -0.1638
  495MOL0     H66777  11.476   2.408   0.997 -1.1337  1.9098  0.1276
  495MOL0     H66778  11.434   2.444   1.167 -0.2507  1.3059 -1.2978
  495MOL0     H66779  11.618   2.333   1.252 -4.5418 -0.4863  0.3688
  495MOL0     H66780  11.659   2.271   1.087  1.0446  0.5641 -0.6947
  495MOL0     H66781  11.672   2.577   1.141 -0.7810 -0.1296  0.3787
  495MOL0     H66782  11.715   2.483   1.006  0.8672  1.9031  0.6859
  495MOL0     H66783  11.887   2.369   1.177  4.3440  1.4795 -1.6568
  495MOL0     H66784  11.845   2.499   1.288  2.4754 -0.6006  0.3021
  495MOL0     H66785  12.027   2.786   1.059  0.7718  0.0541 -1.6950
  495MOL0     H66786  12.283   2.823   1.075  1.3014 -0.2633  2.4852
  495MOL0     H66787  12.659   2.418   0.920 -0.1813  1.1259 -0.4136
  495MOL0     H66788  12.878   2.414   0.839  0.0344 -0.0556  0.4203
  495MOL0     H66789  13.018   2.577   0.740  2.3057 -1.8359 -0.9780
  495MOL0     H66790  13.067   2.736   0.770  2.6044  0.7044 -0.8272
  495MOL0     H66791  13.247   2.497   0.717 -0.8593  0.4645 -1.4508
  495MOL0     H66792  13.223   2.652   0.635  0.8909  0.0819 -0.5465
  495MOL0     H66793  13.328   2.779   0.817  0.6196 -0.6085  2.0161
  495MOL0     H66794  13.310   2.646   0.924  0.5949  2.2939  1.0173
  495MOL0     H66795  13.502   2.667   0.683 -0.3039  1.9848  0.2497
  495MOL0     H66796  13.486   2.518   0.781 -1.2735  0.2474  0.8532
  495MOL0     H66797  13.544   2.693   0.984  1.7360  2.2688 -0.0903
  495MOL0     H66798  13.602   2.800   0.859 -0.9527  1.1407 -1.0107
  495MOL0     H66799  13.689   2.506   0.862 -1.2122  0.1255 -0.6913
  495MOL0     H66800  13.773   2.638   0.791  2.7800 -0.8907  2.3494
  495MOL0     H66801  13.744   2.584   1.087 -0.9192  2.1598  0.1905
  495MOL0     H66802  13.795   2.740   1.021 -3.7776  1.0663 -1.4244
  495MOL0     H66803  13.990   2.590   1.073 -0.6094  0.4450  0.0060
  495MOL0     H66804  13.934   2.482   0.946  0.5184  0.2938 -1.1725
  495MOL0     H66805  12.959   2.719   1.152 -1.4844 -1.5600  1.9056
  495MOL0     H66806  12.756   2.676   1.249  1.6026 -0.6965  0.9426
  495MOL0     H66807  12.325   2.421   1.208 -1.6955 -0.7444  0.1847
  495MOL0     H66808  12.101   2.397   1.213 -1.0342  1.5134  3.1381
  495MOL0     H66809  11.086   0.834   1.213 -0.5106  0.0460 -0.9934
  495MOL0     H66810  10.956   0.629   1.187 -1.1311 -0.0134 -0.3593
  495MOL0     H66811  10.580   0.468   0.998 -1.3193  1.4964  0.5367
  495MOL0     H66812  10.409   0.313   0.930 -2.5082  0.3588  0.0816
  495MOL0     H66813  10.286   0.067   0.918 -1.3140 -2.2005 -0.0669
  495MOL0     H66814  10.174   0.208   0.962  0.5474 -0.8941 -1.3899
  495MOL0     H66815  10.023   0.038   1.073  0.2614  0.2748  0.4823
  495MOL0     H66816  10.148  -0.091   1.043  2.3143 -0.9653 -2.8792
  495MOL0     H66817  10.107  -0.068   0.803  2.8471  1.3612  2.1514
  495MOL0     H66818   9.976   0.050   0.835  0.2233 -0.1822 -1.2284
  495MOL0     H66819   9.836  -0.121   0.925  0.2791  0.8826 -0.3609
  495MOL0     H66820   9.893  -0.173   0.768  1.7025 -2.4122  1.4092
  495MOL0     H66821  10.096  -0.439   1.037  1.5373  0.4480 -2.0409
  495MOL0     H66822  10.323   0.210   1.334 -0.8213  3.3606  1.7970
  495MOL0     H66823  10.428   0.331   1.516 -1.7760  1.5472  0.9078
  495MOL0     H66824  10.605   0.360   1.489  0.5350 -0.0383 -0.6862
  495MOL0     H66825  10.481   0.491   1.468  1.3809 -0.0502 -1.9205
  496MOL0     O66826   9.028   7.492   8.387  0.5398  0.0331 -0.1635
  496MOL0     C66827   9.025   7.475   8.508  0.9568  0.5998 -0.0325
  496MOL0     O66828   8.913   7.476   8.589  0.3808  0.0785  0.1044
  496MOL0     C66829   8.795   7.537   8.551 -0.5263 -0.2819 -0.0596
  496MOL0     C66830   8.689   7.456   8.504 -0.2127  0.1738  0.2874
  496MOL0     C66831   8.557   7.509   8.482 -0.6812 -0.3837 -0.4725
  496MOL0     C66832   8.539   7.646   8.496 -0.6498 -0.5767  1.2943
  496MOL0     O66833   8.409   7.685   8.477 -0.2146  0.4426  0.3877
  496MOL0     C66834   8.382   7.822   8.515 -1.1751 -0.0561  0.1608
  496MOL0     C66835   8.235   7.853   8.509  0.0489  0.2822  0.1102
  496MOL0     C66836   8.177   7.866   8.367 -0.2261 -0.2683  0.2212
  496MOL0     C66837   8.034   7.925   8.377 -0.6600 -0.0227 -0.6558
  496MOL0     C66838   7.949   7.915   8.251 -0.1118  0.3919 -0.4231
  496MOL0     C66839   7.813   7.974   8.254  0.8298  0.0857 -0.9750
  496MOL0     C66840   7.740   7.947   8.123 -0.2279 -0.0112  0.1927
  496MOL0     C66841   7.766   8.049   8.009  0.2213  0.6078  0.6341
  496MOL0     N66842   7.720   7.987   7.883  0.9488 -0.2873  1.0793
  496MOL0     C66843   7.789   7.908   7.798  0.8248  0.1719  0.2337
  496MOL0     C66844   7.711   7.885   7.689 -0.0617  0.0130 -0.8204
  496MOL0     C66845   7.733   7.814   7.556 -0.2457  0.2173 -0.0327
  496MOL0     C66846   7.820   7.699   7.585  0.4442  0.7344 -0.2311
  496MOL0     C66847   7.926   7.685   7.485 -0.7996 -0.0611  0.1769
  496MOL0     C66848   8.060   7.761   7.523  0.2551  0.0087 -1.0647
  496MOL0     O66849   8.147   7.763   7.403 -0.3576  0.4732 -0.8094
  496MOL0     C66850   8.286   7.770   7.418  0.0429 -0.4089  0.2704
  496MOL0     C66851   8.358   7.789   7.533  0.1107  0.1432 -0.4659
  496MOL0     C66852   8.500   7.772   7.545 -1.1050  0.0423  0.8923
  496MOL0     C66853   8.578   7.779   7.430  0.4472 -0.7004  0.2364
  496MOL0     C66854   8.723   7.783   7.439 -0.0500  0.0038  0.2792
  496MOL0     O66855   8.797   7.764   7.322  0.5564  0.0079 -0.3627
  496MOL0     C66856   8.936   7.764   7.352 -0.1715 -0.9606  0.1690
  496MOL0     C66857   9.000   7.644   7.381  0.0829  0.0721  0.5868
  496MOL0     C66858   9.133   7.653   7.412 -0.1999  0.0888 -0.1378
  496MOL0     C66859   9.206   7.764   7.414  0.9901  0.4357  0.6583
  496MOL0     O66860   9.341   7.763   7.427  0.1886  0.0167  0.0055
  496MOL0     C66861   9.411   7.641   7.386  0.5204  0.1528  0.2975
  496MOL0     C66862   9.557   7.676   7.362 -0.3709  0.2245  0.6763
  496MOL0     C66863   9.577   7.780   7.247 -0.8746 -0.8324 -0.0734
  496MOL0     C66864   9.724   7.814   7.233 -0.0572  0.5834  0.4777
  496MOL0     C66865   9.748   7.939   7.137 -0.5282  0.4175  0.1716
  496MOL0     C66866   9.898   7.963   7.109 -0.5989  0.1697 -0.3439
  496MOL0     C66867   9.905   8.023   6.967 -1.1232  0.0537 -0.2360
  496MOL0     C66868  10.052   8.062   6.945 -0.4719  0.5399  0.2473
  496MOL0    Cl66869  10.066   8.102   6.771  0.3729 -0.2173 -0.2391
  496MOL0     C66870   9.143   7.888   7.390  0.7993  0.6245  0.4085
  496MOL0     C66871   9.005   7.884   7.362 -0.9633 -0.9852  0.8930
  496MOL0     O66872   8.767   7.786   7.553  0.5776 -0.0633  0.3466
  496MOL0     C66873   8.510   7.787   7.307  0.7178  0.1045  0.3163
  496MOL0     C66874   8.370   7.766   7.299  0.4464  0.2823 -0.4570
  496MOL0     N66875   7.584   7.937   7.715 -0.8162  0.0347 -0.8407
  496MOL0     N66876   7.592   8.003   7.828 -0.1386 -0.7088 -0.8353
  496MOL0     C66877   8.641   7.730   8.525 -0.5751 -0.1433  0.0663
  496MOL0     C66878   8.768   7.680   8.554  0.6929  1.0399  0.0494
  496MOL0     C66879   9.150   7.451   8.589  0.0708 -0.3538 -0.1799
  496MOL0     C66880   9.144   7.444   8.726 -0.2869  1.0336 -0.2395
  496MOL0     C66881   9.251   7.424   8.813  0.2203 -0.4814 -0.0002
  496MOL0     C66882   9.377   7.423   8.753 -0.0884  0.3717 -0.0033
  496MOL0     O66883   9.484   7.417   8.838  0.4403  0.2676  0.6534
  496MOL0     C66884   9.614   7.402   8.782 -0.2179  0.6047 -0.0223
  496MOL0     C66885   9.684   7.522   8.738  0.0391 -0.4937 -0.6902
  496MOL0     C66886   9.826   7.499   8.690 -0.0350 -0.4372  0.2427
  496MOL0     C66887   9.835   7.428   8.565 -0.0588  0.3056  0.5513
  496MOL0     C66888   9.963   7.432   8.485 -0.8340  0.8809 -0.3948
  496MOL0     C66889  10.067   7.435   8.416 -0.5753 -0.7901  0.6089
  496MOL0     C66890   9.387   7.432   8.609 -0.5095  0.5596  0.8630
  496MOL0     C66891   9.278   7.443   8.531  0.4621  1.0955  0.3319
  496MOL0     C66892   9.299   7.447   8.385  0.1818 -0.0392 -0.0237
  496MOL0     H66893   8.697   7.348   8.500 -3.7390 -0.1815 -1.2450
  496MOL0     H66894   8.473   7.448   8.448 -2.5520  1.3108  0.8768
  496MOL0     H66895   8.432   7.839   8.611  0.6216  2.7200 -1.1387
  496MOL0     H66896   8.429   7.895   8.449 -0.7475 -0.1874  0.3159
  496MOL0     H66897   8.226   7.939   8.576 -2.4398 -0.2103  0.5113
  496MOL0     H66898   8.175   7.784   8.570 -0.5654  1.8472  1.3517
  496MOL0     H66899   8.182   7.766   8.323  1.2765 -0.5221  0.8859
  496MOL0     H66900   8.245   7.931   8.311 -1.0612  1.5431  1.2571
  496MOL0     H66901   8.003   7.856   8.456  1.6945 -1.0492 -0.5586
  496MOL0     H66902   8.043   8.030   8.409  0.2089 -0.4909  0.7339
  496MOL0     H66903   8.007   7.950   8.165 -0.6749 -0.8345 -1.3349
  496MOL0     H66904   7.953   7.808   8.227  0.1895  0.6488 -1.5667
  496MOL0     H66905   7.758   7.939   8.342  0.6719 -0.1640 -1.1708
  496MOL0     H66906   7.807   8.083   8.261  1.6242  0.0907 -0.1736
  496MOL0     H66907   7.634   7.954   8.145  0.0974  1.3020  1.4911
  496MOL0     H66908   7.750   7.843   8.091 -1.3090 -0.0578 -0.0266
  496MOL0     H66909   7.718   8.146   8.027  1.3441  1.4376 -0.5818
  496MOL0     H66910   7.874   8.063   7.997  0.6068 -1.6812  0.9885
  496MOL0     H66911   7.890   7.870   7.807 -1.3919 -7.4912 -0.1375
  496MOL0     H66912   7.633   7.787   7.519 -1.1973  0.2583  2.3439
  496MOL0     H66913   7.784   7.880   7.486  0.5493 -1.3367 -0.9844
  496MOL0     H66914   7.872   7.712   7.680 -3.0509  3.2296  1.5798
  496MOL0     H66915   7.762   7.607   7.580  0.2142  0.9137 -1.0519
  496MOL0     H66916   7.883   7.707   7.387 -0.3100 -0.3345 -0.1084
  496MOL0     H66917   7.946   7.577   7.484  0.0229  0.0730 -1.1792
  496MOL0     H66918   8.104   7.719   7.613 -1.2440  0.8749  0.1118
  496MOL0     H66919   8.042   7.866   7.548  2.7628 -0.0068  1.2248
  496MOL0     H66920   8.299   7.803   7.623  0.5596 -0.0351 -0.1352
  496MOL0     H66921   8.552   7.781   7.639 -0.2495 -2.4483  0.7299
  496MOL0     H66922   8.951   7.548   7.364 -2.6836  1.8244 -2.4347
  496MOL0     H66923   9.179   7.556   7.425  0.3626  0.3698 -0.0148
  496MOL0     H66924   9.411   7.565   7.465  0.3089 -1.1720 -0.9274
  496MOL0     H66925   9.364   7.599   7.296 -0.8770  0.6993  0.7446
  496MOL0     H66926   9.590   7.724   7.454 -2.4416  2.6974  0.2331
  496MOL0     H66927   9.616   7.585   7.345 -1.0538 -0.0351 -0.4082
  496MOL0     H66928   9.524   7.755   7.155  0.9304 -3.4107 -0.5356
  496MOL0     H66929   9.526   7.867   7.289  1.2722  0.3337  0.2790
  496MOL0     H66930   9.790   7.740   7.185 -0.9936  0.7285 -1.0996
  496MOL0     H66931   9.757   7.835   7.335 -2.4542 -1.0397  1.6802
  496MOL0     H66932   9.697   8.032   7.163 -2.0010  0.1017 -1.3793
  496MOL0     H66933   9.697   7.926   7.041 -4.1869  0.6127  1.9100
  496MOL0     H66934   9.947   8.028   7.181  0.1202  0.1873 -0.8408
  496MOL0     H66935   9.953   7.869   7.097  0.3156  0.8821 -2.2185
  496MOL0     H66936   9.853   8.120   6.965  1.3961  1.4750 -0.9001
  496MOL0     H66937   9.864   7.955   6.892 -1.1603 -0.0505 -0.1220
  496MOL0     H66938  10.084   8.152   6.998 -0.6331  0.5359  0.3534
  496MOL0     H66939  10.123   7.982   6.966 -0.4610 -0.0338 -1.7501
  496MOL0     H66940   9.198   7.982   7.382  2.1544 -0.3053 -2.7103
  496MOL0     H66941   8.962   7.983   7.346  2.1480  0.4465  0.4936
  496MOL0     H66942   8.568   7.808   7.217  2.1154 -1.3833  0.8067
  496MOL0     H66943   8.303   7.758   7.214  0.9202 -2.1687 -0.6785
  496MOL0     H66944   8.631   7.838   8.523 -1.3952 -0.0512 -5.6216
  496MOL0     H66945   8.839   7.761   8.559 -2.0938  3.8406 -2.1680
  496MOL0     H66946   9.044   7.438   8.769 -0.5288  1.4521 -0.7275
  496MOL0     H66947   9.231   7.428   8.919  1.3022  2.9027  0.1944
  496MOL0     H66948   9.623   7.324   8.705 -1.2281  0.0855  0.3726
  496MOL0     H66949   9.679   7.369   8.864 -0.4146 -0.0553 -0.1253
  496MOL0     H66950   9.691   7.602   8.813  2.0600  1.3161 -2.6551
  496MOL0     H66951   9.612   7.560   8.665 -1.6685  0.4953  1.3987
  496MOL0     H66952   9.891   7.442   8.757  1.1656  2.5949  1.8694
  496MOL0     H66953   9.871   7.599   8.685 -1.7906  0.3574 -0.7029
  496MOL0     H66954   9.812   7.322   8.581  2.9724 -0.5908 -0.3897
  496MOL0     H66955   9.758   7.472   8.501 -0.6161  1.3955  1.9220
  496MOL0     H66956  10.164   7.447   8.374  0.7458 -1.1327  3.3729
  496MOL0     H66957   9.489   7.439   8.572 -0.1676 -1.2700  1.3547
  496MOL0     H66958   9.406   7.446   8.363  0.4331 -0.0369  1.1057
  496MOL0     H66959   9.255   7.370   8.323  1.8015  0.7416 -2.2681
  496MOL0     H66960   9.264   7.540   8.339  0.0896  0.2552  0.6213
  497MOL0     O66961   3.486   8.927   1.147 -0.4796  0.0707  0.6972
  497MOL0     C66962   3.479   9.022   1.070 -0.0754 -0.2988 -0.3716
  497MOL0     O66963   3.584   9.094   1.032  0.4267  0.4582  0.0127
  497MOL0     C66964   3.700   9.078   1.102  0.6156  0.2324 -1.0541
  497MOL0     C66965   3.773   8.963   1.075  0.4081  0.7173 -0.2042
  497MOL0     C66966   3.907   8.962   1.114  0.0923 -0.5356  0.0876
  497MOL0     C66967   3.960   9.068   1.189 -0.3217  0.0743 -0.4383
  497MOL0     O66968   4.087   9.042   1.229 -0.4823 -0.3219 -0.4588
  497MOL0     C66969   4.145   9.125   1.338 -0.0036  0.5277  0.0526
  497MOL0     C66970   4.211   9.251   1.278  0.5389 -0.0171  1.2939
  497MOL0     C66971   4.260   9.359   1.376  0.5465 -0.9551 -0.1475
  497MOL0     C66972   4.283   9.493   1.297 -0.2364 -0.2333  0.0318
  497MOL0     C66973   4.298   9.611   1.399 -0.2915  0.0442  0.1694
  497MOL0     C66974   4.423   9.611   1.492  0.0802  0.4203  0.5290
  497MOL0     C66975   4.553   9.578   1.411 -0.0745 -0.6003 -0.3785
  497MOL0     C66976   4.573   9.676   1.284  0.7397  0.3821 -0.0811
  497MOL0     N66977   4.622   9.809   1.313  0.3348  0.6171  0.6674
  497MOL0     C66978   4.753   9.836   1.358  0.5831 -0.7142  0.2135
  497MOL0     C66979   4.737   9.965   1.417  0.3782  0.5007  1.3606
  497MOL0     C66980   4.841  10.043   1.499 -0.3326  0.2537 -0.1215
  497MOL0     C66981   4.965  10.087   1.412  0.1473  0.6258  0.5198
  497MOL0     C66982   5.051  10.178   1.491 -0.4156 -0.0874  0.3063
  497MOL0     C66983   5.153  10.241   1.400 -0.0778 -0.3859 -0.6637
  497MOL0     O66984   5.204  10.349   1.479 -0.6857  0.8292  0.4366
  497MOL0     C66985   5.327  10.402   1.437  1.0237  0.0349 -0.4653
  497MOL0     C66986   5.407  10.373   1.324 -0.3164  0.4412 -0.3384
  497MOL0     C66987   5.532  10.423   1.313  0.1715  0.3919 -0.1269
  497MOL0     C66988   5.575  10.528   1.403  0.3731 -0.4484  0.3653
  497MOL0     C66989   5.696  10.601   1.372  0.6500  0.4872  0.9903
  497MOL0     O66990   5.747  10.684   1.472  0.2519  0.3169  0.3937
  497MOL0     C66991   5.858  10.755   1.436 -1.1112 -0.0100  0.2039
  497MOL0     C66992   5.866  10.887   1.481  0.3867  0.9515  0.8409
  497MOL0     C66993   5.983  10.956   1.454  0.0271 -0.4432 -0.1226
  497MOL0     C66994   6.092  10.903   1.392  0.0958 -0.2401 -0.1192
  497MOL0     O66995   6.199  10.983   1.383  0.0018 -0.2258  0.7009
  497MOL0     C66996   6.333  10.935   1.361  0.2140  1.0283  0.9060
  497MOL0     C66997   6.438  11.040   1.397 -0.9436  0.2552  0.5696
  497MOL0     C66998   6.582  10.997   1.358 -0.4999  1.1337 -0.5251
  497MOL0     C66999   6.678  11.064   1.446  0.5028  0.0516  0.0896
  497MOL0     C67000   6.822  11.040   1.408  0.0536  0.3991  0.1067
  497MOL0     C67001   6.860  10.897   1.387  0.3548  0.8944  1.0960
  497MOL0     C67002   7.015  10.890   1.369  0.4239  0.0245  0.8474
  497MOL0     C67003   7.058  10.855   1.224 -0.7310  0.9896  0.5307
  497MOL0    Cl67004   7.239  10.857   1.202 -0.4436  0.6273  0.0631
  497MOL0     C67005   6.082  10.772   1.360  0.2952  0.5872 -0.2330
  497MOL0     C67006   5.968  10.693   1.381  0.1725  0.2042 -0.0262
  497MOL0     O67007   5.731  10.599   1.255 -0.0603 -0.4381  0.3859
  497MOL0     C67008   5.490  10.576   1.501  0.5506  0.6128 -0.1897
  497MOL0     C67009   5.365  10.511   1.516  0.8172 -0.6545 -0.4741
  497MOL0     N67010   4.598  10.004   1.397 -0.7312  0.3789  0.2288
  497MOL0     N67011   4.535   9.911   1.339 -0.0607  0.2143  0.3625
  497MOL0     C67012   3.878   9.172   1.216 -0.0618  0.0380 -0.4896
  497MOL0     C67013   3.749   9.184   1.175 -0.5227  0.0825 -0.1554
  497MOL0     C67014   3.349   9.048   1.005 -0.8355  0.4952  0.6415
  497MOL0     C67015   3.341   9.149   0.908 -0.2114  0.3118 -0.3641
  497MOL0     C67016   3.228   9.173   0.831  1.1355  0.4697  0.3023
  497MOL0     C67017   3.119   9.087   0.839  0.0607 -0.1357  0.0188
  497MOL0     O67018   3.003   9.100   0.774  0.6982 -1.0432  0.3403
  497MOL0     C67019   2.993   9.204   0.673  0.2187 -1.1146 -0.6935
  497MOL0     C67020   2.855   9.196   0.612  0.1858 -0.6313  0.3466
  497MOL0     C67021   2.858   9.082   0.518 -0.2284  0.7863 -0.1936
  497MOL0     C67022   2.714   9.017   0.496  0.5937  0.5719  0.2480
  497MOL0     C67023   2.604   9.108   0.444  0.1350 -0.6984 -1.0719
  497MOL0     C67024   2.519   9.188   0.406 -0.8784  0.4571  1.9457
  497MOL0     C67025   3.123   8.981   0.925  0.4015  0.0479 -0.3790
  497MOL0     C67026   3.234   8.963   1.007  0.6308 -0.1376  0.3791
  497MOL0     C67027   3.219   8.852   1.097 -0.5864  0.0320 -0.3664
  497MOL0     H67028   3.736   8.881   1.016  0.0493 -0.1013  1.1093
  497MOL0     H67029   3.973   8.878   1.092  0.9220  0.1262  0.0109
  497MOL0     H67030   4.072   9.157   1.412  1.8054 -0.7368  2.5142
  497MOL0     H67031   4.218   9.077   1.404  1.4765  1.6046 -0.7540
  497MOL0     H67032   4.127   9.292   1.222 -4.3287 -3.8104  4.9508
  497MOL0     H67033   4.294   9.226   1.210  1.4230  2.9746  1.1537
  497MOL0     H67034   4.352   9.318   1.419  0.8586 -1.0190 -0.8595
  497MOL0     H67035   4.189   9.376   1.458  1.3236  1.2610  0.1350
  497MOL0     H67036   4.366   9.489   1.226 -0.5407 -3.5030 -0.2797
  497MOL0     H67037   4.190   9.520   1.246 -0.6131 -0.4312  0.6098
  497MOL0     H67038   4.294   9.711   1.354 -2.1933 -0.0153  0.1372
  497MOL0     H67039   4.207   9.625   1.458 -0.2111 -0.6091  0.4470
  497MOL0     H67040   4.442   9.709   1.536 -1.5222 -0.1382  2.6462
  497MOL0     H67041   4.393   9.544   1.573 -1.7844  1.0747  0.4184
  497MOL0     H67042   4.541   9.477   1.371  1.5977 -0.6062 -0.9380
  497MOL0     H67043   4.642   9.583   1.474 -1.3471 -0.3226  1.4973
  497MOL0     H67044   4.643   9.629   1.214 -1.2242  0.3333 -2.0852
  497MOL0     H67045   4.479   9.687   1.229 -0.5870  1.6784  2.2798
  497MOL0     H67046   4.840   9.771   1.358  0.3970 -1.1092 -2.9532
  497MOL0     H67047   4.792  10.133   1.535  1.4951  0.5438  1.8087
  497MOL0     H67048   4.884   9.985   1.581 -0.0212  0.0511 -0.4266
  497MOL0     H67049   5.021  10.006   1.364  0.7123  0.6910  1.0580
  497MOL0     H67050   4.923  10.148   1.331 -1.4001 -1.3029 -0.1988
  497MOL0     H67051   5.104  10.125   1.570 -1.2495  1.2109  1.7993
  497MOL0     H67052   4.984  10.254   1.533  0.6614  0.9766  0.1529
  497MOL0     H67053   5.109  10.286   1.311 -1.3971  2.8341  1.4450
  497MOL0     H67054   5.229  10.165   1.376 -1.0502 -2.3403  1.9622
  497MOL0     H67055   5.369  10.305   1.249 -2.6463  1.3794 -0.0652
  497MOL0     H67056   5.600  10.383   1.239  1.7811 -1.1492  2.0418
  497MOL0     H67057   5.786  10.938   1.534  0.0291  1.1418  0.1309
  497MOL0     H67058   5.986  11.062   1.481 -2.6411  0.1223 -1.7214
  497MOL0     H67059   6.356  10.847   1.422 -0.6554  0.0918 -0.0678
  497MOL0     H67060   6.358  10.899   1.261  1.0024  2.5102  0.5539
  497MOL0     H67061   6.430  11.137   1.348 -0.7592  1.6769  3.1260
  497MOL0     H67062   6.430  11.061   1.504 -0.0822  1.3973  0.4298
  497MOL0     H67063   6.581  10.888   1.359 -1.8603  1.1141 -1.3545
  497MOL0     H67064   6.598  11.021   1.252  1.2694  1.3430 -0.2415
  497MOL0     H67065   6.650  11.030   1.546  0.9174 -1.2825 -0.2247
  497MOL0     H67066   6.662  11.172   1.448  2.8675  0.4450  0.7445
  497MOL0     H67067   6.888  11.079   1.486 -1.1738  1.4647  0.6375
  497MOL0     H67068   6.835  11.093   1.313 -2.8380 -0.1953 -0.7175
  497MOL0     H67069   6.822  10.833   1.467  1.0501 -0.6206  0.2790
  497MOL0     H67070   6.816  10.856   1.295 -0.8020  0.9771  1.5919
  497MOL0     H67071   7.052  10.816   1.440  1.8361  0.9089  1.0851
  497MOL0     H67072   7.073  10.978   1.398  1.1529  0.7717 -2.4464
  497MOL0     H67073   7.011  10.758   1.205 -0.7507  0.1170  4.1845
  497MOL0     H67074   7.009  10.932   1.164  1.4256  2.3656  0.4289
  497MOL0     H67075   6.167  10.715   1.323 -0.2149  0.3374 -1.0253
  497MOL0     H67076   5.959  10.589   1.352  2.3514 -1.0599  3.1896
  497MOL0     H67077   5.522  10.649   1.575 -0.4677  0.5922  0.2889
  497MOL0     H67078   5.291  10.535   1.592  1.2980  0.1065 -0.2320
  497MOL0     H67079   3.911   9.251   1.284  0.2116 -0.1279 -0.4292
  497MOL0     H67080   3.692   9.274   1.196  0.0038 -0.4085  4.2045
  497MOL0     H67081   3.428   9.211   0.887 -0.7755  1.3193  0.1786
  497MOL0     H67082   3.226   9.251   0.755 -2.5148 -0.2287 -0.4905
  497MOL0     H67083   3.078   9.211   0.606  3.3381  1.1962  3.0626
  497MOL0     H67084   3.010   9.291   0.736  3.8201 -1.7194 -0.6603
  497MOL0     H67085   2.825   9.290   0.566  0.6837 -0.6370 -0.0088
  497MOL0     H67086   2.778   9.192   0.689  0.3419 -2.2477  0.4627
  497MOL0     H67087   2.911   8.994   0.555 -3.6426 -1.9398 -1.1418
  497MOL0     H67088   2.889   9.093   0.414 -1.9315 -2.7154 -1.2439
  497MOL0     H67089   2.722   8.941   0.418 -3.9370  1.1358 -1.0356
  497MOL0     H67090   2.691   8.961   0.587  2.3762 -2.4687 -1.0273
  497MOL0     H67091   2.434   9.236   0.362  0.2976 -0.3555 -1.4972
  497MOL0     H67092   3.036   8.917   0.925  1.3199 -1.2390 -0.6764
  497MOL0     H67093   3.233   8.873   1.203  0.2463 -3.1852  0.2813
  497MOL0     H67094   3.115   8.817   1.105 -0.4265 -0.0308  2.6439
  497MOL0     H67095   3.286   8.769   1.070  0.7629  0.4546  1.5158
  498MOL0     O67096   0.524   4.009   8.616  0.0042  0.0800  0.4229
  498MOL0     C67097   0.458   4.107   8.564  0.3546  0.0580  0.2377
  498MOL0     O67098   0.499   4.225   8.553  0.0889 -0.1995 -0.7859
  498MOL0     C67099   0.615   4.258   8.631  0.0475  0.3302 -0.2715
  498MOL0     C67100   0.599   4.289   8.761 -0.0623  0.5592 -0.5423
  498MOL0     C67101   0.702   4.320   8.846 -0.1195 -0.4057  0.1444
  498MOL0     C67102   0.831   4.311   8.805 -0.2746  0.4291 -0.1633
  498MOL0     O67103   0.941   4.349   8.877 -0.1412  0.2317  0.7706
  498MOL0     C67104   0.915   4.372   9.012  0.9141  0.2795  0.1084
  498MOL0     C67105   1.028   4.393   9.113  0.5319 -0.0999  0.8631
  498MOL0     C67106   1.153   4.459   9.048  0.8499 -0.1415 -0.2554
  498MOL0     C67107   1.258   4.488   9.155  0.2258 -0.0068  0.4569
  498MOL0     C67108   1.341   4.598   9.113  0.4012 -1.0326  0.1201
  498MOL0     C67109   1.406   4.575   8.969 -0.1979 -0.5221 -0.7707
  498MOL0     C67110   1.543   4.640   8.945 -0.1220 -0.3968 -0.0418
  498MOL0     C67111   1.595   4.617   8.804  0.3661  0.1631 -0.4232
  498MOL0     N67112   1.736   4.637   8.789  0.2413  0.2379  0.0643
  498MOL0     C67113   1.837   4.559   8.841 -0.5683 -0.4950  0.3624
  498MOL0     C67114   1.946   4.640   8.822  0.0516  0.2648 -1.0596
  498MOL0     C67115   2.083   4.594   8.883 -0.6789  0.6450 -0.3290
  498MOL0     C67116   2.180   4.577   8.766 -0.5209 -0.1581  0.4148
  498MOL0     C67117   2.325   4.532   8.816 -0.8287 -0.6672 -0.1685
  498MOL0     C67118   2.427   4.557   8.710 -0.5437 -0.0724 -0.1146
  498MOL0     O67119   2.516   4.445   8.701  0.2427  0.4592  0.2122
  498MOL0     C67120   2.626   4.444   8.615 -0.5551 -0.5109 -0.1098
  498MOL0     C67121   2.716   4.339   8.608 -0.1382  0.0363  0.2742
  498MOL0     C67122   2.831   4.343   8.534 -0.4117 -0.4663 -0.1097
  498MOL0     C67123   2.858   4.447   8.441  0.5196 -0.3413  0.4849
  498MOL0     C67124   2.979   4.440   8.348 -0.0761  0.0477 -0.9071
  498MOL0     O67125   3.004   4.323   8.282  0.2044  0.7416  0.4590
  498MOL0     C67126   3.135   4.287   8.246  0.4171 -0.3946  0.6692
  498MOL0     C67127   3.160   4.271   8.111 -0.5813  0.4439 -0.2991
  498MOL0     C67128   3.289   4.247   8.070 -0.0083  0.5062  0.6039
  498MOL0     C67129   3.391   4.233   8.166 -0.2024  0.1365  0.6059
  498MOL0     O67130   3.523   4.235   8.127 -0.1635 -0.3165  0.7874
  498MOL0     C67131   3.631   4.195   8.214  0.0503 -0.1588  0.3558
  498MOL0     C67132   3.766   4.211   8.132 -0.0676 -0.0092 -0.2785
  498MOL0     C67133   3.877   4.154   8.226  0.4489 -0.3493 -0.3123
  498MOL0     C67134   4.014   4.194   8.168  0.0852  0.0178 -0.3985
  498MOL0     C67135   4.112   4.086   8.226 -0.5184 -0.5465  0.3903
  498MOL0     C67136   4.250   4.109   8.159  0.2678 -0.0514 -1.0661
  498MOL0     C67137   4.367   4.029   8.212  0.2156 -0.6562  0.4500
  498MOL0     C67138   4.482   4.135   8.231 -0.1265  0.1146  0.4358
  498MOL0    Cl67139   4.547   4.203   8.072  0.0625  0.4932 -0.0811
  498MOL0     C67140   3.366   4.243   8.301  0.9048  0.2812  0.1994
  498MOL0     C67141   3.237   4.276   8.343 -0.2198  0.4065  0.3343
  498MOL0     O67142   3.054   4.536   8.344 -0.2581  0.5266  0.5964
  498MOL0     C67143   2.762   4.557   8.437 -0.2036 -0.1150 -0.0602
  498MOL0     C67144   2.655   4.552   8.526 -0.3284 -0.0405 -0.1683
  498MOL0     N67145   1.912   4.758   8.760 -0.1795 -0.4611  0.0604
  498MOL0     N67146   1.776   4.762   8.751 -0.3563 -0.1570  0.8453
  498MOL0     C67147   0.850   4.269   8.669 -0.2711  0.3688  0.5643
  498MOL0     C67148   0.743   4.253   8.583  0.6436 -0.0251 -0.0286
  498MOL0     C67149   0.326   4.074   8.490  0.1155 -0.6178  1.2052
  498MOL0     C67150   0.331   3.968   8.394 -0.0913 -1.0052  0.3218
  498MOL0     C67151   0.206   3.925   8.344  0.5833 -1.2871  0.2344
  498MOL0     C67152   0.084   3.997   8.369 -0.0708  0.5555  0.7802
  498MOL0     O67153  -0.028   3.945   8.305 -0.3841 -0.3516  1.0475
  498MOL0     C67154  -0.159   3.979   8.357  0.1810 -0.3352  0.6601
  498MOL0     C67155  -0.251   3.877   8.281 -0.5431  0.2526  0.2304
  498MOL0     C67156  -0.397   3.909   8.303 -0.8346 -0.0275 -0.8994
  498MOL0     C67157  -0.495   3.833   8.226  0.8282  0.2236 -0.2959
  498MOL0     C67158  -0.630   3.839   8.289  0.5053  0.0186 -0.9032
  498MOL0     C67159  -0.738   3.828   8.346  0.0491  0.3951  0.4006
  498MOL0     C67160   0.087   4.098   8.465  0.0400 -0.3201  0.0933
  498MOL0     C67161   0.203   4.141   8.517 -0.7407 -0.4246 -0.4115
  498MOL0     C67162   0.195   4.251   8.619  0.3918 -1.0075 -0.2280
  498MOL0     H67163   0.505   4.304   8.813  1.1820  4.1703  0.9719
  498MOL0     H67164   0.675   4.372   8.938  1.3703  0.2711  0.2408
  498MOL0     H67165   0.867   4.470   9.009 -1.1399 -0.5372  2.5724
  498MOL0     H67166   0.851   4.299   9.062  0.6400  0.6964  0.3745
  498MOL0     H67167   1.049   4.298   9.162  3.7154  1.6061  3.1001
  498MOL0     H67168   0.995   4.459   9.194  1.1863 -1.0809  1.9521
  498MOL0     H67169   1.120   4.552   9.000 -2.0723  0.6344  2.8713
  498MOL0     H67170   1.204   4.397   8.973  0.4242 -0.1891 -0.5066
  498MOL0     H67171   1.204   4.505   9.248 -0.5333  2.3842 -0.3397
  498MOL0     H67172   1.319   4.399   9.169 -0.5316 -1.0714 -2.2778
  498MOL0     H67173   1.282   4.690   9.108 -0.2875 -1.4858 -0.1458
  498MOL0     H67174   1.418   4.604   9.190 -0.4166 -0.5333  0.9144
  498MOL0     H67175   1.424   4.470   8.944  1.1279 -0.1152 -1.6236
  498MOL0     H67176   1.336   4.614   8.894 -0.1573 -0.0643 -0.5761
  498MOL0     H67177   1.617   4.602   9.015  0.1634 -1.0340 -0.6719
  498MOL0     H67178   1.524   4.745   8.968  0.7657 -0.7137  2.4361
  498MOL0     H67179   1.580   4.510   8.785 -2.0614  0.1467  1.0664
  498MOL0     H67180   1.532   4.669   8.732 -0.3756 -1.9019 -1.3332
  498MOL0     H67181   1.840   4.472   8.906  3.0468 -1.4672 -0.8422
  498MOL0     H67182   2.104   4.680   8.948 -3.7855  0.5604  0.9824
  498MOL0     H67183   2.078   4.500   8.938  1.3059 -0.4824 -1.9537
  498MOL0     H67184   2.146   4.510   8.687 -3.2090 -1.3691  2.4081
  498MOL0     H67185   2.178   4.675   8.717 -5.2809 -0.0851  0.2911
  498MOL0     H67186   2.321   4.429   8.853 -1.9602  0.3210  2.8148
  498MOL0     H67187   2.357   4.592   8.902 -1.1961 -0.7168  0.0049
  498MOL0     H67188   2.490   4.644   8.731  1.3706 -1.1075 -1.3218
  498MOL0     H67189   2.373   4.573   8.616  2.1776  1.9749 -1.4848
  498MOL0     H67190   2.691   4.251   8.667 -1.7913  0.9072  0.9396
  498MOL0     H67191   2.904   4.264   8.540 -1.1469 -1.0520  2.5631
  498MOL0     H67192   3.070   4.274   8.050 -1.8794 -2.5669  1.2216
  498MOL0     H67193   3.309   4.237   7.964  0.1108 -0.6894  0.7244
  498MOL0     H67194   3.644   4.268   8.294  1.4308  0.6961 -0.5918
  498MOL0     H67195   3.601   4.093   8.242 -2.9741  0.9694  1.5430
  498MOL0     H67196   3.750   4.167   8.033 -1.6451  1.2654 -0.6283
  498MOL0     H67197   3.781   4.318   8.112 -1.2534  0.0596 -0.8986
  498MOL0     H67198   3.870   4.187   8.330 -0.0730  0.8135 -0.6931
  498MOL0     H67199   3.852   4.047   8.229  0.2320 -0.2699  1.1182
  498MOL0     H67200   4.046   4.294   8.198 -3.1539 -0.2514  5.2398
  498MOL0     H67201   4.017   4.185   8.059 -0.8846  0.8759 -0.5074
  498MOL0     H67202   4.078   3.986   8.195  0.0986 -0.7139  0.2315
  498MOL0     H67203   4.120   4.087   8.335  2.7743 -2.0633  0.3103
  498MOL0     H67204   4.243   4.095   8.050 -1.9885 -0.2289 -0.9497
  498MOL0     H67205   4.272   4.216   8.168  0.9791 -0.3722  1.6103
  498MOL0     H67206   4.398   3.945   8.150 -3.7945 -1.6326 -0.4962
  498MOL0     H67207   4.336   3.989   8.309 -2.9699  0.6545  0.1042
  498MOL0     H67208   4.450   4.219   8.292  2.9286 -1.3983  4.6180
  498MOL0     H67209   4.569   4.085   8.275 -0.0544  1.3701  1.7644
  498MOL0     H67210   3.441   4.227   8.378  0.4041  1.3127  0.9408
  498MOL0     H67211   3.230   4.281   8.451 -1.4257 -1.3975  0.3682
  498MOL0     H67212   2.784   4.643   8.375  1.2767  0.7496  1.5671
  498MOL0     H67213   2.596   4.643   8.522 -1.6121 -0.7416  1.5768
  498MOL0     H67214   0.948   4.264   8.623 -0.1049  0.0554  0.9487
  498MOL0     H67215   0.770   4.251   8.478 -0.1525  2.7644 -0.3772
  498MOL0     H67216   0.422   3.910   8.378  1.5453  1.4013  0.4527
  498MOL0     H67217   0.201   3.843   8.273 -3.4775  0.5785 -1.9469
  498MOL0     H67218  -0.199   4.076   8.326 -3.1573 -2.0378 -0.8497
  498MOL0     H67219  -0.171   3.976   8.465  0.0418 -1.0849  0.6328
  498MOL0     H67220  -0.229   3.775   8.314 -0.1283  0.8171  1.7601
  498MOL0     H67221  -0.234   3.892   8.174  1.7853 -1.1290  0.3363
  498MOL0     H67222  -0.418   4.010   8.264 -1.9843 -0.3087 -1.0663
  498MOL0     H67223  -0.407   3.901   8.411  2.4308 -2.3583 -0.6279
  498MOL0     H67224  -0.491   3.862   8.121 -2.0920  0.3218 -0.4577
  498MOL0     H67225  -0.461   3.730   8.239  2.9409  1.0048  0.9194
  498MOL0     H67226  -0.836   3.827   8.389  0.1864 -2.0520  0.8308
  498MOL0     H67227  -0.013   4.129   8.496 -1.3926  2.2426 -5.7289
  498MOL0     H67228   0.281   4.317   8.605  0.6447 -0.7063  2.2601
  498MOL0     H67229   0.111   4.321   8.613  1.7726  0.9583  2.0418
  498MOL0     H67230   0.207   4.203   8.717  4.6597 -0.6008 -0.3711
  499MOL0     O67231   5.089   6.240   9.470  0.7988  0.3471  0.7063
  499MOL0     C67232   5.063   6.236   9.585  0.8343 -0.1087 -0.1744
  499MOL0     O67233   5.067   6.118   9.664  0.4177  0.0134 -0.2651
  499MOL0     C67234   5.120   5.999   9.623 -0.1994  0.4738  0.6260
  499MOL0     C67235   5.263   5.981   9.620  0.2122 -0.4808  0.0660
  499MOL0     C67236   5.326   5.863   9.593 -0.7167 -0.2768 -0.0806
  499MOL0     C67237   5.246   5.752   9.579  0.4114  0.4537  0.8315
  499MOL0     O67238   5.290   5.618   9.567  0.4180 -0.1028  0.4765
  499MOL0     C67239   5.434   5.585   9.552 -0.1497  0.7473 -0.1361
  499MOL0     C67240   5.448   5.491   9.436 -0.6416 -0.3948  0.6063
  499MOL0     C67241   5.596   5.441   9.405  0.4275  0.0277  0.0984
  499MOL0     C67242   5.645   5.365   9.536 -0.2904 -0.0482 -0.6159
  499MOL0     C67243   5.799   5.330   9.514  0.7028 -0.2132 -0.2055
  499MOL0     C67244   5.840   5.260   9.647  0.0453 -0.4182  0.0514
  499MOL0     C67245   5.988   5.244   9.669 -0.1475  0.1947 -0.6358
  499MOL0     C67246   6.045   5.152   9.571 -0.5569 -0.7486 -0.2608
  499MOL0     N67247   6.194   5.146   9.598 -0.1488  0.2806 -0.3282
  499MOL0     C67248   6.253   5.086   9.706  0.0659 -0.1717  0.2662
  499MOL0     C67249   6.386   5.103   9.691  0.5395 -0.0139  0.2663
  499MOL0     C67250   6.488   5.055   9.794  0.0145 -0.0211  0.5688
  499MOL0     C67251   6.622   5.119   9.752  0.5177 -0.0628  0.0666
  499MOL0     C67252   6.745   5.057   9.827  0.1983 -0.4630  0.4289
  499MOL0     C67253   6.770   4.914   9.808 -0.7483 -0.3273 -0.7642
  499MOL0     O67254   6.895   4.887   9.875 -0.5112 -0.4398 -0.4215
  499MOL0     C67255   7.012   4.873   9.811 -0.1041 -0.7237  0.1670
  499MOL0     C67256   7.108   4.796   9.870 -1.0253 -0.5946 -0.5992
  499MOL0     C67257   7.232   4.796   9.804 -0.6358  0.1503  0.6983
  499MOL0     C67258   7.262   4.860   9.678  0.1813 -0.0675 -0.1142
  499MOL0     C67259   7.397   4.871   9.622  0.6384 -0.6467  0.0080
  499MOL0     O67260   7.405   4.911   9.491 -0.5601 -0.5926 -0.3580
  499MOL0     C67261   7.525   4.896   9.432 -0.0964 -0.1486 -0.4352
  499MOL0     C67262   7.628   5.001   9.446  0.1870  0.2511 -0.0473
  499MOL0     C67263   7.752   4.991   9.378  0.1593 -0.4188 -0.3132
  499MOL0     C67264   7.779   4.877   9.301  0.6562 -0.7715  0.6533
  499MOL0     O67265   7.900   4.874   9.246 -0.5181 -0.2141  0.3131
  499MOL0     C67266   7.957   4.740   9.258  0.0502 -0.1221 -0.5439
  499MOL0     C67267   8.077   4.731   9.162 -0.0046  0.2756  0.5035
  499MOL0     C67268   8.205   4.796   9.209 -0.2447 -0.1988 -0.2368
  499MOL0     C67269   8.202   4.942   9.211  0.0053 -0.0706  0.1707
  499MOL0     C67270   8.151   5.012   9.086  0.1092  0.2024  0.1644
  499MOL0     C67271   8.166   5.170   9.112  0.0575 -0.4477 -0.1827
  499MOL0     C67272   8.087   5.223   9.235 -0.1500  0.1539  0.7686
  499MOL0     C67273   8.112   5.375   9.242  0.3923  0.1646  0.1501
  499MOL0    Cl67274   8.281   5.418   9.289 -0.5422 -0.0953  0.0025
  499MOL0     C67275   7.676   4.775   9.284  0.5955 -0.5999 -0.2344
  499MOL0     C67276   7.544   4.796   9.344 -0.7923 -0.0986  0.2992
  499MOL0     O67277   7.490   4.822   9.682  0.1583 -0.1996  0.3666
  499MOL0     C67278   7.153   4.912   9.615  0.1112 -0.0721 -0.0248
  499MOL0     C67279   7.029   4.931   9.681 -0.3534  0.1765  0.7116
  499MOL0     N67280   6.402   5.187   9.581 -0.1434 -0.1587 -0.3995
  499MOL0     N67281   6.288   5.216   9.525  0.2491 -0.4895  1.0604
  499MOL0     C67282   5.107   5.764   9.576 -0.0631 -1.4148  0.5919
  499MOL0     C67283   5.042   5.882   9.598  0.4443  0.5663  0.0450
  499MOL0     C67284   5.040   6.367   9.654  0.3263 -0.0415 -0.4681
  499MOL0     C67285   5.012   6.352   9.786  0.6006 -0.4668  0.0583
  499MOL0     C67286   4.994   6.462   9.872 -0.0431 -0.1297 -0.4129
  499MOL0     C67287   5.017   6.591   9.823 -0.9898 -0.3598 -0.0669
  499MOL0     O67288   5.001   6.700   9.909  1.0976  0.4936 -0.5775
  499MOL0     C67289   4.990   6.828   9.848 -0.6225  0.4478  0.8933
  499MOL0     C67290   4.961   6.936   9.944 -0.1701 -0.0981 -0.4186
  499MOL0     C67291   4.843   6.905  10.040 -0.4530 -0.3413 -0.2165
  499MOL0     C67292   4.788   7.041  10.098 -0.0984  0.0248 -0.0384
  499MOL0     C67293   4.700   7.016  10.204  0.3659  1.0179  0.3609
  499MOL0     C67294   4.611   7.008  10.288 -0.4518  0.4719  0.1384
  499MOL0     C67295   5.034   6.610   9.685 -0.3756  0.8531 -0.3301
  499MOL0     C67296   5.042   6.503   9.604  0.0993 -0.9186 -0.7143
  499MOL0     C67297   5.063   6.533   9.461 -0.5768 -0.4835  0.2424
  499MOL0     H67298   5.314   6.075   9.638 -0.3513  1.0144 -4.6883
  499MOL0     H67299   5.433   5.847   9.606 -0.4600  0.5250 -1.1002
  499MOL0     H67300   5.505   5.668   9.541  2.6858 -1.7317 -1.9711
  499MOL0     H67301   5.460   5.531   9.643 -2.4173  0.3738  0.3583
  499MOL0     H67302   5.411   5.529   9.340  2.0276  1.1188  0.0502
  499MOL0     H67303   5.382   5.409   9.465  0.1715 -2.0444 -1.8925
  499MOL0     H67304   5.661   5.524   9.375 -0.9170  0.8253 -0.7338
  499MOL0     H67305   5.598   5.364   9.327 -1.4281  0.3862 -0.3412
  499MOL0     H67306   5.639   5.433   9.622  2.0719  2.2565 -2.1204
  499MOL0     H67307   5.584   5.275   9.550 -1.8946  1.0936  0.1278
  499MOL0     H67308   5.810   5.251   9.440 -1.8551  1.0066 -2.0612
  499MOL0     H67309   5.867   5.413   9.491  1.0247  0.6413  3.1831
  499MOL0     H67310   5.801   5.316   9.732  0.6720  2.4287 -1.3974
  499MOL0     H67311   5.795   5.161   9.651  0.5132 -0.6130  0.4916
  499MOL0     H67312   6.001   5.209   9.772  4.4295  0.4946 -0.9069
  499MOL0     H67313   6.033   5.342   9.650  0.0169  0.1277 -0.5908
  499MOL0     H67314   6.010   5.051   9.595  3.3848 -2.1349  0.3900
  499MOL0     H67315   6.014   5.189   9.473  0.0501 -1.1660 -0.6122
  499MOL0     H67316   6.206   5.042   9.794 -1.1292 -3.0465 -1.6706
  499MOL0     H67317   6.452   5.089   9.891 -2.3104 -0.9314  0.0838
  499MOL0     H67318   6.502   4.947   9.784 -1.0741 -0.0506 -0.9518
  499MOL0     H67319   6.649   5.098   9.648  1.8297 -0.2099  0.4176
  499MOL0     H67320   6.617   5.229   9.750 -4.6806 -0.0222 -2.7001
  499MOL0     H67321   6.730   5.082   9.932  1.2049  1.6752  0.1050
  499MOL0     H67322   6.830   5.117   9.794  0.2617  0.7914  2.6836
  499MOL0     H67323   6.774   4.877   9.706 -0.2989  1.6037 -1.4922
  499MOL0     H67324   6.697   4.852   9.860 -0.3328 -1.1787 -1.1856
  499MOL0     H67325   7.096   4.751   9.968  1.1427  0.4586  0.2084
  499MOL0     H67326   7.316   4.741   9.846 -0.3211 -1.1615 -1.5027
  499MOL0     H67327   7.610   5.092   9.502  0.9834  0.4831 -0.1564
  499MOL0     H67328   7.822   5.073   9.376 -1.5091  1.1303  0.9383
  499MOL0     H67329   7.990   4.716   9.360  1.3085 -1.2968 -1.1999
  499MOL0     H67330   7.885   4.662   9.230 -0.5336  0.8060 -1.7079
  499MOL0     H67331   8.086   4.622   9.153 -1.8313 -0.1907  3.0159
  499MOL0     H67332   8.051   4.763   9.061  0.6967 -0.8645 -0.0628
  499MOL0     H67333   8.224   4.770   9.313  0.4462 -0.7783 -0.5019
  499MOL0     H67334   8.296   4.756   9.163 -0.7970 -2.5140  0.5516
  499MOL0     H67335   8.308   4.967   9.224  0.2293 -0.6468 -0.5506
  499MOL0     H67336   8.133   4.972   9.291 -2.0234 -3.3563 -0.1753
  499MOL0     H67337   8.044   4.989   9.076 -0.2980  1.8977  0.4256
  499MOL0     H67338   8.200   4.980   8.994 -0.0983 -1.1015  0.4729
  499MOL0     H67339   8.273   5.191   9.119 -0.3133  2.1469 -1.1585
  499MOL0     H67340   8.132   5.225   9.024  2.0812 -0.7083 -1.1874
  499MOL0     H67341   8.119   5.171   9.327  0.0729 -0.7795  0.1776
  499MOL0     H67342   7.983   5.205   9.207 -0.6528  4.1822 -0.5824
  499MOL0     H67343   8.081   5.437   9.158  3.9813  2.4433  0.2873
  499MOL0     H67344   8.044   5.410   9.321  0.1248  0.7591 -0.3288
  499MOL0     H67345   7.688   4.689   9.219 -1.5735  0.2560 -1.8879
  499MOL0     H67346   7.455   4.741   9.314 -2.8432  2.5047  1.3069
  499MOL0     H67347   7.168   4.969   9.524  1.0177 -2.3563 -1.3668
  499MOL0     H67348   6.946   4.988   9.641 -0.9122  1.2049  3.1420
  499MOL0     H67349   5.059   5.668   9.563  0.7491 -2.1052  2.3864
  499MOL0     H67350   4.934   5.886   9.612  0.5556 -1.5268  2.1403
  499MOL0     H67351   4.991   6.255   9.829  0.0850 -1.6791 -2.7211
  499MOL0     H67352   4.964   6.452   9.976  1.5033 -1.8012 -0.0849
  499MOL0     H67353   4.899   6.828   9.787 -1.6348 -0.5291  2.3204
  499MOL0     H67354   5.082   6.848   9.793 -1.7248  2.0999 -0.4702
  499MOL0     H67355   4.943   7.024   9.881 -1.3211  0.7433  1.0070
  499MOL0     H67356   5.037   6.962  10.019 -0.8361  2.5716 -0.5523
  499MOL0     H67357   4.883   6.833  10.112  3.3136 -1.0165 -2.7022
  499MOL0     H67358   4.763   6.857   9.983 -0.7319 -0.0579 -0.0667
  499MOL0     H67359   4.872   7.107  10.119 -1.1648  1.7245 -0.9086
  499MOL0     H67360   4.735   7.082  10.012 -0.3669 -3.8967 -1.9847
  499MOL0     H67361   4.538   7.022  10.365 -0.6627  0.8198 -0.1253
  499MOL0     H67362   5.042   6.709   9.640  0.3446 -0.0015 -2.1803
  499MOL0     H67363   5.153   6.489   9.415 -2.8997 -2.5427 -2.7116
  499MOL0     H67364   4.982   6.487   9.404 -0.3643 -0.0512 -0.4151
  499MOL0     H67365   5.067   6.641   9.447  3.2773 -0.4602  0.2065
  500MOL0     O67366   7.119   2.711   3.521 -0.2611 -0.5620 -0.3370
  500MOL0     C67367   7.118   2.627   3.611 -0.5036 -0.1173  0.1299
  500MOL0     O67368   7.012   2.546   3.641 -0.7486 -0.1551  0.2603
  500MOL0     C67369   6.892   2.578   3.586 -0.1046 -0.3801  1.0705
  500MOL0     C67370   6.851   2.537   3.454 -1.2246  0.0762 -0.1478
  500MOL0     C67371   6.717   2.537   3.409 -0.2954 -1.1940 -0.0812
  500MOL0     C67372   6.623   2.608   3.488 -0.1883  0.3739 -0.1247
  500MOL0     O67373   6.493   2.636   3.452 -0.5158  0.4212 -0.4734
  500MOL0     C67374   6.486   2.650   3.316  0.2651  0.1702  0.0029
  500MOL0     C67375   6.361   2.746   3.307  0.3041  0.1063  0.1019
  500MOL0     C67376   6.380   2.888   3.349  0.2148  0.3772 -0.2039
  500MOL0     C67377   6.275   2.979   3.293 -0.1528 -0.8086 -0.1439
  500MOL0     C67378   6.166   3.032   3.390 -0.2620 -0.1476 -0.2095
  500MOL0     C67379   6.040   3.075   3.299 -0.6957 -0.0389 -0.4308
  500MOL0     C67380   5.953   3.153   3.411  0.0351  0.7130 -0.7936
  500MOL0     C67381   5.816   3.156   3.354  0.1535  0.9323 -0.5367
  500MOL0     N67382   5.755   3.026   3.321 -0.1855  0.0915 -0.0054
  500MOL0     C67383   5.683   3.003   3.199  0.4656  0.4128 -1.3979
  500MOL0     C67384   5.622   2.884   3.223 -0.3944  0.3822  0.3117
  500MOL0     C67385   5.535   2.798   3.133  0.2354  0.0085  0.2423
  500MOL0     C67386   5.446   2.688   3.202  0.2367  0.4689  0.2116
  500MOL0     C67387   5.354   2.624   3.101 -0.6401  0.6352  0.5094
  500MOL0     C67388   5.269   2.509   3.144 -0.2871  0.0960 -0.6788
  500MOL0     O67389   5.172   2.574   3.236  0.4749  0.2847 -0.0871
  500MOL0     C67390   5.063   2.501   3.269 -0.0661 -0.1081  0.4047
  500MOL0     C67391   4.948   2.573   3.290  0.5232  0.7178 -0.0943
  500MOL0     C67392   4.821   2.517   3.314  0.4745  0.7032  0.0689
  500MOL0     C67393   4.801   2.380   3.284 -1.0877  0.8463  0.6641
  500MOL0     C67394   4.662   2.317   3.289  1.3662  0.4429  0.4067
  500MOL0     O67395   4.556   2.406   3.269 -0.6495  0.0426  0.0241
  500MOL0     C67396   4.425   2.378   3.297  0.1912 -0.0657 -0.5162
  500MOL0     C67397   4.369   2.268   3.364  0.3642 -0.6746 -0.2309
  500MOL0     C67398   4.224   2.260   3.380 -0.4858  0.1446 -0.5328
  500MOL0     C67399   4.137   2.348   3.316 -0.4389 -0.5983 -0.8661
  500MOL0     O67400   4.000   2.341   3.327  0.4747 -0.3668 -0.3925
  500MOL0     C67401   3.936   2.214   3.355  0.7516 -0.1432 -0.3632
  500MOL0     C67402   3.796   2.236   3.316  0.0622 -0.1855 -0.4090
  500MOL0     C67403   3.705   2.106   3.333 -0.1253  0.3056 -0.3802
  500MOL0     C67404   3.727   1.987   3.229  1.0708  0.5858  0.3622
  500MOL0     C67405   3.803   1.872   3.287  0.1089  0.2088 -0.5617
  500MOL0     C67406   3.714   1.796   3.394 -0.3852 -0.1964  0.5459
  500MOL0     C67407   3.766   1.656   3.406  0.1478 -0.3311 -0.0060
  500MOL0     C67408   3.710   1.576   3.510  0.2223 -0.1357 -0.3779
  500MOL0    Cl67409   3.743   1.642   3.678 -0.2199 -0.1921  0.0534
  500MOL0     C67410   4.198   2.459   3.259  0.3349  0.6577  0.2481
  500MOL0     C67411   4.333   2.475   3.251 -0.0156  0.0661  0.2631
  500MOL0     O67412   4.647   2.206   3.321 -0.5670  0.6617 -0.4231
  500MOL0     C67413   4.915   2.299   3.241  0.3713 -1.2117 -0.2333
  500MOL0     C67414   5.046   2.360   3.241 -0.3128 -0.1638 -0.1735
  500MOL0     N67415   5.669   2.829   3.332 -0.8903 -0.8638  0.4744
  500MOL0     N67416   5.751   2.916   3.395  0.3378  0.0058 -0.1854
  500MOL0     C67417   6.669   2.662   3.607  0.3607 -0.9969 -0.5266
  500MOL0     C67418   6.796   2.653   3.654 -0.7250  0.3754  0.1427
  500MOL0     C67419   7.237   2.627   3.698  0.2162  0.6111 -0.3360
  500MOL0     C67420   7.358   2.614   3.639 -0.5406  0.9651 -0.4713
  500MOL0     C67421   7.485   2.612   3.704  1.0209 -0.0561  0.8505
  500MOL0     C67422   7.486   2.590   3.840 -0.8262  0.1169 -1.0722
  500MOL0     O67423   7.613   2.579   3.895  0.3995 -0.1260 -0.7006
  500MOL0     C67424   7.629   2.574   4.038  0.2201  0.0081 -0.3630
  500MOL0     C67425   7.650   2.723   4.081 -0.0348 -0.3868  0.5043
  500MOL0     C67426   7.787   2.776   4.025 -0.3112 -0.0012 -0.3869
  500MOL0     C67427   7.851   2.887   4.101  0.5966 -0.0898  0.3855
  500MOL0     C67428   7.764   3.006   4.094  0.2164 -0.1470 -0.1450
  500MOL0     C67429   7.710   3.109   4.115 -0.5309  0.0760  0.3541
  500MOL0     C67430   7.355   2.575   3.901  0.3690  0.5330  0.0775
  500MOL0     C67431   7.234   2.588   3.830 -1.2538  0.5572  0.2849
  500MOL0     C67432   7.114   2.566   3.913 -0.3809  0.3887 -0.2399
  500MOL0     H67433   6.927   2.495   3.389 -0.0176  2.2051 -0.2009
  500MOL0     H67434   6.694   2.496   3.311 -0.5353 -0.3471 -0.3855
  500MOL0     H67435   6.571   2.700   3.268 -0.9390  0.3624 -2.0709
  500MOL0     H67436   6.478   2.551   3.270  0.5473 -0.9572  2.2458
  500MOL0     H67437   6.284   2.703   3.371  0.9191  0.6656  1.2667
  500MOL0     H67438   6.324   2.744   3.204 -0.0736  1.6540  0.1696
  500MOL0     H67439   6.481   2.928   3.331  0.0525  0.5755 -0.7110
  500MOL0     H67440   6.370   2.888   3.458 -0.2787  2.5410 -0.2043
  500MOL0     H67441   6.331   3.062   3.248 -0.8311  0.3373  1.0574
  500MOL0     H67442   6.215   2.936   3.212 -2.3779  1.4094  0.1846
  500MOL0     H67443   6.130   2.943   3.441  0.5339  1.5087  3.5985
  500MOL0     H67444   6.199   3.113   3.456  1.3896 -1.0198  0.0821
  500MOL0     H67445   6.062   3.133   3.209 -1.9373  0.6080 -0.3383
  500MOL0     H67446   5.998   2.976   3.278 -0.4648 -0.0207 -1.0246
  500MOL0     H67447   5.994   3.253   3.426 -0.0977  0.4675  1.5941
  500MOL0     H67448   5.957   3.111   3.511 -3.1702  1.5736 -0.1912
  500MOL0     H67449   5.748   3.204   3.425 -1.4018 -1.9705  0.1121
  500MOL0     H67450   5.808   3.223   3.268 -0.1852  0.4770 -0.8730
  500MOL0     H67451   5.679   3.068   3.112  1.2196  0.6703 -1.2493
  500MOL0     H67452   5.485   2.872   3.070  3.3094  0.4808 -1.8431
  500MOL0     H67453   5.587   2.739   3.056 -1.8520 -1.2262 -0.3023
  500MOL0     H67454   5.513   2.619   3.254  2.0729  2.3993  0.4973
  500MOL0     H67455   5.385   2.734   3.280 -2.0826 -1.6086 -0.2205
  500MOL0     H67456   5.410   2.596   3.011 -1.5175  0.7771 -0.0934
  500MOL0     H67457   5.279   2.696   3.068 -1.2729 -0.3877 -0.3503
  500MOL0     H67458   5.324   2.419   3.173  1.3749 -0.1146 -3.9957
  500MOL0     H67459   5.204   2.481   3.061 -0.5353 -0.0863 -0.4259
  500MOL0     H67460   4.960   2.680   3.305  0.5339  0.6916  0.0866
  500MOL0     H67461   4.732   2.576   3.336 -0.6834 -1.1576  0.6698
  500MOL0     H67462   4.429   2.190   3.409 -0.9218 -1.8068 -0.3979
  500MOL0     H67463   4.184   2.174   3.433 -1.7277  2.1776  2.0432
  500MOL0     H67464   3.979   2.131   3.298 -0.0392 -2.0151  1.6397
  500MOL0     H67465   3.942   2.195   3.462 -0.8786 -0.5838 -0.3304
  500MOL0     H67466   3.773   2.314   3.389 -2.8985 -1.3352  0.0199
  500MOL0     H67467   3.781   2.274   3.214 -0.8522  1.2947  0.2381
  500MOL0     H67468   3.716   2.066   3.434  1.9648 -0.7017 -0.9533
  500MOL0     H67469   3.604   2.145   3.315  0.1335  3.1567  3.2804
  500MOL0     H67470   3.768   2.025   3.135  1.6468  0.1557  0.4325
  500MOL0     H67471   3.630   1.946   3.202  0.1564  0.9495  2.8411
  500MOL0     H67472   3.897   1.910   3.330  0.9363 -2.3031 -0.0131
  500MOL0     H67473   3.824   1.813   3.198 -0.9423 -1.3038  0.1477
  500MOL0     H67474   3.731   1.854   3.485 -0.2115  1.8360 -0.7161
  500MOL0     H67475   3.610   1.793   3.360 -0.1666  0.3906 -0.2226
  500MOL0     H67476   3.873   1.641   3.421  0.0071 -2.6889 -0.9002
  500MOL0     H67477   3.737   1.606   3.313 -1.9392  2.9580 -1.2929
  500MOL0     H67478   3.604   1.567   3.485  0.3000  1.3046 -1.3612
  500MOL0     H67479   3.765   1.483   3.498  0.4199 -0.1875  0.7619
  500MOL0     H67480   4.138   2.526   3.198  4.6219  1.4118 -3.7375
  500MOL0     H67481   4.364   2.563   3.195 -1.5013  0.3001 -0.2204
  500MOL0     H67482   4.900   2.195   3.217 -0.0331 -1.0363 -0.7607
  500MOL0     H67483   5.131   2.294   3.224 -0.3500 -0.0535 -0.8231
  500MOL0     H67484   6.591   2.705   3.670 -0.2048 -1.6067 -0.7894
  500MOL0     H67485   6.819   2.700   3.748  4.0988 -0.8074 -0.2014
  500MOL0     H67486   7.363   2.635   3.532 -0.4506  0.5009 -0.5622
  500MOL0     H67487   7.581   2.623   3.654  1.5130 -1.0431  1.5583
  500MOL0     H67488   7.701   2.496   4.064  0.9231  0.1129 -1.9170
  500MOL0     H67489   7.536   2.535   4.082 -2.3535  1.6771 -3.8005
  500MOL0     H67490   7.643   2.724   4.190 -2.1212 -1.9284  0.4346
  500MOL0     H67491   7.567   2.782   4.042  0.9618 -0.1932 -1.4749
  500MOL0     H67492   7.771   2.795   3.919 -2.5724  0.5480 -0.0016
  500MOL0     H67493   7.852   2.688   4.025 -1.9275 -1.2571 -1.5659
  500MOL0     H67494   7.864   2.860   4.206 -0.7092  1.2268  0.9238
  500MOL0     H67495   7.947   2.909   4.053 -0.8325 -0.2501 -2.7771
  500MOL0     H67496   7.672   3.209   4.117 -1.1324 -0.0125 -2.5985
  500MOL0     H67497   7.360   2.566   4.009  3.2503  1.7845  0.1453
  500MOL0     H67498   7.141   2.619   4.005  1.6657  0.0811 -0.6119
  500MOL0     H67499   7.032   2.626   3.871 -0.0353  1.8202  1.0548
  500MOL0     H67500   7.090   2.460   3.926  1.6875 -0.2305 -1.0412
  501MOL0     O67501  10.277   7.763   6.350  0.3033 -0.3601 -0.0961
  501MOL0     C67502  10.378   7.817   6.305  0.2485  0.1880  0.0972
  501MOL0     O67503  10.402   7.948   6.292 -0.1495  0.1656 -0.2598
  501MOL0     C67504  10.297   8.031   6.316 -0.2712 -0.7097  0.3238
  501MOL0     C67505  10.254   8.087   6.441  0.7488  0.3448  0.9693
  501MOL0     C67506  10.140   8.169   6.434 -0.0509 -0.8111 -0.4431
  501MOL0     C67507  10.079   8.217   6.321  0.8112 -0.2988  1.2295
  501MOL0     O67508   9.975   8.307   6.333 -0.3811 -0.2794  0.4639
  501MOL0     C67509   9.904   8.326   6.215  0.1914  0.9032 -0.2593
  501MOL0     C67510   9.770   8.397   6.254  0.1128  0.4123 -0.6435
  501MOL0     C67511   9.670   8.313   6.336 -0.7285 -0.2462  0.2272
  501MOL0     C67512   9.537   8.384   6.371 -0.7254 -0.0784 -0.9032
  501MOL0     C67513   9.450   8.291   6.451 -0.4729  0.0350 -0.7052
  501MOL0     C67514   9.389   8.191   6.359  0.2302 -0.0380 -0.4600
  501MOL0     C67515   9.304   8.100   6.444  0.2088  0.4039  0.7364
  501MOL0     C67516   9.237   7.998   6.355 -1.1440  0.5153  0.1172
  501MOL0     N67517   9.137   7.935   6.432  0.0072  0.9780 -0.0370
  501MOL0     C67518   9.009   7.988   6.445  0.0081 -0.0886  0.1468
  501MOL0     C67519   8.938   7.889   6.513 -0.4845  0.3064  0.2187
  501MOL0     C67520   8.806   7.895   6.581 -0.1731 -0.1270 -0.4313
  501MOL0     C67521   8.792   8.028   6.670  0.7973 -0.3644  0.2956
  501MOL0     C67522   8.899   8.032   6.780  0.0790 -0.8421 -0.0368
  501MOL0     C67523   8.883   8.160   6.866 -0.8277 -0.0256  0.0825
  501MOL0     O67524   8.976   8.175   6.973  0.9054  0.1328 -0.0882
  501MOL0     C67525   9.113   8.189   6.947  0.0439  0.3038  0.1248
  501MOL0     C67526   9.153   8.251   6.827 -0.1110 -0.1127 -0.6065
  501MOL0     C67527   9.292   8.255   6.798  0.6501 -0.4973  0.6912
  501MOL0     C67528   9.383   8.243   6.902  0.8262 -0.7691 -0.7018
  501MOL0     C67529   9.521   8.290   6.879 -0.8124  1.1920 -0.2373
  501MOL0     O67530   9.549   8.368   6.778  0.5632  0.0773  0.1736
  501MOL0     C67531   9.674   8.428   6.761  0.9978  0.7708  0.5795
  501MOL0     C67532   9.782   8.362   6.705  0.2070 -0.6090  0.1934
  501MOL0     C67533   9.911   8.420   6.702  0.8418 -0.2019 -0.0329
  501MOL0     C67534   9.929   8.554   6.750 -0.3764 -0.9910  0.0042
  501MOL0     O67535  10.049   8.620   6.746  0.8581 -0.0395  0.3445
  501MOL0     C67536  10.152   8.576   6.655  0.2328  0.3830  0.3081
  501MOL0     C67537  10.285   8.654   6.664 -0.2097 -0.8676  0.5700
  501MOL0     C67538  10.378   8.598   6.547  0.1891  0.2165 -0.5536
  501MOL0     C67539  10.419   8.456   6.575  0.0354  0.4651  0.1018
  501MOL0     C67540  10.551   8.435   6.500 -0.0377  0.3015 -1.0538
  501MOL0     C67541  10.540   8.459   6.354  0.2307  0.1856 -0.3035
  501MOL0     C67542  10.668   8.420   6.280 -0.5322  0.5565  1.2174
  501MOL0     C67543  10.700   8.269   6.292 -1.2701 -0.2419 -0.9360
  501MOL0    Cl67544  10.854   8.230   6.201  0.4228 -0.1158 -0.1784
  501MOL0     C67545   9.818   8.619   6.801  0.0634 -0.5785 -0.4122
  501MOL0     C67546   9.692   8.560   6.806  0.8623 -0.6543  0.6383
  501MOL0     O67547   9.605   8.249   6.962  0.0652  0.8419  0.2476
  501MOL0     C67548   9.348   8.189   7.027 -0.1970  0.7243  0.0104
  501MOL0     C67549   9.211   8.168   7.054  0.2556  0.3011 -0.6685
  501MOL0     N67550   9.019   7.783   6.523 -0.1052  0.5331 -0.6267
  501MOL0     N67551   9.130   7.805   6.468 -0.5369  0.2214 -0.2616
  501MOL0     C67552  10.147   8.180   6.201 -0.2292 -0.4556  0.6897
  501MOL0     C67553  10.253   8.092   6.198  0.3578 -0.5673 -0.4372
  501MOL0     C67554  10.484   7.720   6.267 -1.0312  0.7487 -0.2724
  501MOL0     C67555  10.454   7.589   6.221  0.6052 -0.1524  0.0613
  501MOL0     C67556  10.539   7.484   6.194  0.0837 -0.6956  0.3520
  501MOL0     C67557  10.672   7.512   6.220  0.8103 -0.8255 -0.4893
  501MOL0     O67558  10.774   7.416   6.193  0.4704  0.3533 -0.5648
  501MOL0     C67559  10.751   7.289   6.245 -0.0076  0.8319  0.1221
  501MOL0     C67560  10.719   7.191   6.126 -0.3844 -0.7303 -1.3352
  501MOL0     C67561  10.833   7.166   6.031  0.2445  0.4741 -0.0089
  501MOL0     C67562  10.787   7.100   5.893 -0.8825  1.2901 -0.6688
  501MOL0     C67563  10.904   7.093   5.800  0.3286  0.3468 -0.6003
  501MOL0     C67564  10.982   7.097   5.717 -0.7062  0.2691  0.2173
  501MOL0     C67565  10.719   7.643   6.240  1.1807  0.8184  0.7168
  501MOL0     C67566  10.630   7.746   6.271 -0.0347 -1.6193 -0.3723
  501MOL0     C67567  10.691   7.874   6.324  0.4531  0.1491  0.5287
  501MOL0     H67568  10.291   8.049   6.536 -1.4981 -1.2154  1.2992
  501MOL0     H67569  10.083   8.192   6.524 -0.5948  1.2769 -1.2716
  501MOL0     H67570   9.961   8.382   6.141 -0.1315  0.3780 -0.9237
  501MOL0     H67571   9.874   8.227   6.177 -3.3893  1.1153  1.5305
  501MOL0     H67572   9.718   8.422   6.162 -3.4100 -1.7309  0.5768
  501MOL0     H67573   9.787   8.494   6.302 -1.0110 -0.5031  1.8192
  501MOL0     H67574   9.720   8.281   6.429 -1.0726 -3.3405 -0.5220
  501MOL0     H67575   9.658   8.221   6.277 -0.0135 -0.3188  0.1861
  501MOL0     H67576   9.572   8.466   6.434  1.5508 -1.9095  0.3673
  501MOL0     H67577   9.482   8.427   6.286  0.4824 -0.4444 -1.9043
  501MOL0     H67578   9.520   8.252   6.526 -1.2160 -3.8283 -1.7843
  501MOL0     H67579   9.360   8.335   6.495 -0.7111 -0.9599 -0.1694
  501MOL0     H67580   9.334   8.241   6.279  0.9900  2.0251  0.2445
  501MOL0     H67581   9.464   8.128   6.310  0.8712  1.2668 -1.2250
  501MOL0     H67582   9.228   8.161   6.493 -1.5755  0.4576 -1.8828
  501MOL0     H67583   9.371   8.057   6.519 -1.0526 -1.8935  0.6673
  501MOL0     H67584   9.195   8.065   6.278  0.2053  0.9255 -0.2889
  501MOL0     H67585   9.302   7.930   6.300 -1.1847  0.2287  0.4253
  501MOL0     H67586   8.983   8.091   6.419 -2.2617 -0.3439  1.1654
  501MOL0     H67587   8.726   7.897   6.506  0.6611 -1.6579 -1.4179
  501MOL0     H67588   8.788   7.808   6.644 -4.8261  1.7823  1.3628
  501MOL0     H67589   8.802   8.114   6.604  0.9528  0.5032  1.4257
  501MOL0     H67590   8.690   8.026   6.711  0.4580  2.7263 -0.1651
  501MOL0     H67591   9.000   8.017   6.741  0.1852  2.1593 -1.1996
  501MOL0     H67592   8.889   7.950   6.851 -0.7971  1.1903  2.3731
  501MOL0     H67593   8.780   8.168   6.903 -1.4517 -1.1451 -1.3282
  501MOL0     H67594   8.889   8.252   6.807 -4.8533 -0.0731 -0.6949
  501MOL0     H67595   9.082   8.281   6.750  0.2443  0.9175 -0.5558
  501MOL0     H67596   9.317   8.308   6.706 -4.7946 -0.9493 -1.4582
  501MOL0     H67597   9.780   8.266   6.656  2.0767 -1.3966  1.5482
  501MOL0     H67598   9.994   8.364   6.659 -0.0256 -1.4253 -0.1565
  501MOL0     H67599  10.168   8.468   6.661 -0.1220  0.2036 -1.4084
  501MOL0     H67600  10.108   8.581   6.554 -0.7228 -2.7143  0.4632
  501MOL0     H67601  10.272   8.762   6.648 -0.4761 -1.0651 -0.6702
  501MOL0     H67602  10.318   8.634   6.766 -0.0632 -0.1575  0.6649
  501MOL0     H67603  10.326   8.600   6.451  0.4792  3.1244 -0.7184
  501MOL0     H67604  10.468   8.659   6.538  1.2806 -1.5236 -2.1248
  501MOL0     H67605  10.340   8.386   6.547  1.7982 -2.7092  2.2658
  501MOL0     H67606  10.442   8.442   6.681  1.1347  3.3281  0.3357
  501MOL0     H67607  10.580   8.330   6.513 -0.2462  0.1107 -2.0410
  501MOL0     H67608  10.627   8.494   6.553  0.0040 -0.6694  0.0169
  501MOL0     H67609  10.455   8.399   6.321  1.1376 -0.9635 -0.6347
  501MOL0     H67610  10.506   8.559   6.329  1.9981  0.7098 -0.7936
  501MOL0     H67611  10.754   8.478   6.316  1.0361 -1.0534  0.2250
  501MOL0     H67612  10.658   8.450   6.175 -1.6242  0.4655  1.2896
  501MOL0     H67613  10.715   8.236   6.395 -0.5354 -0.3649 -1.0820
  501MOL0     H67614  10.622   8.203   6.252 -2.7640 -0.1644  1.5964
  501MOL0     H67615   9.841   8.721   6.832 -1.3406  0.5559 -2.7859
  501MOL0     H67616   9.611   8.614   6.853 -0.7233 -3.9422  1.9197
  501MOL0     H67617   9.426   8.187   7.102  1.5685  2.8855 -1.6432
  501MOL0     H67618   9.176   8.144   7.154  0.7453 -0.8993 -0.7738
  501MOL0     H67619  10.116   8.213   6.102  1.3251  2.1440  0.9544
  501MOL0     H67620  10.299   8.065   6.104  0.3487  0.4745 -0.7549
  501MOL0     H67621  10.348   7.568   6.208  0.5829 -0.0755  0.1181
  501MOL0     H67622  10.496   7.385   6.184 -0.9968 -0.1337 -0.7863
  501MOL0     H67623  10.671   7.280   6.318  0.8320  0.7202  1.0532
  501MOL0     H67624  10.843   7.264   6.300 -0.0533  0.1699 -0.0906
  501MOL0     H67625  10.629   7.223   6.073 -0.1904  0.2687 -1.0759
  501MOL0     H67626  10.689   7.100   6.179 -0.4428 -0.7679 -1.4329
  501MOL0     H67627  10.917   7.112   6.077 -0.6017 -0.8449  0.0373
  501MOL0     H67628  10.880   7.261   6.005  2.6707 -0.4431  0.7099
  501MOL0     H67629  10.758   6.997   5.915 -1.0594  1.1704 -1.4354
  501MOL0     H67630  10.714   7.169   5.850  0.2346  1.9990 -1.4524
  501MOL0     H67631  11.070   7.116   5.659  0.4398  0.2830  1.8604
  501MOL0     H67632  10.825   7.665   6.238  1.4491 -0.4151  0.2684
  501MOL0     H67633  10.799   7.861   6.335  0.4286 -0.8882 -0.3006
  501MOL0     H67634  10.683   7.950   6.246  0.2594  0.2270  0.6261
  501MOL0     H67635  10.633   7.891   6.415 -2.6162 -3.3180 -0.5098
  502MOL0     O67636   4.281   3.434   6.976  0.3928  0.4998 -0.4074
  502MOL0     C67637   4.339   3.500   7.059 -0.0951  0.1940  0.1913
  502MOL0     O67638   4.293   3.601   7.131  0.5606 -0.4828 -0.5761
  502MOL0     C67639   4.159   3.632   7.119  0.3794  0.0171 -0.0234
  502MOL0     C67640   4.126   3.764   7.122  0.1893 -0.3414  0.9548
  502MOL0     C67641   3.990   3.811   7.116  0.2392  0.0834 -0.1474
  502MOL0     C67642   3.889   3.712   7.108  0.4712  0.4476  0.8311
  502MOL0     O67643   3.756   3.761   7.117 -0.2711 -0.0285  1.0726
  502MOL0     C67644   3.657   3.704   7.037 -0.7587 -0.1398  0.5747
  502MOL0     C67645   3.567   3.815   6.997  0.9359 -0.2580  0.3177
  502MOL0     C67646   3.434   3.764   6.944 -0.3460  0.0576 -1.0851
  502MOL0     C67647   3.328   3.733   7.052 -1.4632 -0.6210  0.4666
  502MOL0     C67648   3.207   3.677   6.984  0.1391  0.2779 -0.2948
  502MOL0     C67649   3.129   3.793   6.913 -0.2848  0.0142 -0.0878
  502MOL0     C67650   2.996   3.730   6.862  0.4788 -0.6751 -0.6875
  502MOL0     C67651   2.907   3.830   6.783  0.2279 -0.2370 -1.2266
  502MOL0     N67652   2.960   3.877   6.650 -0.5267 -1.0316  0.9406
  502MOL0     C67653   3.043   3.981   6.626  0.3815  0.5607  0.9898
  502MOL0     C67654   3.030   3.989   6.486 -0.4605  0.0477  0.2792
  502MOL0     C67655   3.103   4.073   6.390  0.6310 -0.3659  0.0056
  502MOL0     C67656   3.161   4.200   6.471 -0.1338  0.4916 -0.2128
  502MOL0     C67657   3.051   4.299   6.520  0.4634 -0.9293 -0.3129
  502MOL0     C67658   3.117   4.432   6.571 -0.8763  1.0456 -0.1148
  502MOL0     O67659   3.006   4.514   6.610 -0.1984 -0.2766  0.7347
  502MOL0     C67660   2.968   4.541   6.745 -0.1634 -0.3334 -0.5325
  502MOL0     C67661   2.867   4.640   6.762  0.5133  0.4069 -0.6819
  502MOL0     C67662   2.831   4.679   6.894  0.8790 -0.6727 -0.1268
  502MOL0     C67663   2.892   4.629   7.006  0.4696 -0.7022  0.4945
  502MOL0     C67664   2.874   4.676   7.148 -0.2426 -0.2787  0.2347
  502MOL0     O67665   2.753   4.745   7.173  0.7796  0.0717  0.4620
  502MOL0     C67666   2.716   4.806   7.291  0.1618  0.0361  0.3713
  502MOL0     C67667   2.574   4.848   7.291  0.6788  0.2307 -0.5767
  502MOL0     C67668   2.525   4.898   7.412 -0.0642  0.4187  0.4084
  502MOL0     C67669   2.605   4.950   7.523  0.3853  0.2558  0.6213
  502MOL0     O67670   2.533   5.023   7.620 -0.2590 -0.0518 -0.8791
  502MOL0     C67671   2.605   5.089   7.733  0.4288  0.4852 -0.1675
  502MOL0     C67672   2.504   5.129   7.837  0.4971 -0.2921 -0.4853
  502MOL0     C67673   2.453   5.005   7.914 -0.6330  0.1407 -0.3959
  502MOL0     C67674   2.557   4.968   8.030  0.0615 -0.3357 -0.3088
  502MOL0     C67675   2.511   4.821   8.085  0.1310  0.3234  0.2280
  502MOL0     C67676   2.382   4.836   8.169 -0.2141 -0.3336 -0.6039
  502MOL0     C67677   2.320   4.694   8.191  0.4859 -0.1554 -1.0071
  502MOL0     C67678   2.189   4.705   8.287 -0.9187  0.1588  0.0941
  502MOL0    Cl67679   2.231   4.750   8.457  0.0540 -0.3706 -0.4504
  502MOL0     C67680   2.745   4.930   7.505 -0.4500  0.1958  0.3699
  502MOL0     C67681   2.795   4.853   7.396 -0.1923 -0.3675  0.6484
  502MOL0     O67682   2.942   4.634   7.230  0.5744 -0.5511 -0.3090
  502MOL0     C67683   3.000   4.536   6.979 -0.3280 -0.1343 -0.5974
  502MOL0     C67684   3.037   4.488   6.856  0.5743  0.0994  0.2851
  502MOL0     N67685   2.928   3.905   6.437  0.4853  0.1369  0.4005
  502MOL0     N67686   2.888   3.844   6.540 -1.0412 -0.5394 -0.6543
  502MOL0     C67687   3.926   3.581   7.102 -0.2966  0.2873 -0.0986
  502MOL0     C67688   4.054   3.536   7.115 -0.6755  0.1788 -0.2317
  502MOL0     C67689   4.472   3.445   7.077 -0.4710  0.9572 -0.6655
  502MOL0     C67690   4.548   3.498   7.185 -0.4890 -0.0317  0.1506
  502MOL0     C67691   4.679   3.466   7.221  0.1469  0.6688  0.2419
  502MOL0     C67692   4.745   3.374   7.141 -0.1024  0.0106 -0.2321
  502MOL0     O67693   4.859   3.318   7.161 -0.1338 -0.3003  1.0433
  502MOL0     C67694   4.929   3.340   7.292  1.0217  0.0084  0.4878
  502MOL0     C67695   5.025   3.458   7.266 -0.7497  0.4311 -1.0301
  502MOL0     C67696   5.151   3.413   7.184  0.0420  0.0922  0.2292
  502MOL0     C67697   5.243   3.529   7.123  0.5584  0.4359 -0.4166
  502MOL0     C67698   5.174   3.610   7.028  0.2023  0.4216  0.3117
  502MOL0     C67699   5.119   3.667   6.938  0.3207  0.1179 -0.7827
  502MOL0     C67700   4.677   3.319   7.035 -1.7482  0.2202  0.0234
  502MOL0     C67701   4.548   3.349   7.007  0.3058  1.0263 -0.1299
  502MOL0     C67702   4.483   3.268   6.886 -0.0210 -0.6871  0.3085
  502MOL0     H67703   4.190   3.851   7.130 -2.2438  1.7542 -0.6631
  502MOL0     H67704   3.962   3.915   7.124  1.3890  0.2958  1.6586
  502MOL0     H67705   3.695   3.658   6.945  0.6917  4.7704 -1.6154
  502MOL0     H67706   3.594   3.634   7.094  0.1729 -0.6988  0.9334
  502MOL0     H67707   3.616   3.872   6.917  0.2381 -1.0380 -0.6956
  502MOL0     H67708   3.554   3.886   7.079  2.2004  3.4784 -2.4113
  502MOL0     H67709   3.460   3.676   6.885 -1.1482 -0.3309 -0.8673
  502MOL0     H67710   3.386   3.838   6.879  0.5319  2.1818  0.5207
  502MOL0     H67711   3.374   3.651   7.108  1.8665  0.7901  0.0204
  502MOL0     H67712   3.315   3.822   7.113 -0.5828 -0.2749  0.1738
  502MOL0     H67713   3.247   3.611   6.907  1.3536 -1.1718  1.4900
  502MOL0     H67714   3.145   3.620   7.054  2.9946  1.6564  3.7788
  502MOL0     H67715   3.098   3.867   6.987 -0.4879  0.0485 -0.2050
  502MOL0     H67716   3.184   3.841   6.831 -1.0192  0.5847 -0.2570
  502MOL0     H67717   2.935   3.701   6.948  2.8084 -1.5755  0.7393
  502MOL0     H67718   3.003   3.636   6.806 -0.3860 -1.8932  1.1484
  502MOL0     H67719   2.806   3.799   6.759 -0.4816 -0.8104  1.9882
  502MOL0     H67720   2.900   3.914   6.854 -0.5456  2.7276 -4.5368
  502MOL0     H67721   3.110   4.031   6.695  1.3945  1.8509 -0.8218
  502MOL0     H67722   3.183   4.020   6.338 -1.3121 -3.7122  0.1668
  502MOL0     H67723   3.037   4.117   6.315  2.2106 -1.7728 -2.3141
  502MOL0     H67724   3.223   4.166   6.554 -0.4376 -0.6549 -0.4354
  502MOL0     H67725   3.222   4.252   6.397 -0.9412  0.6529 -0.7751
  502MOL0     H67726   2.987   4.255   6.597  2.8417 -1.2881  1.5810
  502MOL0     H67727   2.992   4.330   6.434 -0.0455  1.2425  0.7373
  502MOL0     H67728   3.178   4.487   6.499  2.2472 -0.1512  1.3953
  502MOL0     H67729   3.177   4.404   6.659 -2.4292 -3.9073 -0.3123
  502MOL0     H67730   2.828   4.684   6.671  2.5429  0.2244 -1.7057
  502MOL0     H67731   2.752   4.751   6.913 -0.2907 -1.7730 -0.7031
  502MOL0     H67732   2.505   4.832   7.208  0.4231  0.1349 -0.3467
  502MOL0     H67733   2.418   4.919   7.420  0.0566  0.5242  2.1765
  502MOL0     H67734   2.680   5.016   7.766 -0.5051 -0.6721 -0.5145
  502MOL0     H67735   2.670   5.172   7.704  2.4488 -1.0267 -0.2283
  502MOL0     H67736   2.550   5.193   7.914  0.1403  2.5152 -2.4446
  502MOL0     H67737   2.434   5.195   7.786  2.2872  0.6554 -1.8325
  502MOL0     H67738   2.354   5.036   7.949 -0.5713 -1.0260  0.8856
  502MOL0     H67739   2.450   4.924   7.840 -1.9883  1.1493 -1.5038
  502MOL0     H67740   2.561   5.045   8.107  3.1243 -0.0195 -0.6813
  502MOL0     H67741   2.660   4.970   7.995  1.2259  4.1767  2.5544
  502MOL0     H67742   2.597   4.781   8.139  2.2869  3.3970 -0.6866
  502MOL0     H67743   2.497   4.761   7.994  1.2655  0.0044  0.2482
  502MOL0     H67744   2.401   4.891   8.262 -0.1126  2.3029 -2.0966
  502MOL0     H67745   2.309   4.907   8.128  0.0571  1.9247  2.4374
  502MOL0     H67746   2.381   4.621   8.244 -1.3454 -1.4318 -0.5307
  502MOL0     H67747   2.282   4.643   8.101 -2.7458 -0.2764  0.2897
  502MOL0     H67748   2.124   4.782   8.243  0.0987  0.1072 -1.5880
  502MOL0     H67749   2.132   4.612   8.279 -1.6070  0.5852 -0.0937
  502MOL0     H67750   2.807   4.979   7.579 -1.6062  1.2098  0.7067
  502MOL0     H67751   2.902   4.841   7.378  0.2041  3.6386 -0.5248
  502MOL0     H67752   3.061   4.503   7.062 -0.3334 -1.6222 -1.1664
  502MOL0     H67753   3.119   4.417   6.849  1.8031  1.6212 -1.8292
  502MOL0     H67754   3.854   3.500   7.093  0.3050 -0.5414  1.9614
  502MOL0     H67755   4.075   3.431   7.099 -0.6413 -0.1143  1.5239
  502MOL0     H67756   4.502   3.577   7.244  1.3909  1.7450 -0.6241
  502MOL0     H67757   4.725   3.517   7.304  1.9486  1.5280 -1.2145
  502MOL0     H67758   4.995   3.256   7.314 -0.6481 -1.4946 -0.0955
  502MOL0     H67759   4.857   3.347   7.374  2.3470  3.8041  1.5870
  502MOL0     H67760   5.054   3.500   7.363 -0.7770 -1.2290 -0.2788
  502MOL0     H67761   4.969   3.533   7.208  0.8692  1.5721 -1.1691
  502MOL0     H67762   5.114   3.351   7.101 -1.3261 -1.8748  2.1763
  502MOL0     H67763   5.204   3.340   7.246 -2.0912 -2.5752 -0.8605
  502MOL0     H67764   5.277   3.594   7.204  1.9958 -0.8133  0.0461
  502MOL0     H67765   5.333   3.489   7.076  0.0483 -1.6598  0.2570
  502MOL0     H67766   5.078   3.714   6.851 -1.6868 -0.0505  0.0115
  502MOL0     H67767   4.734   3.245   6.979  0.8373  1.4581  0.8760
  502MOL0     H67768   4.401   3.213   6.935  0.0058 -0.7252  0.3107
  502MOL0     H67769   4.433   3.335   6.816 -0.2375 -0.5732  0.5724
  502MOL0     H67770   4.546   3.208   6.820  1.2811  0.6876  0.2659
  503MOL0     O67771   8.260   4.348   2.519 -0.0993 -0.8335 -0.1774
  503MOL0     C67772   8.248   4.340   2.397  0.2237 -0.1860 -0.0111
  503MOL0     O67773   8.341   4.370   2.306 -0.2765 -0.1309 -0.4056
  503MOL0     C67774   8.464   4.424   2.340  0.1823  0.0344  0.2001
  503MOL0     C67775   8.509   4.471   2.467  0.0646 -0.4215  0.4670
  503MOL0     C67776   8.639   4.522   2.474  0.0961  0.9242 -0.5590
  503MOL0     C67777   8.732   4.503   2.369  0.4863 -0.3958 -0.9753
  503MOL0     O67778   8.860   4.529   2.373  0.1435 -0.3230 -0.3969
  503MOL0     C67779   8.926   4.567   2.496  0.3048 -0.2137  0.6816
  503MOL0     C67780   9.073   4.546   2.480  1.0358  0.0937  0.5019
  503MOL0     C67781   9.144   4.573   2.610 -0.2100 -0.6299 -0.0689
  503MOL0     C67782   9.111   4.493   2.735 -0.2881 -0.4538  0.3653
  503MOL0     C67783   9.241   4.482   2.812  0.1516 -0.0852 -0.5721
  503MOL0     C67784   9.294   4.618   2.860 -0.2872  0.3332  0.0775
  503MOL0     C67785   9.414   4.604   2.953 -0.3743  0.1389 -0.5027
  503MOL0     C67786   9.541   4.562   2.874  0.0300  0.4694 -0.2452
  503MOL0     N67787   9.583   4.649   2.757 -0.5375  0.2776 -0.1510
  503MOL0     C67788   9.692   4.720   2.772 -0.3066  0.3181  1.0803
  503MOL0     C67789   9.720   4.761   2.645 -0.3164 -0.7867 -0.1059
  503MOL0     C67790   9.817   4.868   2.607  0.1844 -1.0852  0.3631
  503MOL0     C67791   9.912   4.829   2.501  0.5405 -0.5741  0.2008
  503MOL0     C67792   9.973   4.954   2.433 -0.6211  0.3147 -0.7318
  503MOL0     C67793  10.092   4.931   2.342 -0.8821 -0.1195  0.4034
  503MOL0     O67794  10.150   5.050   2.289 -0.9889  0.6227  0.5836
  503MOL0     C67795  10.266   5.042   2.221  0.2514  0.4240  0.5075
  503MOL0     C67796  10.337   5.156   2.227  0.0742 -0.0269  0.3115
  503MOL0     C67797  10.471   5.149   2.177 -0.2506  0.6132  0.7444
  503MOL0     C67798  10.525   5.033   2.113  0.3499 -0.0105  0.1239
  503MOL0     C67799  10.659   5.042   2.062 -0.2539  0.8618  0.2565
  503MOL0     O67800  10.714   5.162   2.050 -0.5624  0.5761 -0.1608
  503MOL0     C67801  10.839   5.191   2.005 -0.0494 -0.2112  0.8511
  503MOL0     C67802  10.885   5.323   2.041  0.8497  0.4545  0.3279
  503MOL0     C67803  11.017   5.363   2.012  0.0312  0.1286  0.1382
  503MOL0     C67804  11.103   5.270   1.951 -0.2342  0.0518  0.3903
  503MOL0     O67805  11.241   5.302   1.949  0.0611  0.8593 -0.1201
  503MOL0     C67806  11.329   5.241   1.851  1.4204  0.0406  0.0894
  503MOL0     C67807  11.470   5.310   1.868  0.9119 -0.1088  0.1064
  503MOL0     C67808  11.540   5.261   2.001 -0.2628 -0.7345  0.6912
  503MOL0     C67809  11.696   5.297   1.992 -0.8625  0.2659 -0.1267
  503MOL0     C67810  11.713   5.445   2.001 -0.5190  0.4412 -0.2259
  503MOL0     C67811  11.847   5.479   1.936  0.0776  0.0988  0.2269
  503MOL0     C67812  11.848   5.628   1.896 -0.4523  0.3286  0.6654
  503MOL0     C67813  11.980   5.666   1.838 -1.0956  0.3978 -0.3414
  503MOL0    Cl67814  12.122   5.622   1.935  0.0023 -0.0039 -0.3092
  503MOL0     C67815  11.048   5.146   1.914  0.0861  0.2931  0.5640
  503MOL0     C67816  10.924   5.106   1.939  0.6131 -0.3532  0.0759
  503MOL0     O67817  10.704   4.933   2.034  0.2074  0.4203 -0.1657
  503MOL0     C67818  10.453   4.920   2.119  0.4872  0.5973 -0.3532
  503MOL0     C67819  10.319   4.923   2.162  0.1708  0.5403  0.2342
  503MOL0     N67820   9.625   4.709   2.560 -0.9798 -0.0014  0.5891
  503MOL0     N67821   9.533   4.648   2.636 -0.2816 -0.0222 -0.5281
  503MOL0     C67822   8.686   4.466   2.248  0.6924 -0.6950 -0.5947
  503MOL0     C67823   8.551   4.426   2.235  0.2628  0.3848 -0.5262
  503MOL0     C67824   8.112   4.293   2.347  0.2989  0.8997 -0.9475
  503MOL0     C67825   8.003   4.299   2.438 -0.1450 -0.5520  0.8177
  503MOL0     C67826   7.869   4.274   2.399  0.6815 -0.4178  0.0037
  503MOL0     C67827   7.850   4.235   2.270 -0.2734  0.2090  0.5539
  503MOL0     O67828   7.728   4.196   2.213 -0.1632  0.8844 -1.1144
  503MOL0     C67829   7.609   4.192   2.303 -1.2748 -0.2193  0.1692
  503MOL0     C67830   7.489   4.186   2.218 -0.5947 -0.2247 -0.4713
  503MOL0     C67831   7.358   4.216   2.311 -1.1229  0.6380 -0.2462
  503MOL0     C67832   7.233   4.216   2.234 -0.0539 -0.6489 -0.2213
  503MOL0     C67833   7.206   4.103   2.148  0.5709  1.2213  0.2983
  503MOL0     C67834   7.185   3.987   2.102  0.8615 -0.4748  0.7067
  503MOL0     C67835   7.960   4.228   2.179  0.1363 -1.2480 -0.1805
  503MOL0     C67836   8.087   4.248   2.216 -0.1360 -0.1035  0.4766
  503MOL0     C67837   8.196   4.227   2.108 -0.3332  0.2124  0.2577
  503MOL0     H67838   8.448   4.474   2.557 -3.0884  1.3748 -1.5289
  503MOL0     H67839   8.667   4.559   2.572  1.6742 -0.4159 -0.4583
  503MOL0     H67840   8.908   4.673   2.516  0.7465 -0.0266  0.1229
  503MOL0     H67841   8.886   4.523   2.588  0.9903  0.2226  1.2016
  503MOL0     H67842   9.103   4.606   2.393  0.1395  0.2709  0.3016
  503MOL0     H67843   9.093   4.440   2.461  1.1003  0.2777 -0.5024
  503MOL0     H67844   9.120   4.679   2.628  1.2769 -0.3030  0.1643
  503MOL0     H67845   9.248   4.558   2.579 -0.0578 -2.6891  1.2743
  503MOL0     H67846   9.030   4.545   2.785 -1.8225 -1.0525 -1.3785
  503MOL0     H67847   9.072   4.395   2.706  1.0519 -0.2139 -2.5364
  503MOL0     H67848   9.221   4.424   2.903 -0.2328  0.7637 -0.1016
  503MOL0     H67849   9.323   4.432   2.760  1.6848 -0.5609  2.1005
  503MOL0     H67850   9.330   4.681   2.778 -3.4194  2.4758  0.1376
  503MOL0     H67851   9.217   4.677   2.912  0.2271  0.1584  1.0612
  503MOL0     H67852   9.387   4.534   3.033 -1.2392 -2.9562 -3.2794
  503MOL0     H67853   9.431   4.702   2.999 -1.2619 -0.1512  0.4966
  503MOL0     H67854   9.619   4.554   2.950  0.1945 -0.8166 -0.5348
  503MOL0     H67855   9.525   4.460   2.838 -0.3853  1.2112 -2.3505
  503MOL0     H67856   9.744   4.771   2.852 -0.3883  2.3576 -0.0943
  503MOL0     H67857   9.763   4.956   2.572  1.9585 -0.3005 -0.5364
  503MOL0     H67858   9.881   4.896   2.692 -2.1482 -0.2705  1.9382
  503MOL0     H67859   9.988   4.770   2.553 -2.3250 -1.9534  3.2254
  503MOL0     H67860   9.857   4.760   2.436 -1.7587 -1.1368  2.5449
  503MOL0     H67861  10.010   5.000   2.524  0.9106 -4.3997  1.3733
  503MOL0     H67862   9.892   5.007   2.382 -0.8600 -0.6794 -1.4239
  503MOL0     H67863  10.057   4.883   2.250  0.4318 -2.2395  0.9289
  503MOL0     H67864  10.166   4.857   2.376 -1.6853 -0.2606  1.9196
  503MOL0     H67865  10.280   5.238   2.268 -2.2502 -1.0381 -0.7244
  503MOL0     H67866  10.517   5.247   2.171 -1.5390  1.1670 -2.0051
  503MOL0     H67867  10.808   5.382   2.090  3.3463  3.2086  1.3100
  503MOL0     H67868  11.074   5.453   2.030  2.4869 -1.0446 -1.2180
  503MOL0     H67869  11.327   5.132   1.862 -1.7757 -0.1260 -1.0508
  503MOL0     H67870  11.285   5.267   1.753  0.4621 -0.5219  0.3538
  503MOL0     H67871  11.532   5.284   1.782  0.0532  2.2144 -1.3277
  503MOL0     H67872  11.464   5.419   1.873  1.4719 -0.1267  2.7796
  503MOL0     H67873  11.494   5.308   2.089 -0.6795 -0.6322  0.4198
  503MOL0     H67874  11.530   5.153   2.005 -1.1803 -0.9267 -3.1351
  503MOL0     H67875  11.733   5.248   1.901 -0.7014  0.2630 -0.0585
  503MOL0     H67876  11.745   5.266   2.084  0.3122 -0.5724 -0.9980
  503MOL0     H67877  11.695   5.491   2.099  3.3326  0.9832  0.3988
  503MOL0     H67878  11.630   5.487   1.943 -0.9985 -0.5156 -0.2500
  503MOL0     H67879  11.924   5.445   2.005 -2.0330 -1.3184  2.0212
  503MOL0     H67880  11.854   5.427   1.841 -0.4091  0.0330  0.2252
  503MOL0     H67881  11.834   5.676   1.994 -1.8970  1.0930  0.1136
  503MOL0     H67882  11.764   5.656   1.833 -0.3587  0.5218  0.6283
  503MOL0     H67883  11.990   5.628   1.736 -1.5282  1.5435 -0.8330
  503MOL0     H67884  11.980   5.774   1.823  4.4550  0.8573  0.8658
  503MOL0     H67885  11.106   5.065   1.872  2.0825  2.3315 -0.8883
  503MOL0     H67886  10.876   5.022   1.891  1.3416 -0.2818 -0.7984
  503MOL0     H67887  10.487   4.822   2.088  2.6166  1.3769 -0.6114
  503MOL0     H67888  10.264   4.831   2.173 -0.6518  1.0553  0.5545
  503MOL0     H67889   8.748   4.465   2.159 -0.4310 -2.4964 -1.4189
  503MOL0     H67890   8.503   4.379   2.150 -2.3588 -0.0813  1.0838
  503MOL0     H67891   8.005   4.352   2.532 -3.8978  1.3372  0.0117
  503MOL0     H67892   7.797   4.282   2.479  2.1691 -0.7873  1.4353
  503MOL0     H67893   7.601   4.282   2.364  0.5475  0.6742 -0.8177
  503MOL0     H67894   7.616   4.104   2.369  1.6179 -0.5924 -0.4828
  503MOL0     H67895   7.483   4.084   2.179  1.5708 -0.8191  0.5918
  503MOL0     H67896   7.503   4.258   2.137 -0.8682  4.0343  2.9079
  503MOL0     H67897   7.366   4.311   2.364 -2.0863  0.9565 -0.6506
  503MOL0     H67898   7.346   4.143   2.392  0.8608  0.5057 -0.0306
  503MOL0     H67899   7.143   4.227   2.295  0.7660 -0.6594  1.0301
  503MOL0     H67900   7.249   4.313   2.184  0.3743 -0.9748 -0.7305
  503MOL0     H67901   7.161   3.895   2.052  1.4061 -0.0802 -0.3165
  503MOL0     H67902   7.940   4.195   2.077  2.3362 -0.7142 -0.8434
  503MOL0     H67903   8.274   4.159   2.143  2.3479  2.2106 -1.4647
  503MOL0     H67904   8.158   4.185   2.014 -1.5625  4.6525 -1.4858
  503MOL0     H67905   8.244   4.322   2.085  0.0173  0.0865  0.4666
  504MOL0     O67906   5.766   4.837   8.045  0.1697  0.5096  0.0815
  504MOL0     C67907   5.731   4.746   7.967 -0.0757  0.3553 -0.6815
  504MOL0     O67908   5.796   4.711   7.844 -0.6345 -0.7216 -0.0847
  504MOL0     C67909   5.926   4.761   7.829  0.9122 -0.7247  0.3602
  504MOL0     C67910   6.035   4.714   7.897  0.9780 -0.3668  0.0324
  504MOL0     C67911   6.163   4.767   7.876 -0.5412 -0.2610  0.5670
  504MOL0     C67912   6.182   4.873   7.792 -0.2529 -1.5002 -0.1928
  504MOL0     O67913   6.296   4.942   7.770 -0.4802  0.2996  0.2605
  504MOL0     C67914   6.366   4.993   7.889 -0.3020  1.4651 -0.2706
  504MOL0     C67915   6.297   5.110   7.953 -0.1527 -0.3023 -0.0320
  504MOL0     C67916   6.390   5.232   7.991 -0.5879  0.1221 -0.0546
  504MOL0     C67917   6.293   5.328   8.067  0.1216 -0.5903  0.3324
  504MOL0     C67918   6.386   5.443   8.110  0.5355 -0.1938  0.7554
  504MOL0     C67919   6.320   5.545   8.208  0.2724  0.1814 -0.0440
  504MOL0     C67920   6.248   5.485   8.331  0.0874 -0.3254  0.6124
  504MOL0     C67921   6.338   5.392   8.411  0.1556 -0.2170 -0.6211
  504MOL0     N67922   6.271   5.331   8.517 -0.0862  0.4074  0.0399
  504MOL0     C67923   6.212   5.205   8.520 -0.5611  0.4626  0.1582
  504MOL0     C67924   6.140   5.202   8.633 -1.2452  0.3732 -1.4896
  504MOL0     C67925   6.069   5.079   8.671 -0.0212  0.2747 -0.3378
  504MOL0     C67926   6.130   5.005   8.787  1.0574  0.0639 -0.4962
  504MOL0     C67927   6.049   4.883   8.825 -0.6611 -0.3963 -0.6210
  504MOL0     C67928   6.123   4.807   8.929 -0.1915 -0.4576  0.7867
  504MOL0     O67929   6.165   4.688   8.864 -0.1531 -0.1111 -0.3357
  504MOL0     C67930   6.306   4.674   8.848 -0.3939  0.4180 -0.8200
  504MOL0     C67931   6.350   4.670   8.716  0.6170 -0.4789 -0.4197
  504MOL0     C67932   6.483   4.674   8.678 -0.0214  0.3522  0.6010
  504MOL0     C67933   6.577   4.692   8.776  0.0571 -0.5845  0.1783
  504MOL0     C67934   6.718   4.708   8.736 -0.4648 -0.1056  0.1994
  504MOL0     O67935   6.750   4.708   8.602 -0.4837  0.1627  0.0431
  504MOL0     C67936   6.880   4.708   8.558  0.0187 -0.0955 -0.3845
  504MOL0     C67937   6.961   4.823   8.570  0.2231 -0.4662  0.4317
  504MOL0     C67938   7.092   4.823   8.517 -0.5160  0.5663 -0.4605
  504MOL0     C67939   7.138   4.708   8.453 -0.1493 -0.0379 -0.5002
  504MOL0     O67940   7.264   4.696   8.394  0.7548 -0.0608 -0.5036
  504MOL0     C67941   7.370   4.787   8.432  0.0840 -0.2498 -0.3866
  504MOL0     C67942   7.493   4.736   8.361 -0.3124 -0.2130 -0.1366
  504MOL0     C67943   7.604   4.837   8.347  0.6569  0.0987 -0.2714
  504MOL0     C67944   7.710   4.790   8.252  0.0079 -0.4690  0.1032
  504MOL0     C67945   7.848   4.845   8.307 -0.2191 -0.0855 -0.0123
  504MOL0     C67946   7.956   4.819   8.217 -0.1856 -0.2192  0.4013
  504MOL0     C67947   8.081   4.886   8.252 -0.1569  0.2548  0.5398
  504MOL0     C67948   8.179   4.832   8.350  0.7590 -0.1027  0.3702
  504MOL0    Cl67949   8.347   4.925   8.360  0.2146 -0.0114  0.5018
  504MOL0     C67950   7.054   4.595   8.433  0.5793  0.1476  0.9450
  504MOL0     C67951   6.921   4.591   8.492 -0.8721  0.7424  0.6448
  504MOL0     O67952   6.798   4.687   8.831 -0.3430 -0.4471 -0.3171
  504MOL0     C67953   6.541   4.696   8.915  0.2634  0.0406 -0.0236
  504MOL0     C67954   6.403   4.689   8.945  0.2708  0.1127 -0.0368
  504MOL0     N67955   6.178   5.319   8.703  0.4035  0.7597 -0.3329
  504MOL0     N67956   6.257   5.395   8.633  0.8480 -0.3008  0.8744
  504MOL0     C67957   6.071   4.918   7.718  0.4518 -0.2571 -0.1118
  504MOL0     C67958   5.945   4.868   7.740  0.3638 -0.6038 -0.5481
  504MOL0     C67959   5.612   4.667   8.008  0.1553 -0.6173  0.1241
  504MOL0     C67960   5.595   4.541   7.943 -0.1825  0.2346 -0.6606
  504MOL0     C67961   5.485   4.469   7.971 -0.5871  0.3431 -0.1853
  504MOL0     C67962   5.379   4.500   8.056  0.5439  0.1824 -0.5977
  504MOL0     O67963   5.268   4.424   8.071 -1.0141  0.3472 -0.0943
  504MOL0     C67964   5.139   4.488   8.049  0.4268 -0.0648  0.2645
  504MOL0     C67965   5.021   4.396   8.076  0.1544 -0.4845  0.3318
  504MOL0     C67966   5.011   4.359   8.223 -0.3554  0.7458  0.4111
  504MOL0     C67967   5.044   4.213   8.249 -0.0508 -0.2960 -0.0514
  504MOL0     C67968   4.951   4.125   8.176  0.3143  0.4447  0.2438
  504MOL0     C67969   4.873   4.071   8.099 -0.0539  0.8698 -0.1227
  504MOL0     C67970   5.399   4.626   8.120  0.6412  0.5338 -0.4170
  504MOL0     C67971   5.517   4.702   8.098  0.8854  0.2570 -0.3012
  504MOL0     C67972   5.507   4.848   8.162 -0.8949  0.5555  0.0265
  504MOL0     H67973   6.016   4.630   7.963  2.7627  0.0551  1.1444
  504MOL0     H67974   6.253   4.715   7.909  0.7064  0.7727 -1.0442
  504MOL0     H67975   6.390   4.912   7.958 -1.0933  1.9254  0.5624
  504MOL0     H67976   6.461   5.031   7.850 -1.0408 -0.4493 -4.5161
  504MOL0     H67977   6.232   5.073   8.033 -0.3792 -0.4746 -0.2955
  504MOL0     H67978   6.236   5.159   7.877  0.1106  3.0312  1.7236
  504MOL0     H67979   6.412   5.286   7.898  1.1016  0.0121  0.2409
  504MOL0     H67980   6.484   5.215   8.045  0.4909  1.9901 -1.2004
  504MOL0     H67981   6.221   5.363   7.993 -0.8517 -0.7783  1.1786
  504MOL0     H67982   6.252   5.279   8.155  1.6884 -1.2819  0.7221
  504MOL0     H67983   6.466   5.401   8.172  2.1804  0.3899 -0.8665
  504MOL0     H67984   6.432   5.493   8.024 -0.4468 -0.5232  0.0140
  504MOL0     H67985   6.392   5.621   8.240 -1.4851  2.8454 -1.9705
  504MOL0     H67986   6.252   5.608   8.150  0.0323  1.6778  1.7734
  504MOL0     H67987   6.158   5.433   8.297  1.2073 -2.3736  0.6599
  504MOL0     H67988   6.216   5.568   8.394 -0.5530 -0.7247  0.8263
  504MOL0     H67989   6.370   5.304   8.354  0.6932 -0.9992  0.8368
  504MOL0     H67990   6.426   5.453   8.430  0.7854 -0.3011 -2.9015
  504MOL0     H67991   6.221   5.130   8.442  0.0329  1.8825 -1.1850
  504MOL0     H67992   5.965   5.101   8.698 -0.3088 -2.3931  1.0487
  504MOL0     H67993   6.061   5.022   8.578 -1.9986 -0.8991  0.4890
  504MOL0     H67994   6.231   4.971   8.760  1.1699  0.4659 -0.5914
  504MOL0     H67995   6.147   5.068   8.875 -0.9713 -0.7289  0.5151
  504MOL0     H67996   6.033   4.827   8.732 -1.0897  1.0806 -1.4583
  504MOL0     H67997   5.948   4.915   8.852  0.4555  1.1898  2.0876
  504MOL0     H67998   6.056   4.770   9.008  0.4849 -1.8553  0.7370
  504MOL0     H67999   6.207   4.865   8.967  1.9005 -1.2086 -2.3305
  504MOL0     H68000   6.264   4.656   8.652 -0.9557  2.1002  0.9349
  504MOL0     H68001   6.513   4.665   8.574 -2.6116  0.4948 -0.2492
  504MOL0     H68002   6.921   4.905   8.629 -2.4043 -1.5821  0.3315
  504MOL0     H68003   7.169   4.897   8.537 -2.0107  1.7420  1.2367
  504MOL0     H68004   7.332   4.883   8.398  0.1906 -0.3036 -0.6617
  504MOL0     H68005   7.381   4.784   8.540 -0.0124 -3.4246 -0.3697
  504MOL0     H68006   7.530   4.653   8.423  1.3623 -0.8579 -1.8944
  504MOL0     H68007   7.473   4.700   8.259 -0.4685 -0.8829  0.1245
  504MOL0     H68008   7.561   4.925   8.298 -2.1172 -0.5733  0.7433
  504MOL0     H68009   7.643   4.866   8.445 -1.5972 -1.0383  1.0518
  504MOL0     H68010   7.684   4.815   8.149  0.1703  0.4971  0.2910
  504MOL0     H68011   7.729   4.682   8.258  0.7022 -0.3809 -0.4050
  504MOL0     H68012   7.873   4.803   8.405 -0.7362  0.8191  0.5206
  504MOL0     H68013   7.846   4.954   8.316 -0.9408  0.0309 -1.2909
  504MOL0     H68014   7.967   4.711   8.203 -0.7024 -0.1321 -0.7870
  504MOL0     H68015   7.932   4.854   8.116 -0.8747 -0.8555  0.3348
  504MOL0     H68016   8.055   4.991   8.270  0.8129  0.3332  1.5845
  504MOL0     H68017   8.148   4.900   8.167 -0.8848 -1.9610 -0.4676
  504MOL0     H68018   8.140   4.841   8.451  3.8403 -0.1838  1.6752
  504MOL0     H68019   8.215   4.733   8.317  0.2583 -0.4908  0.9697
  504MOL0     H68020   7.102   4.509   8.388 -2.0050 -0.4482 -0.9343
  504MOL0     H68021   6.860   4.503   8.475  0.4103 -0.0827  0.1028
  504MOL0     H68022   6.617   4.712   8.991  1.1135  1.0043 -1.0260
  504MOL0     H68023   6.361   4.707   9.044 -1.1585 -2.9795  0.0337
  504MOL0     H68024   6.080   5.004   7.653 -1.8494 -1.1146 -1.6596
  504MOL0     H68025   5.865   4.915   7.683 -0.1953  0.3156  0.9304
  504MOL0     H68026   5.664   4.493   7.875 -1.3746 -0.1165 -1.6710
  504MOL0     H68027   5.465   4.384   7.907 -2.1629  0.7582 -0.2859
  504MOL0     H68028   5.128   4.512   7.942 -1.8384  2.9545  1.0385
  504MOL0     H68029   5.133   4.581   8.105  3.6750  0.9598 -0.8382
  504MOL0     H68030   5.035   4.311   8.009  0.8600  0.0367 -0.1988
  504MOL0     H68031   4.926   4.441   8.045 -0.3152 -1.7687 -0.1792
  504MOL0     H68032   4.906   4.366   8.252 -0.5602 -3.2752  1.3259
  504MOL0     H68033   5.078   4.418   8.287  0.6270  0.7177 -0.5684
  504MOL0     H68034   5.151   4.193   8.235  0.4677  1.1398  1.4883
  504MOL0     H68035   5.034   4.201   8.358  1.8605  1.3454  0.3643
  504MOL0     H68036   4.815   4.011   8.031 -0.4213  0.7904  0.2578
  504MOL0     H68037   5.329   4.668   8.191  1.9501 -1.7708  2.4559
  504MOL0     H68038   5.446   4.854   8.252  0.0652 -2.1430  0.9504
  504MOL0     H68039   5.606   4.876   8.199 -0.5231 -1.0108  0.2719
  504MOL0     H68040   5.472   4.914   8.082 -1.8271 -1.0320 -0.9257
  505MOL0     O68041   6.384  10.409   2.121 -0.1147 -0.3742 -0.3832
  505MOL0     C68042   6.370  10.521   2.167  0.1643  0.4382 -0.0304
  505MOL0     O68043   6.461  10.619   2.154  0.2040 -0.3261  0.0657
  505MOL0     C68044   6.585  10.606   2.089 -0.7711 -0.0768 -0.2839
  505MOL0     C68045   6.656  10.488   2.044 -0.0443  0.0026  0.1722
  505MOL0     C68046   6.786  10.498   1.993 -0.4209 -0.6680  0.6691
  505MOL0     C68047   6.846  10.621   1.976 -0.0504 -0.4582  0.7903
  505MOL0     O68048   6.975  10.638   1.929  0.1440 -0.7083  0.2694
  505MOL0     C68049   7.004  10.545   1.819 -0.4303  0.3829  0.0672
  505MOL0     C68050   7.085  10.628   1.715 -0.5509 -0.5026  0.4525
  505MOL0     C68051   7.191  10.537   1.657  0.5060 -0.1641 -0.2946
  505MOL0     C68052   7.262  10.609   1.545  0.4466 -0.4969  0.1866
  505MOL0     C68053   7.367  10.517   1.474 -0.2254 -0.1236 -0.9597
  505MOL0     C68054   7.407  10.572   1.337  0.3228  0.2457 -0.5352
  505MOL0     C68055   7.514  10.503   1.262 -0.4045 -0.4038 -0.1347
  505MOL0     C68056   7.534  10.566   1.124 -0.0031 -0.3643  0.6859
  505MOL0     N68057   7.659  10.530   1.063  0.0282  0.1757  0.1005
  505MOL0     C68058   7.699  10.395   1.069 -0.4414 -0.4309  0.4248
  505MOL0     C68059   7.825  10.401   1.013 -0.1390 -0.0174 -0.4495
  505MOL0     C68060   7.882  10.277   0.956 -0.2739 -0.9414  0.9561
  505MOL0     C68061   8.027  10.262   0.994  0.4298  0.2636 -0.1080
  505MOL0     C68062   8.069  10.117   0.972 -0.3208 -0.4231 -0.8880
  505MOL0     C68063   8.222  10.114   0.992  0.0674  0.1746 -0.0679
  505MOL0     O68064   8.256  10.098   1.131 -0.1646 -0.2229  0.0226
  505MOL0     C68065   8.386  10.072   1.153  0.3179 -0.0782 -0.0806
  505MOL0     C68066   8.484  10.132   1.070 -0.5877  0.7217  0.0400
  505MOL0     C68067   8.620  10.096   1.083 -0.3550  0.0170  0.4478
  505MOL0     C68068   8.662  10.013   1.185  0.5891  0.5080 -0.1663
  505MOL0     C68069   8.809   9.993   1.212  0.0816  0.2854 -0.1373
  505MOL0     O68070   8.847   9.893   1.296 -0.7070 -0.5870  0.2574
  505MOL0     C68071   8.983   9.885   1.339 -0.4777  0.6555  0.1922
  505MOL0     C68072   9.027   9.935   1.468  0.7013  0.4682  0.4362
  505MOL0     C68073   9.151   9.906   1.515 -1.0934 -0.7228  0.2330
  505MOL0     C68074   9.247   9.841   1.432  0.4539 -0.3472 -0.0272
  505MOL0     O68075   9.371   9.841   1.480 -0.4875  0.2044 -0.8088
  505MOL0     C68076   9.468   9.761   1.412  0.0081  0.9784 -0.4426
  505MOL0     C68077   9.609   9.779   1.461  0.9903 -0.8801  0.3482
  505MOL0     C68078   9.613   9.735   1.604  0.1561 -0.4791 -0.2067
  505MOL0     C68079   9.742   9.784   1.666 -0.1217  0.6528 -0.7430
  505MOL0     C68080   9.755   9.723   1.813  0.0036 -0.3369  0.1514
  505MOL0     C68081   9.896   9.748   1.862  0.9508  0.1400 -0.4984
  505MOL0     C68082   9.918   9.896   1.884 -0.8676 -0.1721  0.5459
  505MOL0     C68083  10.041   9.923   1.972  0.2759  0.7693  0.5193
  505MOL0    Cl68084  10.101  10.098   1.968 -0.3104  0.0524 -0.1873
  505MOL0     C68085   9.204   9.792   1.303 -0.0949  0.8057  0.2138
  505MOL0     C68086   9.074   9.811   1.259 -0.1825  0.0588 -0.0842
  505MOL0     O68087   8.881  10.080   1.165 -0.0414  0.6921 -0.2759
  505MOL0     C68088   8.571   9.951   1.268  0.4521  0.1253 -0.9657
  505MOL0     C68089   8.435   9.981   1.250  0.4571  0.2664 -0.0545
  505MOL0     N68090   7.862  10.530   0.980  0.4444 -0.2504 -0.1664
  505MOL0     N68091   7.768  10.606   1.029 -0.7290  0.1635  0.1884
  505MOL0     C68092   6.776  10.730   2.021  0.1994 -0.3645 -0.0609
  505MOL0     C68093   6.647  10.727   2.063  0.2997 -0.1979 -0.5308
  505MOL0     C68094   6.237  10.572   2.227  0.0042 -0.5163  0.2843
  505MOL0     C68095   6.223  10.713   2.235  0.2956 -0.6770 -0.2460
  505MOL0     C68096   6.102  10.769   2.271 -0.2375 -0.5383  0.2219
  505MOL0     C68097   5.988  10.694   2.306  0.9105  0.7214  0.9766
  505MOL0     O68098   5.883  10.746   2.366 -0.2523  1.2305 -0.6223
  505MOL0     C68099   5.778  10.790   2.281  0.0483  0.5947  0.3942
  505MOL0     C68100   5.683  10.688   2.226 -0.2600 -0.8739 -0.3944
  505MOL0     C68101   5.581  10.646   2.340  0.0960 -0.2300 -0.5483
  505MOL0     C68102   5.639  10.556   2.455 -0.1491  0.7362 -0.3077
  505MOL0     C68103   5.673  10.417   2.413 -0.3504 -0.8645  0.4772
  505MOL0     C68104   5.724  10.309   2.389 -0.9257  1.2437 -0.5981
  505MOL0     C68105   6.007  10.556   2.310 -0.6982  0.4180 -0.8093
  505MOL0     C68106   6.128  10.495   2.263 -0.4624  0.0360 -0.6937
  505MOL0     C68107   6.137  10.350   2.288 -0.8855 -0.5283 -0.0333
  505MOL0     H68108   6.618  10.387   2.051  2.8615 -1.0947  2.1057
  505MOL0     H68109   6.830  10.400   1.973  2.5748  0.7826 -0.4805
  505MOL0     H68110   7.061  10.460   1.858 -1.1347  0.3800  1.1386
  505MOL0     H68111   6.924  10.498   1.760  1.4967  0.2396 -2.6082
  505MOL0     H68112   7.132  10.712   1.766 -3.7425  0.8881  1.3174
  505MOL0     H68113   7.018  10.666   1.638  0.3760 -0.4508 -0.3471
  505MOL0     H68114   7.134  10.449   1.628 -0.5916  0.6497 -0.6719
  505MOL0     H68115   7.270  10.511   1.729  0.5965  0.5697 -0.1183
  505MOL0     H68116   7.196  10.637   1.462 -0.5786 -2.9422  0.0903
  505MOL0     H68117   7.311  10.703   1.574  1.3731 -0.9490  0.0992
  505MOL0     H68118   7.445  10.515   1.550 -0.8481  0.4801 -0.2965
  505MOL0     H68119   7.326  10.418   1.451 -2.0932  0.6252 -1.0215
  505MOL0     H68120   7.319  10.579   1.273  0.5657 -0.0380 -0.8994
  505MOL0     H68121   7.438  10.674   1.362 -0.7913  0.4350  0.1334
  505MOL0     H68122   7.483  10.400   1.243 -0.1589 -0.3502 -0.8429
  505MOL0     H68123   7.607  10.510   1.320  0.9143  1.0907 -2.2775
  505MOL0     H68124   7.446  10.537   1.066 -0.7183  1.4866  0.7732
  505MOL0     H68125   7.529  10.675   1.127 -1.6070 -0.2017 -3.0386
  505MOL0     H68126   7.640  10.312   1.107  0.9167 -0.3888  2.8372
  505MOL0     H68127   7.837  10.191   1.008 -1.2827 -1.2194 -0.3234
  505MOL0     H68128   7.854  10.261   0.851 -1.0836 -2.1504  1.3331
  505MOL0     H68129   8.092  10.328   0.935  2.6177 -1.1092  0.6342
  505MOL0     H68130   8.036  10.297   1.097 -0.4344  2.2139 -0.6498
  505MOL0     H68131   8.040  10.084   0.872  0.3567 -0.0324 -1.2146
  505MOL0     H68132   8.016  10.052   1.043 -0.8525 -1.6430 -2.3389
  505MOL0     H68133   8.260  10.206   0.949 -2.4517  0.1562 -2.6357
  505MOL0     H68134   8.262  10.033   0.931 -0.4745  0.8957 -1.4198
  505MOL0     H68135   8.464  10.198   0.987 -1.5992 -1.0936 -1.2222
  505MOL0     H68136   8.687  10.128   1.004 -0.4046 -1.7953 -0.3754
  505MOL0     H68137   8.958   9.974   1.542  0.3113  2.3216 -0.8210
  505MOL0     H68138   9.180   9.936   1.616 -0.3958  1.3582 -0.5516
  505MOL0     H68139   9.452   9.654   1.421 -1.8667  1.3013  0.4521
  505MOL0     H68140   9.493   9.791   1.309  1.9207  1.4691  0.1213
  505MOL0     H68141   9.682   9.715   1.410  1.4957  0.7675 -1.0935
  505MOL0     H68142   9.630   9.886   1.448 -0.2522 -0.5270  1.1254
  505MOL0     H68143   9.539   9.786   1.666  0.8822  1.8381 -1.1356
  505MOL0     H68144   9.604   9.626   1.611 -0.5612 -0.3356  1.6068
  505MOL0     H68145   9.741   9.893   1.674  0.7833  0.7687 -1.8820
  505MOL0     H68146   9.831   9.751   1.611  0.1195 -0.6934  0.4122
  505MOL0     H68147   9.757   9.613   1.807  3.7374 -0.3051 -3.7754
  505MOL0     H68148   9.681   9.764   1.883  1.3263 -0.2078  1.5283
  505MOL0     H68149   9.903   9.687   1.953 -0.1011 -0.5416 -0.8477
  505MOL0     H68150   9.973   9.724   1.789  0.6267 -0.5885 -0.6154
  505MOL0     H68151   9.830   9.941   1.933  0.6125 -0.7929  4.1397
  505MOL0     H68152   9.931   9.947   1.789  0.5810 -1.1775  0.1886
  505MOL0     H68153  10.021   9.902   2.078  1.5749  3.0722  1.3046
  505MOL0     H68154  10.130   9.862   1.958  0.5692  0.8712  1.7802
  505MOL0     H68155   9.271   9.738   1.237  2.5375  1.4532  2.1779
  505MOL0     H68156   9.042   9.760   1.168 -0.4335 -3.0300  1.5909
  505MOL0     H68157   8.613   9.889   1.347  0.8227  1.7085  0.1269
  505MOL0     H68158   8.365   9.945   1.325  1.6107  1.0550  1.4505
  505MOL0     H68159   6.809  10.830   1.994 -3.9592  0.5781 -2.5067
  505MOL0     H68160   6.596  10.820   2.087  1.4784  1.5604 -4.0964
  505MOL0     H68161   6.310  10.768   2.201  0.5123 -0.5627  0.4804
  505MOL0     H68162   6.090  10.877   2.265 -1.3112 -0.7213 -1.3250
  505MOL0     H68163   5.831  10.843   2.202  1.3929 -0.1051  0.8018
  505MOL0     H68164   5.715  10.859   2.338  1.7373  1.6017  1.1086
  505MOL0     H68165   5.741  10.610   2.176  0.1679 -0.0871 -1.1480
  505MOL0     H68166   5.615  10.738   2.155 -1.5833  1.8924  2.5742
  505MOL0     H68167   5.498  10.588   2.298  0.7342 -2.4735  1.0910
  505MOL0     H68168   5.535  10.735   2.383 -1.0743 -1.1605  0.1833
  505MOL0     H68169   5.729  10.587   2.509 -0.6536 -1.1968  1.8343
  505MOL0     H68170   5.566  10.541   2.536 -0.6040 -2.9811 -1.2237
  505MOL0     H68171   5.736  10.204   2.371 -1.1398  1.4512 -2.0484
  505MOL0     H68172   5.919  10.500   2.339 -1.7288  1.6060 -1.5084
  505MOL0     H68173   6.138  10.295   2.193 -2.9677  3.0830 -2.4210
  505MOL0     H68174   6.228  10.334   2.346 -1.1281  0.3741  0.6186
  505MOL0     H68175   6.051  10.305   2.339 -0.2111 -2.7415 -0.7158
  506MOL0     O68176   5.289   7.457   8.741 -0.1704 -0.4191 -0.0781
  506MOL0     C68177   5.251   7.572   8.713  0.3017  0.1602  0.0370
  506MOL0     O68178   5.319   7.672   8.645  0.2188 -0.1550  0.9412
  506MOL0     C68179   5.445   7.643   8.598 -0.8468 -0.1968  0.7981
  506MOL0     C68180   5.546   7.688   8.680  0.2481 -0.3217 -0.1089
  506MOL0     C68181   5.677   7.680   8.632 -0.0738 -0.8159 -0.7552
  506MOL0     C68182   5.708   7.641   8.499  0.2723 -0.6441 -0.5171
  506MOL0     O68183   5.837   7.649   8.452 -0.4397 -0.4317 -0.8452
  506MOL0     C68184   5.846   7.696   8.326 -0.6020 -0.8932 -0.7005
  506MOL0     C68185   5.989   7.721   8.290  1.4283  0.4920 -0.2626
  506MOL0     C68186   6.057   7.584   8.251 -0.2026 -0.5218  0.1711
  506MOL0     C68187   6.207   7.594   8.243 -0.8605 -1.2294  0.8380
  506MOL0     C68188   6.282   7.467   8.196 -0.1954  0.7678  0.3960
  506MOL0     C68189   6.426   7.482   8.162 -0.0478  0.8319 -0.3418
  506MOL0     C68190   6.535   7.482   8.275  0.1075 -0.3983  0.5992
  506MOL0     C68191   6.665   7.530   8.203  0.2560  0.4575 -0.0510
  506MOL0     N68192   6.673   7.669   8.163  0.4820  0.2651 -0.0802
  506MOL0     C68193   6.766   7.712   8.075  0.0607 -0.4034 -0.5404
  506MOL0     C68194   6.758   7.844   8.085 -0.4772 -0.0298 -0.6553
  506MOL0     C68195   6.854   7.929   8.002 -0.5217  0.0071 -0.8091
  506MOL0     C68196   6.941   8.023   8.079 -0.2677  0.1168 -0.5496
  506MOL0     C68197   7.046   8.097   8.000  0.8885 -0.1090  0.6435
  506MOL0     C68198   7.146   8.169   8.105 -0.0605 -0.1150 -0.6337
  506MOL0     O68199   7.271   8.209   8.045 -0.1114 -0.2076  0.0189
  506MOL0     C68200   7.370   8.256   8.130 -0.1173 -0.2187 -0.2222
  506MOL0     C68201   7.404   8.210   8.253  0.5561 -0.5405 -0.5433
  506MOL0     C68202   7.508   8.270   8.326 -0.8258 -0.4264 -0.0122
  506MOL0     C68203   7.590   8.368   8.264  0.3523 -0.5285  0.0500
  506MOL0     C68204   7.699   8.439   8.332 -0.0140 -0.4659 -0.1449
  506MOL0     O68205   7.720   8.569   8.299  0.8656 -0.1025  0.2027
  506MOL0     C68206   7.826   8.621   8.368  0.0912 -0.0436 -0.1882
  506MOL0     C68207   7.794   8.689   8.485 -0.2991 -0.7523  0.7115
  506MOL0     C68208   7.905   8.747   8.552 -0.3682 -0.5841  0.3236
  506MOL0     C68209   8.037   8.737   8.508  1.1020 -0.7713  0.4044
  506MOL0     O68210   8.120   8.800   8.594  0.1248  0.4464  0.1035
  506MOL0     C68211   8.243   8.724   8.618  0.4018 -0.3562  0.4615
  506MOL0     C68212   8.353   8.773   8.531 -0.2723  0.5077 -0.2915
  506MOL0     C68213   8.450   8.668   8.499  0.5402 -0.7026  0.3102
  506MOL0     C68214   8.519   8.594   8.611  0.2248 -0.8389  0.6257
  506MOL0     C68215   8.625   8.502   8.565  0.7868 -0.8583  0.5400
  506MOL0     C68216   8.723   8.571   8.470 -0.3847  0.7039  0.6846
  506MOL0     C68217   8.829   8.471   8.434  0.1040 -0.3481  0.1405
  506MOL0     C68218   8.778   8.377   8.320  0.3218 -0.4436  0.0771
  506MOL0    Cl68219   8.798   8.461   8.170 -0.0420 -0.1355  0.2793
  506MOL0     C68220   8.057   8.681   8.378 -0.3726 -0.6779  0.1833
  506MOL0     C68221   7.953   8.614   8.312  0.1530  0.1425  0.4637
  506MOL0     O68222   7.765   8.373   8.413  0.5240  0.1626  0.3812
  506MOL0     C68223   7.555   8.416   8.140 -0.5423 -0.2303  1.2006
  506MOL0     C68224   7.449   8.352   8.070 -1.8178  1.0040 -0.0945
  506MOL0     N68225   6.658   7.879   8.166 -0.2308 -0.3023 -0.5944
  506MOL0     N68226   6.614   7.773   8.222 -0.2612  0.7544 -0.2705
  506MOL0     C68227   5.605   7.592   8.419 -1.0779  0.4727  0.8366
  506MOL0     C68228   5.472   7.597   8.465 -0.0490  0.1776 -0.8061
  506MOL0     C68229   5.112   7.617   8.756 -0.0464 -1.1891 -0.4981
  506MOL0     C68230   5.070   7.756   8.740  0.1437  0.4027  0.8933
  506MOL0     C68231   4.954   7.810   8.784 -0.0016 -0.1182  0.1957
  506MOL0     C68232   4.869   7.740   8.863 -0.6783 -0.4979  0.3206
  506MOL0     O68233   4.756   7.809   8.894  0.5920  0.1089  0.6992
  506MOL0     C68234   4.646   7.718   8.929  0.0906 -0.3761  0.7822
  506MOL0     C68235   4.521   7.799   8.950  0.2421  0.0249  0.1128
  506MOL0     C68236   4.554   7.866   9.082 -0.0334 -0.3595  0.5281
  506MOL0     C68237   4.438   7.961   9.127 -0.7269 -0.0931  0.4484
  506MOL0     C68238   4.437   8.084   9.042  0.2759  0.2731  0.8250
  506MOL0     C68239   4.434   8.180   8.967 -0.0013  0.1229  0.5422
  506MOL0     C68240   4.904   7.596   8.884 -0.1807 -0.6644  0.7027
  506MOL0     C68241   5.024   7.542   8.834 -0.2361 -0.0198 -0.4491
  506MOL0     C68242   5.046   7.395   8.870  0.3962  1.4829 -0.1668
  506MOL0     H68243   5.524   7.706   8.784 -0.1082  0.0585 -0.2471
  506MOL0     H68244   5.764   7.701   8.694 -1.2295 -0.6121  0.8738
  506MOL0     H68245   5.794   7.632   8.255 -4.3426 -0.7649  1.6190
  506MOL0     H68246   5.795   7.793   8.320  0.8647 -0.1967 -3.1741
  506MOL0     H68247   6.034   7.764   8.381 -0.6044  1.8935  0.1442
  506MOL0     H68248   5.994   7.790   8.205 -0.9245 -0.1200 -0.9591
  506MOL0     H68249   6.022   7.550   8.153 -0.4361 -1.0980  0.4472
  506MOL0     H68250   6.021   7.512   8.325  1.0318 -2.2404 -0.8144
  506MOL0     H68251   6.229   7.663   8.161  2.1549 -0.5777  2.0438
  506MOL0     H68252   6.241   7.640   8.336 -1.7028  1.3978 -0.0736
  506MOL0     H68253   6.267   7.388   8.269  4.5572  0.6539  1.5893
  506MOL0     H68254   6.243   7.435   8.099  1.1641 -1.6241  0.5711
  506MOL0     H68255   6.447   7.388   8.109  0.3256  0.1725  0.9404
  506MOL0     H68256   6.437   7.566   8.093 -0.6188  1.8822  0.8136
  506MOL0     H68257   6.542   7.380   8.312 -0.5649 -1.3157 -1.6427
  506MOL0     H68258   6.506   7.551   8.355 -0.7901 -1.0291  0.8323
  506MOL0     H68259   6.736   7.510   8.284 -1.0836 -0.6153  0.9049
  506MOL0     H68260   6.690   7.461   8.122  1.8245 -1.0304  1.6100
  506MOL0     H68261   6.834   7.654   8.014  1.5711 -0.4423  1.0851
  506MOL0     H68262   6.925   7.864   7.950 -0.5274 -0.9710  0.3724
  506MOL0     H68263   6.798   7.985   7.927  0.6399  0.9132 -1.0393
  506MOL0     H68264   6.879   8.102   8.123  1.7441  0.9703  0.8878
  506MOL0     H68265   7.000   7.973   8.156  1.1136  0.1570 -1.5416
  506MOL0     H68266   7.009   8.181   7.940  4.4824  3.9450  3.4821
  506MOL0     H68267   7.095   8.029   7.930 -1.4516 -1.0577 -0.1697
  506MOL0     H68268   7.174   8.093   8.178  1.7785  0.6230 -0.5352
  506MOL0     H68269   7.095   8.252   8.155 -1.2040 -1.2018  0.0634
  506MOL0     H68270   7.346   8.134   8.303  2.8687 -2.8590 -1.1914
  506MOL0     H68271   7.532   8.237   8.427 -2.7885  0.1259  0.6644
  506MOL0     H68272   7.690   8.692   8.517  0.2141  0.2263  2.3937
  506MOL0     H68273   7.889   8.808   8.640  4.6331  3.2332 -0.9432
  506MOL0     H68274   8.270   8.729   8.724  0.0592 -1.3108  0.6094
  506MOL0     H68275   8.221   8.619   8.593  0.1664  0.1181 -1.4451
  506MOL0     H68276   8.335   8.814   8.432  4.6278  3.5506 -0.2980
  506MOL0     H68277   8.403   8.857   8.581 -0.6055 -0.0716  1.0456
  506MOL0     H68278   8.408   8.598   8.426 -0.2301 -2.9705  2.7675
  506MOL0     H68279   8.527   8.733   8.456  0.8755  1.4069  3.6998
  506MOL0     H68280   8.455   8.521   8.663 -0.0174 -1.4357 -0.4698
  506MOL0     H68281   8.574   8.662   8.676  3.8557  0.3708 -3.2671
  506MOL0     H68282   8.578   8.420   8.510  0.0178 -0.6021  0.7910
  506MOL0     H68283   8.674   8.474   8.658  1.0827  0.6860  0.8889
  506MOL0     H68284   8.678   8.624   8.385  3.3018 -0.1218 -2.0562
  506MOL0     H68285   8.767   8.650   8.533 -1.6072  1.1615  0.9983
  506MOL0     H68286   8.857   8.418   8.525  1.4767 -2.1651 -1.2655
  506MOL0     H68287   8.914   8.534   8.403 -1.1033  1.5388  0.5265
  506MOL0     H68288   8.835   8.284   8.320  0.9043 -0.0985  1.0270
  506MOL0     H68289   8.677   8.340   8.339 -1.4182  2.7965 -1.9999
  506MOL0     H68290   8.158   8.678   8.339 -1.0958 -2.4859 -1.7555
  506MOL0     H68291   7.966   8.561   8.219  0.1504 -1.4080  1.3183
  506MOL0     H68292   7.607   8.494   8.085  3.3622 -0.7109  3.8563
  506MOL0     H68293   7.425   8.372   7.966  1.4654  1.6540 -0.8467
  506MOL0     H68294   5.627   7.551   8.321  1.0043  0.7485  1.1474
  506MOL0     H68295   5.392   7.561   8.402 -0.1987 -0.0116 -0.5145
  506MOL0     H68296   5.144   7.821   8.694  1.6696 -0.8723  1.4354
  506MOL0     H68297   4.937   7.917   8.780  1.0935  0.0306 -0.8621
  506MOL0     H68298   4.651   7.661   9.022 -3.0049  0.2634  1.4606
  506MOL0     H68299   4.629   7.641   8.854 -0.8758 -0.4562  1.0582
  506MOL0     H68300   4.427   7.744   8.963  0.0824  0.2288 -0.1573
  506MOL0     H68301   4.504   7.865   8.864 -0.3806  0.6736  0.7218
  506MOL0     H68302   4.643   7.929   9.076  0.8544 -1.5108  1.1122
  506MOL0     H68303   4.578   7.797   9.164  3.4959  0.8863  0.7409
  506MOL0     H68304   4.345   7.906   9.115  0.0366 -0.8994 -2.6213
  506MOL0     H68305   4.448   7.995   9.231  1.8402  0.1350  0.1998
  506MOL0     H68306   4.445   8.263   8.902 -0.3508 -1.5300 -1.7495
  506MOL0     H68307   4.841   7.537   8.950 -0.1881 -2.4905 -0.8577
  506MOL0     H68308   5.073   7.346   8.776 -2.5563 -1.0518  0.1685
  506MOL0     H68309   5.118   7.400   8.953 -2.0112  0.3038  2.1198
  506MOL0     H68310   4.958   7.341   8.904 -1.6056  2.3719 -3.5872
  507MOL0     O68311   4.183   3.748   6.071  0.7698 -0.4600  0.2852
  507MOL0     C68312   4.229   3.847   6.016 -0.2472 -0.4429  0.0785
  507MOL0     O68313   4.154   3.952   5.992  0.4490 -0.1073 -0.1056
  507MOL0     C68314   4.019   3.938   6.031  0.7305 -0.1806  0.1753
  507MOL0     C68315   3.964   3.951   6.158 -0.5086 -0.3357  0.8237
  507MOL0     C68316   3.827   3.926   6.182  0.5330  0.8406  0.4649
  507MOL0     C68317   3.743   3.884   6.073  0.1887 -0.9354  0.4206
  507MOL0     O68318   3.617   3.871   6.108 -0.2506  0.1412  0.2429
  507MOL0     C68319   3.515   3.903   6.010  0.9354 -0.0927 -1.1136
  507MOL0     C68320   3.387   3.955   6.085  0.4429  0.0862  0.8535
  507MOL0     C68321   3.415   4.094   6.147  1.1478 -0.6119 -0.1105
  507MOL0     C68322   3.400   4.210   6.043 -0.7819 -0.1500  0.3173
  507MOL0     C68323   3.432   4.345   6.105  0.0549  0.2591  0.5951
  507MOL0     C68324   3.451   4.453   6.004 -1.0197 -0.5055 -0.3349
  507MOL0     C68325   3.323   4.479   5.922 -0.5987  1.2659  0.0403
  507MOL0     C68326   3.354   4.529   5.778 -0.0442 -0.7147 -0.2847
  507MOL0     N68327   3.380   4.416   5.679 -0.2792  0.1085  0.1590
  507MOL0     C68328   3.328   4.404   5.549  0.1934 -0.2351  0.1058
  507MOL0     C68329   3.392   4.297   5.500  0.2150 -0.8244  0.0977
  507MOL0     C68330   3.380   4.262   5.357  0.1874  0.3205 -0.3484
  507MOL0     C68331   3.242   4.275   5.303  0.1076 -0.3775  0.4297
  507MOL0     C68332   3.169   4.134   5.284  0.3848  0.6244  0.5064
  507MOL0     C68333   3.025   4.132   5.226 -0.4030  0.3527 -1.1216
  507MOL0     O68334   2.927   4.161   5.331 -0.2549  1.3698 -0.4290
  507MOL0     C68335   2.835   4.252   5.299 -0.1754  0.8309 -0.5429
  507MOL0     C68336   2.830   4.384   5.341 -0.6492  0.1270  0.3413
  507MOL0     C68337   2.725   4.471   5.312 -0.3816  0.5475 -0.0950
  507MOL0     C68338   2.615   4.420   5.233  0.3019 -0.5243  0.1205
  507MOL0     C68339   2.486   4.496   5.219 -0.0880  0.7253  0.6536
  507MOL0     O68340   2.383   4.440   5.155 -0.6081  0.8382 -0.1546
  507MOL0     C68341   2.264   4.504   5.133  0.6173  0.4143 -0.0665
  507MOL0     C68342   2.247   4.563   5.008 -0.1537 -0.8772  0.3646
  507MOL0     C68343   2.136   4.640   4.973  0.1833  0.2130  0.2487
  507MOL0     C68344   2.028   4.649   5.069  0.4605  0.3144  0.1289
  507MOL0     O68345   1.903   4.703   5.029 -0.1323  0.2036  0.3797
  507MOL0     C68346   1.785   4.664   5.097 -0.0155  0.0778  0.2636
  507MOL0     C68347   1.660   4.696   4.998 -0.6493  0.1373 -0.3579
  507MOL0     C68348   1.613   4.845   5.003  0.0961  0.0397  0.3775
  507MOL0     C68349   1.500   4.869   4.905 -0.5287 -0.4960 -0.5186
  507MOL0     C68350   1.439   5.007   4.951 -0.0686 -0.4033  0.2498
  507MOL0     C68351   1.528   5.136   4.930  0.4599 -0.2229 -0.0668
  507MOL0     C68352   1.573   5.177   4.793  0.1390 -0.3383 -0.1739
  507MOL0     C68353   1.716   5.236   4.797 -0.4902  0.6163  0.2713
  507MOL0    Cl68354   1.754   5.312   4.643 -0.1582 -0.1970 -0.2549
  507MOL0     C68355   2.045   4.591   5.190 -0.0827  0.8490 -1.0314
  507MOL0     C68356   2.163   4.519   5.233  0.0718 -0.7396 -0.2035
  507MOL0     O68357   2.482   4.608   5.274 -0.0615  0.4781 -0.3360
  507MOL0     C68358   2.621   4.284   5.195  0.9136 -0.5121 -0.4139
  507MOL0     C68359   2.727   4.202   5.228 -0.3984  0.2846 -1.1183
  507MOL0     N68360   3.469   4.242   5.597  0.2931 -0.0565  0.1533
  507MOL0     N68361   3.460   4.307   5.706 -0.0899 -1.1676  0.8341
  507MOL0     C68362   3.801   3.889   5.945  0.2840  0.3740  0.0015
  507MOL0     C68363   3.932   3.901   5.937 -0.7158  0.8605  0.7234
  507MOL0     C68364   4.378   3.856   5.993 -0.6448 -0.2472 -0.6134
  507MOL0     C68365   4.425   3.955   5.897 -0.4719  0.1808 -0.3959
  507MOL0     C68366   4.559   3.979   5.876 -0.4773  0.0153 -0.7911
  507MOL0     C68367   4.657   3.908   5.934  0.2894  1.3315  0.0110
  507MOL0     O68368   4.791   3.939   5.906  0.5829  0.1207  0.4311
  507MOL0     C68369   4.906   3.877   5.977  0.1703  0.0243  0.2024
  507MOL0     C68370   4.937   3.747   5.911 -0.1472 -1.0415 -0.9047
  507MOL0     C68371   5.041   3.653   5.972 -0.4937  1.2182 -0.5302
  507MOL0     C68372   5.182   3.706   5.944 -0.6409 -0.3747 -0.1326
  507MOL0     C68373   5.278   3.626   6.018  0.0220  0.8707 -0.4328
  507MOL0     C68374   5.363   3.567   6.087  0.7970 -0.3359  0.3122
  507MOL0     C68375   4.619   3.801   6.018 -0.2686  0.6263 -0.5749
  507MOL0     C68376   4.482   3.772   6.054 -0.2328 -0.2126  0.5008
  507MOL0     C68377   4.442   3.652   6.145  0.1832 -0.4226 -0.5266
  507MOL0     H68378   4.008   3.980   6.252 -3.1475  0.4821  1.8946
  507MOL0     H68379   3.783   3.939   6.281 -3.0411  1.4160 -1.0729
  507MOL0     H68380   3.541   3.970   5.927 -0.3121 -0.1383 -1.5591
  507MOL0     H68381   3.500   3.808   5.958  2.2488 -0.1421 -1.4481
  507MOL0     H68382   3.344   3.897   6.167 -3.5795  2.3906  0.6169
  507MOL0     H68383   3.311   3.977   6.010  1.0925  0.8673  0.3993
  507MOL0     H68384   3.515   4.089   6.191  0.8419  1.2191  0.8861
  507MOL0     H68385   3.344   4.115   6.227 -2.1805  1.4718 -3.2755
  507MOL0     H68386   3.463   4.193   5.956 -0.4455  1.2684  0.2608
  507MOL0     H68387   3.299   4.215   6.001 -0.0764  3.1198 -1.3294
  507MOL0     H68388   3.348   4.365   6.173 -3.1574  0.3977 -3.0266
  507MOL0     H68389   3.520   4.338   6.169 -0.1205 -0.4661  0.7647
  507MOL0     H68390   3.486   4.544   6.053 -1.0300  1.0461 -3.0091
  507MOL0     H68391   3.532   4.424   5.937 -1.6342  0.2362 -1.4391
  507MOL0     H68392   3.276   4.555   5.986  0.8693  0.6186  1.9929
  507MOL0     H68393   3.266   4.386   5.911  3.6536 -1.5503 -0.3335
  507MOL0     H68394   3.268   4.580   5.734 -1.1779 -1.9443  0.4386
  507MOL0     H68395   3.436   4.601   5.785 -1.3136  0.6832  1.0925
  507MOL0     H68396   3.258   4.474   5.504  1.7368  1.5039  0.2988
  507MOL0     H68397   3.436   4.337   5.300  0.1461 -0.2390 -1.1429
  507MOL0     H68398   3.427   4.167   5.332 -1.8379 -1.3576  1.7673
  507MOL0     H68399   3.172   4.332   5.366 -0.2588 -1.1107  0.6952
  507MOL0     H68400   3.241   4.325   5.206 -0.6594  0.8466  1.0380
  507MOL0     H68401   3.174   4.073   5.375  1.0399 -1.9475 -1.1560
  507MOL0     H68402   3.231   4.070   5.220  1.3582  1.3559  0.6933
  507MOL0     H68403   3.003   4.033   5.185 -0.1601 -0.5359  0.7754
  507MOL0     H68404   3.027   4.197   5.138  2.6260  2.8133  0.5608
  507MOL0     H68405   2.906   4.428   5.405 -1.3391  1.5478  0.2070
  507MOL0     H68406   2.739   4.573   5.347  2.6598  0.1513  0.0919
  507MOL0     H68407   2.319   4.552   4.928 -2.9862  1.4626 -2.8177
  507MOL0     H68408   2.136   4.690   4.877  1.2686 -0.6012 -0.2056
  507MOL0     H68409   1.790   4.557   5.116 -1.6669 -0.4822 -2.0089
  507MOL0     H68410   1.770   4.723   5.188 -0.3919 -1.7493  1.4227
  507MOL0     H68411   1.702   4.703   4.897 -0.2742  1.8301 -0.1246
  507MOL0     H68412   1.581   4.624   5.018  0.7736 -1.7137 -1.1057
  507MOL0     H68413   1.602   4.874   5.108  0.9753 -0.1449  0.5296
  507MOL0     H68414   1.695   4.904   4.960 -0.7751 -0.1083 -1.5522
  507MOL0     H68415   1.413   4.804   4.912 -2.1832  1.5438 -1.0731
  507MOL0     H68416   1.543   4.871   4.804 -0.6649  1.6335 -0.5817
  507MOL0     H68417   1.403   4.989   5.053  2.4030 -2.2814  0.8904
  507MOL0     H68418   1.341   5.022   4.903 -0.0122  1.3275  0.6113
  507MOL0     H68419   1.468   5.218   4.969 -2.2095 -1.8301 -0.5341
  507MOL0     H68420   1.613   5.122   4.998  0.6472 -0.0203 -0.2545
  507MOL0     H68421   1.510   5.265   4.776 -3.5300 -2.6164  0.3802
  507MOL0     H68422   1.550   5.099   4.720  2.1749 -2.0645  0.9009
  507MOL0     H68423   1.730   5.311   4.875 -1.3500 -0.1711  1.2032
  507MOL0     H68424   1.783   5.152   4.815 -1.9005 -0.5390  0.3154
  507MOL0     H68425   1.965   4.595   5.263  1.9709 -0.7197  1.4892
  507MOL0     H68426   2.174   4.477   5.332 -1.6963 -2.0565 -0.5207
  507MOL0     H68427   2.533   4.247   5.143 -1.2914  1.0068  1.9456
  507MOL0     H68428   2.724   4.096   5.204 -1.2761  0.9207 -4.3498
  507MOL0     H68429   3.750   3.854   5.856  3.1420 -1.2786 -1.0975
  507MOL0     H68430   3.955   3.889   5.832 -3.2955  1.0764  0.0679
  507MOL0     H68431   4.370   4.037   5.852 -1.3291  1.4487  2.7119
  507MOL0     H68432   4.593   4.056   5.808 -2.6647  2.5640  0.8069
  507MOL0     H68433   4.880   3.849   6.080 -1.4955 -1.4291 -0.5503
  507MOL0     H68434   4.995   3.940   5.973  1.3102 -1.3362  2.1507
  507MOL0     H68435   4.974   3.764   5.809  3.0610 -0.8771  0.1774
  507MOL0     H68436   4.843   3.692   5.911 -0.0589 -1.2702  1.1807
  507MOL0     H68437   5.028   3.559   5.917 -1.4485 -0.6654  2.6184
  507MOL0     H68438   5.022   3.638   6.079  1.1572  0.6318 -0.2852
  507MOL0     H68439   5.199   3.714   5.836  2.1752 -0.6207  0.2071
  507MOL0     H68440   5.168   3.804   5.992 -0.0849  0.3331 -1.3544
  507MOL0     H68441   5.434   3.515   6.147  0.8102 -1.2547 -0.4639
  507MOL0     H68442   4.698   3.738   6.056 -0.3579  1.0475  0.3300
  507MOL0     H68443   4.384   3.581   6.085  0.1372  0.3864 -1.4634
  507MOL0     H68444   4.527   3.592   6.179 -0.2115 -0.6665  0.0423
  507MOL0     H68445   4.384   3.672   6.235 -1.4054 -3.2950 -0.7842
  508MOL0     O68446  10.374   4.055   3.789 -0.4845  0.7565  0.6025
  508MOL0     C68447  10.394   4.089   3.671 -1.1900  0.7414  0.0660
  508MOL0     O68448  10.310   4.074   3.574 -0.3088 -0.8780  0.2333
  508MOL0     C68449  10.177   4.031   3.597 -0.1483 -0.4537 -0.0665
  508MOL0     C68450  10.077   4.116   3.640  0.2357 -0.5069  0.0213
  508MOL0     C68451   9.941   4.070   3.646  0.9029 -0.4283  0.7408
  508MOL0     C68452   9.907   3.935   3.619  1.0386  0.2021 -0.0161
  508MOL0     O68453   9.771   3.897   3.629  0.6829  0.1197 -0.5510
  508MOL0     C68454   9.728   3.758   3.596 -1.1090  0.2041  0.5051
  508MOL0     C68455   9.582   3.745   3.631 -0.7829 -0.0401 -0.4903
  508MOL0     C68456   9.552   3.767   3.789  0.0511 -0.0123  0.5238
  508MOL0     C68457   9.404   3.730   3.831  1.0299 -0.2036 -0.0145
  508MOL0     C68458   9.353   3.821   3.947 -0.0672  0.2912 -0.1546
  508MOL0     C68459   9.212   3.774   3.990  0.0734  0.3028  0.0593
  508MOL0     C68460   9.222   3.657   4.089  0.2275  0.7097 -0.2785
  508MOL0     C68461   9.088   3.581   4.123 -0.6033 -0.7909 -0.5021
  508MOL0     N68462   8.978   3.659   4.183 -0.5260  0.0166  0.2167
  508MOL0     C68463   8.994   3.725   4.304  0.2639  0.0371  0.6472
  508MOL0     C68464   8.868   3.772   4.324  0.0665  0.0341 -0.3550
  508MOL0     C68465   8.830   3.852   4.446 -0.0419  0.6397  0.7011
  508MOL0     C68466   8.783   3.997   4.402 -0.1683 -0.3129  0.0860
  508MOL0     C68467   8.885   4.086   4.328 -0.2213 -0.4098  0.9698
  508MOL0     C68468   9.022   4.105   4.385 -0.7913 -0.0226  0.8944
  508MOL0     O68469   9.126   4.017   4.348  0.7263 -0.0758 -0.6102
  508MOL0     C68470   9.250   4.046   4.395 -0.6815 -0.2722  0.3580
  508MOL0     C68471   9.354   3.986   4.321 -0.5454  0.2860 -0.6514
  508MOL0     C68472   9.487   4.019   4.365 -0.4082 -0.0104  0.6432
  508MOL0     C68473   9.513   4.105   4.470 -0.6128 -0.3187  0.1594
  508MOL0     C68474   9.649   4.159   4.489  0.4589 -0.1186 -0.3116
  508MOL0     O68475   9.733   4.140   4.384  0.1934  0.3846 -0.9371
  508MOL0     C68476   9.862   4.182   4.414  0.9288 -0.3708  0.6670
  508MOL0     C68477   9.963   4.100   4.439  0.0667 -0.1409  1.2090
  508MOL0     C68478  10.092   4.150   4.451  0.0757 -0.2103  0.2103
  508MOL0     C68479  10.122   4.287   4.453  1.0200  0.2045 -0.3544
  508MOL0     O68480  10.252   4.333   4.459  0.1981  0.1317 -0.0384
  508MOL0     C68481  10.308   4.392   4.343  1.0151  0.4386 -0.0246
  508MOL0     C68482  10.453   4.350   4.337 -0.0986  0.1516  0.7367
  508MOL0     C68483  10.517   4.415   4.218  0.3436  0.8077  0.5051
  508MOL0     C68484  10.662   4.355   4.229  0.6023 -0.3160  0.4370
  508MOL0     C68485  10.750   4.411   4.112 -0.0510 -0.7225  0.1906
  508MOL0     C68486  10.893   4.358   4.116  0.0298 -0.1627 -0.0350
  508MOL0     C68487  10.949   4.384   4.255  0.7372 -0.3983  0.4104
  508MOL0     C68488  11.094   4.444   4.252  1.4297 -0.0635  0.0294
  508MOL0    Cl68489  11.211   4.307   4.210  0.0598 -0.1631 -0.1607
  508MOL0     C68490  10.017   4.374   4.429  0.2434 -0.5152  0.0201
  508MOL0     C68491   9.888   4.322   4.406 -0.7025 -1.0360  0.1007
  508MOL0     O68492   9.675   4.214   4.597 -0.7717 -0.4927 -0.2346
  508MOL0     C68493   9.405   4.153   4.549 -0.5310  0.4954  0.7091
  508MOL0     C68494   9.276   4.121   4.508 -0.5177  0.1277 -0.2255
  508MOL0     N68495   8.782   3.745   4.219  0.5520 -0.8756 -0.0666
  508MOL0     N68496   8.842   3.663   4.146  0.3451  0.2272  0.3705
  508MOL0     C68497  10.016   3.847   3.593  0.8007 -0.3233 -0.0696
  508MOL0     C68498  10.145   3.900   3.581  0.5656  0.4049 -0.4764
  508MOL0     C68499  10.523   4.173   3.652 -0.3353  0.2047  0.5298
  508MOL0     C68500  10.556   4.240   3.524  0.2714 -0.5095 -0.3818
  508MOL0     C68501  10.682   4.304   3.498 -0.7196 -1.1351  0.2363
  508MOL0     C68502  10.771   4.318   3.604  0.0970  0.1453 -0.2112
  508MOL0     O68503  10.888   4.388   3.594  0.1838 -0.8756 -0.6653
  508MOL0     C68504  10.926   4.449   3.464 -0.3985  0.4034 -0.1113
  508MOL0     C68505  11.075   4.492   3.480  0.8981  0.1447 -0.4775
  508MOL0     C68506  11.134   4.558   3.353 -0.4315  0.2319  0.3411
  508MOL0     C68507  11.283   4.576   3.357 -1.1074 -0.7081 -0.0031
  508MOL0     C68508  11.338   4.667   3.457  0.2147 -0.2025  0.0538
  508MOL0     C68509  11.381   4.743   3.541 -0.0190  1.2609  0.0822
  508MOL0     C68510  10.739   4.262   3.728 -0.0584  0.2334 -0.4045
  508MOL0     C68511  10.624   4.185   3.757  0.5604 -0.7763 -0.1933
  508MOL0     C68512  10.632   4.108   3.883 -0.7043  0.0826 -1.1987
  508MOL0     H68513  10.109   4.219   3.657  0.2754 -1.0598  4.6638
  508MOL0     H68514   9.858   4.139   3.660  0.0080 -1.3985  0.3510
  508MOL0     H68515   9.724   3.736   3.489 -1.3933 -1.3048  0.8106
  508MOL0     H68516   9.787   3.679   3.643 -1.7185 -1.1053 -0.8344
  508MOL0     H68517   9.524   3.656   3.607 -0.4280 -1.9693  4.6004
  508MOL0     H68518   9.525   3.820   3.574 -1.9770 -0.1346  0.5203
  508MOL0     H68519   9.569   3.874   3.800  0.0854  0.1319 -0.8426
  508MOL0     H68520   9.631   3.707   3.836 -0.5209 -0.7292  0.5862
  508MOL0     H68521   9.329   3.746   3.753  0.0447  1.0307  1.1271
  508MOL0     H68522   9.395   3.626   3.862 -0.4403 -0.0002  0.3276
  508MOL0     H68523   9.422   3.820   4.031 -1.2554  1.7534  0.8943
  508MOL0     H68524   9.339   3.920   3.903 -0.8865 -0.5862 -1.9987
  508MOL0     H68525   9.155   3.856   4.033  2.2622  1.0205  1.7892
  508MOL0     H68526   9.169   3.734   3.898  1.1242 -0.3152 -0.1774
  508MOL0     H68527   9.269   3.696   4.180 -1.6540 -1.6076  1.8007
  508MOL0     H68528   9.294   3.581   4.058  1.3152  1.4472  0.3558
  508MOL0     H68529   9.051   3.537   4.030  0.1838 -0.2721 -1.0714
  508MOL0     H68530   9.105   3.499   4.193 -3.8995 -3.4939 -2.5309
  508MOL0     H68531   9.083   3.743   4.363  0.3191  1.6185  0.1405
  508MOL0     H68532   8.759   3.802   4.513  3.7886 -2.8466  2.5709
  508MOL0     H68533   8.920   3.863   4.506  0.9677  0.6851 -0.7799
  508MOL0     H68534   8.700   3.987   4.331 -1.2284 -0.0353  1.2431
  508MOL0     H68535   8.743   4.043   4.493 -2.1294 -3.1190  0.7702
  508MOL0     H68536   8.847   4.185   4.301  2.0978 -0.3237 -2.7094
  508MOL0     H68537   8.902   4.040   4.230  0.4185  0.4574  0.6669
  508MOL0     H68538   9.014   4.117   4.494 -0.3584  0.5498  0.8737
  508MOL0     H68539   9.047   4.207   4.354 -2.7908  0.0679 -0.5890
  508MOL0     H68540   9.341   3.936   4.226 -5.0597 -0.6630  0.2244
  508MOL0     H68541   9.570   3.979   4.308  0.1171  1.8266  0.0503
  508MOL0     H68542   9.941   3.994   4.424 -1.4933  0.4098 -0.8004
  508MOL0     H68543  10.179   4.084   4.455  0.0985 -0.1577  0.7071
  508MOL0     H68544  10.253   4.364   4.252 -0.9968 -0.9083  1.5046
  508MOL0     H68545  10.303   4.500   4.359  2.9853  0.5016  0.3849
  508MOL0     H68546  10.508   4.386   4.424  0.0228  0.9268  0.3449
  508MOL0     H68547  10.462   4.241   4.335 -1.9288 -0.0335  0.4629
  508MOL0     H68548  10.470   4.373   4.129  1.3224  0.4280  0.1552
  508MOL0     H68549  10.509   4.524   4.212 -0.3408  0.6836 -1.5771
  508MOL0     H68550  10.654   4.246   4.218 -1.4843 -0.1201 -0.4694
  508MOL0     H68551  10.705   4.386   4.325  0.9624 -0.0741  0.2001
  508MOL0     H68552  10.757   4.520   4.119  1.1797 -0.8684  2.6350
  508MOL0     H68553  10.719   4.388   4.010 -0.5935  0.8521 -0.0177
  508MOL0     H68554  10.890   4.250   4.099 -0.9173  0.1185 -1.8302
  508MOL0     H68555  10.956   4.399   4.037  0.0549 -0.4214 -0.1508
  508MOL0     H68556  10.946   4.287   4.307  3.0472 -0.4730  0.5225
  508MOL0     H68557  10.890   4.459   4.309 -0.4423 -1.0909  0.1269
  508MOL0     H68558  11.091   4.527   4.181 -0.4769  2.6014  2.9932
  508MOL0     H68559  11.114   4.478   4.354  1.9829  0.1308 -0.1422
  508MOL0     H68560  10.044   4.478   4.410 -1.7355 -0.5137 -3.6615
  508MOL0     H68561   9.814   4.395   4.376 -0.8418 -0.5143  1.6362
  508MOL0     H68562   9.425   4.221   4.632 -1.1618  2.2401 -0.4916
  508MOL0     H68563   9.211   4.174   4.577  1.1918  1.0546  0.7562
  508MOL0     H68564   9.998   3.742   3.571  2.0956 -0.6006  0.1399
  508MOL0     H68565  10.220   3.824   3.562 -0.8783 -2.2586  3.2948
  508MOL0     H68566  10.476   4.230   3.451 -0.5850  1.4547  0.2226
  508MOL0     H68567  10.698   4.348   3.399  2.1000 -2.5767 -0.0429
  508MOL0     H68568  10.860   4.533   3.437  0.7597  1.6894  0.8998
  508MOL0     H68569  10.917   4.375   3.385  1.1158  0.4141 -0.3195
  508MOL0     H68570  11.140   4.408   3.507 -1.4809 -1.7412 -0.1749
  508MOL0     H68571  11.079   4.564   3.562  0.3591 -0.2605 -0.0834
  508MOL0     H68572  11.087   4.655   3.336  0.9310  0.5919 -1.6381
  508MOL0     H68573  11.108   4.505   3.261 -0.2285  2.3585 -1.0022
  508MOL0     H68574  11.333   4.480   3.373  1.4693  0.9641  3.0753
  508MOL0     H68575  11.326   4.611   3.263  3.4599 -3.0117  0.9265
  508MOL0     H68576  11.397   4.814   3.620  2.4910  0.7589  0.1161
  508MOL0     H68577  10.810   4.275   3.809 -2.6448  0.0064  2.0948
  508MOL0     H68578  10.546   4.130   3.948 -1.2477 -1.5466 -1.3323
  508MOL0     H68579  10.644   4.003   3.857 -0.1640 -0.5875  1.4763
  508MOL0     H68580  10.726   4.125   3.936 -0.8719 -0.7928 -0.5890
  509MOL0     O68581  10.229   9.516   1.808 -0.7721 -0.8628  0.4138
  509MOL0     C68582  10.180   9.541   1.697 -0.4904  0.1253  0.5961
  509MOL0     O68583  10.231   9.626   1.601 -0.4238  0.1389 -0.4754
  509MOL0     C68584  10.345   9.701   1.627  0.7737  0.4963  0.7464
  509MOL0     C68585  10.466   9.641   1.610  0.2676 -0.4460  0.5605
  509MOL0     C68586  10.589   9.713   1.634 -0.4746  0.3834 -0.3015
  509MOL0     C68587  10.586   9.846   1.688  0.3373 -0.8561 -0.3158
  509MOL0     O68588  10.698   9.909   1.720  0.0912 -0.1498 -0.1157
  509MOL0     C68589  10.685  10.037   1.786  0.5765 -0.4458 -0.1077
  509MOL0     C68590  10.658  10.021   1.942 -0.4630  1.1010 -0.0057
  509MOL0     C68591  10.752   9.924   2.006  0.2938  0.9549 -1.6208
  509MOL0     C68592  10.720   9.921   2.158  0.7374 -0.0969  0.0822
  509MOL0     C68593  10.831   9.845   2.238  0.5370  0.3184 -0.0270
  509MOL0     C68594  10.777   9.826   2.379 -0.4956 -1.4573  0.4309
  509MOL0     C68595  10.865   9.765   2.477 -0.4464  1.1425  0.1514
  509MOL0     C68596  10.827   9.613   2.481  0.0980 -0.1506 -0.4020
  509MOL0     N68597  10.882   9.537   2.369  0.3032 -0.4402  0.9079
  509MOL0     C68598  11.018   9.509   2.353 -0.2931  0.1767  0.3502
  509MOL0     C68599  11.019   9.397   2.281  0.1119 -0.1597  0.0696
  509MOL0     C68600  11.139   9.332   2.220  0.1539 -0.2481  0.2765
  509MOL0     C68601  11.180   9.200   2.296 -0.6919  0.3223  0.5154
  509MOL0     C68602  11.280   9.114   2.210  0.1138  0.5386 -1.2281
  509MOL0     C68603  11.418   9.193   2.214 -0.3027 -0.1717  0.0170
  509MOL0     O68604  11.409   9.267   2.095  0.1922 -0.1975  0.1449
  509MOL0     C68605  11.528   9.328   2.046 -0.2737  0.6173 -0.5418
  509MOL0     C68606  11.509   9.420   1.940 -0.5227  0.2034  0.0256
  509MOL0     C68607  11.622   9.501   1.913 -0.2441 -0.2444 -0.6894
  509MOL0     C68608  11.748   9.491   1.982 -0.1475 -0.4852  0.1942
  509MOL0     C68609  11.867   9.579   1.946  0.6897 -0.5560 -0.0650
  509MOL0     O68610  11.982   9.537   2.006  0.3504  0.0383 -0.4680
  509MOL0     C68611  12.092   9.599   1.946  0.0927 -0.7650 -0.5212
  509MOL0     C68612  12.166   9.699   2.016 -0.9086  0.1256  0.5787
  509MOL0     C68613  12.277   9.757   1.950  0.2169 -0.9446 -0.6060
  509MOL0     C68614  12.314   9.732   1.818 -0.0757 -0.3706 -0.6605
  509MOL0     O68615  12.419   9.799   1.761  0.1777 -0.3651 -0.4646
  509MOL0     C68616  12.409   9.838   1.619  0.4939  0.1205 -0.3559
  509MOL0     C68617  12.454   9.978   1.592  0.1598 -0.1910  0.3529
  509MOL0     C68618  12.608  10.006   1.605  0.9368  0.4807  0.4216
  509MOL0     C68619  12.642  10.160   1.606 -0.2497 -0.2685  0.0646
  509MOL0     C68620  12.789  10.188   1.612 -0.5142  0.0133 -0.2953
  509MOL0     C68621  12.866  10.093   1.706  0.2155  0.3298  0.3982
  509MOL0     C68622  12.997  10.152   1.750 -0.2708 -0.2787 -0.3869
  509MOL0     C68623  13.101  10.048   1.777 -0.0266 -0.2346  0.1890
  509MOL0    Cl68624  13.240  10.142   1.834  0.4133 -0.2711 -0.3642
  509MOL0     C68625  12.235   9.643   1.748 -0.1010  0.5077 -0.6982
  509MOL0     C68626  12.127   9.574   1.812 -0.0752 -1.6234 -0.4354
  509MOL0     O68627  11.852   9.683   1.879 -0.5920  0.1526  0.3536
  509MOL0     C68628  11.762   9.384   2.073  0.0002  0.2100 -0.0522
  509MOL0     C68629  11.648   9.311   2.104 -0.8191  0.2471  0.7012
  509MOL0     N68630  10.888   9.364   2.243 -0.0914 -0.3420  0.4903
  509MOL0     N68631  10.807   9.451   2.292  0.3456  0.3764 -0.2034
  509MOL0     C68632  10.458   9.900   1.721  0.2927  0.4656  1.0332
  509MOL0     C68633  10.340   9.825   1.696 -0.1458 -1.1242 -0.0513
  509MOL0     C68634  10.047   9.479   1.665  0.9684 -0.3249  0.9131
  509MOL0     C68635   9.975   9.529   1.559 -0.3976 -0.3781  0.8598
  509MOL0     C68636   9.847   9.484   1.526  0.1157  0.4595 -0.6614
  509MOL0     C68637   9.782   9.390   1.599  1.0552  0.2797 -0.8847
  509MOL0     O68638   9.654   9.355   1.565 -0.3567  0.0057 -0.2005
  509MOL0     C68639   9.602   9.226   1.596 -0.1428  0.7593  0.0436
  509MOL0     C68640   9.452   9.213   1.580  0.9152  0.5065 -0.1925
  509MOL0     C68641   9.387   9.276   1.447 -1.4264  0.4311  0.2742
  509MOL0     C68642   9.440   9.210   1.324  0.9165  0.1229 -0.2220
  509MOL0     C68643   9.357   9.264   1.212 -0.6423 -0.6639 -0.7735
  509MOL0     C68644   9.285   9.303   1.116 -0.3699  0.1932 -0.2690
  509MOL0     C68645   9.852   9.348   1.711 -0.1922  0.5965  0.5709
  509MOL0     C68646   9.981   9.388   1.748  0.3928 -0.2012 -0.3773
  509MOL0     C68647  10.039   9.341   1.878 -0.7459  0.5893  1.0788
  509MOL0     H68648  10.472   9.537   1.578 -0.2598  0.4464 -2.8501
  509MOL0     H68649  10.677   9.656   1.607 -1.1120 -0.3091 -0.9787
  509MOL0     H68650  10.774  10.101   1.778  1.9681 -2.4134 -1.2322
  509MOL0     H68651  10.606  10.100   1.744 -0.9620 -2.5236 -0.4677
  509MOL0     H68652  10.559   9.977   1.958  0.2864 -0.3576  0.7720
  509MOL0     H68653  10.654  10.116   1.996 -4.1067  1.6899 -0.9727
  509MOL0     H68654  10.854   9.959   1.991  0.0873  1.3836 -2.0100
  509MOL0     H68655  10.753   9.824   1.960  0.5625  0.3574 -0.3713
  509MOL0     H68656  10.707  10.026   2.187 -0.1114  0.4657 -2.1166
  509MOL0     H68657  10.625   9.868   2.162  0.7653 -0.6329 -3.1941
  509MOL0     H68658  10.850   9.742   2.208  0.1589 -0.8495  3.3418
  509MOL0     H68659  10.930   9.891   2.241 -0.0835  1.6922  0.0795
  509MOL0     H68660  10.763   9.925   2.423  3.2333  0.3109 -1.8167
  509MOL0     H68661  10.673   9.794   2.374 -2.6120  3.9270  2.4604
  509MOL0     H68662  10.838   9.813   2.572  0.0326  1.4732  0.1280
  509MOL0     H68663  10.971   9.785   2.459  0.0280  3.1491  4.0034
  509MOL0     H68664  10.864   9.568   2.574  0.3220 -2.1066 -1.3757
  509MOL0     H68665  10.718   9.598   2.486  0.4566 -2.8753  1.6482
  509MOL0     H68666  11.104   9.563   2.391  0.8288 -1.4887  0.2526
  509MOL0     H68667  11.108   9.308   2.118 -0.1376  1.3411 -0.0308
  509MOL0     H68668  11.230   9.393   2.212 -0.3233  0.2712 -1.7483
  509MOL0     H68669  11.222   9.227   2.393 -0.7013 -0.6792  0.8035
  509MOL0     H68670  11.082   9.153   2.310 -1.7344  1.7799 -1.3136
  509MOL0     H68671  11.262   9.079   2.108  1.9955 -2.0400 -0.7703
  509MOL0     H68672  11.288   9.021   2.267 -2.5313 -0.2347 -1.9557
  509MOL0     H68673  11.503   9.125   2.213 -0.1189 -0.1110  2.8668
  509MOL0     H68674  11.429   9.252   2.306 -2.6685  1.0287 -0.3772
  509MOL0     H68675  11.410   9.422   1.896 -0.6780 -2.8813  0.0603
  509MOL0     H68676  11.605   9.571   1.832 -1.7881  0.5163  0.2529
  509MOL0     H68677  12.145   9.724   2.119  1.3997  1.2929  0.8390
  509MOL0     H68678  12.337   9.831   2.002  2.1202  0.5562 -4.5158
  509MOL0     H68679  12.459   9.755   1.568 -1.4651 -1.2073 -0.2356
  509MOL0     H68680  12.303   9.832   1.591 -0.5031 -0.7573  3.1641
  509MOL0     H68681  12.418   9.999   1.491 -1.5823  1.3864  1.2205
  509MOL0     H68682  12.401  10.054   1.650  0.1799  1.0059 -1.1435
  509MOL0     H68683  12.642   9.954   1.695 -1.1217  1.7980  2.0593
  509MOL0     H68684  12.661   9.958   1.522 -0.0900 -3.2931  1.7437
  509MOL0     H68685  12.591  10.206   1.691 -1.5300 -4.2077  1.6736
  509MOL0     H68686  12.593  10.210   1.522 -1.5476 -0.2480  0.8226
  509MOL0     H68687  12.791  10.291   1.649 -1.2417  0.9560 -2.6783
  509MOL0     H68688  12.837  10.183   1.513 -1.4792 -2.0079 -0.7028
  509MOL0     H68689  12.824  10.053   1.798  2.1665 -2.8057  0.0506
  509MOL0     H68690  12.879  10.002   1.647 -0.0818  2.7921 -3.9413
  509MOL0     H68691  12.981  10.208   1.842  1.5321 -0.2985 -0.0282
  509MOL0     H68692  13.043  10.216   1.673  1.7537 -0.6412  0.4522
  509MOL0     H68693  13.065   9.979   1.853 -4.0127  1.4604  0.0692
  509MOL0     H68694  13.143  10.006   1.685  2.8744 -1.7810  2.0369
  509MOL0     H68695  12.256   9.626   1.643  0.4650  3.5868 -1.2081
  509MOL0     H68696  12.064   9.513   1.747  0.3628 -0.1085 -2.3860
  509MOL0     H68697  11.856   9.354   2.118 -0.3778  0.6932  1.0975
  509MOL0     H68698  11.663   9.227   2.171 -4.0182 -1.4541 -0.4912
  509MOL0     H68699  10.432   9.995   1.766 -3.0342 -1.0015  2.5105
  509MOL0     H68700  10.242   9.863   1.722  0.6024  0.5014  0.5258
  509MOL0     H68701  10.019   9.609   1.500 -1.0092 -0.8698 -0.2915
  509MOL0     H68702   9.787   9.535   1.451 -3.0903  0.2957  1.5633
  509MOL0     H68703   9.619   9.217   1.704  1.1367  2.4924  0.0416
  509MOL0     H68704   9.655   9.140   1.553  1.9648  0.9475  2.0090
  509MOL0     H68705   9.406   9.272   1.660 -1.3981  2.0724 -2.4989
  509MOL0     H68706   9.432   9.106   1.588  0.5932  0.6911  2.2887
  509MOL0     H68707   9.408   9.384   1.444 -1.6936  0.4787  0.0690
  509MOL0     H68708   9.278   9.284   1.447 -1.4520  0.1006  0.1755
  509MOL0     H68709   9.546   9.228   1.307  0.0311  2.0652 -5.4859
  509MOL0     H68710   9.421   9.103   1.333  0.0233  0.2665 -0.2952
  509MOL0     H68711   9.220   9.333   1.037 -2.1819 -3.4364 -0.3282
  509MOL0     H68712   9.822   9.274   1.784  1.6327  1.6191  2.4953
  509MOL0     H68713  10.123   9.271   1.870 -1.2474  0.0804  0.1425
  509MOL0     H68714  10.074   9.424   1.941  1.8052  2.3943 -2.3321
  509MOL0     H68715   9.962   9.292   1.937 -5.0372  0.9101 -3.5815
  510MOL0     O68716   6.699   7.431   6.710 -0.1663  0.2329  0.4637
  510MOL0     C68717   6.700   7.554   6.686 -0.4197  0.0955  0.9140
  510MOL0     O68718   6.606   7.642   6.725  0.5953 -0.9066  0.1688
  510MOL0     C68719   6.513   7.616   6.824  0.2604  0.4258 -0.0702
  510MOL0     C68720   6.463   7.491   6.862 -0.2468  0.3365  0.1901
  510MOL0     C68721   6.372   7.477   6.967 -0.2771  0.0516 -0.0491
  510MOL0     C68722   6.335   7.592   7.042  0.4557  0.9894 -0.6910
  510MOL0     O68723   6.245   7.579   7.148  0.3744 -0.2122  1.0509
  510MOL0     C68724   6.115   7.639   7.135  0.3291  0.3528  0.4954
  510MOL0     C68725   6.019   7.613   7.254 -0.7001  0.3211  0.8894
  510MOL0     C68726   5.876   7.655   7.223 -1.2678  0.2461  0.3882
  510MOL0     C68727   5.794   7.664   7.345  0.5116 -0.0174 -0.5490
  510MOL0     C68728   5.639   7.634   7.336 -0.3358 -0.3761  0.3182
  510MOL0     C68729   5.570   7.772   7.285  0.1293  0.0321 -0.2816
  510MOL0     C68730   5.425   7.762   7.227  0.1152 -0.6080  0.0386
  510MOL0     C68731   5.414   7.674   7.101 -0.1170  0.4977 -0.2044
  510MOL0     N68732   5.475   7.742   6.988 -0.3353  0.4188 -0.0363
  510MOL0     C68733   5.585   7.700   6.906  0.6057  0.1759  0.1194
  510MOL0     C68734   5.590   7.790   6.811 -0.6483  0.4534  0.7346
  510MOL0     C68735   5.692   7.783   6.697  0.5176  0.3823 -0.8018
  510MOL0     C68736   5.814   7.865   6.720  0.1467 -0.2076 -0.3286
  510MOL0     C68737   5.885   7.840   6.861  0.4188 -0.0640  0.6286
  510MOL0     C68738   5.999   7.938   6.881 -0.3191  0.2503 -0.4460
  510MOL0     O68739   6.080   7.936   6.764  0.5608  0.1856 -0.1815
  510MOL0     C68740   6.194   8.017   6.762  0.3783  0.6173  0.0182
  510MOL0     C68741   6.285   7.990   6.656  0.1949  0.9831 -0.7196
  510MOL0     C68742   6.417   8.034   6.653  0.8909  0.1120 -0.9370
  510MOL0     C68743   6.463   8.111   6.762  1.2164  0.2456  0.1688
  510MOL0     C68744   6.598   8.153   6.790 -1.5808  0.4582 -0.2057
  510MOL0     O68745   6.617   8.220   6.903  1.6717  0.1355  0.1140
  510MOL0     C68746   6.743   8.262   6.950  0.4597  0.3776  0.2402
  510MOL0     C68747   6.859   8.298   6.876  0.1406  0.8403 -0.5192
  510MOL0     C68748   6.973   8.340   6.948  0.2446 -0.5483 -0.4409
  510MOL0     C68749   6.972   8.361   7.086 -0.1203  0.2147  0.0819
  510MOL0     O68750   7.088   8.405   7.144  0.0149  0.5843  0.1368
  510MOL0     C68751   7.107   8.377   7.282  0.5610 -0.8699 -0.4934
  510MOL0     C68752   7.243   8.409   7.323 -0.6605  0.7068 -0.2315
  510MOL0     C68753   7.334   8.294   7.296 -0.4452  0.4898 -0.5410
  510MOL0     C68754   7.464   8.326   7.200  0.0151 -1.2876  0.4557
  510MOL0     C68755   7.424   8.327   7.049  0.0743 -0.4730 -0.2234
  510MOL0     C68756   7.546   8.332   6.960  0.0351  0.7750 -0.8388
  510MOL0     C68757   7.519   8.321   6.811  0.0986 -0.1674  0.2146
  510MOL0     C68758   7.654   8.326   6.730 -0.6346 -0.1432 -0.2988
  510MOL0    Cl68759   7.639   8.206   6.588 -0.6002 -0.4153  0.0860
  510MOL0     C68760   6.852   8.342   7.151  0.3998 -0.4098 -0.2616
  510MOL0     C68761   6.743   8.300   7.083 -0.1389  0.0189 -0.7966
  510MOL0     O68762   6.683   8.118   6.708 -0.5037 -0.2239 -0.4224
  510MOL0     C68763   6.369   8.151   6.860 -0.6092  0.2091 -0.4881
  510MOL0     C68764   6.241   8.109   6.861  0.4269 -0.2950  0.4236
  510MOL0     N68765   5.500   7.884   6.832  0.7556 -1.1424  0.1148
  510MOL0     N68766   5.433   7.854   6.933 -0.3787 -0.1603  0.3558
  510MOL0     C68767   6.377   7.716   7.004 -0.1824  0.6545  0.5730
  510MOL0     C68768   6.473   7.723   6.902 -0.2287  0.1825  0.6985
  510MOL0     C68769   6.799   7.598   6.587 -0.3028 -0.6558  0.9153
  510MOL0     C68770   6.799   7.739   6.553 -1.3964 -0.3923  0.5616
  510MOL0     C68771   6.900   7.790   6.473  0.4645 -0.3713  0.5250
  510MOL0     C68772   6.987   7.707   6.399  0.0845 -0.4646  0.2558
  510MOL0     O68773   7.091   7.747   6.312 -0.3420  0.0197 -0.4738
  510MOL0     C68774   7.093   7.890   6.279 -0.2600  0.1155 -0.2632
  510MOL0     C68775   7.228   7.918   6.207  0.1968 -0.3958 -0.3763
  510MOL0     C68776   7.344   7.916   6.303  0.6659  0.5415 -0.3943
  510MOL0     C68777   7.470   7.866   6.244  0.1944  0.5748 -0.3801
  510MOL0     C68778   7.526   7.981   6.169  0.4150 -0.3983  0.0314
  510MOL0     C68779   7.561   8.092   6.131  0.1173  0.0429 -0.6129
  510MOL0     C68780   6.984   7.572   6.429  0.2213  0.2912 -0.0767
  510MOL0     C68781   6.896   7.515   6.521 -0.4308  0.5442 -0.7957
  510MOL0     C68782   6.922   7.372   6.545  0.4828 -0.6764 -0.2413
  510MOL0     H68783   6.476   7.396   6.812 -0.2618  0.4955 -0.1142
  510MOL0     H68784   6.340   7.374   6.979  1.2290 -0.6602 -1.8478
  510MOL0     H68785   6.139   7.746   7.130  2.9155 -0.1763  0.1431
  510MOL0     H68786   6.069   7.608   7.041  1.7979  3.7524 -1.5278
  510MOL0     H68787   6.061   7.655   7.345 -0.3298  0.8142  0.4941
  510MOL0     H68788   6.008   7.505   7.268  0.7742 -0.4440 -2.7777
  510MOL0     H68789   5.830   7.588   7.150  0.2320 -2.9226  2.1180
  510MOL0     H68790   5.879   7.758   7.187 -0.1997  0.1433  0.1641
  510MOL0     H68791   5.830   7.589   7.416 -0.3898  1.3629  1.4886
  510MOL0     H68792   5.821   7.757   7.396 -1.1257 -0.3526  1.0634
  510MOL0     H68793   5.617   7.552   7.268 -1.3824 -2.6119  3.1583
  510MOL0     H68794   5.601   7.598   7.432 -2.6097 -0.7122 -0.6425
  510MOL0     H68795   5.569   7.842   7.369  0.3232 -0.0909 -0.1771
  510MOL0     H68796   5.630   7.823   7.209 -0.2302  0.4204 -0.3104
  510MOL0     H68797   5.382   7.862   7.211  0.7317 -0.3378  0.0339
  510MOL0     H68798   5.365   7.738   7.316  0.5129  1.5315  0.9540
  510MOL0     H68799   5.472   7.583   7.114  0.3063  0.6942 -0.6805
  510MOL0     H68800   5.308   7.656   7.077 -1.1435  3.5136  1.4352
  510MOL0     H68801   5.643   7.609   6.921 -1.2289 -1.1685 -0.5580
  510MOL0     H68802   5.721   7.678   6.683 -2.5485 -0.9733  1.5830
  510MOL0     H68803   5.638   7.825   6.612 -1.5649 -0.1598  0.1885
  510MOL0     H68804   5.877   7.829   6.638 -3.0504 -1.9438 -2.2281
  510MOL0     H68805   5.799   7.973   6.711  2.6249  0.5855  2.8938
  510MOL0     H68806   5.931   7.741   6.856 -0.7130 -0.8945  3.8075
  510MOL0     H68807   5.822   7.843   6.950  0.8300 -0.5613  0.9397
  510MOL0     H68808   6.071   7.900   6.954 -0.4698  1.2964  0.2580
  510MOL0     H68809   5.961   8.030   6.924  0.7325 -0.7340  2.9000
  510MOL0     H68810   6.243   7.917   6.587  1.5790 -2.9552  2.2294
  510MOL0     H68811   6.488   8.005   6.575  2.0001  0.6247 -0.1568
  510MOL0     H68812   6.872   8.282   6.769  2.9715  0.5101 -0.2168
  510MOL0     H68813   7.068   8.355   6.897 -0.6937 -1.8038 -2.6998
  510MOL0     H68814   7.040   8.442   7.339 -0.0265 -1.1790 -0.8244
  510MOL0     H68815   7.082   8.274   7.310 -2.1055 -0.1826 -0.0231
  510MOL0     H68816   7.260   8.507   7.276 -0.2957  0.3938 -0.7690
  510MOL0     H68817   7.253   8.433   7.429  2.0066  2.0419 -0.6913
  510MOL0     H68818   7.366   8.253   7.392 -3.7409 -1.6039 -0.1814
  510MOL0     H68819   7.283   8.208   7.252 -0.5533  0.9651 -1.3678
  510MOL0     H68820   7.534   8.245   7.222 -0.9417 -2.0708  0.7325
  510MOL0     H68821   7.501   8.426   7.221  1.2494 -1.4624 -0.8241
  510MOL0     H68822   7.368   8.416   7.017  1.3822 -0.6225 -3.3517
  510MOL0     H68823   7.369   8.236   7.024 -3.6096  1.1462  1.1843
  510MOL0     H68824   7.604   8.421   6.986 -0.8126  1.1806 -0.2952
  510MOL0     H68825   7.621   8.257   6.988  0.8670  1.7355 -0.4688
  510MOL0     H68826   7.453   8.404   6.784  1.8611  1.6284  1.1486
  510MOL0     H68827   7.465   8.229   6.786 -1.8997  1.1944 -0.6972
  510MOL0     H68828   7.690   8.426   6.707 -1.7476 -0.0503 -1.7901
  510MOL0     H68829   7.732   8.281   6.793  0.5295  0.6168 -1.1656
  510MOL0     H68830   6.851   8.355   7.259  0.7705 -0.0337 -0.3026
  510MOL0     H68831   6.647   8.285   7.130  0.1096  1.0861  0.1162
  510MOL0     H68832   6.398   8.206   6.949 -0.9686 -1.9906  1.0721
  510MOL0     H68833   6.172   8.149   6.934  0.9445  0.6494  0.4064
  510MOL0     H68834   6.339   7.803   7.056 -0.5842  1.5286 -1.0963
  510MOL0     H68835   6.525   7.815   6.879  4.5204 -2.5878 -1.2340
  510MOL0     H68836   6.727   7.800   6.607  1.2254  2.8805  0.6104
  510MOL0     H68837   6.913   7.898   6.466 -1.4751  0.1431  3.1266
  510MOL0     H68838   7.085   7.947   6.372 -2.2605 -2.0205  0.9588
  510MOL0     H68839   7.002   7.919   6.226  0.2128  1.5051 -0.3644
  510MOL0     H68840   7.231   8.019   6.164  0.9211 -0.5365 -0.6810
  510MOL0     H68841   7.248   7.845   6.128  3.4776  1.4769 -1.4552
  510MOL0     H68842   7.313   7.840   6.376 -1.9189 -1.6341 -3.4839
  510MOL0     H68843   7.378   8.008   6.351  1.6689  0.3691 -0.7541
  510MOL0     H68844   7.538   7.832   6.322 -3.1402  1.0336  3.0113
  510MOL0     H68845   7.451   7.790   6.168 -0.3999  0.5238 -0.1776
  510MOL0     H68846   7.581   8.197   6.125 -0.5489  0.4837  2.8322
  510MOL0     H68847   7.050   7.515   6.363 -0.1182  1.0610 -1.1073
  510MOL0     H68848   7.013   7.339   6.493 -0.0209 -2.4401 -0.0963
  510MOL0     H68849   6.945   7.363   6.651  0.5297 -2.5862 -0.3753
  510MOL0     H68850   6.839   7.308   6.513 -0.2951  1.4158 -2.7416
  511MOL0     O68851   5.568   8.931   9.265  0.2316 -0.0501 -0.1451
  511MOL0     C68852   5.517   9.003   9.350 -0.6333 -1.1482 -0.9252
  511MOL0     O68853   5.575   9.113   9.402 -0.1959  0.1607 -0.4132
  511MOL0     C68854   5.691   9.159   9.342  1.2872 -0.1964 -0.1616
  511MOL0     C68855   5.686   9.237   9.226 -0.0841 -1.1876 -0.4469
  511MOL0     C68856   5.797   9.297   9.167 -0.7146 -0.2430  0.0333
  511MOL0     C68857   5.920   9.288   9.227  0.2088  0.5364 -0.9904
  511MOL0     O68858   6.016   9.372   9.187  0.6055 -0.3871 -0.5050
  511MOL0     C68859   6.154   9.354   9.236  0.1151 -1.1941 -0.0619
  511MOL0     C68860   6.248   9.463   9.171 -0.3052  0.0736 -0.2592
  511MOL0     C68861   6.367   9.484   9.257  0.0005  0.1592  0.3553
  511MOL0     C68862   6.457   9.370   9.280  0.2830 -0.6171 -0.5121
  511MOL0     C68863   6.548   9.313   9.165 -0.1761 -0.8328  0.8541
  511MOL0     C68864   6.463   9.216   9.077  0.0757 -0.0731  0.3662
  511MOL0     C68865   6.555   9.128   8.979  0.1233 -0.3448  0.2570
  511MOL0     C68866   6.464   9.076   8.867  0.4783  0.5325 -0.3788
  511MOL0     N68867   6.541   9.003   8.772  0.0096  0.5175  0.3011
  511MOL0     C68868   6.612   8.888   8.807 -0.4191  0.2323  0.0600
  511MOL0     C68869   6.689   8.866   8.699  1.1306  0.0868  0.3120
  511MOL0     C68870   6.777   8.742   8.684 -0.2873 -1.0811  0.7557
  511MOL0     C68871   6.745   8.657   8.565  0.2941 -1.0634  0.3697
  511MOL0     C68872   6.604   8.594   8.542  0.0165 -0.9690 -0.6446
  511MOL0     C68873   6.594   8.532   8.405 -0.3398 -0.4376 -0.3882
  511MOL0     O68874   6.609   8.636   8.310 -0.2803  0.0729 -0.4971
  511MOL0     C68875   6.498   8.700   8.254 -0.6200 -0.2427 -0.0037
  511MOL0     C68876   6.363   8.684   8.284  0.7485 -0.2046  0.4351
  511MOL0     C68877   6.260   8.728   8.193 -0.0613 -0.2465  0.4160
  511MOL0     C68878   6.295   8.799   8.077 -1.1344  0.7765 -0.0307
  511MOL0     C68879   6.195   8.847   7.980 -0.6886 -1.0859 -0.4900
  511MOL0     O68880   6.062   8.859   8.016  0.2935 -0.2023 -0.0771
  511MOL0     C68881   5.970   8.902   7.925  0.7714  0.0453 -0.3663
  511MOL0     C68882   5.962   9.031   7.877  0.1275 -0.0498  0.0440
  511MOL0     C68883   5.866   9.075   7.790  0.5158  0.1433 -0.3880
  511MOL0     C68884   5.779   8.982   7.735 -0.6765  0.4644 -0.5482
  511MOL0     O68885   5.673   9.043   7.672 -0.1235 -1.0283  0.3984
  511MOL0     C68886   5.542   8.988   7.698  0.8301 -0.2655 -1.5730
  511MOL0     C68887   5.451   9.093   7.657  0.7571  0.2187  0.8472
  511MOL0     C68888   5.306   9.045   7.699 -0.5169 -0.4271  0.4317
  511MOL0     C68889   5.282   9.043   7.851  0.3400 -0.3724 -0.0844
  511MOL0     C68890   5.137   9.046   7.892  0.3284 -0.1372  0.3286
  511MOL0     C68891   5.057   8.921   7.859 -0.0374 -0.1824  0.3869
  511MOL0     C68892   4.914   8.954   7.923  0.3884 -0.8347 -0.5758
  511MOL0     C68893   4.830   8.828   7.949 -0.8625 -0.6145  1.1373
  511MOL0    Cl68894   4.816   8.740   7.798  0.2501  0.5223 -0.6751
  511MOL0     C68895   5.797   8.847   7.762 -0.7181  1.3293 -0.5866
  511MOL0     C68896   5.878   8.813   7.868  0.3353 -0.7185  0.8082
  511MOL0     O68897   6.245   8.897   7.876 -0.7928  0.1523  0.1177
  511MOL0     C68898   6.436   8.803   8.048 -0.5457  0.1831  0.0110
  511MOL0     C68899   6.530   8.767   8.142  0.3713  0.4319 -0.4533
  511MOL0     N68900   6.661   8.952   8.595  0.4223 -0.0900  0.2722
  511MOL0     N68901   6.586   9.050   8.643  0.4080  1.2414 -0.0526
  511MOL0     C68902   5.930   9.200   9.340 -0.3519  0.5314 -0.0190
  511MOL0     C68903   5.819   9.137   9.393  1.0632 -0.1535  0.7871
  511MOL0     C68904   5.371   8.976   9.374  0.0870  0.0304 -0.7977
  511MOL0     C68905   5.305   8.920   9.265  0.6608 -0.3232 -0.1063
  511MOL0     C68906   5.170   8.896   9.276 -0.1580 -0.2051 -0.9734
  511MOL0     C68907   5.100   8.936   9.389  0.6480 -0.0972  0.2711
  511MOL0     O68908   4.968   8.920   9.398 -0.4333  0.0354  0.1331
  511MOL0     C68909   4.910   9.043   9.353  0.6497 -0.6785  0.8590
  511MOL0     C68910   4.767   9.022   9.334 -0.7366 -0.2034 -0.3289
  511MOL0     C68911   4.686   9.020   9.464 -1.1717  0.0711 -0.5615
  511MOL0     C68912   4.550   8.982   9.425  0.5186  0.9155 -0.1715
  511MOL0     C68913   4.446   9.049   9.516  0.2051  0.3453  0.2275
  511MOL0     C68914   4.362   9.101   9.581 -1.1001  0.4947  0.3646
  511MOL0     C68915   5.162   8.984   9.499 -0.4757 -0.8812 -0.0759
  511MOL0     C68916   5.293   9.011   9.492  0.3185 -0.0608  0.3036
  511MOL0     C68917   5.359   9.084   9.605 -0.5140  0.1538 -0.2301
  511MOL0     H68918   5.589   9.249   9.178  0.7322  3.7061 -1.3409
  511MOL0     H68919   5.793   9.351   9.073  0.7627 -1.3221 -0.7031
  511MOL0     H68920   6.152   9.364   9.345  1.5542 -2.3351  0.1163
  511MOL0     H68921   6.185   9.249   9.227 -0.5581 -1.3950 -0.0288
  511MOL0     H68922   6.184   9.551   9.185 -1.7388 -0.9105 -0.3719
  511MOL0     H68923   6.263   9.430   9.068  0.1416 -2.6949  0.6106
  511MOL0     H68924   6.340   9.521   9.356  1.1743  0.1736  0.6833
  511MOL0     H68925   6.435   9.555   9.209  1.4851 -1.2263  0.3247
  511MOL0     H68926   6.535   9.395   9.353  1.9902 -0.6216 -2.2608
  511MOL0     H68927   6.397   9.289   9.322 -0.9833 -0.7542 -2.4513
  511MOL0     H68928   6.589   9.397   9.107  0.5333 -1.0475  1.0301
  511MOL0     H68929   6.634   9.262   9.210 -0.4172 -3.1677 -1.1539
  511MOL0     H68930   6.406   9.153   9.146 -0.3993  0.3666  0.3864
  511MOL0     H68931   6.394   9.273   9.015 -1.3057 -1.7040  0.3282
  511MOL0     H68932   6.607   9.048   9.033 -2.2912 -1.7218  0.6759
  511MOL0     H68933   6.627   9.202   8.942  1.9433 -2.1822 -0.0480
  511MOL0     H68934   6.377   9.022   8.903  0.8842 -0.1152 -0.3400
  511MOL0     H68935   6.429   9.164   8.811  0.9803  1.8403  1.2827
  511MOL0     H68936   6.607   8.840   8.904 -0.3648  1.7982  0.8714
  511MOL0     H68937   6.878   8.781   8.673 -0.9943  1.1411  1.4233
  511MOL0     H68938   6.766   8.691   8.780 -2.6309 -0.4530  0.8897
  511MOL0     H68939   6.772   8.710   8.474 -2.0487 -3.0678 -1.6306
  511MOL0     H68940   6.811   8.570   8.559 -0.1640 -1.3287 -0.9609
  511MOL0     H68941   6.534   8.678   8.539  2.6967  1.5612  1.9424
  511MOL0     H68942   6.569   8.526   8.620 -0.2296  2.4546  2.5259
  511MOL0     H68943   6.495   8.485   8.406 -0.1747 -0.7940  0.8793
  511MOL0     H68944   6.671   8.457   8.388  0.6568  0.5778 -0.4770
  511MOL0     H68945   6.342   8.620   8.369  4.7082 -0.2359  1.5660
  511MOL0     H68946   6.159   8.690   8.210  0.3763 -1.6090  0.1341
  511MOL0     H68947   6.031   9.108   7.909  0.8346  0.2306 -2.0356
  511MOL0     H68948   5.857   9.175   7.749  1.7529 -0.0799 -1.2828
  511MOL0     H68949   5.520   8.889   7.656  4.0764 -1.3536 -0.9704
  511MOL0     H68950   5.531   8.979   7.807 -0.9077  1.6932 -1.5058
  511MOL0     H68951   5.467   9.184   7.715 -1.7039  0.9309  0.4859
  511MOL0     H68952   5.460   9.117   7.550 -3.5854 -0.9343  0.0587
  511MOL0     H68953   5.237   9.114   7.650  0.3667 -1.2238 -2.0538
  511MOL0     H68954   5.294   8.947   7.652  0.2247 -0.1655 -0.3222
  511MOL0     H68955   5.322   9.134   7.897 -3.2432 -0.4952  3.8695
  511MOL0     H68956   5.333   8.959   7.898  1.6116  0.7771  0.6893
  511MOL0     H68957   5.091   9.135   7.847 -1.8181 -0.4946  1.6814
  511MOL0     H68958   5.127   9.056   8.001  2.4255  0.0860  0.5391
  511MOL0     H68959   5.058   8.919   7.750  0.9613  1.6763  0.3056
  511MOL0     H68960   5.103   8.828   7.893 -0.4946 -2.0366 -3.5258
  511MOL0     H68961   4.859   9.029   7.865  0.7694  0.1170  0.2556
  511MOL0     H68962   4.939   8.998   8.020  0.4643 -2.9215  0.4061
  511MOL0     H68963   4.873   8.762   8.026  1.0286  1.2500  1.7986
  511MOL0     H68964   4.733   8.845   7.995 -0.0242 -2.7087  3.9593
  511MOL0     H68965   5.734   8.768   7.723  1.0240  0.1400 -1.1117
  511MOL0     H68966   5.901   8.717   7.913 -1.3164 -0.7110  1.7201
  511MOL0     H68967   6.463   8.845   7.952  2.8842 -0.6377  0.4753
  511MOL0     H68968   6.632   8.777   8.108  0.0362 -2.8544 -2.9147
  511MOL0     H68969   6.015   9.177   9.404 -1.0350  2.2538  1.5760
  511MOL0     H68970   5.819   9.069   9.478 -0.8148  0.7245  1.5432
  511MOL0     H68971   5.355   8.908   9.169 -0.9927  0.7746 -1.1534
  511MOL0     H68972   5.103   8.859   9.199 -1.2648 -1.4272  0.5045
  511MOL0     H68973   4.953   9.066   9.255 -1.8487 -1.5997 -0.5357
  511MOL0     H68974   4.928   9.125   9.424  1.0074  0.0871 -0.0861
  511MOL0     H68975   4.753   8.934   9.271 -1.2532 -0.1086 -0.3537
  511MOL0     H68976   4.720   9.108   9.286 -0.2500  0.2189 -0.0527
  511MOL0     H68977   4.681   9.115   9.519 -0.8776  0.3881 -1.0760
  511MOL0     H68978   4.728   8.949   9.536  1.1955  2.7102  0.8699
  511MOL0     H68979   4.532   9.011   9.320  2.6550  0.7867 -0.6188
  511MOL0     H68980   4.534   8.874   9.435  1.6911  0.7293 -0.1968
  511MOL0     H68981   4.283   9.154   9.631 -0.7203  3.8803 -2.2033
  511MOL0     H68982   5.105   9.002   9.590  0.6450 -0.4486  0.5675
  511MOL0     H68983   5.460   9.041   9.612 -0.8330 -0.9558 -1.9026
  511MOL0     H68984   5.352   9.193   9.597  0.4281  0.3935  1.7069
  511MOL0     H68985   5.314   9.067   9.703  3.8694 -1.7799  1.7463
  512MOL0     O68986   3.423   3.790  11.220 -0.4031 -0.2138 -0.2061
  512MOL0     C68987   3.356   3.889  11.244 -0.4963  0.5145 -0.2820
  512MOL0     O68988   3.375   3.970  11.337 -0.3260 -0.3644 -0.7654
  512MOL0     C68989   3.508   3.985  11.380  0.2089  0.2682  0.0684
  512MOL0     C68990   3.597   4.053  11.298 -0.3768 -0.2314 -0.5246
  512MOL0     C68991   3.728   4.072  11.342  0.8500 -0.7978 -0.7073
  512MOL0     C68992   3.767   4.019  11.465 -0.3731  0.7885 -0.1011
  512MOL0     O68993   3.898   4.032  11.510 -0.7277  0.0134  0.0654
  512MOL0     C68994   3.995   3.934  11.465  0.7691  0.1709 -0.0039
  512MOL0     C68995   4.111   3.922  11.566  0.2679 -0.5868 -0.7637
  512MOL0     C68996   4.237   3.866  11.498 -0.2736  0.0350  0.1481
  512MOL0     C68997   4.354   3.878  11.592 -0.8157 -0.3124 -0.5775
  512MOL0     C68998   4.491   3.839  11.525 -0.8425 -1.0296 -0.9444
  512MOL0     C68999   4.608   3.881  11.620 -0.6574  0.1430 -0.5627
  512MOL0     C69000   4.740   3.893  11.544 -0.3946 -0.2296 -0.0189
  512MOL0     C69001   4.868   3.885  11.635 -0.4867  0.7161 -0.4061
  512MOL0     N69002   4.870   3.973  11.741 -1.2665  0.1865  0.0738
  512MOL0     C69003   4.941   3.953  11.855  0.2532 -0.9556 -0.1232
  512MOL0     C69004   4.911   4.056  11.935  0.3172 -0.7711 -0.7612
  512MOL0     C69005   4.966   4.079  12.072  0.7254 -0.5563  0.3904
  512MOL0     C69006   5.048   4.212  12.068  0.4032 -0.0225 -0.4530
  512MOL0     C69007   5.091   4.274  12.203  0.2413 -1.0312  0.7207
  512MOL0     C69008   5.162   4.406  12.179 -0.2287  0.2226  0.0313
  512MOL0     O69009   5.272   4.388  12.092  0.0039  0.4454 -0.3767
  512MOL0     C69010   5.365   4.481  12.053  0.0069 -0.9664 -0.8122
  512MOL0     C69011   5.424   4.466  11.926 -0.6367 -0.1772  0.0207
  512MOL0     C69012   5.541   4.538  11.888  0.0955  0.8861 -0.0003
  512MOL0     C69013   5.587   4.636  11.975  0.8618  0.0194 -0.2920
  512MOL0     C69014   5.703   4.712  11.930  0.5802 -0.7032 -0.3429
  512MOL0     O69015   5.795   4.654  11.860  0.1628  0.0934 -0.1410
  512MOL0     C69016   5.902   4.732  11.811  0.5781  0.2388  0.6428
  512MOL0     C69017   5.906   4.763  11.673  0.6805 -0.4146 -0.6680
  512MOL0     C69018   6.005   4.848  11.627 -0.0311 -0.7105  0.1497
  512MOL0     C69019   6.095   4.914  11.717 -0.0637  0.0284  0.8983
  512MOL0     O69020   6.200   5.003  11.671  0.1962  0.3379 -0.6556
  512MOL0     C69021   6.193   5.055  11.539  0.1020  0.2648 -0.2457
  512MOL0     C69022   6.285   5.173  11.530 -0.4321  0.1947 -0.4706
  512MOL0     C69023   6.425   5.108  11.530 -0.1285 -0.1555  0.4249
  512MOL0     C69024   6.520   5.222  11.506 -1.3001  0.5410 -0.2274
  512MOL0     C69025   6.664   5.178  11.500 -0.2767  0.2920  0.1772
  512MOL0     C69026   6.758   5.300  11.496 -0.3556  1.2409  0.4928
  512MOL0     C69027   6.906   5.265  11.502 -0.3321 -0.0195  0.0112
  512MOL0     C69028   6.957   5.187  11.377 -0.4170 -0.5435  0.0735
  512MOL0    Cl69029   7.116   5.133  11.411 -0.1641 -0.1495  0.5498
  512MOL0     C69030   6.096   4.868  11.853  0.2150 -0.1435  0.2563
  512MOL0     C69031   6.001   4.777  11.902  0.0683  0.4553 -0.1537
  512MOL0     O69032   5.700   4.835  11.951 -0.1718  0.0986  0.3931
  512MOL0     C69033   5.520   4.659  12.094  0.0499  0.3986  0.4794
  512MOL0     C69034   5.410   4.589  12.133  0.5664  0.3700 -0.3808
  512MOL0     N69035   4.819   4.131  11.869 -0.2654 -0.1863 -0.0015
  512MOL0     N69036   4.791   4.080  11.757 -0.3926 -0.3470  0.7690
  512MOL0     C69037   3.680   3.939  11.542 -0.0710  1.2533  0.4945
  512MOL0     C69038   3.546   3.926  11.503 -0.4198  0.1525  1.2743
  512MOL0     C69039   3.227   3.897  11.170  0.1474 -1.1076  0.3459
  512MOL0     C69040   3.128   3.992  11.219  0.1013 -0.5258 -0.2094
  512MOL0     C69041   3.006   4.012  11.159  0.1113 -0.2629 -0.1341
  512MOL0     C69042   2.975   3.951  11.037 -0.2979  0.8722 -0.6906
  512MOL0     O69043   2.860   3.991  10.977 -0.3141 -0.1438  0.1014
  512MOL0     C69044   2.844   3.972  10.833 -0.3734  0.4127 -0.3583
  512MOL0     C69045   2.944   4.065  10.763 -0.8054 -0.1547 -0.1584
  512MOL0     C69046   2.883   4.211  10.751 -0.4596  0.9248 -0.6341
  512MOL0     C69047   2.833   4.267  10.887  0.5709 -0.1616  0.1339
  512MOL0     C69048   2.779   4.403  10.875 -0.5333  0.1270 -0.2063
  512MOL0     C69049   2.737   4.516  10.848 -1.1145 -0.9102  0.2636
  512MOL0     C69050   3.050   3.834  11.002 -0.9993 -0.8794  0.0569
  512MOL0     C69051   3.176   3.810  11.063  0.6317 -0.1925  0.1874
  512MOL0     C69052   3.244   3.688  11.007 -0.8289 -0.8565  0.1567
  512MOL0     H69053   3.559   4.093  11.205 -2.0344 -0.0508  0.2078
  512MOL0     H69054   3.798   4.141  11.297  0.4709  0.3556  0.4121
  512MOL0     H69055   3.944   3.837  11.465  0.4350  0.3258 -1.3978
  512MOL0     H69056   4.028   3.954  11.363  1.2889 -1.3862 -0.1663
  512MOL0     H69057   4.085   3.853  11.646  0.0216 -0.2473 -0.5474
  512MOL0     H69058   4.117   4.015  11.623 -2.9265  0.5270 -2.0028
  512MOL0     H69059   4.246   3.927  11.408  0.3936 -1.2120 -0.6509
  512MOL0     H69060   4.227   3.760  11.473  1.8084  0.2019 -1.6363
  512MOL0     H69061   4.352   3.984  11.615 -1.6895 -0.2504 -0.9282
  512MOL0     H69062   4.340   3.822  11.685  1.5216 -0.2744 -0.1216
  512MOL0     H69063   4.485   3.735  11.491  0.6137 -1.2533 -0.5713
  512MOL0     H69064   4.497   3.892  11.429 -0.0748 -1.5586 -1.1932
  512MOL0     H69065   4.577   3.981  11.652 -2.2353 -0.9391  1.5289
  512MOL0     H69066   4.621   3.821  11.710  1.9593  3.9463  1.9093
  512MOL0     H69067   4.733   3.996  11.507 -3.3966 -0.5376 -0.5625
  512MOL0     H69068   4.753   3.834  11.453  4.6718  2.9900 -1.7986
  512MOL0     H69069   4.880   3.789  11.685 -0.4452  2.5124  3.3695
  512MOL0     H69070   4.954   3.902  11.570 -1.2507 -0.5986 -1.8126
  512MOL0     H69071   5.005   3.868  11.878  0.5005 -1.0340 -1.0416
  512MOL0     H69072   4.881   4.090  12.140 -0.0639 -1.2938 -0.4463
  512MOL0     H69073   5.023   3.991  12.102  0.3794 -0.7429  0.5007
  512MOL0     H69074   5.136   4.190  12.008  0.1202 -2.3018 -0.1597
  512MOL0     H69075   4.991   4.288  12.014  1.5350 -0.0404 -1.7200
  512MOL0     H69076   5.171   4.211  12.245  1.3729 -1.0395 -1.3187
  512MOL0     H69077   5.002   4.292  12.264 -1.5424 -0.3250 -1.9130
  512MOL0     H69078   5.193   4.454  12.273  0.0561 -1.1488  0.6583
  512MOL0     H69079   5.094   4.479  12.133 -0.1451 -0.1542 -0.6954
  512MOL0     H69080   5.384   4.389  11.861 -0.9610 -2.0310  2.2818
  512MOL0     H69081   5.595   4.517  11.796 -2.2110 -2.8809 -0.6995
  512MOL0     H69082   5.830   4.735  11.601  1.8968 -2.0238 -1.3925
  512MOL0     H69083   6.006   4.871  11.521  0.3991  1.4112  0.5784
  512MOL0     H69084   6.207   4.976  11.464 -3.2020 -1.0115  0.2866
  512MOL0     H69085   6.094   5.100  11.525 -0.2822 -0.8706 -1.4176
  512MOL0     H69086   6.269   5.219  11.433  0.5675  1.9299  0.1356
  512MOL0     H69087   6.266   5.256  11.599 -0.4414 -0.9828  1.0138
  512MOL0     H69088   6.440   5.047  11.619 -0.3796 -2.2326 -0.8690
  512MOL0     H69089   6.436   5.039  11.446 -0.0840  2.0052 -1.4414
  512MOL0     H69090   6.506   5.301  11.580 -1.0105  2.3931 -2.0636
  512MOL0     H69091   6.486   5.263  11.411 -1.1784 -0.2848 -0.6359
  512MOL0     H69092   6.679   5.121  11.407  1.3611 -1.3081  1.3592
  512MOL0     H69093   6.687   5.116  11.587 -2.0770 -0.8627 -0.1203
  512MOL0     H69094   6.738   5.360  11.407 -0.7389  0.7208  0.2202
  512MOL0     H69095   6.741   5.368  11.580 -1.2839 -0.2478  1.5608
  512MOL0     H69096   6.907   5.203  11.592  0.4058 -1.6302 -1.0684
  512MOL0     H69097   6.958   5.359  11.523  0.6001 -0.1432 -1.5472
  512MOL0     H69098   6.883   5.109  11.357 -1.3321  0.7483 -1.9337
  512MOL0     H69099   6.960   5.246  11.285  1.4312 -1.1234 -0.2789
  512MOL0     H69100   6.170   4.922  11.913  1.0959  0.0568 -0.9826
  512MOL0     H69101   5.995   4.741  12.005  0.3752 -2.3965 -1.0555
  512MOL0     H69102   5.560   4.734  12.161  0.1608  1.7268 -1.0137
  512MOL0     H69103   5.360   4.598  12.229  0.6060 -0.7920 -0.2426
  512MOL0     H69104   3.713   3.891  11.633 -0.5906 -2.8734 -1.2637
  512MOL0     H69105   3.477   3.874  11.568  1.4864 -2.7124  1.2312
  512MOL0     H69106   3.166   4.067  11.288 -2.7420 -1.8881  3.1462
  512MOL0     H69107   2.947   4.098  11.189  2.0905  1.2539 -0.3396
  512MOL0     H69108   2.742   3.996  10.803  0.0007  1.9847 -0.4681
  512MOL0     H69109   2.871   3.870  10.805 -0.0788  0.3804  0.0462
  512MOL0     H69110   2.973   4.027  10.664  0.3953  2.0295 -0.6986
  512MOL0     H69111   3.035   4.078  10.822 -0.3413  2.4593 -1.3383
  512MOL0     H69112   2.806   4.200  10.674  0.2378 -1.7981 -1.0439
  512MOL0     H69113   2.958   4.278  10.709  0.1305  0.7047  0.0426
  512MOL0     H69114   2.750   4.204  10.918  0.8544 -0.0464  1.1444
  512MOL0     H69115   2.909   4.257  10.964  0.7414 -5.4066 -0.3482
  512MOL0     H69116   2.704   4.611  10.810 -0.0869 -1.2166 -1.4922
  512MOL0     H69117   3.013   3.759  10.933  2.8595 -4.3614  1.3218
  512MOL0     H69118   3.275   3.627  11.093  0.8348 -0.3151 -0.0170
  512MOL0     H69119   3.183   3.622  10.946 -0.1735 -0.6508 -0.7319
  512MOL0     H69120   3.334   3.723  10.956  0.2953  0.5658  2.8739
  513MOL0     O69121   6.289   3.256   8.493  0.4548  0.3772  0.2912
  513MOL0     C69122   6.375   3.291   8.578  0.7067  0.3156  0.1614
  513MOL0     O69123   6.505   3.316   8.553 -0.0071  0.0712  0.8729
  513MOL0     C69124   6.562   3.293   8.427 -0.3868 -0.4909  0.0626
  513MOL0     C69125   6.688   3.346   8.407  0.6319 -0.3584 -0.1758
  513MOL0     C69126   6.759   3.332   8.291  0.4135 -0.5801  0.2302
  513MOL0     C69127   6.718   3.257   8.183  0.1323  0.4251 -0.8006
  513MOL0     O69128   6.791   3.257   8.061  0.3213 -0.1124 -0.5829
  513MOL0     C69129   6.940   3.277   8.071  0.1388  0.1285  0.1665
  513MOL0     C69130   7.016   3.184   8.161  0.0516  0.3956 -0.2380
  513MOL0     C69131   7.169   3.179   8.139 -0.3738 -0.2796 -0.0832
  513MOL0     C69132   7.241   3.309   8.152  0.1079 -0.3915 -0.3811
  513MOL0     C69133   7.380   3.298   8.197 -0.6213 -0.0683  0.5900
  513MOL0     C69134   7.475   3.421   8.187 -0.4879  0.1043 -0.4518
  513MOL0     C69135   7.613   3.402   8.250  1.0058  0.5127  0.7199
  513MOL0     C69136   7.613   3.386   8.404 -0.2497  1.2181 -0.8998
  513MOL0     N69137   7.732   3.425   8.482  0.5481 -0.7300 -0.2110
  513MOL0     C69138   7.731   3.521   8.584  0.9344  0.0919 -0.4615
  513MOL0     C69139   7.860   3.522   8.616 -0.2027 -0.1956 -0.3981
  513MOL0     C69140   7.924   3.607   8.728  0.0744  0.0785 -0.7767
  513MOL0     C69141   7.974   3.527   8.849  0.3021  0.2859  0.0136
  513MOL0     C69142   8.097   3.436   8.815 -0.2225 -0.6480 -0.9035
  513MOL0     C69143   8.195   3.531   8.745  0.7746 -0.6253  0.3603
  513MOL0     O69144   8.334   3.489   8.748 -0.3718 -0.3524 -0.0653
  513MOL0     C69145   8.383   3.388   8.663  0.4437 -0.4119  0.3868
  513MOL0     C69146   8.303   3.309   8.584 -0.7797 -0.1405  0.5518
  513MOL0     C69147   8.359   3.203   8.501  0.5255 -1.4139  0.2493
  513MOL0     C69148   8.495   3.181   8.508 -0.8776  0.0561 -0.4280
  513MOL0     C69149   8.551   3.077   8.420 -0.7927 -0.2780  1.3141
  513MOL0     O69150   8.458   2.994   8.351  0.1182 -0.1885 -0.2248
  513MOL0     C69151   8.503   2.938   8.233 -0.0202  0.3799  1.2800
  513MOL0     C69152   8.486   3.004   8.114  1.1684  0.0627  0.2277
  513MOL0     C69153   8.528   2.955   7.991 -0.4439  1.1202 -0.4377
  513MOL0     C69154   8.597   2.838   7.981  0.7742 -0.0539  0.7492
  513MOL0     O69155   8.635   2.810   7.851  0.2668 -0.7100  0.3993
  513MOL0     C69156   8.743   2.722   7.836 -0.0010  0.4606 -0.0642
  513MOL0     C69157   8.698   2.608   7.740 -0.6089 -0.1319 -0.5958
  513MOL0     C69158   8.810   2.499   7.697  0.4890  0.0860  0.2792
  513MOL0     C69159   8.859   2.403   7.812 -0.6525  0.7471  0.4068
  513MOL0     C69160   8.977   2.314   7.770  0.2783 -0.8330  0.6330
  513MOL0     C69161   9.111   2.386   7.761  0.0884 -0.7983  0.1660
  513MOL0     C69162   9.213   2.284   7.713 -0.7461  0.8127 -0.0615
  513MOL0     C69163   9.361   2.312   7.738  0.5831  0.7553 -0.4623
  513MOL0    Cl69164   9.468   2.172   7.714 -0.0167 -0.2145 -0.4273
  513MOL0     C69165   8.594   2.753   8.097  0.5427  0.4199 -0.2121
  513MOL0     C69166   8.545   2.806   8.222 -0.3944  0.3309  0.9518
  513MOL0     O69167   8.674   3.060   8.431  0.2567  0.4855 -0.1536
  513MOL0     C69168   8.571   3.258   8.606 -0.3448 -0.0255 -0.0676
  513MOL0     C69169   8.521   3.361   8.676  0.1831 -0.5029  0.0480
  513MOL0     N69170   7.939   3.445   8.538 -0.1222 -0.3641  0.3577
  513MOL0     N69171   7.855   3.381   8.457 -0.2937  0.1423  0.2312
  513MOL0     C69172   6.591   3.203   8.202 -0.9315  1.0922 -0.0364
  513MOL0     C69173   6.516   3.216   8.320 -0.5289  0.2226  1.0565
  513MOL0     C69174   6.343   3.301   8.725  0.6437 -0.1089  0.3540
  513MOL0     C69175   6.446   3.315   8.825 -0.2744  0.3309 -0.3670
  513MOL0     C69176   6.418   3.308   8.967  0.2804  0.5676 -0.5656
  513MOL0     C69177   6.281   3.303   8.999 -0.0848 -0.5127 -0.1751
  513MOL0     O69178   6.228   3.295   9.127 -0.5488 -0.5106  0.1351
  513MOL0     C69179   6.320   3.286   9.237  0.1983  0.3926 -0.8186
  513MOL0     C69180   6.384   3.413   9.279  0.0131 -0.7320 -0.0415
  513MOL0     C69181   6.505   3.404   9.380 -0.3388  0.1512  0.3019
  513MOL0     C69182   6.594   3.532   9.382 -0.3630 -1.2815  0.4695
  513MOL0     C69183   6.527   3.656   9.438 -0.3014  0.1535 -0.1701
  513MOL0     C69184   6.465   3.749   9.474  0.3921  0.0465  0.9037
  513MOL0     C69185   6.187   3.283   8.903 -0.4110 -0.0781 -0.2207
  513MOL0     C69186   6.209   3.287   8.771 -0.8493 -0.0988  0.0116
  513MOL0     C69187   6.082   3.264   8.682  0.6543 -0.0982 -0.0424
  513MOL0     H69188   6.720   3.409   8.490  3.3681 -2.8121  0.8029
  513MOL0     H69189   6.844   3.398   8.279 -0.5392  0.4957 -0.9541
  513MOL0     H69190   6.976   3.268   7.968 -0.5512 -4.5024  0.1013
  513MOL0     H69191   6.958   3.382   8.094  1.6587  0.2066 -1.1930
  513MOL0     H69192   6.982   3.083   8.136 -2.1526  0.9544  0.2640
  513MOL0     H69193   6.987   3.202   8.265  0.0326 -2.1159  0.2515
  513MOL0     H69194   7.193   3.134   8.042 -1.4841  1.3141 -1.1528
  513MOL0     H69195   7.205   3.108   8.214 -1.2508  0.5399  1.1537
  513MOL0     H69196   7.236   3.371   8.062  1.2480  0.3477  0.0357
  513MOL0     H69197   7.180   3.363   8.225 -0.4782 -0.2778 -0.9471
  513MOL0     H69198   7.366   3.263   8.300  0.4916 -0.2772  0.6865
  513MOL0     H69199   7.418   3.216   8.135 -0.8449  0.6947 -0.5850
  513MOL0     H69200   7.476   3.444   8.080 -3.4821 -0.3526 -0.6811
  513MOL0     H69201   7.442   3.508   8.244  0.2113  0.7292 -0.9847
  513MOL0     H69202   7.679   3.485   8.219  0.3941  0.7207 -0.0372
  513MOL0     H69203   7.666   3.315   8.210  2.1601  1.9390 -1.0130
  513MOL0     H69204   7.525   3.439   8.440 -2.1059 -1.8825 -0.4749
  513MOL0     H69205   7.596   3.281   8.431 -1.6679  1.5497 -0.4314
  513MOL0     H69206   7.653   3.590   8.615  0.7255  1.5385 -3.8074
  513MOL0     H69207   8.001   3.667   8.679  2.1489  0.4139  2.5913
  513MOL0     H69208   7.847   3.668   8.775 -1.0600 -1.9876  0.1924
  513MOL0     H69209   7.982   3.586   8.941 -3.6414  1.7217 -0.3278
  513MOL0     H69210   7.901   3.446   8.862 -0.9943  0.8955 -2.6338
  513MOL0     H69211   8.068   3.348   8.756  1.9265  0.7406 -4.3917
  513MOL0     H69212   8.143   3.409   8.910  1.6367  0.8776 -1.2920
  513MOL0     H69213   8.189   3.630   8.790  0.8472 -0.5014  0.0967
  513MOL0     H69214   8.166   3.543   8.640 -1.9107  0.4338  1.1445
  513MOL0     H69215   8.195   3.308   8.586 -0.8465  1.9948  0.2590
  513MOL0     H69216   8.291   3.142   8.443 -1.2558 -1.9412  2.6960
  513MOL0     H69217   8.421   3.091   8.121 -1.3461 -1.7644  1.3472
  513MOL0     H69218   8.531   3.012   7.899  6.4930 -1.1239 -2.2682
  513MOL0     H69219   8.833   2.774   7.804 -0.0674  1.6074  1.4459
  513MOL0     H69220   8.778   2.683   7.932  0.2133 -0.5751 -0.5543
  513MOL0     H69221   8.614   2.562   7.793 -1.3123  1.7301 -0.0341
  513MOL0     H69222   8.668   2.661   7.648  0.9681 -0.4293 -1.3111
  513MOL0     H69223   8.773   2.428   7.623  0.4220 -0.4642  0.8369
  513MOL0     H69224   8.896   2.552   7.655  0.6413 -0.7839 -0.5237
  513MOL0     H69225   8.784   2.330   7.844  0.4814 -0.6972 -0.1130
  513MOL0     H69226   8.879   2.456   7.905 -2.0065  0.4136  0.9147
  513MOL0     H69227   8.960   2.265   7.673  3.3252 -0.8528  0.0088
  513MOL0     H69228   8.976   2.229   7.839  2.6035 -0.3390  1.3752
  513MOL0     H69229   9.101   2.464   7.685 -1.2308  1.2670  2.3470
  513MOL0     H69230   9.134   2.442   7.852 -0.7488 -0.3413  0.1023
  513MOL0     H69231   9.206   2.260   7.607  0.3883 -0.8684  0.2063
  513MOL0     H69232   9.186   2.193   7.767  1.6235 -0.4372 -0.8139
  513MOL0     H69233   9.390   2.397   7.676  1.0832  1.5777  0.8533
  513MOL0     H69234   9.377   2.345   7.841  0.5629 -2.2968  0.6157
  513MOL0     H69235   8.622   2.650   8.079 -1.7927 -0.1105 -1.2224
  513MOL0     H69236   8.546   2.737   8.306 -1.3373  0.5805  1.1783
  513MOL0     H69237   8.674   3.232   8.629 -0.9011 -0.5759  1.9718
  513MOL0     H69238   8.564   3.422   8.755 -0.2507  1.6633 -1.3148
  513MOL0     H69239   6.545   3.151   8.119 -1.2902  0.8449  0.3150
  513MOL0     H69240   6.417   3.171   8.320 -0.0803 -0.9853 -1.7748
  513MOL0     H69241   6.550   3.328   8.797 -0.7256 -0.7883 -2.8387
  513MOL0     H69242   6.477   3.298   9.058 -0.8071 -0.9416  0.0142
  513MOL0     H69243   6.394   3.206   9.220  1.8263  1.4793  0.8193
  513MOL0     H69244   6.259   3.262   9.324  0.4916 -0.8887 -0.9466
  513MOL0     H69245   6.314   3.471   9.340  0.8557 -0.6798  0.8971
  513MOL0     H69246   6.424   3.467   9.192  0.2296 -0.5405  0.1766
  513MOL0     H69247   6.575   3.324   9.355  0.3238 -0.3276  3.3398
  513MOL0     H69248   6.464   3.380   9.478 -2.2119 -2.2698 -0.9755
  513MOL0     H69249   6.681   3.529   9.449  0.7668  1.1602 -0.7293
  513MOL0     H69250   6.627   3.549   9.279 -1.3968  1.8910  0.5465
  513MOL0     H69251   6.395   3.828   9.490 -0.1743 -0.2435 -0.0505
  513MOL0     H69252   6.084   3.281   8.938 -0.5793  0.8869 -0.6164
  513MOL0     H69253   5.989   3.270   8.740 -0.1640  1.8976 -1.4351
  513MOL0     H69254   6.083   3.337   8.601 -0.3825 -0.6335 -0.5763
  513MOL0     H69255   6.100   3.169   8.629  1.3938  0.7859 -1.4356
  514MOL0     O69256   5.147   3.914   1.326 -0.2686  0.1188  0.2163
  514MOL0     C69257   5.075   4.010   1.316 -0.1907 -0.1228 -0.0638
  514MOL0     O69258   5.110   4.123   1.249  0.2020 -0.5532  0.3895
  514MOL0     C69259   5.234   4.173   1.257 -0.0684  0.3077 -0.6979
  514MOL0     C69260   5.327   4.147   1.364  0.6077  0.7780  0.4039
  514MOL0     C69261   5.456   4.186   1.364 -0.4430 -0.2704 -0.1407
  514MOL0     C69262   5.497   4.268   1.259 -0.1125  0.1765 -0.5753
  514MOL0     O69263   5.623   4.324   1.230 -0.4577  0.0898 -0.8806
  514MOL0     C69264   5.718   4.309   1.341 -0.3003 -0.4057  0.6178
  514MOL0     C69265   5.847   4.373   1.293 -0.0959  0.3497 -0.1364
  514MOL0     C69266   5.945   4.388   1.411  0.2711 -0.2107  0.1734
  514MOL0     C69267   6.084   4.418   1.372 -0.2483 -0.3080 -0.3912
  514MOL0     C69268   6.179   4.419   1.494  0.5964  0.2245  0.5836
  514MOL0     C69269   6.263   4.549   1.491  0.2214 -0.3151 -0.4924
  514MOL0     C69270   6.376   4.538   1.593  0.2612  0.6456  0.8225
  514MOL0     C69271   6.507   4.502   1.517 -0.1343 -0.1891  0.4402
  514MOL0     N69272   6.556   4.616   1.438  0.6932 -0.1055 -0.1008
  514MOL0     C69273   6.598   4.737   1.485  0.2165 -0.3032 -0.0013
  514MOL0     C69274   6.628   4.799   1.372  0.5764 -0.9069  0.1653
  514MOL0     C69275   6.701   4.930   1.378  0.1031  0.0190  0.6628
  514MOL0     C69276   6.844   4.924   1.307  0.2773  0.6191 -0.1130
  514MOL0     C69277   6.955   4.829   1.375 -0.0922  1.0600 -0.6378
  514MOL0     C69278   7.087   4.822   1.283 -0.3323  0.4317 -0.0944
  514MOL0     O69279   7.184   4.750   1.368 -0.1855  0.5434  0.3660
  514MOL0     C69280   7.319   4.775   1.371 -0.8410 -0.1680 -0.3529
  514MOL0     C69281   7.396   4.867   1.291  0.3812  0.2729 -0.0334
  514MOL0     C69282   7.540   4.875   1.291  0.3925 -0.5581  0.1625
  514MOL0     C69283   7.616   4.818   1.395 -0.9643 -0.5415 -0.1131
  514MOL0     C69284   7.758   4.857   1.396 -0.2872  0.0796  0.1826
  514MOL0     O69285   7.804   4.949   1.316 -0.1021 -0.3310 -0.3971
  514MOL0     C69286   7.935   4.972   1.328  0.2519  0.5372  0.5926
  514MOL0     C69287   8.025   4.937   1.229  0.3261 -0.7959  0.2498
  514MOL0     C69288   8.158   4.956   1.244  0.5582 -1.2743 -0.5505
  514MOL0     C69289   8.203   5.027   1.356 -0.9788 -0.8360 -0.1881
  514MOL0     O69290   8.331   5.088   1.373  0.3708  1.1631  0.1420
  514MOL0     C69291   8.423   5.096   1.258  0.1303  0.0647 -0.1366
  514MOL0     C69292   8.542   5.171   1.319 -0.4238  0.1379  1.3280
  514MOL0     C69293   8.654   5.180   1.215 -0.2329 -0.4800  0.6894
  514MOL0     C69294   8.778   5.216   1.295 -0.1058 -0.1640  1.6072
  514MOL0     C69295   8.886   5.263   1.190  0.1922  0.0246 -0.5897
  514MOL0     C69296   8.999   5.347   1.255  0.2511  0.1949  0.5386
  514MOL0     C69297   9.084   5.273   1.367 -0.3572  1.0026 -0.3590
  514MOL0     C69298   9.191   5.370   1.420 -0.0246  1.0186  0.6235
  514MOL0    Cl69299   9.127   5.513   1.512 -0.0849  0.1445 -0.7063
  514MOL0     C69300   8.113   5.069   1.455 -0.0819  0.1410 -0.8501
  514MOL0     C69301   7.975   5.039   1.443 -0.2094  0.1057 -0.0698
  514MOL0     O69302   7.824   4.799   1.479 -0.0802 -0.1080 -0.9577
  514MOL0     C69303   7.541   4.732   1.477 -0.2559 -0.5669  0.2243
  514MOL0     C69304   7.402   4.706   1.466 -0.3920 -0.0500 -0.0840
  514MOL0     N69305   6.599   4.725   1.262  0.5240 -0.6705 -0.7326
  514MOL0     N69306   6.561   4.616   1.305  0.1901 -0.0478 -0.3507
  514MOL0     C69307   5.395   4.311   1.158  0.1371  0.4258 -0.6605
  514MOL0     C69308   5.264   4.265   1.156 -0.3384  0.2584  0.1618
  514MOL0     C69309   4.939   4.017   1.387 -0.2910  0.5058  0.7249
  514MOL0     C69310   4.874   4.136   1.425 -0.3335 -0.0498  0.1453
  514MOL0     C69311   4.760   4.139   1.499  0.3710  0.5100 -0.4550
  514MOL0     C69312   4.693   4.016   1.533  0.3674 -0.3341 -0.2875
  514MOL0     O69313   4.571   4.014   1.587  0.1844 -0.3806  0.2313
  514MOL0     C69314   4.490   4.124   1.598 -0.5549 -0.0125 -0.7087
  514MOL0     C69315   4.355   4.079   1.649 -0.7073  0.4810  0.0470
  514MOL0     C69316   4.265   4.012   1.543 -0.0991  0.6291  0.0590
  514MOL0     C69317   4.192   4.105   1.443 -0.5633  0.8513 -0.0817
  514MOL0     C69318   4.083   4.179   1.500  0.5164 -0.4873  0.0891
  514MOL0     C69319   4.009   4.260   1.553 -0.8295 -0.0346  0.3959
  514MOL0     C69320   4.746   3.899   1.492 -1.2476  1.0775 -0.4762
  514MOL0     C69321   4.864   3.892   1.414  0.1808 -0.1489  0.2926
  514MOL0     C69322   4.912   3.757   1.369  0.5561  0.1660 -0.7080
  514MOL0     H69323   5.286   4.089   1.445  0.6953 -0.0191 -0.1138
  514MOL0     H69324   5.528   4.150   1.437 -2.3311 -4.9920 -0.2265
  514MOL0     H69325   5.677   4.358   1.430 -1.8010  0.4492 -0.5058
  514MOL0     H69326   5.734   4.204   1.366 -2.0232 -0.6276  0.9175
  514MOL0     H69327   5.815   4.473   1.263 -0.5316  1.2799  3.0316
  514MOL0     H69328   5.897   4.318   1.213  1.1160  1.4055 -0.1422
  514MOL0     H69329   5.954   4.297   1.470  1.3909 -0.3691 -0.2184
  514MOL0     H69330   5.918   4.471   1.478  3.2169  2.2003 -1.3693
  514MOL0     H69331   6.129   4.360   1.290  3.4756  2.3924 -0.5088
  514MOL0     H69332   6.086   4.514   1.320  3.2919  0.7421  1.3665
  514MOL0     H69333   6.129   4.436   1.589  0.8124  2.4128  0.3561
  514MOL0     H69334   6.241   4.328   1.490  0.1360 -0.0967  0.7211
  514MOL0     H69335   6.305   4.570   1.393  1.9558 -1.6563 -0.0749
  514MOL0     H69336   6.199   4.634   1.518  1.3768  0.6211 -0.6228
  514MOL0     H69337   6.357   4.450   1.655 -0.4359 -0.6676 -1.1611
  514MOL0     H69338   6.381   4.623   1.662 -1.3056 -1.9401  4.4186
  514MOL0     H69339   6.594   4.500   1.584  2.3908  1.5475 -2.5466
  514MOL0     H69340   6.497   4.411   1.458  1.9414  0.5099 -1.0902
  514MOL0     H69341   6.633   4.775   1.581 -0.1656 -1.7521  0.7368
  514MOL0     H69342   6.634   5.006   1.339  0.5751  1.0003  1.6778
  514MOL0     H69343   6.710   4.955   1.485 -0.9581 -1.7277  1.1965
  514MOL0     H69344   6.831   4.879   1.209 -3.6938  1.3668 -0.0909
  514MOL0     H69345   6.881   5.025   1.285  0.8850  0.6274  0.8614
  514MOL0     H69346   6.922   4.724   1.372  0.5327  0.8674 -3.2560
  514MOL0     H69347   6.969   4.854   1.481  1.8825  1.0662 -0.8671
  514MOL0     H69348   7.120   4.925   1.263  0.6354 -0.1586 -1.7565
  514MOL0     H69349   7.073   4.776   1.185  2.4882  0.5702 -0.6240
  514MOL0     H69350   7.342   4.930   1.222 -1.6066 -0.1438  1.0585
  514MOL0     H69351   7.579   4.938   1.212 -2.0888  2.2184  0.9503
  514MOL0     H69352   7.983   4.891   1.139  0.9703  1.6773 -1.4154
  514MOL0     H69353   8.229   4.925   1.168  2.0863  0.6539 -0.0211
  514MOL0     H69354   8.464   4.999   1.226  0.5933 -2.1778  5.8380
  514MOL0     H69355   8.372   5.155   1.182 -0.5426  0.0554  0.2987
  514MOL0     H69356   8.511   5.275   1.332 -1.6890 -0.0026 -0.3045
  514MOL0     H69357   8.577   5.116   1.407  2.4082 -2.1111 -0.9705
  514MOL0     H69358   8.665   5.084   1.165  0.1192  1.2520 -2.8610
  514MOL0     H69359   8.623   5.248   1.135  2.9972 -1.5107 -1.6717
  514MOL0     H69360   8.823   5.136   1.354  1.7741  0.5321  1.1897
  514MOL0     H69361   8.750   5.299   1.360 -0.9991  1.0562 -0.2673
  514MOL0     H69362   8.849   5.317   1.103 -0.3436 -1.3881 -1.2726
  514MOL0     H69363   8.928   5.170   1.150  0.1650 -0.2457 -0.0021
  514MOL0     H69364   9.065   5.375   1.172  0.1141  0.9231  0.6680
  514MOL0     H69365   8.962   5.442   1.296  0.8961 -0.6730  3.4068
  514MOL0     H69366   9.126   5.181   1.325  1.7679  0.4565  2.6149
  514MOL0     H69367   9.012   5.242   1.443  0.1874 -2.1791 -1.0071
  514MOL0     H69368   9.262   5.309   1.477 -0.3922 -0.8204 -0.7943
  514MOL0     H69369   9.239   5.403   1.327  0.8160 -0.2410  0.5919
  514MOL0     H69370   8.153   5.121   1.542 -1.6722 -1.5132  0.9859
  514MOL0     H69371   7.912   5.053   1.531  1.5627  0.2554  1.2309
  514MOL0     H69372   7.580   4.686   1.566 -1.5247 -0.3241  0.9297
  514MOL0     H69373   7.353   4.643   1.540  0.7877  1.1936  1.8507
  514MOL0     H69374   5.437   4.363   1.073  3.5327 -0.4729  0.3189
  514MOL0     H69375   5.179   4.302   1.099  0.0368  0.8288 -0.0273
  514MOL0     H69376   4.919   4.233   1.408 -0.5477 -0.2987 -2.1651
  514MOL0     H69377   4.726   4.237   1.530  0.3598  0.7628 -1.2460
  514MOL0     H69378   4.471   4.164   1.498  0.3859  2.3025 -0.0375
  514MOL0     H69379   4.529   4.204   1.662  0.1954 -1.4111  0.6731
  514MOL0     H69380   4.315   4.178   1.674 -0.3579  1.0121 -1.3913
  514MOL0     H69381   4.370   4.025   1.742  0.2370 -0.4952 -0.6424
  514MOL0     H69382   4.175   3.974   1.592 -2.5962  0.9957 -3.8174
  514MOL0     H69383   4.313   3.930   1.490 -2.0517  1.1464 -2.7116
  514MOL0     H69384   4.259   4.179   1.400  1.1693  0.7444  2.2282
  514MOL0     H69385   4.147   4.041   1.367 -0.5058 -0.9216  1.3048
  514MOL0     H69386   3.950   4.333   1.604  2.3004  2.6375  0.5673
  514MOL0     H69387   4.688   3.810   1.513  0.3680 -0.1982 -1.1799
  514MOL0     H69388   4.832   3.683   1.380 -0.0027  0.6094 -1.6672
  514MOL0     H69389   4.932   3.752   1.261 -0.4749  0.3127 -0.9181
  514MOL0     H69390   4.994   3.720   1.432 -2.8697 -0.8246  3.6072
  515MOL0     O69391   5.434   8.794   4.673 -0.3003 -0.4336  0.4361
  515MOL0     C69392   5.446   8.679   4.711  0.7331 -0.0784  0.6251
  515MOL0     O69393   5.544   8.629   4.792  0.2320 -0.6646  0.4073
  515MOL0     C69394   5.610   8.722   4.861 -0.1621 -0.5608  0.5280
  515MOL0     C69395   5.599   8.713   4.996  0.2002 -0.0087  0.1434
  515MOL0     C69396   5.670   8.794   5.079 -1.1263  0.1730  0.3254
  515MOL0     C69397   5.739   8.906   5.034 -0.4585 -0.0169  0.5341
  515MOL0     O69398   5.806   8.987   5.129  0.2739 -0.5172 -0.1169
  515MOL0     C69399   5.849   9.114   5.090 -0.2788  0.1412  0.6910
  515MOL0     C69400   5.973   9.141   5.171  0.2976 -1.3690 -0.1318
  515MOL0     C69401   6.026   9.287   5.141 -0.3096 -1.1158  0.3721
  515MOL0     C69402   6.121   9.318   5.248  0.4979  0.5196  0.3078
  515MOL0     C69403   6.256   9.383   5.201  0.6420 -0.1983  0.3393
  515MOL0     C69404   6.236   9.510   5.128  0.0036  0.5551  0.2691
  515MOL0     C69405   6.372   9.583   5.109  0.2024 -0.7122 -0.1242
  515MOL0     C69406   6.464   9.520   5.012  0.1528 -0.8039  0.2397
  515MOL0     N69407   6.601   9.567   5.038 -0.4838  0.0588 -0.5146
  515MOL0     C69408   6.642   9.692   5.004  0.6473  0.5033 -0.4236
  515MOL0     C69409   6.774   9.675   5.003  0.3783 -0.5484 -0.4126
  515MOL0     C69410   6.860   9.792   4.983 -1.2467  1.0116 -0.0587
  515MOL0     C69411   6.977   9.758   4.885  0.7721  0.1904  0.7622
  515MOL0     C69412   7.090   9.682   4.937  0.0085 -0.3700  0.4678
  515MOL0     C69413   7.209   9.657   4.837 -0.6085 -0.7679 -0.8684
  515MOL0     O69414   7.256   9.791   4.793 -0.4679  0.0944  0.2910
  515MOL0     C69415   7.375   9.847   4.834 -0.2247 -0.5289 -0.5446
  515MOL0     C69416   7.398   9.974   4.789 -0.2351 -0.3631  0.8518
  515MOL0     C69417   7.513  10.041   4.825  0.9388 -0.1548  0.1048
  515MOL0     C69418   7.610   9.975   4.898 -0.1127 -0.4214  0.3893
  515MOL0     C69419   7.723  10.046   4.941 -1.3451  0.2584 -0.1235
  515MOL0     O69420   7.840   9.971   4.966 -0.4959 -0.2120  0.6865
  515MOL0     C69421   7.949  10.049   4.992 -0.2330  0.4971 -0.6069
  515MOL0     C69422   7.973  10.110   5.120 -0.2713  0.2455  0.2796
  515MOL0     C69423   8.093  10.181   5.140 -0.3929 -0.3869  0.6500
  515MOL0     C69424   8.186  10.195   5.040 -1.0083 -1.3203  0.1045
  515MOL0     O69425   8.303  10.262   5.070 -0.0603  0.1414  0.1770
  515MOL0     C69426   8.425  10.194   5.024  0.1143 -0.1442 -0.0394
  515MOL0     C69427   8.512  10.182   5.149 -0.0895  0.1754  0.8358
  515MOL0     C69428   8.663  10.188   5.125 -0.4410  0.6385 -0.0731
  515MOL0     C69429   8.735  10.213   5.254  0.3659 -0.6758 -0.4590
  515MOL0     C69430   8.742  10.093   5.341  0.3999  0.2097 -0.0592
  515MOL0     C69431   8.787  10.128   5.486  0.0198 -0.2759 -0.0271
  515MOL0     C69432   8.915  10.215   5.487 -0.2117 -0.5058  0.2953
  515MOL0     C69433   8.962  10.243   5.631  0.5471  0.0852  0.0521
  515MOL0    Cl69434   9.105  10.359   5.621 -0.2711  0.1168 -0.8092
  515MOL0     C69435   8.161  10.140   4.917  0.0565 -0.3507  0.1530
  515MOL0     C69436   8.047  10.059   4.896  0.2669 -0.3732  0.6800
  515MOL0     O69437   7.721  10.170   4.940  0.1335 -0.1033  0.0269
  515MOL0     C69438   7.594   9.843   4.942  0.5062  0.8729  0.3126
  515MOL0     C69439   7.476   9.773   4.906  0.8452  0.0324  0.5290
  515MOL0     N69440   6.812   9.545   5.039 -0.0602 -0.0600 -1.4056
  515MOL0     N69441   6.708   9.480   5.059  0.1864 -0.9405  0.3141
  515MOL0     C69442   5.756   8.912   4.891  0.7054  0.0304  0.1007
  515MOL0     C69443   5.698   8.815   4.805  0.4997  0.0832 -0.2811
  515MOL0     C69444   5.386   8.583   4.612 -0.3231 -0.6230 -0.7049
  515MOL0     C69445   5.464   8.475   4.560 -0.2408  0.3916  0.3423
  515MOL0     C69446   5.410   8.398   4.457  0.3699 -0.1116  0.0770
  515MOL0     C69447   5.278   8.415   4.407 -0.5505 -0.0057  0.4119
  515MOL0     O69448   5.204   8.339   4.314 -0.1185 -0.1480  0.4470
  515MOL0     C69449   5.270   8.219   4.262  0.1593  0.1779  0.6284
  515MOL0     C69450   5.181   8.141   4.171  0.4651  0.2110  0.4258
  515MOL0     C69451   5.041   8.116   4.226 -0.4661  0.9062 -0.2422
  515MOL0     C69452   4.961   8.051   4.114 -0.3214 -1.1979 -0.3555
  515MOL0     C69453   5.024   7.923   4.066  0.3577 -0.3242  0.1214
  515MOL0     C69454   5.061   7.812   4.037 -0.1608 -0.3746  0.2645
  515MOL0     C69455   5.215   8.524   4.461  0.6390  0.4725 -0.7281
  515MOL0     C69456   5.261   8.610   4.561 -0.1001 -0.5495 -0.9511
  515MOL0     C69457   5.156   8.701   4.625  0.1610 -0.9680  0.1871
  515MOL0     H69458   5.534   8.635   5.033 -0.4975  0.5344  0.0746
  515MOL0     H69459   5.661   8.790   5.187 -1.4401  0.5480  0.3170
  515MOL0     H69460   5.877   9.134   4.986  2.2896  6.0022  2.0917
  515MOL0     H69461   5.769   9.183   5.119 -0.1243  0.7616 -0.3167
  515MOL0     H69462   6.051   9.070   5.140  1.1982 -0.6645  0.4546
  515MOL0     H69463   5.948   9.117   5.275  0.1524 -1.2274 -0.1341
  515MOL0     H69464   5.940   9.355   5.134 -1.7751 -2.9321  0.0790
  515MOL0     H69465   6.071   9.282   5.041 -1.1125  0.1813 -0.0753
  515MOL0     H69466   6.071   9.375   5.327  0.8135  0.7806  0.3234
  515MOL0     H69467   6.145   9.220   5.288  3.9818  0.9466 -0.4791
  515MOL0     H69468   6.331   9.392   5.281  0.3398  1.4500  0.4812
  515MOL0     H69469   6.291   9.309   5.129 -1.3237 -0.6373 -0.2114
  515MOL0     H69470   6.189   9.498   5.030  1.7908  1.6977 -0.7842
  515MOL0     H69471   6.179   9.582   5.187 -0.4143  0.7552 -0.3679
  515MOL0     H69472   6.420   9.596   5.207  0.3620 -2.3980  0.0452
  515MOL0     H69473   6.343   9.683   5.076 -1.4797 -1.0905  0.1512
  515MOL0     H69474   6.460   9.411   5.022  0.5570 -1.0210 -1.5823
  515MOL0     H69475   6.435   9.557   4.913  0.2581  1.3893  0.9656
  515MOL0     H69476   6.583   9.778   4.974 -0.4224  0.4759  1.5055
  515MOL0     H69477   6.802   9.876   4.943 -0.1669  1.7290 -0.1627
  515MOL0     H69478   6.885   9.835   5.081 -3.8993  0.1042  1.1352
  515MOL0     H69479   6.933   9.710   4.797  1.1453 -1.1666  1.3042
  515MOL0     H69480   7.020   9.847   4.838 -0.4705  1.1342  1.3458
  515MOL0     H69481   7.049   9.588   4.974 -2.4669 -0.0311 -1.1906
  515MOL0     H69482   7.134   9.733   5.024  2.5538  1.3490 -1.6544
  515MOL0     H69483   7.186   9.594   4.751 -2.2595 -5.2584  2.4640
  515MOL0     H69484   7.277   9.588   4.888 -1.1133 -0.7475 -0.1645
  515MOL0     H69485   7.329  10.026   4.724  0.9460  1.5467  1.0415
  515MOL0     H69486   7.526  10.142   4.786 -1.5044 -0.3466 -1.3905
  515MOL0     H69487   7.909  10.094   5.206  0.8423  0.1829  1.1219
  515MOL0     H69488   8.105  10.230   5.236 -0.6744  2.2197 -0.5636
  515MOL0     H69489   8.410  10.101   4.967  0.2804 -0.2860  0.1464
  515MOL0     H69490   8.478  10.259   4.954 -2.6112  0.3902 -1.7740
  515MOL0     H69491   8.478  10.253   5.225  1.6035 -0.1914  1.9800
  515MOL0     H69492   8.506  10.085   5.199  1.8614 -2.1404 -2.8855
  515MOL0     H69493   8.699  10.092   5.088 -1.2493  0.1007  0.4972
  515MOL0     H69494   8.689  10.260   5.048  0.3766 -2.0330 -2.4350
  515MOL0     H69495   8.699  10.302   5.307  2.9708  0.4544 -0.4196
  515MOL0     H69496   8.839  10.229   5.224  0.0993  1.1427 -0.5349
  515MOL0     H69497   8.811  10.020   5.297  3.9486  1.9716  2.1012
  515MOL0     H69498   8.643  10.046   5.350 -0.9227  2.6915 -0.9296
  515MOL0     H69499   8.703  10.171   5.542 -0.1874  0.2841 -0.7478
  515MOL0     H69500   8.809  10.033   5.535 -1.3556 -0.4011  0.3823
  515MOL0     H69501   8.896  10.307   5.431 -1.7125 -1.5759 -1.0830
  515MOL0     H69502   8.991  10.158   5.432  1.0807  3.0455 -1.9571
  515MOL0     H69503   8.885  10.293   5.691 -0.8045  0.6338 -2.0313
  515MOL0     H69504   8.989  10.153   5.687  2.0604  0.5698  0.1386
  515MOL0     H69505   8.236  10.150   4.839 -0.2477  0.8885  0.0033
  515MOL0     H69506   8.033  10.012   4.799 -0.2975  0.8830  0.1326
  515MOL0     H69507   7.676   9.792   4.991  3.9405  1.5574 -4.0730
  515MOL0     H69508   7.472   9.666   4.924 -0.6239 -0.5838 -2.7022
  515MOL0     H69509   5.819   8.988   4.848  2.0734 -0.0997  1.7507
  515MOL0     H69510   5.733   8.830   4.704 -2.5447 -0.9483 -1.6256
  515MOL0     H69511   5.565   8.447   4.588 -0.7766 -2.4865 -0.3528
  515MOL0     H69512   5.473   8.322   4.415  0.1129  0.3017 -1.0891
  515MOL0     H69513   5.299   8.163   4.351 -2.0276  0.7615  1.8077
  515MOL0     H69514   5.359   8.243   4.204  1.1067 -0.8041  1.6415
  515MOL0     H69515   5.237   8.048   4.158 -1.6608 -1.4347  2.2937
  515MOL0     H69516   5.174   8.186   4.072  1.6206 -1.0779 -0.2897
  515MOL0     H69517   4.992   8.209   4.257  2.3598  2.7682 -1.0211
  515MOL0     H69518   5.040   8.046   4.310 -1.0777  3.3179  1.8876
  515MOL0     H69519   4.864   8.026   4.158  0.3950 -3.7891 -0.0789
  515MOL0     H69520   4.953   8.119   4.029  2.3415 -1.1016 -0.6385
  515MOL0     H69521   5.095   7.722   3.990  2.7809  1.4854 -1.3935
  515MOL0     H69522   5.109   8.525   4.436  0.2015  2.0011  1.0082
  515MOL0     H69523   5.155   8.797   4.573  2.5591 -1.9717 -1.9043
  515MOL0     H69524   5.059   8.656   4.603 -0.3093  0.7478 -1.4666
  515MOL0     H69525   5.172   8.718   4.732  1.4186  0.4192 -0.1906
  516MOL0     O69526  11.048   7.331   2.819 -0.1218 -0.4994 -1.3093
  516MOL0     C69527  10.978   7.426   2.820  0.9446  0.1177  0.0405
  516MOL0     O69528  11.018   7.566   2.815  0.5068  0.6699  0.4935
  516MOL0     C69529  11.150   7.602   2.830 -0.0997 -1.1844 -0.6990
  516MOL0     C69530  11.209   7.702   2.755 -0.2035 -0.6056 -0.4192
  516MOL0     C69531  11.335   7.743   2.779 -0.1015 -0.1849  0.1641
  516MOL0     C69532  11.422   7.696   2.883  0.4836  0.1907  0.3116
  516MOL0     O69533  11.542   7.749   2.920 -0.1209 -0.4300 -0.2194
  516MOL0     C69534  11.642   7.783   2.820  0.1821 -0.2667 -0.1743
  516MOL0     C69535  11.778   7.778   2.887 -0.3999  0.7940  0.2750
  516MOL0     C69536  11.891   7.793   2.783  0.5576 -0.7089 -0.1137
  516MOL0     C69537  12.024   7.788   2.843  0.4836 -0.2419  0.2525
  516MOL0     C69538  12.147   7.819   2.734 -0.7884 -0.7685 -0.9050
  516MOL0     C69539  12.279   7.826   2.805 -0.1445  0.9228  0.4908
  516MOL0     C69540  12.379   7.861   2.692 -0.6517 -0.0801  0.2448
  516MOL0     C69541  12.419   7.747   2.608  0.6039  0.9806 -0.4921
  516MOL0     N69542  12.535   7.769   2.524  0.5092 -0.5815  0.8903
  516MOL0     C69543  12.522   7.847   2.408 -0.3201  0.2261  0.8729
  516MOL0     C69544  12.652   7.881   2.380 -0.0330 -0.1226 -0.0076
  516MOL0     C69545  12.693   7.939   2.246 -1.1838 -0.5870 -0.6878
  516MOL0     C69546  12.800   7.852   2.181 -0.0259 -0.4155  0.2843
  516MOL0     C69547  12.810   7.867   2.031 -0.0818 -0.0631 -0.8426
  516MOL0     C69548  12.844   8.007   1.986 -0.1385  0.0767  1.1661
  516MOL0     O69549  12.971   8.036   2.046  0.3245 -0.0921  0.2037
  516MOL0     C69550  13.073   8.094   1.979 -1.0079 -0.0036  0.1865
  516MOL0     C69551  13.092   8.120   1.842  0.0461 -0.0917  0.1841
  516MOL0     C69552  13.198   8.193   1.791 -0.3130 -0.4502 -0.2023
  516MOL0     C69553  13.284   8.245   1.881  0.1151  0.2211 -0.7990
  516MOL0     C69554  13.394   8.324   1.837 -0.7855 -0.1293  0.0922
  516MOL0     O69555  13.412   8.343   1.697 -0.3072 -0.6758 -0.5353
  516MOL0     C69556  13.524   8.418   1.664  0.4395  0.1014  0.2363
  516MOL0     C69557  13.644   8.352   1.647 -1.1146  0.3007 -0.6358
  516MOL0     C69558  13.761   8.429   1.616  0.4639 -0.2461  0.4512
  516MOL0     C69559  13.752   8.571   1.600 -0.4235  0.2291  0.0567
  516MOL0     O69560  13.855   8.651   1.549  0.4298  0.3383  0.0249
  516MOL0     C69561  13.985   8.623   1.607  0.2783 -0.1362  0.1814
  516MOL0     C69562  14.041   8.764   1.642 -0.6397  1.1729  0.6778
  516MOL0     C69563  13.983   8.838   1.762 -0.4047  0.4001 -1.3796
  516MOL0     C69564  13.982   8.756   1.892 -0.9387 -0.2412 -0.1621
  516MOL0     C69565  13.934   8.843   2.005  0.1343 -0.3006  0.6688
  516MOL0     C69566  13.779   8.888   1.995 -0.5749  0.2650 -0.4368
  516MOL0     C69567  13.676   8.779   1.980 -0.2432  0.9149 -0.2982
  516MOL0     C69568  13.549   8.818   1.915 -0.2469  0.0267  0.3697
  516MOL0    Cl69569  13.459   8.919   2.031 -0.4828  0.5168 -0.0517
  516MOL0     C69570  13.625   8.629   1.610 -1.5428 -0.3815  0.0903
  516MOL0     C69571  13.514   8.553   1.642  0.3589  0.2388  0.8159
  516MOL0     O69572  13.467   8.366   1.929 -0.6723 -0.2415  0.2205
  516MOL0     C69573  13.265   8.227   2.022  0.2838 -0.4782 -0.7409
  516MOL0     C69574  13.160   8.146   2.073 -0.4923 -0.8054 -0.0763
  516MOL0     N69575  12.729   7.835   2.483 -0.3801 -0.4474 -0.3631
  516MOL0     N69576  12.661   7.777   2.569 -0.7278  0.5790 -0.5589
  516MOL0     C69577  11.365   7.588   2.952 -0.6308  0.0533  0.5046
  516MOL0     C69578  11.236   7.544   2.919 -0.0903  0.7909 -0.1016
  516MOL0     C69579  10.834   7.396   2.828 -1.1410  0.4065 -0.1219
  516MOL0     C69580  10.785   7.332   2.942  0.0512 -0.1827  1.0011
  516MOL0     C69581  10.654   7.297   2.958 -0.1385 -0.1750  0.1951
  516MOL0     C69582  10.565   7.329   2.855  0.3743 -0.0055 -0.1883
  516MOL0     O69583  10.436   7.305   2.861 -0.6187  0.0383  0.2364
  516MOL0     C69584  10.382   7.198   2.939 -0.2265 -0.2932  0.2960
  516MOL0     C69585  10.369   7.062   2.881 -0.0428 -0.6438 -0.4649
  516MOL0     C69586  10.508   7.012   2.835 -0.2572 -0.1911 -0.4543
  516MOL0     C69587  10.517   6.852   2.827 -0.2866 -0.2594  0.4149
  516MOL0     C69588  10.660   6.806   2.854  0.1643 -0.5590 -0.6652
  516MOL0     C69589  10.767   6.755   2.887  0.4030 -0.3043  0.4798
  516MOL0     C69590  10.607   7.415   2.752  0.4614 -0.5890 -0.1321
  516MOL0     C69591  10.743   7.444   2.735  0.4379 -1.0500 -0.1462
  516MOL0     C69592  10.770   7.522   2.599 -0.0471 -0.5342 -0.5086
  516MOL0     H69593  11.141   7.751   2.684 -1.4109 -1.0496  0.3963
  516MOL0     H69594  11.389   7.821   2.726 -0.0589  2.3691  3.5836
  516MOL0     H69595  11.636   7.705   2.743 -0.2447  0.0199 -0.4383
  516MOL0     H69596  11.615   7.880   2.779  2.0707  0.1028 -0.5887
  516MOL0     H69597  11.783   7.681   2.938 -0.6056  0.6327 -0.0024
  516MOL0     H69598  11.790   7.858   2.960  0.9140  1.6537 -0.8277
  516MOL0     H69599  11.888   7.888   2.728  2.5069 -0.2600  0.4755
  516MOL0     H69600  11.876   7.717   2.706 -3.4161  0.0026 -0.2758
  516MOL0     H69601  12.042   7.856   2.927  3.1083  1.6372 -1.6831
  516MOL0     H69602  12.032   7.686   2.881 -0.0046  0.2641  1.8192
  516MOL0     H69603  12.138   7.750   2.649 -2.1892  0.2796 -1.6514
  516MOL0     H69604  12.128   7.918   2.691 -0.1720 -0.6081 -0.8169
  516MOL0     H69605  12.271   7.903   2.882  0.2435  1.0060  0.4481
  516MOL0     H69606  12.295   7.730   2.854  0.6833  0.4728 -0.6196
  516MOL0     H69607  12.471   7.900   2.738 -0.8041  0.3849  0.1594
  516MOL0     H69608  12.341   7.940   2.627 -1.2335 -0.8123 -0.3250
  516MOL0     H69609  12.427   7.660   2.674 -0.8301 -0.3163 -1.9197
  516MOL0     H69610  12.341   7.729   2.534 -1.1390 -1.3498  1.7529
  516MOL0     H69611  12.433   7.866   2.349  0.3355  1.1943  0.1847
  516MOL0     H69612  12.609   7.968   2.181  0.6424 -1.5679 -3.6605
  516MOL0     H69613  12.733   8.038   2.267 -0.6871 -0.9287  0.0017
  516MOL0     H69614  12.897   7.873   2.227 -0.6998 -2.4680  2.9262
  516MOL0     H69615  12.787   7.746   2.207  2.2100 -1.4685 -2.3800
  516MOL0     H69616  12.722   7.833   1.977 -1.3160  0.4537  0.7578
  516MOL0     H69617  12.889   7.799   1.997  0.5596 -0.2815  0.9593
  516MOL0     H69618  12.766   8.075   2.021 -0.0819  0.3532  0.7623
  516MOL0     H69619  12.843   8.010   1.877  1.0973  1.7687  1.1622
  516MOL0     H69620  13.015   8.085   1.773 -1.4967  0.1692  1.6809
  516MOL0     H69621  13.192   8.197   1.682 -1.1276  0.4164 -0.1393
  516MOL0     H69622  13.652   8.244   1.656  3.2629  0.5743  1.4092
  516MOL0     H69623  13.856   8.385   1.589  1.8799  1.6448  2.0355
  516MOL0     H69624  13.979   8.558   1.695 -0.5009  1.3745  1.2901
  516MOL0     H69625  14.048   8.580   1.529  0.4982 -0.8369  0.7336
  516MOL0     H69626  14.147   8.745   1.656 -0.5782 -0.2467 -1.2614
  516MOL0     H69627  14.013   8.821   1.552 -2.5129 -1.4449 -0.5316
  516MOL0     H69628  14.047   8.922   1.790  0.3102 -0.6025  0.1455
  516MOL0     H69629  13.887   8.881   1.732 -0.0135  2.5640  0.1908
  516MOL0     H69630  14.087   8.728   1.902 -0.1747  0.5408 -4.0669
  516MOL0     H69631  13.917   8.671   1.875  0.0092 -0.8092 -1.0810
  516MOL0     H69632  13.999   8.932   2.001  0.9590 -0.8670 -3.9795
  516MOL0     H69633  13.944   8.802   2.106 -0.3665  2.5162  1.9453
  516MOL0     H69634  13.754   8.945   2.084  2.0850  1.6866 -0.4902
  516MOL0     H69635  13.768   8.965   1.918  0.7495  1.6520  0.6954
  516MOL0     H69636  13.669   8.738   2.081  2.0382  0.4263 -0.2764
  516MOL0     H69637  13.726   8.700   1.922  2.5114  0.7793  2.0494
  516MOL0     H69638  13.570   8.875   1.825  2.7979 -1.7076 -0.1486
  516MOL0     H69639  13.503   8.723   1.885  3.3486 -2.1162  0.9851
  516MOL0     H69640  13.617   8.733   1.582 -1.0004  0.1510  1.8011
  516MOL0     H69641  13.413   8.594   1.639  0.2410 -0.0401  0.9643
  516MOL0     H69642  13.326   8.278   2.096 -1.2479  1.7616 -0.9210
  516MOL0     H69643  13.147   8.139   2.181 -4.9617 -0.6113 -0.3885
  516MOL0     H69644  11.402   7.545   3.045 -0.1280  0.4051  0.4716
  516MOL0     H69645  11.202   7.466   2.987 -0.3556  0.5696 -0.4850
  516MOL0     H69646  10.852   7.310   3.024  0.9070 -3.1868 -0.3508
  516MOL0     H69647  10.612   7.264   3.053  0.4557 -3.4119 -0.5478
  516MOL0     H69648  10.284   7.236   2.969 -0.6686 -2.2565  1.4976
  516MOL0     H69649  10.439   7.194   3.033 -1.2810  1.0679  1.0241
  516MOL0     H69650  10.294   7.069   2.802 -2.1019  2.2438  1.5167
  516MOL0     H69651  10.332   6.990   2.954 -0.5200 -2.4878 -2.4263
  516MOL0     H69652  10.576   7.030   2.918  0.6635 -1.5123 -0.8981
  516MOL0     H69653  10.554   7.070   2.755 -2.1934  1.3678 -0.5233
  516MOL0     H69654  10.442   6.812   2.897 -1.0596  2.9727  1.5913
  516MOL0     H69655  10.488   6.809   2.731 -1.4661 -1.5099  1.2873
  516MOL0     H69656  10.866   6.726   2.916 -1.1296 -2.7591  4.0619
  516MOL0     H69657  10.531   7.447   2.680  0.4456  1.6260  0.7905
  516MOL0     H69658  10.847   7.595   2.625 -2.0634  0.9244  1.6394
  516MOL0     H69659  10.805   7.453   2.521 -3.5241 -2.1577 -0.8328
  516MOL0     H69660  10.680   7.570   2.560  0.9669 -0.3585 -2.8229
  517MOL0     O69661   1.571   5.516  11.175 -0.5002  0.9853  0.3641
  517MOL0     C69662   1.482   5.597  11.168 -0.4923 -1.3438  0.3620
  517MOL0     O69663   1.476   5.702  11.078 -0.5717  0.4434 -0.2792
  517MOL0     C69664   1.586   5.715  10.999  0.6085 -0.9488  0.2902
  517MOL0     C69665   1.681   5.804  11.040 -0.0509 -0.4027  0.2338
  517MOL0     C69666   1.796   5.824  10.967 -0.2685 -0.6475 -0.2030
  517MOL0     C69667   1.816   5.758  10.844 -0.4476 -0.4442  0.5169
  517MOL0     O69668   1.934   5.768  10.784  0.1843 -0.7549  0.4426
  517MOL0     C69669   1.946   5.776  10.642  0.1547  0.3294  0.4057
  517MOL0     C69670   1.977   5.633  10.583 -0.1667 -0.5193  0.0241
  517MOL0     C69671   2.127   5.603  10.604 -0.7291  0.3245  0.4747
  517MOL0     C69672   2.183   5.462  10.564 -0.1733 -0.8092  0.4542
  517MOL0     C69673   2.334   5.442  10.577  1.0227 -0.4834 -0.0306
  517MOL0     C69674   2.367   5.299  10.515  0.6396  0.7020  0.0759
  517MOL0     C69675   2.516   5.301  10.508  0.9052  0.4759 -0.4417
  517MOL0     C69676   2.580   5.168  10.482 -0.2041 -0.3243 -0.3838
  517MOL0     N69677   2.571   5.131  10.341 -1.1273  0.6687 -0.5879
  517MOL0     C69678   2.671   5.165  10.248  0.5542  0.1354  0.1083
  517MOL0     C69679   2.629   5.094  10.132 -0.2988  1.0618  0.6419
  517MOL0     C69680   2.699   5.103  10.002  1.6340  0.7685 -0.2056
  517MOL0     C69681   2.802   4.999   9.981 -1.2399 -0.3872  0.4516
  517MOL0     C69682   2.923   5.035  10.073  0.6285 -0.3575  0.5771
  517MOL0     C69683   3.045   4.956  10.042  0.1102 -0.1251  0.6236
  517MOL0     O69684   3.086   4.981   9.905  0.4394  1.0678  0.5015
  517MOL0     C69685   3.218   4.952   9.870  0.9924 -0.8038 -1.0426
  517MOL0     C69686   3.286   4.845   9.920  0.4761  0.5720  0.1532
  517MOL0     C69687   3.423   4.828   9.880  0.8864  0.1916 -0.0048
  517MOL0     C69688   3.479   4.903   9.771  0.0418  0.2063 -0.4265
  517MOL0     C69689   3.618   4.876   9.711  0.2715 -0.0569  0.2408
  517MOL0     O69690   3.666   4.744   9.726 -0.2776 -0.2881  0.0193
  517MOL0     C69691   3.759   4.710   9.633 -0.4044  0.3500 -0.2128
  517MOL0     C69692   3.744   4.742   9.498 -0.0536 -0.9223  0.5120
  517MOL0     C69693   3.847   4.691   9.408 -0.3315  0.6570  0.1311
  517MOL0     C69694   3.967   4.624   9.450  0.1637 -0.0041  0.0159
  517MOL0     O69695   4.053   4.585   9.353  0.0166 -0.8444 -0.1159
  517MOL0     C69696   4.167   4.505   9.372  0.0278  0.6588  1.0307
  517MOL0     C69697   4.299   4.579   9.378  0.5613  0.2559  0.1889
  517MOL0     C69698   4.412   4.481   9.405 -0.8227  1.0840  0.3524
  517MOL0     C69699   4.533   4.560   9.393 -0.0852  0.8754  0.6557
  517MOL0     C69700   4.656   4.461   9.405  0.4871 -0.0542 -0.1862
  517MOL0     C69701   4.801   4.522   9.418 -0.0606  0.1443  0.3844
  517MOL0     C69702   4.843   4.570   9.280  0.7140  0.5785  0.0539
  517MOL0     C69703   4.992   4.578   9.257 -0.4050  1.7667 -0.4632
  517MOL0    Cl69704   5.075   4.407   9.265 -0.0946 -0.4251 -0.0771
  517MOL0     C69705   3.979   4.597   9.590  0.0275  0.0027 -0.3840
  517MOL0     C69706   3.879   4.644   9.682 -0.7401  0.3251 -0.1883
  517MOL0     O69707   3.677   4.966   9.660  0.9183 -0.4234 -0.1323
  517MOL0     C69708   3.394   5.002   9.714  0.0301 -0.2516  0.3791
  517MOL0     C69709   3.267   5.029   9.769  0.5075  0.5389  0.9598
  517MOL0     N69710   2.512   5.023  10.158 -0.2644 -0.3461  0.7547
  517MOL0     N69711   2.478   5.043  10.289 -0.0892 -0.2301 -0.1870
  517MOL0     C69712   1.713   5.669  10.802 -0.0626 -0.2120  0.6391
  517MOL0     C69713   1.596   5.656  10.875 -0.4464  0.0141 -0.4145
  517MOL0     C69714   1.364   5.580  11.262  1.1615 -0.8294  0.2569
  517MOL0     C69715   1.251   5.654  11.222  0.8770 -0.8378 -0.1739
  517MOL0     C69716   1.129   5.646  11.288  0.4933 -0.1612 -1.2934
  517MOL0     C69717   1.116   5.563  11.400 -0.6237  0.5166  0.1340
  517MOL0     O69718   0.989   5.560  11.450  0.4551 -0.0353  0.3425
  517MOL0     C69719   0.970   5.542  11.588 -0.0336  0.9763  0.1759
  517MOL0     C69720   0.894   5.419  11.608  0.9372  0.0523 -0.5555
  517MOL0     C69721   0.844   5.392  11.746 -0.1982  0.7797 -0.3311
  517MOL0     C69722   0.958   5.364  11.842 -0.3431 -0.4233 -1.4256
  517MOL0     C69723   1.022   5.233  11.807  0.3437  0.9148  0.7436
  517MOL0     C69724   1.043   5.121  11.768  0.0100  0.0513  0.1300
  517MOL0     C69725   1.224   5.484  11.427  0.0675 -0.6672 -0.5097
  517MOL0     C69726   1.348   5.489  11.362 -0.5107 -0.2379  0.2241
  517MOL0     C69727   1.450   5.379  11.385 -1.0808  1.0423 -0.8406
  517MOL0     H69728   1.668   5.853  11.136  0.0792 -3.2380  1.8173
  517MOL0     H69729   1.866   5.889  11.018 -1.5229 -0.3894  1.2701
  517MOL0     H69730   1.854   5.814  10.596  0.4411 -2.1817 -2.5249
  517MOL0     H69731   2.034   5.836  10.615 -2.3474  4.7134  1.1020
  517MOL0     H69732   1.946   5.616  10.480 -2.2106 -0.7011  0.6206
  517MOL0     H69733   1.914   5.560  10.635 -3.5153  1.0839 -1.5282
  517MOL0     H69734   2.138   5.609  10.713  0.1740  2.0898  0.3150
  517MOL0     H69735   2.192   5.678  10.558 -0.9461  0.5613  0.5555
  517MOL0     H69736   2.139   5.390  10.633  1.0001 -2.6338 -0.6204
  517MOL0     H69737   2.159   5.436  10.460  5.2582 -0.2962 -1.2387
  517MOL0     H69738   2.366   5.522  10.509 -0.8877  0.7864  0.4766
  517MOL0     H69739   2.368   5.462  10.679  0.9270  1.0845 -0.2767
  517MOL0     H69740   2.329   5.223  10.584 -0.7411 -0.5104 -1.9159
  517MOL0     H69741   2.321   5.285  10.416 -0.3295  0.2562  0.5746
  517MOL0     H69742   2.541   5.318  10.613 -1.3657 -2.0421  0.6180
  517MOL0     H69743   2.554   5.384  10.448  0.7788 -1.2439 -3.0385
  517MOL0     H69744   2.683   5.171  10.519 -0.5958  0.5237  0.7128
  517MOL0     H69745   2.524   5.093  10.539 -1.5946  1.7461  1.1606
  517MOL0     H69746   2.747   5.241  10.258 -0.1924  1.1821 -1.7487
  517MOL0     H69747   2.623   5.091   9.923  3.1497 -1.5896 -1.4078
  517MOL0     H69748   2.732   5.206   9.983  1.2535  0.8665 -0.3488
  517MOL0     H69749   2.767   4.897   9.998 -0.2731 -0.7517  0.3113
  517MOL0     H69750   2.833   5.002   9.876  1.2647  1.3592  1.1460
  517MOL0     H69751   2.895   5.017  10.177  0.4802 -0.5533  0.5049
  517MOL0     H69752   2.956   5.139  10.070  3.5976 -1.2211 -0.8214
  517MOL0     H69753   3.025   4.849  10.058 -0.6530 -0.2523 -1.0135
  517MOL0     H69754   3.121   4.995  10.111 -0.9228 -0.9462  2.2998
  517MOL0     H69755   3.238   4.774   9.986 -3.1140  2.5797 -0.0043
  517MOL0     H69756   3.479   4.742   9.916  0.9503  1.2181  2.5310
  517MOL0     H69757   3.662   4.795   9.451 -0.0339 -1.1025  0.2760
  517MOL0     H69758   3.821   4.691   9.303 -2.4577  0.1912  0.6175
  517MOL0     H69759   4.159   4.443   9.462  0.7366 -3.7128 -1.5910
  517MOL0     H69760   4.172   4.439   9.284 -0.3839  1.6320  0.2659
  517MOL0     H69761   4.296   4.636   9.285  1.2271  1.2529  0.7541
  517MOL0     H69762   4.296   4.643   9.467  1.6536 -0.2446  0.5922
  517MOL0     H69763   4.402   4.437   9.505  0.5866 -0.9293 -0.3438
  517MOL0     H69764   4.409   4.400   9.332  0.6523  2.3372 -1.1927
  517MOL0     H69765   4.550   4.623   9.480  0.3152  0.4066  0.9266
  517MOL0     H69766   4.534   4.625   9.305 -0.5725 -0.0325 -0.0475
  517MOL0     H69767   4.654   4.381   9.331  1.2393 -0.3626  0.1175
  517MOL0     H69768   4.631   4.408   9.498 -0.7650 -0.7859 -0.9055
  517MOL0     H69769   4.818   4.600   9.492  0.8740  1.7904 -1.4674
  517MOL0     H69770   4.882   4.451   9.437  0.5652 -0.6410 -4.1178
  517MOL0     H69771   4.816   4.675   9.271  0.1560  0.5420  1.1857
  517MOL0     H69772   4.803   4.508   9.199 -1.2026  0.0423  1.3299
  517MOL0     H69773   5.011   4.634   9.164  0.9351  1.8713 -0.1523
  517MOL0     H69774   5.032   4.644   9.334 -2.8502  3.8048 -0.8203
  517MOL0     H69775   4.066   4.552   9.638  0.0663 -0.4108 -0.8359
  517MOL0     H69776   3.889   4.623   9.788  0.8598  0.4196 -0.3018
  517MOL0     H69777   3.427   5.067   9.633  0.8871  1.2455  1.8530
  517MOL0     H69778   3.208   5.108   9.724  2.9338 -0.0253 -3.9128
  517MOL0     H69779   1.718   5.607  10.713  0.1981 -0.5444  0.8829
  517MOL0     H69780   1.517   5.594  10.834  2.1860 -3.4283 -0.6695
  517MOL0     H69781   1.259   5.725  11.141  0.5127  0.6624  1.0564
  517MOL0     H69782   1.038   5.698  11.262  0.5803 -0.7108 -2.8767
  517MOL0     H69783   0.907   5.618  11.635 -0.1227  0.9198  0.1496
  517MOL0     H69784   1.067   5.539  11.637  1.2812 -1.8178 -2.2972
  517MOL0     H69785   0.962   5.341  11.574  0.5988 -0.5691  0.1730
  517MOL0     H69786   0.807   5.420  11.542  1.5107 -0.2330 -1.3263
  517MOL0     H69787   0.784   5.301  11.740  0.8825 -0.1043  1.3543
  517MOL0     H69788   0.773   5.468  11.780  0.8984  1.4951  0.4643
  517MOL0     H69789   1.030   5.445  11.835 -2.9464  2.1627 -0.2505
  517MOL0     H69790   0.916   5.351  11.942 -1.1675 -1.6869 -1.8960
  517MOL0     H69791   1.062   5.017  11.751  1.3682  0.8097 -4.4218
  517MOL0     H69792   1.211   5.417  11.511 -0.0831  1.8646  1.5985
  517MOL0     H69793   1.463   5.340  11.283 -3.7471  0.3904 -0.9825
  517MOL0     H69794   1.540   5.420  11.432 -1.1111  1.3609 -1.0585
  517MOL0     H69795   1.417   5.290  11.439  2.4781  0.0108 -0.0448
  518MOL0     O69796   2.513   4.369   0.269 -0.1419 -0.6280  0.0894
  518MOL0     C69797   2.474   4.454   0.348 -0.0415 -0.1102 -0.9688
  518MOL0     O69798   2.345   4.502   0.354 -0.0429  0.4187  0.2862
  518MOL0     C69799   2.241   4.446   0.282 -0.4589 -0.0096  0.2967
  518MOL0     C69800   2.115   4.424   0.342  0.1088 -0.3329 -0.8166
  518MOL0     C69801   1.997   4.399   0.266  0.4375 -0.0793  0.5355
  518MOL0     C69802   2.004   4.393   0.131 -0.6165  0.4830 -0.0395
  518MOL0     O69803   1.893   4.362   0.064 -1.2199  0.6638  0.2810
  518MOL0     C69804   1.897   4.294  -0.063  0.8137  0.3299  0.3772
  518MOL0     C69805   1.767   4.225  -0.084  0.1135  0.3457 -0.1980
  518MOL0     C69806   1.654   4.311  -0.140  0.1285 -0.5602  0.0523
  518MOL0     C69807   1.580   4.412  -0.041 -0.5919  0.5457  0.1200
  518MOL0     C69808   1.448   4.474  -0.095  0.6103  0.0512  0.2257
  518MOL0     C69809   1.472   4.544  -0.235  0.3924  0.0292  0.6734
  518MOL0     C69810   1.541   4.684  -0.207 -0.4745 -0.5379  0.0496
  518MOL0     C69811   1.547   4.762  -0.337  0.1783 -0.1539 -0.3946
  518MOL0     N69812   1.624   4.888  -0.334  0.8962  0.0967  0.5666
  518MOL0     C69813   1.609   4.993  -0.252 -0.0104 -1.1776  0.0581
  518MOL0     C69814   1.696   5.088  -0.295 -1.4444 -0.2323  0.1606
  518MOL0     C69815   1.718   5.224  -0.242 -0.0485  0.0026 -0.5730
  518MOL0     C69816   1.836   5.231  -0.153 -0.6187  0.6901  0.8864
  518MOL0     C69817   1.967   5.226  -0.238 -0.4439  0.5663 -0.4072
  518MOL0     C69818   1.996   5.361  -0.300 -0.3143 -0.1860  0.1605
  518MOL0     O69819   2.131   5.351  -0.352  0.4688  0.2066 -0.1425
  518MOL0     C69820   2.186   5.469  -0.391  0.0199 -0.5485 -0.0033
  518MOL0     C69821   2.130   5.605  -0.369  0.0727  0.4335  0.5047
  518MOL0     C69822   2.195   5.721  -0.416  0.0859 -0.0206 -0.0453
  518MOL0     C69823   2.322   5.699  -0.476  0.2845  0.5970  0.3635
  518MOL0     C69824   2.406   5.802  -0.530  0.4539  0.3546  0.2432
  518MOL0     O69825   2.537   5.800  -0.503  0.9363 -0.0747 -0.3281
  518MOL0     C69826   2.628   5.876  -0.565 -0.0263 -0.4330  0.7036
  518MOL0     C69827   2.714   5.813  -0.662  0.6395 -0.2452 -0.1644
  518MOL0     C69828   2.822   5.885  -0.716 -0.3968 -0.2310  0.0429
  518MOL0     C69829   2.851   6.013  -0.673  0.1841 -0.7333 -0.2352
  518MOL0     O69830   2.962   6.075  -0.723 -0.3338 -0.1546 -0.3018
  518MOL0     C69831   2.980   6.220  -0.718 -0.2849  0.5857 -0.2759
  518MOL0     C69832   3.119   6.263  -0.766  0.0640 -0.7065  0.7835
  518MOL0     C69833   3.221   6.227  -0.656  0.7806  0.0148 -0.1104
  518MOL0     C69834   3.367   6.281  -0.686 -0.2303 -0.1824  0.1410
  518MOL0     C69835   3.398   6.414  -0.628  0.5469 -0.7900  0.6372
  518MOL0     C69836   3.548   6.443  -0.597  0.0815 -0.3267  0.0406
  518MOL0     C69837   3.566   6.594  -0.583 -0.7780 -0.0291 -0.3510
  518MOL0     C69838   3.694   6.631  -0.522 -0.8342  0.7244  1.0624
  518MOL0    Cl69839   3.660   6.700  -0.352 -0.0370 -0.0032 -0.0060
  518MOL0     C69840   2.766   6.077  -0.582 -0.2281  0.6385 -0.2134
  518MOL0     C69841   2.653   6.009  -0.532 -0.3590 -0.5093 -0.3131
  518MOL0     O69842   2.354   5.893  -0.598 -0.7264  0.5018 -0.6188
  518MOL0     C69843   2.386   5.567  -0.478 -0.4799 -0.3439 -0.0628
  518MOL0     C69844   2.316   5.456  -0.430 -0.4443 -0.9709 -0.6671
  518MOL0     N69845   1.762   5.035  -0.400 -0.1122 -0.1126  0.3439
  518MOL0     N69846   1.721   4.914  -0.422 -0.0457  0.5861 -0.3019
  518MOL0     C69847   2.134   4.424   0.069  0.8281 -0.7311  0.5276
  518MOL0     C69848   2.251   4.440   0.144  0.0725 -0.2086 -0.0108
  518MOL0     C69849   2.565   4.487   0.465  0.3191  0.4772  0.2053
  518MOL0     C69850   2.496   4.532   0.580 -0.6989  0.2597 -0.2381
  518MOL0     C69851   2.560   4.590   0.688 -0.1978 -0.3255  0.0840
  518MOL0     C69852   2.700   4.606   0.684 -0.7633  0.5248 -0.0412
  518MOL0     O69853   2.766   4.682   0.781  0.2105 -0.6107  0.5701
  518MOL0     C69854   2.903   4.678   0.789  0.0954  0.8725  0.6080
  518MOL0     C69855   2.958   4.784   0.877  0.2646 -0.1175  0.0800
  518MOL0     C69856   2.930   4.923   0.827  0.2503 -0.2243  0.5355
  518MOL0     C69857   3.013   5.030   0.886  0.0583 -0.1547  0.5124
  518MOL0     C69858   3.156   5.012   0.869 -0.0676 -0.7242 -0.4104
  518MOL0     C69859   3.278   4.993   0.856 -0.2219 -0.8889  0.1676
  518MOL0     C69860   2.763   4.533   0.578  0.4721  0.2541 -0.0878
  518MOL0     C69861   2.700   4.479   0.465 -0.3399  1.0202 -0.9979
  518MOL0     C69862   2.789   4.420   0.351  0.2944  0.2570 -0.2942
  518MOL0     H69863   2.110   4.428   0.450  1.1694 -1.4371 -0.7064
  518MOL0     H69864   1.902   4.385   0.317  0.0397  2.1135  0.5096
  518MOL0     H69865   1.914   4.366  -0.144 -0.8701  1.5325  1.0213
  518MOL0     H69866   1.981   4.224  -0.062 -0.3170 -1.0435  1.3381
  518MOL0     H69867   1.726   4.171   0.002  1.1277 -3.6729 -1.9840
  518MOL0     H69868   1.788   4.143  -0.154  0.4471  1.7579 -1.8307
  518MOL0     H69869   1.580   4.238  -0.174  1.0848 -0.4577 -2.4634
  518MOL0     H69870   1.686   4.365  -0.230  2.0258 -1.3299  0.2086
  518MOL0     H69871   1.559   4.356   0.050  1.0922 -1.2507 -0.5333
  518MOL0     H69872   1.652   4.491  -0.017 -1.2974  1.4413 -0.6086
  518MOL0     H69873   1.369   4.400  -0.107 -0.4039  0.9969  0.9695
  518MOL0     H69874   1.404   4.548  -0.027 -1.5809 -1.0172  0.0383
  518MOL0     H69875   1.523   4.480  -0.307 -0.5283  0.0143  0.0217
  518MOL0     H69876   1.372   4.563  -0.273  1.4857  0.6315 -2.1021
  518MOL0     H69877   1.643   4.676  -0.169  1.0623  0.1720 -3.4931
  518MOL0     H69878   1.477   4.740  -0.138  1.0584 -0.4960  1.4892
  518MOL0     H69879   1.595   4.705  -0.417  0.2190  0.9204 -1.1630
  518MOL0     H69880   1.443   4.781  -0.364 -0.1475  2.0455  2.0272
  518MOL0     H69881   1.542   4.996  -0.167  2.3111  0.8642  1.9625
  518MOL0     H69882   1.726   5.295  -0.324 -2.1104 -0.1580 -0.9848
  518MOL0     H69883   1.628   5.250  -0.185  0.9263  1.5972  0.2853
  518MOL0     H69884   1.844   5.319  -0.088  3.4059 -0.1420  1.8209
  518MOL0     H69885   1.839   5.144  -0.087  0.9661 -1.1656 -1.4455
  518MOL0     H69886   1.948   5.147  -0.311 -2.0829  1.4018 -0.9285
  518MOL0     H69887   2.051   5.194  -0.175  0.0537  0.2313 -1.2296
  518MOL0     H69888   1.993   5.423  -0.210 -2.1762 -2.6065  1.8879
  518MOL0     H69889   1.921   5.388  -0.374 -0.9431  1.4310  1.3245
  518MOL0     H69890   2.040   5.619  -0.311 -0.6114 -0.7302 -0.2280
  518MOL0     H69891   2.159   5.822  -0.396 -2.7628 -0.8484 -0.5830
  518MOL0     H69892   2.686   5.713  -0.693  2.0382 -1.7489  3.0032
  518MOL0     H69893   2.879   5.830  -0.790 -0.1927  1.9289 -1.4898
  518MOL0     H69894   2.903   6.269  -0.778 -1.0437 -0.3629 -0.1019
  518MOL0     H69895   2.954   6.257  -0.618  2.0471  1.5889  0.0304
  518MOL0     H69896   3.147   6.217  -0.861 -2.1948  0.7328 -0.6710
  518MOL0     H69897   3.118   6.371  -0.783  2.3057 -0.3215  2.5661
  518MOL0     H69898   3.190   6.265  -0.558  2.0595 -0.1885  0.4003
  518MOL0     H69899   3.226   6.118  -0.645 -1.0036  0.0368  1.3832
  518MOL0     H69900   3.381   6.285  -0.794 -0.2905 -0.0174  0.1404
  518MOL0     H69901   3.445   6.218  -0.643  0.7480 -1.1887 -2.8806
  518MOL0     H69902   3.330   6.431  -0.545  0.5043  0.8536  0.2873
  518MOL0     H69903   3.371   6.487  -0.705 -0.4909  2.4977  3.8317
  518MOL0     H69904   3.574   6.394  -0.502 -1.2718  0.9765  1.1459
  518MOL0     H69905   3.618   6.408  -0.673  1.4103  0.9886  0.6094
  518MOL0     H69906   3.486   6.655  -0.539 -1.7725  1.0830 -3.4125
  518MOL0     H69907   3.574   6.624  -0.688 -1.3854 -0.2565 -0.4683
  518MOL0     H69908   3.761   6.545  -0.511 -1.1374  0.2359 -0.6639
  518MOL0     H69909   3.739   6.710  -0.583 -0.8287 -1.2725 -1.7266
  518MOL0     H69910   2.782   6.180  -0.554 -0.7712  1.3015 -2.2106
  518MOL0     H69911   2.588   6.070  -0.470 -0.8206 -0.5742 -0.7235
  518MOL0     H69912   2.481   5.553  -0.529  1.0210 -0.9403  2.6676
  518MOL0     H69913   2.350   5.355  -0.446 -1.4337 -1.3920 -0.1580
  518MOL0     H69914   2.133   4.421  -0.039  1.0219 -1.3367  0.5394
  518MOL0     H69915   2.333   4.480   0.086 -1.9575  0.2781 -2.7578
  518MOL0     H69916   2.387   4.541   0.577 -0.8223 -1.1204 -0.4109
  518MOL0     H69917   2.518   4.649   0.769  1.9142  0.7867  0.4688
  518MOL0     H69918   2.951   4.693   0.692 -0.6541 -0.7833 -0.0442
  518MOL0     H69919   2.931   4.578   0.824  0.6198  0.2306 -1.4888
  518MOL0     H69920   3.063   4.765   0.899  0.1342  0.3351  1.2237
  518MOL0     H69921   2.899   4.772   0.969  0.2407 -0.6072  0.0031
  518MOL0     H69922   2.824   4.949   0.842  0.3425  1.7727 -1.7156
  518MOL0     H69923   2.939   4.924   0.718  1.3321 -2.0967  0.5638
  518MOL0     H69924   2.978   5.108   0.818 -0.8934  0.0450  1.2013
  518MOL0     H69925   2.976   5.058   0.985  1.0620 -1.1919  1.2116
  518MOL0     H69926   3.383   4.980   0.875  0.2118  0.5127 -1.0559
  518MOL0     H69927   2.871   4.522   0.579  0.6931  2.0979 -1.0622
  518MOL0     H69928   2.799   4.495   0.272 -1.3602  0.0528 -0.7369
  518MOL0     H69929   2.890   4.394   0.384  1.7465  2.2108 -2.8813
  518MOL0     H69930   2.747   4.322   0.329  3.0923 -0.8173 -1.2868
  519MOL0     O69931   9.336   3.022   5.725  0.2436 -0.1173 -0.7052
  519MOL0     C69932   9.324   2.901   5.723 -0.7695 -0.5685  0.4318
  519MOL0     O69933   9.427   2.811   5.749  0.0495  0.6033 -0.1413
  519MOL0     C69934   9.551   2.853   5.711 -0.1734 -0.4398  0.3977
  519MOL0     C69935   9.655   2.824   5.793 -0.2395  0.1298 -0.3753
  519MOL0     C69936   9.787   2.860   5.759  0.8100 -1.5587  0.3100
  519MOL0     C69937   9.814   2.924   5.631 -0.4451 -0.4152 -0.0997
  519MOL0     O69938   9.939   2.951   5.579  0.1788 -0.6461  0.5518
  519MOL0     C69939  10.010   2.842   5.515  0.3990 -0.0333 -0.1360
  519MOL0     C69940  10.093   2.898   5.408 -0.1483  0.5898 -0.4198
  519MOL0     C69941  10.171   2.789   5.351  0.6344  0.2367  0.4610
  519MOL0     C69942  10.255   2.840   5.237  0.8594 -0.0484  0.2589
  519MOL0     C69943  10.343   2.727   5.186  0.7736  0.4537  0.2491
  519MOL0     C69944  10.448   2.786   5.095 -0.6636 -0.9520 -0.3927
  519MOL0     C69945  10.578   2.704   5.075 -0.2776  0.7813 -0.7443
  519MOL0     C69946  10.696   2.782   5.042 -0.1505  0.5049  0.2010
  519MOL0     N69947  10.816   2.688   5.050 -0.3791 -0.9266  0.6586
  519MOL0     C69948  10.896   2.669   5.158  0.1240  0.2279  0.1584
  519MOL0     C69949  11.005   2.610   5.109 -0.1671  0.2542 -0.0577
  519MOL0     C69950  11.130   2.568   5.180  0.1839 -0.2658 -0.1790
  519MOL0     C69951  11.267   2.620   5.125  0.1448 -0.0471  0.3923
  519MOL0     C69952  11.372   2.606   5.232 -0.4779 -0.7749  1.3665
  519MOL0     C69953  11.491   2.702   5.216  0.1786  0.3229 -0.6260
  519MOL0     O69954  11.594   2.662   5.309  0.3053 -0.3445  0.0086
  519MOL0     C69955  11.682   2.570   5.263 -0.0219 -0.1116  0.3339
  519MOL0     C69956  11.790   2.543   5.354 -0.2402 -0.4685 -0.0322
  519MOL0     C69957  11.902   2.474   5.317  0.0996  0.1393 -0.2088
  519MOL0     C69958  11.907   2.428   5.184 -0.7222 -0.1348  0.1626
  519MOL0     C69959  12.031   2.354   5.145 -0.5075  0.4070  0.2572
  519MOL0     O69960  12.139   2.378   5.212 -0.0226 -0.6543  0.2537
  519MOL0     C69961  12.232   2.276   5.246 -0.9773 -0.2145  0.4157
  519MOL0     C69962  12.211   2.138   5.254  0.2147  0.1618 -0.4638
  519MOL0     C69963  12.307   2.043   5.289 -0.0682 -0.0821  1.1533
  519MOL0     C69964  12.437   2.090   5.312 -0.0556 -0.1980  0.3951
  519MOL0     O69965  12.536   2.005   5.340 -0.0752  0.2268 -0.2325
  519MOL0     C69966  12.512   1.891   5.433 -0.8704  0.1064 -0.6150
  519MOL0     C69967  12.642   1.824   5.472 -0.1048 -0.7634  0.5905
  519MOL0     C69968  12.620   1.678   5.496 -0.8451 -0.5264 -0.5607
  519MOL0     C69969  12.542   1.634   5.619 -0.1105  0.1921  0.1624
  519MOL0     C69970  12.534   1.480   5.635  0.5532 -0.2735 -0.5063
  519MOL0     C69971  12.659   1.407   5.608 -0.5980 -0.0513  0.1661
  519MOL0     C69972  12.784   1.427   5.693 -0.7697 -0.0713 -0.4793
  519MOL0     C69973  12.903   1.413   5.594  0.7745  0.8929 -0.7207
  519MOL0    Cl69974  13.054   1.460   5.674 -0.2829  0.1486  0.3021
  519MOL0     C69975  12.465   2.229   5.297  0.1026 -0.5538  0.7001
  519MOL0     C69976  12.360   2.325   5.281 -0.7049  0.6243 -0.3357
  519MOL0     O69977  12.028   2.278   5.050  0.2465  0.0870  0.2778
  519MOL0     C69978  11.795   2.446   5.091  0.1875  0.8354 -0.7712
  519MOL0     C69979  11.689   2.520   5.139  0.5647 -0.2910 -0.0293
  519MOL0     N69980  10.990   2.593   4.969  0.6531  0.2818 -1.2861
  519MOL0     N69981  10.874   2.638   4.940  0.5092  0.4530 -0.3953
  519MOL0     C69982   9.704   2.951   5.547  0.0872  0.2906  0.5358
  519MOL0     C69983   9.571   2.925   5.590  0.3136  0.1293 -0.3575
  519MOL0     C69984   9.189   2.844   5.718 -0.1875  0.6662 -0.4991
  519MOL0     C69985   9.162   2.742   5.816 -0.8523  1.0489  0.4375
  519MOL0     C69986   9.032   2.688   5.824  0.8186 -0.4646 -0.1731
  519MOL0     C69987   8.935   2.743   5.744  0.3944 -0.2928 -0.4254
  519MOL0     O69988   8.816   2.672   5.740  0.4067 -0.4480 -0.7787
  519MOL0     C69989   8.693   2.710   5.672  0.1914  0.2495  0.2317
  519MOL0     C69990   8.618   2.817   5.749 -0.6410 -0.1420  0.5357
  519MOL0     C69991   8.589   2.764   5.889 -0.4635 -0.0724 -1.5138
  519MOL0     C69992   8.500   2.866   5.958  0.0205  0.4992  0.3022
  519MOL0     C69993   8.452   2.822   6.085 -1.2045  0.0370  0.0824
  519MOL0     C69994   8.399   2.794   6.192 -0.3175 -0.3602 -0.5025
  519MOL0     C69995   8.956   2.847   5.655 -0.2870 -0.1240  0.0339
  519MOL0     C69996   9.085   2.901   5.643  0.5519 -1.2420 -0.5445
  519MOL0     C69997   9.109   3.013   5.541  0.7573  0.0152 -0.5126
  519MOL0     H69998   9.634   2.770   5.885  1.5020  1.1541  0.6726
  519MOL0     H69999   9.872   2.823   5.816  1.3766 -0.3178  0.3150
  519MOL0     H70000  10.068   2.805   5.599 -0.6761  0.6533  0.9331
  519MOL0     H70001   9.936   2.773   5.473  0.4540  0.6174 -1.3665
  519MOL0     H70002  10.154   2.978   5.450  0.1543 -0.3798  1.0593
  519MOL0     H70003  10.030   2.945   5.331 -2.2872 -2.0513 -0.4314
  519MOL0     H70004  10.097   2.714   5.320 -0.3858  1.4186 -0.0542
  519MOL0     H70005  10.235   2.738   5.424 -0.0024 -0.3451  0.6294
  519MOL0     H70006  10.191   2.876   5.156 -1.2346 -0.5809  1.5768
  519MOL0     H70007  10.316   2.923   5.274 -1.2890  0.8300  2.1078
  519MOL0     H70008  10.380   2.686   5.280 -0.3298  0.5828  0.7604
  519MOL0     H70009  10.281   2.645   5.150 -4.4657  2.7703  2.8211
  519MOL0     H70010  10.399   2.808   5.000 -1.3446 -1.4106 -0.1607
  519MOL0     H70011  10.469   2.886   5.135  0.8704 -1.4518  0.1145
  519MOL0     H70012  10.557   2.625   5.002 -0.5968  1.6528 -1.6233
  519MOL0     H70013  10.597   2.664   5.175 -0.8899 -0.0270 -0.9377
  519MOL0     H70014  10.688   2.819   4.939  2.6146  0.1110 -0.2322
  519MOL0     H70015  10.704   2.865   5.113 -1.3459 -0.2012  1.1969
  519MOL0     H70016  10.870   2.687   5.261 -0.0223 -3.2149  0.8353
  519MOL0     H70017  11.114   2.613   5.279 -0.0755  1.0695 -0.7986
  519MOL0     H70018  11.148   2.460   5.183  2.5623  0.0851 -0.3348
  519MOL0     H70019  11.293   2.569   5.031  1.9041  1.6990 -0.1300
  519MOL0     H70020  11.256   2.723   5.092 -0.8999 -0.6407 -1.2409
  519MOL0     H70021  11.417   2.506   5.225  1.0212 -0.0520 -0.1099
  519MOL0     H70022  11.326   2.630   5.328 -0.8257  2.2604  0.5454
  519MOL0     H70023  11.442   2.797   5.240  1.1009  0.6723 -0.1064
  519MOL0     H70024  11.526   2.708   5.113  1.3901 -4.2070 -0.7056
  519MOL0     H70025  11.790   2.580   5.456  2.4393  0.7184 -0.3901
  519MOL0     H70026  11.981   2.466   5.392  0.0652  2.1678  0.0830
  519MOL0     H70027  12.111   2.102   5.230  0.7956 -3.0821  1.3045
  519MOL0     H70028  12.293   1.935   5.285  2.4757 -0.4761 -2.5272
  519MOL0     H70029  12.467   1.937   5.521 -1.8534 -2.6148  0.3882
  519MOL0     H70030  12.438   1.820   5.395  0.7005 -0.8136 -2.0881
  519MOL0     H70031  12.707   1.831   5.385 -0.0265  0.9492  0.7607
  519MOL0     H70032  12.685   1.876   5.558  1.6777  0.1991 -0.8369
  519MOL0     H70033  12.572   1.644   5.403  0.0822 -1.8707 -0.5711
  519MOL0     H70034  12.719   1.633   5.507  0.8776  2.7706 -1.3673
  519MOL0     H70035  12.439   1.664   5.599 -0.1549 -0.7252 -1.0867
  519MOL0     H70036  12.575   1.691   5.706  0.5620  1.2296 -0.7381
  519MOL0     H70037  12.459   1.445   5.564  0.8927  0.0546 -1.0340
  519MOL0     H70038  12.504   1.468   5.740 -0.1366  1.4733 -0.4685
  519MOL0     H70039  12.628   1.302   5.605  0.0469 -0.2548  0.3853
  519MOL0     H70040  12.683   1.427   5.503 -1.1739  3.6316  0.6174
  519MOL0     H70041  12.795   1.349   5.770  1.7744 -0.4161 -1.1088
  519MOL0     H70042  12.789   1.526   5.738 -1.2957 -0.1587 -0.2109
  519MOL0     H70043  12.918   1.310   5.561 -0.6339  0.8296 -1.2558
  519MOL0     H70044  12.892   1.462   5.497 -0.8216  2.7275  0.3167
  519MOL0     H70045  12.568   2.263   5.297  0.2292 -0.8889 -0.4599
  519MOL0     H70046  12.386   2.431   5.277  3.5929 -0.0173  3.0326
  519MOL0     H70047  11.792   2.403   4.992  0.0520  0.9474 -0.8159
  519MOL0     H70048  11.611   2.545   5.068 -1.5993  0.8359  2.5887
  519MOL0     H70049   9.724   3.003   5.454 -0.9141  1.5860  1.0109
  519MOL0     H70050   9.492   2.940   5.518  1.3688  1.0906 -1.3549
  519MOL0     H70051   9.244   2.697   5.870  1.1312  1.0016 -2.4196
  519MOL0     H70052   9.025   2.616   5.905 -0.5217  0.0109  0.1579
  519MOL0     H70053   8.628   2.624   5.654  1.3473 -0.4780 -0.6774
  519MOL0     H70054   8.722   2.756   5.577  0.3537  4.1885  2.0022
  519MOL0     H70055   8.530   2.846   5.692  0.9677  1.9713 -0.9845
  519MOL0     H70056   8.681   2.905   5.759 -2.1937  0.7978  3.0021
  519MOL0     H70057   8.680   2.743   5.945 -0.2960  1.9317 -0.9824
  519MOL0     H70058   8.544   2.665   5.876  0.6133 -1.5824  3.7700
  519MOL0     H70059   8.545   2.966   5.959  3.5896 -0.6616 -4.7162
  519MOL0     H70060   8.413   2.885   5.895  0.7135 -0.7453 -1.0711
  519MOL0     H70061   8.337   2.768   6.275  0.0535  1.7703  0.5151
  519MOL0     H70062   8.873   2.892   5.602  0.2304  1.0103  0.1539
  519MOL0     H70063   9.033   3.024   5.463  0.9398 -1.5329 -0.9387
  519MOL0     H70064   9.126   3.110   5.589  1.5905  0.0592 -0.8769
  519MOL0     H70065   9.200   2.999   5.481  0.8560  3.0628 -1.2854
  520MOL0     O70066   6.372   5.729  10.004 -0.0774 -0.6180  0.1245
  520MOL0     C70067   6.268   5.694   9.947  1.0856 -0.4021 -0.0029
  520MOL0     O70068   6.242   5.678   9.811 -0.8598 -0.4641 -0.2271
  520MOL0     C70069   6.350   5.691   9.722  0.3614 -0.0375  0.0453
  520MOL0     C70070   6.417   5.819   9.699  0.4803  0.1218  0.7656
  520MOL0     C70071   6.508   5.826   9.596  0.3090 -0.0005  1.0050
  520MOL0     C70072   6.559   5.713   9.525  0.0834 -0.3273 -0.1257
  520MOL0     O70073   6.641   5.719   9.414  0.1167 -0.5094 -0.2844
  520MOL0     C70074   6.701   5.599   9.363  0.7528  0.0719 -0.5241
  520MOL0     C70075   6.814   5.636   9.274 -0.1888 -0.3211  0.3935
  520MOL0     C70076   6.915   5.700   9.366 -0.2047  0.4564  0.0263
  520MOL0     C70077   7.035   5.736   9.283  1.2675  0.5752 -0.9694
  520MOL0     C70078   7.114   5.857   9.348 -0.3300  0.8756 -0.3125
  520MOL0     C70079   7.228   5.902   9.262 -0.5359  0.5373  0.2678
  520MOL0     C70080   7.327   5.976   9.362 -1.1605  0.8851  0.7271
  520MOL0     C70081   7.417   6.075   9.297  0.0847 -0.2264 -0.1860
  520MOL0     N70082   7.543   6.112   9.372 -0.5848 -0.1008  0.5754
  520MOL0     C70083   7.637   6.016   9.403  0.3420  0.2863 -0.2916
  520MOL0     C70084   7.745   6.093   9.438 -0.1196 -1.3035  1.3327
  520MOL0     C70085   7.881   6.053   9.469  0.1401  1.0939 -0.7786
  520MOL0     C70086   7.994   6.165   9.477  0.2269  0.0157  1.0938
  520MOL0     C70087   8.127   6.101   9.467 -0.8478  0.4020  0.5020
  520MOL0     C70088   8.236   6.205   9.437 -0.3415 -0.1932  0.0072
  520MOL0     O70089   8.367   6.138   9.432 -0.2915  0.4930  0.1812
  520MOL0     C70090   8.444   6.155   9.544 -0.4371  0.5826  0.0780
  520MOL0     C70091   8.416   6.081   9.656  0.0156 -0.0431  0.0971
  520MOL0     C70092   8.485   6.098   9.773  0.7221 -0.6031 -0.8400
  520MOL0     C70093   8.578   6.201   9.787  0.1457  0.2060  0.4599
  520MOL0     C70094   8.655   6.211   9.910  0.3353  0.1307  0.3788
  520MOL0     O70095   8.766   6.282   9.908  0.0704  0.4704 -0.6999
  520MOL0     C70096   8.865   6.278  10.005  0.4992  0.0217  0.0798
  520MOL0     C70097   8.863   6.197  10.115  0.5333  0.1303 -0.3479
  520MOL0     C70098   8.965   6.194  10.206 -0.3653 -0.5174 -0.4252
  520MOL0     C70099   9.075   6.273  10.193  0.3997  0.1513 -0.3839
  520MOL0     O70100   9.186   6.279  10.270 -1.2965 -0.6794  0.0356
  520MOL0     C70101   9.242   6.158  10.315 -0.3956 -0.5575 -0.0513
  520MOL0     C70102   9.285   6.191  10.462 -0.3578 -0.2213  0.6540
  520MOL0     C70103   9.425   6.253  10.454 -0.8612 -0.2919 -0.3969
  520MOL0     C70104   9.492   6.267  10.590 -0.6686 -0.5472  0.4635
  520MOL0     C70105   9.623   6.339  10.591  0.1812  0.8147 -0.1977
  520MOL0     C70106   9.728   6.299  10.489 -0.5467 -0.5299 -0.6242
  520MOL0     C70107   9.855   6.387  10.497 -0.0828  0.3518  0.2751
  520MOL0     C70108   9.834   6.533  10.452 -0.0974  0.4096 -0.2984
  520MOL0    Cl70109   9.973   6.636  10.520  0.4573 -0.2349 -0.1214
  520MOL0     C70110   9.077   6.363  10.081  0.0050  0.4595 -0.1280
  520MOL0     C70111   8.976   6.357   9.981 -0.5852 -0.4675  0.1008
  520MOL0     O70112   8.610   6.141  10.003 -0.5147 -1.1540 -0.3911
  520MOL0     C70113   8.605   6.281   9.679  0.3544  0.2943  0.5401
  520MOL0     C70114   8.540   6.259   9.555 -0.4079 -0.1182 -0.1481
  520MOL0     N70115   7.708   6.229   9.449 -0.4873 -0.0839  0.4874
  520MOL0     N70116   7.586   6.235   9.405  0.3311 -0.9750  0.2212
  520MOL0     C70117   6.499   5.593   9.558 -0.2764  0.5252  0.1603
  520MOL0     C70118   6.392   5.581   9.645  0.2637 -0.2540  0.0809
  520MOL0     C70119   6.150   5.656  10.031  0.3767 -0.5865 -0.7631
  520MOL0     C70120   6.020   5.650   9.978  0.0158  0.0442  0.1463
  520MOL0     C70121   5.908   5.639  10.060 -0.1804  0.5195 -0.7380
  520MOL0     C70122   5.928   5.627  10.190 -0.3029  0.4831 -0.3309
  520MOL0     O70123   5.811   5.636  10.256 -0.1043 -0.2963 -0.2752
  520MOL0     C70124   5.804   5.646  10.401  0.3606 -1.2955 -0.0348
  520MOL0     C70125   5.657   5.629  10.441 -0.3055 -0.7028  0.4349
  520MOL0     C70126   5.569   5.757  10.406 -0.5048  0.1576  0.6386
  520MOL0     C70127   5.416   5.716  10.413  0.0357  0.0178  0.0148
  520MOL0     C70128   5.345   5.842  10.397 -0.1674  1.0734  0.0690
  520MOL0     C70129   5.280   5.944  10.376  0.3143 -1.1009 -0.4009
  520MOL0     C70130   6.050   5.615  10.247 -0.4390 -0.0740 -0.1803
  520MOL0     C70131   6.162   5.635  10.174 -0.8100 -0.0078 -0.4430
  520MOL0     C70132   6.290   5.623  10.250 -0.5730 -0.4084  0.4676
  520MOL0     H70133   6.384   5.906   9.755 -1.1328 -0.1449  0.2788
  520MOL0     H70134   6.541   5.923   9.561  1.6081 -1.2607 -1.5010
  520MOL0     H70135   6.734   5.533   9.443  1.6811  0.4400 -0.5792
  520MOL0     H70136   6.628   5.555   9.295  0.9384 -0.0766 -0.6276
  520MOL0     H70137   6.775   5.695   9.191 -1.7656  0.1941  1.4588
  520MOL0     H70138   6.845   5.540   9.230 -0.8519 -1.9114  3.1226
  520MOL0     H70139   6.948   5.638   9.450 -2.2167  1.9106  2.0082
  520MOL0     H70140   6.882   5.793   9.414 -0.6850  0.2938  0.0150
  520MOL0     H70141   7.096   5.645   9.281 -1.1722 -1.1738 -2.8442
  520MOL0     H70142   7.006   5.771   9.183 -0.8517  0.6554 -0.3798
  520MOL0     H70143   7.050   5.943   9.371 -1.8527 -0.1883 -0.4027
  520MOL0     H70144   7.144   5.817   9.445  0.4759 -1.2997 -1.3811
  520MOL0     H70145   7.280   5.815   9.222 -0.1724 -0.1172  2.0751
  520MOL0     H70146   7.201   5.977   9.186  2.4427  1.2430 -0.2099
  520MOL0     H70147   7.392   5.900   9.407  0.6151  1.4873 -0.7324
  520MOL0     H70148   7.267   6.023   9.441  1.2569  0.2125  3.1538
  520MOL0     H70149   7.452   6.032   9.203  0.4528 -2.5084  0.9218
  520MOL0     H70150   7.355   6.161   9.269 -0.7268 -0.2438  1.4512
  520MOL0     H70151   7.624   5.909   9.389  3.2441 -0.6860  2.9418
  520MOL0     H70152   7.878   5.996   9.563  0.5317  1.3090 -0.6349
  520MOL0     H70153   7.903   5.985   9.386  1.5547 -0.1944  0.5826
  520MOL0     H70154   7.984   6.235   9.393 -1.7468 -3.7905 -2.2064
  520MOL0     H70155   7.995   6.209   9.577 -3.1846  0.0001  1.2602
  520MOL0     H70156   8.134   6.023   9.392 -0.9606  0.3498  0.5445
  520MOL0     H70157   8.143   6.058   9.567  1.2233  0.7122  0.3420
  520MOL0     H70158   8.229   6.288   9.508  1.9292  0.7704 -0.7728
  520MOL0     H70159   8.225   6.245   9.335 -2.4417 -0.9118 -0.0914
  520MOL0     H70160   8.340   6.004   9.647 -1.1817  1.2257 -1.3341
  520MOL0     H70161   8.453   6.046   9.863  0.7133 -4.1818 -2.6865
  520MOL0     H70162   8.779   6.131  10.134 -0.0773  1.1067  0.4844
  520MOL0     H70163   8.959   6.111  10.276 -2.8298 -0.9408 -1.0268
  520MOL0     H70164   9.175   6.072  10.322 -2.9732  0.7773 -4.5526
  520MOL0     H70165   9.328   6.138  10.251  0.2518  1.4590  0.1270
  520MOL0     H70166   9.209   6.250  10.514 -0.6498 -1.4765  1.7156
  520MOL0     H70167   9.292   6.103  10.527 -4.8343  1.7430  4.3691
  520MOL0     H70168   9.491   6.179  10.407 -0.5867 -1.2051  1.3566
  520MOL0     H70169   9.427   6.350  10.403 -1.2007  0.5909  1.2141
  520MOL0     H70170   9.496   6.167  10.633 -0.2406 -0.0269  1.6967
  520MOL0     H70171   9.437   6.321  10.668 -0.8638 -1.0986  0.7109
  520MOL0     H70172   9.670   6.328  10.689 -0.5908 -1.6093 -0.0221
  520MOL0     H70173   9.592   6.443  10.577 -1.8600  0.5090  1.4657
  520MOL0     H70174   9.755   6.194  10.499  2.1785  0.2114  1.0930
  520MOL0     H70175   9.690   6.313  10.387 -3.6379  4.0959  0.8193
  520MOL0     H70176   9.929   6.343  10.429 -0.5152  1.1052 -0.7186
  520MOL0     H70177   9.895   6.385  10.598  1.3784  1.0742 -0.2627
  520MOL0     H70178   9.824   6.546  10.344  1.4217 -3.0853 -1.0009
  520MOL0     H70179   9.746   6.573  10.503  1.2492 -0.7465  3.2713
  520MOL0     H70180   9.161   6.432  10.075 -0.9816  1.5780 -2.5816
  520MOL0     H70181   8.989   6.403   9.883 -1.4980 -2.5916 -1.0849
  520MOL0     H70182   8.675   6.364   9.678  0.2044  0.4229 -0.3012
  520MOL0     H70183   8.566   6.333   9.479 -2.9918  3.2298  1.9346
  520MOL0     H70184   6.527   5.501   9.507 -1.9495 -1.2201  2.1812
  520MOL0     H70185   6.339   5.486   9.653 -1.3831  0.2156 -3.3158
  520MOL0     H70186   6.004   5.654   9.871  0.0093  0.6869  0.1657
  520MOL0     H70187   5.811   5.639  10.011  0.8409  2.4842 -2.9341
  520MOL0     H70188   5.845   5.742  10.431 -3.1840  1.6674 -3.5066
  520MOL0     H70189   5.849   5.556  10.442  0.1328 -1.7394 -0.7347
  520MOL0     H70190   5.645   5.617  10.549  1.7500  0.0467  0.7932
  520MOL0     H70191   5.602   5.545  10.396 -0.3852 -0.1190 -0.5721
  520MOL0     H70192   5.596   5.811  10.315  0.3133 -0.2081  0.6568
  520MOL0     H70193   5.590   5.830  10.484 -1.2763 -0.2736  1.2652
  520MOL0     H70194   5.390   5.645  10.334  1.3997  0.6227 -1.0242
  520MOL0     H70195   5.379   5.671  10.505 -2.4791 -1.2108 -1.4570
  520MOL0     H70196   5.227   6.035  10.357 -0.0103 -1.1182  0.3820
  520MOL0     H70197   6.057   5.605  10.355 -0.5018  2.6733  0.1577
  520MOL0     H70198   6.329   5.725  10.258 -3.1704  0.9715 -2.3071
  520MOL0     H70199   6.286   5.584  10.352 -1.1064 -0.2307  0.5196
  520MOL0     H70200   6.358   5.551  10.202  0.1178  1.1124 -0.9426
  521MOL0     O70201   5.067   9.641   7.964  0.3790 -0.2043  0.7839
  521MOL0     C70202   4.999   9.694   8.053  0.1992 -0.8336  0.5485
  521MOL0     O70203   4.872   9.660   8.088  0.1529  0.0243  0.1249
  521MOL0     C70204   4.800   9.549   8.037  0.4402  0.5345  0.0549
  521MOL0     C70205   4.668   9.532   8.073  0.1864  0.5609 -0.6071
  521MOL0     C70206   4.595   9.416   8.033 -0.4503 -0.1484  0.9545
  521MOL0     C70207   4.659   9.315   7.948 -0.9215 -0.5770 -0.2982
  521MOL0     O70208   4.587   9.200   7.912  0.4578  0.3324 -1.4635
  521MOL0     C70209   4.474   9.158   7.994  0.7448 -0.1441  1.0758
  521MOL0     C70210   4.458   9.011   7.955 -0.3874 -0.6639 -0.1002
  521MOL0     C70211   4.426   8.998   7.805  0.0332 -0.1786  0.5897
  521MOL0     C70212   4.503   8.871   7.740  0.0689 -0.3630 -0.5470
  521MOL0     C70213   4.432   8.820   7.616 -1.2828 -0.5469  1.4052
  521MOL0     C70214   4.498   8.692   7.578  0.4712 -0.4990  0.2952
  521MOL0     C70215   4.439   8.646   7.444  0.3914  0.3114  0.8697
  521MOL0     C70216   4.472   8.501   7.401 -0.2279  0.0898  0.4549
  521MOL0     N70217   4.608   8.450   7.405  0.6831 -0.2653 -0.7415
  521MOL0     C70218   4.715   8.524   7.371 -0.1233 -0.3606  0.0392
  521MOL0     C70219   4.824   8.465   7.417  0.1467 -0.5377  0.0254
  521MOL0     C70220   4.971   8.507   7.406  0.5163 -0.1306  0.1455
  521MOL0     C70221   5.032   8.452   7.271  1.8677 -1.7613 -0.4455
  521MOL0     C70222   5.183   8.485   7.255  0.2251 -0.5441 -0.0669
  521MOL0     C70223   5.249   8.449   7.118  0.4550 -0.4601  0.5630
  521MOL0     O70224   5.277   8.309   7.108  0.1692 -0.0093  0.5057
  521MOL0     C70225   5.410   8.272   7.138  0.0621 -0.0587 -0.2731
  521MOL0     C70226   5.513   8.349   7.217  0.1085  0.5095 -0.4613
  521MOL0     C70227   5.639   8.292   7.229 -0.2682  0.1436  0.2597
  521MOL0     C70228   5.680   8.169   7.176  0.2721 -0.4483 -1.0195
  521MOL0     C70229   5.821   8.119   7.198 -0.4428  0.0903  0.6449
  521MOL0     O70230   5.912   8.197   7.260 -0.2599 -0.3756  0.1086
  521MOL0     C70231   6.041   8.157   7.276  0.5643  0.2769  0.3223
  521MOL0     C70232   6.080   8.028   7.316  0.0670  0.4985 -0.7814
  521MOL0     C70233   6.212   7.991   7.332  0.2065 -0.4610  0.4187
  521MOL0     C70234   6.311   8.076   7.298 -0.0457 -1.0349 -0.7164
  521MOL0     O70235   6.441   8.053   7.311 -0.3821 -0.2464 -0.5443
  521MOL0     C70236   6.480   7.915   7.329  0.3576 -0.3489  0.3290
  521MOL0     C70237   6.630   7.920   7.319 -0.6354  0.0476 -0.0517
  521MOL0     C70238   6.667   7.919   7.170  0.1598  0.4350  0.8743
  521MOL0     C70239   6.821   7.928   7.147  0.7460  0.4024 -0.0196
  521MOL0     C70240   6.847   7.904   6.993 -0.2238 -0.2115 -0.8437
  521MOL0     C70241   6.991   7.908   6.950 -0.3573 -0.3556 -0.6385
  521MOL0     C70242   7.021   7.883   6.802  0.4643 -0.4111 -0.2333
  521MOL0     C70243   7.166   7.873   6.766 -0.0837 -0.1863  0.0764
  521MOL0    Cl70244   7.236   8.040   6.776 -0.1759  0.9749 -0.3543
  521MOL0     C70245   6.272   8.204   7.251  0.6913  0.6781  0.4473
  521MOL0     C70246   6.142   8.246   7.251 -0.2703  0.2473 -0.0893
  521MOL0     O70247   5.848   8.007   7.150 -0.7608  0.3231  0.1427
  521MOL0     C70248   5.583   8.094   7.110 -0.7719 -0.2421  0.1080
  521MOL0     C70249   5.452   8.148   7.094 -0.1989 -0.0650  0.1444
  521MOL0     N70250   4.772   8.346   7.489 -0.2383 -0.0024  1.4456
  521MOL0     N70251   4.645   8.338   7.470 -0.3249 -0.4730  0.0262
  521MOL0     C70252   4.783   9.338   7.902 -0.6134 -0.4880  0.5460
  521MOL0     C70253   4.852   9.454   7.940  0.1199 -0.5978  0.7072
  521MOL0     C70254   5.056   9.814   8.110 -0.1875 -0.3337 -0.1338
  521MOL0     C70255   5.190   9.812   8.158 -0.1269  0.2331 -0.4837
  521MOL0     C70256   5.252   9.921   8.215  0.2959  0.2518  0.0940
  521MOL0     C70257   5.179  10.033   8.239  0.3111 -0.1567  0.1765
  521MOL0     O70258   5.243  10.134   8.305  0.2528  0.1016 -1.0690
  521MOL0     C70259   5.168  10.229   8.391 -0.3447  0.7478  0.1772
  521MOL0     C70260   5.140  10.347   8.301 -1.0817 -0.1938 -0.5239
  521MOL0     C70261   5.076  10.470   8.368 -0.7317  0.7309  0.3737
  521MOL0     C70262   4.953  10.433   8.448  0.6861  1.2009 -0.3489
  521MOL0     C70263   4.861  10.347   8.374  0.2982  0.1522  0.5294
  521MOL0     C70264   4.779  10.272   8.329 -0.4177 -0.0723  0.0060
  521MOL0     C70265   5.038  10.035   8.206 -0.5394  0.2308 -0.5608
  521MOL0     C70266   4.982   9.932   8.129 -0.6843 -0.7046 -0.4450
  521MOL0     C70267   4.842   9.954   8.080 -0.0645 -0.7860 -0.1819
  521MOL0     H70268   4.622   9.602   8.141  3.3087  0.3919  1.9123
  521MOL0     H70269   4.498   9.404   8.081  0.2594 -1.6898  2.0718
  521MOL0     H70270   4.476   9.173   8.103 -1.7631  1.8678  0.9545
  521MOL0     H70271   4.383   9.213   7.968  0.4821  0.3603  2.9029
  521MOL0     H70272   4.372   8.978   8.014 -0.8341  2.0309  0.8635
  521MOL0     H70273   4.549   8.960   7.990  0.0337  0.5401  0.6351
  521MOL0     H70274   4.472   9.085   7.758 -0.9817 -0.1496 -0.3859
  521MOL0     H70275   4.321   9.005   7.778 -0.2901 -0.7629  1.6462
  521MOL0     H70276   4.609   8.891   7.718  0.4269 -1.9453 -0.3711
  521MOL0     H70277   4.487   8.783   7.802  0.9249 -1.6472 -2.0755
  521MOL0     H70278   4.325   8.811   7.638 -1.9882 -0.2477 -1.5701
  521MOL0     H70279   4.451   8.878   7.526  1.2792  0.5408  2.5494
  521MOL0     H70280   4.605   8.710   7.564  0.3191 -0.1033 -0.4257
  521MOL0     H70281   4.489   8.617   7.658 -0.1284  0.9762  1.6545
  521MOL0     H70282   4.460   8.724   7.370 -1.1512  0.5848  0.6762
  521MOL0     H70283   4.330   8.647   7.457  0.1752 -0.5474 -0.6139
  521MOL0     H70284   4.427   8.425   7.465 -0.3011  0.5896  1.0019
  521MOL0     H70285   4.443   8.487   7.296  0.9279 -1.3035  0.2878
  521MOL0     H70286   4.726   8.613   7.310  0.9421 -1.9967 -2.2991
  521MOL0     H70287   4.976   8.615   7.422  5.9053  0.0129 -0.6671
  521MOL0     H70288   5.032   8.463   7.485  0.8884 -1.1614 -0.6839
  521MOL0     H70289   5.012   8.345   7.274 -1.2509 -1.3010 -1.5583
  521MOL0     H70290   4.971   8.507   7.199  2.7464 -1.8893 -1.3142
  521MOL0     H70291   5.235   8.434   7.338 -0.7178 -1.5198 -0.0571
  521MOL0     H70292   5.179   8.593   7.268 -0.3152 -0.6103  0.3845
  521MOL0     H70293   5.335   8.517   7.118 -0.8585  1.3083 -1.1282
  521MOL0     H70294   5.179   8.477   7.039 -0.1381 -2.6310  0.2435
  521MOL0     H70295   5.482   8.444   7.259 -0.2411  0.4936 -0.6807
  521MOL0     H70296   5.705   8.361   7.281 -1.2703 -0.1614  2.0197
  521MOL0     H70297   6.000   7.959   7.340  0.0384  1.3169  1.7196
  521MOL0     H70298   6.231   7.894   7.378  0.0098 -0.0548  1.3856
  521MOL0     H70299   6.445   7.870   7.422 -1.6842  1.4268  0.5157
  521MOL0     H70300   6.438   7.845   7.256 -0.6634 -1.0355  1.5389
  521MOL0     H70301   6.678   8.006   7.367 -0.2226  0.4396 -1.1354
  521MOL0     H70302   6.673   7.828   7.359 -0.0170 -0.2138 -1.2536
  521MOL0     H70303   6.616   7.833   7.126 -3.3159  3.2260 -1.0896
  521MOL0     H70304   6.620   8.006   7.123 -0.2119  0.6007  1.5359
  521MOL0     H70305   6.881   7.856   7.202  2.4317  0.7321 -1.3449
  521MOL0     H70306   6.863   8.023   7.181  2.9684 -0.3849 -0.4062
  521MOL0     H70307   6.790   7.980   6.937  1.7237  0.7066 -1.6984
  521MOL0     H70308   6.799   7.810   6.964 -0.8241  0.2205 -1.2787
  521MOL0     H70309   7.042   8.002   6.975 -2.1492  0.3005  0.8080
  521MOL0     H70310   7.028   7.824   7.010  0.1423  0.0138 -0.4230
  521MOL0     H70311   6.965   7.957   6.744 -1.8867 -0.7169  1.4953
  521MOL0     H70312   6.964   7.793   6.779 -1.8469  0.2221  2.4114
  521MOL0     H70313   7.206   7.808   6.844 -0.7075 -0.9407 -0.2165
  521MOL0     H70314   7.183   7.826   6.668 -0.2320  0.1535 -0.1166
  521MOL0     H70315   6.358   8.263   7.223  0.9116 -0.3154 -1.0829
  521MOL0     H70316   6.112   8.345   7.217  1.2343  0.9674  0.5463
  521MOL0     H70317   5.621   7.998   7.075 -0.2156  0.2254 -0.5819
  521MOL0     H70318   5.387   8.073   7.050 -1.6455  0.6492  0.9934
  521MOL0     H70319   4.827   9.269   7.831  0.3281  1.1825 -0.5512
  521MOL0     H70320   4.947   9.469   7.888  1.4351 -1.1419  2.8156
  521MOL0     H70321   5.238   9.715   8.153  0.4029  0.4819 -0.3066
  521MOL0     H70322   5.354   9.900   8.245 -0.8949 -2.3059  2.9777
  521MOL0     H70323   5.232  10.253   8.476 -1.9971  1.6135  1.2344
  521MOL0     H70324   5.078  10.177   8.426  0.4567 -0.8901 -0.1217
  521MOL0     H70325   5.080  10.314   8.216  0.5528 -1.7886 -1.1213
  521MOL0     H70326   5.237  10.375   8.257 -0.1899 -1.3663  0.6093
  521MOL0     H70327   5.041  10.532   8.285 -1.7962  0.2864  0.4663
  521MOL0     H70328   5.142  10.520   8.439  0.1520 -0.3813  0.3625
  521MOL0     H70329   4.989  10.382   8.538  1.7206  2.0280 -0.2813
  521MOL0     H70330   4.892  10.522   8.467 -3.3982 -1.3222 -0.3675
  521MOL0     H70331   4.701  10.212   8.286 -0.6807 -1.0661  1.7880
  521MOL0     H70332   4.984  10.124   8.240  0.0832  0.7480 -0.9004
  521MOL0     H70333   4.778   9.880   8.128 -0.5149  0.6310  1.4991
  521MOL0     H70334   4.804  10.054   8.103  2.4523  0.2014  0.0737
  521MOL0     H70335   4.844   9.939   7.971 -0.5310 -1.5946 -0.0871
  522MOL0     O70336   0.820   5.190  10.030 -0.3388 -0.5386  0.3211
  522MOL0     C70337   0.850   5.111   9.940 -1.3372 -0.9216  0.9065
  522MOL0     O70338   0.788   5.002   9.897 -0.3575 -0.3502 -0.3551
  522MOL0     C70339   0.654   4.993   9.935  0.7900  0.2941  0.2050
  522MOL0     C70340   0.553   5.004   9.836  0.0486 -0.2372 -0.5152
  522MOL0     C70341   0.415   5.001   9.862  0.8442 -0.5485  0.1134
  522MOL0     C70342   0.374   4.991   9.996  0.9374 -0.0100  0.4139
  522MOL0     O70343   0.242   4.995  10.036  0.0430  0.3069  1.1562
  522MOL0     C70344   0.167   4.895   9.966  1.0094 -0.9562  0.0842
  522MOL0     C70345   0.031   4.881  10.034 -0.6326  0.0752  0.4168
  522MOL0     C70346  -0.072   4.807   9.951  0.2098  0.3207  0.8095
  522MOL0     C70347  -0.197   4.769  10.032  0.9773 -0.2459  0.3865
  522MOL0     C70348  -0.335   4.745   9.960 -1.4209  0.1538 -0.8361
  522MOL0     C70349  -0.436   4.680  10.060  0.3198 -0.4795  0.0407
  522MOL0     C70350  -0.560   4.631   9.994  0.5539 -0.0021  0.1913
  522MOL0     C70351  -0.652   4.544  10.081  0.6120  0.1530  0.8381
  522MOL0     N70352  -0.740   4.449  10.009 -0.2238 -0.0428 -0.8688
  522MOL0     C70353  -0.810   4.340  10.063 -0.3464 -1.2662  0.4367
  522MOL0     C70354  -0.880   4.285   9.962 -0.0801 -0.4086  0.1366
  522MOL0     C70355  -0.993   4.197   9.980  0.2599 -0.9720  0.6674
  522MOL0     C70356  -0.967   4.067  10.046  1.1826  0.8415 -0.0534
  522MOL0     C70357  -0.844   3.976   9.989  1.0674  0.2654  0.5245
  522MOL0     C70358  -0.844   3.963   9.836  1.0435  0.0966 -0.7615
  522MOL0     O70359  -0.976   3.945   9.783  0.0494 -0.3363  0.1602
  522MOL0     C70360  -1.032   3.823   9.803  0.8443 -0.3079 -0.0230
  522MOL0     C70361  -1.173   3.825   9.804 -0.2200 -0.2915 -0.2186
  522MOL0     C70362  -1.246   3.697   9.816  0.1110  0.4416 -0.0062
  522MOL0     C70363  -1.182   3.574   9.824 -0.0118  0.0860 -0.8374
  522MOL0     C70364  -1.250   3.443   9.835  0.0423 -0.0512 -0.6749
  522MOL0     O70365  -1.171   3.338   9.860 -0.4854  0.2909  0.5089
  522MOL0     C70366  -1.229   3.217   9.887 -0.4486  0.0961 -0.2573
  522MOL0     C70367  -1.333   3.198   9.986 -0.2498  0.7750  0.4647
  522MOL0     C70368  -1.345   3.062  10.029  0.4786 -0.6193 -0.6512
  522MOL0     C70369  -1.275   2.956   9.968 -0.9342 -0.3183  0.3112
  522MOL0     O70370  -1.281   2.828  10.009  0.3733  0.3893 -0.2985
  522MOL0     C70371  -1.307   2.799  10.151  0.0936 -0.2195  0.3515
  522MOL0     C70372  -1.186   2.842  10.250 -0.4930 -0.0940  0.4999
  522MOL0     C70373  -1.057   2.756  10.231  0.9111  0.2511 -1.9178
  522MOL0     C70374  -0.967   2.756  10.361  0.0036 -0.1661 -0.3643
  522MOL0     C70375  -0.822   2.704  10.337  0.0501 -0.5521  0.1957
  522MOL0     C70376  -0.822   2.565  10.280 -0.4838 -0.2736  0.2139
  522MOL0     C70377  -0.698   2.489  10.323  0.2940 -0.1118 -0.1841
  522MOL0     C70378  -0.688   2.351  10.267  0.4506 -1.0028  0.2608
  522MOL0    Cl70379  -0.684   2.362  10.087 -0.3398  0.2147  0.2582
  522MOL0     C70380  -1.193   2.975   9.859  0.3847 -0.8683  0.1231
  522MOL0     C70381  -1.175   3.111   9.820 -0.1294  0.6200 -0.4438
  522MOL0     O70382  -1.370   3.440   9.823 -0.3989 -0.0447  0.6035
  522MOL0     C70383  -1.035   3.578   9.810  0.9686  0.3691 -0.3212
  522MOL0     C70384  -0.966   3.698   9.811 -0.2196 -0.3306 -0.0245
  522MOL0     N70385  -0.852   4.354   9.843 -0.3788  0.0994 -0.1117
  522MOL0     N70386  -0.760   4.446   9.867 -0.6694  0.5599  0.2528
  522MOL0     C70387   0.471   4.965  10.094  1.0843 -1.1761  0.6011
  522MOL0     C70388   0.609   4.962  10.060 -0.4208 -0.0847 -0.3299
  522MOL0     C70389   0.992   5.121   9.882 -0.5757  0.4638  0.0912
  522MOL0     C70390   1.094   5.155   9.968 -0.1791  0.1189  0.8422
  522MOL0     C70391   1.223   5.157   9.910 -0.3589  0.0660  0.8318
  522MOL0     C70392   1.253   5.121   9.779 -0.2049  0.4174  0.7621
  522MOL0     O70393   1.378   5.097   9.721 -0.3742 -0.5837  0.0817
  522MOL0     C70394   1.494   5.125   9.799  0.3214  0.1029 -0.4288
  522MOL0     C70395   1.615   5.094   9.708 -0.1511 -0.4694 -0.1329
  522MOL0     C70396   1.743   5.151   9.771  0.7190 -1.1355  0.2840
  522MOL0     C70397   1.863   5.137   9.676 -0.3956 -0.7279  0.0977
  522MOL0     C70398   1.989   5.204   9.724  0.3709  0.2502  0.3995
  522MOL0     C70399   2.084   5.255   9.768 -0.3937 -0.5711  0.4875
  522MOL0     C70400   1.150   5.095   9.692  0.3338  0.3487  0.0900
  522MOL0     C70401   1.020   5.083   9.740  0.1370 -0.1004 -1.2466
  522MOL0     C70402   0.919   5.054   9.637 -0.3006 -0.0314 -0.8861
  522MOL0     H70403   0.574   5.011   9.730 -0.6857  3.7236 -0.5749
  522MOL0     H70404   0.344   5.030   9.785 -0.8567 -0.4589  1.6268
  522MOL0     H70405   0.141   4.929   9.866  1.0066 -1.4311 -0.0790
  522MOL0     H70406   0.225   4.802   9.965  0.2815 -1.4377 -2.2268
  522MOL0     H70407  -0.006   4.978  10.068  0.6003  1.4895 -2.0080
  522MOL0     H70408   0.053   4.817  10.119 -0.4544 -0.2945  0.0924
  522MOL0     H70409  -0.023   4.719   9.909  3.1745  0.8223  2.8683
  522MOL0     H70410  -0.095   4.881   9.874  0.7558 -1.4229 -1.0892
  522MOL0     H70411  -0.183   4.685  10.101 -1.8509 -0.6576  0.6018
  522MOL0     H70412  -0.216   4.854  10.098  1.8014 -0.6036  1.1063
  522MOL0     H70413  -0.372   4.846   9.942  0.5222  0.5751 -3.0146
  522MOL0     H70414  -0.324   4.691   9.865 -0.2122 -0.9351 -0.1147
  522MOL0     H70415  -0.384   4.603  10.118 -1.6521 -0.3823  2.1012
  522MOL0     H70416  -0.468   4.749  10.139  2.2073 -1.0013  1.3445
  522MOL0     H70417  -0.533   4.573   9.906 -1.0347  1.8838 -1.6274
  522MOL0     H70418  -0.614   4.718   9.957 -1.8368 -1.1650  0.7739
  522MOL0     H70419  -0.592   4.487  10.151 -1.1265 -2.0134  0.6599
  522MOL0     H70420  -0.708   4.613  10.145  3.2975  1.0911  2.3156
  522MOL0     H70421  -0.813   4.312  10.168 -2.9847  0.9617  1.0951
  522MOL0     H70422  -1.060   4.249  10.050  0.7415  0.3085  0.2127
  522MOL0     H70423  -1.040   4.183   9.883  2.5470 -0.3201 -0.6008
  522MOL0     H70424  -0.942   4.082  10.152  3.6595 -0.5351 -0.3824
  522MOL0     H70425  -1.060   4.010  10.045  0.9247  1.1574 -3.3759
  522MOL0     H70426  -0.862   3.883  10.043  1.3062  0.0648  0.2558
  522MOL0     H70427  -0.745   4.005  10.026  2.5173 -2.6897 -0.7208
  522MOL0     H70428  -0.769   3.890   9.806  0.7827 -0.4345 -0.1522
  522MOL0     H70429  -0.802   4.057   9.801  0.2125  0.6852 -0.2168
  522MOL0     H70430  -1.221   3.922   9.807  0.9115  0.2588  2.6306
  522MOL0     H70431  -1.354   3.700   9.810  0.1364  2.4686 -0.4976
  522MOL0     H70432  -1.395   3.278  10.026 -0.4014 -1.5120  5.6650
  522MOL0     H70433  -1.417   3.037  10.105  0.1430  1.1378 -0.3531
  522MOL0     H70434  -1.402   2.837  10.192 -1.3214 -1.1183 -1.9142
  522MOL0     H70435  -1.336   2.694  10.155 -2.0716  0.2391 -1.2681
  522MOL0     H70436  -1.157   2.941  10.216 -1.4204  0.1270  0.3069
  522MOL0     H70437  -1.221   2.860  10.352 -0.0877 -2.3746  1.1040
  522MOL0     H70438  -1.087   2.651  10.218 -2.2029  0.6613  0.7087
  522MOL0     H70439  -1.011   2.784  10.136  1.2484  2.1321 -1.2389
  522MOL0     H70440  -1.021   2.707  10.443 -4.7984  0.3867 -2.7867
  522MOL0     H70441  -0.955   2.861  10.388 -3.6065 -0.2359  2.2933
  522MOL0     H70442  -0.770   2.707  10.433 -2.7976 -2.9854  1.9878
  522MOL0     H70443  -0.764   2.773  10.275  0.9624 -0.4458  1.1446
  522MOL0     H70444  -0.907   2.503  10.312 -0.1127 -1.0926 -0.3676
  522MOL0     H70445  -0.835   2.574  10.172 -0.0029  0.7470  0.2284
  522MOL0     H70446  -0.689   2.489  10.431  1.1941 -2.4741 -0.1930
  522MOL0     H70447  -0.609   2.546  10.293  0.1496 -0.3114 -1.0305
  522MOL0     H70448  -0.597   2.308  10.308  0.5528  0.5219  1.7174
  522MOL0     H70449  -0.777   2.290  10.285 -0.3210 -0.5570 -1.7886
  522MOL0     H70450  -1.145   2.900   9.796 -0.1647 -0.6434 -0.5765
  522MOL0     H70451  -1.104   3.120   9.738 -1.1377  0.2765 -1.3877
  522MOL0     H70452  -0.967   3.494   9.812  1.1120  0.4933  0.0260
  522MOL0     H70453  -0.859   3.685   9.803 -0.4074 -1.5546 -0.7150
  522MOL0     H70454   0.432   4.940  10.193 -0.3557 -0.0201  0.3671
  522MOL0     H70455   0.685   4.949  10.136  0.0925 -1.1083 -0.9833
  522MOL0     H70456   1.068   5.173  10.072 -0.7772  0.0121  0.7152
  522MOL0     H70457   1.312   5.183   9.966  2.2392 -1.0490 -2.4462
  522MOL0     H70458   1.493   5.068   9.892  1.2561  2.5251  1.1514
  522MOL0     H70459   1.499   5.229   9.832 -1.3773  0.9797 -2.6906
  522MOL0     H70460   1.591   5.133   9.609 -2.5456 -0.7570  0.2745
  522MOL0     H70461   1.626   4.986   9.696 -0.7101 -0.4226 -1.2449
  522MOL0     H70462   1.764   5.102   9.867  2.9297 -0.8042  0.0096
  522MOL0     H70463   1.724   5.257   9.793  0.9236 -1.1095  0.3333
  522MOL0     H70464   1.891   5.038   9.640  2.5689  0.3004 -0.7708
  522MOL0     H70465   1.835   5.184   9.581 -1.5308 -1.7772 -0.1039
  522MOL0     H70466   2.171   5.303   9.808  1.8279 -1.7147 -2.5420
  522MOL0     H70467   1.173   5.084   9.587  3.0600  2.7827  0.3008
  522MOL0     H70468   0.918   4.944   9.642  0.4792 -0.0587 -1.1495
  522MOL0     H70469   0.819   5.082   9.670  0.2517  0.3215  0.6011
  522MOL0     H70470   0.948   5.108   9.547  2.4030  3.5955  1.8735
  523MOL0     O70471   4.162   5.573   1.000  0.2706  0.3901 -0.5674
  523MOL0     C70472   4.263   5.495   0.996  1.3081  0.6826 -0.1021
  523MOL0     O70473   4.371   5.514   0.918 -0.2121 -0.1090  0.2842
  523MOL0     C70474   4.398   5.641   0.886 -0.6721 -0.0386 -0.9823
  523MOL0     C70475   4.425   5.676   0.755  0.1201  0.2502  0.1549
  523MOL0     C70476   4.449   5.811   0.715  0.5582  0.1133  0.0490
  523MOL0     C70477   4.419   5.913   0.814 -0.3620  0.4460  0.9537
  523MOL0     O70478   4.436   6.047   0.787 -0.1303  0.2957 -0.2280
  523MOL0     C70479   4.370   6.095   0.674 -0.0775 -0.5559 -0.0311
  523MOL0     C70480   4.369   6.250   0.677 -0.3601 -0.3265 -0.5820
  523MOL0     C70481   4.354   6.298   0.535  0.2289 -0.6674  0.7510
  523MOL0     C70482   4.353   6.447   0.535 -0.2828 -0.1370  0.2957
  523MOL0     C70483   4.490   6.512   0.584  0.4559 -0.5847 -0.1869
  523MOL0     C70484   4.612   6.432   0.525  0.4727  0.1804  0.0544
  523MOL0     C70485   4.746   6.505   0.539  0.0271 -0.2902 -0.6198
  523MOL0     C70486   4.866   6.445   0.476  0.2065 -0.3879  0.6249
  523MOL0     N70487   5.001   6.487   0.524  0.6548  0.0535  0.0609
  523MOL0     C70488   5.087   6.571   0.461  0.1349 -0.3202  0.3804
  523MOL0     C70489   5.195   6.576   0.544 -0.4368 -0.3742  0.7539
  523MOL0     C70490   5.324   6.639   0.525 -0.6070 -0.3471  0.0225
  523MOL0     C70491   5.424   6.553   0.455  0.5924 -0.0257 -0.0964
  523MOL0     C70492   5.398   6.536   0.307 -0.5885  0.5654 -0.5320
  523MOL0     C70493   5.524   6.472   0.254  0.1039 -0.0433  0.2433
  523MOL0     O70494   5.517   6.465   0.108 -0.2974 -0.5950 -0.1546
  523MOL0     C70495   5.605   6.387   0.041 -0.2913  0.3871  0.8952
  523MOL0     C70496   5.587   6.376  -0.100 -0.1590  0.0575  0.2793
  523MOL0     C70497   5.682   6.314  -0.182  0.1031 -0.9960  0.5835
  523MOL0     C70498   5.802   6.258  -0.124  0.1791  0.2114 -0.4085
  523MOL0     C70499   5.905   6.185  -0.211  0.8431  0.0963  0.0824
  523MOL0     O70500   6.030   6.174  -0.160  0.2906  0.2038  0.2032
  523MOL0     C70501   6.132   6.104  -0.224  0.0314 -0.4225 -0.8742
  523MOL0     C70502   6.262   6.153  -0.192  0.5597  0.4015 -0.0161
  523MOL0     C70503   6.367   6.082  -0.230 -0.2653  0.2355  0.2614
  523MOL0     C70504   6.355   5.972  -0.317 -0.5172 -0.0392  0.2669
  523MOL0     O70505   6.452   5.904  -0.382  0.0882  0.7316  0.2751
  523MOL0     C70506   6.564   5.888  -0.300 -0.4694 -0.0616  0.0925
  523MOL0     C70507   6.646   5.769  -0.339  0.3754 -0.0571  0.9106
  523MOL0     C70508   6.777   5.777  -0.257 -0.2154 -0.3189 -1.3153
  523MOL0     C70509   6.882   5.669  -0.290  0.0041 -0.9790 -0.7887
  523MOL0     C70510   6.982   5.649  -0.170 -0.2247  1.5037  0.2765
  523MOL0     C70511   7.061   5.524  -0.223 -0.4797  0.3199  0.3710
  523MOL0     C70512   7.175   5.473  -0.137 -0.8040 -0.0648 -0.2615
  523MOL0     C70513   7.273   5.376  -0.209 -0.0442  0.7730  0.1720
  523MOL0    Cl70514   7.428   5.350  -0.124  0.6174  0.1038  0.3213
  523MOL0     C70515   6.226   5.926  -0.347 -0.1165 -0.0920  0.0393
  523MOL0     C70516   6.111   5.993  -0.297 -0.0465 -0.5028 -0.4082
  523MOL0     O70517   5.865   6.143  -0.326 -0.3660  0.1641 -0.7682
  523MOL0     C70518   5.823   6.271   0.016 -0.4506  0.5354 -0.3109
  523MOL0     C70519   5.731   6.346   0.092 -0.0883  0.7805 -0.4820
  523MOL0     N70520   5.172   6.499   0.651 -0.6406 -0.4192 -0.8554
  523MOL0     N70521   5.062   6.438   0.641 -0.2366 -0.6302  0.1751
  523MOL0     C70522   4.397   5.874   0.948 -0.0298 -0.0030 -0.1015
  523MOL0     C70523   4.392   5.742   0.976  0.2353  0.3081 -0.1779
  523MOL0     C70524   4.246   5.355   1.045 -0.8018  0.7113  0.4382
  523MOL0     C70525   4.348   5.252   1.008  0.2660 -1.6425 -0.5522
  523MOL0     C70526   4.328   5.117   1.048 -0.1395 -0.3544 -0.0536
  523MOL0     C70527   4.220   5.070   1.118  0.3016  0.2949  0.1184
  523MOL0     O70528   4.216   4.933   1.137  0.1594  0.4786  1.0488
  523MOL0     C70529   4.113   4.891   1.230 -0.4551  0.4126 -0.7744
  523MOL0     C70530   4.119   4.737   1.261  0.1522  0.6709  0.4069
  523MOL0     C70531   4.113   4.644   1.139  0.6010 -0.0230  0.1224
  523MOL0     C70532   4.145   4.497   1.173  0.4055  0.4125 -0.8270
  523MOL0     C70533   4.290   4.459   1.178  0.4710  0.3554 -0.6018
  523MOL0     C70534   4.409   4.442   1.182 -1.1353  1.6906  1.4627
  523MOL0     C70535   4.123   5.165   1.167  0.2950  0.0841  1.0289
  523MOL0     C70536   4.137   5.302   1.127  0.2535 -0.6199  0.6183
  523MOL0     C70537   4.019   5.387   1.162 -0.7653  0.0073 -0.2743
  523MOL0     H70538   4.430   5.584   0.698  2.0037 -0.5742  1.5436
  523MOL0     H70539   4.486   5.833   0.615 -2.3875 -2.3481 -1.7532
  523MOL0     H70540   4.413   6.056   0.582  1.0164 -0.3825  0.3963
  523MOL0     H70541   4.265   6.063   0.679 -0.7041  1.3003 -0.4111
  523MOL0     H70542   4.468   6.288   0.706 -1.6381  2.6637  0.2343
  523MOL0     H70543   4.288   6.275   0.746 -0.7638  0.3656 -1.2905
  523MOL0     H70544   4.263   6.265   0.483  0.9544  0.1560 -1.1231
  523MOL0     H70545   4.440   6.259   0.479 -0.4783  2.2074 -2.7443
  523MOL0     H70546   4.340   6.485   0.432 -2.1914 -0.1784  0.4773
  523MOL0     H70547   4.269   6.481   0.597  0.0771 -2.7746  2.3827
  523MOL0     H70548   4.501   6.619   0.564 -1.3295 -0.0693  1.3362
  523MOL0     H70549   4.492   6.508   0.693 -0.1319 -4.1251 -0.1682
  523MOL0     H70550   4.624   6.331   0.566 -0.0072 -0.3378 -1.0567
  523MOL0     H70551   4.586   6.414   0.421 -2.1236  2.9144  0.1124
  523MOL0     H70552   4.760   6.495   0.647  0.0693 -2.2912 -0.7695
  523MOL0     H70553   4.741   6.607   0.500 -3.2333 -0.2920 -0.4664
  523MOL0     H70554   4.870   6.337   0.495 -2.3914 -0.8077 -0.8037
  523MOL0     H70555   4.870   6.458   0.367  2.1612  1.0828  0.8129
  523MOL0     H70556   5.079   6.612   0.361 -0.0493  0.8652  0.8634
  523MOL0     H70557   5.311   6.737   0.478  0.3275 -0.1216  0.2048
  523MOL0     H70558   5.366   6.663   0.623  0.5044 -2.4472  0.1201
  523MOL0     H70559   5.519   6.603   0.473  1.5117 -1.0807 -1.7661
  523MOL0     H70560   5.426   6.449   0.491 -0.8941 -0.0252  0.0450
  523MOL0     H70561   5.390   6.638   0.269  0.1904  0.3265 -1.3618
  523MOL0     H70562   5.307   6.480   0.287 -1.1881  0.3386  2.4331
  523MOL0     H70563   5.520   6.372   0.300 -2.2004 -0.7648 -1.3585
  523MOL0     H70564   5.615   6.531   0.269 -0.7919  2.2466 -2.5030
  523MOL0     H70565   5.499   6.421  -0.145  0.3407  0.0281 -0.7676
  523MOL0     H70566   5.659   6.303  -0.287  1.0994  0.3918  0.1994
  523MOL0     H70567   6.273   6.241  -0.128  1.5140 -0.5010  1.1229
  523MOL0     H70568   6.464   6.130  -0.218  1.8353 -3.7071  0.5137
  523MOL0     H70569   6.613   5.984  -0.314  1.2142 -1.0456 -1.1307
  523MOL0     H70570   6.535   5.880  -0.195 -0.9022 -2.0013 -0.1347
  523MOL0     H70571   6.581   5.682  -0.323 -0.5907  0.3586 -0.5381
  523MOL0     H70572   6.672   5.777  -0.445  0.3823 -0.0885  0.9102
  523MOL0     H70573   6.814   5.880  -0.265 -2.3490  0.7253  0.7476
  523MOL0     H70574   6.753   5.760  -0.151  1.4256 -3.3390 -1.3397
  523MOL0     H70575   6.931   5.678  -0.387  3.3719 -0.6140  0.7989
  523MOL0     H70576   6.808   5.589  -0.298 -1.0199 -0.0307 -1.1380
  523MOL0     H70577   6.935   5.615  -0.078  1.5481  0.7568  0.9429
  523MOL0     H70578   7.050   5.734  -0.163  0.3182  1.2107 -1.0132
  523MOL0     H70579   6.991   5.442  -0.243 -0.6289  0.0481  1.8706
  523MOL0     H70580   7.105   5.558  -0.317  0.6349  0.3170  0.8673
  523MOL0     H70581   7.130   5.434  -0.045 -1.8737 -0.7995 -1.0589
  523MOL0     H70582   7.229   5.563  -0.108 -1.9301  1.0030 -1.3110
  523MOL0     H70583   7.223   5.280  -0.227  0.9783  0.2000  0.2975
  523MOL0     H70584   7.294   5.414  -0.309 -2.4040  0.6567 -0.4182
  523MOL0     H70585   6.219   5.832  -0.402  1.1739 -0.0401 -0.2405
  523MOL0     H70586   6.014   5.949  -0.314 -0.6369  0.8773 -0.7053
  523MOL0     H70587   5.914   6.232   0.061 -1.1660 -0.7996  0.0443
  523MOL0     H70588   5.768   6.368   0.192  0.6837  3.2002 -1.2308
  523MOL0     H70589   4.378   5.943   1.030 -0.5820 -0.3120  0.0354
  523MOL0     H70590   4.376   5.719   1.081  2.6427 -1.3454 -0.1168
  523MOL0     H70591   4.434   5.275   0.947  0.4439 -2.2987 -0.5553
  523MOL0     H70592   4.401   5.044   1.014  0.7994  0.9165 -0.8676
  523MOL0     H70593   4.015   4.908   1.185 -0.5711  0.3074 -0.5606
  523MOL0     H70594   4.124   4.947   1.323  3.3537 -0.6194 -0.3996
  523MOL0     H70595   4.045   4.719   1.340 -3.4054  1.1924 -2.5087
  523MOL0     H70596   4.216   4.723   1.309  0.1489 -0.5332  0.1093
  523MOL0     H70597   4.181   4.675   1.060  1.6371  1.8375  1.6782
  523MOL0     H70598   4.007   4.641   1.111  0.7019 -1.7436 -0.2312
  523MOL0     H70599   4.094   4.476   1.268  0.1344  1.4361 -0.7400
  523MOL0     H70600   4.089   4.435   1.102  0.6795 -2.4063  1.2422
  523MOL0     H70601   4.514   4.433   1.164 -1.5386 -0.1355 -0.4849
  523MOL0     H70602   4.028   5.139   1.211  0.7003 -1.7285  0.8867
  523MOL0     H70603   3.969   5.439   1.080 -3.1850 -0.5217  0.7820
  523MOL0     H70604   3.943   5.341   1.225  0.3920  1.7492  2.6403
  523MOL0     H70605   4.065   5.465   1.224  1.8552 -1.3937 -0.3087
  524MOL0     O70606   4.008   4.668   4.488  0.7640 -1.1632 -0.1958
  524MOL0     C70607   3.939   4.600   4.405  0.7587  0.2262 -0.8554
  524MOL0     O70608   3.998   4.517   4.306 -0.8480 -0.8650 -0.4348
  524MOL0     C70609   4.130   4.513   4.294  0.6929  0.6666 -0.3075
  524MOL0     C70610   4.184   4.633   4.264 -0.1583 -0.1757  0.0799
  524MOL0     C70611   4.323   4.636   4.255 -0.2163 -0.2400 -0.4053
  524MOL0     C70612   4.403   4.515   4.271 -0.2593 -0.1050  0.3193
  524MOL0     O70613   4.539   4.515   4.236  0.1160 -0.3057 -0.0667
  524MOL0     C70614   4.603   4.625   4.178  0.2281 -0.0952 -0.9555
  524MOL0     C70615   4.744   4.570   4.171 -0.2473 -0.0958  0.6357
  524MOL0     C70616   4.844   4.667   4.108  0.1584 -0.3373  0.1387
  524MOL0     C70617   4.981   4.609   4.105 -0.9253 -0.0192 -0.2947
  524MOL0     C70618   5.069   4.710   4.045 -0.2112  1.1714  0.7200
  524MOL0     C70619   5.207   4.645   4.013 -0.1279  0.0478  0.2631
  524MOL0     C70620   5.298   4.746   3.944 -0.6265  0.0657  0.3792
  524MOL0     C70621   5.447   4.704   3.948 -0.0558 -0.3486  0.1142
  524MOL0     N70622   5.496   4.577   3.899  0.2817  0.1141  0.5141
  524MOL0     C70623   5.456   4.526   3.775 -0.3033  0.9940 -0.4022
  524MOL0     C70624   5.510   4.399   3.777  0.2859 -0.7672  0.6950
  524MOL0     C70625   5.467   4.286   3.688 -0.7848 -0.2480  0.2592
  524MOL0     C70626   5.318   4.250   3.715 -0.4975 -0.3529  0.0673
  524MOL0     C70627   5.299   4.140   3.827 -0.7189 -0.2655 -0.3558
  524MOL0     C70628   5.151   4.102   3.834 -0.4245  0.3966 -0.3752
  524MOL0     O70629   5.116   4.000   3.935 -0.3155  0.5089  0.6336
  524MOL0     C70630   4.977   4.015   3.962  0.6231 -0.3375 -0.8169
  524MOL0     C70631   4.873   3.978   3.870 -0.5513 -0.4159 -0.2474
  524MOL0     C70632   4.738   3.986   3.913 -0.4416  0.4884  0.0271
  524MOL0     C70633   4.698   4.038   4.038  0.3631  0.4481 -0.6362
  524MOL0     C70634   4.556   4.060   4.067 -0.4215  0.4498 -0.1049
  524MOL0     O70635   4.476   4.086   3.960 -0.7726  0.3033 -0.1478
  524MOL0     C70636   4.343   4.090   3.991 -0.7173 -0.8451  0.0176
  524MOL0     C70637   4.288   4.213   4.013 -0.4816  0.4910  0.4107
  524MOL0     C70638   4.150   4.220   4.048  0.3568 -0.4480  0.7899
  524MOL0     C70639   4.069   4.108   4.031 -0.2804 -0.4584  0.7426
  524MOL0     O70640   3.935   4.100   4.049  0.2108  0.1207  0.2101
  524MOL0     C70641   3.862   4.219   4.018  0.7983  0.1860  0.3448
  524MOL0     C70642   3.710   4.207   4.027 -0.2555  0.0870  0.5786
  524MOL0     C70643   3.637   4.315   3.943  0.3046 -0.3252 -0.2523
  524MOL0     C70644   3.479   4.306   3.948 -0.2656  0.6108 -0.2188
  524MOL0     C70645   3.423   4.161   3.927 -0.3767 -0.7744 -0.0805
  524MOL0     C70646   3.440   4.104   3.798  0.0062  0.4352  0.0716
  524MOL0     C70647   3.380   3.970   3.795  0.1390 -0.0452 -0.2177
  524MOL0     C70648   3.365   3.914   3.657 -0.1860 -0.4537  1.0864
  524MOL0    Cl70649   3.530   3.898   3.591 -0.2152 -0.1971 -0.2049
  524MOL0     C70650   4.126   3.990   4.017 -1.1941  0.4785 -0.5634
  524MOL0     C70651   4.260   3.979   4.002  0.3719  0.4179  0.4495
  524MOL0     O70652   4.523   4.040   4.181  0.3224 -0.0998 -0.2077
  524MOL0     C70653   4.801   4.064   4.125  0.5537 -0.3493 -0.8521
  524MOL0     C70654   4.938   4.055   4.095  0.9583  0.0335  0.2825
  524MOL0     N70655   5.594   4.386   3.882 -0.0019  0.2321 -0.0479
  524MOL0     N70656   5.571   4.487   3.963 -0.1873  0.1454 -0.0585
  524MOL0     C70657   4.340   4.393   4.292  0.5625 -0.3764  0.1429
  524MOL0     C70658   4.199   4.383   4.310  0.5852 -0.2341  0.3810
  524MOL0     C70659   3.792   4.588   4.404  0.4463 -0.1103 -0.4223
  524MOL0     C70660   3.730   4.504   4.307 -0.5993  0.0944 -0.1749
  524MOL0     C70661   3.605   4.468   4.315  0.5141  0.0285 -0.3067
  524MOL0     C70662   3.518   4.519   4.416  0.2523  0.3047  0.2382
  524MOL0     O70663   3.381   4.494   4.416  0.5715  0.3195 -0.0827
  524MOL0     C70664   3.312   4.443   4.533 -0.2147 -0.4297 -0.4086
  524MOL0     C70665   3.200   4.343   4.503  0.3640 -0.4185  0.9551
  524MOL0     C70666   3.178   4.251   4.623 -0.3843  0.5351  0.2852
  524MOL0     C70667   3.096   4.122   4.590 -1.2328 -0.4437  0.5307
  524MOL0     C70668   2.970   4.162   4.532 -0.7973 -0.2031  0.7908
  524MOL0     C70669   2.863   4.202   4.487 -0.3585  0.0076 -0.2016
  524MOL0     C70670   3.562   4.615   4.499 -1.4951  0.0632  0.4865
  524MOL0     C70671   3.699   4.655   4.494  0.1956  0.0311 -0.3846
  524MOL0     C70672   3.744   4.721   4.618  0.4376  0.0353 -0.4104
  524MOL0     H70673   4.131   4.728   4.270  0.7920  0.2647  2.9229
  524MOL0     H70674   4.368   4.724   4.209 -0.6861  1.2931  1.8923
  524MOL0     H70675   4.573   4.644   4.074  2.6436  1.5659 -1.4205
  524MOL0     H70676   4.590   4.717   4.236 -1.9538 -1.3704  0.7461
  524MOL0     H70677   4.745   4.472   4.123  1.9145 -0.3412  1.0736
  524MOL0     H70678   4.768   4.542   4.274  0.6042  4.0759  1.7777
  524MOL0     H70679   4.839   4.759   4.168 -0.0720 -1.9547  2.7749
  524MOL0     H70680   4.806   4.698   4.010 -1.5799  0.9240  1.1589
  524MOL0     H70681   5.023   4.590   4.204 -2.2789  0.0111  0.3103
  524MOL0     H70682   4.971   4.513   4.054 -1.3472 -0.7942  1.1821
  524MOL0     H70683   5.027   4.749   3.952  1.1288  1.8157  0.3507
  524MOL0     H70684   5.086   4.798   4.107 -1.8718  0.5347  2.1491
  524MOL0     H70685   5.249   4.615   4.110 -1.5362  0.7517  1.1192
  524MOL0     H70686   5.188   4.559   3.949 -0.6036  0.7737 -0.5980
  524MOL0     H70687   5.280   4.843   3.991  1.5379  2.1796 -2.7389
  524MOL0     H70688   5.265   4.755   3.840  1.9682  0.7922 -0.4367
  524MOL0     H70689   5.506   4.772   3.886 -1.6013 -1.3109 -2.5720
  524MOL0     H70690   5.473   4.713   4.054  1.8612 -0.8080 -0.2737
  524MOL0     H70691   5.374   4.556   3.711 -3.0158  0.0098  2.3370
  524MOL0     H70692   5.490   4.320   3.586  2.8144 -0.2191  0.9758
  524MOL0     H70693   5.538   4.205   3.703 -0.2924  0.0866 -0.2126
  524MOL0     H70694   5.262   4.343   3.732  1.4318  1.5592 -3.1536
  524MOL0     H70695   5.285   4.220   3.615  2.8898  3.9899 -2.7675
  524MOL0     H70696   5.330   4.180   3.924  1.8692  0.3440 -1.3535
  524MOL0     H70697   5.362   4.053   3.804  0.5000  0.4099  0.2964
  524MOL0     H70698   5.135   4.064   3.733 -0.3227  0.2974 -0.3538
  524MOL0     H70699   5.093   4.194   3.848 -1.9287 -0.2602 -1.9338
  524MOL0     H70700   4.901   3.941   3.772  0.4641  0.4807 -0.3140
  524MOL0     H70701   4.658   3.979   3.840  1.7369 -2.4394 -2.3008
  524MOL0     H70702   4.345   4.304   3.999 -0.4716  0.8753  2.5000
  524MOL0     H70703   4.103   4.315   4.068  1.3256  0.3694 -0.6205
  524MOL0     H70704   3.882   4.298   4.091 -0.0507  0.2214  0.5530
  524MOL0     H70705   3.885   4.254   3.917  0.2397  2.0206  0.8185
  524MOL0     H70706   3.696   4.101   4.006  0.4099 -0.7022  3.7144
  524MOL0     H70707   3.673   4.206   4.130 -0.8425 -0.8080  0.3686
  524MOL0     H70708   3.671   4.416   3.966 -0.4880 -0.5747  2.3556
  524MOL0     H70709   3.663   4.303   3.837  0.7697 -0.6805 -0.0971
  524MOL0     H70710   3.433   4.361   3.865 -0.7700  0.8586  0.2122
  524MOL0     H70711   3.447   4.340   4.047 -0.4139 -3.4741  1.3286
  524MOL0     H70712   3.317   4.164   3.953  0.0571 -1.2863  1.8690
  524MOL0     H70713   3.472   4.097   4.000  0.1529 -0.6954 -0.3652
  524MOL0     H70714   3.378   4.150   3.720 -0.7507 -0.5820  0.0555
  524MOL0     H70715   3.546   4.103   3.770  0.1295 -0.6131  0.5103
  524MOL0     H70716   3.286   3.967   3.851 -1.2290  0.1392 -2.3720
  524MOL0     H70717   3.456   3.905   3.839 -1.1430  0.0810  2.3200
  524MOL0     H70718   3.306   3.822   3.659  0.7442 -1.2080 -1.4948
  524MOL0     H70719   3.313   3.981   3.587  0.4905 -1.4376 -0.4178
  524MOL0     H70720   4.072   3.896   4.015  0.3800 -0.4765 -2.0893
  524MOL0     H70721   4.307   3.883   3.987 -0.9066  0.0071 -1.3243
  524MOL0     H70722   4.774   4.111   4.219 -3.2009  1.2650 -2.5242
  524MOL0     H70723   5.004   4.078   4.177  0.9311 -2.8659  1.2165
  524MOL0     H70724   4.391   4.298   4.309 -1.1416 -1.7803 -2.0795
  524MOL0     H70725   4.151   4.287   4.327  0.2847  0.0608  1.2804
  524MOL0     H70726   3.791   4.473   4.222 -0.7036  2.0788 -1.0233
  524MOL0     H70727   3.557   4.399   4.246 -0.7090  0.6149 -0.0811
  524MOL0     H70728   3.271   4.526   4.591 -2.2315  1.3836 -4.0836
  524MOL0     H70729   3.390   4.388   4.587 -0.2599  0.2378  0.3609
  524MOL0     H70730   3.217   4.272   4.421  0.7022 -1.9000  2.2688
  524MOL0     H70731   3.109   4.403   4.493  0.1669 -0.6026  1.6131
  524MOL0     H70732   3.120   4.301   4.700  0.0891  0.1286  0.9143
  524MOL0     H70733   3.274   4.216   4.662 -0.0098 -0.1815 -1.1949
  524MOL0     H70734   3.154   4.058   4.523  0.6378  3.7628 -2.2975
  524MOL0     H70735   3.086   4.065   4.683 -1.5766  0.9750  1.3906
  524MOL0     H70736   2.770   4.242   4.450 -1.1506  0.0345  1.7014
  524MOL0     H70737   3.500   4.658   4.577 -1.4007  1.8828 -0.3962
  524MOL0     H70738   3.834   4.780   4.602 -0.3145  1.5384  0.6161
  524MOL0     H70739   3.673   4.796   4.654 -1.2256 -1.8996  0.5221
  524MOL0     H70740   3.755   4.649   4.699  3.3185  1.8295  0.9504
  525MOL0     O70741   2.543   6.158   0.983 -1.0107 -0.9769  0.1453
  525MOL0     C70742   2.452   6.165   0.899 -0.6655 -0.0424 -0.2733
  525MOL0     O70743   2.454   6.245   0.793  0.5477 -0.5228 -0.0828
  525MOL0     C70744   2.559   6.334   0.774  0.9945  0.0759  0.7025
  525MOL0     C70745   2.687   6.292   0.755  0.6753 -0.7766 -0.2280
  525MOL0     C70746   2.788   6.389   0.739  0.5454 -0.0629  0.4026
  525MOL0     C70747   2.756   6.521   0.729  0.0615 -1.3141  0.7369
  525MOL0     O70748   2.860   6.609   0.709  0.5856 -0.7467 -0.5973
  525MOL0     C70749   2.830   6.738   0.646  0.2338  0.2360  0.2454
  525MOL0     C70750   2.946   6.835   0.631 -0.0663  0.4412 -0.1871
  525MOL0     C70751   3.061   6.776   0.549  0.2075 -0.1699  0.2434
  525MOL0     C70752   3.195   6.848   0.577  0.2057 -0.8056  0.1223
  525MOL0     C70753   3.285   6.852   0.454 -1.0061  0.9914 -0.2443
  525MOL0     C70754   3.284   6.991   0.383  0.4207  0.4198 -0.4063
  525MOL0     C70755   3.407   6.990   0.294 -0.4337 -0.6092 -0.1589
  525MOL0     C70756   3.433   7.125   0.223 -0.3480 -0.4687  0.3581
  525MOL0     N70757   3.571   7.135   0.165  0.1361 -0.6334  0.7119
  525MOL0     C70758   3.690   7.168   0.219  0.2123 -0.0311  0.2099
  525MOL0     C70759   3.774   7.176   0.116  0.5448  0.4201  0.0537
  525MOL0     C70760   3.915   7.211   0.102 -0.5654  0.2200 -0.3196
  525MOL0     C70761   3.981   7.208   0.245 -0.5856  0.6589  0.8647
  525MOL0     C70762   4.122   7.267   0.239 -0.2960  0.0923 -0.7664
  525MOL0     C70763   4.230   7.203   0.149  0.2460 -0.0362 -0.2784
  525MOL0     O70764   4.358   7.264   0.149  0.0571 -0.3504  0.1553
  525MOL0     C70765   4.464   7.225   0.061  0.6183 -0.8263 -0.7678
  525MOL0     C70766   4.447   7.118  -0.024 -0.2586  1.3402 -0.9506
  525MOL0     C70767   4.556   7.065  -0.090 -0.5426  0.1320  0.7247
  525MOL0     C70768   4.683   7.132  -0.084 -0.1516  1.1830 -0.2322
  525MOL0     C70769   4.803   7.081  -0.144  0.4205  0.9525 -0.2048
  525MOL0     O70770   4.919   7.153  -0.152 -0.1503  0.6998 -0.1546
  525MOL0     C70771   5.026   7.123  -0.233  0.2789 -0.1676 -0.3074
  525MOL0     C70772   5.017   7.040  -0.349  0.6395 -0.9047 -0.4382
  525MOL0     C70773   5.136   7.002  -0.412 -1.1032  1.1705 -0.4864
  525MOL0     C70774   5.265   7.051  -0.368 -0.0487 -0.4890  0.0075
  525MOL0     O70775   5.389   7.014  -0.418  0.2286 -0.4194 -0.2573
  525MOL0     C70776   5.402   6.959  -0.548 -0.5134  0.5552  0.6789
  525MOL0     C70777   5.551   6.964  -0.597 -0.1258 -0.4863 -0.6706
  525MOL0     C70778   5.570   6.903  -0.735  0.4574 -0.6539 -0.4661
  525MOL0     C70779   5.719   6.882  -0.777 -0.4522 -0.2190  0.5500
  525MOL0     C70780   5.737   6.777  -0.896  0.0118 -0.0688  0.0500
  525MOL0     C70781   5.881   6.752  -0.923 -0.2887  0.5908 -0.9245
  525MOL0     C70782   5.878   6.640  -1.024  0.3892  0.4954  0.4897
  525MOL0     C70783   6.009   6.591  -1.069  0.6861  0.4555 -0.9239
  525MOL0    Cl70784   5.972   6.465  -1.185  0.2872  0.1828 -0.1460
  525MOL0     C70785   5.268   7.137  -0.259  0.2624  0.1557 -0.0957
  525MOL0     C70786   5.147   7.174  -0.191 -0.6921  0.1021 -0.0791
  525MOL0     O70787   4.791   6.964  -0.182  0.0632 -0.2235  0.8152
  525MOL0     C70788   4.691   7.249  -0.011  0.5185  0.9486 -0.2307
  525MOL0     C70789   4.580   7.297   0.062 -0.1945 -0.3618  0.4301
  525MOL0     N70790   3.704   7.138   0.001  0.3640  0.4511  0.2541
  525MOL0     N70791   3.586   7.106   0.034  0.2949  0.0292 -0.3526
  525MOL0     C70792   2.622   6.561   0.721  1.2218  0.7310  0.1661
  525MOL0     C70793   2.523   6.465   0.745 -0.6928 -0.2080 -0.8265
  525MOL0     C70794   2.361   6.052   0.896 -0.0884 -0.3831 -1.3578
  525MOL0     C70795   2.341   5.990   0.771 -0.8825 -0.2887  0.1864
  525MOL0     C70796   2.254   5.879   0.764 -0.0040  0.4620 -0.1962
  525MOL0     C70797   2.183   5.835   0.869  0.0083  0.6496 -0.8092
  525MOL0     O70798   2.106   5.725   0.847  0.5394  0.2377  0.3005
  525MOL0     C70799   2.025   5.668   0.952 -0.1754 -0.1585 -0.2433
  525MOL0     C70800   1.928   5.570   0.895 -0.0671 -0.2079  0.0082
  525MOL0     C70801   1.879   5.464   0.998  0.2481 -0.0232 -0.1777
  525MOL0     C70802   1.739   5.486   1.048  0.3328  0.7739  0.5704
  525MOL0     C70803   1.680   5.366   1.112 -0.5934 -1.1426 -0.0957
  525MOL0     C70804   1.638   5.280   1.183 -0.1110 -0.5657  0.0511
  525MOL0     C70805   2.201   5.900   0.995  0.6174 -0.0400  0.1065
  525MOL0     C70806   2.291   6.002   1.011 -0.5744  0.2901 -0.0215
  525MOL0     C70807   2.327   6.058   1.144 -0.3420 -0.9569 -0.1939
  525MOL0     H70808   2.720   6.188   0.762 -1.4473 -1.4168  1.3599
  525MOL0     H70809   2.894   6.371   0.725  0.3306 -0.5981 -0.6881
  525MOL0     H70810   2.798   6.725   0.542 -1.8357 -0.2888  0.9031
  525MOL0     H70811   2.750   6.792   0.696 -0.0543  1.3382 -1.3122
  525MOL0     H70812   2.982   6.855   0.732  0.4768 -1.1567 -0.0260
  525MOL0     H70813   2.903   6.927   0.589  0.1485  1.3488  1.5160
  525MOL0     H70814   3.026   6.785   0.445  0.8860 -2.2164 -0.2048
  525MOL0     H70815   3.086   6.673   0.574  1.6479  0.2246  0.5424
  525MOL0     H70816   3.177   6.954   0.599 -1.7968 -0.7973 -1.3174
  525MOL0     H70817   3.247   6.801   0.660 -0.3015 -0.5607  0.5845
  525MOL0     H70818   3.386   6.823   0.483 -2.1945 -0.5710  2.8208
  525MOL0     H70819   3.256   6.775   0.381  2.4915 -0.3806 -0.3820
  525MOL0     H70820   3.188   7.005   0.332  0.2687  0.0284 -0.2295
  525MOL0     H70821   3.304   7.073   0.453 -0.2138 -0.6011  1.0423
  525MOL0     H70822   3.409   6.918   0.211 -0.1367 -0.2296 -0.4826
  525MOL0     H70823   3.504   6.968   0.339  0.0451 -0.5074 -1.1040
  525MOL0     H70824   3.361   7.147   0.144  2.8256  1.9993 -2.1201
  525MOL0     H70825   3.436   7.189   0.312 -1.0922  0.7780 -0.4806
  525MOL0     H70826   3.708   7.185   0.325  2.6088  0.2530 -0.1678
  525MOL0     H70827   3.976   7.145   0.039 -2.1156 -2.2536  0.6159
  525MOL0     H70828   3.934   7.303   0.046  0.4495 -1.5006 -2.9829
  525MOL0     H70829   3.935   7.283   0.309  0.2311  0.9393  1.1345
  525MOL0     H70830   3.973   7.103   0.276  1.1833 -0.4304 -1.9416
  525MOL0     H70831   4.163   7.265   0.340  1.4975 -3.3024 -1.3868
  525MOL0     H70832   4.118   7.368   0.199 -1.2818  0.6886  0.7721
  525MOL0     H70833   4.189   7.200   0.048 -1.8811  1.1014  0.4873
  525MOL0     H70834   4.249   7.097   0.168 -2.1708 -0.4092  0.3135
  525MOL0     H70835   4.357   7.057  -0.029  1.2480 -1.1747  0.6277
  525MOL0     H70836   4.537   6.972  -0.144  2.3631 -0.5033  0.6750
  525MOL0     H70837   4.919   7.001  -0.375 -0.7089 -1.0959  4.0654
  525MOL0     H70838   5.132   6.926  -0.490  0.2589  1.5513 -0.9605
  525MOL0     H70839   5.357   6.859  -0.549  0.6006  0.0195 -0.9229
  525MOL0     H70840   5.349   7.014  -0.626  0.3994  0.3784 -0.0861
  525MOL0     H70841   5.593   7.065  -0.590 -0.2081 -0.4534 -0.6306
  525MOL0     H70842   5.602   6.902  -0.523 -1.2435 -1.2341 -0.5052
  525MOL0     H70843   5.539   6.798  -0.734 -0.3088 -0.4297 -0.3214
  525MOL0     H70844   5.499   6.950  -0.803 -2.3194 -0.0891  2.5270
  525MOL0     H70845   5.785   6.852  -0.695  0.2049  3.3449  1.5047
  525MOL0     H70846   5.758   6.979  -0.812  1.7951 -0.8131  1.2480
  525MOL0     H70847   5.685   6.812  -0.986 -0.8097 -0.1330  0.4861
  525MOL0     H70848   5.682   6.685  -0.872  0.0208 -1.5514 -4.7203
  525MOL0     H70849   5.923   6.838  -0.976 -0.7536  1.2517 -0.2396
  525MOL0     H70850   5.932   6.723  -0.830 -0.5873 -2.9880 -1.7133
  525MOL0     H70851   5.823   6.671  -1.113  0.0805  0.2513  0.5919
  525MOL0     H70852   5.833   6.549  -0.982  4.4529 -1.4853  1.0741
  525MOL0     H70853   6.063   6.663  -1.130  2.1379 -1.2047 -1.6797
  525MOL0     H70854   6.076   6.549  -0.993  0.9722  0.1190 -1.3571
  525MOL0     H70855   5.362   7.179  -0.225 -1.0796  3.0956  0.2509
  525MOL0     H70856   5.147   7.236  -0.102 -0.6759 -0.5034  0.3490
  525MOL0     H70857   4.779   7.312  -0.016 -0.8306  3.1856  1.8928
  525MOL0     H70858   4.581   7.398   0.102  0.8584  0.5353 -1.6595
  525MOL0     H70859   2.599   6.667   0.709  2.5282  1.1897  1.4135
  525MOL0     H70860   2.417   6.490   0.751 -0.6880  0.0695 -1.7560
  525MOL0     H70861   2.388   6.024   0.680  3.5628 -1.1250  1.8761
  525MOL0     H70862   2.251   5.824   0.671 -0.7513 -0.4008  0.3282
  525MOL0     H70863   1.975   5.751   1.003  1.9053 -0.3039  2.2156
  525MOL0     H70864   2.097   5.623   1.021  2.3078 -1.7764 -3.5839
  525MOL0     H70865   1.989   5.515   0.823 -1.2735 -0.2582 -1.0090
  525MOL0     H70866   1.850   5.629   0.846  0.3306  1.1293  0.9212
  525MOL0     H70867   1.951   5.464   1.081 -0.4399  0.0940  0.4285
  525MOL0     H70868   1.895   5.367   0.950  3.4360  0.4981 -0.3935
  525MOL0     H70869   1.735   5.570   1.118 -0.7411  0.5957  0.7429
  525MOL0     H70870   1.678   5.524   0.965 -0.5737 -1.1670  0.2916
  525MOL0     H70871   1.603   5.206   1.251 -0.4609  0.9042  1.5444
  525MOL0     H70872   2.144   5.869   1.082  1.0456  1.8634  1.1336
  525MOL0     H70873   2.422   6.014   1.176 -1.1785 -3.0733 -0.4701
  525MOL0     H70874   2.327   6.166   1.158 -0.4095 -0.8923 -0.6632
  525MOL0     H70875   2.258   6.023   1.222 -2.3900  2.7722 -0.0804
  526MOL0     O70876  11.041   5.735   9.678 -0.1185  0.6277 -0.3797
  526MOL0     C70877  10.945   5.681   9.733 -0.6786 -0.1149  0.6958
  526MOL0     O70878  10.940   5.623   9.853 -0.7416  0.8113 -0.1424
  526MOL0     C70879  11.047   5.613   9.939  0.8926  0.6670 -0.2378
  526MOL0     C70880  11.114   5.724   9.986  0.4621 -0.3459  0.5398
  526MOL0     C70881  11.229   5.712  10.068 -0.3450  0.5390 -0.0369
  526MOL0     C70882  11.271   5.583  10.099  0.0485  0.0052 -0.2886
  526MOL0     O70883  11.385   5.556  10.173  0.5850 -0.2464  0.0977
  526MOL0     C70884  11.512   5.603  10.119  0.1841  0.4660  1.2297
  526MOL0     C70885  11.595   5.680  10.220  0.3890  0.1323 -0.1845
  526MOL0     C70886  11.747   5.694  10.173 -0.9590 -0.1053 -0.5466
  526MOL0     C70887  11.762   5.793  10.060 -1.3099  0.0828 -1.0305
  526MOL0     C70888  11.905   5.812  10.035  0.3911 -0.8927 -0.1086
  526MOL0     C70889  11.911   5.879   9.901 -0.0562 -0.4129  0.7996
  526MOL0     C70890  11.846   6.024   9.883 -0.1030 -0.0893 -0.5268
  526MOL0     C70891  11.922   6.123   9.976  0.7729 -0.1377 -0.2064
  526MOL0     N70892  12.069   6.125   9.949 -0.6977 -0.2392 -0.0127
  526MOL0     C70893  12.134   6.169   9.836  0.1071  0.2374 -1.2526
  526MOL0     C70894  12.270   6.181   9.855  0.9087 -0.4241  0.1686
  526MOL0     C70895  12.375   6.220   9.757 -0.1454  0.2058  0.8199
  526MOL0     C70896  12.379   6.130   9.639 -0.1664 -0.3150  1.0054
  526MOL0     C70897  12.473   6.001   9.654  0.6539 -0.6395  0.5136
  526MOL0     C70898  12.489   5.935   9.515 -0.3362 -2.0422  0.1574
  526MOL0     O70899  12.569   6.008   9.418 -0.3916 -0.2331 -0.1246
  526MOL0     C70900  12.706   6.027   9.445  0.4051  0.2932 -0.4367
  526MOL0     C70901  12.779   5.932   9.519  0.1281  0.1986 -0.3417
  526MOL0     C70902  12.904   5.973   9.568  1.7792 -0.5613  0.7144
  526MOL0     C70903  12.963   6.098   9.537 -0.4912  0.0018  0.4687
  526MOL0     C70904  13.089   6.134   9.592 -0.8563 -0.2075  0.6364
  526MOL0     O70905  13.159   6.041   9.667  0.0048  0.3624  0.0764
  526MOL0     C70906  13.271   6.077   9.731  0.2583 -0.3503 -0.1024
  526MOL0     C70907  13.384   6.132   9.660 -0.5870 -0.3381  0.2546
  526MOL0     C70908  13.499   6.185   9.722  0.3769 -0.8077  0.5084
  526MOL0     C70909  13.506   6.172   9.862  0.4633 -0.2499  0.9793
  526MOL0     O70910  13.612   6.211   9.926 -0.2569 -0.4923 -0.4814
  526MOL0     C70911  13.680   6.335   9.885  0.7540 -0.0130 -0.5322
  526MOL0     C70912  13.827   6.310   9.847 -0.5945  0.0238 -0.8892
  526MOL0     C70913  13.914   6.438   9.839  0.2151 -0.3074  0.4177
  526MOL0     C70914  14.064   6.419   9.823 -0.6871  0.6003 -0.0881
  526MOL0     C70915  14.110   6.392   9.681  0.4720 -0.3786 -0.1358
  526MOL0     C70916  14.252   6.397   9.638 -0.4977 -0.6733 -0.4577
  526MOL0     C70917  14.344   6.292   9.711 -0.1010 -0.1238  0.2470
  526MOL0     C70918  14.364   6.315   9.860 -0.1279  0.0857  1.1539
  526MOL0    Cl70919  14.471   6.464   9.907  0.1255 -0.3845 -0.5964
  526MOL0     C70920  13.396   6.108   9.937 -0.2101  0.1258 -0.5653
  526MOL0     C70921  13.282   6.063   9.866 -0.4562 -0.2345 -0.0163
  526MOL0     O70922  13.124   6.247   9.574 -0.0790 -0.7930  0.0751
  526MOL0     C70923  12.890   6.182   9.460 -0.1365 -0.2390 -0.0969
  526MOL0     C70924  12.763   6.156   9.422  0.0144  0.8061  0.9647
  526MOL0     N70925  12.277   6.150   9.988  0.4561  0.2568  0.6460
  526MOL0     N70926  12.164   6.130  10.048  0.3163 -0.2278  0.5245
  526MOL0     C70927  11.213   5.470  10.038 -0.3525  0.0237 -0.1718
  526MOL0     C70928  11.098   5.492   9.959 -1.0265  0.9270  0.7917
  526MOL0     C70929  10.825   5.663   9.657 -0.6000 -0.2121  0.5436
  526MOL0     C70930  10.759   5.771   9.614  0.0444 -0.0659  0.6795
  526MOL0     C70931  10.636   5.755   9.552 -0.3251 -0.2225 -0.3842
  526MOL0     C70932  10.577   5.630   9.535  0.6286  0.0508  0.8028
  526MOL0     O70933  10.444   5.610   9.493  0.6128  0.1977  0.5090
  526MOL0     C70934  10.367   5.713   9.426  0.1421 -0.4809  0.4226
  526MOL0     C70935  10.224   5.646   9.390 -0.6489  0.3390 -0.0218
  526MOL0     C70936  10.104   5.741   9.420  0.8248 -1.0534  0.1253
  526MOL0     C70937   9.965   5.676   9.406 -0.3242 -0.0752 -0.2867
  526MOL0     C70938   9.950   5.586   9.517 -0.2910  0.1167 -0.5565
  526MOL0     C70939   9.942   5.520   9.618  0.3782  0.0407  0.7630
  526MOL0     C70940  10.640   5.523   9.588  0.1259  1.3516  0.2358
  526MOL0     C70941  10.764   5.536   9.647  0.0933 -0.4109 -0.1188
  526MOL0     C70942  10.843   5.417   9.696 -0.3293  0.6810  0.4685
  526MOL0     H70943  11.065   5.820   9.975 -0.0069 -0.1233  3.6009
  526MOL0     H70944  11.281   5.791  10.121  1.7064 -1.4513  1.0954
  526MOL0     H70945  11.562   5.508  10.098 -1.7965 -0.1647 -1.0304
  526MOL0     H70946  11.501   5.662  10.028 -0.8925  0.5594  1.4083
  526MOL0     H70947  11.593   5.642  10.323 -0.4551  5.2220  1.9473
  526MOL0     H70948  11.549   5.778  10.237  0.5691 -0.0420  1.4878
  526MOL0     H70949  11.789   5.600  10.135  1.8880 -0.4412  2.8969
  526MOL0     H70950  11.806   5.730  10.258 -0.9326 -1.8471  0.2034
  526MOL0     H70951  11.723   5.744   9.970  1.2159 -2.3767 -0.9204
  526MOL0     H70952  11.729   5.893  10.090  2.4847  1.9948 -2.5933
  526MOL0     H70953  11.953   5.879  10.107  1.3701  2.0614 -3.2368
  526MOL0     H70954  11.955   5.715  10.033 -0.7134 -1.4847 -1.4197
  526MOL0     H70955  12.016   5.887   9.875 -0.7998  1.1235 -2.1666
  526MOL0     H70956  11.873   5.815   9.821  1.2877 -0.6945  0.3786
  526MOL0     H70957  11.742   6.042   9.909  0.1471 -0.1185  0.5299
  526MOL0     H70958  11.850   6.063   9.781 -0.8838 -1.9860 -1.3397
  526MOL0     H70959  11.878   6.222   9.967 -0.3467 -0.6949 -1.1874
  526MOL0     H70960  11.905   6.082  10.076  3.2546  0.5077  0.5568
  526MOL0     H70961  12.071   6.193   9.751 -2.0084  0.1964  0.2532
  526MOL0     H70962  12.350   6.320   9.721 -2.0664 -0.8459 -1.0402
  526MOL0     H70963  12.475   6.227   9.802  0.4957 -3.0839  0.2111
  526MOL0     H70964  12.274   6.103   9.621 -0.2660 -1.1595  2.6356
  526MOL0     H70965  12.420   6.197   9.563 -0.3980 -0.3105  0.8831
  526MOL0     H70966  12.427   5.940   9.733 -0.6538  2.8411  2.7155
  526MOL0     H70967  12.577   6.022   9.683  2.0895 -2.2408 -2.9820
  526MOL0     H70968  12.396   5.922   9.459 -0.1231 -0.5180 -0.5848
  526MOL0     H70969  12.531   5.836   9.537  2.4481 -0.7913  1.0321
  526MOL0     H70970  12.735   5.834   9.533  1.1738 -0.9636 -4.0267
  526MOL0     H70971  12.961   5.901   9.625  1.9940 -1.4789 -0.6013
  526MOL0     H70972  13.378   6.132   9.552  0.0626 -0.6544  0.2115
  526MOL0     H70973  13.584   6.231   9.673 -1.6516  4.3975  1.3212
  526MOL0     H70974  13.629   6.383   9.801 -2.0488 -0.3079  0.9147
  526MOL0     H70975  13.675   6.405   9.968 -1.1117  1.4466 -1.7920
  526MOL0     H70976  13.868   6.245   9.925 -2.2883  0.8908  0.8091
  526MOL0     H70977  13.836   6.258   9.751  1.2296 -1.0868 -0.1654
  526MOL0     H70978  13.881   6.497   9.752  2.6331 -0.8285 -0.9229
  526MOL0     H70979  13.900   6.493   9.933  0.4347  2.0137 -0.8249
  526MOL0     H70980  14.090   6.341   9.895  1.5441  2.2329  1.0086
  526MOL0     H70981  14.111   6.514   9.849  0.0686  0.1600  0.1953
  526MOL0     H70982  14.067   6.474   9.622 -1.3217  0.3159  1.9819
  526MOL0     H70983  14.050   6.308   9.645 -1.7885  0.5064  1.3158
  526MOL0     H70984  14.251   6.367   9.533  1.2536 -2.0250 -0.1304
  526MOL0     H70985  14.286   6.500   9.655 -5.1323  1.2118 -1.0353
  526MOL0     H70986  14.440   6.276   9.662 -0.4146 -0.9998 -0.0947
  526MOL0     H70987  14.293   6.196   9.699  1.3457 -1.1693  1.9682
  526MOL0     H70988  14.274   6.299   9.919 -0.5468  2.1157  1.1621
  526MOL0     H70989  14.420   6.231   9.903  0.5349  1.1381  2.4424
  526MOL0     H70990  13.396   6.097  10.045 -1.3022 -1.3169 -0.6824
  526MOL0     H70991  13.197   6.035   9.927 -0.7992  0.3950 -0.2036
  526MOL0     H70992  12.920   6.286   9.452  0.7047 -0.6087 -3.0278
  526MOL0     H70993  12.712   6.234   9.366  3.5390  3.1307  0.6937
  526MOL0     H70994  11.259   5.372  10.054  0.5746  0.8374  2.6183
  526MOL0     H70995  11.061   5.416   9.891  0.4327 -0.8121  1.8563
  526MOL0     H70996  10.817   5.861   9.630  3.3734 -1.6232 -1.3945
  526MOL0     H70997  10.592   5.849   9.519  0.1973  0.2217  0.1545
  526MOL0     H70998  10.419   5.753   9.338  0.2313  0.5206  0.9199
  526MOL0     H70999  10.345   5.788   9.502 -4.8379  0.6148 -1.6858
  526MOL0     H71000  10.230   5.564   9.462 -0.0364  0.9284  0.6147
  526MOL0     H71001  10.242   5.612   9.287  2.0612  1.7406 -0.1071
  526MOL0     H71002  10.100   5.827   9.352  3.2319 -0.3181  0.8050
  526MOL0     H71003  10.114   5.781   9.522 -0.7575  1.9989 -0.7806
  526MOL0     H71004   9.882   5.748   9.412 -2.0834 -2.0328  0.0894
  526MOL0     H71005   9.964   5.627   9.308  0.0738 -1.5108  0.4120
  526MOL0     H71006   9.925   5.469   9.711 -5.0718 -1.7091 -0.8489
  526MOL0     H71007  10.594   5.425   9.579  2.7585  0.2375 -4.0760
  526MOL0     H71008  10.808   5.323   9.652 -0.2941  0.8353  0.1076
  526MOL0     H71009  10.950   5.419   9.675  0.4665  1.0547  3.9818
  526MOL0     H71010  10.839   5.407   9.805 -0.0082  1.4487  0.5509
  527MOL0     O71011   2.759  10.611   4.634  0.4173 -0.7391 -0.2939
  527MOL0     C71012   2.742  10.489   4.636  0.6083 -0.6037 -0.1554
  527MOL0     O71013   2.830  10.397   4.689  0.2254 -0.0671 -0.3668
  527MOL0     C71014   2.964  10.418   4.711  0.0182  0.5784  0.1689
  527MOL0     C71015   3.044  10.512   4.653  0.2665 -0.0146  0.2835
  527MOL0     C71016   3.184  10.507   4.663 -0.2924  0.1693  0.0372
  527MOL0     C71017   3.247  10.414   4.738  0.1746 -0.1468  0.5405
  527MOL0     O71018   3.383  10.413   4.759 -0.3765  0.3127  0.8583
  527MOL0     C71019   3.418  10.470   4.885 -0.4903 -0.0252 -0.5294
  527MOL0     C71020   3.554  10.533   4.871 -0.5152 -0.9708  0.9570
  527MOL0     C71021   3.670  10.434   4.830 -1.0431  0.4155 -0.6197
  527MOL0     C71022   3.811  10.495   4.860  0.1726 -0.8395  0.4765
  527MOL0     C71023   3.848  10.473   5.008  0.3929  0.4746 -0.0901
  527MOL0     C71024   3.962  10.559   5.066  0.1210  0.2248 -0.1983
  527MOL0     C71025   3.978  10.532   5.214  0.0628 -0.1182 -0.5888
  527MOL0     C71026   4.069  10.635   5.276 -0.2751 -0.8317  0.1873
  527MOL0     N71027   4.204  10.607   5.231 -0.9089 -0.4428 -0.4276
  527MOL0     C71028   4.282  10.499   5.260  0.3087 -0.5698 -0.6223
  527MOL0     C71029   4.401  10.526   5.207 -0.3405 -0.4946 -0.3098
  527MOL0     C71030   4.527  10.441   5.212 -0.0717 -0.5073 -0.7157
  527MOL0     C71031   4.651  10.519   5.187 -0.1192 -0.8557  0.2348
  527MOL0     C71032   4.787  10.462   5.187  0.4638  0.4148  0.2922
  527MOL0     C71033   4.882  10.568   5.130  0.0687 -0.3919  0.3053
  527MOL0     O71034   5.013  10.510   5.118 -0.1129  0.0337  0.1809
  527MOL0     C71035   5.118  10.586   5.067 -0.4328 -0.9903 -0.3968
  527MOL0     C71036   5.106  10.718   5.033 -0.2787  0.1776 -0.0540
  527MOL0     C71037   5.231  10.784   4.999  0.3090  0.0043  0.3172
  527MOL0     C71038   5.358  10.718   4.995 -0.6018 -0.1262 -0.3159
  527MOL0     C71039   5.486  10.796   4.964 -0.1343  0.3074 -0.0686
  527MOL0     O71040   5.601  10.728   4.928 -0.2295 -0.3389  0.4690
  527MOL0     C71041   5.721  10.782   4.908  0.1093 -0.0146  0.1952
  527MOL0     C71042   5.754  10.916   4.892  0.3703 -0.1415 -0.2518
  527MOL0     C71043   5.889  10.954   4.889 -0.6964 -0.4030 -0.0659
  527MOL0     C71044   5.989  10.867   4.904 -0.6407  0.3261 -0.1047
  527MOL0     O71045   6.123  10.903   4.899  0.2229 -0.1736  0.8588
  527MOL0     C71046   6.157  11.022   4.826 -1.2094 -0.3242  0.5828
  527MOL0     C71047   6.278  10.992   4.740  0.3751  0.3873  0.0463
  527MOL0     C71048   6.338  11.111   4.666  0.2120 -0.2000  0.6525
  527MOL0     C71049   6.223  11.201   4.612  0.5762  0.4187 -0.3521
  527MOL0     C71050   6.273  11.322   4.523 -0.1687  0.7286  0.1010
  527MOL0     C71051   6.319  11.431   4.619  0.1187 -0.8466  0.2779
  527MOL0     C71052   6.320  11.573   4.544  0.9075 -0.1171 -0.2082
  527MOL0     C71053   6.440  11.596   4.453 -0.6689  0.3667  0.3868
  527MOL0    Cl71054   6.591  11.613   4.555 -0.0884  0.0587  0.4620
  527MOL0     C71055   5.958  10.731   4.911 -0.1051  0.7786 -1.1600
  527MOL0     C71056   5.829  10.688   4.911 -0.0508 -0.1765 -0.5394
  527MOL0     O71057   5.469  10.917   4.977 -0.4884  0.1741  0.9452
  527MOL0     C71058   5.361  10.580   5.025  0.6582 -0.9302  0.0493
  527MOL0     C71059   5.242  10.518   5.067  1.0449  0.1027  0.2314
  527MOL0     N71060   4.404  10.654   5.143 -0.4234  0.1412  0.5837
  527MOL0     N71061   4.280  10.698   5.158 -0.0024 -0.1938  0.0667
  527MOL0     C71062   3.169  10.318   4.804  0.8155  0.3245 -0.0762
  527MOL0     C71063   3.028  10.326   4.794 -0.4543  0.3128 -0.0073
  527MOL0     C71064   2.603  10.440   4.612  0.1766  0.1211 -0.3742
  527MOL0     C71065   2.562  10.334   4.692  0.0744  0.3480  0.5560
  527MOL0     C71066   2.433  10.286   4.686 -0.6962 -0.7203 -0.5488
  527MOL0     C71067   2.341  10.343   4.593 -0.5176  0.1555 -0.1559
  527MOL0     O71068   2.212  10.286   4.595 -0.0561  0.0698 -1.0284
  527MOL0     C71069   2.116  10.327   4.501  0.2566  0.4371 -0.6506
  527MOL0     C71070   2.009  10.227   4.482  0.4409 -0.1331  0.0398
  527MOL0     C71071   2.063  10.102   4.405  0.1075 -1.3685  0.7076
  527MOL0     C71072   1.948  10.009   4.391 -0.3996  0.7343 -0.2679
  527MOL0     C71073   1.914   9.928   4.505 -0.8811 -0.8062 -0.0578
  527MOL0     C71074   1.885   9.855   4.593  0.6300  0.1344  0.0261
  527MOL0     C71075   2.385  10.441   4.497 -0.0121  0.3833 -0.4760
  527MOL0     C71076   2.518  10.490   4.506  1.1294 -0.4647  0.1575
  527MOL0     C71077   2.559  10.599   4.416 -1.0501 -0.4564  1.0559
  527MOL0     H71078   2.989  10.573   4.582 -3.0894 -1.3656  1.5335
  527MOL0     H71079   3.244  10.590   4.627  0.3741 -0.4415 -0.2853
  527MOL0     H71080   3.341  10.541   4.915 -0.4086 -0.1448 -0.0353
  527MOL0     H71081   3.419  10.388   4.957 -0.9768  0.3958 -0.0446
  527MOL0     H71082   3.571  10.573   4.971 -2.1865  1.2895  0.4132
  527MOL0     H71083   3.562  10.608   4.791 -2.2672 -1.1659  0.5627
  527MOL0     H71084   3.673  10.406   4.724  1.9910  1.5065 -0.9021
  527MOL0     H71085   3.659  10.340   4.885  0.0888  1.1097  0.8367
  527MOL0     H71086   3.894  10.457   4.799 -0.5339  2.0098 -2.5538
  527MOL0     H71087   3.801  10.600   4.833 -3.6533 -0.8383  1.2611
  527MOL0     H71088   3.755  10.503   5.059  0.4343  4.2594 -1.8644
  527MOL0     H71089   3.866  10.367   5.025  2.7622  0.8257 -0.1353
  527MOL0     H71090   4.060  10.531   5.028 -0.5225 -2.9858  0.2199
  527MOL0     H71091   3.953  10.667   5.051  0.9948  0.8076  2.8762
  527MOL0     H71092   4.013  10.429   5.224  3.0191  0.7597 -0.9108
  527MOL0     H71093   3.883  10.545   5.268  1.0767  0.0544  1.2242
  527MOL0     H71094   4.043  10.736   5.245  1.6205  0.5840  2.8579
  527MOL0     H71095   4.061  10.641   5.385 -0.4446  1.5066  0.1005
  527MOL0     H71096   4.247  10.413   5.315  2.7853 -1.0703  0.2882
  527MOL0     H71097   4.532  10.383   5.305 -1.5620 -0.1303 -0.3779
  527MOL0     H71098   4.513  10.360   5.140  2.3443 -0.9944 -0.7225
  527MOL0     H71099   4.633  10.575   5.095 -2.3348 -1.5821  0.1675
  527MOL0     H71100   4.653  10.592   5.268  3.6591 -0.6146  0.0964
  527MOL0     H71101   4.791  10.369   5.130 -0.9459 -0.4057  1.4524
  527MOL0     H71102   4.814  10.438   5.291 -0.0704 -0.2269  0.2917
  527MOL0     H71103   4.896  10.651   5.199 -0.9407 -0.2606  0.3688
  527MOL0     H71104   4.851  10.598   5.030 -2.9031 -0.5484  1.0948
  527MOL0     H71105   5.022  10.786   5.037 -1.1783 -0.9393  0.9090
  527MOL0     H71106   5.221  10.890   4.976  2.1779 -0.4321 -3.4122
  527MOL0     H71107   5.674  10.989   4.886 -1.7987 -2.4518 -1.2693
  527MOL0     H71108   5.914  11.060   4.885  1.4252 -0.6985  2.3799
  527MOL0     H71109   6.072  11.057   4.766 -1.9551 -1.7552  0.7656
  527MOL0     H71110   6.178  11.109   4.889  0.0099  1.0555 -1.5806
  527MOL0     H71111   6.356  10.959   4.810 -1.6316  0.3137  2.4073
  527MOL0     H71112   6.254  10.917   4.664  0.7750  1.6842 -1.4147
  527MOL0     H71113   6.393  11.174   4.736  0.8015  0.9967 -0.8128
  527MOL0     H71114   6.402  11.075   4.584 -2.8679 -4.1627 -0.3294
  527MOL0     H71115   6.167  11.245   4.695  2.0739  3.4903 -0.7868
  527MOL0     H71116   6.168  11.126   4.555  1.4338 -0.7109  0.2643
  527MOL0     H71117   6.189  11.353   4.460 -1.1655  1.1443  1.5921
  527MOL0     H71118   6.358  11.293   4.460 -1.1120  0.2337 -0.9700
  527MOL0     H71119   6.261  11.429   4.712 -0.6728 -0.0612 -0.1871
  527MOL0     H71120   6.422  11.414   4.650  0.2026 -0.9021 -0.0304
  527MOL0     H71121   6.327  11.649   4.623 -1.1183 -1.8631  1.7805
  527MOL0     H71122   6.227  11.589   4.488  2.5779  0.9952 -2.8889
  527MOL0     H71123   6.469  11.507   4.395  0.7257  0.6522  0.5991
  527MOL0     H71124   6.413  11.682   4.391 -0.1753  4.1031  4.8456
  527MOL0     H71125   6.032  10.651   4.907 -1.7203 -1.0252  1.6057
  527MOL0     H71126   5.793  10.586   4.905 -0.8833  0.2236 -4.2313
  527MOL0     H71127   5.448  10.517   5.016  1.4472  0.4424 -4.0576
  527MOL0     H71128   5.254  10.418   5.107  0.0202  0.0998  0.5410
  527MOL0     H71129   3.210  10.251   4.879  0.3819 -1.1307 -1.0869
  527MOL0     H71130   2.958  10.262   4.849 -1.2873  0.3697 -0.9613
  527MOL0     H71131   2.633  10.283   4.755  0.6252 -1.9577 -1.7497
  527MOL0     H71132   2.406  10.211   4.760 -0.0803 -1.6644 -1.2659
  527MOL0     H71133   2.167  10.330   4.404  0.9125 -1.1280 -0.3981
  527MOL0     H71134   2.081  10.426   4.530  0.4906  0.6257 -0.9966
  527MOL0     H71135   1.932  10.275   4.422  0.5011 -1.6997 -1.3764
  527MOL0     H71136   1.971  10.194   4.579  2.3766 -0.0546  0.8712
  527MOL0     H71137   2.154  10.067   4.453  0.6150  0.7371  1.4158
  527MOL0     H71138   2.095  10.132   4.304  0.2423  2.9641  1.8254
  527MOL0     H71139   1.851  10.057   4.370 -2.5926 -3.3026 -0.3241
  527MOL0     H71140   1.977   9.948   4.305 -0.8199  0.7971 -0.4570
  527MOL0     H71141   1.861   9.778   4.663  2.2267 -0.1414  0.3070
  527MOL0     H71142   2.323  10.473   4.414 -0.3294 -1.6795 -1.0958
  527MOL0     H71143   2.539  10.698   4.457 -2.1153 -0.5810  0.8658
  527MOL0     H71144   2.667  10.593   4.397 -1.0496  0.0769  0.8891
  527MOL0     H71145   2.517  10.592   4.315  0.1065 -1.2284  0.6013
  528MOL0     O71146  10.290   3.840  10.889  0.6125  0.4420 -0.4861
  528MOL0     C71147  10.353   3.919  10.964  0.6280  0.3248 -0.1665
  528MOL0     O71148  10.491   3.942  10.966  0.6076 -0.1156  0.6485
  528MOL0     C71149  10.567   3.912  10.857  0.2040 -0.5510 -0.3617
  528MOL0     C71150  10.540   3.845  10.736  0.2540 -0.2406 -0.2068
  528MOL0     C71151  10.648   3.815  10.647 -0.0491 -0.2489 -0.7324
  528MOL0     C71152  10.779   3.857  10.671  0.4587  0.2000  0.3267
  528MOL0     O71153  10.878   3.832  10.572 -0.2134  0.3851  0.0439
  528MOL0     C71154  11.019   3.845  10.608  0.1996  0.0767 -1.3653
  528MOL0     C71155  11.115   3.787  10.513  0.4613 -0.2855 -0.1101
  528MOL0     C71156  11.247   3.778  10.584 -1.3093 -0.2591 -0.0287
  528MOL0     C71157  11.347   3.745  10.467 -0.3236  1.2041 -1.3173
  528MOL0     C71158  11.495   3.709  10.511 -0.0954  0.1993 -0.4367
  528MOL0     C71159  11.495   3.592  10.610 -0.3497  0.3791  0.1100
  528MOL0     C71160  11.637   3.535  10.634 -0.0667 -0.6753  0.4664
  528MOL0     C71161  11.618   3.384  10.671 -0.0432 -0.0831  0.1468
  528MOL0     N71162  11.744   3.319  10.695  0.0541  0.3688  0.7123
  528MOL0     C71163  11.823   3.242  10.614 -0.0375 -1.2124 -0.2646
  528MOL0     C71164  11.911   3.179  10.695  0.8809 -0.6303  0.5329
  528MOL0     C71165  12.013   3.085  10.651  0.0030 -0.1111  0.7669
  528MOL0     C71166  12.158   3.123  10.684  0.3443  0.4581 -0.1795
  528MOL0     C71167  12.216   3.218  10.576  0.4758 -0.6068 -0.7362
  528MOL0     C71168  12.369   3.234  10.573  0.3691  0.1907  0.4318
  528MOL0     O71169  12.412   3.210  10.709  0.0365 -0.2034 -0.7742
  528MOL0     C71170  12.537   3.266  10.736 -0.4391  0.0858  0.8205
  528MOL0     C71171  12.651   3.187  10.695  0.9808  0.2600 -0.6455
  528MOL0     C71172  12.775   3.246  10.714  0.0718 -0.0836 -0.4696
  528MOL0     C71173  12.796   3.376  10.761 -0.3223  0.6704 -0.1367
  528MOL0     C71174  12.934   3.437  10.777  0.2989 -0.1878 -0.2465
  528MOL0     O71175  12.933   3.569  10.816  0.0406 -0.0256 -0.6154
  528MOL0     C71176  13.037   3.608  10.895  0.8169  0.4852 -0.4444
  528MOL0     C71177  13.144   3.677  10.837 -0.4110 -0.0004 -0.3026
  528MOL0     C71178  13.249   3.727  10.915  0.2497  0.3780 -0.5688
  528MOL0     C71179  13.242   3.718  11.057 -0.0977  1.2681  0.2773
  528MOL0     O71180  13.352   3.778  11.124 -0.2769  0.3303  0.0837
  528MOL0     C71181  13.344   3.778  11.268 -0.2482  0.3089 -1.4322
  528MOL0     C71182  13.440   3.887  11.308  0.4248 -0.5515 -0.1338
  528MOL0     C71183  13.429   3.935  11.454 -0.1823 -0.6428 -0.7971
  528MOL0     C71184  13.564   3.959  11.520 -0.6068  0.9656 -0.1022
  528MOL0     C71185  13.649   3.830  11.517 -0.3240  0.2140  0.0088
  528MOL0     C71186  13.738   3.818  11.647  0.4450  1.0076  1.6905
  528MOL0     C71187  13.817   3.692  11.656 -0.6800  0.2939  0.5282
  528MOL0     C71188  13.914   3.696  11.780  0.1246  0.3976  0.2692
  528MOL0    Cl71189  13.806   3.717  11.921 -0.1233 -0.0341 -0.1424
  528MOL0     C71190  13.138   3.635  11.110 -0.5094 -0.0691 -0.3131
  528MOL0     C71191  13.032   3.581  11.029  0.1327  0.1060 -0.5840
  528MOL0     O71192  13.029   3.364  10.759  0.4271  0.6075  0.0056
  528MOL0     C71193  12.686   3.450  10.807 -0.4049 -0.3630 -0.1113
  528MOL0     C71194  12.555   3.397  10.786 -0.9367  0.6007 -0.1567
  528MOL0     N71195  11.888   3.217  10.822  0.4083  0.4295  0.1642
  528MOL0     N71196  11.790   3.295  10.822 -0.2545  0.7299  0.6310
  528MOL0     C71197  10.802   3.933  10.784  0.5123  0.4787 -0.4805
  528MOL0     C71198  10.695   3.958  10.876 -0.0402 -0.2151 -0.2613
  528MOL0     C71199  10.274   3.991  11.057  0.1945 -0.7227 -0.7145
  528MOL0     C71200  10.337   4.116  11.097  0.3351 -0.4939  0.6460
  528MOL0     C71201  10.259   4.212  11.178  0.1480  0.4808 -0.0903
  528MOL0     C71202  10.128   4.191  11.202  0.4293 -1.3329 -0.2818
  528MOL0     O71203  10.050   4.287  11.258 -0.8383  1.3212 -0.0669
  528MOL0     C71204   9.907   4.280  11.263 -0.1806  0.2982 -0.8815
  528MOL0     C71205   9.846   4.316  11.130  0.2492  0.4382  0.4270
  528MOL0     C71206   9.872   4.469  11.088 -0.3254 -0.0749 -0.0422
  528MOL0     C71207   9.843   4.478  10.939 -0.0589 -1.1731  0.2090
  528MOL0     C71208   9.703   4.449  10.894  0.0129 -0.2470  0.1839
  528MOL0     C71209   9.589   4.442  10.857 -0.3093  0.0199  0.7969
  528MOL0     C71210  10.074   4.073  11.162 -0.5475 -0.7521  0.6461
  528MOL0     C71211  10.140   3.965  11.101 -0.1434 -1.1254 -1.1532
  528MOL0     C71212  10.057   3.838  11.063  0.4904  0.4122  0.0126
  528MOL0     H71213  10.447   3.797  10.707  0.2495 -0.8780  0.8166
  528MOL0     H71214  10.616   3.763  10.557  2.5505 -1.3300 -1.1077
  528MOL0     H71215  11.050   3.947  10.633  1.3846 -0.4948 -0.4066
  528MOL0     H71216  11.030   3.784  10.698  0.4233  3.2790  0.9094
  528MOL0     H71217  11.118   3.842  10.419 -1.1017  0.8816  0.4940
  528MOL0     H71218  11.086   3.685  10.486 -2.7066  0.8432 -1.3913
  528MOL0     H71219  11.236   3.704  10.664 -1.2810 -0.5409 -0.2850
  528MOL0     H71220  11.273   3.869  10.640  4.0636 -2.3755  1.5659
  528MOL0     H71221  11.308   3.661  10.409 -0.9491  1.2105 -0.9115
  528MOL0     H71222  11.361   3.828  10.396  1.2791  0.9084 -1.3761
  528MOL0     H71223  11.545   3.680  10.418 -0.8493  0.3666 -0.9014
  528MOL0     H71224  11.547   3.796  10.555  0.4753 -1.2393  1.9461
  528MOL0     H71225  11.448   3.612  10.707  0.3948  0.2919  0.4911
  528MOL0     H71226  11.434   3.514  10.563 -4.4943  1.0984  3.6547
  528MOL0     H71227  11.687   3.567  10.726 -0.4575  0.3064  0.3531
  528MOL0     H71228  11.695   3.562  10.545 -2.1932 -2.4835 -1.5968
  528MOL0     H71229  11.559   3.389  10.762  1.2289  0.7873  0.9619
  528MOL0     H71230  11.568   3.319  10.598  0.2033  0.4009 -0.4552
  528MOL0     H71231  11.832   3.237  10.506  1.6155  2.2367 -0.4334
  528MOL0     H71232  12.000   2.985  10.693 -1.1885 -0.3924 -0.2134
  528MOL0     H71233  12.013   3.074  10.542 -1.1710  1.1776  0.6056
  528MOL0     H71234  12.164   3.167  10.783 -0.4787 -1.3230  0.7024
  528MOL0     H71235  12.220   3.032  10.690  1.8562  1.2098 -2.6608
  528MOL0     H71236  12.169   3.315  10.595 -0.3583 -1.0196 -0.6294
  528MOL0     H71237  12.170   3.191  10.480 -1.5408  1.8578 -0.5893
  528MOL0     H71238  12.406   3.329  10.535  1.8172  0.3408  2.0855
  528MOL0     H71239  12.420   3.160  10.511  1.9573  1.6289 -0.0470
  528MOL0     H71240  12.637   3.085  10.663 -0.5713 -0.0306  0.8316
  528MOL0     H71241  12.855   3.176  10.693  0.0063 -0.5157  0.6368
  528MOL0     H71242  13.140   3.705  10.732 -2.3651 -0.4035 -0.3678
  528MOL0     H71243  13.322   3.799  10.878  0.0835  0.5056 -0.6471
  528MOL0     H71244  13.244   3.811  11.298 -2.0231 -1.9735 -4.2688
  528MOL0     H71245  13.368   3.678  11.305  0.3411  0.1332 -2.2739
  528MOL0     H71246  13.543   3.853  11.293  1.5353  3.1854 -2.1874
  528MOL0     H71247  13.435   3.975  11.244 -1.1610  0.4325  1.2772
  528MOL0     H71248  13.372   4.029  11.450 -2.1383 -1.7793 -4.2708
  528MOL0     H71249  13.377   3.862  11.516  1.6772 -2.0762 -0.8673
  528MOL0     H71250  13.537   3.982  11.623 -1.2419  0.1055 -0.0594
  528MOL0     H71251  13.621   4.041  11.476 -0.0846  1.0006  0.6292
  528MOL0     H71252  13.726   3.834  11.439  0.7746 -0.6906  0.9875
  528MOL0     H71253  13.589   3.739  11.506 -2.0777  1.3217  0.2140
  528MOL0     H71254  13.796   3.910  11.660  0.9532  0.8982  0.3632
  528MOL0     H71255  13.663   3.827  11.727 -0.3010  4.6757  0.7974
  528MOL0     H71256  13.874   3.680  11.563 -1.2177  1.6832  0.0007
  528MOL0     H71257  13.746   3.610  11.668 -3.8338  2.8065  0.2900
  528MOL0     H71258  13.971   3.603  11.785  0.9607  0.7957 -1.2438
  528MOL0     H71259  13.990   3.775  11.775  0.1054  0.3738 -0.6811
  528MOL0     H71260  13.133   3.627  11.218  0.5361  1.2033 -0.1552
  528MOL0     H71261  12.946   3.525  11.065  2.0603 -2.1279  0.8597
  528MOL0     H71262  12.689   3.549  10.849  1.1685 -0.5353  0.2124
  528MOL0     H71263  12.474   3.459  10.823 -0.6858 -0.9604  3.3358
  528MOL0     H71264  10.905   3.960  10.804  1.3044 -3.1181  1.1296
  528MOL0     H71265  10.717   4.014  10.966 -0.9349 -2.7531  1.6768
  528MOL0     H71266  10.435   4.151  11.068 -1.1561  2.8875 -0.8368
  528MOL0     H71267  10.319   4.299  11.202  0.7199  0.8525 -2.5390
  528MOL0     H71268   9.890   4.352  11.344  1.6150  1.1289 -1.1806
  528MOL0     H71269   9.870   4.183  11.297  2.5253 -0.7134 -0.5539
  528MOL0     H71270   9.738   4.303  11.140  0.5064 -0.0568  3.2872
  528MOL0     H71271   9.872   4.257  11.041 -0.0723 -0.1438  0.7157
  528MOL0     H71272   9.975   4.503  11.103 -0.7833  2.5556 -2.1927
  528MOL0     H71273   9.808   4.540  11.140 -0.4099  0.1979 -0.5166
  528MOL0     H71274   9.871   4.576  10.898 -0.9038 -0.2261  1.7641
  528MOL0     H71275   9.911   4.417  10.880  0.1790  1.0854 -2.0024
  528MOL0     H71276   9.497   4.407  10.815 -0.4506  1.6167 -0.2951
  528MOL0     H71277   9.972   4.043  11.187 -0.5328 -2.7653 -1.3852
  528MOL0     H71278  10.112   3.747  11.036 -2.8444 -1.9683  0.6460
  528MOL0     H71279  10.009   3.815  11.158  2.4923  2.2475  1.5754
  528MOL0     H71280   9.991   3.862  10.980 -1.5860  0.3039  1.5553
  529MOL0     O71281   4.624   3.350   3.754 -0.1411  0.6890 -0.1659
  529MOL0     C71282   4.680   3.446   3.802 -1.1014  0.2403 -0.2603
  529MOL0     O71283   4.615   3.564   3.826  0.4496 -0.2290 -0.0845
  529MOL0     C71284   4.480   3.568   3.796 -1.6616 -0.7642 -0.8531
  529MOL0     C71285   4.435   3.639   3.686 -0.9375 -0.0840 -0.0825
  529MOL0     C71286   4.302   3.649   3.651 -0.9888 -0.0712  0.9373
  529MOL0     C71287   4.207   3.586   3.730 -0.1598 -0.1100  0.3016
  529MOL0     O71288   4.070   3.582   3.717 -0.3276 -0.4857  0.5168
  529MOL0     C71289   4.013   3.680   3.625 -0.3127  0.7806 -0.4062
  529MOL0     C71290   4.025   3.817   3.680 -0.6735 -0.1136 -0.4795
  529MOL0     C71291   3.920   3.909   3.608  0.1642  0.7669 -1.1805
  529MOL0     C71292   3.955   4.051   3.649 -0.4480 -0.2604 -0.1154
  529MOL0     C71293   3.847   4.147   3.609 -0.0934 -0.3529 -0.3880
  529MOL0     C71294   3.807   4.136   3.460  0.5826 -0.1649  0.4688
  529MOL0     C71295   3.921   4.131   3.364 -0.3793 -0.1355 -0.2274
  529MOL0     C71296   4.011   4.256   3.358  0.7311  0.3863 -0.3114
  529MOL0     N71297   4.134   4.232   3.285 -0.1074 -0.7280 -0.6945
  529MOL0     C71298   4.145   4.185   3.161  0.0820  0.4389  0.9886
  529MOL0     C71299   4.270   4.215   3.116  0.2344 -0.2065 -1.3019
  529MOL0     C71300   4.332   4.195   2.985 -0.4947  0.1395 -0.1149
  529MOL0     C71301   4.480   4.175   2.996 -0.8997 -0.5577  0.4987
  529MOL0     C71302   4.522   4.032   3.053  0.2226 -0.6744 -1.0644
  529MOL0     C71303   4.678   4.013   3.064 -0.2350 -0.0468  0.3122
  529MOL0     O71304   4.754   4.122   3.115  0.2260 -0.4187  0.7676
  529MOL0     C71305   4.876   4.165   3.056  1.2617 -0.2284  0.2238
  529MOL0     C71306   4.948   4.100   2.959 -0.9880 -0.2640 -0.9233
  529MOL0     C71307   5.065   4.164   2.899  1.2512  0.6704  0.8563
  529MOL0     C71308   5.094   4.298   2.934  0.4164  0.6175  0.0346
  529MOL0     C71309   5.207   4.366   2.871 -0.4136  0.6616  0.2939
  529MOL0     O71310   5.278   4.294   2.775  0.7570 -0.5710 -0.3404
  529MOL0     C71311   5.385   4.356   2.723  0.1322  0.4967 -0.2048
  529MOL0     C71312   5.498   4.276   2.714 -0.2056 -1.2130  0.3687
  529MOL0     C71313   5.611   4.321   2.650 -0.5763 -0.0583 -0.6307
  529MOL0     C71314   5.623   4.450   2.595  0.7922  0.3383  0.4206
  529MOL0     O71315   5.734   4.490   2.538  0.0772  0.1564 -0.1081
  529MOL0     C71316   5.760   4.631   2.546 -0.4115  0.2548 -0.3716
  529MOL0     C71317   5.901   4.657   2.515 -0.4101 -0.0718  0.2173
  529MOL0     C71318   5.932   4.808   2.489 -0.5596 -0.4181  0.0034
  529MOL0     C71319   6.086   4.831   2.499 -0.0148  0.7905 -0.6701
  529MOL0     C71320   6.131   4.971   2.449  0.0243 -0.5052 -0.7308
  529MOL0     C71321   6.262   4.960   2.388  0.6960 -0.2617  0.5827
  529MOL0     C71322   6.277   5.081   2.293 -0.7106  0.2434  0.6796
  529MOL0     C71323   6.388   5.080   2.182  0.6333 -0.0077 -1.0616
  529MOL0    Cl71324   6.551   5.027   2.234 -0.5575  0.4523  0.6032
  529MOL0     C71325   5.500   4.521   2.596  0.0506  0.1660 -0.1579
  529MOL0     C71326   5.380   4.476   2.655  0.8579 -0.2633  0.2855
  529MOL0     O71327   5.229   4.480   2.898 -0.1383 -0.0595  0.2650
  529MOL0     C71328   5.016   4.361   3.023  0.0366  0.3610  0.2777
  529MOL0     C71329   4.910   4.296   3.091 -0.4223 -0.3234  0.3971
  529MOL0     N71330   4.333   4.284   3.220 -0.5552  0.2802  0.3973
  529MOL0     N71331   4.249   4.293   3.319  0.1371  0.0368  0.1084
  529MOL0     C71332   4.259   3.496   3.832 -0.3935  0.2972  0.6379
  529MOL0     C71333   4.391   3.489   3.859  0.1278  0.2490  0.0577
  529MOL0     C71334   4.834   3.459   3.820 -0.3055  0.3808  0.2000
  529MOL0     C71335   4.893   3.576   3.880 -0.1095  0.3193  0.1529
  529MOL0     C71336   5.030   3.601   3.869 -0.1446  0.5818  0.1815
  529MOL0     C71337   5.127   3.509   3.819  0.0179  0.6891  0.3306
  529MOL0     O71338   5.257   3.534   3.796  0.7797  0.7022 -0.1568
  529MOL0     C71339   5.293   3.683   3.805 -0.2111  0.7040  0.9947
  529MOL0     C71340   5.336   3.729   3.947 -0.6282  0.1490  0.4329
  529MOL0     C71341   5.467   3.659   3.992  0.4898  0.1753  0.0245
  529MOL0     C71342   5.583   3.740   3.929  0.2926  0.1624 -0.0391
  529MOL0     C71343   5.599   3.870   3.990  0.5019 -0.4544 -0.5761
  529MOL0     C71344   5.591   3.971   4.048 -0.9397 -0.3061 -0.1521
  529MOL0     C71345   5.071   3.392   3.775 -0.2108  0.4885 -0.5353
  529MOL0     C71346   4.932   3.363   3.778 -0.5561  0.7430 -0.6101
  529MOL0     C71347   4.887   3.232   3.718  0.1912  0.2148 -0.0814
  529MOL0     H71348   4.501   3.701   3.627 -3.3838  0.7753 -2.1208
  529MOL0     H71349   4.275   3.686   3.553 -0.1042 -1.2211  0.2237
  529MOL0     H71350   4.070   3.667   3.533 -0.3334 -0.7740 -0.2274
  529MOL0     H71351   3.913   3.653   3.591 -0.5679  0.8485  0.2772
  529MOL0     H71352   4.126   3.853   3.656  1.0581 -3.5533  0.9423
  529MOL0     H71353   4.006   3.821   3.787  0.0764  0.1518 -0.3476
  529MOL0     H71354   3.823   3.889   3.654  0.2197  0.1512 -1.3215
  529MOL0     H71355   3.915   3.889   3.500  0.5315 -0.7040 -0.9504
  529MOL0     H71356   3.973   4.067   3.756  0.8556  1.4646 -0.5423
  529MOL0     H71357   4.049   4.075   3.598 -0.4132  0.4134  0.2450
  529MOL0     H71358   3.759   4.123   3.669  0.6312  0.9630  1.3101
  529MOL0     H71359   3.881   4.250   3.625 -0.2664 -0.0183 -2.0082
  529MOL0     H71360   3.745   4.048   3.442 -0.5081  1.3014 -4.8185
  529MOL0     H71361   3.755   4.230   3.439  0.4451  0.7275  4.0902
  529MOL0     H71362   3.875   4.132   3.265  0.6846  3.0891 -0.8260
  529MOL0     H71363   3.970   4.034   3.353 -3.6674 -1.7589 -1.8707
  529MOL0     H71364   3.964   4.338   3.303  0.7042 -0.2225 -1.2268
  529MOL0     H71365   4.036   4.294   3.457 -1.5494  0.3211  0.3286
  529MOL0     H71366   4.078   4.117   3.110  0.6790  1.1245 -0.8173
  529MOL0     H71367   4.292   4.110   2.929  2.1724  0.2321 -2.3596
  529MOL0     H71368   4.316   4.291   2.936  0.0346  0.0668 -0.4357
  529MOL0     H71369   4.513   4.182   2.892 -2.1439  1.0278  0.1789
  529MOL0     H71370   4.527   4.254   3.055  1.0298  0.2775 -1.9441
  529MOL0     H71371   4.491   3.957   2.980  0.3073 -0.9219 -0.8472
  529MOL0     H71372   4.473   4.001   3.146 -2.0472 -3.5694 -3.0478
  529MOL0     H71373   4.703   3.990   2.960 -0.1282 -1.3314  0.6081
  529MOL0     H71374   4.708   3.923   3.117  0.4006 -0.6499 -1.0152
  529MOL0     H71375   4.921   3.998   2.933 -0.7321 -0.5068 -0.2625
  529MOL0     H71376   5.126   4.111   2.827  1.5146  0.3896  1.2834
  529MOL0     H71377   5.481   4.175   2.748 -2.7499 -1.2396 -0.7401
  529MOL0     H71378   5.703   4.266   2.631  0.5673  1.5262  0.1250
  529MOL0     H71379   5.692   4.681   2.476 -2.9948  0.0241  1.8168
  529MOL0     H71380   5.745   4.666   2.648 -0.1101 -1.4828  0.3089
  529MOL0     H71381   5.960   4.616   2.598 -0.5331  1.1723  0.9351
  529MOL0     H71382   5.918   4.602   2.422 -4.5078 -1.9402  0.3355
  529MOL0     H71383   5.902   4.835   2.388  0.6291  0.8089 -0.0599
  529MOL0     H71384   5.886   4.873   2.564  0.2534  2.3394 -1.7096
  529MOL0     H71385   6.141   4.750   2.451  1.3357  0.4892  1.2554
  529MOL0     H71386   6.122   4.819   2.602 -0.8468 -1.5899 -0.5902
  529MOL0     H71387   6.144   5.044   2.530  4.8939 -2.7394  0.9007
  529MOL0     H71388   6.047   5.002   2.387  0.2882  0.9095 -0.4136
  529MOL0     H71389   6.338   4.963   2.466  0.6514  5.0531  0.7731
  529MOL0     H71390   6.280   4.874   2.324  1.6099  0.5024 -0.2204
  529MOL0     H71391   6.297   5.169   2.355  1.6815 -0.2230  0.6694
  529MOL0     H71392   6.185   5.088   2.235  0.1379 -2.1720 -1.1232
  529MOL0     H71393   6.343   5.024   2.100 -0.3170 -1.4295  0.3707
  529MOL0     H71394   6.398   5.183   2.146  1.2144 -0.1533 -1.3482
  529MOL0     H71395   5.497   4.623   2.558 -0.0444  0.7700  1.4009
  529MOL0     H71396   5.284   4.527   2.660  1.0378  0.0144  0.9822
  529MOL0     H71397   5.034   4.463   3.057 -3.9683  0.8275  1.5589
  529MOL0     H71398   4.852   4.354   3.163 -0.5747  2.0089 -1.4657
  529MOL0     H71399   4.188   3.437   3.888 -1.0762  0.1591 -0.3462
  529MOL0     H71400   4.418   3.426   3.943 -2.8613 -0.5600  0.5435
  529MOL0     H71401   4.827   3.648   3.927 -1.5883 -0.3258 -0.8512
  529MOL0     H71402   5.065   3.694   3.912 -1.1055  0.9999  0.0635
  529MOL0     H71403   5.218   3.745   3.756  0.0859  0.7483  0.5887
  529MOL0     H71404   5.383   3.692   3.743 -0.9287 -0.7560 -0.3120
  529MOL0     H71405   5.264   3.682   4.014  0.2304 -4.5273 -1.5323
  529MOL0     H71406   5.333   3.835   3.974  2.5021 -0.0127  1.8419
  529MOL0     H71407   5.475   3.553   3.965  0.2243 -0.1998  1.3614
  529MOL0     H71408   5.469   3.677   4.100  1.5161  2.3565 -0.2938
  529MOL0     H71409   5.674   3.682   3.940 -0.4602 -1.2324 -0.9167
  529MOL0     H71410   5.563   3.753   3.822 -2.0270  1.8531  0.5126
  529MOL0     H71411   5.576   4.060   4.106  0.8311 -0.4920  0.6484
  529MOL0     H71412   5.133   3.317   3.726  0.2075  0.5733 -0.1408
  529MOL0     H71413   4.828   3.177   3.792 -0.1533  0.5713 -0.0898
  529MOL0     H71414   4.831   3.257   3.627  0.1597  0.0267 -0.1138
  529MOL0     H71415   4.975   3.173   3.690  1.1139  1.8530 -0.8223
  530MOL0     O71416   6.634   7.492   2.526 -0.1110 -0.5353  0.1040
  530MOL0     C71417   6.579   7.602   2.497 -0.2560  0.4259 -0.4436
  530MOL0     O71418   6.610   7.720   2.559  0.2995  0.4348 -0.2063
  530MOL0     C71419   6.683   7.726   2.677  0.0581 -0.4830  0.2950
  530MOL0     C71420   6.727   7.858   2.713 -0.7806  0.4977  0.6500
  530MOL0     C71421   6.812   7.888   2.827  0.8617 -0.3741 -0.0305
  530MOL0     C71422   6.848   7.789   2.905 -0.0239 -0.0137  0.1505
  530MOL0     O71423   6.905   7.826   3.023  0.0952 -0.6219 -0.7097
  530MOL0     C71424   6.961   7.724   3.116  0.6072 -0.1040 -0.0494
  530MOL0     C71425   7.082   7.647   3.063  0.0594  0.9274 -0.8436
  530MOL0     C71426   7.198   7.742   3.075  1.2937 -0.8391  0.5281
  530MOL0     C71427   7.324   7.698   2.988  0.3766  0.4151  0.5939
  530MOL0     C71428   7.458   7.757   3.040 -0.0849 -0.0106  0.1091
  530MOL0     C71429   7.509   7.700   3.175 -0.0088 -0.3693 -0.3991
  530MOL0     C71430   7.641   7.765   3.211 -0.4387  0.3055  1.0728
  530MOL0     C71431   7.763   7.697   3.144  0.2216 -0.8327  0.1374
  530MOL0     N71432   7.892   7.765   3.183 -0.0675  0.5791  1.4090
  530MOL0     C71433   7.933   7.880   3.127 -0.3042 -0.4698  0.1172
  530MOL0     C71434   8.018   7.934   3.218 -0.3488 -0.2245  0.0400
  530MOL0     C71435   8.076   8.073   3.194 -0.4508  0.4281  0.6194
  530MOL0     C71436   8.221   8.059   3.184 -0.3151  0.7914  0.1333
  530MOL0     C71437   8.290   8.193   3.150  0.5195  0.0426  0.0868
  530MOL0     C71438   8.439   8.176   3.151 -0.0005  0.1503 -0.1916
  530MOL0     O71439   8.489   8.204   3.279 -0.3494 -0.2677  0.0756
  530MOL0     C71440   8.611   8.259   3.285  0.1276  0.2563 -1.3643
  530MOL0     C71441   8.612   8.372   3.351 -0.4940  0.5753 -0.2109
  530MOL0     C71442   8.732   8.440   3.367 -0.7525 -0.1031 -0.2287
  530MOL0     C71443   8.850   8.398   3.292 -0.8047  0.1748  0.0082
  530MOL0     C71444   8.971   8.480   3.287 -0.0117 -0.6930  0.4724
  530MOL0     O71445   8.960   8.614   3.330  0.0597 -0.8262 -0.0177
  530MOL0     C71446   9.077   8.671   3.359 -0.6696 -0.0985 -0.1670
  530MOL0     C71447   9.181   8.619   3.438  0.5943 -1.2227 -0.3212
  530MOL0     C71448   9.297   8.699   3.464  0.6612 -0.2666 -0.4619
  530MOL0     C71449   9.315   8.827   3.410  0.5836  0.0867 -0.3020
  530MOL0     O71450   9.423   8.908   3.443 -0.5381  0.1687  0.1466
  530MOL0     C71451   9.482   8.896   3.567 -0.9605 -0.1167 -0.0846
  530MOL0     C71452   9.618   8.979   3.573  0.5405  0.2120  0.6351
  530MOL0     C71453   9.683   9.008   3.703  0.2476 -0.5307 -0.3229
  530MOL0     C71454   9.736   8.897   3.793  0.1277 -0.2239 -0.5808
  530MOL0     C71455   9.815   8.956   3.914  0.9663  0.0327 -0.7143
  530MOL0     C71456   9.877   8.854   4.013 -0.4447 -0.6534 -0.2124
  530MOL0     C71457  10.009   8.888   4.080  0.1183 -0.0501  0.0226
  530MOL0     C71458  10.044   8.805   4.200  0.1008  0.6641 -0.1815
  530MOL0    Cl71459  10.176   8.883   4.290 -0.0284 -0.0455  0.0016
  530MOL0     C71460   9.219   8.871   3.322  0.0232 -0.1372 -0.2747
  530MOL0     C71461   9.103   8.796   3.299  0.0655 -0.7269  0.7435
  530MOL0     O71462   9.069   8.431   3.237  0.0126  0.9666  0.4279
  530MOL0     C71463   8.838   8.272   3.223 -1.0512  0.2795  0.2412
  530MOL0     C71464   8.723   8.206   3.221  0.4870  0.2704  0.6165
  530MOL0     N71465   8.029   7.841   3.322 -0.7765  0.0603 -0.5553
  530MOL0     N71466   7.960   7.737   3.296 -0.5535 -0.9790  0.4604
  530MOL0     C71467   6.805   7.656   2.879  0.7497  0.8955 -1.3132
  530MOL0     C71468   6.725   7.629   2.763 -0.0650 -0.0285  0.1826
  530MOL0     C71469   6.497   7.584   2.375 -0.9256 -0.9551 -0.0419
  530MOL0     C71470   6.506   7.462   2.303 -1.2370 -0.3488  0.7420
  530MOL0     C71471   6.423   7.433   2.193  1.1517  0.6280  0.4892
  530MOL0     C71472   6.335   7.533   2.144 -0.0129 -0.1293 -1.0003
  530MOL0     O71473   6.252   7.528   2.039  0.0500 -0.2105  0.1266
  530MOL0     C71474   6.223   7.403   1.978 -0.6239 -0.7159  0.0655
  530MOL0     C71475   6.125   7.322   2.072  0.5265  0.0356  0.6119
  530MOL0     C71476   5.976   7.366   2.095  0.4523 -0.8107 -0.2337
  530MOL0     C71477   5.875   7.368   1.981 -0.5049  0.6251  0.2529
  530MOL0     C71478   5.871   7.499   1.920 -0.2128  0.2898 -0.3253
  530MOL0     C71479   5.844   7.608   1.878  0.1572  0.2058 -0.7327
  530MOL0     C71480   6.326   7.654   2.221  1.2278  0.1098  1.0180
  530MOL0     C71481   6.407   7.681   2.334  1.0558 -0.9154 -0.8290
  530MOL0     C71482   6.383   7.808   2.406 -0.2773 -0.1960  0.0384
  530MOL0     H71483   6.694   7.939   2.648 -1.0075 -1.1252 -1.3316
  530MOL0     H71484   6.839   7.987   2.863  2.2589 -0.5219 -0.6117
  530MOL0     H71485   6.991   7.774   3.209  1.5350 -2.0779  0.7597
  530MOL0     H71486   6.876   7.661   3.144 -1.0882  2.1288  0.0536
  530MOL0     H71487   7.072   7.592   2.969 -0.7178 -0.4995  0.0254
  530MOL0     H71488   7.108   7.572   3.139 -0.3349 -0.6365 -2.2113
  530MOL0     H71489   7.216   7.746   3.183  0.4898 -4.8776  0.9524
  530MOL0     H71490   7.161   7.841   3.047  1.5907  0.6978  4.7889
  530MOL0     H71491   7.325   7.590   2.999  1.0538  0.4431  0.8325
  530MOL0     H71492   7.306   7.715   2.882 -0.9173 -0.1697  0.6954
  530MOL0     H71493   7.532   7.739   2.962  0.5770  1.8069  0.2563
  530MOL0     H71494   7.439   7.864   3.057 -0.0387  0.0440 -0.1750
  530MOL0     H71495   7.435   7.739   3.246  0.7197  0.8367 -0.2628
  530MOL0     H71496   7.514   7.591   3.182 -1.1450 -0.4274 -0.2500
  530MOL0     H71497   7.656   7.764   3.320  1.0357  2.8643  0.9786
  530MOL0     H71498   7.637   7.868   3.174  2.0492  1.0573  2.5886
  530MOL0     H71499   7.764   7.597   3.189  1.3300 -2.3611 -2.9936
  530MOL0     H71500   7.756   7.685   3.036  0.9639  2.5596 -0.3907
  530MOL0     H71501   7.892   7.925   3.037 -3.4249 -1.0516  1.1255
  530MOL0     H71502   8.035   8.116   3.103  0.0675  1.1473  0.7208
  530MOL0     H71503   8.045   8.141   3.274 -0.9649  0.6711  0.2219
  530MOL0     H71504   8.250   8.024   3.283 -1.8215  0.1289  0.3660
  530MOL0     H71505   8.245   7.991   3.102  1.5225  2.8763 -1.1839
  530MOL0     H71506   8.271   8.276   3.218  2.2169  1.0821 -0.6426
  530MOL0     H71507   8.259   8.213   3.047  0.4366 -2.7496 -0.5289
  530MOL0     H71508   8.479   8.247   3.078 -1.6992 -0.9984 -2.3500
  530MOL0     H71509   8.475   8.078   3.119  2.6542  0.7065  0.8135
  530MOL0     H71510   8.518   8.395   3.400 -1.5113  0.1196 -1.8676
  530MOL0     H71511   8.742   8.525   3.434 -0.9249 -0.0177 -0.3101
  530MOL0     H71512   9.167   8.528   3.495  0.0900  1.2078  3.8332
  530MOL0     H71513   9.379   8.651   3.517 -1.0336 -1.4309  1.2507
  530MOL0     H71514   9.412   8.932   3.643  2.6255  3.9458  1.7636
  530MOL0     H71515   9.500   8.791   3.589  1.2327  0.4118  0.9532
  530MOL0     H71516   9.684   8.923   3.506 -1.2171  0.1919 -1.2032
  530MOL0     H71517   9.601   9.076   3.524  1.4469  0.6668  1.2021
  530MOL0     H71518   9.769   9.068   3.674  0.0845 -0.5785 -0.9219
  530MOL0     H71519   9.622   9.066   3.773 -0.5565 -1.6095 -0.1073
  530MOL0     H71520   9.812   8.832   3.749 -1.0903 -1.8491 -0.3738
  530MOL0     H71521   9.652   8.832   3.821  0.3124 -0.1520  0.1622
  530MOL0     H71522   9.748   9.025   3.966 -0.7422  0.2608 -3.0800
  530MOL0     H71523   9.890   9.026   3.877 -1.7997  4.7773  1.7190
  530MOL0     H71524   9.794   8.837   4.082  0.0305  0.1990  0.5910
  530MOL0     H71525   9.905   8.762   3.961  0.8015 -1.4014  1.6997
  530MOL0     H71526  10.000   8.988   4.125 -4.8009 -0.6846  1.0078
  530MOL0     H71527  10.089   8.885   4.005 -0.4837 -2.6297 -0.6095
  530MOL0     H71528   9.952   8.781   4.254 -0.5875  3.8339  0.2728
  530MOL0     H71529  10.090   8.707   4.184  1.3673  1.0867  0.7681
  530MOL0     H71530   9.229   8.966   3.271  2.2209  1.2932  2.5552
  530MOL0     H71531   9.020   8.835   3.241  1.7148 -0.0543 -1.2757
  530MOL0     H71532   8.919   8.235   3.161 -0.7341  1.8701 -0.3520
  530MOL0     H71533   8.722   8.119   3.156 -0.9567  0.2070  0.6872
  530MOL0     H71534   6.815   7.567   2.941 -0.5234  1.1442 -0.7000
  530MOL0     H71535   6.692   7.526   2.755 -1.0565 -0.1725  4.2145
  530MOL0     H71536   6.578   7.380   2.312  0.4903 -0.2752 -6.2222
  530MOL0     H71537   6.429   7.333   2.153  2.3746  1.3200 -1.1600
  530MOL0     H71538   6.314   7.351   1.946 -0.5082  1.0819 -2.8074
  530MOL0     H71539   6.172   7.434   1.887 -1.3245 -1.5935  0.1428
  530MOL0     H71540   6.159   7.313   2.176 -2.4346  0.6177  1.7368
  530MOL0     H71541   6.122   7.219   2.036  0.6615  0.4072 -0.5147
  530MOL0     H71542   5.980   7.465   2.143  0.4878 -1.3228  0.8578
  530MOL0     H71543   5.932   7.297   2.168  2.4291 -2.4179 -0.4561
  530MOL0     H71544   5.898   7.290   1.908 -0.9317  0.4632  0.2916
  530MOL0     H71545   5.772   7.341   2.006 -0.4774 -1.4546 -1.5349
  530MOL0     H71546   5.828   7.701   1.827 -0.3963  1.6454  1.8638
  530MOL0     H71547   6.264   7.729   2.175 -0.1383 -2.5917 -1.8933
  530MOL0     H71548   6.306   7.873   2.364 -0.2972 -0.3136 -0.1087
  530MOL0     H71549   6.345   7.789   2.506  0.3554 -0.5199  0.2196
  530MOL0     H71550   6.477   7.862   2.408 -0.3023  0.1729 -2.9240
  531MOL0     O71551   3.965   3.742   9.601 -0.4595 -0.7470 -0.8432
  531MOL0     C71552   4.021   3.658   9.536  0.1660 -0.1934 -0.2722
  531MOL0     O71553   3.986   3.625   9.411 -0.0918 -0.3987 -0.6724
  531MOL0     C71554   3.884   3.698   9.362  0.4995 -0.3018  0.1751
  531MOL0     C71555   3.892   3.824   9.308 -0.3121 -0.0446 -0.0609
  531MOL0     C71556   3.775   3.880   9.254  0.3472  0.3672 -0.9050
  531MOL0     C71557   3.649   3.816   9.268  0.0685 -0.3734  0.8511
  531MOL0     O71558   3.526   3.844   9.210 -0.5556 -0.1018  0.0802
  531MOL0     C71559   3.528   3.960   9.133  0.4106  0.5968 -0.2439
  531MOL0     C71560   3.382   3.984   9.086 -0.4408 -0.1727  0.0370
  531MOL0     C71561   3.286   3.985   9.205 -0.4519 -0.6087  0.0109
  531MOL0     C71562   3.142   4.042   9.183 -0.2256  0.0776  0.0998
  531MOL0     C71563   3.071   4.047   9.318 -0.5303  0.5531 -1.1682
  531MOL0     C71564   2.987   4.171   9.339  0.1119 -0.1689  0.1272
  531MOL0     C71565   2.877   4.187   9.236  0.3074 -0.7046  1.0438
  531MOL0     C71566   2.787   4.320   9.250  1.3592 -0.0450 -0.3800
  531MOL0     N71567   2.684   4.302   9.357  0.4443 -0.2608 -0.3569
  531MOL0     C71568   2.565   4.237   9.336  0.6720 -0.0897 -0.6480
  531MOL0     C71569   2.498   4.244   9.453 -0.2998 -0.6153  0.2931
  531MOL0     C71570   2.367   4.178   9.478  1.0937  1.0753 -0.2195
  531MOL0     C71571   2.393   4.062   9.576 -0.4180  0.6646 -0.8958
  531MOL0     C71572   2.446   3.945   9.499 -0.5910 -0.1221 -0.0919
  531MOL0     C71573   2.439   3.816   9.582 -0.3062 -0.0730 -0.2565
  531MOL0     O71574   2.503   3.711   9.506 -0.2866 -0.0660  0.4556
  531MOL0     C71575   2.647   3.694   9.516 -0.3471 -0.3708 -0.4118
  531MOL0     C71576   2.726   3.789   9.578 -0.8699  0.3489 -0.2648
  531MOL0     C71577   2.868   3.764   9.582 -0.0847  0.3450  0.2990
  531MOL0     C71578   2.929   3.649   9.524  0.1266  0.0690  0.1449
  531MOL0     C71579   3.082   3.635   9.519  0.3033  0.2727  0.0472
  531MOL0     O71580   3.147   3.717   9.608 -0.4331  0.8473 -0.1296
  531MOL0     C71581   3.266   3.659   9.653  0.7728 -0.4885 -0.0422
  531MOL0     C71582   3.248   3.549   9.738 -0.1686 -0.5728 -0.3735
  531MOL0     C71583   3.360   3.480   9.776  0.7808  0.0603 -0.3103
  531MOL0     C71584   3.493   3.512   9.731 -0.3392  0.1129  0.7456
  531MOL0     O71585   3.607   3.447   9.757 -0.0471 -0.4162  0.9377
  531MOL0     C71586   3.608   3.305   9.749 -0.2445  0.1784  0.1936
  531MOL0     C71587   3.752   3.263   9.723 -0.2177 -0.4175 -0.2820
  531MOL0     C71588   3.847   3.302   9.834 -0.0646 -0.1441  0.3080
  531MOL0     C71589   3.996   3.281   9.775  0.9370 -0.2256 -0.4850
  531MOL0     C71590   4.092   3.269   9.889  1.4850 -0.1277 -0.3283
  531MOL0     C71591   4.234   3.216   9.852  0.5518 -0.7871  0.2663
  531MOL0     C71592   4.319   3.208   9.967  0.6454  0.3953  0.0948
  531MOL0     C71593   4.446   3.131   9.938 -0.2071  0.5070 -1.1335
  531MOL0    Cl71594   4.567   3.171  10.073  0.0780 -0.3229  0.3104
  531MOL0     C71595   3.507   3.623   9.645 -0.1145  1.1225 -0.0257
  531MOL0     C71596   3.394   3.698   9.609  0.4498  0.0772  0.3179
  531MOL0     O71597   3.135   3.545   9.449 -0.3967 -0.5709  0.2962
  531MOL0     C71598   2.849   3.562   9.447 -0.4796 -0.2629  0.1735
  531MOL0     C71599   2.709   3.587   9.451  0.3987 -0.0961 -0.0998
  531MOL0     N71600   2.574   4.321   9.535  0.6134 -0.3821 -0.0681
  531MOL0     N71601   2.691   4.345   9.486 -0.0178  0.1799 -0.6605
  531MOL0     C71602   3.646   3.694   9.334  0.2747  0.4806  0.3267
  531MOL0     C71603   3.757   3.631   9.385 -1.3325 -0.6833 -0.0696
  531MOL0     C71604   4.155   3.610   9.598  0.2371 -1.1033  0.3961
  531MOL0     C71605   4.227   3.524   9.518 -0.0493  0.8289 -0.3661
  531MOL0     C71606   4.352   3.475   9.556 -0.5565 -0.4297 -1.3196
  531MOL0     C71607   4.415   3.514   9.677 -0.3228 -0.7481 -0.3725
  531MOL0     O71608   4.539   3.467   9.711  0.3608 -0.0441 -0.2528
  531MOL0     C71609   4.592   3.513   9.837 -0.5362  0.6407 -0.0974
  531MOL0     C71610   4.743   3.495   9.859 -0.2855  0.0583 -0.2922
  531MOL0     C71611   4.791   3.352   9.848  0.0247  0.0268  0.7717
  531MOL0     C71612   4.942   3.333   9.875 -0.1558  0.3698  0.4878
  531MOL0     C71613   5.029   3.395   9.774 -0.0323 -0.6546 -0.1366
  531MOL0     C71614   5.111   3.454   9.709 -0.5600 -0.4879  0.0096
  531MOL0     C71615   4.329   3.587   9.765 -0.2428  0.6627  0.2341
  531MOL0     C71616   4.208   3.642   9.727 -0.3177 -0.1372  0.5676
  531MOL0     C71617   4.124   3.722   9.826  0.4655  0.0631 -0.8029
  531MOL0     H71618   3.994   3.860   9.319  0.1999 -1.7393  1.1825
  531MOL0     H71619   3.785   3.980   9.213 -1.6799  1.4026  0.9303
  531MOL0     H71620   3.567   4.049   9.184 -0.1403  0.4344  0.4629
  531MOL0     H71621   3.587   3.936   9.044 -0.6723 -3.6871  0.0163
  531MOL0     H71622   3.350   3.911   9.011 -2.4870  1.3103 -0.6118
  531MOL0     H71623   3.363   4.078   9.033  1.4510  0.5483  0.5535
  531MOL0     H71624   3.335   4.035   9.289  0.8540 -0.8071 -0.5961
  531MOL0     H71625   3.279   3.880   9.234  3.6421 -0.9925  0.1960
  531MOL0     H71626   3.151   4.146   9.151  0.1685  0.3032  0.9098
  531MOL0     H71627   3.092   3.978   9.110 -0.0416  0.0614 -0.0144
  531MOL0     H71628   3.005   3.960   9.317 -0.2084  0.2027  1.3637
  531MOL0     H71629   3.135   4.030   9.405 -2.8375  1.6738  0.8343
  531MOL0     H71630   2.943   4.159   9.439  1.6511  0.0088  0.8624
  531MOL0     H71631   3.053   4.257   9.349  0.2359 -0.2789  0.2707
  531MOL0     H71632   2.820   4.095   9.252 -2.7231  0.9675  0.5537
  531MOL0     H71633   2.906   4.181   9.131 -2.7932 -1.0166  0.1008
  531MOL0     H71634   2.850   4.407   9.269  0.1821  0.9299 -0.7627
  531MOL0     H71635   2.733   4.327   9.155 -0.0085  0.1977  0.3759
  531MOL0     H71636   2.526   4.192   9.246 -0.6659 -1.2428  0.4533
  531MOL0     H71637   2.294   4.245   9.525 -0.3852  1.4204 -2.8264
  531MOL0     H71638   2.322   4.135   9.388  3.1885  2.0212 -1.7982
  531MOL0     H71639   2.467   4.089   9.653 -0.0490 -0.2704 -0.9070
  531MOL0     H71640   2.299   4.034   9.623  0.7387 -1.6565  0.1846
  531MOL0     H71641   2.546   3.967   9.459 -0.2967 -2.5614 -0.8587
  531MOL0     H71642   2.386   3.922   9.410 -0.3120  1.8004 -0.8203
  531MOL0     H71643   2.335   3.783   9.593  0.4529 -2.1452  1.4249
  531MOL0     H71644   2.485   3.826   9.681  1.1646 -1.2849 -0.7774
  531MOL0     H71645   2.674   3.866   9.634 -0.9846  0.7791 -0.9400
  531MOL0     H71646   2.928   3.836   9.637  0.7682  1.8355 -2.4403
  531MOL0     H71647   3.148   3.522   9.770 -0.9512  2.5466  0.1797
  531MOL0     H71648   3.344   3.393   9.839 -0.3107 -1.5981 -2.7328
  531MOL0     H71649   3.568   3.261   9.841 -1.9471 -0.9683 -1.0483
  531MOL0     H71650   3.544   3.274   9.666 -1.8952  1.3639  0.9790
  531MOL0     H71651   3.753   3.154   9.708 -0.9407 -0.2075 -2.1021
  531MOL0     H71652   3.796   3.306   9.633  1.9144 -1.6853  0.0834
  531MOL0     H71653   3.838   3.409   9.856 -0.0857  0.3004 -1.6715
  531MOL0     H71654   3.836   3.238   9.921 -1.9208  0.2163  0.3754
  531MOL0     H71655   4.030   3.355   9.702 -0.6582 -0.8311 -1.9159
  531MOL0     H71656   3.990   3.191   9.714  1.8024  0.3399 -1.4439
  531MOL0     H71657   4.037   3.205   9.959 -0.3926 -0.3482 -1.9369
  531MOL0     H71658   4.097   3.368   9.937  0.1540 -0.6058  0.8808
  531MOL0     H71659   4.234   3.120   9.800  1.2347 -0.7641  0.2140
  531MOL0     H71660   4.272   3.276   9.769 -0.5512 -2.1230 -1.2630
  531MOL0     H71661   4.274   3.173  10.061 -2.5724  2.0983 -0.6596
  531MOL0     H71662   4.345   3.312   9.989 -1.1666  0.4707  2.3660
  531MOL0     H71663   4.431   3.023   9.927  2.5325  0.1512 -2.3108
  531MOL0     H71664   4.479   3.159   9.837 -2.9527 -1.7168 -2.8188
  531MOL0     H71665   3.608   3.635   9.605  0.4808 -0.8569  0.7798
  531MOL0     H71666   3.404   3.768   9.527  1.0803  0.0343  0.3557
  531MOL0     H71667   2.880   3.477   9.387 -2.1002  0.8821 -2.5011
  531MOL0     H71668   2.645   3.512   9.405  1.2055 -0.5742 -0.4771
  531MOL0     H71669   3.553   3.644   9.360 -0.0207  1.9506  2.2923
  531MOL0     H71670   3.762   3.539   9.442  2.4407 -0.0782  0.8441
  531MOL0     H71671   4.180   3.477   9.432 -3.3911  0.2441  1.6187
  531MOL0     H71672   4.415   3.410   9.497  0.3738 -0.6160 -0.1412
  531MOL0     H71673   4.540   3.466   9.921  0.2981 -0.8953 -0.4030
  531MOL0     H71674   4.581   3.622   9.843  1.2460  0.7731  2.7274
  531MOL0     H71675   4.773   3.544   9.951  0.3056  1.1441 -1.0458
  531MOL0     H71676   4.793   3.558   9.785  2.9534  1.2725  2.6554
  531MOL0     H71677   4.770   3.331   9.743  0.3795  0.8690  0.5178
  531MOL0     H71678   4.746   3.281   9.916  0.8999 -1.4580 -0.1430
  531MOL0     H71679   4.972   3.365   9.975  1.1690 -0.1941  0.2937
  531MOL0     H71680   4.939   3.224   9.867  1.3698  0.4343 -2.4654
  531MOL0     H71681   5.192   3.499   9.655 -0.2519  0.2486  1.0618
  531MOL0     H71682   4.357   3.601   9.869 -1.5472  2.8619  0.3348
  531MOL0     H71683   4.176   3.744   9.920 -0.4545  0.4871 -0.3677
  531MOL0     H71684   4.098   3.820   9.786  2.2173  0.6731 -0.5261
  531MOL0     H71685   4.032   3.672   9.859  0.4055  0.0964 -0.9199
  532MOL0     O71686   2.991   8.398   1.852 -0.9991  0.1719  0.7800
  532MOL0     C71687   2.942   8.508   1.879  0.0200 -0.6941  0.0506
  532MOL0     O71688   2.960   8.628   1.812  0.6862 -0.6157  0.4982
  532MOL0     C71689   3.076   8.637   1.736 -0.7996  0.1192 -0.2755
  532MOL0     C71690   3.192   8.692   1.792  0.7019 -0.7526 -0.9566
  532MOL0     C71691   3.313   8.688   1.720 -0.7419 -0.2619  0.5463
  532MOL0     C71692   3.321   8.640   1.592 -0.5862 -0.5089 -0.3116
  532MOL0     O71693   3.436   8.664   1.519  0.0662  0.2278 -0.0643
  532MOL0     C71694   3.444   8.676   1.381  0.1407  0.0161  0.4878
  532MOL0     C71695   3.575   8.616   1.338  1.1452  0.4760  0.1428
  532MOL0     C71696   3.693   8.704   1.368 -1.2606  0.1877  0.8106
  532MOL0     C71697   3.826   8.625   1.366 -0.1413  0.7875  0.2013
  532MOL0     C71698   3.933   8.706   1.440  1.5826 -0.0370  0.1079
  532MOL0     C71699   4.064   8.643   1.405  0.1429  0.9723  1.2810
  532MOL0     C71700   4.184   8.724   1.465  0.3731  0.4353  0.2227
  532MOL0     C71701   4.315   8.655   1.448  0.2962  0.5429  0.6997
  532MOL0     N71702   4.357   8.673   1.308 -0.6792 -0.3103  1.0615
  532MOL0     C71703   4.358   8.787   1.229 -0.7805  0.0466  0.7180
  532MOL0     C71704   4.386   8.744   1.104  0.8570 -0.0734  0.2932
  532MOL0     C71705   4.397   8.822   0.978 -0.6293  0.1502 -0.1889
  532MOL0     C71706   4.535   8.876   0.956 -0.1425  0.1072 -0.0628
  532MOL0     C71707   4.529   8.995   0.856 -0.2173 -0.8339 -0.5135
  532MOL0     C71708   4.650   9.086   0.879 -0.0975 -0.1327 -0.3726
  532MOL0     O71709   4.632   9.159   1.004 -1.0135  0.3620  0.7659
  532MOL0     C71710   4.730   9.246   1.046  0.4304  0.4478  0.6301
  532MOL0     C71711   4.715   9.303   1.173  0.1990 -0.9127  1.0727
  532MOL0     C71712   4.810   9.395   1.220 -0.1917 -0.0118  0.7364
  532MOL0     C71713   4.914   9.438   1.137 -0.0675  0.4240 -0.0194
  532MOL0     C71714   5.011   9.541   1.163  0.3309  0.6617 -0.1913
  532MOL0     O71715   5.122   9.551   1.075  0.3818 -0.1688 -0.3788
  532MOL0     C71716   5.203   9.660   1.108  0.1845  0.4940  0.5029
  532MOL0     C71717   5.301   9.624   1.199  0.4162 -0.2822  0.2832
  532MOL0     C71718   5.403   9.716   1.221  0.2508  0.1394  0.8249
  532MOL0     C71719   5.404   9.845   1.160  0.2755  0.4484  0.0080
  532MOL0     O71720   5.501   9.944   1.177  0.7848 -0.7062  0.0778
  532MOL0     C71721   5.621   9.920   1.255  0.4493  0.2459 -0.2083
  532MOL0     C71722   5.748   9.995   1.222  0.4139 -0.2930 -0.1135
  532MOL0     C71723   5.865   9.922   1.294 -0.1029 -0.4491 -0.5664
  532MOL0     C71724   6.000   9.991   1.270  0.4502  0.5103  0.0601
  532MOL0     C71725   6.020  10.127   1.337 -0.6148  0.9412 -0.4584
  532MOL0     C71726   6.035  10.110   1.495  0.0968  0.5153 -0.2069
  532MOL0     C71727   6.025  10.241   1.585  0.2050 -0.0728 -0.0908
  532MOL0     C71728   6.052  10.204   1.734 -1.7414 -0.0744  0.4440
  532MOL0    Cl71729   6.217  10.121   1.765  0.0232  0.4162  0.0843
  532MOL0     C71730   5.297   9.873   1.077 -0.2822 -1.0076 -0.2804
  532MOL0     C71731   5.201   9.781   1.047  0.5962 -0.1236 -0.2760
  532MOL0     O71732   4.999   9.598   1.270  0.1611 -0.4309  0.8380
  532MOL0     C71733   4.925   9.373   1.013  0.3269 -0.0432  0.3755
  532MOL0     C71734   4.838   9.273   0.969 -0.6363 -0.6101  0.0277
  532MOL0     N71735   4.391   8.608   1.105 -0.2870 -0.4773  0.3306
  532MOL0     N71736   4.361   8.569   1.224 -0.4871  0.2813 -0.7784
  532MOL0     C71737   3.208   8.576   1.547  0.4159  0.6666 -0.3385
  532MOL0     C71738   3.088   8.566   1.617  0.8343 -0.4988 -0.8986
  532MOL0     C71739   2.844   8.506   1.989 -0.3530  0.3062 -0.4105
  532MOL0     C71740   2.855   8.609   2.083  0.5699  0.1120  0.0593
  532MOL0     C71741   2.758   8.612   2.182  0.4449  0.5501 -0.4859
  532MOL0     C71742   2.638   8.536   2.186  0.5566  0.4412  0.4330
  532MOL0     O71743   2.521   8.564   2.263 -1.2084  0.5973  0.0177
  532MOL0     C71744   2.410   8.477   2.258 -0.0807 -0.2623  0.1030
  532MOL0     C71745   2.287   8.554   2.313  0.2608 -0.1592 -0.3390
  532MOL0     C71746   2.156   8.508   2.253  0.6093 -0.0597  0.4413
  532MOL0     C71747   2.042   8.596   2.252  0.7465 -0.2808 -0.0180
  532MOL0     C71748   2.017   8.635   2.391  0.8633  0.0883 -0.4818
  532MOL0     C71749   1.992   8.664   2.509  0.6163  0.6230 -0.6527
  532MOL0     C71750   2.634   8.431   2.098 -0.3489 -0.5162  1.0628
  532MOL0     C71751   2.736   8.415   1.999 -0.4626 -0.5126  0.7146
  532MOL0     C71752   2.721   8.309   1.893 -0.2967  0.3320  0.1314
  532MOL0     H71753   3.194   8.742   1.888  0.3197 -0.1220 -1.2764
  532MOL0     H71754   3.399   8.746   1.751  0.1148 -0.7766 -0.7389
  532MOL0     H71755   3.369   8.614   1.330  0.8805 -0.4558 -0.0500
  532MOL0     H71756   3.441   8.779   1.345  0.1250 -0.1761 -0.0710
  532MOL0     H71757   3.578   8.593   1.231 -0.0060 -4.7372  0.9807
  532MOL0     H71758   3.574   8.516   1.382 -2.5244  0.0850 -0.4521
  532MOL0     H71759   3.676   8.737   1.471 -0.6801  1.7496  0.4445
  532MOL0     H71760   3.701   8.778   1.287 -0.7951 -4.3118 -3.7429
  532MOL0     H71761   3.808   8.528   1.413 -0.7563  0.9987  0.4240
  532MOL0     H71762   3.844   8.612   1.259 -3.0103 -1.3311 -0.1583
  532MOL0     H71763   3.925   8.809   1.404 -2.8041 -0.0792  0.3449
  532MOL0     H71764   3.918   8.712   1.548  0.2086  4.9644 -0.1128
  532MOL0     H71765   4.070   8.541   1.443  2.0570  0.7238  0.4038
  532MOL0     H71766   4.072   8.628   1.297  0.7869  1.5644  1.2390
  532MOL0     H71767   4.167   8.742   1.571 -1.8160  3.1146 -0.4538
  532MOL0     H71768   4.175   8.829   1.434  1.0920 -0.3498 -3.0757
  532MOL0     H71769   4.393   8.698   1.511  1.2896 -0.5385  0.2646
  532MOL0     H71770   4.294   8.549   1.464 -0.0514  0.4502 -0.3032
  532MOL0     H71771   4.356   8.893   1.253 -1.4757 -0.2975  2.3718
  532MOL0     H71772   4.387   8.764   0.886  1.3208 -1.8511  0.7570
  532MOL0     H71773   4.331   8.909   0.986 -3.0496 -1.6973  1.3754
  532MOL0     H71774   4.570   8.906   1.055  0.0389 -0.8930  0.1873
  532MOL0     H71775   4.604   8.804   0.910 -0.1701  1.8268 -3.0381
  532MOL0     H71776   4.439   9.053   0.879  3.0017  4.6424 -0.0724
  532MOL0     H71777   4.541   8.952   0.756 -0.0973 -5.6244  1.2943
  532MOL0     H71778   4.661   9.153   0.793  1.3548 -1.8204 -1.5852
  532MOL0     H71779   4.741   9.025   0.874  0.1782  0.3115 -0.8400
  532MOL0     H71780   4.634   9.271   1.238 -0.0560 -0.6400  0.8928
  532MOL0     H71781   4.798   9.437   1.320  4.9564 -1.0045  2.0654
  532MOL0     H71782   5.294   9.520   1.232  1.0582 -0.0811  1.0871
  532MOL0     H71783   5.477   9.693   1.297 -0.6257 -0.0587  1.6401
  532MOL0     H71784   5.592   9.939   1.359 -3.0267 -1.9922 -0.6015
  532MOL0     H71785   5.642   9.814   1.241 -1.7061 -0.2140 -0.3015
  532MOL0     H71786   5.771   9.990   1.116 -0.2082  1.5572 -0.3786
  532MOL0     H71787   5.756  10.100   1.252  1.2957 -0.0124 -1.2720
  532MOL0     H71788   5.837   9.921   1.400 -0.6095  0.6803 -0.6664
  532MOL0     H71789   5.875   9.816   1.269 -1.5253 -0.9992  0.9989
  532MOL0     H71790   6.014   9.986   1.161  1.8007 -2.2821  0.2799
  532MOL0     H71791   6.077   9.921   1.303 -0.9417 -0.8305  0.5731
  532MOL0     H71792   5.941  10.198   1.310 -2.8577 -0.4589  1.9594
  532MOL0     H71793   6.113  10.170   1.299  0.1532 -0.0297  0.2725
  532MOL0     H71794   5.953  10.053   1.541  0.9970  1.3365  2.6248
  532MOL0     H71795   6.122  10.048   1.520 -0.7818 -0.4809  0.5104
  532MOL0     H71796   5.925  10.272   1.552  0.9009 -1.5479 -4.1864
  532MOL0     H71797   6.096  10.320   1.559 -1.5886  1.3784 -0.8552
  532MOL0     H71798   6.046  10.302   1.781 -1.2811 -0.2513  0.8817
  532MOL0     H71799   5.983  10.128   1.771  1.8840 -3.3569  1.0786
  532MOL0     H71800   5.283   9.972   1.035 -0.1181 -0.1453  1.5920
  532MOL0     H71801   5.118   9.793   0.978 -0.0957 -5.5921 -0.8062
  532MOL0     H71802   5.005   9.390   0.941 -0.1333  2.9067  0.4413
  532MOL0     H71803   4.856   9.235   0.868  2.0017  2.0257 -0.6219
  532MOL0     H71804   3.210   8.521   1.454 -0.4407  1.5994 -0.9359
  532MOL0     H71805   2.996   8.520   1.582  0.3059 -0.3817  0.2848
  532MOL0     H71806   2.931   8.684   2.066 -0.8994  1.1513 -2.4169
  532MOL0     H71807   2.762   8.702   2.242  3.8967  0.0602  0.2096
  532MOL0     H71808   2.442   8.385   2.306  4.6582  0.6077 -0.9283
  532MOL0     H71809   2.391   8.449   2.154 -0.7373 -1.5957  0.5694
  532MOL0     H71810   2.295   8.661   2.294 -5.1898  0.6815  0.4384
  532MOL0     H71811   2.284   8.553   2.422 -2.1264  0.6394 -0.3371
  532MOL0     H71812   2.127   8.416   2.305  2.1254  0.1410  1.6943
  532MOL0     H71813   2.167   8.471   2.150  1.4385 -0.5918  0.7042
  532MOL0     H71814   2.056   8.672   2.174  0.9786  1.6697  1.8253
  532MOL0     H71815   1.951   8.543   2.222 -0.1161  1.9708 -1.7189
  532MOL0     H71816   1.968   8.666   2.613  0.5224 -1.0287 -0.6238
  532MOL0     H71817   2.567   8.345   2.098  0.8433 -1.4656  1.2061
  532MOL0     H71818   2.627   8.254   1.887  0.5891 -1.2591  0.1800
  532MOL0     H71819   2.742   8.365   1.801  1.6189  2.4107  1.7109
  532MOL0     H71820   2.793   8.228   1.908  0.4449  0.8756 -0.3941
  533MOL0     O71821   1.898   9.806   7.732 -0.4435  0.4710 -0.0580
  533MOL0     C71822   1.815   9.885   7.770 -0.3074 -0.7012  0.5664
  533MOL0     O71823   1.849  10.007   7.820  0.3946  0.0581 -0.5236
  533MOL0     C71824   1.971  10.050   7.873  0.1731 -0.1582 -1.0794
  533MOL0     C71825   1.975  10.133   7.985  0.0212 -0.3761 -0.7695
  533MOL0     C71826   2.095  10.177   8.044  0.4640  0.2189 -0.1900
  533MOL0     C71827   2.210  10.126   7.988 -0.0216  0.3076  0.1598
  533MOL0     O71828   2.338  10.146   8.021 -0.0286 -0.5470  0.1089
  533MOL0     C71829   2.348  10.221   8.152 -0.2462 -0.0413 -0.2401
  533MOL0     C71830   2.493  10.201   8.198  0.5150 -0.4291 -0.1371
  533MOL0     C71831   2.599  10.272   8.114 -0.9697 -0.0721 -0.3177
  533MOL0     C71832   2.737  10.243   8.164 -0.2146 -0.0706  0.4626
  533MOL0     C71833   2.839  10.314   8.074 -1.0383  0.0427 -0.0837
  533MOL0     C71834   2.987  10.263   8.108 -0.0157 -0.0494  0.0078
  533MOL0     C71835   3.096  10.335   8.031  0.1667 -0.5097 -0.0438
  533MOL0     C71836   3.157  10.456   8.115  0.3089  0.3024  1.0695
  533MOL0     N71837   3.250  10.515   8.027 -0.5803 -0.5192  0.0413
  533MOL0     C71838   3.378  10.477   7.996 -0.7103  0.4292  0.6221
  533MOL0     C71839   3.425  10.569   7.897 -0.9975  0.7076  0.1820
  533MOL0     C71840   3.560  10.558   7.829 -0.8071 -0.1888 -0.4295
  533MOL0     C71841   3.563  10.430   7.745 -0.6820  0.5124  0.6448
  533MOL0     C71842   3.702  10.389   7.713  0.3411 -0.2435 -0.3536
  533MOL0     C71843   3.771  10.498   7.631  0.0679 -0.2225 -0.4799
  533MOL0     O71844   3.864  10.454   7.528 -0.2632  0.4456 -0.2106
  533MOL0     C71845   3.997  10.460   7.555  0.5505 -0.2574  0.5516
  533MOL0     C71846   4.093  10.359   7.527  1.4084  0.9002 -0.5602
  533MOL0     C71847   4.227  10.384   7.542  0.2576 -0.1477  0.5233
  533MOL0     C71848   4.277  10.509   7.585  0.0852 -0.5397 -0.3545
  533MOL0     C71849   4.422  10.534   7.599  0.2523 -0.0197  0.1630
  533MOL0     O71850   4.459  10.655   7.651  0.2951  1.1121 -0.2733
  533MOL0     C71851   4.590  10.673   7.696  0.9309  0.3464 -0.1237
  533MOL0     C71852   4.654  10.790   7.665 -0.4026 -0.2360 -0.1620
  533MOL0     C71853   4.769  10.825   7.733 -0.3606 -0.7995  0.9826
  533MOL0     C71854   4.809  10.753   7.846  0.1638 -0.6213 -0.6816
  533MOL0     O71855   4.911  10.794   7.934 -0.6034  1.4780  0.4884
  533MOL0     C71856   5.004  10.900   7.876  0.2926  0.1396 -1.0540
  533MOL0     C71857   5.123  10.924   7.978 -0.0060 -0.9110  0.2155
  533MOL0     C71858   5.215  11.035   7.921  0.5503  0.0766  0.2464
  533MOL0     C71859   5.369  11.008   7.934  0.2510 -0.3894 -0.9565
  533MOL0     C71860   5.443  11.075   7.818 -1.1636  0.4808 -0.1685
  533MOL0     C71861   5.594  11.040   7.833 -0.2009  0.1600  0.6712
  533MOL0     C71862   5.695  11.082   7.729  0.9707 -0.1610  0.4278
  533MOL0     C71863   5.837  11.032   7.758  0.0127 -0.3881  0.1868
  533MOL0    Cl71864   5.920  11.141   7.869 -0.1887  0.3233 -0.2313
  533MOL0     C71865   4.736  10.634   7.872  0.2150  1.1604  0.2411
  533MOL0     C71866   4.636  10.592   7.799 -0.0028  0.1732 -0.9852
  533MOL0     O71867   4.505  10.446   7.567 -0.2064 -0.3633  0.0350
  533MOL0     C71868   4.184  10.611   7.614 -0.0787 -0.2830 -0.1421
  533MOL0     C71869   4.047  10.579   7.603 -0.3782 -0.6821  0.3576
  533MOL0     N71870   3.325  10.657   7.881 -0.5892  0.4488  0.5222
  533MOL0     N71871   3.221  10.621   7.944 -0.3513 -0.4360 -0.1886
  533MOL0     C71872   2.211  10.050   7.874 -0.5162  0.4413 -0.9038
  533MOL0     C71873   2.095  10.016   7.816 -0.6584 -0.0265 -0.1754
  533MOL0     C71874   1.675   9.838   7.734  0.4705 -0.1960  0.2377
  533MOL0     C71875   1.654   9.736   7.642 -0.9636 -0.2758  0.1907
  533MOL0     C71876   1.529   9.676   7.619  0.3840 -0.5644 -0.2990
  533MOL0     C71877   1.413   9.734   7.674 -0.4489  0.6618  0.5343
  533MOL0     O71878   1.289   9.688   7.642  0.6541 -0.0969 -0.6593
  533MOL0     C71879   1.173   9.719   7.724  0.1347  0.5414 -0.6562
  533MOL0     C71880   1.176   9.650   7.862  0.3062 -0.2780  0.9318
  533MOL0     C71881   1.209   9.506   7.874 -0.6904  1.2513  0.4852
  533MOL0     C71882   1.124   9.417   7.772  0.0670 -0.2928  0.4767
  533MOL0     C71883   0.982   9.407   7.803  0.8512 -0.0140 -0.2892
  533MOL0     C71884   0.868   9.387   7.829  0.2818  1.0106  0.4124
  533MOL0     C71885   1.438   9.844   7.755 -0.7611  0.8367 -0.5779
  533MOL0     C71886   1.564   9.894   7.790 -0.3400  0.1817 -1.2453
  533MOL0     C71887   1.571   9.997   7.901 -0.3434 -0.5010 -0.1791
  533MOL0     H71888   1.881  10.174   8.020  0.4262 -0.8140  0.8717
  533MOL0     H71889   2.087  10.249   8.125  0.3104  0.2876 -0.2646
  533MOL0     H71890   2.328  10.324   8.121  1.9479  0.3664 -0.4779
  533MOL0     H71891   2.273  10.183   8.221  0.0665 -2.2820 -1.0541
  533MOL0     H71892   2.497  10.092   8.202 -0.7160 -0.4622  2.2669
  533MOL0     H71893   2.506  10.231   8.302  0.9214  3.1682 -1.0960
  533MOL0     H71894   2.574  10.379   8.117  1.1068  0.4229  1.0306
  533MOL0     H71895   2.592  10.225   8.015 -0.6824 -1.1634  0.1676
  533MOL0     H71896   2.752  10.266   8.270 -1.3425 -1.9622  1.0852
  533MOL0     H71897   2.758  10.136   8.156  1.8015  0.3509 -0.6233
  533MOL0     H71898   2.825  10.288   7.969 -1.9011 -0.6306  0.1816
  533MOL0     H71899   2.836  10.423   8.078 -0.1275  0.1194 -1.2407
  533MOL0     H71900   3.009  10.267   8.215 -1.8483 -1.1890  0.4881
  533MOL0     H71901   3.000  10.157   8.083  0.5160  0.1408 -0.5474
  533MOL0     H71902   3.054  10.366   7.935  1.4397  0.8726 -0.1847
  533MOL0     H71903   3.173  10.259   8.014 -1.7980 -2.5451 -0.2745
  533MOL0     H71904   3.085  10.535   8.137 -0.6331  0.6807 -2.6861
  533MOL0     H71905   3.202  10.417   8.207  2.3670  2.7763  1.2245
  533MOL0     H71906   3.429  10.399   8.052  0.2085  1.9106  1.9077
  533MOL0     H71907   3.598  10.646   7.778  5.3883 -3.0762 -1.8604
  533MOL0     H71908   3.635  10.533   7.905 -0.3140 -1.3172 -1.2514
  533MOL0     H71909   3.514  10.342   7.788 -3.0601  0.4924 -1.8772
  533MOL0     H71910   3.516  10.451   7.649 -0.5086 -3.0743 -0.3656
  533MOL0     H71911   3.697  10.303   7.646  2.8199 -0.1493 -0.7601
  533MOL0     H71912   3.757  10.356   7.802  2.1972 -1.8598 -2.0106
  533MOL0     H71913   3.806  10.583   7.690  2.1336  1.1505 -3.4002
  533MOL0     H71914   3.692  10.546   7.573 -2.6172 -2.5820  0.9698
  533MOL0     H71915   4.073  10.257   7.495 -1.0469  0.1910  2.7038
  533MOL0     H71916   4.297  10.304   7.521  0.5272 -1.1215  4.3723
  533MOL0     H71917   4.604  10.858   7.596 -1.9462  1.8639  2.8035
  533MOL0     H71918   4.819  10.916   7.701  1.0922 -1.7482  0.4406
  533MOL0     H71919   5.058  10.860   7.790  2.1693 -0.7080  0.4571
  533MOL0     H71920   4.934  10.983   7.864  0.0231  0.3079  1.1647
  533MOL0     H71921   5.088  10.960   8.075 -1.4254  2.0811 -1.2824
  533MOL0     H71922   5.184  10.833   7.981 -0.6143 -1.3857 -0.9814
  533MOL0     H71923   5.187  11.051   7.817 -0.2484  0.8767  0.5696
  533MOL0     H71924   5.196  11.128   7.975  0.2275  0.5054 -0.5870
  533MOL0     H71925   5.383  10.900   7.919 -0.5115 -0.5176 -0.7971
  533MOL0     H71926   5.409  11.039   8.031 -0.1973 -0.8460 -0.6167
  533MOL0     H71927   5.427  11.183   7.809  4.1043  1.7023  1.3688
  533MOL0     H71928   5.404  11.025   7.729 -0.0185  0.2921 -0.5810
  533MOL0     H71929   5.625  11.080   7.930  0.1099 -0.1886  0.7145
  533MOL0     H71930   5.586  10.931   7.833  3.2943 -0.1944  0.6597
  533MOL0     H71931   5.680  11.187   7.704  0.5694 -0.7678 -2.0945
  533MOL0     H71932   5.661  11.030   7.639 -1.2332 -0.6049  1.4466
  533MOL0     H71933   5.824  10.929   7.791 -2.0042  0.0847  1.0739
  533MOL0     H71934   5.886  11.019   7.662 -1.1645 -1.1278 -0.3357
  533MOL0     H71935   4.772  10.572   7.954 -0.8406 -0.4416 -0.4529
  533MOL0     H71936   4.586  10.500   7.828  1.1591 -0.2795 -0.3778
  533MOL0     H71937   4.217  10.710   7.644 -0.5670 -0.3708  0.7153
  533MOL0     H71938   3.970  10.655   7.615  0.1556 -0.2128  0.8614
  533MOL0     H71939   2.300  10.005   7.831  0.4035  0.1295  1.1887
  533MOL0     H71940   2.097   9.960   7.723  2.3167  0.0801 -0.2650
  533MOL0     H71941   1.746   9.695   7.601 -1.6707 -2.0002  0.2516
  533MOL0     H71942   1.524   9.591   7.551 -2.2563  0.2614 -1.2969
  533MOL0     H71943   1.087   9.680   7.668 -0.0409 -0.1509  0.0736
  533MOL0     H71944   1.159   9.826   7.740  0.7989  0.3224  1.6870
  533MOL0     H71945   1.079   9.658   7.912 -0.7914 -0.9582 -1.0168
  533MOL0     H71946   1.236   9.713   7.929 -0.9989  0.7104  1.2051
  533MOL0     H71947   1.194   9.472   7.977  0.6548 -0.5729  0.1349
  533MOL0     H71948   1.314   9.490   7.848 -0.8225  2.4287 -0.9125
  533MOL0     H71949   1.135   9.453   7.670  1.9960 -2.1090 -0.0211
  533MOL0     H71950   1.156   9.313   7.775  1.6941  0.1881  1.3782
  533MOL0     H71951   0.774   9.344   7.857  1.1417 -1.3057 -0.0921
  533MOL0     H71952   1.353   9.871   7.816  0.1491 -0.1115  1.1970
  533MOL0     H71953   1.473   9.997   7.949 -0.1203  1.0993  0.3362
  533MOL0     H71954   1.637   9.984   7.988 -1.2710  2.2645  1.0400
  533MOL0     H71955   1.587  10.094   7.852 -2.9395 -1.3205 -2.9642
  534MOL0     O71956   6.576   4.530   3.219  0.4185 -0.2330  0.3666
  534MOL0     C71957   6.624   4.529   3.106  0.0095  0.1004 -0.1324
  534MOL0     O71958   6.555   4.532   2.986  0.4181  0.1141  0.0785
  534MOL0     C71959   6.416   4.495   2.976 -0.0955 -0.1744 -0.3485
  534MOL0     C71960   6.342   4.553   2.871 -0.8449  0.1486 -0.7181
  534MOL0     C71961   6.205   4.528   2.865 -1.0177 -0.5926 -0.0019
  534MOL0     C71962   6.132   4.449   2.956 -0.1760  0.9249 -0.8131
  534MOL0     O71963   6.002   4.414   2.950 -0.0261 -0.0234  0.1393
  534MOL0     C71964   5.895   4.489   2.898  0.2949  0.0202  0.2121
  534MOL0     C71965   5.762   4.424   2.924  0.4053 -0.6535  0.8309
  534MOL0     C71966   5.725   4.429   3.072 -0.0890  0.5554 -0.6382
  534MOL0     C71967   5.588   4.367   3.089 -0.8375 -0.4419  0.1761
  534MOL0     C71968   5.524   4.402   3.219  0.9327  0.8683 -0.2812
  534MOL0     C71969   5.369   4.369   3.219 -0.7865 -0.6622 -0.4167
  534MOL0     C71970   5.300   4.384   3.352 -0.5700 -0.2311  0.5321
  534MOL0     C71971   5.145   4.391   3.341  0.6637 -0.4554  0.4328
  534MOL0     N71972   5.082   4.407   3.472  0.5976  0.4084  0.0992
  534MOL0     C71973   4.977   4.331   3.534  0.3348  0.1629 -0.5359
  534MOL0     C71974   4.950   4.406   3.640 -0.9866  0.7675 -0.4189
  534MOL0     C71975   4.844   4.390   3.740  0.5119  0.4107 -0.2828
  534MOL0     C71976   4.694   4.343   3.684  0.0213  0.2358 -0.0151
  534MOL0     C71977   4.639   4.440   3.576 -0.2500 -0.2238  0.4714
  534MOL0     C71978   4.483   4.419   3.563 -0.3718 -0.4011 -0.2195
  534MOL0     O71979   4.417   4.479   3.676  0.3271  0.4662  0.2491
  534MOL0     C71980   4.398   4.616   3.685  0.9143  0.2226  0.4053
  534MOL0     C71981   4.356   4.659   3.809  0.9450 -1.0151  0.7945
  534MOL0     C71982   4.334   4.797   3.833 -0.5906  0.6198 -0.4293
  534MOL0     C71983   4.358   4.895   3.728 -0.4756 -0.1731  0.0056
  534MOL0     C71984   4.333   5.044   3.743  0.8354  0.7638 -0.4996
  534MOL0     O71985   4.395   5.126   3.656 -0.2206  0.3315 -0.4417
  534MOL0     C71986   4.398   5.266   3.666 -0.0907  1.0167  0.4128
  534MOL0     C71987   4.403   5.337   3.785 -0.6119  0.2746 -0.1469
  534MOL0     C71988   4.427   5.478   3.784  0.3243  0.5175 -0.3394
  534MOL0     C71989   4.451   5.544   3.663 -0.9497  0.2338  1.1073
  534MOL0     O71990   4.475   5.677   3.644 -0.0981 -0.0946  0.2692
  534MOL0     C71991   4.456   5.773   3.743  0.6712  0.8429 -0.2177
  534MOL0     C71992   4.466   5.912   3.688  0.7268  0.1036  0.4418
  534MOL0     C71993   4.606   5.950   3.631 -0.0789  0.1344 -0.0180
  534MOL0     C71994   4.716   5.945   3.728 -0.3014  0.1465  0.3486
  534MOL0     C71995   4.829   6.018   3.663  0.3417  0.0282  0.9664
  534MOL0     C71996   4.937   6.024   3.768  0.0440  0.1033  0.1354
  534MOL0     C71997   5.057   6.114   3.718 -0.4056  0.8421  0.1973
  534MOL0     C71998   5.163   6.141   3.819  0.3656  0.2759  0.7054
  534MOL0    Cl71999   5.106   6.180   3.978  0.0135  0.0768 -0.4890
  534MOL0     C72000   4.437   5.475   3.537  0.1128 -0.0906  0.0044
  534MOL0     C72001   4.412   5.332   3.539 -0.4142 -0.3764 -0.6148
  534MOL0     O72002   4.272   5.079   3.841 -0.4809 -0.1624  0.5411
  534MOL0     C72003   4.403   4.849   3.608 -0.1147  1.0626  0.3681
  534MOL0     C72004   4.427   4.713   3.582  0.1013  0.4799 -0.3463
  534MOL0     N72005   5.047   4.508   3.658  0.2703 -0.1095  0.3185
  534MOL0     N72006   5.115   4.506   3.555 -0.7935  0.6198  0.5975
  534MOL0     C72007   6.210   4.404   3.064 -0.7767  0.4756  0.0166
  534MOL0     C72008   6.348   4.417   3.074  0.9241  0.5294 -0.1966
  534MOL0     C72009   6.781   4.527   3.094  0.5381 -0.1696 -0.6520
  534MOL0     C72010   6.858   4.513   3.214  0.7034  0.6003 -0.4635
  534MOL0     C72011   6.988   4.491   3.216  0.1791  0.1095  0.4925
  534MOL0     C72012   7.065   4.491   3.102  0.0909 -0.2745 -0.5159
  534MOL0     O72013   7.198   4.449   3.118  0.3470 -0.0200 -0.7757
  534MOL0     C72014   7.289   4.477   3.019 -0.3595  0.6040 -0.1643
  534MOL0     C72015   7.423   4.414   3.049 -0.2567  0.4427  0.0138
  534MOL0     C72016   7.419   4.264   3.085  0.5297 -0.8068  0.4763
  534MOL0     C72017   7.556   4.205   3.107 -0.4385 -0.1715  1.0325
  534MOL0     C72018   7.605   4.239   3.245  0.0964  0.3969  0.4985
  534MOL0     C72019   7.681   4.261   3.338 -0.1975 -0.3659  0.0892
  534MOL0     C72020   6.996   4.523   2.989 -0.1184  0.5769  0.0108
  534MOL0     C72021   6.856   4.530   2.974 -0.0724  1.0205  0.7945
  534MOL0     C72022   6.806   4.519   2.832 -0.1429  0.1036 -0.6934
  534MOL0     H72023   6.396   4.629   2.815 -0.1269 -0.6883 -1.2029
  534MOL0     H72024   6.153   4.581   2.786  0.7761 -2.1760 -2.3963
  534MOL0     H72025   5.904   4.589   2.939  0.3935 -0.1768  0.6801
  534MOL0     H72026   5.901   4.487   2.788 -0.4043 -3.3297  0.1199
  534MOL0     H72027   5.752   4.319   2.894 -1.9566 -0.0680 -0.7570
  534MOL0     H72028   5.683   4.485   2.879  0.4185 -0.2283  1.3776
  534MOL0     H72029   5.712   4.526   3.120 -1.5644  0.3166 -0.4966
  534MOL0     H72030   5.794   4.360   3.121  0.3747  1.1944 -0.3778
  534MOL0     H72031   5.521   4.401   3.009 -2.9042  0.4540  2.1701
  534MOL0     H72032   5.600   4.259   3.085  4.2071 -0.0590 -0.8758
  534MOL0     H72033   5.568   4.340   3.299 -2.1958  1.0980  1.8083
  534MOL0     H72034   5.530   4.505   3.255 -1.2951  0.7166  0.6679
  534MOL0     H72035   5.321   4.437   3.148  0.8687 -0.2152 -1.1444
  534MOL0     H72036   5.358   4.273   3.167  2.3845 -0.7031 -1.2053
  534MOL0     H72037   5.326   4.483   3.392 -3.1191  0.1498  1.3936
  534MOL0     H72038   5.326   4.306   3.424 -0.1328  0.6086  1.3059
  534MOL0     H72039   5.116   4.466   3.266 -0.5600 -3.6287 -2.5434
  534MOL0     H72040   5.109   4.301   3.291 -1.6244  1.1495 -1.0116
  534MOL0     H72041   4.925   4.239   3.511  1.5833 -1.7930  3.4829
  534MOL0     H72042   4.869   4.319   3.819 -2.3212 -0.9998 -0.5081
  534MOL0     H72043   4.832   4.491   3.780 -2.8653  0.6531 -1.5650
  534MOL0     H72044   4.696   4.245   3.634 -0.8287  0.2818 -0.1531
  534MOL0     H72045   4.621   4.344   3.765  1.2790 -2.1071  1.2823
  534MOL0     H72046   4.698   4.436   3.484 -2.8913  1.1913 -1.4162
  534MOL0     H72047   4.651   4.544   3.607  0.0504 -0.3034  0.6274
  534MOL0     H72048   4.459   4.312   3.562 -2.4634  0.0036  0.0179
  534MOL0     H72049   4.449   4.463   3.469  0.6501 -0.2359 -0.5138
  534MOL0     H72050   4.320   4.599   3.892 -1.1446  0.6761  1.1817
  534MOL0     H72051   4.291   4.828   3.927 -1.5191  1.6399 -1.1568
  534MOL0     H72052   4.402   5.278   3.877 -1.1041  0.6008  0.0615
  534MOL0     H72053   4.439   5.531   3.879  0.7138  1.3413 -0.8343
  534MOL0     H72054   4.361   5.751   3.793  1.2914 -1.4456  0.0727
  534MOL0     H72055   4.536   5.771   3.817 -1.5129 -1.1135  2.3068
  534MOL0     H72056   4.389   5.929   3.611 -0.3505  1.7858  1.7991
  534MOL0     H72057   4.442   5.979   3.771  1.5381  1.4506 -0.3675
  534MOL0     H72058   4.632   5.890   3.543 -1.1295 -2.4583  1.3064
  534MOL0     H72059   4.581   6.052   3.603 -3.3647 -1.0772 -2.0536
  534MOL0     H72060   4.745   5.848   3.769  0.2861  0.5610  0.9296
  534MOL0     H72061   4.688   6.003   3.816  1.6042  1.7191 -0.0071
  534MOL0     H72062   4.797   6.119   3.638 -2.3103 -0.9402 -0.0224
  534MOL0     H72063   4.859   5.967   3.571 -0.3903 -0.2681  0.8842
  534MOL0     H72064   4.896   6.067   3.860  0.7969 -0.8609  0.9499
  534MOL0     H72065   4.972   5.923   3.792 -0.4855  0.1646  1.2179
  534MOL0     H72066   5.020   6.214   3.690  2.0172  0.6386 -4.6255
  534MOL0     H72067   5.102   6.078   3.625 -1.8010  0.4355 -0.3467
  534MOL0     H72068   5.224   6.050   3.821  0.6538  0.4570  3.3914
  534MOL0     H72069   5.220   6.229   3.789  1.4104 -0.8515 -0.8016
  534MOL0     H72070   4.444   5.534   3.447  2.1401 -2.0200 -1.1921
  534MOL0     H72071   4.389   5.283   3.445 -3.0145 -2.8641  1.1299
  534MOL0     H72072   4.420   4.920   3.528  2.3198  0.4660  0.2718
  534MOL0     H72073   4.454   4.678   3.483  0.2848  4.0546 -1.7088
  534MOL0     H72074   6.159   4.356   3.147 -1.2200  2.2683  0.8226
  534MOL0     H72075   6.398   4.381   3.164 -1.6220  1.8589  1.9089
  534MOL0     H72076   6.800   4.500   3.305  0.6924 -1.0847 -0.6819
  534MOL0     H72077   7.035   4.463   3.310 -0.4097 -0.3303  0.6612
  534MOL0     H72078   7.302   4.585   3.008  0.2372  0.5829  0.2871
  534MOL0     H72079   7.249   4.442   2.923 -1.0560 -0.8628  0.6192
  534MOL0     H72080   7.471   4.460   3.136  1.5400 -1.7261  0.2650
  534MOL0     H72081   7.485   4.438   2.961  0.5588 -0.5834  0.2799
  534MOL0     H72082   7.361   4.207   3.011 -1.4672 -0.5688  1.7653
  534MOL0     H72083   7.354   4.253   3.172 -0.1676  1.3130  0.2945
  534MOL0     H72084   7.558   4.097   3.095  1.8238 -0.0188 -0.4441
  534MOL0     H72085   7.629   4.249   3.038 -2.3413  1.8170  0.1652
  534MOL0     H72086   7.752   4.302   3.408 -0.3885 -1.1233  0.7414
  534MOL0     H72087   7.059   4.529   2.901  0.0649  2.7569  0.2233
  534MOL0     H72088   6.707   4.563   2.817 -0.0900  0.4578 -0.0317
  534MOL0     H72089   6.880   4.542   2.754 -1.5697 -0.6501 -2.3476
  534MOL0     H72090   6.803   4.414   2.801 -0.6473 -0.1511  0.1969
  535MOL0     O72091   8.375   8.590  11.000 -0.4163 -0.1110  0.2919
  535MOL0     C72092   8.302   8.661  11.062 -0.0358  0.1376 -0.6574
  535MOL0     O72093   8.342   8.782  11.128 -0.3243 -0.3671 -0.3682
  535MOL0     C72094   8.474   8.800  11.130 -0.4724 -0.0851  0.5694
  535MOL0     C72095   8.539   8.744  11.233  0.0346  0.0447  0.1711
  535MOL0     C72096   8.682   8.761  11.248  0.9792 -0.3430 -1.4117
  535MOL0     C72097   8.757   8.826  11.146 -0.6195  0.1708  0.2353
  535MOL0     O72098   8.895   8.822  11.150  0.1715 -0.6528 -0.6286
  535MOL0     C72099   8.971   8.936  11.114 -0.7942 -0.8159 -0.6036
  535MOL0     C72100   9.106   8.908  11.166  0.4043 -0.4208  0.7581
  535MOL0     C72101   9.207   9.021  11.142  0.2357  0.4599 -0.0943
  535MOL0     C72102   9.346   8.968  11.171 -0.4798  0.4833 -0.0165
  535MOL0     C72103   9.435   9.093  11.188  0.3337  1.2813 -0.1363
  535MOL0     C72104   9.577   9.048  11.222 -0.4132 -0.1304  0.0573
  535MOL0     C72105   9.671   9.160  11.231 -0.6430  0.4013 -0.0747
  535MOL0     C72106   9.798   9.115  11.305 -0.1313 -0.2928 -0.4304
  535MOL0     N72107   9.873   9.238  11.361 -0.4805  0.0285  0.8234
  535MOL0     C72108   9.842   9.329  11.460 -0.5788  0.5893  0.9210
  535MOL0     C72109   9.916   9.433  11.428 -0.2900 -0.5665  0.4717
  535MOL0     C72110   9.928   9.561  11.506 -0.4519  0.0595 -0.1776
  535MOL0     C72111  10.061   9.560  11.591  1.4057  0.4343 -0.0390
  535MOL0     C72112  10.077   9.694  11.664  0.8393  0.2175  0.8144
  535MOL0     C72113  10.073   9.824  11.577  0.3214 -0.1728  0.5847
  535MOL0     O72114  10.180   9.815  11.480  0.4180 -0.3076  0.1560
  535MOL0     C72115  10.313   9.867  11.500  0.5878  0.3104 -0.4238
  535MOL0     C72116  10.370   9.919  11.619  0.2342 -0.5807 -0.2247
  535MOL0     C72117  10.505   9.961  11.629 -1.1060 -0.1378  0.6178
  535MOL0     C72118  10.586   9.961  11.506  0.2834  0.5636  1.0706
  535MOL0     C72119  10.726  10.011  11.502  0.1382  0.0053 -0.0545
  535MOL0     O72120  10.774  10.046  11.628 -1.3314  0.3224  0.6867
  535MOL0     C72121  10.890  10.122  11.634  1.7359 -0.1158 -0.3533
  535MOL0     C72122  11.009  10.088  11.575  0.0251 -0.3583  1.2655
  535MOL0     C72123  11.123  10.161  11.587 -0.3878 -1.4955  0.4486
  535MOL0     C72124  11.126  10.276  11.666 -0.2406 -0.9934  0.3490
  535MOL0     O72125  11.243  10.351  11.679  0.2518 -0.0023 -0.3920
  535MOL0     C72126  11.237  10.498  11.702 -0.7401  0.5281 -0.3370
  535MOL0     C72127  11.383  10.552  11.705 -0.0661  0.1739 -0.0726
  535MOL0     C72128  11.444  10.528  11.839 -0.2681 -0.5959 -1.0729
  535MOL0     C72129  11.596  10.566  11.832  0.0813 -0.2630 -0.2609
  535MOL0     C72130  11.672  10.524  11.959 -0.0717 -0.6994 -0.0290
  535MOL0     C72131  11.603  10.585  12.090 -0.1961  0.1766 -0.1655
  535MOL0     C72132  11.710  10.569  12.194  0.1850  0.1492 -1.1552
  535MOL0     C72133  11.656  10.549  12.328  0.1191  0.2810  1.3153
  535MOL0    Cl72134  11.531  10.684  12.379  0.4617 -0.2391 -0.2941
  535MOL0     C72135  11.009  10.310  11.739 -0.8781  0.0366  0.2871
  535MOL0     C72136  10.894  10.240  11.714  0.2937  0.1239  0.3027
  535MOL0     O72137  10.772  10.048  11.396  0.7343  0.7062 -0.0649
  535MOL0     C72138  10.531   9.916  11.388  0.5026  0.8323 -0.2194
  535MOL0     C72139  10.398   9.870  11.389  0.3841 -0.0650  0.6768
  535MOL0     N72140   9.995   9.408  11.325 -0.1376  0.2109 -0.4524
  535MOL0     N72141   9.959   9.299  11.270  0.0776  0.1875  0.7826
  535MOL0     C72142   8.689   8.892  11.047 -0.3982  0.6290  0.0598
  535MOL0     C72143   8.546   8.884  11.037 -0.2042 -0.9283 -0.7942
  535MOL0     C72144   8.164   8.607  11.100 -0.0663 -0.4232 -0.1024
  535MOL0     C72145   8.128   8.640  11.236 -0.8573  0.0793 -0.0531
  535MOL0     C72146   8.019   8.581  11.291 -0.4001 -0.7670  0.1981
  535MOL0     C72147   7.947   8.478  11.220 -0.5840 -0.5118 -0.3736
  535MOL0     O72148   7.837   8.431  11.289 -0.2404  0.1987  0.1149
  535MOL0     C72149   7.795   8.304  11.243 -0.8462 -1.1827  1.0692
  535MOL0     C72150   7.730   8.243  11.363  0.7528  0.3899  0.1263
  535MOL0     C72151   7.645   8.127  11.327 -0.2696  0.2848  0.4844
  535MOL0     C72152   7.503   8.165  11.289 -0.9578  0.6655  0.7245
  535MOL0     C72153   7.431   8.192  11.414 -0.0936 -0.7986 -1.2210
  535MOL0     C72154   7.360   8.219  11.510  0.2138  0.1962  0.0170
  535MOL0     C72155   7.987   8.448  11.087  0.2295  0.2994 -0.3702
  535MOL0     C72156   8.093   8.509  11.027 -0.1463  0.5156  0.2302
  535MOL0     C72157   8.140   8.473  10.891 -0.0634 -0.5145  0.5478
  535MOL0     H72158   8.472   8.681  11.290 -0.4649 -0.5854 -1.0565
  535MOL0     H72159   8.730   8.710  11.331 -2.8161 -2.0345 -0.0274
  535MOL0     H72160   8.968   8.955  11.006 -0.4290  1.0916 -0.3030
  535MOL0     H72161   8.937   9.023  11.172 -0.2578 -0.9487 -0.0809
  535MOL0     H72162   9.139   8.823  11.107  0.1493 -1.6969  2.3808
  535MOL0     H72163   9.092   8.875  11.269 -0.7656  0.1922  0.8128
  535MOL0     H72164   9.189   9.108  11.206  1.1642  0.2894  0.4172
  535MOL0     H72165   9.208   9.055  11.038  2.4619  2.3638  0.4723
  535MOL0     H72166   9.351   8.921  11.269  0.3179  2.9456  1.2024
  535MOL0     H72167   9.369   8.893  11.095 -1.8880 -0.8710  0.8341
  535MOL0     H72168   9.425   9.138  11.089  0.0824 -1.3028 -1.3674
  535MOL0     H72169   9.390   9.159  11.262 -2.0358 -0.6091  0.2405
  535MOL0     H72170   9.558   9.008  11.322 -1.1341 -1.3828 -0.5519
  535MOL0     H72171   9.617   8.974  11.153 -2.0070  1.2411 -2.5271
  535MOL0     H72172   9.614   9.242  11.278 -1.8810 -1.5605  2.0864
  535MOL0     H72173   9.696   9.186  11.128 -3.5256 -0.9252 -1.2156
  535MOL0     H72174   9.765   9.052  11.387 -2.6828  2.9216  1.2477
  535MOL0     H72175   9.864   9.061  11.236  3.3986 -0.2067  2.5583
  535MOL0     H72176   9.781   9.320  11.550  0.5113 -0.0554  1.6261
  535MOL0     H72177   9.933   9.649  11.441 -0.8127  1.4257  1.5586
  535MOL0     H72178   9.838   9.581  11.564 -1.1448  1.8471 -1.7693
  535MOL0     H72179  10.066   9.474  11.659 -3.3564 -0.3914 -0.3956
  535MOL0     H72180  10.147   9.551  11.523  1.0657 -2.7229 -0.2210
  535MOL0     H72181  10.175   9.700  11.713  1.7003  1.1264 -0.9336
  535MOL0     H72182  10.002   9.702  11.743  0.0581 -2.3290  0.4186
  535MOL0     H72183  10.077   9.912  11.642 -0.3331 -0.1578  0.6077
  535MOL0     H72184   9.979   9.823  11.521  0.3808 -0.6832  0.4847
  535MOL0     H72185  10.307   9.936  11.706  0.8189  2.7965 -0.3557
  535MOL0     H72186  10.547  10.002  11.720  2.8471 -2.2168 -0.0122
  535MOL0     H72187  11.017   9.993  11.521  0.1969 -0.4902  1.5212
  535MOL0     H72188  11.207  10.137  11.522 -1.3286 -2.0173 -0.6234
  535MOL0     H72189  11.192  10.550  11.616 -0.2010 -0.5843 -1.3276
  535MOL0     H72190  11.184  10.515  11.796  0.4561 -1.5352  0.7672
  535MOL0     H72191  11.439  10.510  11.622 -0.0682  0.9658 -0.4874
  535MOL0     H72192  11.386  10.661  11.692 -1.3104  0.0197 -1.9789
  535MOL0     H72193  11.397  10.586  11.919 -2.8628 -1.5032 -1.8339
  535MOL0     H72194  11.431  10.422  11.864  4.3498 -1.5622 -1.8188
  535MOL0     H72195  11.609  10.670  11.802 -0.8010 -0.9491 -3.5159
  535MOL0     H72196  11.643  10.507  11.752 -2.1785  0.9150 -2.6259
  535MOL0     H72197  11.776  10.554  11.946 -0.3147 -0.0420 -0.5034
  535MOL0     H72198  11.679  10.415  11.962 -1.0223 -0.7791 -0.4233
  535MOL0     H72199  11.571  10.689  12.079 -1.7331 -0.3566 -1.0421
  535MOL0     H72200  11.515  10.528  12.122  0.6692 -1.0095  0.2018
  535MOL0     H72201  11.784  10.647  12.180  0.1392  0.2119 -1.0475
  535MOL0     H72202  11.746  10.467  12.174  0.3132  0.5571 -3.2171
  535MOL0     H72203  11.599  10.457  12.313 -0.1595  0.6404  0.0794
  535MOL0     H72204  11.730  10.528  12.405 -0.2837  0.7372  1.8407
  535MOL0     H72205  11.002  10.400  11.799 -1.3405 -1.1744  2.1450
  535MOL0     H72206  10.811  10.290  11.763 -0.8018 -2.4759  1.3110
  535MOL0     H72207  10.589   9.907  11.297  1.7982  0.8498  0.5757
  535MOL0     H72208  10.369   9.819  11.297  2.1916  1.7670 -1.0178
  535MOL0     H72209   8.740   8.960  10.980  0.9836 -0.0769  0.3492
  535MOL0     H72210   8.501   8.940  10.956  0.4127 -0.1999 -0.6425
  535MOL0     H72211   8.181   8.720  11.287  1.2932  1.1544 -3.5529
  535MOL0     H72212   7.987   8.613  11.390 -0.8697 -0.0704 -0.1701
  535MOL0     H72213   7.877   8.238  11.212  0.6245  1.8690 -2.1585
  535MOL0     H72214   7.727   8.322  11.160  1.7250 -2.3216 -1.4447
  535MOL0     H72215   7.669   8.326  11.400  1.1497 -0.4246  2.8135
  535MOL0     H72216   7.809   8.219  11.435  1.0333  0.6607 -0.0899
  535MOL0     H72217   7.637   8.053  11.408  1.8076  0.1533  0.6359
  535MOL0     H72218   7.700   8.092  11.240 -0.4268 -1.4614  1.0422
  535MOL0     H72219   7.505   8.251  11.222  0.5059  0.5806  0.6250
  535MOL0     H72220   7.451   8.081  11.241  1.6412  0.7187 -2.5531
  535MOL0     H72221   7.291   8.229  11.591 -0.3219 -0.5768 -0.3411
  535MOL0     H72222   7.928   8.381  11.025 -2.1103  2.1212 -0.2416
  535MOL0     H72223   8.237   8.422  10.883  0.9217  1.1368  1.3961
  535MOL0     H72224   8.075   8.394  10.852  0.4174 -2.9867  4.1532
  535MOL0     H72225   8.147   8.555  10.820  0.0297 -2.7651 -2.2402
  536MOL0     O72226   4.712   5.741   3.094 -0.1502  0.4538  0.1732
  536MOL0     C72227   4.645   5.823   3.146  0.7033 -0.0916 -0.2458
  536MOL0     O72228   4.682   5.948   3.201  0.7788  0.9053  0.7330
  536MOL0     C72229   4.804   6.007   3.172 -0.5159  0.2272  0.0346
  536MOL0     C72230   4.877   5.981   3.054  0.1648  0.4767 -0.5808
  536MOL0     C72231   5.003   6.041   3.038 -0.3808  0.7050 -0.1816
  536MOL0     C72232   5.057   6.123   3.144  0.3550  0.6747 -0.0907
  536MOL0     O72233   5.167   6.201   3.122 -0.2571  0.0630 -0.1647
  536MOL0     C72234   5.276   6.147   3.050 -0.1171 -0.2686  0.0954
  536MOL0     C72235   5.388   6.246   3.027  0.6556  0.1792  1.4164
  536MOL0     C72236   5.507   6.172   2.954 -0.5668  0.0451  0.3441
  536MOL0     C72237   5.638   6.255   2.959 -0.7247  0.1147  0.2593
  536MOL0     C72238   5.760   6.173   2.916 -0.1281 -0.1900 -0.8298
  536MOL0     C72239   5.876   6.282   2.895  0.1527 -0.8725 -0.5201
  536MOL0     C72240   6.011   6.225   2.843  0.1098 -0.1347  0.3967
  536MOL0     C72241   6.134   6.326   2.849 -0.2306 -0.7445  0.0324
  536MOL0     N72242   6.271   6.265   2.829  0.2759  0.0428  0.0784
  536MOL0     C72243   6.328   6.238   2.704  0.3465  0.1163 -0.1186
  536MOL0     C72244   6.452   6.195   2.739  0.4507  0.1925 -0.3567
  536MOL0     C72245   6.544   6.141   2.633 -0.1675 -0.3461  0.4115
  536MOL0     C72246   6.673   6.225   2.613 -0.0974 -0.1929 -0.8318
  536MOL0     C72247   6.733   6.193   2.480  0.1946 -0.0224 -0.2134
  536MOL0     C72248   6.867   6.268   2.449  0.0265 -0.6014 -0.0290
  536MOL0     O72249   6.949   6.248   2.560 -0.8420 -0.0978  0.0889
  536MOL0     C72250   7.081   6.226   2.519  0.0258  0.3159  0.3599
  536MOL0     C72251   7.140   6.104   2.536  0.7409 -0.0062  0.3620
  536MOL0     C72252   7.277   6.079   2.512 -0.1746  0.0239 -0.0146
  536MOL0     C72253   7.358   6.187   2.466 -0.0515  0.7912  0.2630
  536MOL0     C72254   7.501   6.175   2.437  1.1264  0.1425 -0.5472
  536MOL0     O72255   7.574   6.285   2.393 -0.2564  0.4134  0.0632
  536MOL0     C72256   7.715   6.294   2.400  0.2262  0.2158  0.2969
  536MOL0     C72257   7.798   6.224   2.490 -0.7687 -0.5985  0.3724
  536MOL0     C72258   7.933   6.253   2.495 -0.4315 -1.1108  0.0934
  536MOL0     C72259   7.987   6.356   2.417  0.4385 -0.2087  0.4085
  536MOL0     O72260   8.120   6.395   2.416 -0.2830  0.0680  0.2571
  536MOL0     C72261   8.192   6.409   2.538  0.5665 -0.6613 -0.0620
  536MOL0     C72262   8.322   6.347   2.540 -0.1061 -0.1295  0.7787
  536MOL0     C72263   8.413   6.392   2.655  0.0284  0.7506 -0.1129
  536MOL0     C72264   8.546   6.316   2.658 -0.7137  0.3976 -0.3210
  536MOL0     C72265   8.652   6.367   2.764  0.2052 -0.4408  0.3183
  536MOL0     C72266   8.759   6.260   2.779  0.0298 -0.5418  0.6800
  536MOL0     C72267   8.883   6.308   2.862 -0.3961 -1.0773  0.2274
  536MOL0     C72268   8.993   6.361   2.775 -0.9529 -0.3013  0.6311
  536MOL0    Cl72269   9.149   6.357   2.876 -0.3361 -0.7144 -0.1212
  536MOL0     C72270   7.904   6.427   2.324  0.9095  0.3193  0.3193
  536MOL0     C72271   7.767   6.393   2.316 -0.8370  0.1899  0.2995
  536MOL0     O72272   7.549   6.065   2.457 -0.2274  0.0445  0.0727
  536MOL0     C72273   7.296   6.314   2.454  0.3865 -0.7637 -0.0243
  536MOL0     C72274   7.156   6.331   2.470  0.8227 -0.5744  0.2580
  536MOL0     N72275   6.466   6.185   2.882  0.1636 -0.2142  0.8306
  536MOL0     N72276   6.350   6.223   2.936 -0.2176  0.1185  0.1857
  536MOL0     C72277   4.978   6.163   3.247 -0.1398  0.4205 -0.4814
  536MOL0     C72278   4.856   6.101   3.267  0.0929  1.0540 -0.2674
  536MOL0     C72279   4.507   5.789   3.192 -0.3240  0.1835 -0.7821
  536MOL0     C72280   4.445   5.834   3.317 -0.4525  0.3418 -0.6961
  536MOL0     C72281   4.314   5.797   3.359  0.2357 -0.0419  0.6112
  536MOL0     C72282   4.237   5.718   3.278 -0.3960 -0.4735  0.0691
  536MOL0     O72283   4.111   5.681   3.303 -0.1622 -0.3367 -0.4796
  536MOL0     C72284   4.078   5.682   3.447 -0.7072 -0.7431 -0.7770
  536MOL0     C72285   3.939   5.617   3.443 -0.2626  0.4580 -0.9205
  536MOL0     C72286   3.884   5.591   3.584  1.0373  0.8192 -0.6211
  536MOL0     C72287   3.727   5.598   3.590 -0.5260 -0.0052 -0.5115
  536MOL0     C72288   3.676   5.580   3.730 -0.5534 -0.9256  0.8423
  536MOL0     C72289   3.640   5.560   3.844 -0.4199  0.7875 -0.0873
  536MOL0     C72290   4.291   5.675   3.159 -0.4570  0.2680 -0.4179
  536MOL0     C72291   4.424   5.700   3.122 -0.0434 -0.5930  0.5126
  536MOL0     C72292   4.463   5.634   3.001  0.2501  0.2910 -0.3543
  536MOL0     H72293   4.845   5.912   2.976 -0.2562 -0.4907  0.4257
  536MOL0     H72294   5.058   6.032   2.945 -1.2769  0.7170 -0.7242
  536MOL0     H72295   5.321   6.064   3.105  2.7881  0.6111 -0.7170
  536MOL0     H72296   5.253   6.103   2.952 -1.0378  3.3720 -1.4995
  536MOL0     H72297   5.427   6.283   3.122 -0.4843 -1.2487  2.4778
  536MOL0     H72298   5.357   6.336   2.973  0.0678 -0.0599  1.3494
  536MOL0     H72299   5.461   6.139   2.860 -0.1447 -1.1400  0.5348
  536MOL0     H72300   5.521   6.081   3.013  0.8608 -1.8661 -2.6793
  536MOL0     H72301   5.632   6.334   2.884 -2.9725 -3.2603 -3.5416
  536MOL0     H72302   5.642   6.289   3.063 -0.0351 -0.6515  0.4918
  536MOL0     H72303   5.791   6.100   2.992  0.9017 -0.4367 -1.4587
  536MOL0     H72304   5.739   6.121   2.822 -0.7268 -0.0536 -0.7701
  536MOL0     H72305   5.844   6.349   2.814 -0.5499  0.2012  0.6211
  536MOL0     H72306   5.880   6.327   2.995  0.6488 -4.6084  1.2887
  536MOL0     H72307   5.979   6.196   2.742 -2.6905  3.0165  0.1752
  536MOL0     H72308   6.029   6.134   2.901 -2.5157 -1.7409 -1.0970
  536MOL0     H72309   6.119   6.382   2.756 -1.8423 -0.5546  0.3828
  536MOL0     H72310   6.140   6.380   2.944 -0.7564 -2.0945  0.8573
  536MOL0     H72311   6.286   6.254   2.605  0.3684  1.1636  0.0294
  536MOL0     H72312   6.575   6.040   2.659 -2.8145 -1.9416 -2.0098
  536MOL0     H72313   6.498   6.128   2.534  2.7044 -2.7717 -0.7702
  536MOL0     H72314   6.652   6.330   2.633  0.0607 -0.5343  1.4578
  536MOL0     H72315   6.742   6.203   2.695 -1.3122 -2.5727 -0.3589
  536MOL0     H72316   6.666   6.226   2.401  0.2307 -0.6316 -0.5047
  536MOL0     H72317   6.749   6.085   2.474 -0.3026 -0.3517  2.8558
  536MOL0     H72318   6.845   6.374   2.431  0.6005  0.4464  4.2865
  536MOL0     H72319   6.916   6.232   2.359  1.2429  2.8081 -0.8969
  536MOL0     H72320   7.079   6.021   2.572 -1.7207  1.9546  0.9962
  536MOL0     H72321   7.318   5.980   2.528 -0.2298 -0.1735 -1.0161
  536MOL0     H72322   7.755   6.165   2.570  2.1262 -0.9028  1.8515
  536MOL0     H72323   8.000   6.201   2.562  1.5272  0.0673 -0.8529
  536MOL0     H72324   8.201   6.516   2.559 -1.3668 -0.5149  0.2113
  536MOL0     H72325   8.127   6.384   2.623 -1.3937  4.1349  0.1298
  536MOL0     H72326   8.319   6.238   2.544 -2.7214 -0.1491 -0.0600
  536MOL0     H72327   8.368   6.368   2.443 -0.2635 -2.8900  0.0438
  536MOL0     H72328   8.440   6.498   2.650  2.4264  0.1879  0.0823
  536MOL0     H72329   8.361   6.368   2.749  1.7076 -1.7565  0.2545
  536MOL0     H72330   8.611   6.314   2.570  2.2385 -3.3351  1.6938
  536MOL0     H72331   8.512   6.212   2.664 -1.7849  0.7275 -0.4103
  536MOL0     H72332   8.613   6.380   2.865 -0.4553 -1.0976  0.1511
  536MOL0     H72333   8.715   6.451   2.735  0.6394 -1.6988 -2.7786
  536MOL0     H72334   8.710   6.183   2.840 -2.3864 -1.3219 -2.0224
  536MOL0     H72335   8.791   6.223   2.681 -0.5057 -0.5814  0.5142
  536MOL0     H72336   8.918   6.209   2.892 -0.7752 -1.6383 -1.0980
  536MOL0     H72337   8.848   6.374   2.942 -3.5347 -1.3787 -0.7659
  536MOL0     H72338   9.013   6.302   2.684  3.4635  1.5310  0.1683
  536MOL0     H72339   8.966   6.463   2.746 -3.3411 -1.0801 -0.1551
  536MOL0     H72340   7.943   6.503   2.258  1.4150 -2.8935 -3.4058
  536MOL0     H72341   7.710   6.459   2.251  1.3570  0.3998 -1.5052
  536MOL0     H72342   7.350   6.400   2.417  1.5788 -0.6502  1.8244
  536MOL0     H72343   7.113   6.431   2.471  0.7541 -0.5478 -1.5176
  536MOL0     H72344   5.015   6.237   3.317 -0.0943  0.0250 -0.0814
  536MOL0     H72345   4.803   6.119   3.360  0.5449  1.0751 -0.0069
  536MOL0     H72346   4.493   5.904   3.385 -2.1229  2.4868 -1.6021
  536MOL0     H72347   4.273   5.846   3.447 -0.9867 -1.9441  1.1528
  536MOL0     H72348   4.051   5.781   3.484 -0.8344 -0.9975 -0.1776
  536MOL0     H72349   4.138   5.626   3.519 -0.0892  0.5786 -0.2385
  536MOL0     H72350   3.952   5.518   3.400 -2.8761 -0.9612  1.2521
  536MOL0     H72351   3.873   5.692   3.400 -0.8766  0.8908  0.6888
  536MOL0     H72352   3.925   5.663   3.655 -0.1870  1.6620 -0.7440
  536MOL0     H72353   3.918   5.490   3.612  0.4764  0.0909 -2.3843
  536MOL0     H72354   3.692   5.697   3.560 -0.0409  0.2542 -0.2296
  536MOL0     H72355   3.678   5.518   3.533  0.0003 -0.4323 -0.3749
  536MOL0     H72356   3.613   5.544   3.946  0.8461  0.0336  0.1541
  536MOL0     H72357   4.229   5.609   3.099 -0.8007  0.7081 -0.5555
  536MOL0     H72358   4.542   5.562   3.021  1.4842  1.2632 -1.5303
  536MOL0     H72359   4.382   5.573   2.960 -0.3207 -1.6395  3.2663
  536MOL0     H72360   4.505   5.695   2.920 -1.9228  0.0915 -1.7305
  537MOL0     O72361   4.486   7.537   5.071  0.4571 -0.0973  0.8021
  537MOL0     C72362   4.387   7.483   5.015  0.1370 -0.0373 -0.2088
  537MOL0     O72363   4.373   7.353   5.000 -0.4343  0.6815 -0.5854
  537MOL0     C72364   4.475   7.272   5.030  0.6029 -1.2121  0.3754
  537MOL0     C72365   4.511   7.177   4.931  0.2483  0.0925 -0.9716
  537MOL0     C72366   4.599   7.075   4.961  0.6976 -0.8574 -0.4698
  537MOL0     C72367   4.657   7.065   5.081 -0.3874 -0.7117 -0.1579
  537MOL0     O72368   4.748   6.963   5.101 -0.2196  0.5897 -0.1131
  537MOL0     C72369   4.812   6.959   5.233 -0.3620 -0.6983 -0.1755
  537MOL0     C72370   4.874   6.817   5.248 -0.0248 -0.0274  0.1056
  537MOL0     C72371   5.016   6.799   5.190 -0.1211  0.4744  0.5751
  537MOL0     C72372   5.055   6.653   5.195  0.3589 -0.6116  0.4459
  537MOL0     C72373   5.169   6.622   5.088 -0.0555 -0.5089 -0.1284
  537MOL0     C72374   5.206   6.469   5.090  0.4031 -0.0535 -0.5548
  537MOL0     C72375   5.321   6.432   5.000  0.5133  0.6247 -0.0831
  537MOL0     C72376   5.397   6.311   5.060  0.7091  0.0626 -0.3863
  537MOL0     N72377   5.521   6.284   4.980 -0.3471 -0.6079 -0.0566
  537MOL0     C72378   5.528   6.207   4.875 -1.2932  0.5570  0.4578
  537MOL0     C72379   5.658   6.212   4.833 -0.1203  0.4058  0.3857
  537MOL0     C72380   5.713   6.121   4.731  0.2755  0.4719  0.1669
  537MOL0     C72381   5.703   5.970   4.782 -0.0814  0.3479 -0.1609
  537MOL0     C72382   5.750   5.861   4.688  0.6187  0.1040 -0.0896
  537MOL0     C72383   5.901   5.879   4.647  0.6392 -1.4449  0.4657
  537MOL0     O72384   5.937   5.753   4.595  0.4570  0.0450 -0.1234
  537MOL0     C72385   6.058   5.737   4.538 -1.0067  0.6526 -0.4745
  537MOL0     C72386   6.085   5.619   4.475  0.0755 -0.4581  0.8325
  537MOL0     C72387   6.198   5.582   4.427 -0.2237 -0.2946  0.1577
  537MOL0     C72388   6.312   5.656   4.449  0.0303  0.2694  0.1959
  537MOL0     C72389   6.442   5.632   4.388  0.0091  0.1340 -0.0945
  537MOL0     O72390   6.551   5.681   4.461  0.1010  0.3119  0.0825
  537MOL0     C72391   6.671   5.680   4.394 -0.4126 -0.4792 -0.0619
  537MOL0     C72392   6.742   5.793   4.370  0.9130  0.1046  0.6751
  537MOL0     C72393   6.868   5.792   4.318 -0.4704  0.7595  0.4768
  537MOL0     C72394   6.939   5.678   4.308  1.0080  0.2511 -1.2625
  537MOL0     O72395   7.066   5.658   4.273  0.0930  0.4858  0.6696
  537MOL0     C72396   7.105   5.720   4.144  0.7021  0.4237 -0.1739
  537MOL0     C72397   7.255   5.725   4.165  0.4435  0.0670  0.2005
  537MOL0     C72398   7.328   5.766   4.036  0.0678 -0.1695  0.4281
  537MOL0     C72399   7.478   5.777   4.075 -0.0576  0.3030  0.3506
  537MOL0     C72400   7.565   5.868   3.991 -0.4318 -0.1739 -0.2097
  537MOL0     C72401   7.718   5.864   4.046  0.9175 -0.4103  0.2895
  537MOL0     C72402   7.805   5.955   3.964  0.6492 -0.7971  0.1816
  537MOL0     C72403   7.948   5.898   3.930  0.4964 -0.3696 -0.0932
  537MOL0    Cl72404   8.049   6.008   3.844  0.4587 -0.4059  0.4120
  537MOL0     C72405   6.869   5.554   4.329  0.0959 -0.5347  1.3129
  537MOL0     C72406   6.735   5.557   4.363 -0.0893 -0.2484 -0.2404
  537MOL0     O72407   6.447   5.557   4.288  0.2046  0.1762 -0.2178
  537MOL0     C72408   6.301   5.779   4.512  0.7388  0.3804 -1.4825
  537MOL0     C72409   6.175   5.821   4.558 -0.2457  0.0887  0.5467
  537MOL0     N72410   5.719   6.308   4.912  0.9163 -0.8983  0.1330
  537MOL0     N72411   5.635   6.349   4.995 -0.9871  0.0227 -0.3519
  537MOL0     C72412   4.635   7.170   5.175 -0.4068  0.3168  0.5433
  537MOL0     C72413   4.550   7.270   5.147  0.4252 -0.1561 -0.2830
  537MOL0     C72414   4.270   7.571   4.981 -0.0824 -0.3798  0.0384
  537MOL0     C72415   4.143   7.523   4.981  0.4562 -1.0780 -0.4045
  537MOL0     C72416   4.040   7.607   4.939  0.4079  0.0200  0.0809
  537MOL0     C72417   4.049   7.745   4.917 -0.4172 -0.2915 -0.1725
  537MOL0     O72418   3.942   7.817   4.893  0.1598  0.1149 -0.1767
  537MOL0     C72419   3.969   7.959   4.877 -0.0530  0.0036 -0.0003
  537MOL0     C72420   3.861   8.058   4.828  0.2406 -0.0976 -0.3632
  537MOL0     C72421   3.744   8.072   4.924 -0.0645  0.2045 -0.8422
  537MOL0     C72422   3.669   7.947   4.960  0.0623  0.0083 -0.4749
  537MOL0     C72423   3.580   7.976   5.073 -0.9564  1.0543  0.2798
  537MOL0     C72424   3.512   8.004   5.171  0.5610 -1.2155 -0.6429
  537MOL0     C72425   4.179   7.786   4.916  0.1066  0.0887  0.2437
  537MOL0     C72426   4.292   7.708   4.948  0.3366  0.1650  0.9547
  537MOL0     C72427   4.422   7.786   4.913  0.4599  0.0876 -0.0266
  537MOL0     H72428   4.456   7.187   4.838  2.3940 -0.5106 -2.3786
  537MOL0     H72429   4.623   6.992   4.895 -1.0692 -0.8906 -1.1558
  537MOL0     H72430   4.883   7.037   5.259 -0.2007 -1.1402  0.7461
  537MOL0     H72431   4.735   6.969   5.310  0.5512 -1.1778  0.8203
  537MOL0     H72432   4.802   6.751   5.198  0.9936 -1.7147  0.7779
  537MOL0     H72433   4.874   6.778   5.350 -1.5775  1.1718  0.5914
  537MOL0     H72434   5.081   6.870   5.242 -0.7071  2.0798 -0.7920
  537MOL0     H72435   5.017   6.829   5.084  2.7911 -1.0205  0.0740
  537MOL0     H72436   5.084   6.643   5.300 -1.3280  1.5810  1.2085
  537MOL0     H72437   4.968   6.589   5.177 -0.5067  0.4786  0.6494
  537MOL0     H72438   5.130   6.648   4.989 -1.2610  0.0923  0.4890
  537MOL0     H72439   5.265   6.673   5.103  0.1289 -0.7926 -0.3126
  537MOL0     H72440   5.238   6.443   5.191 -0.1962  1.6239  0.0967
  537MOL0     H72441   5.121   6.406   5.061  0.0115 -0.1937  0.8123
  537MOL0     H72442   5.392   6.514   4.994 -0.8180  1.7260 -4.7657
  537MOL0     H72443   5.280   6.415   4.900  0.4559 -0.5322  0.1104
  537MOL0     H72444   5.433   6.331   5.161 -0.3032 -1.0621  0.2215
  537MOL0     H72445   5.336   6.220   5.057 -0.1175  0.6262 -2.5885
  537MOL0     H72446   5.442   6.154   4.834 -1.2708  0.6843  0.2413
  537MOL0     H72447   5.658   6.132   4.637 -0.1508  2.1453  0.5669
  537MOL0     H72448   5.819   6.132   4.709 -0.2371  1.4587 -2.1083
  537MOL0     H72449   5.761   5.960   4.875 -2.2782  0.9489  1.3701
  537MOL0     H72450   5.598   5.962   4.811  0.1838 -0.3499  0.6541
  537MOL0     H72451   5.688   5.862   4.598 -2.0127  1.4136  1.6058
  537MOL0     H72452   5.747   5.770   4.749 -0.9362  2.1450  3.1400
  537MOL0     H72453   5.967   5.910   4.728  1.5784  0.4221 -0.9257
  537MOL0     H72454   5.912   5.962   4.576 -0.5359 -0.7085  1.1022
  537MOL0     H72455   5.998   5.557   4.457  0.8056 -1.0881 -0.8021
  537MOL0     H72456   6.200   5.492   4.366  1.8691 -0.9340  1.0909
  537MOL0     H72457   6.699   5.887   4.404  2.7802  0.9296  0.8509
  537MOL0     H72458   6.932   5.879   4.300 -1.3909  1.0972 -1.4205
  537MOL0     H72459   7.079   5.656   4.060  2.5153 -0.3589 -0.1826
  537MOL0     H72460   7.060   5.820   4.144 -1.5273 -0.5154  0.5776
  537MOL0     H72461   7.274   5.795   4.248 -0.7460  1.8582 -0.9534
  537MOL0     H72462   7.287   5.623   4.185 -1.8374 -0.9433 -0.9634
  537MOL0     H72463   7.308   5.684   3.966 -2.5371  1.1422 -0.4670
  537MOL0     H72464   7.304   5.862   3.990 -0.0431 -1.1324 -1.6381
  537MOL0     H72465   7.517   5.674   4.072 -2.0601 -0.4867 -0.7523
  537MOL0     H72466   7.497   5.806   4.178  4.0507  0.5416 -0.3277
  537MOL0     H72467   7.527   5.971   3.987 -0.5925 -0.0338  2.7180
  537MOL0     H72468   7.562   5.817   3.894  2.0135 -2.7503  0.9403
  537MOL0     H72469   7.717   5.892   4.152  2.5816  3.4745 -0.5607
  537MOL0     H72470   7.755   5.761   4.041 -2.0676 -1.5780 -0.1843
  537MOL0     H72471   7.829   6.043   4.024  1.4583  0.3847 -1.7909
  537MOL0     H72472   7.754   5.986   3.872  2.4038  1.3595 -0.1412
  537MOL0     H72473   7.996   5.871   4.025 -0.7791 -5.0413 -0.5695
  537MOL0     H72474   7.922   5.807   3.876 -3.3461 -0.2622  1.2870
  537MOL0     H72475   6.918   5.457   4.322 -0.0026 -0.6423  2.0405
  537MOL0     H72476   6.684   5.465   4.386  0.8920 -0.7928 -0.1965
  537MOL0     H72477   6.376   5.856   4.527 -1.0804  2.1796 -1.2444
  537MOL0     H72478   6.159   5.913   4.614 -0.4678 -0.3411  1.1969
  537MOL0     H72479   4.686   7.183   5.271  0.2742  0.3559  0.1857
  537MOL0     H72480   4.520   7.345   5.219 -0.1157 -2.2196  1.7601
  537MOL0     H72481   4.129   7.420   5.011 -1.2431 -0.7039  0.1541
  537MOL0     H72482   3.936   7.578   4.952  0.5775  0.5571  4.0074
  537MOL0     H72483   4.040   7.961   4.795 -2.9602  0.1153 -2.7109
  537MOL0     H72484   4.016   8.000   4.967 -0.7458  0.5603  0.1168
  537MOL0     H72485   3.822   8.033   4.729  1.9723  1.7577 -1.6029
  537MOL0     H72486   3.902   8.158   4.811  3.4161 -1.4492 -1.2630
  537MOL0     H72487   3.682   8.156   4.892  1.8799  2.1157  0.1332
  537MOL0     H72488   3.795   8.105   5.015  0.3287  2.7952 -1.9249
  537MOL0     H72489   3.607   7.914   4.876  2.5839 -0.7431 -2.1553
  537MOL0     H72490   3.740   7.872   4.994  1.3490  2.6060  3.0924
  537MOL0     H72491   3.443   8.031   5.248 -0.2541 -2.2190 -1.0067
  537MOL0     H72492   4.219   7.884   4.890  1.3892 -0.7558 -1.1712
  537MOL0     H72493   4.513   7.726   4.904  0.3095 -0.1738  0.1581
  537MOL0     H72494   4.414   7.839   4.818  0.7239  2.3000  1.1284
  537MOL0     H72495   4.430   7.854   4.998  1.7496 -2.7140  2.2805
  538MOL0     O72496  10.666   1.267   6.487  0.0534  0.7325 -0.5007
  538MOL0     C72497  10.607   1.215   6.585 -0.1038 -0.3719  0.7799
  538MOL0     O72498  10.666   1.134   6.680  0.8535  0.2537 -0.8005
  538MOL0     C72499  10.798   1.110   6.658  0.4868 -0.6337 -0.2763
  538MOL0     C72500  10.856   1.044   6.542  0.6387 -0.7446  0.0846
  538MOL0     C72501  10.997   1.030   6.525 -0.4563 -1.0462  0.4073
  538MOL0     C72502  11.085   1.065   6.637 -0.2396 -0.7659  0.8153
  538MOL0     O72503  11.231   1.052   6.624 -0.0611  0.0488  0.2588
  538MOL0     C72504  11.304   1.066   6.750 -0.2204 -1.0885  0.7916
  538MOL0     C72505  11.453   1.033   6.721 -0.3184  0.4600  0.6972
  538MOL0     C72506  11.519   1.149   6.657  0.2209 -0.2199  1.0335
  538MOL0     C72507  11.669   1.133   6.650  0.4264 -0.5864  0.0521
  538MOL0     C72508  11.734   1.135   6.792 -0.1881 -0.1732  0.0443
  538MOL0     C72509  11.886   1.102   6.799  0.5694 -0.4308 -0.1595
  538MOL0     C72510  11.970   1.222   6.749 -0.2353 -0.2492 -0.2775
  538MOL0     C72511  12.124   1.193   6.743  0.6223 -0.0441  0.0294
  538MOL0     N72512  12.206   1.229   6.861  0.5245 -0.5918  0.6291
  538MOL0     C72513  12.196   1.360   6.914  0.4665  0.3346  0.6281
  538MOL0     C72514  12.275   1.359   7.020  0.0105 -0.5019  0.3368
  538MOL0     C72515  12.303   1.480   7.102 -0.1620  0.4904  0.6955
  538MOL0     C72516  12.449   1.511   7.124 -0.1517 -0.3513 -0.5801
  538MOL0     C72517  12.518   1.543   6.995 -0.1180  0.9616 -0.5161
  538MOL0     C72518  12.671   1.560   7.013  0.1435  0.3393 -0.3430
  538MOL0     O72519  12.721   1.661   6.928 -0.1819  0.0355  0.0794
  538MOL0     C72520  12.840   1.721   6.948 -0.1216  0.0464  0.1844
  538MOL0     C72521  12.865   1.840   6.890 -0.2333  0.4393  0.2583
  538MOL0     C72522  12.984   1.904   6.909  0.2547 -0.2723  0.6514
  538MOL0     C72523  13.073   1.859   7.010  0.0067  0.4470 -0.1377
  538MOL0     C72524  13.197   1.930   7.047 -0.1095  0.9512 -0.1593
  538MOL0     O72525  13.260   1.876   7.156  0.7058 -0.5582  0.0302
  538MOL0     C72526  13.383   1.929   7.198 -0.3399 -0.9417  0.4434
  538MOL0     C72527  13.408   2.068   7.188 -1.8621 -0.7315 -0.6247
  538MOL0     C72528  13.540   2.116   7.200 -0.3154 -1.0447  0.2490
  538MOL0     C72529  13.639   2.027   7.248  0.1997 -0.2560  0.2759
  538MOL0     O72530  13.768   2.067   7.282 -0.6397  0.7200  0.1452
  538MOL0     C72531  13.880   1.988   7.266  0.8915  0.7958  0.4433
  538MOL0     C72532  13.921   1.962   7.113  0.1717  0.7006 -0.0613
  538MOL0     C72533  14.072   1.922   7.090  0.4291 -0.4799 -0.8983
  538MOL0     C72534  14.171   2.048   7.101 -0.4283  0.2247  0.0246
  538MOL0     C72535  14.277   2.037   6.992 -0.1820 -0.3297  0.7798
  538MOL0     C72536  14.361   1.907   6.999 -0.8137  0.1111  0.2976
  538MOL0     C72537  14.489   1.921   6.909 -0.8245 -0.2747  0.0817
  538MOL0     C72538  14.588   1.811   6.920 -0.2806 -0.1542 -0.1551
  538MOL0    Cl72539  14.732   1.864   6.826  0.3078 -0.1782  0.0343
  538MOL0     C72540  13.597   1.901   7.294 -0.4850  1.1029 -0.1854
  538MOL0     C72541  13.480   1.846   7.253  0.6155  0.1824  0.7485
  538MOL0     O72542  13.247   2.005   6.972  0.7503  0.0610 -0.4010
  538MOL0     C72543  13.038   1.742   7.076  0.3858 -0.1739 -1.0829
  538MOL0     C72544  12.924   1.678   7.041  0.5829 -0.6121  0.7637
  538MOL0     N72545  12.322   1.231   7.029  0.2994  0.3961  0.1363
  538MOL0     N72546  12.272   1.154   6.942 -0.3482  0.1375 -0.4632
  538MOL0     C72547  11.027   1.125   6.751 -0.2417 -0.7634  0.8367
  538MOL0     C72548  10.884   1.149   6.755 -0.4831  0.0103  0.0023
  538MOL0     C72549  10.454   1.214   6.569 -0.5126  0.0600  0.0114
  538MOL0     C72550  10.391   1.241   6.687  0.3088  0.6106 -0.3443
  538MOL0     C72551  10.253   1.265   6.683 -0.2557 -0.1210 -0.1626
  538MOL0     C72552  10.171   1.225   6.570  0.0883 -0.1817 -0.5947
  538MOL0     O72553  10.040   1.217   6.563  0.4086  0.7707  0.3044
  538MOL0     C72554   9.966   1.230   6.682 -0.3856 -0.6319 -0.7293
  538MOL0     C72555   9.950   1.096   6.755 -0.4763 -0.3541 -0.6968
  538MOL0     C72556   9.845   1.013   6.680 -0.2627  0.0687  0.1220
  538MOL0     C72557   9.832   0.868   6.732  0.4282 -0.3779 -0.3952
  538MOL0     C72558   9.796   0.880   6.874 -0.8211 -0.5904  0.5187
  538MOL0     C72559   9.762   0.892   6.988 -0.2121  0.0525 -0.5783
  538MOL0     C72560  10.240   1.191   6.458 -0.3234  0.1983 -0.0437
  538MOL0     C72561  10.381   1.185   6.454 -0.3455 -0.0675  0.6631
  538MOL0     C72562  10.429   1.165   6.315 -0.6400  0.0449  0.1361
  538MOL0     H72563  10.792   1.012   6.460 -1.3724  0.8475  0.9287
  538MOL0     H72564  11.041   0.989   6.435  0.1076  2.8914 -1.3087
  538MOL0     H72565  11.292   1.162   6.800  0.1806 -1.1109  0.9344
  538MOL0     H72566  11.267   0.989   6.818  1.5720 -2.7042  0.0291
  538MOL0     H72567  11.461   0.943   6.659 -1.1311  1.4894 -0.9784
  538MOL0     H72568  11.514   1.010   6.809  1.0139 -1.3052 -0.6164
  538MOL0     H72569  11.496   1.242   6.709  1.5055 -0.0628  1.3586
  538MOL0     H72570  11.471   1.149   6.559 -5.2380  0.0820  3.3139
  538MOL0     H72571  11.684   1.040   6.594  0.2944  0.3357 -1.5905
  538MOL0     H72572  11.721   1.208   6.589 -0.7146 -0.3808 -0.6901
  538MOL0     H72573  11.723   1.240   6.822 -0.8280  0.7645 -3.1192
  538MOL0     H72574  11.683   1.081   6.872  1.0241 -1.6964 -0.1517
  538MOL0     H72575  11.914   1.099   6.905 -1.3599 -2.5479  0.3723
  538MOL0     H72576  11.903   1.011   6.741  0.2094  0.2075 -1.2969
  538MOL0     H72577  11.951   1.306   6.816 -0.8651 -0.4529 -0.1939
  538MOL0     H72578  11.933   1.255   6.652 -4.0439  1.1349  1.4478
  538MOL0     H72579  12.143   1.088   6.721  2.0488  0.0937  0.5002
  538MOL0     H72580  12.165   1.258   6.666  0.4512  0.2293  0.1666
  538MOL0     H72581  12.140   1.446   6.878  0.1671  0.6753  1.8312
  538MOL0     H72582  12.259   1.570   7.060 -1.1443 -0.4934 -0.4308
  538MOL0     H72583  12.241   1.456   7.189  0.0934 -0.7886  0.5537
  538MOL0     H72584  12.455   1.595   7.194  2.3329  0.0745 -1.2153
  538MOL0     H72585  12.486   1.422   7.176  1.7009 -1.3005 -3.3183
  538MOL0     H72586  12.469   1.631   6.952 -0.4836  1.0660  0.0969
  538MOL0     H72587  12.519   1.472   6.912  1.5529  0.2613  0.0686
  538MOL0     H72588  12.727   1.466   7.002 -1.0892 -0.2886 -1.5169
  538MOL0     H72589  12.691   1.585   7.118 -0.0186  0.8635 -0.4338
  538MOL0     H72590  12.799   1.886   6.817 -0.2998 -2.4583 -1.6957
  538MOL0     H72591  13.006   1.993   6.851 -0.0906 -1.5131 -1.4576
  538MOL0     H72592  13.333   2.134   7.146 -2.5208 -2.1450 -1.7621
  538MOL0     H72593  13.555   2.222   7.185 -3.4752 -0.8119 -2.5416
  538MOL0     H72594  13.963   2.043   7.312 -0.7214  1.9916  2.0693
  538MOL0     H72595  13.875   1.891   7.315  0.7682 -1.2967 -3.3589
  538MOL0     H72596  13.850   1.897   7.061  0.1966 -0.6659  1.5322
  538MOL0     H72597  13.905   2.065   7.077 -0.9633 -0.2905 -2.6611
  538MOL0     H72598  14.093   1.841   7.161 -1.0451 -0.9741 -0.9846
  538MOL0     H72599  14.089   1.878   6.992  1.6744 -1.8811 -0.0987
  538MOL0     H72600  14.216   2.046   7.201 -5.1626  0.1244  2.4553
  538MOL0     H72601  14.124   2.147   7.103 -0.1652  0.3449  0.4904
  538MOL0     H72602  14.342   2.124   7.002  1.9579 -1.5910 -1.2061
  538MOL0     H72603  14.226   2.044   6.895  1.7800  0.6637 -0.2414
  538MOL0     H72604  14.387   1.887   7.104  0.5175 -4.0587 -0.5988
  538MOL0     H72605  14.306   1.817   6.969  1.1983 -0.8237 -0.7812
  538MOL0     H72606  14.542   2.008   6.948 -1.9427 -0.3442  1.8448
  538MOL0     H72607  14.463   1.938   6.804 -0.2017 -2.5913 -0.5218
  538MOL0     H72608  14.615   1.793   7.024 -1.0163 -1.6559 -0.1896
  538MOL0     H72609  14.554   1.713   6.884 -0.8732  0.3128 -0.9155
  538MOL0     H72610  13.656   1.829   7.350 -2.2739  0.2234  0.6432
  538MOL0     H72611  13.463   1.741   7.272 -0.0630 -0.0051 -0.7753
  538MOL0     H72612  13.097   1.708   7.161 -0.2299 -0.1668 -0.6459
  538MOL0     H72613  12.907   1.581   7.087  0.8020 -1.9194 -1.6826
  538MOL0     H72614  11.088   1.143   6.839  0.3355  0.9543  0.1393
  538MOL0     H72615  10.851   1.196   6.847  1.0052 -2.1101  1.7113
  538MOL0     H72616  10.450   1.266   6.774  1.5367 -1.2488 -0.5771
  538MOL0     H72617  10.205   1.310   6.769 -0.7504  0.5852 -0.7929
  538MOL0     H72618   9.874   1.280   6.650 -0.0923  1.0607  0.8995
  538MOL0     H72619  10.003   1.304   6.754 -3.0356  2.1843 -2.0634
  538MOL0     H72620   9.914   1.111   6.857 -1.8992  1.5012 -1.4216
  538MOL0     H72621  10.050   1.051   6.767 -0.7048 -1.3814 -2.2524
  538MOL0     H72622   9.872   1.012   6.573  0.7913 -0.0064  0.3781
  538MOL0     H72623   9.749   1.064   6.687 -0.2587  0.6595 -2.7182
  538MOL0     H72624   9.751   0.815   6.680  0.9231 -1.5435 -0.0175
  538MOL0     H72625   9.925   0.810   6.725  1.6432  1.4709 -0.1944
  538MOL0     H72626   9.744   0.916   7.091  1.4379 -0.2299 -0.1851
  538MOL0     H72627  10.184   1.151   6.375 -2.8165 -0.7022  1.9301
  538MOL0     H72628  10.426   1.057   6.294  0.5182  0.3297 -1.7427
  538MOL0     H72629  10.367   1.228   6.251  0.5403  2.3632  1.1519
  538MOL0     H72630  10.531   1.195   6.288 -0.7644  2.0120  1.5982
  539MOL0     O72631   5.557   3.611   3.252 -1.0164 -0.0943  0.6003
  539MOL0     C72632   5.562   3.489   3.261 -0.7655  0.0939  0.4052
  539MOL0     O72633   5.661   3.409   3.321  0.6285  0.2814 -0.4212
  539MOL0     C72634   5.767   3.478   3.379  0.5106 -0.1756  0.2405
  539MOL0     C72635   5.875   3.516   3.303  0.8162  0.4566 -0.0352
  539MOL0     C72636   5.977   3.591   3.361  1.3091  1.1545 -0.6373
  539MOL0     C72637   5.976   3.629   3.498  0.1460  0.1068  0.1371
  539MOL0     O72638   6.082   3.695   3.555  0.5725  0.3837  0.0184
  539MOL0     C72639   6.185   3.741   3.468 -0.8782 -0.5886  0.0847
  539MOL0     C72640   6.259   3.846   3.566  0.1570 -0.5340  0.0910
  539MOL0     C72641   6.382   3.895   3.511  0.8269  1.0163  0.6948
  539MOL0     C72642   6.435   4.034   3.573 -0.5810  0.0570  1.1124
  539MOL0     C72643   6.579   4.079   3.522 -0.1363  0.1780  0.5405
  539MOL0     C72644   6.634   4.200   3.575 -0.3829 -0.0232 -1.1630
  539MOL0     C72645   6.785   4.217   3.548  0.6940 -0.2530 -0.3343
  539MOL0     C72646   6.850   4.324   3.639 -0.3563  0.1808 -0.3146
  539MOL0     N72647   6.996   4.320   3.646 -0.6316  0.2473 -0.3072
  539MOL0     C72648   7.070   4.297   3.766 -0.0725  0.1786  1.0788
  539MOL0     C72649   7.205   4.334   3.739  0.6150  0.2264 -0.4497
  539MOL0     C72650   7.318   4.335   3.842 -0.8711  0.2317 -0.1148
  539MOL0     C72651   7.316   4.227   3.958 -0.6120  0.1586  0.4928
  539MOL0     C72652   7.449   4.209   4.037  1.1013  0.1438 -0.1557
  539MOL0     C72653   7.493   4.325   4.125 -0.3797  0.6183  0.3848
  539MOL0     O72654   7.602   4.285   4.208  0.3536 -0.5563  0.8001
  539MOL0     C72655   7.695   4.385   4.220  0.2817  0.3317  0.4047
  539MOL0     C72656   7.828   4.363   4.187  0.3970 -0.0578  0.1495
  539MOL0     C72657   7.922   4.457   4.207 -0.9202 -0.3906 -0.4493
  539MOL0     C72658   7.888   4.586   4.250 -0.8654 -0.5443  0.2173
  539MOL0     C72659   7.997   4.692   4.262 -0.1233  0.7675  1.1727
  539MOL0     O72660   7.943   4.811   4.287 -0.0752 -0.1858  0.1840
  539MOL0     C72661   8.022   4.925   4.309  0.0178  0.7151 -0.6206
  539MOL0     C72662   7.998   5.005   4.419 -0.5931 -0.7360 -0.4481
  539MOL0     C72663   8.060   5.131   4.431 -0.6981  0.1008 -0.5928
  539MOL0     C72664   8.165   5.164   4.343 -0.4536 -0.2876  0.4876
  539MOL0     O72665   8.245   5.265   4.391  0.2529  0.2244 -0.3964
  539MOL0     C72666   8.375   5.274   4.342 -0.7194 -0.2334 -0.7194
  539MOL0     C72667   8.460   5.356   4.441  0.4938  0.2513  1.2298
  539MOL0     C72668   8.590   5.401   4.382  0.0795 -0.8146 -0.9589
  539MOL0     C72669   8.572   5.527   4.300 -0.3478 -1.0718 -0.2394
  539MOL0     C72670   8.696   5.593   4.246  0.4974 -0.8403 -0.1474
  539MOL0     C72671   8.795   5.642   4.365  0.2333 -0.1058  0.8414
  539MOL0     C72672   8.885   5.745   4.308  0.1105 -0.0684  0.4642
  539MOL0     C72673   9.006   5.769   4.402 -0.1919 -0.4561  0.7325
  539MOL0    Cl72674   9.131   5.633   4.382  0.2525 -0.1317 -0.2112
  539MOL0     C72675   8.188   5.084   4.228 -0.7249  0.3348  0.3890
  539MOL0     C72676   8.118   4.970   4.219 -0.2716  0.2902 -0.2881
  539MOL0     O72677   8.114   4.671   4.253 -0.6908 -0.3242 -0.6346
  539MOL0     C72678   7.751   4.614   4.275 -0.0307  0.0551 -0.1123
  539MOL0     C72679   7.660   4.512   4.270  0.1625 -0.7164 -0.1944
  539MOL0     N72680   7.200   4.383   3.606 -0.1322  0.5005  1.0062
  539MOL0     N72681   7.081   4.370   3.554 -0.2000  0.2098  0.2067
  539MOL0     C72682   5.864   3.590   3.571  0.5935  0.4981  0.3491
  539MOL0     C72683   5.755   3.522   3.519  0.8282 -0.5595  0.8521
  539MOL0     C72684   5.452   3.416   3.204  0.9260 -0.1513 -0.2555
  539MOL0     C72685   5.487   3.295   3.137 -1.0578  1.0832 -0.3819
  539MOL0     C72686   5.391   3.213   3.059 -0.8574 -0.5086 -0.9492
  539MOL0     C72687   5.260   3.257   3.052 -0.6415 -0.0212  0.1415
  539MOL0     O72688   5.163   3.212   2.963  0.1241 -0.1097 -0.2981
  539MOL0     C72689   5.174   3.100   2.874 -0.4437  0.3500 -0.2001
  539MOL0     C72690   5.129   2.966   2.945 -0.5805 -0.4357 -0.5230
  539MOL0     C72691   4.974   2.975   2.964  0.6520  0.1072  0.3642
  539MOL0     C72692   4.933   2.855   3.061  0.7578 -0.6465 -0.8395
  539MOL0     C72693   4.787   2.851   3.062 -0.1044  0.4136 -0.2498
  539MOL0     C72694   4.662   2.854   3.059  0.4724 -0.1524  0.1126
  539MOL0     C72695   5.224   3.372   3.129 -0.4389  0.1123  0.7845
  539MOL0     C72696   5.311   3.452   3.208  0.6568  0.2563  0.5100
  539MOL0     C72697   5.260   3.566   3.291  0.1761 -0.0457 -0.4526
  539MOL0     H72698   5.869   3.518   3.194  1.7598 -2.2534 -0.2039
  539MOL0     H72699   6.065   3.625   3.307  1.7345  0.7345 -0.2185
  539MOL0     H72700   6.256   3.662   3.442 -1.5081 -1.4666  0.9606
  539MOL0     H72701   6.151   3.783   3.373 -2.4632 -0.3487  0.7305
  539MOL0     H72702   6.281   3.807   3.666  3.6233  1.1362  0.1170
  539MOL0     H72703   6.197   3.933   3.589  1.4445 -0.0314  1.8549
  539MOL0     H72704   6.377   3.907   3.403 -2.7792 -0.3751  0.5994
  539MOL0     H72705   6.454   3.815   3.529 -1.1708 -1.4817 -1.6279
  539MOL0     H72706   6.364   4.117   3.561 -1.2851 -0.3362  2.4042
  539MOL0     H72707   6.445   4.013   3.680 -1.5400  0.3845  1.2782
  539MOL0     H72708   6.647   3.996   3.544 -0.0579  0.7486  2.6930
  539MOL0     H72709   6.564   4.090   3.414  0.8051 -1.0280  0.2620
  539MOL0     H72710   6.580   4.284   3.531  1.3659  1.8536  0.0461
  539MOL0     H72711   6.621   4.203   3.684  2.6362  1.8414 -0.7447
  539MOL0     H72712   6.795   4.254   3.445 -1.4086 -0.7220 -0.7461
  539MOL0     H72713   6.836   4.120   3.549 -1.4329 -1.4344 -0.9349
  539MOL0     H72714   6.796   4.417   3.616 -2.7254 -1.2451 -0.9634
  539MOL0     H72715   6.819   4.288   3.738  2.0218  1.8477  1.1408
  539MOL0     H72716   7.027   4.262   3.859 -1.9008 -0.5830 -0.0145
  539MOL0     H72717   7.416   4.316   3.797 -2.1939 -2.3935 -2.1461
  539MOL0     H72718   7.332   4.436   3.882  1.8638 -0.2461  0.3367
  539MOL0     H72719   7.238   4.254   4.030 -2.5594  1.7934 -2.0368
  539MOL0     H72720   7.303   4.130   3.909 -4.5739  1.1928 -0.8279
  539MOL0     H72721   7.529   4.185   3.966 -1.1502 -3.0767 -1.8814
  539MOL0     H72722   7.437   4.120   4.099  0.0798  0.7140  0.4808
  539MOL0     H72723   7.410   4.354   4.190 -1.5790 -0.1468 -0.7546
  539MOL0     H72724   7.525   4.400   4.053 -1.5929 -1.2550 -2.2668
  539MOL0     H72725   7.863   4.274   4.135 -1.5190 -1.2652  0.8306
  539MOL0     H72726   8.022   4.440   4.169  0.0295 -1.6238  2.3541
  539MOL0     H72727   7.931   4.983   4.502 -1.8971  1.4750 -0.8355
  539MOL0     H72728   8.034   5.201   4.510  3.5460  0.7452  0.4948
  539MOL0     H72729   8.422   5.177   4.325  0.1495 -0.2987  1.6754
  539MOL0     H72730   8.378   5.327   4.246  3.0612 -0.4083 -0.8387
  539MOL0     H72731   8.402   5.440   4.480 -0.7454 -0.0018  0.0184
  539MOL0     H72732   8.476   5.286   4.524  2.7415 -0.0837  0.5866
  539MOL0     H72733   8.669   5.421   4.455  0.5613 -1.9104 -1.1648
  539MOL0     H72734   8.635   5.322   4.321  1.7053 -2.7865  2.5491
  539MOL0     H72735   8.510   5.602   4.350  1.8030  1.2732 -0.9113
  539MOL0     H72736   8.515   5.506   4.209  2.0784 -1.0872 -1.8168
  539MOL0     H72737   8.666   5.683   4.193 -1.9747 -1.4737  0.0647
  539MOL0     H72738   8.756   5.532   4.177  1.8393 -0.0276  0.2545
  539MOL0     H72739   8.733   5.678   4.448 -0.7981  1.2234 -0.4497
  539MOL0     H72740   8.836   5.548   4.403  0.7680 -0.1528  0.1694
  539MOL0     H72741   8.827   5.838   4.303  1.2826  0.6523 -0.4456
  539MOL0     H72742   8.912   5.720   4.205 -1.0838 -1.5019  0.4827
  539MOL0     H72743   9.058   5.862   4.381  1.5041 -0.7166  3.3240
  539MOL0     H72744   8.978   5.778   4.507 -0.7378  0.3953  0.5265
  539MOL0     H72745   8.274   5.091   4.162 -0.8117  0.0033  0.2393
  539MOL0     H72746   8.140   4.892   4.146 -1.4011 -0.6888  0.3900
  539MOL0     H72747   7.722   4.714   4.304  3.1789  0.5573  1.8423
  539MOL0     H72748   7.560   4.536   4.304  1.5408  0.5507  3.4762
  539MOL0     H72749   5.855   3.616   3.676 -1.1682  0.4081  0.2413
  539MOL0     H72750   5.673   3.504   3.587 -0.0877  1.3057  0.2874
  539MOL0     H72751   5.589   3.258   3.138 -1.9156 -1.7598 -2.7803
  539MOL0     H72752   5.417   3.118   3.015  0.9268  0.0383 -1.1789
  539MOL0     H72753   5.277   3.086   2.839 -0.5866  0.8190 -0.8336
  539MOL0     H72754   5.127   3.124   2.779  2.4562  1.3582 -1.5153
  539MOL0     H72755   5.174   2.965   3.045 -1.4464 -1.0388 -0.1204
  539MOL0     H72756   5.163   2.878   2.889  0.4043 -1.2307  1.2384
  539MOL0     H72757   4.933   2.964   2.864  0.4534 -0.1660  0.4748
  539MOL0     H72758   4.956   3.073   3.009 -0.0502 -0.5972  1.6890
  539MOL0     H72759   4.975   2.760   3.027 -1.6901 -1.1128 -2.8505
  539MOL0     H72760   4.962   2.875   3.165 -2.9236  1.5090 -0.0328
  539MOL0     H72761   4.556   2.872   3.053  0.5792  0.4003 -0.2918
  539MOL0     H72762   5.122   3.407   3.125  0.1361  1.7748 -1.4429
  539MOL0     H72763   5.320   3.652   3.258 -0.9800  1.0646  0.2188
  539MOL0     H72764   5.154   3.574   3.265  0.6730  0.8068 -2.3456
  539MOL0     H72765   5.277   3.554   3.399  0.4630  2.2582 -0.1787
  540MOL0     O72766   5.023   2.235  10.905  0.2670 -0.1324 -0.2633
  540MOL0     C72767   5.010   2.116  10.893 -0.1658  1.4051 -0.0164
  540MOL0     O72768   5.110   2.022  10.876 -0.2869 -0.0041 -0.5397
  540MOL0     C72769   5.235   2.058  10.859  1.0062 -0.3081 -0.1062
  540MOL0     C72770   5.298   2.026  10.732  0.7341  0.4800 -0.0933
  540MOL0     C72771   5.434   2.051  10.708  0.0191 -0.1531  0.5550
  540MOL0     C72772   5.514   2.127  10.803  0.8293  0.2393 -0.0727
  540MOL0     O72773   5.644   2.162  10.770  0.2384 -0.2305 -0.2837
  540MOL0     C72774   5.749   2.130  10.869 -0.4259  0.0786  0.5520
  540MOL0     C72775   5.853   2.233  10.856 -0.1287 -0.7488 -0.0358
  540MOL0     C72776   5.971   2.237  10.955  0.3069  0.4603 -0.0788
  540MOL0     C72777   6.067   2.358  10.932  0.5723  0.1531 -0.2264
  540MOL0     C72778   6.202   2.337  11.018 -0.4169  0.8045  0.4453
  540MOL0     C72779   6.316   2.441  10.986 -0.4281  0.1818 -0.4351
  540MOL0     C72780   6.446   2.432  11.070 -0.4304  0.6488 -0.3442
  540MOL0     C72781   6.553   2.485  10.976 -0.6434 -1.1297  0.6087
  540MOL0     N72782   6.680   2.496  11.051 -0.2136  0.4763  0.4500
  540MOL0     C72783   6.785   2.570  11.007  0.1366 -0.1789  0.3034
  540MOL0     C72784   6.888   2.525  11.076 -1.2662 -1.6808  0.3342
  540MOL0     C72785   7.021   2.586  11.055 -0.6242  1.2368 -0.0236
  540MOL0     C72786   7.130   2.497  11.104  0.3045  0.3798 -0.1442
  540MOL0     C72787   7.263   2.553  11.056  1.2393 -0.7608 -0.2249
  540MOL0     C72788   7.384   2.489  11.098 -0.4305  0.7528 -0.2349
  540MOL0     O72789   7.495   2.580  11.063  0.4846  1.0031 -0.4037
  540MOL0     C72790   7.601   2.524  10.999 -0.7367  1.0331  0.0180
  540MOL0     C72791   7.688   2.618  10.942  0.0057 -0.7904 -0.4131
  540MOL0     C72792   7.802   2.584  10.865  0.4359  0.5575  0.4290
  540MOL0     C72793   7.833   2.440  10.860 -1.1615  0.6038  0.1328
  540MOL0     C72794   7.967   2.401  10.803 -1.4666  1.3075 -0.5500
  540MOL0     O72795   7.991   2.271  10.783  0.1562 -0.3462 -0.3038
  540MOL0     C72796   8.073   2.221  10.689 -0.7926 -0.1456  0.4182
  540MOL0     C72797   8.077   2.082  10.676 -0.6053 -0.9932 -0.1275
  540MOL0     C72798   8.175   2.014  10.599  0.4769  0.0717 -0.2286
  540MOL0     C72799   8.268   2.091  10.533  0.0237 -0.2507  0.2076
  540MOL0     O72800   8.353   2.023  10.441  0.9979  0.1540  0.0045
  540MOL0     C72801   8.394   1.886  10.473  0.3226  0.0028 -0.2592
  540MOL0     C72802   8.513   1.841  10.392 -0.7550 -0.3112 -0.1690
  540MOL0     C72803   8.617   1.940  10.354 -1.1203 -0.0063  0.5005
  540MOL0     C72804   8.727   1.870  10.263  0.3099 -0.2295 -0.0591
  540MOL0     C72805   8.844   1.959  10.217  0.5811 -0.7419  0.0726
  540MOL0     C72806   8.951   1.963  10.325 -0.1977  0.5747  1.1210
  540MOL0     C72807   9.052   2.063  10.297  0.5052 -0.3118  0.4053
  540MOL0     C72808   9.157   2.063  10.400 -0.7030  0.8900 -0.2557
  540MOL0    Cl72809   9.321   2.148  10.366 -0.0009 -0.3950 -0.3882
  540MOL0     C72810   8.254   2.225  10.527 -0.3877  0.0839 -0.1960
  540MOL0     C72811   8.170   2.292  10.610  0.0168  0.8295 -0.6472
  540MOL0     O72812   8.055   2.490  10.805  0.2586 -0.8472  1.0099
  540MOL0     C72813   7.752   2.353  10.931 -0.4574 -0.8308 -0.7565
  540MOL0     C72814   7.634   2.389  11.000  0.8484  0.0473  0.7103
  540MOL0     N72815   6.845   2.436  11.166  0.2087  0.1414  0.5137
  540MOL0     N72816   6.725   2.413  11.147  0.3561 -0.1536 -0.2686
  540MOL0     C72817   5.450   2.162  10.931 -0.0916  1.0439  0.0083
  540MOL0     C72818   5.315   2.129  10.956 -0.2236 -0.3186 -0.5055
  540MOL0     C72819   4.881   2.055  10.855  0.1201  0.0680  0.3609
  540MOL0     C72820   4.874   1.946  10.769 -0.0903  0.1179  0.1505
  540MOL0     C72821   4.760   1.882  10.736 -0.2455 -0.2921  0.7331
  540MOL0     C72822   4.643   1.927  10.798 -0.0657 -0.5364 -0.4786
  540MOL0     O72823   4.513   1.871  10.780  0.0230  0.1768 -0.3478
  540MOL0     C72824   4.511   1.725  10.779  0.4455  0.2473 -0.0901
  540MOL0     C72825   4.362   1.680  10.788  0.3139  0.0082 -0.4507
  540MOL0     C72826   4.318   1.687  10.932  1.1350  0.3078  0.1563
  540MOL0     C72827   4.162   1.677  10.932 -0.2901 -0.8673 -0.4434
  540MOL0     C72828   4.113   1.676  11.074 -0.0893  0.1966  1.0767
  540MOL0     C72829   4.066   1.673  11.186  0.9721 -0.5668  0.2125
  540MOL0     C72830   4.651   2.030  10.895  0.2012 -0.0826  0.2522
  540MOL0     C72831   4.770   2.089  10.922 -0.1712 -0.5205  0.2570
  540MOL0     C72832   4.777   2.193  11.036 -0.1980  0.1944  0.2716
  540MOL0     H72833   5.231   1.972  10.667 -0.5086  1.1537  0.5978
  540MOL0     H72834   5.482   2.014  10.619 -0.0284  2.3887 -0.5853
  540MOL0     H72835   5.723   2.127  10.975  1.0102  0.2662  0.9348
  540MOL0     H72836   5.780   2.030  10.839  1.7184  1.0288 -0.6448
  540MOL0     H72837   5.797   2.325  10.879  0.5709 -0.1230 -0.7510
  540MOL0     H72838   5.885   2.240  10.751 -1.3609 -1.8101 -0.5142
  540MOL0     H72839   6.027   2.144  10.944 -1.5689 -0.7325 -0.0395
  540MOL0     H72840   5.940   2.234  11.060  2.4006 -0.5044  0.5615
  540MOL0     H72841   6.088   2.364  10.825  1.0234  2.1783 -0.0732
  540MOL0     H72842   6.017   2.450  10.966 -1.2132 -1.3705  1.4767
  540MOL0     H72843   6.187   2.343  11.126 -4.0831  0.1284  0.0954
  540MOL0     H72844   6.252   2.240  11.006 -1.4614  0.1116  1.4479
  540MOL0     H72845   6.336   2.438  10.878  5.0290 -0.7763  0.3090
  540MOL0     H72846   6.271   2.540  10.998 -0.3143  0.0247  1.6800
  540MOL0     H72847   6.461   2.326  11.094 -1.2501  0.4473 -0.6996
  540MOL0     H72848   6.424   2.488  11.161  2.5238  1.3931  0.0056
  540MOL0     H72849   6.581   2.429  10.886  2.0549  0.3953  0.4068
  540MOL0     H72850   6.518   2.586  10.951 -0.4477 -0.8772  1.3486
  540MOL0     H72851   6.802   2.641  10.927  1.6341  0.3745  1.0800
  540MOL0     H72852   7.024   2.588  10.946 -1.5412 -2.6388 -0.2928
  540MOL0     H72853   7.037   2.687  11.092  1.0067  1.0142 -0.0443
  540MOL0     H72854   7.139   2.489  11.212  1.8936  1.1009 -0.1826
  540MOL0     H72855   7.124   2.394  11.069  1.2130  0.0226  0.6897
  540MOL0     H72856   7.252   2.655  11.095  1.6322  0.0355 -2.0656
  540MOL0     H72857   7.260   2.553  10.947  1.4013  1.4513 -0.2787
  540MOL0     H72858   7.380   2.394  11.044 -0.4469 -1.4107  3.2930
  540MOL0     H72859   7.389   2.460  11.203 -0.0243 -2.6075 -1.0769
  540MOL0     H72860   7.658   2.722  10.938  0.9528 -0.5141 -0.6394
  540MOL0     H72861   7.856   2.652  10.800 -1.3778  0.9918 -0.7169
  540MOL0     H72862   8.004   2.028  10.735 -0.1551 -0.8154  0.6093
  540MOL0     H72863   8.176   1.906  10.603 -1.8957 -0.0244  3.8743
  540MOL0     H72864   8.426   1.881  10.577 -0.3194 -0.6701 -0.0899
  540MOL0     H72865   8.322   1.805  10.456  3.2585 -2.8169 -0.2637
  540MOL0     H72866   8.557   1.754  10.440 -3.0528 -1.2087  0.4597
  540MOL0     H72867   8.461   1.816  10.299 -3.1850  1.8961  0.4676
  540MOL0     H72868   8.581   2.029  10.301  2.9527  0.4431 -1.9298
  540MOL0     H72869   8.661   1.979  10.447 -1.3843  0.5755  0.3840
  540MOL0     H72870   8.674   1.849  10.169  1.2683 -0.3517 -0.5891
  540MOL0     H72871   8.758   1.771  10.296  1.6973 -0.6311 -2.3421
  540MOL0     H72872   8.812   2.062  10.201 -0.7334 -1.0637  0.5007
  540MOL0     H72873   8.887   1.927  10.121  1.7677  0.6100  0.1105
  540MOL0     H72874   8.901   1.997  10.416  2.5355  0.6452  2.7261
  540MOL0     H72875   9.001   1.868  10.347  0.8772  0.5980 -0.9692
  540MOL0     H72876   9.012   2.163  10.282 -0.8900 -1.0651 -1.2235
  540MOL0     H72877   9.106   2.041  10.204 -1.2906  1.1387 -1.0391
  540MOL0     H72878   9.117   2.105  10.492  2.8172 -1.4739  2.6170
  540MOL0     H72879   9.189   1.959  10.415 -2.4356  0.5440  1.4263
  540MOL0     H72880   8.321   2.280  10.461  0.4140  0.0079  0.5312
  540MOL0     H72881   8.164   2.400  10.609  1.3657  0.9780  1.1878
  540MOL0     H72882   7.792   2.255  10.955  1.6343 -0.4954 -2.6011
  540MOL0     H72883   7.577   2.311  11.050 -0.6168 -1.8357 -3.4035
  540MOL0     H72884   5.509   2.217  11.004  0.5740 -0.9742  1.0800
  540MOL0     H72885   5.272   2.141  11.055  1.3826 -1.7032  0.4149
  540MOL0     H72886   4.965   1.904  10.727 -0.3391 -1.1472  0.8519
  540MOL0     H72887   4.767   1.806  10.658 -0.3304  1.8590 -1.5064
  540MOL0     H72888   4.576   1.703  10.864  5.6455  0.2003 -3.6110
  540MOL0     H72889   4.571   1.689  10.695 -2.0049 -0.3245 -1.7034
  540MOL0     H72890   4.350   1.583  10.738 -1.4093 -1.0402  1.8149
  540MOL0     H72891   4.290   1.748  10.742  1.8886  2.2393  0.1834
  540MOL0     H72892   4.336   1.782  10.984  4.0669 -0.1996  0.2629
  540MOL0     H72893   4.360   1.599  10.981  1.1693  0.2583  0.0386
  540MOL0     H72894   4.115   1.761  10.880 -0.5788 -0.1024  0.9846
  540MOL0     H72895   4.141   1.589  10.871 -2.4078 -0.6276 -0.1626
  540MOL0     H72896   4.021   1.682  11.283 -0.3475  2.1322 -0.5289
  540MOL0     H72897   4.565   2.061  10.955 -0.9869 -0.3275 -1.2631
  540MOL0     H72898   4.685   2.216  11.090 -1.0718 -1.4510 -0.4491
  540MOL0     H72899   4.840   2.174  11.123 -0.1351  1.1025  0.4251
  540MOL0     H72900   4.812   2.290  11.001  1.3838 -0.4216  0.0430
  541MOL0     O72901  11.357   8.605  10.921  0.0314  0.4697  0.5852
  541MOL0     C72902  11.278   8.575  11.014  0.3802 -0.1513  1.2910
  541MOL0     O72903  11.250   8.666  11.118 -0.4808 -0.1423 -0.1443
  541MOL0     C72904  11.329   8.777  11.138  0.5565 -0.5307  0.4864
  541MOL0     C72905  11.368   8.862  11.036  0.0487  0.0144 -0.0751
  541MOL0     C72906  11.471   8.965  11.052  0.4097  1.1198  0.5193
  541MOL0     C72907  11.526   8.988  11.171 -0.2712 -0.9899  0.2973
  541MOL0     O72908  11.643   9.064  11.195 -0.1306  0.5890  0.0746
  541MOL0     C72909  11.653   9.194  11.139 -0.2383  0.1972  0.3492
  541MOL0     C72910  11.687   9.282  11.257 -0.3906  0.1425 -0.0915
  541MOL0     C72911  11.828   9.277  11.319  0.4836 -0.1678  0.7331
  541MOL0     C72912  11.901   9.403  11.285  0.4713  0.0235 -0.2576
  541MOL0     C72913  12.045   9.399  11.342 -0.6700  0.5689 -0.4490
  541MOL0     C72914  12.057   9.396  11.498  0.0172 -0.4433  0.5349
  541MOL0     C72915  11.985   9.512  11.574 -0.1637  0.7416  0.0663
  541MOL0     C72916  12.038   9.655  11.535  0.3045 -0.2362  0.2234
  541MOL0     N72917  12.183   9.658  11.551 -0.9961  0.2394  0.1943
  541MOL0     C72918  12.242   9.673  11.671 -0.7132 -0.5756 -1.2267
  541MOL0     C72919  12.372   9.644  11.643  1.0671 -0.0176 -0.1229
  541MOL0     C72920  12.480   9.641  11.753  0.1294  0.6376 -0.7910
  541MOL0     C72921  12.502   9.761  11.835 -0.5283 -0.2205 -0.0971
  541MOL0     C72922  12.616   9.755  11.929 -0.5093  0.1262  0.0358
  541MOL0     C72923  12.690   9.890  11.942 -0.3700  0.4640  0.1871
  541MOL0     O72924  12.820   9.876  11.893 -0.3608 -0.2055  0.1479
  541MOL0     C72925  12.923   9.950  11.956 -0.7673  0.6520 -0.7484
  541MOL0     C72926  12.898  10.080  12.011  0.1245 -0.1534  0.5591
  541MOL0     C72927  12.990  10.153  12.076 -0.5206 -0.8398 -0.5544
  541MOL0     C72928  13.119  10.100  12.103 -0.0137  0.4369  0.2676
  541MOL0     C72929  13.208  10.169  12.196  0.5037 -1.0720  0.4623
  541MOL0     O72930  13.345  10.166  12.171  0.8829 -0.1640 -0.3423
  541MOL0     C72931  13.430  10.245  12.242  0.9191 -0.0232 -0.1052
  541MOL0     C72932  13.471  10.364  12.184  0.0419 -0.7445 -0.9159
  541MOL0     C72933  13.580  10.432  12.247 -0.2201  0.2854  0.4223
  541MOL0     C72934  13.634  10.398  12.368  0.2502  0.3923 -0.2698
  541MOL0     O72935  13.739  10.459  12.435 -0.0152 -0.4901 -0.7099
  541MOL0     C72936  13.759  10.601  12.403 -0.3780  0.1745 -0.7056
  541MOL0     C72937  13.869  10.685  12.474  0.6045  1.0356  0.5272
  541MOL0     C72938  14.003  10.626  12.432 -0.5588 -0.0728 -0.1733
  541MOL0     C72939  14.107  10.685  12.525  0.2072 -0.4745 -0.4394
  541MOL0     C72940  14.246  10.616  12.491  0.2239 -0.0686  0.5959
  541MOL0     C72941  14.345  10.663  12.594 -0.6125 -1.1875  0.6081
  541MOL0     C72942  14.346  10.621  12.739  0.6402  1.1727 -0.3488
  541MOL0     C72943  14.435  10.718  12.830  0.7468 -0.1345  0.5738
  541MOL0    Cl72944  14.583  10.732  12.741 -0.0446 -0.2720  0.1002
  541MOL0     C72945  13.583  10.280  12.419  1.3712 -0.3289  0.1120
  541MOL0     C72946  13.482  10.202  12.363 -0.2213 -0.1564  0.5582
  541MOL0     O72947  13.154  10.240  12.285  0.8557  0.0349 -0.5207
  541MOL0     C72948  13.158   9.974  12.049  0.2631 -0.6905  0.2988
  541MOL0     C72949  13.054   9.904  11.976 -0.6574 -0.4659  0.2690
  541MOL0     N72950  12.392   9.617  11.514  0.4292  0.0148 -0.8045
  541MOL0     N72951  12.276   9.629  11.459 -0.0965 -0.4854 -0.6069
  541MOL0     C72952  11.494   8.893  11.273 -0.3542 -0.1305  0.4317
  541MOL0     C72953  11.395   8.795  11.260  0.8280 -0.0532  0.0897
  541MOL0     C72954  11.207   8.443  11.028  0.1299  0.2093  0.7076
  541MOL0     C72955  11.145   8.415  11.148 -1.1710 -0.3480  0.3945
  541MOL0     C72956  11.083   8.291  11.166 -0.0869  0.9542  0.4306
  541MOL0     C72957  11.080   8.194  11.064  0.6993 -0.1059 -0.1968
  541MOL0     O72958  11.016   8.073  11.081 -0.8247  0.4878 -0.2295
  541MOL0     C72959  10.871   8.077  11.068  0.2884  0.8847  0.9185
  541MOL0     C72960  10.839   7.962  10.977 -0.4426 -0.5746  0.3703
  541MOL0     C72961  10.840   8.007  10.823 -0.4124  1.5323  0.5201
  541MOL0     C72962  10.791   7.908  10.718 -0.2205  0.3478  0.0940
  541MOL0     C72963  10.656   7.856  10.745  0.4872 -1.0005 -0.2889
  541MOL0     C72964  10.550   7.812  10.776 -0.5708 -0.5221  0.8894
  541MOL0     C72965  11.127   8.236  10.934 -0.6424  0.3985  0.1847
  541MOL0     C72966  11.188   8.361  10.910  0.2438 -0.0265 -0.5102
  541MOL0     C72967  11.248   8.390  10.771 -0.0249  0.9465 -0.3611
  541MOL0     H72968  11.306   8.849  10.948 -0.6505  1.2750  0.2008
  541MOL0     H72969  11.498   9.017  10.961  0.6481 -2.6483 -1.7667
  541MOL0     H72970  11.740   9.186  11.073 -0.7791 -4.4846 -0.0942
  541MOL0     H72971  11.556   9.221  11.095  0.8858  0.4273 -2.1919
  541MOL0     H72972  11.630   9.259  11.348  1.3056  3.5453  2.0136
  541MOL0     H72973  11.646   9.378  11.226 -1.1416 -1.1363 -3.5131
  541MOL0     H72974  11.889   9.190  11.292 -1.1823 -1.0564 -0.3284
  541MOL0     H72975  11.804   9.273  11.425 -1.0549  1.4818  0.5005
  541MOL0     H72976  11.901   9.429  11.179  0.1361  4.0659  0.5770
  541MOL0     H72977  11.840   9.485  11.323 -1.0999 -0.6660 -1.1664
  541MOL0     H72978  12.089   9.308  11.299 -3.6002 -1.0591 -0.2989
  541MOL0     H72979  12.092   9.488  11.301 -0.7153  1.0759  0.5763
  541MOL0     H72980  12.016   9.298  11.527  0.7597 -1.8667 -2.8521
  541MOL0     H72981  12.162   9.393  11.528  0.7311  0.8134 -1.6733
  541MOL0     H72982  11.996   9.495  11.682 -2.3380  0.7949  0.3425
  541MOL0     H72983  11.879   9.504  11.548 -0.1531 -1.9375  0.5582
  541MOL0     H72984  12.009   9.669  11.430  1.2269 -3.4990 -0.5776
  541MOL0     H72985  11.988   9.734  11.593  4.3846  0.4916  3.1629
  541MOL0     H72986  12.193   9.703  11.763  2.3017 -0.7688  0.5675
  541MOL0     H72987  12.445   9.564  11.822  3.1016 -3.2154 -3.1398
  541MOL0     H72988  12.576   9.604  11.715  1.1096  0.3441  1.7528
  541MOL0     H72989  12.511   9.834  11.755 -1.5471  0.8496  0.7346
  541MOL0     H72990  12.411   9.780  11.892 -1.4097 -2.2234 -0.7364
  541MOL0     H72991  12.694   9.685  11.896 -1.8885 -1.5650  0.2420
  541MOL0     H72992  12.578   9.734  12.029  0.9794  1.7216  1.0076
  541MOL0     H72993  12.699   9.907  12.049  0.0432  0.3134  0.1797
  541MOL0     H72994  12.633   9.967  11.888 -1.3070 -0.0309  0.4435
  541MOL0     H72995  12.799  10.120  11.995  0.2296 -0.3083 -0.5810
  541MOL0     H72996  12.958  10.244  12.125  0.4800 -0.0136 -1.4006
  541MOL0     H72997  13.423  10.404  12.096  1.1199 -1.7115 -1.9716
  541MOL0     H72998  13.629  10.509  12.189  1.4228 -1.3955 -0.5264
  541MOL0     H72999  13.771  10.611  12.294 -0.6500  0.2757 -0.7279
  541MOL0     H73000  13.666  10.659  12.416 -2.0065 -2.4473  0.0590
  541MOL0     H73001  13.863  10.788  12.437  2.0879  1.7818  2.2353
  541MOL0     H73002  13.851  10.668  12.580 -0.0522  0.9473  0.4022
  541MOL0     H73003  14.002  10.517  12.430 -1.9822 -0.0788 -0.0896
  541MOL0     H73004  14.013  10.657  12.327  0.7143 -1.4939 -0.5187
  541MOL0     H73005  14.086  10.672  12.631 -0.2444  0.2014 -0.4370
  541MOL0     H73006  14.104  10.793  12.510 -0.8092 -0.4741 -0.3231
  541MOL0     H73007  14.275  10.652  12.392 -0.4077  3.5281  1.5532
  541MOL0     H73008  14.244  10.507  12.500 -2.7862  0.0081  2.5114
  541MOL0     H73009  14.441  10.633  12.552  0.5695 -0.3374  2.5629
  541MOL0     H73010  14.352  10.772  12.591  1.7864 -1.2706  1.1891
  541MOL0     H73011  14.374  10.516  12.745  0.6007  1.2584  3.2268
  541MOL0     H73012  14.241  10.618  12.770 -0.2192 -0.9768 -3.1104
  541MOL0     H73013  14.388  10.816  12.835  1.6549  0.2679  2.0444
  541MOL0     H73014  14.453  10.685  12.933 -2.5519  4.2737  2.8772
  541MOL0     H73015  13.629  10.250  12.513  3.1045  0.6757 -0.3783
  541MOL0     H73016  13.447  10.114  12.416  1.0737 -1.9602 -1.4400
  541MOL0     H73017  13.248   9.921  12.078 -1.0694 -2.6144  1.1576
  541MOL0     H73018  13.081   9.805  11.938 -1.6407 -0.7703  0.3351
  541MOL0     H73019  11.553   8.893  11.364  0.6116 -0.0624 -0.1749
  541MOL0     H73020  11.355   8.728  11.336  0.3716  0.5335  0.3833
  541MOL0     H73021  11.154   8.481  11.234 -2.2755 -0.4990  0.6405
  541MOL0     H73022  11.034   8.261  11.258 -0.8641  1.1190  0.0692
  541MOL0     H73023  10.843   8.174  11.027  0.7357  1.3897  1.7849
  541MOL0     H73024  10.823   8.053  11.163  0.8940 -0.7627  0.8480
  541MOL0     H73025  10.741   7.920  10.999  0.0991  0.0812  5.1006
  541MOL0     H73026  10.902   7.877  11.003 -2.1738 -2.0413 -0.0954
  541MOL0     H73027  10.946   8.012  10.795 -0.6252 -2.2777 -1.6303
  541MOL0     H73028  10.790   8.101  10.798 -2.3062 -0.6547 -5.7598
  541MOL0     H73029  10.789   7.949  10.617  0.3956 -1.9215 -0.9030
  541MOL0     H73030  10.866   7.828  10.717 -2.5958 -1.9977 -0.6711
  541MOL0     H73031  10.452   7.779  10.807 -1.8006  2.8526  0.9403
  541MOL0     H73032  11.125   8.160  10.857 -0.7826  1.0801 -0.4934
  541MOL0     H73033  11.351   8.354  10.767 -0.2150  0.1495  1.1475
  541MOL0     H73034  11.189   8.341  10.693  0.6592  4.4054 -3.3320
  541MOL0     H73035  11.253   8.493  10.734  1.6941  1.5944  1.4960
  542MOL0     O73036   4.206   0.181   0.159  0.4024 -0.0506 -0.4698
  542MOL0     C73037   4.116   0.263   0.180  0.5611 -0.4418  0.4722
  542MOL0     O73038   4.128   0.406   0.171  0.0279  0.1626 -0.5177
  542MOL0     C73039   4.240   0.458   0.114 -0.5652 -0.1389 -0.4866
  542MOL0     C73040   4.312   0.562   0.190  1.0044  0.9913  0.8142
  542MOL0     C73041   4.431   0.607   0.133  0.1213 -0.4305 -0.0127
  542MOL0     C73042   4.487   0.549   0.014 -0.0982 -0.6299 -0.2309
  542MOL0     O73043   4.600   0.600  -0.046  0.3361 -1.2981  0.1564
  542MOL0     C73044   4.576   0.691  -0.153 -0.0197 -0.2156 -0.3507
  542MOL0     C73045   4.700   0.782  -0.169 -0.0011 -0.5904  0.0538
  542MOL0     C73046   4.725   0.813  -0.315  0.6519  0.5767  0.1055
  542MOL0     C73047   4.848   0.909  -0.326  0.6006  0.5775  0.2762
  542MOL0     C73048   4.909   0.940  -0.458  0.2065 -0.5199  0.0066
  542MOL0     C73049   5.013   1.055  -0.435  0.0996  0.1425  0.2994
  542MOL0     C73050   5.091   1.091  -0.564 -0.2393 -0.5649  0.6121
  542MOL0     C73051   5.213   0.990  -0.583 -0.0136  0.6235 -0.0811
  542MOL0     N73052   5.314   1.036  -0.667 -0.1730  0.0172 -0.5916
  542MOL0     C73053   5.327   1.014  -0.804 -0.3541 -0.7647 -0.1696
  542MOL0     C73054   5.437   1.096  -0.838 -0.5310 -0.2057 -1.0323
  542MOL0     C73055   5.479   1.135  -0.967  0.3341 -0.0101 -0.2645
  542MOL0     C73056   5.610   1.071  -1.015  0.0424  0.2871 -0.1115
  542MOL0     C73057   5.622   1.106  -1.167  0.1352  0.7236 -0.2200
  542MOL0     C73058   5.648   1.249  -1.191  0.1226 -0.1517 -0.4114
  542MOL0     O73059   5.765   1.310  -1.135 -0.2029 -0.0518  0.4987
  542MOL0     C73060   5.797   1.444  -1.164 -0.0066 -0.2014 -0.2706
  542MOL0     C73061   5.925   1.491  -1.120  0.2373 -0.3346  0.9003
  542MOL0     C73062   5.955   1.626  -1.120 -0.9360 -0.6899 -0.7379
  542MOL0     C73063   5.860   1.713  -1.169  1.0943 -1.0765  0.6155
  542MOL0     C73064   5.898   1.858  -1.189  0.4084 -0.5203 -1.1609
  542MOL0     O73065   6.023   1.889  -1.226  0.3260  0.1930  0.2358
  542MOL0     C73066   6.053   1.990  -1.308  0.6920 -0.8896  0.4149
  542MOL0     C73067   6.176   2.050  -1.307 -0.0881  0.5300 -0.4571
  542MOL0     C73068   6.213   2.154  -1.390  0.2479  0.0894  0.2110
  542MOL0     C73069   6.121   2.204  -1.483 -0.9679 -0.3264  0.1671
  542MOL0     O73070   6.143   2.320  -1.571  0.0226 -0.3598 -0.5675
  542MOL0     C73071   6.281   2.379  -1.577 -0.2658  0.5988  0.3156
  542MOL0     C73072   6.372   2.307  -1.683  0.4599 -0.0613  0.1994
  542MOL0     C73073   6.513   2.354  -1.673 -0.1608  0.6302  0.7047
  542MOL0     C73074   6.604   2.266  -1.754 -0.1955 -0.3092 -0.2793
  542MOL0     C73075   6.753   2.306  -1.745 -0.2017  0.1371  0.5053
  542MOL0     C73076   6.848   2.220  -1.836  0.4977 -0.4516 -0.2259
  542MOL0     C73077   6.981   2.290  -1.862 -0.4438  0.4723 -0.0518
  542MOL0     C73078   6.986   2.344  -2.004  0.8581  0.1211  0.2164
  542MOL0    Cl73079   6.835   2.439  -2.045  0.1073  0.4417  0.1142
  542MOL0     C73080   5.992   2.147  -1.478  0.4360 -0.5815  0.1817
  542MOL0     C73081   5.965   2.040  -1.398 -0.2982 -0.1400  0.6314
  542MOL0     O73082   5.806   1.943  -1.163  0.1775  0.4412 -0.1245
  542MOL0     C73083   5.742   1.674  -1.227 -0.7383  0.7302  0.4881
  542MOL0     C73084   5.715   1.541  -1.216  0.4787  0.3430 -0.1793
  542MOL0     N73085   5.493   1.153  -0.721  0.8921 -0.2017  0.2941
  542MOL0     N73086   5.420   1.110  -0.624 -0.8098  0.0230 -0.3275
  542MOL0     C73087   4.407   0.455  -0.062 -0.6679  0.6242 -0.2716
  542MOL0     C73088   4.290   0.407  -0.008 -0.0239  0.1164  0.3384
  542MOL0     C73089   3.982   0.211   0.203 -0.1000 -0.2282 -0.0620
  542MOL0     C73090   3.869   0.296   0.169  0.5307  0.0376 -0.4146
  542MOL0     C73091   3.736   0.255   0.180 -0.2571  0.8912  0.2099
  542MOL0     C73092   3.708   0.129   0.234  0.9003 -0.3765  0.0224
  542MOL0     O73093   3.574   0.094   0.271 -0.0442  0.7292 -0.1248
  542MOL0     C73094   3.527  -0.022   0.202  0.1723 -1.1537  0.3693
  542MOL0     C73095   3.372  -0.010   0.187 -0.5897 -0.1925  0.0279
  542MOL0     C73096   3.316  -0.129   0.103  0.6959 -0.0295  0.0544
  542MOL0     C73097   3.320  -0.268   0.168 -0.5024  0.0680 -0.1599
  542MOL0     C73098   3.294  -0.368   0.062 -0.5455 -0.8804 -0.6918
  542MOL0     C73099   3.265  -0.445  -0.028  0.3676  0.1407  0.1966
  542MOL0     C73100   3.813   0.045   0.278 -0.0101 -0.5087 -0.2734
  542MOL0     C73101   3.950   0.081   0.260  0.2212  0.0495  0.4790
  542MOL0     C73102   4.062  -0.009   0.315  0.1014 -0.1087  0.2263
  542MOL0     H73103   4.252   0.601   0.271 -0.4857 -3.1908  2.0275
  542MOL0     H73104   4.471   0.700   0.170 -4.7077  1.7907  0.3063
  542MOL0     H73105   4.564   0.633  -0.245 -0.1777 -1.5241  0.4749
  542MOL0     H73106   4.483   0.749  -0.154  1.1833  2.1560 -4.9244
  542MOL0     H73107   4.787   0.729  -0.129 -1.3104 -1.8779  1.3012
  542MOL0     H73108   4.694   0.877  -0.116  3.7086  0.9644 -1.9293
  542MOL0     H73109   4.640   0.861  -0.365  0.3349  0.3955  0.4673
  542MOL0     H73110   4.746   0.728  -0.381 -0.5987  0.0547  0.3497
  542MOL0     H73111   4.812   1.004  -0.285  0.5973  0.2427  1.0816
  542MOL0     H73112   4.925   0.878  -0.254 -1.2055  1.0011  2.5336
  542MOL0     H73113   4.970   0.853  -0.484  2.5036  0.4484  1.8673
  542MOL0     H73114   4.837   0.977  -0.532 -0.7860 -0.0620  1.1541
  542MOL0     H73115   4.958   1.143  -0.399  0.8335  0.5504  0.4387
  542MOL0     H73116   5.083   1.037  -0.353 -0.7432 -1.6028  0.6865
  542MOL0     H73117   5.131   1.192  -0.555  0.3081 -0.6610 -0.5540
  542MOL0     H73118   5.021   1.087  -0.648  1.1569 -1.6176 -0.5607
  542MOL0     H73119   5.266   0.969  -0.490  0.4944  0.3461 -0.4263
  542MOL0     H73120   5.170   0.897  -0.623  1.3442  1.8089 -4.9097
  542MOL0     H73121   5.264   0.945  -0.860  0.3281 -2.3083  0.8835
  542MOL0     H73122   5.405   1.100  -1.040  0.2142 -0.9205  0.2877
  542MOL0     H73123   5.486   1.244  -0.975  1.5224 -0.1313 -1.2016
  542MOL0     H73124   5.694   1.110  -0.956 -1.4267 -0.1246  2.3491
  542MOL0     H73125   5.592   0.966  -0.996 -4.2718  0.7998 -0.4138
  542MOL0     H73126   5.532   1.082  -1.224  0.7838 -1.2520 -0.4752
  542MOL0     H73127   5.697   1.039  -1.210 -0.1433  0.5151 -0.3864
  542MOL0     H73128   5.562   1.306  -1.154  0.8091  0.4033  0.3679
  542MOL0     H73129   5.652   1.263  -1.299  2.1846  0.4870 -0.3051
  542MOL0     H73130   5.995   1.416  -1.086  1.3010 -0.8242 -2.1055
  542MOL0     H73131   6.053   1.661  -1.089  0.1940 -2.5179 -2.0462
  542MOL0     H73132   6.247   2.025  -1.229 -0.8907  4.7426  1.9120
  542MOL0     H73133   6.317   2.185  -1.383  0.6646 -1.2897  0.4889
  542MOL0     H73134   6.271   2.487  -1.587  0.9775  0.9495  2.3106
  542MOL0     H73135   6.327   2.362  -1.479  1.5493 -1.0816 -0.7598
  542MOL0     H73136   6.368   2.201  -1.657 -1.6533  0.3882  2.0272
  542MOL0     H73137   6.328   2.308  -1.783 -0.1199 -2.9941  0.3456
  542MOL0     H73138   6.515   2.456  -1.714  0.1419 -0.0243 -1.0244
  542MOL0     H73139   6.543   2.346  -1.568  0.8618 -2.8924  0.2507
  542MOL0     H73140   6.569   2.274  -1.858 -0.6417 -3.7951 -0.5027
  542MOL0     H73141   6.590   2.163  -1.721 -3.1649  0.3705  0.9074
  542MOL0     H73142   6.792   2.298  -1.644  3.0893  0.5042 -0.6132
  542MOL0     H73143   6.761   2.410  -1.777  1.1099 -0.2367 -0.4751
  542MOL0     H73144   6.870   2.122  -1.792  0.5436 -1.4820 -2.4302
  542MOL0     H73145   6.790   2.218  -1.929 -0.8340 -0.1481  0.5671
  542MOL0     H73146   7.065   2.220  -1.851 -1.1093 -0.4532 -0.7338
  542MOL0     H73147   7.000   2.372  -1.791  0.5711  0.2897 -0.0945
  542MOL0     H73148   7.069   2.409  -2.032  1.5315  0.0771  2.0344
  542MOL0     H73149   6.980   2.264  -2.079 -1.1165  0.7591 -0.3669
  542MOL0     H73150   5.924   2.169  -1.559  1.4594 -1.1371 -0.8587
  542MOL0     H73151   5.863   2.006  -1.407 -0.2195 -0.2372  0.0584
  542MOL0     H73152   5.667   1.737  -1.275  0.2302  0.7815 -1.0147
  542MOL0     H73153   5.623   1.502  -1.259  0.7949  1.0866 -1.5901
  542MOL0     H73154   4.437   0.405  -0.154 -0.0207 -1.0665  0.8087
  542MOL0     H73155   4.237   0.321  -0.047 -1.3183  1.0018  0.0948
  542MOL0     H73156   3.896   0.390   0.121  0.5764 -0.2638 -0.9882
  542MOL0     H73157   3.659   0.320   0.139 -1.2703 -0.5127 -0.1825
  542MOL0     H73158   3.559  -0.103   0.268 -1.2075  0.1026  2.7430
  542MOL0     H73159   3.572  -0.028   0.102  5.1562 -3.4236  2.4173
  542MOL0     H73160   3.360   0.090   0.144  1.7188  0.1093 -0.0329
  542MOL0     H73161   3.337  -0.027   0.289  2.7720 -0.6088  1.2490
  542MOL0     H73162   3.351  -0.139  -0.000 -1.9516 -2.5038 -0.7469
  542MOL0     H73163   3.213  -0.104   0.075 -0.1677 -0.5316  2.5277
  542MOL0     H73164   3.416  -0.290   0.215 -0.0270  2.1968 -0.0199
  542MOL0     H73165   3.234  -0.279   0.236  0.3500 -2.8624  0.5760
  542MOL0     H73166   3.234  -0.507  -0.109 -1.4937  2.5665 -1.0993
  542MOL0     H73167   3.786  -0.036   0.346 -2.7776  1.8340  1.6462
  542MOL0     H73168   4.005  -0.082   0.374 -1.9513  1.2073 -0.0325
  542MOL0     H73169   4.124  -0.059   0.240 -1.0119  0.9387 -1.4452
  542MOL0     H73170   4.122   0.057   0.378 -1.0664  2.4406 -1.1921
  543MOL0     O73171   4.388   2.114   5.769 -0.1296  0.0233  0.3272
  543MOL0     C73172   4.287   2.189   5.760  0.6476 -0.2058  0.5402
  543MOL0     O73173   4.288   2.306   5.691  0.1342  0.6224  0.9624
  543MOL0     C73174   4.406   2.344   5.623  0.4317  1.0323  0.8108
  543MOL0     C73175   4.501   2.254   5.556  0.7734 -0.4318  0.7892
  543MOL0     C73176   4.618   2.308   5.510 -0.7831 -0.3630  0.3610
  543MOL0     C73177   4.631   2.451   5.508 -1.0816 -0.1238 -0.1377
  543MOL0     O73178   4.745   2.509   5.471 -0.2312 -0.0877 -0.3332
  543MOL0     C73179   4.822   2.466   5.358  0.8534 -0.2656 -0.0810
  543MOL0     C73180   4.963   2.513   5.391 -0.4771 -0.4479 -0.5296
  543MOL0     C73181   5.051   2.497   5.264  0.9083 -0.2262 -0.7883
  543MOL0     C73182   5.196   2.518   5.319  0.0973  0.7520  0.1306
  543MOL0     C73183   5.289   2.510   5.199 -0.2646 -0.2982 -0.0384
  543MOL0     C73184   5.443   2.491   5.228  0.1155  0.1865 -0.0738
  543MOL0     C73185   5.477   2.354   5.281  0.5066 -0.2478  0.2302
  543MOL0     C73186   5.608   2.356   5.345 -0.2688  0.1384 -0.6971
  543MOL0     N73187   5.722   2.359   5.251 -0.4277  0.9603  0.1765
  543MOL0     C73188   5.819   2.458   5.241 -0.2188 -0.5528  0.0133
  543MOL0     C73189   5.914   2.419   5.148 -0.0028 -1.3185  0.4808
  543MOL0     C73190   6.034   2.516   5.123 -0.1607  0.0741  0.0300
  543MOL0     C73191   6.137   2.496   5.237  0.3491  0.0461 -0.3590
  543MOL0     C73192   6.245   2.599   5.222 -0.4444  0.6774 -0.1904
  543MOL0     C73193   6.363   2.587   5.311  0.3665  0.0908 -0.1211
  543MOL0     O73194   6.461   2.679   5.271 -0.5189 -0.8628 -0.1815
  543MOL0     C73195   6.579   2.680   5.342 -1.0380  0.3318 -0.5992
  543MOL0     C73196   6.586   2.628   5.472 -0.5733 -0.2867  0.1373
  543MOL0     C73197   6.703   2.621   5.540  0.7719 -0.2576 -0.3699
  543MOL0     C73198   6.825   2.664   5.488 -0.8316 -0.0248  0.3842
  543MOL0     C73199   6.946   2.651   5.575  0.3447 -0.4587  0.0861
  543MOL0     O73200   7.074   2.675   5.520  0.0835  0.0380  0.4987
  543MOL0     C73201   7.171   2.686   5.608 -0.6720  0.4025  0.2695
  543MOL0     C73202   7.268   2.584   5.609  0.1196  0.1691  0.0445
  543MOL0     C73203   7.375   2.584   5.697 -0.3356 -0.0574 -0.7129
  543MOL0     C73204   7.400   2.699   5.777 -0.7439  0.7875 -0.2703
  543MOL0     O73205   7.504   2.706   5.867  0.3327  0.2160  0.1132
  543MOL0     C73206   7.642   2.674   5.821 -0.6896 -0.2553  0.6931
  543MOL0     C73207   7.703   2.564   5.916 -0.6386 -0.2935  1.4125
  543MOL0     C73208   7.752   2.618   6.049  0.2032  0.5231  0.0366
  543MOL0     C73209   7.869   2.551   6.108  0.1669  0.1360  0.0810
  543MOL0     C73210   7.913   2.616   6.241 -0.4995  0.2588  0.1886
  543MOL0     C73211   8.048   2.569   6.286  0.1036  0.0439 -0.4039
  543MOL0     C73212   8.058   2.562   6.432  0.5339 -0.2691 -0.3456
  543MOL0     C73213   8.021   2.697   6.499 -0.2522  0.2319  0.0340
  543MOL0    Cl73214   8.116   2.828   6.427 -0.0346 -0.0927  0.0941
  543MOL0     C73215   7.305   2.804   5.777 -0.6866 -0.0575 -0.3256
  543MOL0     C73216   7.185   2.800   5.696 -0.0504  0.9237 -0.7189
  543MOL0     O73217   6.913   2.647   5.692  0.0474 -0.0680  0.0358
  543MOL0     C73218   6.830   2.717   5.359 -0.1807  1.1575  0.4519
  543MOL0     C73219   6.703   2.723   5.285  0.5275 -0.2437  0.0529
  543MOL0     N73220   5.876   2.297   5.099  0.4159 -0.1864 -0.8281
  543MOL0     N73221   5.760   2.268   5.150 -0.1605 -0.1984  0.0026
  543MOL0     C73222   4.539   2.539   5.565  0.2783  0.2583  0.0303
  543MOL0     C73223   4.428   2.483   5.627  0.5444  0.9094 -0.3553
  543MOL0     C73224   4.163   2.155   5.841  0.0657  0.2732  0.3175
  543MOL0     C73225   4.172   2.065   5.952  0.0039 -0.6918 -0.0616
  543MOL0     C73226   4.070   2.061   6.047 -0.1749 -0.8233  0.6814
  543MOL0     C73227   3.945   2.120   6.025 -1.1763  0.4008 -0.1880
  543MOL0     O73228   3.852   2.102   6.124 -0.6777 -0.3613  0.4303
  543MOL0     C73229   3.741   2.197   6.142 -0.0399  0.6033 -0.1561
  543MOL0     C73230   3.792   2.312   6.226  0.1812 -0.5356  0.7630
  543MOL0     C73231   3.831   2.284   6.369  0.2753  0.8308  0.1279
  543MOL0     C73232   3.863   2.422   6.447  0.3631  1.0412  0.4207
  543MOL0     C73233   3.737   2.478   6.489  0.1576  0.3304 -0.7557
  543MOL0     C73234   3.633   2.521   6.542 -0.5130  0.0078 -0.0001
  543MOL0     C73235   3.929   2.196   5.911  0.7303 -0.1849  0.0984
  543MOL0     C73236   4.038   2.220   5.823  0.5511 -0.0230 -1.5347
  543MOL0     C73237   4.009   2.301   5.703  0.2610  0.1013 -0.5713
  543MOL0     H73238   4.478   2.151   5.531 -0.6921  0.3909 -1.6974
  543MOL0     H73239   4.695   2.241   5.471 -1.3336 -2.5806  2.7682
  543MOL0     H73240   4.812   2.361   5.329 -2.3659  0.5673 -2.6781
  543MOL0     H73241   4.790   2.524   5.271  5.6764  1.2578 -1.1363
  543MOL0     H73242   5.003   2.450   5.471  0.7289 -0.6328 -1.2474
  543MOL0     H73243   4.966   2.620   5.413  0.6340 -0.7879  1.1662
  543MOL0     H73244   5.023   2.576   5.194  1.3925 -0.4101 -1.1950
  543MOL0     H73245   5.039   2.400   5.215  2.8982 -0.0573 -1.7346
  543MOL0     H73246   5.201   2.614   5.370  0.4000  2.0325 -2.1775
  543MOL0     H73247   5.217   2.446   5.399  0.2446 -0.9714 -1.3700
  543MOL0     H73248   5.255   2.434   5.128 -1.6238 -0.3396  0.6341
  543MOL0     H73249   5.271   2.602   5.142  0.7564 -1.3875 -2.2315
  543MOL0     H73250   5.493   2.510   5.132 -1.3202  3.4688 -0.3174
  543MOL0     H73251   5.470   2.564   5.305  0.0792  1.2425 -1.0411
  543MOL0     H73252   5.478   2.272   5.209  0.0701 -0.6367  0.6615
  543MOL0     H73253   5.400   2.321   5.352 -1.3532  2.4761 -0.3682
  543MOL0     H73254   5.607   2.429   5.427 -2.3735 -0.5737 -0.0164
  543MOL0     H73255   5.625   2.266   5.404 -0.2763  2.1386  2.5966
  543MOL0     H73256   5.828   2.556   5.288  0.7207  0.0504 -1.3285
  543MOL0     H73257   6.074   2.500   5.022 -0.8327  0.8858 -0.3751
  543MOL0     H73258   5.996   2.619   5.121 -0.4147  0.0378  1.7477
  543MOL0     H73259   6.097   2.521   5.335  3.1273  2.1357  0.3446
  543MOL0     H73260   6.175   2.393   5.240 -1.7031 -0.8340 -1.8282
  543MOL0     H73261   6.205   2.700   5.239 -0.4138  0.0568  4.8603
  543MOL0     H73262   6.293   2.581   5.125  3.0700 -2.2710  1.8900
  543MOL0     H73263   6.393   2.482   5.311 -0.4661 -0.1632 -1.1712
  543MOL0     H73264   6.321   2.613   5.409  0.4152 -3.0255  0.8380
  543MOL0     H73265   6.501   2.573   5.511 -1.6909  0.9285 -0.5143
  543MOL0     H73266   6.698   2.564   5.632  1.5476  1.1273  0.5768
  543MOL0     H73267   7.248   2.511   5.531 -0.3069 -0.1879  0.4747
  543MOL0     H73268   7.447   2.508   5.724  2.3702  3.2240  2.1525
  543MOL0     H73269   7.647   2.646   5.716 -1.1395 -0.2031  0.6557
  543MOL0     H73270   7.701   2.765   5.836 -1.4781  0.2158  1.0320
  543MOL0     H73271   7.632   2.483   5.935 -0.0470 -1.1248  0.2108
  543MOL0     H73272   7.791   2.524   5.865  0.8161  3.7865  0.3299
  543MOL0     H73273   7.784   2.723   6.053 -1.6421  1.0909  0.9997
  543MOL0     H73274   7.672   2.606   6.122  0.4451 -0.3671  0.1618
  543MOL0     H73275   7.956   2.548   6.041  0.5379 -0.7320  0.5948
  543MOL0     H73276   7.846   2.445   6.118 -1.8425  0.4740 -0.5835
  543MOL0     H73277   7.842   2.585   6.318 -1.2400 -1.2838 -1.0434
  543MOL0     H73278   7.918   2.725   6.229 -0.2894  0.2777  0.4477
  543MOL0     H73279   8.068   2.475   6.233  1.3839  0.9573 -1.6028
  543MOL0     H73280   8.125   2.635   6.246 -0.2404  2.2803  2.3330
  543MOL0     H73281   8.163   2.539   6.455  1.0873  0.0027 -2.4095
  543MOL0     H73282   8.009   2.471   6.467  0.6699  0.4079  1.7229
  543MOL0     H73283   7.915   2.724   6.488  0.3659  2.6634 -0.5466
  543MOL0     H73284   8.035   2.702   6.608 -1.6254 -2.0813  0.3888
  543MOL0     H73285   7.329   2.880   5.851  0.3297 -1.9931  1.4350
  543MOL0     H73286   7.106   2.871   5.716  2.3501  2.9211  2.5933
  543MOL0     H73287   6.924   2.748   5.316 -0.5422  1.4861 -0.1206
  543MOL0     H73288   6.704   2.769   5.187 -0.9827  1.5682  0.8284
  543MOL0     H73289   4.564   2.644   5.579 -1.8444  0.8821 -0.4628
  543MOL0     H73290   4.350   2.537   5.680  0.5370  0.6306 -0.0833
  543MOL0     H73291   4.261   2.003   5.960 -0.3239 -1.1537  0.0385
  543MOL0     H73292   4.075   1.985   6.124  2.3264 -2.2523 -0.7596
  543MOL0     H73293   3.664   2.146   6.200  1.6433 -1.4131  0.4026
  543MOL0     H73294   3.702   2.237   6.048  2.1552  0.6349 -1.1200
  543MOL0     H73295   3.716   2.391   6.231  1.9351  1.1476  1.8901
  543MOL0     H73296   3.879   2.348   6.170 -0.2950 -0.4450  0.0597
  543MOL0     H73297   3.916   2.217   6.359  1.0068  2.0743 -4.8897
  543MOL0     H73298   3.743   2.234   6.411 -0.4048  1.7803 -0.1322
  543MOL0     H73299   3.932   2.407   6.531  0.6959  0.2009  0.0130
  543MOL0     H73300   3.910   2.490   6.375  2.5745 -1.0590 -0.2614
  543MOL0     H73301   3.543   2.561   6.583 -0.6214 -0.8252  0.6060
  543MOL0     H73302   3.836   2.249   5.894  0.0237 -1.5098 -0.2908
  543MOL0     H73303   4.028   2.245   5.611 -0.3305  3.0400 -2.6373
  543MOL0     H73304   3.900   2.316   5.696  0.3750  0.1244 -3.4680
  543MOL0     H73305   4.047   2.403   5.697 -1.1697  0.9575  2.7407
  544MOL0     O73306   0.021   7.602   5.973  0.2303  0.5796 -0.8990
  544MOL0     C73307   0.109   7.586   5.887  0.3639  0.5616 -0.6361
  544MOL0     O73308   0.088   7.545   5.760 -0.2771 -0.5754 -0.4365
  544MOL0     C73309  -0.026   7.502   5.703 -0.0661 -0.3781 -0.5475
  544MOL0     C73310  -0.047   7.548   5.567  0.0699  0.2389 -1.1327
  544MOL0     C73311  -0.161   7.515   5.496  0.4134  0.4320 -0.1883
  544MOL0     C73312  -0.269   7.449   5.568 -0.3132  0.2132 -0.0440
  544MOL0     O73313  -0.383   7.425   5.495 -0.6669 -0.1246 -0.6939
  544MOL0     C73314  -0.504   7.422   5.559  0.4823 -0.4516 -0.5020
  544MOL0     C73315  -0.618   7.406   5.461  0.1971 -0.3323  0.1453
  544MOL0     C73316  -0.591   7.294   5.357 -0.2003  0.1542 -0.5165
  544MOL0     C73317  -0.710   7.199   5.326  0.0520 -0.3870 -0.3615
  544MOL0     C73318  -0.673   7.092   5.230  0.3955  0.3430 -0.0922
  544MOL0     C73319  -0.580   6.995   5.298  0.1591 -0.0103  0.0252
  544MOL0     C73320  -0.515   6.891   5.201  0.3395  0.4611  0.4399
  544MOL0     C73321  -0.619   6.790   5.124 -0.3514 -0.2702 -0.8053
  544MOL0     N73322  -0.558   6.715   5.020  0.3596 -0.2311  0.4740
  544MOL0     C73323  -0.559   6.582   4.996  0.5582 -0.0529  0.2445
  544MOL0     C73324  -0.482   6.563   4.885  0.5559  0.1224  0.2985
  544MOL0     C73325  -0.465   6.428   4.825  0.6701 -0.0549 -0.0459
  544MOL0     C73326  -0.567   6.382   4.709  0.1782  0.1834 -0.5700
  544MOL0     C73327  -0.584   6.498   4.598 -0.4374  0.9947  0.2140
  544MOL0     C73328  -0.707   6.477   4.503 -0.0613  0.2902 -0.1559
  544MOL0     O73329  -0.684   6.351   4.433 -0.5032  0.5646  0.0846
  544MOL0     C73330  -0.575   6.321   4.350 -0.5164 -0.1222  1.0800
  544MOL0     C73331  -0.562   6.188   4.297 -0.1324 -0.3962  0.1606
  544MOL0     C73332  -0.462   6.153   4.212  0.2739  0.8406 -0.0963
  544MOL0     C73333  -0.362   6.248   4.180 -0.5413  0.0795  0.4404
  544MOL0     C73334  -0.251   6.218   4.080 -0.0016  0.1422  0.1794
  544MOL0     O73335  -0.128   6.277   4.107  0.2724  0.0764  1.1461
  544MOL0     C73336  -0.008   6.264   4.042 -0.4358 -0.0887 -0.1987
  544MOL0     C73337   0.102   6.320   4.109  0.0399  1.0841  0.5080
  544MOL0     C73338   0.230   6.313   4.056 -0.3304  0.3578  0.5512
  544MOL0     C73339   0.245   6.258   3.929 -0.7370  0.3716 -1.1859
  544MOL0     O73340   0.379   6.250   3.882 -0.7736  0.4056  0.2583
  544MOL0     C73341   0.490   6.262   3.969  0.1184 -0.9876 -0.4642
  544MOL0     C73342   0.628   6.245   3.906 -0.1058 -1.6833  0.0460
  544MOL0     C73343   0.682   6.103   3.890  0.0415 -0.1257  0.2801
  544MOL0     C73344   0.821   6.114   3.833  0.1733 -0.1039 -0.3875
  544MOL0     C73345   0.894   5.981   3.828  0.2288 -0.5489 -0.4022
  544MOL0     C73346   0.998   5.967   3.717  0.5478  0.1507  0.4348
  544MOL0     C73347   1.083   6.094   3.693 -1.6438 -1.0465 -0.3941
  544MOL0     C73348   1.171   6.120   3.811  0.0438  0.5321  0.0148
  544MOL0    Cl73349   1.283   5.987   3.832 -0.0989  0.4949  0.6548
  544MOL0     C73350   0.135   6.205   3.857 -0.3253 -0.5384  0.8736
  544MOL0     C73351   0.011   6.203   3.914 -0.5682  0.1812 -0.3012
  544MOL0     O73352  -0.278   6.125   4.001 -0.1874  0.3874 -0.2122
  544MOL0     C73353  -0.370   6.380   4.222 -0.2442 -0.2107 -0.0720
  544MOL0     C73354  -0.477   6.414   4.308 -0.7001  0.1011  0.1642
  544MOL0     N73355  -0.448   6.691   4.831  0.2547  0.3487 -0.8928
  544MOL0     N73356  -0.482   6.774   4.917 -0.1339  0.0301  0.2792
  544MOL0     C73357  -0.246   7.399   5.699 -0.1969  0.0745 -0.0201
  544MOL0     C73358  -0.131   7.438   5.768 -0.0735 -0.1853  0.9026
  544MOL0     C73359   0.247   7.597   5.929 -0.0377  1.2814 -0.3289
  544MOL0     C73360   0.300   7.498   6.007  0.5483  0.0670 -0.4264
  544MOL0     C73361   0.435   7.498   6.030 -0.7716 -0.0595 -0.2222
  544MOL0     C73362   0.519   7.591   5.972 -0.0645 -0.0214 -0.1654
  544MOL0     O73363   0.652   7.572   5.963 -0.7778  0.5264  0.1732
  544MOL0     C73364   0.719   7.441   5.979 -0.3156  0.1995  0.9141
  544MOL0     C73365   0.863   7.455   5.943 -0.2285 -0.6300  0.1529
  544MOL0     C73366   0.956   7.346   5.991 -1.0184  0.8640 -0.6287
  544MOL0     C73367   0.918   7.221   5.901  0.4151  0.6683 -0.3702
  544MOL0     C73368   0.959   7.226   5.764  0.4365  0.1851  0.6029
  544MOL0     C73369   0.985   7.246   5.651  0.4575  0.1095 -0.0465
  544MOL0     C73370   0.467   7.699   5.904  0.1925  0.1013  0.8526
  544MOL0     C73371   0.333   7.702   5.871  0.2292 -0.7920  0.0365
  544MOL0     C73372   0.282   7.815   5.784  0.9566 -0.4292 -0.1225
  544MOL0     H73373   0.027   7.606   5.513  0.0493 -0.0920 -1.5205
  544MOL0     H73374  -0.178   7.557   5.398  0.2229  1.9854  0.4885
  544MOL0     H73375  -0.514   7.342   5.632 -2.1965 -0.7519 -1.0902
  544MOL0     H73376  -0.516   7.515   5.615 -2.8130 -1.7359  1.1632
  544MOL0     H73377  -0.643   7.497   5.406  2.1981 -0.3265 -0.8442
  544MOL0     H73378  -0.709   7.387   5.519  0.8891  0.8951  1.6934
  544MOL0     H73379  -0.508   7.238   5.401  0.8722  0.1827 -2.3820
  544MOL0     H73380  -0.558   7.335   5.261 -0.3478  0.8097 -0.2975
  544MOL0     H73381  -0.754   7.162   5.420  0.7959 -0.5866 -0.0840
  544MOL0     H73382  -0.782   7.259   5.270  0.8152 -0.6819 -1.6920
  544MOL0     H73383  -0.761   7.039   5.193 -0.7844  0.0742  2.8226
  544MOL0     H73384  -0.623   7.139   5.145  0.3546  1.4524  0.4856
  544MOL0     H73385  -0.487   7.038   5.336  0.9618 -1.6703  0.0295
  544MOL0     H73386  -0.630   6.960   5.389 -0.2961  0.5699  0.0038
  544MOL0     H73387  -0.445   6.832   5.263 -1.2869  0.2901  2.1937
  544MOL0     H73388  -0.455   6.944   5.127  4.9297 -0.0118  3.3592
  544MOL0     H73389  -0.670   6.724   5.195 -2.1696  0.1560 -1.6628
  544MOL0     H73390  -0.701   6.840   5.072  0.1751 -0.6771 -2.0771
  544MOL0     H73391  -0.626   6.514   5.049 -0.9291 -0.5436 -2.1261
  544MOL0     H73392  -0.362   6.418   4.790  0.6909  1.4961 -0.4731
  544MOL0     H73393  -0.472   6.353   4.905  0.5440 -0.5055 -0.4723
  544MOL0     H73394  -0.526   6.287   4.673 -0.1477 -0.7305  1.3433
  544MOL0     H73395  -0.663   6.369   4.759  0.9759  0.3371  1.0335
  544MOL0     H73396  -0.483   6.509   4.558 -1.3322  4.5700 -1.4714
  544MOL0     H73397  -0.598   6.600   4.636 -0.9685  1.3719 -0.9464
  544MOL0     H73398  -0.718   6.563   4.437  0.1766  1.7601  1.6294
  544MOL0     H73399  -0.786   6.461   4.577  1.1114 -1.7843  0.7270
  544MOL0     H73400  -0.625   6.109   4.337  1.7877 -2.2876 -0.3242
  544MOL0     H73401  -0.454   6.051   4.175  1.0047  0.0414  2.0964
  544MOL0     H73402   0.085   6.390   4.190  1.1715  5.8283 -2.8929
  544MOL0     H73403   0.308   6.362   4.114  1.2394  0.1318 -1.2492
  544MOL0     H73404   0.492   6.366   4.000 -2.0662 -0.9592 -0.2535
  544MOL0     H73405   0.477   6.200   4.059 -4.2770 -1.2793 -1.0399
  544MOL0     H73406   0.629   6.299   3.811  0.9750 -0.9343  0.4570
  544MOL0     H73407   0.699   6.296   3.972 -1.3395 -1.5712  1.3272
  544MOL0     H73408   0.686   6.051   3.986  1.8281  0.9751  0.8529
  544MOL0     H73409   0.617   6.054   3.816 -2.0459 -1.1548  2.6104
  544MOL0     H73410   0.889   6.176   3.892 -1.0174 -0.1511  1.1023
  544MOL0     H73411   0.806   6.164   3.737  0.7257  2.2519  0.6824
  544MOL0     H73412   0.826   5.898   3.805 -3.1161  1.5719  1.1052
  544MOL0     H73413   0.935   5.973   3.929 -0.8068 -0.6512  0.0294
  544MOL0     H73414   1.059   5.878   3.737  0.5483 -0.3094 -1.3923
  544MOL0     H73415   0.964   5.961   3.613  1.3817  0.5865  0.1244
  544MOL0     H73416   1.018   6.182   3.689 -1.6760 -0.8640  2.1271
  544MOL0     H73417   1.145   6.090   3.604  3.5467  0.8113  2.6897
  544MOL0     H73418   1.234   6.206   3.788  1.4844 -0.7442 -1.0520
  544MOL0     H73419   1.115   6.132   3.904 -1.4371 -4.7698  0.1402
  544MOL0     H73420   0.160   6.183   3.754 -1.3765 -1.8529  0.8714
  544MOL0     H73421  -0.077   6.172   3.858 -0.3399  3.2511 -2.5983
  544MOL0     H73422  -0.289   6.449   4.202  0.5142 -1.2977 -0.8846
  544MOL0     H73423  -0.493   6.517   4.336 -1.3907  0.4274 -1.3133
  544MOL0     H73424  -0.325   7.352   5.757  0.1735 -1.1527 -0.4644
  544MOL0     H73425  -0.118   7.417   5.873 -0.1909  0.9199  1.1507
  544MOL0     H73426   0.233   7.422   6.045 -0.7931  1.5088  0.1902
  544MOL0     H73427   0.469   7.421   6.098  1.2955  1.7456  0.9288
  544MOL0     H73428   0.673   7.362   5.919  3.1078 -0.3310 -1.2779
  544MOL0     H73429   0.702   7.408   6.082  1.0945 -1.9279  0.5242
  544MOL0     H73430   0.893   7.538   6.008  2.2088 -1.4354  0.1490
  544MOL0     H73431   0.865   7.480   5.836 -3.2626  0.1392  0.1697
  544MOL0     H73432   0.953   7.334   6.100  4.1470 -0.9227 -0.3930
  544MOL0     H73433   1.059   7.375   5.967  0.4189 -3.4835 -0.5188
  544MOL0     H73434   0.976   7.136   5.938 -0.1080 -0.2993 -1.6978
  544MOL0     H73435   0.811   7.201   5.913  0.3396  2.3364  2.7980
  544MOL0     H73436   0.996   7.267   5.546  0.0245 -4.0090 -1.0681
  544MOL0     H73437   0.545   7.760   5.859 -0.5043  2.3940  2.6079
  544MOL0     H73438   0.173   7.822   5.775  1.1949  1.5624 -2.4585
  544MOL0     H73439   0.310   7.909   5.833 -0.6777 -0.0599  0.1671
  544MOL0     H73440   0.331   7.824   5.687  0.5202  3.0959 -0.1359
  545MOL0     O73441   0.391  11.238   1.674  0.7236  0.3933  0.3897
  545MOL0     C73442   0.364  11.314   1.769 -0.3456 -0.8161 -0.2569
  545MOL0     O73443   0.439  11.419   1.825  0.5415  0.5559  0.1630
  545MOL0     C73444   0.549  11.450   1.755 -0.0540  0.3410  0.0928
  545MOL0     C73445   0.556  11.552   1.661  0.2550  0.1011 -0.3797
  545MOL0     C73446   0.674  11.588   1.607 -0.3380 -0.9830 -0.1397
  545MOL0     C73447   0.795  11.529   1.634  0.6746  0.1054  0.4122
  545MOL0     O73448   0.910  11.568   1.563  0.0163  0.4037 -0.0515
  545MOL0     C73449   1.032  11.495   1.592 -1.4531  1.8125  0.0558
  545MOL0     C73450   1.033  11.354   1.534  0.6860  0.0463 -0.3211
  545MOL0     C73451   1.063  11.357   1.383  0.2281 -0.4113 -0.3755
  545MOL0     C73452   1.033  11.209   1.333 -0.0600  0.0024  1.0826
  545MOL0     C73453   1.084  11.190   1.190  0.4243 -0.9155 -0.7115
  545MOL0     C73454   1.228  11.213   1.175  0.1793 -0.1827 -0.5834
  545MOL0     C73455   1.286  11.178   1.035 -0.9140 -1.0970  0.3060
  545MOL0     C73456   1.439  11.207   1.023 -0.4368  0.2773  0.2798
  545MOL0     N73457   1.521  11.113   1.107  0.6757  0.4421  0.6253
  545MOL0     C73458   1.562  10.985   1.071  0.0576 -0.3661 -0.3530
  545MOL0     C73459   1.642  10.933   1.176 -0.4566  0.0840 -0.6060
  545MOL0     C73460   1.705  10.797   1.172  0.2316 -0.1539  0.0306
  545MOL0     C73461   1.856  10.799   1.141  0.4262  0.2190  0.2007
  545MOL0     C73462   1.927  10.834   1.263 -0.3324  0.0005  1.3116
  545MOL0     C73463   2.076  10.841   1.252  1.1264  0.3359  0.5307
  545MOL0     O73464   2.126  10.866   1.379 -0.4979 -0.3716  0.6871
  545MOL0     C73465   2.265  10.892   1.387 -1.0061  1.5138  0.3899
  545MOL0     C73466   2.360  10.923   1.289  0.1186  0.0335 -0.1073
  545MOL0     C73467   2.496  10.947   1.322 -0.1738  0.0008 -0.5500
  545MOL0     C73468   2.533  10.960   1.459  0.0538  0.0972  0.2070
  545MOL0     C73469   2.675  10.990   1.501 -0.2995  0.3787  0.9133
  545MOL0     O73470   2.706  11.034   1.625  0.2170 -0.0544 -0.2367
  545MOL0     C73471   2.839  11.038   1.657 -0.4123  0.1416  0.0268
  545MOL0     C73472   2.912  10.919   1.692  0.2567 -0.3500 -0.0562
  545MOL0     C73473   3.039  10.927   1.731 -0.3909 -0.4324 -0.3089
  545MOL0     C73474   3.106  11.050   1.743 -0.1378  0.5499 -0.5480
  545MOL0     O73475   3.236  11.055   1.788  0.6052  0.1380 -0.2221
  545MOL0     C73476   3.276  11.152   1.888 -0.5198  0.0215 -0.5719
  545MOL0     C73477   3.349  11.086   2.002 -0.1408  1.0166  0.2693
  545MOL0     C73478   3.483  11.031   1.957 -0.3230  0.5943 -0.1075
  545MOL0     C73479   3.473  10.874   1.937  0.4095  0.1115  0.3956
  545MOL0     C73480   3.579  10.818   1.845 -0.4293 -0.2856 -0.9388
  545MOL0     C73481   3.716  10.807   1.919 -0.0288 -0.3583  0.4605
  545MOL0     C73482   3.835  10.812   1.830 -0.0822 -0.0114 -0.0087
  545MOL0     C73483   3.965  10.860   1.888 -0.2508 -0.2593 -0.2606
  545MOL0    Cl73484   4.094  10.737   1.860  0.8122  0.2212 -0.1673
  545MOL0     C73485   3.040  11.168   1.714  0.3233 -0.1285  0.1632
  545MOL0     C73486   2.904  11.158   1.677 -0.3365  0.7307  0.8251
  545MOL0     O73487   2.754  10.989   1.402 -0.4555  0.9553  0.3420
  545MOL0     C73488   2.438  10.925   1.558  0.6125  0.2684 -1.4454
  545MOL0     C73489   2.307  10.892   1.526 -0.3790 -0.4647 -0.2794
  545MOL0     N73490   1.644  11.034   1.275 -0.0869  0.3297  0.4655
  545MOL0     N73491   1.570  11.132   1.232 -0.1989  0.4520  0.0728
  545MOL0     C73492   0.789  11.422   1.728  0.1525 -0.1655 -0.0546
  545MOL0     C73493   0.671  11.386   1.791 -0.1423 -1.2214  0.6842
  545MOL0     C73494   0.226  11.305   1.812 -0.4793  0.1738  0.4019
  545MOL0     C73495   0.166  11.424   1.862 -0.3769 -0.8490 -0.9862
  545MOL0     C73496   0.034  11.444   1.887  0.7110 -0.2199  0.1905
  545MOL0     C73497  -0.054  11.333   1.872 -0.6686  0.6862  1.2026
  545MOL0     O73498  -0.188  11.336   1.878 -0.3237 -0.3188 -0.2274
  545MOL0     C73499  -0.250  11.425   1.790 -0.2778  0.2907  0.5923
  545MOL0     C73500  -0.255  11.356   1.655  1.2007 -0.2819 -0.7355
  545MOL0     C73501  -0.318  11.222   1.656  0.6837  0.7561 -0.3362
  545MOL0     C73502  -0.319  11.151   1.517  0.4331  0.1029 -0.6062
  545MOL0     C73503  -0.198  11.072   1.506  0.4805 -0.3141 -0.5995
  545MOL0     C73504  -0.093  11.011   1.506  0.6812  0.2536  0.0944
  545MOL0     C73505   0.004  11.211   1.825 -0.1688 -0.8147 -0.7614
  545MOL0     C73506   0.141  11.192   1.798 -0.2522 -0.0309 -0.1399
  545MOL0     C73507   0.186  11.055   1.753 -0.0450 -0.5065 -0.5654
  545MOL0     H73508   0.468  11.606   1.627  1.0859  1.1955 -0.8492
  545MOL0     H73509   0.670  11.682   1.552 -0.1965  0.3708  2.0360
  545MOL0     H73510   1.124  11.538   1.552  1.1560 -1.2642  2.2810
  545MOL0     H73511   1.053  11.495   1.700  1.3598  1.1923 -0.4131
  545MOL0     H73512   0.936  11.306   1.549  0.8173  0.5355  2.5271
  545MOL0     H73513   1.105  11.290   1.585 -0.0701  0.2401  1.0175
  545MOL0     H73514   1.168  11.385   1.374  0.2015  0.7515  2.1995
  545MOL0     H73515   1.001  11.428   1.327 -1.1871 -2.0230 -0.9356
  545MOL0     H73516   1.083  11.135   1.395  0.3574  0.9704  1.9235
  545MOL0     H73517   0.924  11.193   1.338 -0.5844  2.3888 -0.5883
  545MOL0     H73518   1.058  11.084   1.178  0.4113 -1.2635  1.7690
  545MOL0     H73519   1.022  11.233   1.111  1.1668  0.1245 -0.7396
  545MOL0     H73520   1.231  11.322   1.187 -0.7890 -0.2197  0.1301
  545MOL0     H73521   1.275  11.154   1.254 -3.0941 -0.4349  1.3550
  545MOL0     H73522   1.226  11.228   0.959  0.7576  0.9597  0.2182
  545MOL0     H73523   1.269  11.070   1.026 -0.3361 -1.2987  1.3894
  545MOL0     H73524   1.461  11.196   0.916  0.7102 -1.4847  0.6669
  545MOL0     H73525   1.448  11.312   1.053  3.7902 -0.9022  4.2677
  545MOL0     H73526   1.529  10.936   0.980  0.6730 -2.0811  0.3014
  545MOL0     H73527   1.674  10.743   1.263 -3.5195  1.1680 -0.3095
  545MOL0     H73528   1.655  10.730   1.101  0.5736 -0.2743 -0.1002
  545MOL0     H73529   1.887  10.706   1.093  2.5025 -0.2031  2.1582
  545MOL0     H73530   1.862  10.879   1.066 -0.3612  0.5258  0.4533
  545MOL0     H73531   1.910  10.753   1.335 -2.1818 -3.3764 -2.5166
  545MOL0     H73532   1.893  10.923   1.316  2.6659  0.6672  2.2991
  545MOL0     H73533   2.117  10.902   1.171  1.1101 -1.1497 -0.6385
  545MOL0     H73534   2.114  10.744   1.221  2.1417  0.7301  0.5013
  545MOL0     H73535   2.332  10.935   1.184 -1.5587  2.7267  0.5468
  545MOL0     H73536   2.563  10.968   1.239  1.5594 -1.8747  0.2833
  545MOL0     H73537   2.868  10.820   1.684 -1.7213  0.4595  0.0100
  545MOL0     H73538   3.080  10.830   1.756 -2.5570 -0.7471  2.5182
  545MOL0     H73539   3.329  11.241   1.853  0.8742 -0.6683 -0.3096
  545MOL0     H73540   3.184  11.198   1.924 -1.0382 -0.8968 -0.6882
  545MOL0     H73541   3.380  11.174   2.059 -1.9078  2.2134 -0.5520
  545MOL0     H73542   3.281  11.016   2.052  1.7655 -1.7646 -0.7764
  545MOL0     H73543   3.524  11.079   1.868  1.0878  0.0331  0.2237
  545MOL0     H73544   3.554  11.043   2.040  0.7237  1.4338 -1.0968
  545MOL0     H73545   3.373  10.845   1.902 -0.1372  0.6717  1.4326
  545MOL0     H73546   3.478  10.837   2.039  1.1503  1.3708  0.8343
  545MOL0     H73547   3.588  10.891   1.764  2.0961  0.1695 -0.3337
  545MOL0     H73548   3.552  10.718   1.809 -0.6114 -0.4437 -0.3657
  545MOL0     H73549   3.737  10.891   1.986  1.3856  1.4007 -2.0290
  545MOL0     H73550   3.719  10.720   1.986 -0.0048 -1.2662 -0.6797
  545MOL0     H73551   3.814  10.864   1.736 -2.0487 -2.3518 -0.9656
  545MOL0     H73552   3.845  10.712   1.786 -1.6334 -0.0383 -0.3734
  545MOL0     H73553   3.998  10.955   1.846 -2.7354  1.1776  0.8160
  545MOL0     H73554   3.963  10.881   1.995  0.9161  0.3066 -0.3417
  545MOL0     H73555   3.075  11.268   1.738  0.7303  0.1354 -1.4233
  545MOL0     H73556   2.846  11.249   1.662  1.6853  2.1166  1.0500
  545MOL0     H73557   2.463  10.906   1.661 -3.3563 -1.2204 -0.5650
  545MOL0     H73558   2.246  10.870   1.613 -0.0386 -3.1908 -0.6375
  545MOL0     H73559   0.876  11.365   1.758  1.0038  0.4539 -1.2629
  545MOL0     H73560   0.668  11.321   1.878 -0.5226 -3.5775 -0.9934
  545MOL0     H73561   0.228  11.511   1.881 -0.6932 -0.8109 -0.0426
  545MOL0     H73562   0.001  11.536   1.934  3.6750  1.8145 -1.3873
  545MOL0     H73563  -0.184  11.512   1.782  0.2851 -0.1949 -0.1768
  545MOL0     H73564  -0.347  11.461   1.826  0.5742  3.2332  0.2789
  545MOL0     H73565  -0.155  11.349   1.610  1.0019 -3.0860 -0.9465
  545MOL0     H73566  -0.307  11.421   1.584  3.5904 -0.4023 -2.7477
  545MOL0     H73567  -0.422  11.230   1.689  1.4014  0.1821  2.3236
  545MOL0     H73568  -0.263  11.154   1.721  1.8320  0.4090 -1.6148
  545MOL0     H73569  -0.406  11.086   1.505 -0.1752  0.7723  0.0732
  545MOL0     H73570  -0.323  11.219   1.431 -0.7219  0.9928  0.1219
  545MOL0     H73571  -0.010  10.944   1.504  0.3025 -0.2034 -0.6885
  545MOL0     H73572  -0.063  11.127   1.814  2.2780 -2.9982  0.1360
  545MOL0     H73573   0.117  10.983   1.797 -2.1218  1.8323  0.2578
  545MOL0     H73574   0.195  11.052   1.644  2.4411 -3.2495 -0.4022
  545MOL0     H73575   0.281  11.037   1.804  1.0558  0.1519 -2.2717
  546MOL0     O73576   8.515   7.493   1.384 -0.4797  0.2801  0.3122
  546MOL0     C73577   8.523   7.445   1.266  0.2603 -0.0921  0.0898
  546MOL0     O73578   8.600   7.489   1.167  0.0226  0.3446  0.6198
  546MOL0     C73579   8.724   7.545   1.193  0.4208  0.2398 -0.5249
  546MOL0     C73580   8.755   7.662   1.112  0.5070 -0.0461 -1.0431
  546MOL0     C73581   8.871   7.727   1.147 -0.0384  0.0128 -0.0376
  546MOL0     C73582   8.964   7.686   1.240 -0.8287  0.4810  0.1850
  546MOL0     O73583   9.093   7.735   1.252  0.1091 -0.2577 -0.3976
  546MOL0     C73584   9.122   7.859   1.188 -0.2823  0.2806  0.0081
  546MOL0     C73585   9.256   7.916   1.230  0.0613 -0.2244 -0.3107
  546MOL0     C73586   9.373   7.879   1.129 -0.2656  0.7386 -0.3568
  546MOL0     C73587   9.503   7.950   1.163 -0.1288  0.1752 -0.6378
  546MOL0     C73588   9.559   7.894   1.302  0.4330 -0.4636  0.5109
  546MOL0     C73589   9.709   7.863   1.306  0.1620  0.1352  0.0158
  546MOL0     C73590   9.794   7.992   1.267  0.0471 -0.0605 -0.4754
  546MOL0     C73591   9.944   7.957   1.256 -0.2674 -0.4079  0.4902
  546MOL0     N73592  10.007   7.909   1.385 -0.4071  0.2196  0.6236
  546MOL0     C73593  10.068   7.793   1.405  0.0913 -0.5574  0.5714
  546MOL0     C73594  10.134   7.817   1.520 -0.8289  0.5268 -0.9000
  546MOL0     C73595  10.210   7.712   1.602  0.2096 -0.3176  0.3865
  546MOL0     C73596  10.350   7.692   1.549 -1.2264 -1.3652 -0.6275
  546MOL0     C73597  10.423   7.590   1.629 -0.9283  0.4304  0.1253
  546MOL0     C73598  10.565   7.567   1.590  0.9491 -0.1313 -0.0288
  546MOL0     O73599  10.584   7.474   1.483 -0.3456 -0.4670  0.2116
  546MOL0     C73600  10.714   7.459   1.437  0.5940  0.3620 -0.2568
  546MOL0     C73601  10.729   7.356   1.349 -0.2382 -0.0455  0.1716
  546MOL0     C73602  10.849   7.328   1.289 -0.8801  0.1637 -0.9382
  546MOL0     C73603  10.955   7.408   1.326 -0.5041 -0.1671 -0.3089
  546MOL0     C73604  11.087   7.395   1.277 -0.7924  0.4122 -0.3875
  546MOL0     O73605  11.096   7.316   1.167  0.2307  0.1704 -0.3962
  546MOL0     C73606  11.205   7.305   1.080 -0.0131 -0.0170  0.6670
  546MOL0     C73607  11.344   7.342   1.101 -0.4543 -0.3659 -1.6591
  546MOL0     C73608  11.444   7.311   1.006  0.6078 -0.2347 -0.0169
  546MOL0     C73609  11.407   7.237   0.888 -0.6847 -0.0371  0.2074
  546MOL0     O73610  11.497   7.208   0.789 -0.6497 -0.1118  0.4633
  546MOL0     C73611  11.636   7.185   0.832 -0.1898 -0.7134  0.1039
  546MOL0     C73612  11.706   7.110   0.706 -0.1641  0.0704 -0.4910
  546MOL0     C73613  11.862   7.104   0.730 -0.0800 -0.0888  0.1143
  546MOL0     C73614  11.932   6.972   0.776  0.1109  0.6028  0.0247
  546MOL0     C73615  11.908   6.933   0.917  0.5317  0.5587 -0.1292
  546MOL0     C73616  11.962   6.789   0.941  0.1911 -0.6134 -0.0209
  546MOL0     C73617  11.952   6.770   1.094 -0.2788 -0.7375 -0.3700
  546MOL0     C73618  12.020   6.642   1.144 -0.3941  0.7144  0.6277
  546MOL0    Cl73619  12.016   6.619   1.328 -0.5941  0.3089  0.5089
  546MOL0     C73620  11.276   7.197   0.867 -0.6074  0.6925 -0.0578
  546MOL0     C73621  11.177   7.232   0.964  0.2465  0.0785  0.1633
  546MOL0     O73622  11.186   7.451   1.322 -0.0356 -0.7217 -0.1946
  546MOL0     C73623  10.948   7.510   1.426  0.5619 -0.3821 -0.5482
  546MOL0     C73624  10.824   7.537   1.477 -1.1576  0.4720 -0.1348
  546MOL0     N73625  10.123   7.951   1.569  0.3920 -0.1440 -0.3579
  546MOL0     N73626  10.035   7.995   1.491 -0.0998  0.0627  0.6788
  546MOL0     C73627   8.924   7.581   1.323  0.0370 -0.1495 -0.1723
  546MOL0     C73628   8.806   7.516   1.304  0.7581  0.1161 -0.1865
  546MOL0     C73629   8.415   7.348   1.225  0.2452  1.4317  0.6812
  546MOL0     C73630   8.372   7.339   1.090 -0.1721 -0.5395  0.7749
  546MOL0     C73631   8.271   7.252   1.053 -0.2137  0.6196 -0.0427
  546MOL0     C73632   8.209   7.176   1.149 -0.2238 -0.0389  0.2827
  546MOL0     O73633   8.098   7.099   1.125 -0.7667  0.5601  0.1243
  546MOL0     C73634   8.104   7.019   1.003 -0.1952  0.6678  0.9083
  546MOL0     C73635   7.989   6.925   0.994 -0.1104 -0.2609  0.7939
  546MOL0     C73636   7.992   6.800   1.097  0.6940 -0.0808 -0.7584
  546MOL0     C73637   7.883   6.694   1.071  0.6421  0.4043  0.4625
  546MOL0     C73638   7.930   6.603   0.956  0.1164 -0.6775 -0.5285
  546MOL0     C73639   7.971   6.510   0.892 -0.9393  0.0596 -0.1120
  546MOL0     C73640   8.259   7.181   1.287 -0.2215  0.2678 -0.1973
  546MOL0     C73641   8.365   7.258   1.324  0.1091 -0.3422 -0.3084
  546MOL0     C73642   8.403   7.258   1.472 -0.2357  1.2283  0.9443
  546MOL0     H73643   8.689   7.698   1.034 -2.2388 -1.3111  0.5399
  546MOL0     H73644   8.902   7.812   1.088 -2.0489 -0.6246 -2.1734
  546MOL0     H73645   9.114   7.857   1.079  1.9821 -2.0632 -0.2049
  546MOL0     H73646   9.049   7.936   1.217  1.0076  2.4667 -2.1369
  546MOL0     H73647   9.297   7.877   1.324  5.5763  0.4113 -2.0804
  546MOL0     H73648   9.232   8.022   1.245 -1.6868 -0.5443 -0.5583
  546MOL0     H73649   9.352   7.913   1.027  1.2631  0.4217 -0.7993
  546MOL0     H73650   9.374   7.770   1.131 -1.6452  0.6829 -1.2577
  546MOL0     H73651   9.568   7.945   1.075 -1.9360  3.1472 -2.2766
  546MOL0     H73652   9.498   8.059   1.158 -0.4470  0.1237 -2.0065
  546MOL0     H73653   9.547   7.985   1.362  1.9492 -0.3804  0.7327
  546MOL0     H73654   9.509   7.811   1.352 -1.4423  1.2707  1.6746
  546MOL0     H73655   9.732   7.836   1.410  1.4273 -2.2361 -0.8071
  546MOL0     H73656   9.724   7.772   1.247 -0.0321 -0.1634  0.4233
  546MOL0     H73657   9.769   8.073   1.336 -1.6429 -0.6914 -0.2960
  546MOL0     H73658   9.762   8.019   1.166 -1.3355 -1.8185 -0.5593
  546MOL0     H73659   9.977   7.896   1.171 -0.5582  1.8941 -1.3772
  546MOL0     H73660   9.987   8.052   1.222 -0.7506  0.0547  1.1360
  546MOL0     H73661  10.054   7.698   1.354 -0.5076 -1.0886  1.6660
  546MOL0     H73662  10.216   7.736   1.708 -2.1351  1.5070  0.2086
  546MOL0     H73663  10.155   7.617   1.596 -0.9717  0.3237  0.7661
  546MOL0     H73664  10.356   7.676   1.441  0.7732  2.0260 -1.1647
  546MOL0     H73665  10.397   7.788   1.570  1.2574 -2.2389 -1.7847
  546MOL0     H73666  10.366   7.497   1.638  1.8043 -1.2499  1.3018
  546MOL0     H73667  10.433   7.615   1.735 -3.1234 -2.0899  1.0422
  546MOL0     H73668  10.634   7.553   1.674  1.5119  1.2245 -0.2248
  546MOL0     H73669  10.599   7.666   1.556 -0.6168  0.5681  0.3723
  546MOL0     H73670  10.648   7.289   1.323  1.0265 -2.0955  1.3429
  546MOL0     H73671  10.861   7.251   1.214 -1.5204  1.2157 -2.1466
  546MOL0     H73672  11.383   7.380   1.194  5.8747 -1.3166 -3.4275
  546MOL0     H73673  11.545   7.348   1.024 -0.2907  2.5489 -0.1713
  546MOL0     H73674  11.691   7.274   0.864  1.5604 -2.2737  1.7704
  546MOL0     H73675  11.631   7.124   0.923 -1.0332 -1.5909 -0.5129
  546MOL0     H73676  11.646   7.019   0.698 -0.1740 -0.3876  2.9471
  546MOL0     H73677  11.682   7.157   0.610 -1.8502 -0.9199 -0.6026
  546MOL0     H73678  11.910   7.135   0.637 -1.8212 -1.7724 -1.4170
  546MOL0     H73679  11.887   7.182   0.802 -0.0828 -0.0129  0.0333
  546MOL0     H73680  12.041   6.974   0.769  0.5713 -3.1477  2.9724
  546MOL0     H73681  11.900   6.898   0.701  1.2732 -1.9588  1.8882
  546MOL0     H73682  11.801   6.928   0.935  0.4939  1.2369 -0.1444
  546MOL0     H73683  11.961   7.008   0.976  2.7788 -1.7385  0.9863
  546MOL0     H73684  11.899   6.715   0.889  0.3003  0.4417 -1.7072
  546MOL0     H73685  12.067   6.784   0.912  0.6891  2.5176  0.9211
  546MOL0     H73686  11.847   6.769   1.127 -0.3115  2.0630 -0.1619
  546MOL0     H73687  12.002   6.854   1.143  1.6365 -1.0407 -1.6907
  546MOL0     H73688  11.977   6.553   1.097 -0.8862  0.2375  1.9497
  546MOL0     H73689  12.124   6.649   1.111 -0.3012  3.3584  1.2825
  546MOL0     H73690  11.236   7.138   0.786 -0.2796  0.4347 -0.0370
  546MOL0     H73691  11.078   7.193   0.947  0.0917  0.1884  0.7835
  546MOL0     H73692  11.028   7.574   1.462  2.2505 -2.4486 -0.4362
  546MOL0     H73693  10.808   7.617   1.549  2.9009 -0.0152  1.5984
  546MOL0     H73694   9.006   7.547   1.386  0.1420 -1.5373 -1.0184
  546MOL0     H73695   8.783   7.429   1.365  0.7079 -0.3892 -0.9136
  546MOL0     H73696   8.418   7.408   1.019  2.4041 -1.1674  1.7260
  546MOL0     H73697   8.213   7.254   0.961  1.2582 -1.0561 -1.0914
  546MOL0     H73698   8.195   6.959   1.009 -0.0375  0.5796 -1.3087
  546MOL0     H73699   8.116   7.079   0.912 -1.3339 -0.5549 -0.0932
  546MOL0     H73700   7.973   6.879   0.896 -1.8065  0.2045  0.8302
  546MOL0     H73701   7.898   6.980   1.020 -0.4520  0.4001 -1.6023
  546MOL0     H73702   7.976   6.833   1.200  0.1630  2.1911 -1.5025
  546MOL0     H73703   8.093   6.765   1.076 -0.7365 -3.9458 -2.0201
  546MOL0     H73704   7.880   6.634   1.162 -0.5039  0.3053  0.3808
  546MOL0     H73705   7.781   6.732   1.057  1.0486  0.4292 -3.6664
  546MOL0     H73706   7.997   6.423   0.836 -1.2641  1.5937 -2.7819
  546MOL0     H73707   8.194   7.133   1.360 -3.8526  1.4804 -2.3535
  546MOL0     H73708   8.372   7.159   1.506 -1.2266  1.3721  0.5015
  546MOL0     H73709   8.510   7.264   1.495 -0.1938  0.3493  1.0444
  546MOL0     H73710   8.347   7.331   1.530  0.4818  2.2439  0.3823
  547MOL0     O73711   3.898   9.837   3.408 -0.8549  0.3608 -0.0938
  547MOL0     C73712   3.815   9.892   3.337 -0.4308  0.3713  0.2801
  547MOL0     O73713   3.845   9.969   3.230  0.6370 -0.7686 -0.8313
  547MOL0     C73714   3.962  10.039   3.214  0.0983  0.1938  0.1653
  547MOL0     C73715   4.025  10.103   3.317 -0.5195 -0.3315  0.0896
  547MOL0     C73716   4.140  10.179   3.293 -0.5786  0.4929 -0.2383
  547MOL0     C73717   4.182  10.188   3.156  0.1240  0.1607 -0.8132
  547MOL0     O73718   4.285  10.264   3.109 -0.1900 -0.4484 -0.1923
  547MOL0     C73719   4.374  10.331   3.209  0.0703 -0.5468 -0.2436
  547MOL0     C73720   4.503  10.375   3.149 -0.7934 -0.1471  0.1263
  547MOL0     C73721   4.585  10.459   3.240 -0.7878  0.3059 -0.7175
  547MOL0     C73722   4.707  10.520   3.164 -0.1451  0.1382  0.4789
  547MOL0     C73723   4.782  10.627   3.246  0.2545 -0.2036 -0.3596
  547MOL0     C73724   4.907  10.685   3.174  0.9099 -0.0327 -0.0124
  547MOL0     C73725   4.987  10.784   3.270 -0.8096 -0.4089 -0.5296
  547MOL0     C73726   5.115  10.848   3.213  0.1403  0.0589  0.5223
  547MOL0     N73727   5.087  10.939   3.099  0.0866 -0.0288 -0.6985
  547MOL0     C73728   5.055  11.072   3.120  0.0934 -0.1040  0.3302
  547MOL0     C73729   5.033  11.120   2.995  0.0638 -0.6071  0.6508
  547MOL0     C73730   5.013  11.274   2.966  0.7554 -0.3099  0.0558
  547MOL0     C73731   5.155  11.330   2.977 -0.1234  0.2218 -0.1942
  547MOL0     C73732   5.142  11.469   2.928 -0.3086 -0.6076  0.8257
  547MOL0     C73733   5.286  11.537   2.943  0.5813  0.2545  0.1707
  547MOL0     O73734   5.375  11.493   2.828  0.5879 -0.0626 -0.9295
  547MOL0     C73735   5.498  11.548   2.812  0.9046  0.1145  0.0599
  547MOL0     C73736   5.563  11.629   2.902 -0.1980  0.2058 -0.2773
  547MOL0     C73737   5.695  11.675   2.872  0.9303 -0.3424 -0.9602
  547MOL0     C73738   5.755  11.643   2.747  0.6079  0.1099  0.5352
  547MOL0     C73739   5.894  11.689   2.714  0.1468 -0.1550 -0.6879
  547MOL0     O73740   5.974  11.727   2.819 -0.0072 -0.6258 -0.4220
  547MOL0     C73741   6.102  11.759   2.794 -1.1201 -1.1752  0.0188
  547MOL0     C73742   6.153  11.869   2.861  0.1740 -0.2962  0.0171
  547MOL0     C73743   6.289  11.908   2.854  0.6436 -0.4520  0.3306
  547MOL0     C73744   6.379  11.823   2.784 -0.6533 -0.7041  0.7177
  547MOL0     O73745   6.511  11.853   2.786 -0.1426  0.5418 -0.8345
  547MOL0     C73746   6.605  11.744   2.778 -0.5886  0.0058 -0.1945
  547MOL0     C73747   6.745  11.797   2.813 -0.2015  0.2044  1.2078
  547MOL0     C73748   6.781  11.926   2.731  0.2733  0.5508  0.4091
  547MOL0     C73749   6.924  11.968   2.769  0.5919 -0.9713 -0.6660
  547MOL0     C73750   6.939  12.114   2.740 -0.7067  0.3816 -0.5421
  547MOL0     C73751   7.065  12.167   2.822  0.3758  0.3141 -0.1054
  547MOL0     C73752   7.071  12.318   2.785  0.3821 -0.6668 -0.3267
  547MOL0     C73753   6.967  12.393   2.863  1.3762 -0.8954  0.3175
  547MOL0    Cl73754   7.026  12.399   3.033  0.1535 -0.3015 -0.1453
  547MOL0     C73755   6.328  11.715   2.702 -0.3544 -0.0355  0.3403
  547MOL0     C73756   6.191  11.688   2.709 -0.7431  0.2090 -0.8170
  547MOL0     O73757   5.935  11.674   2.600 -0.5434 -0.0464 -0.5744
  547MOL0     C73758   5.682  11.550   2.666 -0.3191 -0.0989  0.2801
  547MOL0     C73759   5.557  11.505   2.694 -0.0649  0.6768 -0.1489
  547MOL0     N73760   5.044  11.023   2.908  1.0880  0.2583  0.0627
  547MOL0     N73761   5.072  10.913   2.970 -0.3708  0.4538 -0.2578
  547MOL0     C73762   4.096  10.141   3.058 -0.9527 -0.0068  0.1062
  547MOL0     C73763   3.993  10.062   3.086 -0.6307  0.4785  0.6147
  547MOL0     C73764   3.670   9.860   3.368 -0.9523 -0.4639 -0.2515
  547MOL0     C73765   3.625   9.734   3.412 -0.5819 -0.3990 -0.5496
  547MOL0     C73766   3.488   9.718   3.436 -0.6662  0.0271  0.3257
  547MOL0     C73767   3.389   9.810   3.408  0.4734  0.1473  0.0819
  547MOL0     O73768   3.256   9.789   3.413 -0.0502 -0.5801 -0.2891
  547MOL0     C73769   3.207   9.655   3.431 -0.4924 -0.3373 -0.8729
  547MOL0     C73770   3.052   9.649   3.407 -0.1174 -0.1198  0.6102
  547MOL0     C73771   2.968   9.769   3.441 -0.2411 -0.4369  0.2013
  547MOL0     C73772   2.903   9.758   3.579 -1.1904 -1.8329 -0.1502
  547MOL0     C73773   2.815   9.643   3.586  0.2571  0.1251  0.0962
  547MOL0     C73774   2.740   9.545   3.604 -0.0880  0.2361 -0.2717
  547MOL0     C73775   3.436   9.931   3.367 -0.5388 -0.3490 -0.2279
  547MOL0     C73776   3.573   9.961   3.344 -0.2861  0.7276 -1.0709
  547MOL0     C73777   3.602  10.095   3.303  0.6002 -0.2937  0.0386
  547MOL0     H73778   4.003  10.086   3.422  0.5633 -2.6645 -0.0136
  547MOL0     H73779   4.178  10.234   3.378  0.2230 -1.1338  0.4799
  547MOL0     H73780   4.310  10.412   3.246  1.1548 -0.7210  2.1987
  547MOL0     H73781   4.401  10.259   3.287  0.8201  0.1887  0.1883
  547MOL0     H73782   4.466  10.449   3.078 -2.3042  1.5745  2.5363
  547MOL0     H73783   4.540  10.285   3.099  0.4951  1.4883 -2.0650
  547MOL0     H73784   4.618  10.389   3.317 -0.4356  0.6489 -0.5496
  547MOL0     H73785   4.523  10.539   3.280 -0.1997  1.5372 -2.1538
  547MOL0     H73786   4.782  10.448   3.129 -0.7401 -0.2158 -0.0823
  547MOL0     H73787   4.662  10.569   3.078 -1.3366  0.3504  1.2065
  547MOL0     H73788   4.711  10.708   3.266 -0.4642 -0.7269 -0.7276
  547MOL0     H73789   4.811  10.578   3.340  2.4170 -2.5212 -2.0718
  547MOL0     H73790   4.973  10.604   3.141 -0.2203 -1.8823  1.9665
  547MOL0     H73791   4.872  10.740   3.087 -0.4110 -2.0008 -0.8111
  547MOL0     H73792   5.017  10.720   3.353  2.2816 -0.0930 -1.2939
  547MOL0     H73793   4.925  10.864   3.312  1.1139  0.2205  1.3151
  547MOL0     H73794   5.174  10.903   3.287  2.3216 -3.8735  1.9550
  547MOL0     H73795   5.187  10.775   3.177  1.1183  0.5332  1.4641
  547MOL0     H73796   5.052  11.133   3.210  1.4764  1.3152 -0.5432
  547MOL0     H73797   4.987  11.277   2.860  3.0221  1.0600 -0.5303
  547MOL0     H73798   4.941  11.322   3.032  2.6729  3.4450 -0.3129
  547MOL0     H73799   5.190  11.330   3.081 -0.6919  0.1471  0.0032
  547MOL0     H73800   5.215  11.275   2.905  0.2250  0.3850 -0.0307
  547MOL0     H73801   5.065  11.508   2.994 -2.7934 -3.8779  0.1206
  547MOL0     H73802   5.117  11.480   2.822 -0.4568 -1.2374  0.7934
  547MOL0     H73803   5.341  11.514   3.035 -1.6675 -1.0357  1.2727
  547MOL0     H73804   5.273  11.646   2.940 -0.5369  0.1405  0.4936
  547MOL0     H73805   5.541  11.646   3.007 -0.2420 -2.0521  0.1251
  547MOL0     H73806   5.750  11.736   2.943 -1.4709 -0.4181  1.1219
  547MOL0     H73807   6.090  11.922   2.931 -0.4758  1.4759 -1.8046
  547MOL0     H73808   6.323  11.987   2.921 -1.2873  0.5764  0.1931
  547MOL0     H73809   6.593  11.654   2.839 -0.5611 -2.1524 -3.1648
  547MOL0     H73810   6.605  11.708   2.675  1.9249 -2.0206  0.4103
  547MOL0     H73811   6.743  11.825   2.918  0.2039  0.8893  1.0408
  547MOL0     H73812   6.822  11.721   2.793  0.3014  0.4022  2.3175
  547MOL0     H73813   6.776  11.918   2.622  0.8766 -0.9138  0.4639
  547MOL0     H73814   6.710  12.002   2.765 -1.9323 -0.4281 -1.6869
  547MOL0     H73815   6.991  11.904   2.712 -1.3663 -4.0642  0.2557
  547MOL0     H73816   6.934  11.951   2.877 -1.8133 -1.0575 -0.4056
  547MOL0     H73817   6.846  12.164   2.767 -0.1794  1.0404  0.0935
  547MOL0     H73818   6.956  12.128   2.633  3.6165 -0.0989 -0.0959
  547MOL0     H73819   7.049  12.148   2.929  1.3581  0.9094  0.1528
  547MOL0     H73820   7.157  12.114   2.795  0.8591  0.5047  1.0907
  547MOL0     H73821   7.055  12.331   2.678  1.4022  0.1112 -0.3996
  547MOL0     H73822   7.163  12.372   2.808  0.6581 -1.4911  0.5890
  547MOL0     H73823   6.961  12.496   2.825  0.9124 -0.9646  0.2044
  547MOL0     H73824   6.865  12.354   2.860  0.6303  0.7026  2.2727
  547MOL0     H73825   6.393  11.665   2.632  1.6777  2.4103  0.3511
  547MOL0     H73826   6.159  11.600   2.654  0.0500  0.2523 -1.3686
  547MOL0     H73827   5.730  11.530   2.571  1.5385  0.9245  0.9517
  547MOL0     H73828   5.507  11.437   2.626  0.1907  0.8753 -0.5423
  547MOL0     H73829   4.117  10.160   2.953 -3.4208  1.8534 -0.1500
  547MOL0     H73830   3.933  10.020   3.006  3.3285 -2.3803 -1.1829
  547MOL0     H73831   3.701   9.660   3.431  0.0611  0.2647 -0.4644
  547MOL0     H73832   3.457   9.620   3.471  0.3688 -0.1243  0.8415
  547MOL0     H73833   3.223   9.621   3.534 -2.3919 -0.5147 -0.6089
  547MOL0     H73834   3.260   9.593   3.358  0.1046  0.6855 -1.3285
  547MOL0     H73835   3.012   9.559   3.456  2.0929 -3.9391 -3.7958
  547MOL0     H73836   3.037   9.620   3.303 -0.7121 -2.1072  1.1997
  547MOL0     H73837   2.893   9.780   3.362 -0.0583  2.0879  0.3047
  547MOL0     H73838   3.024   9.863   3.429 -2.4398  0.9818  0.5712
  547MOL0     H73839   2.986   9.747   3.649 -0.5163  0.9136 -0.4125
  547MOL0     H73840   2.852   9.851   3.606  2.2814  0.3124 -0.3531
  547MOL0     H73841   2.681   9.461   3.636  2.2555 -0.4275  2.9310
  547MOL0     H73842   3.366  10.013   3.355 -1.4849 -1.1872 -0.6422
  547MOL0     H73843   3.622  10.089   3.196 -1.5016 -0.4930 -0.3794
  547MOL0     H73844   3.512  10.154   3.321  2.7768  2.7697  1.8322
  547MOL0     H73845   3.676  10.141   3.369  0.7628 -2.2787  1.3282
  548MOL0     O73846   6.954   2.975  11.337  0.7826 -0.2115  0.2362
  548MOL0     C73847   6.977   2.860  11.372  0.2714  0.2909  0.6789
  548MOL0     O73848   6.881   2.759  11.386  0.2403 -0.7924 -0.5171
  548MOL0     C73849   6.749   2.797  11.383  0.6276  0.0458 -0.3032
  548MOL0     C73850   6.675   2.752  11.274  1.2774 -0.1719 -1.3133
  548MOL0     C73851   6.540   2.777  11.265  0.8125  0.5368  0.2852
  548MOL0     C73852   6.470   2.853  11.358 -0.4160 -0.6234  0.5978
  548MOL0     O73853   6.338   2.866  11.333  0.9623  0.4616 -1.2150
  548MOL0     C73854   6.259   2.839  11.451 -0.0087 -0.1358  0.4880
  548MOL0     C73855   6.119   2.826  11.392 -0.0770  0.4224  0.7806
  548MOL0     C73856   6.102   2.709  11.300  0.7054 -0.2863  0.1413
  548MOL0     C73857   6.046   2.580  11.368 -0.0587  0.4491  0.4894
  548MOL0     C73858   5.895   2.579  11.388 -0.9136  0.2712  0.0859
  548MOL0     C73859   5.815   2.557  11.259 -0.0159 -0.1686  0.7174
  548MOL0     C73860   5.674   2.618  11.263 -0.0221  0.1554 -0.5325
  548MOL0     C73861   5.578   2.573  11.146  0.2725  0.7119 -0.4472
  548MOL0     N73862   5.440   2.604  11.177  0.2176 -0.0436  0.5672
  548MOL0     C73863   5.337   2.524  11.135  0.1428 -0.0812 -1.0738
  548MOL0     C73864   5.227   2.585  11.189  0.0807  0.6275 -0.1061
  548MOL0     C73865   5.093   2.524  11.185 -0.7819 -0.1254  0.0609
  548MOL0     C73866   5.014   2.526  11.318 -0.7687  0.7572  0.7515
  548MOL0     C73867   4.871   2.458  11.315 -0.0985  0.7025 -1.3948
  548MOL0     C73868   4.785   2.495  11.198  0.7253  1.0696 -0.3896
  548MOL0     O73869   4.713   2.625  11.184 -1.0491 -0.1522 -0.1902
  548MOL0     C73870   4.594   2.643  11.242 -0.2880 -0.2875 -0.0496
  548MOL0     C73871   4.523   2.558  11.334  0.0253  0.0993  1.1250
  548MOL0     C73872   4.408   2.603  11.407 -0.0657  0.2652  0.5347
  548MOL0     C73873   4.356   2.737  11.375  0.3852  0.0309  0.6402
  548MOL0     C73874   4.231   2.788  11.436  0.1755  0.2982  0.7090
  548MOL0     O73875   4.222   2.922  11.465  0.1575 -0.2521  0.0734
  548MOL0     C73876   4.092   2.961  11.480  0.2363  0.6761 -0.4155
  548MOL0     C73877   4.002   2.955  11.376 -1.1664  0.4165  0.0444
  548MOL0     C73878   3.873   2.992  11.398  0.8709 -0.1837  0.1708
  548MOL0     C73879   3.830   3.045  11.515 -0.3267 -0.2991  0.1148
  548MOL0     O73880   3.712   3.105  11.542  0.3249 -0.0505 -0.1287
  548MOL0     C73881   3.594   3.051  11.469 -0.1880 -0.2160  0.3762
  548MOL0     C73882   3.464   3.113  11.520 -0.4595  0.6017 -0.3509
  548MOL0     C73883   3.449   3.140  11.676 -0.3280 -0.0832  1.0020
  548MOL0     C73884   3.312   3.163  11.714 -0.5189 -0.5411  0.2856
  548MOL0     C73885   3.282   3.240  11.844 -0.3873 -0.2433 -0.4745
  548MOL0     C73886   3.293   3.155  11.974  1.3454  0.9361 -0.3332
  548MOL0     C73887   3.184   3.049  11.994 -0.0933 -0.6368  0.9035
  548MOL0     C73888   3.210   2.946  12.094 -0.5324 -0.0624 -0.3330
  548MOL0    Cl73889   3.100   2.822  12.080  0.0445 -0.0121 -0.0092
  548MOL0     C73890   3.912   3.032  11.628 -0.7664 -0.8569  0.0148
  548MOL0     C73891   4.043   2.998  11.607  0.3810  0.4434 -0.4498
  548MOL0     O73892   4.139   2.706  11.440  0.0065 -0.6911 -0.2382
  548MOL0     C73893   4.431   2.826  11.299 -0.4817 -0.7408 -0.1433
  548MOL0     C73894   4.549   2.778  11.232  0.2867  0.7652  0.9919
  548MOL0     N73895   5.262   2.696  11.263 -0.3244  0.7075 -0.5194
  548MOL0     N73896   5.392   2.704  11.258 -0.6132  0.0649  0.3713
  548MOL0     C73897   6.541   2.903  11.464  0.2399  0.2722 -0.0893
  548MOL0     C73898   6.684   2.870  11.483  0.7265 -0.1283  0.4272
  548MOL0     C73899   7.114   2.809  11.378 -0.5191  0.7537 -0.8727
  548MOL0     C73900   7.136   2.675  11.426  0.5562  0.4210  0.0791
  548MOL0     C73901   7.263   2.624  11.429  0.0441 -0.1647  0.8739
  548MOL0     C73902   7.367   2.698  11.387 -0.2036 -0.2479  0.3287
  548MOL0     O73903   7.492   2.636  11.393  0.3035 -0.4284  0.1613
  548MOL0     C73904   7.611   2.688  11.331  0.3882  0.0411  0.7336
  548MOL0     C73905   7.715   2.566  11.345 -0.1204 -0.7300  0.3426
  548MOL0     C73906   7.785   2.567  11.491 -0.3517 -1.1897 -0.0684
  548MOL0     C73907   7.822   2.422  11.535  0.4019  0.0885 -0.0038
  548MOL0     C73908   7.916   2.412  11.647 -0.6773  0.0878  0.0696
  548MOL0     C73909   7.999   2.399  11.727 -0.4442 -1.0526  0.1628
  548MOL0     C73910   7.350   2.819  11.333 -0.6777  0.0123 -0.3127
  548MOL0     C73911   7.228   2.885  11.342 -0.0785 -0.1475  0.5772
  548MOL0     C73912   7.226   3.029  11.294 -0.3167  0.3089 -0.1518
  548MOL0     H73913   6.714   2.714  11.180 -0.8637  0.7614 -2.6482
  548MOL0     H73914   6.485   2.740  11.180  0.7252  1.1040  0.0888
  548MOL0     H73915   6.284   2.750  11.509 -0.2563 -0.1850  0.5167
  548MOL0     H73916   6.260   2.929  11.513  1.3581  1.6070 -1.8689
  548MOL0     H73917   6.106   2.918  11.335  2.7400  1.0533  0.9952
  548MOL0     H73918   6.057   2.810  11.480  1.3728 -0.0567  1.7590
  548MOL0     H73919   6.195   2.667  11.262  3.6334  2.4800  3.6002
  548MOL0     H73920   6.052   2.741  11.208  1.4276  1.3106  0.2867
  548MOL0     H73921   6.071   2.485  11.321  0.6873  0.4534  0.8653
  548MOL0     H73922   6.088   2.567  11.468  0.6022 -2.5015 -0.0868
  548MOL0     H73923   5.870   2.506  11.465  1.4203 -2.5239 -1.5871
  548MOL0     H73924   5.861   2.676  11.424 -2.6375 -0.0547 -0.5575
  548MOL0     H73925   5.861   2.595  11.168  0.8020 -1.6636  0.4760
  548MOL0     H73926   5.810   2.452  11.229 -0.6972  0.2312 -0.7027
  548MOL0     H73927   5.681   2.727  11.259  1.5166  0.0924 -0.2132
  548MOL0     H73928   5.632   2.588  11.360 -2.3343  0.6526 -1.3075
  548MOL0     H73929   5.606   2.632  11.058 -1.4360  0.8645 -0.9287
  548MOL0     H73930   5.605   2.467  11.143  1.8398  1.0018  1.8969
  548MOL0     H73931   5.347   2.436  11.074  0.8339  0.8308 -2.3300
  548MOL0     H73932   5.034   2.567  11.104 -0.9100  3.3260  1.7988
  548MOL0     H73933   5.109   2.419  11.160 -0.2254 -0.2910  1.0461
  548MOL0     H73934   5.069   2.474  11.397 -2.1636  0.4130  1.5319
  548MOL0     H73935   4.997   2.632  11.340  0.0291  0.5130  2.7792
  548MOL0     H73936   4.817   2.465  11.410 -1.1172  2.1028 -2.0390
  548MOL0     H73937   4.896   2.352  11.321 -2.0408  0.2768  1.3154
  548MOL0     H73938   4.718   2.408  11.202  2.1240 -0.0199  0.5906
  548MOL0     H73939   4.830   2.477  11.100 -0.9993 -1.2830 -0.8529
  548MOL0     H73940   4.554   2.454  11.344 -0.5704 -0.3304 -0.9423
  548MOL0     H73941   4.362   2.532  11.476 -0.6620 -1.5125 -1.5800
  548MOL0     H73942   4.022   2.925  11.273 -1.4499 -0.5320  0.2525
  548MOL0     H73943   3.810   2.981  11.310 -1.7255 -1.3478  2.0362
  548MOL0     H73944   3.607   3.075  11.363  0.1513 -1.2571  0.1735
  548MOL0     H73945   3.596   2.943  11.485 -1.0622 -0.4505 -0.9516
  548MOL0     H73946   3.459   3.207  11.464  1.7992  0.8142 -0.2676
  548MOL0     H73947   3.376   3.057  11.486 -0.6075  0.1828  0.6854
  548MOL0     H73948   3.505   3.071  11.740 -0.1395 -1.2781 -0.4211
  548MOL0     H73949   3.503   3.232  11.703  0.1982  0.1414 -0.7371
  548MOL0     H73950   3.255   3.070  11.714 -1.9100  0.2152 -1.9838
  548MOL0     H73951   3.268   3.216  11.629 -0.2459 -0.0074  0.4681
  548MOL0     H73952   3.180   3.280  11.849  0.1047  0.8782  1.7733
  548MOL0     H73953   3.353   3.321  11.863 -1.7943  1.2842 -1.4405
  548MOL0     H73954   3.390   3.104  11.974  0.3027 -1.1379 -0.8583
  548MOL0     H73955   3.305   3.222  12.060 -0.5884 -0.7359  1.3250
  548MOL0     H73956   3.168   2.995  11.900 -1.2426  1.2940 -0.0669
  548MOL0     H73957   3.090   3.099  12.018  0.2900  0.8975 -0.6243
  548MOL0     H73958   3.312   2.910  12.080  0.2571  3.0047 -4.0991
  548MOL0     H73959   3.197   2.988  12.195 -0.4935  0.0328 -0.3678
  548MOL0     H73960   3.881   3.062  11.728 -2.4760  1.3360 -1.0938
  548MOL0     H73961   4.099   3.008  11.700 -0.5207  0.9973  0.0446
  548MOL0     H73962   4.408   2.931  11.285 -1.9020 -1.1918 -1.6447
  548MOL0     H73963   4.602   2.852  11.173 -1.3218  1.1832  0.0118
  548MOL0     H73964   6.497   2.960  11.545 -0.2555  0.4073 -0.4547
  548MOL0     H73965   6.743   2.906  11.567  0.2321 -2.3689  1.8333
  548MOL0     H73966   7.049   2.614  11.447  1.0835 -1.0402 -1.7061
  548MOL0     H73967   7.279   2.523  11.466 -2.3508 -1.0954 -0.4254
  548MOL0     H73968   7.637   2.786  11.372 -2.9226  2.6028 -2.5307
  548MOL0     H73969   7.607   2.704  11.222  0.5718  0.0492  0.7271
  548MOL0     H73970   7.790   2.547  11.268 -2.4329 -0.3992 -2.1329
  548MOL0     H73971   7.641   2.487  11.336 -1.1529  0.3892 -1.5428
  548MOL0     H73972   7.718   2.609  11.566  0.4178 -2.8230  1.6292
  548MOL0     H73973   7.873   2.631  11.495 -0.1338 -1.2150 -2.5896
  548MOL0     H73974   7.736   2.364  11.571  0.4015 -0.5196 -0.9540
  548MOL0     H73975   7.866   2.376  11.445 -0.2795  0.4735 -0.5408
  548MOL0     H73976   8.062   2.370  11.809  0.9936 -1.7849 -1.1388
  548MOL0     H73977   7.431   2.886  11.306 -1.8830  1.0622 -1.4965
  548MOL0     H73978   7.319   3.062  11.246 -0.7791  2.0379  0.0867
  548MOL0     H73979   7.146   3.039  11.221 -0.1624 -0.5431 -0.4441
  548MOL0     H73980   7.206   3.096  11.378  3.1322  3.1464 -1.3274
  549MOL0     O73981   9.453   3.989   9.324  0.0221  0.7791 -0.0379
  549MOL0     C73982   9.379   3.941   9.235 -0.2397  0.3745 -0.4762
  549MOL0     O73983   9.418   3.883   9.117  0.3232  0.4670  0.0551
  549MOL0     C73984   9.548   3.905   9.081  0.1667  0.5366 -0.5148
  549MOL0     C73985   9.657   3.884   9.163  0.7126 -0.3261  0.0623
  549MOL0     C73986   9.785   3.902   9.113 -0.1340  0.2654 -0.1402
  549MOL0     C73987   9.816   3.966   8.990  1.0462 -0.0207  0.1878
  549MOL0     O73988   9.934   4.002   8.935 -0.6753 -0.2920 -0.3434
  549MOL0     C73989  10.050   4.021   9.026  0.0120 -0.0177 -1.1333
  549MOL0     C73990  10.139   3.914   8.995  0.2998  0.6300 -0.0743
  549MOL0     C73991  10.239   3.875   9.108 -0.5537  0.8446 -0.0663
  549MOL0     C73992  10.170   3.827   9.237  0.2741 -0.0230 -0.2637
  549MOL0     C73993  10.263   3.800   9.355 -0.1662  0.1080 -0.1452
  549MOL0     C73994  10.381   3.702   9.331  0.7565 -0.4133 -0.1909
  549MOL0     C73995  10.467   3.667   9.458 -1.2183 -0.3565 -0.9454
  549MOL0     C73996  10.599   3.604   9.425 -0.6221 -0.0463 -0.4419
  549MOL0     N73997  10.647   3.531   9.546 -0.1060 -0.6173  0.5753
  549MOL0     C73998  10.618   3.408   9.583 -0.2363 -0.2936 -0.9974
  549MOL0     C73999  10.687   3.400   9.705  0.0962  0.2991 -0.4870
  549MOL0     C74000  10.696   3.274   9.788 -0.1444  0.3984 -0.3594
  549MOL0     C74001  10.652   3.302   9.932 -1.1002  0.0662 -0.3955
  549MOL0     C74002  10.671   3.188  10.035  1.2629  1.1226 -0.5964
  549MOL0     C74003  10.816   3.164  10.075 -0.7204 -0.2623  0.1093
  549MOL0     O74004  10.832   3.062  10.173  0.5716  0.1920 -0.2989
  549MOL0     C74005  10.930   2.972  10.148  0.2093 -0.1050  0.0037
  549MOL0     C74006  11.045   2.995  10.076 -0.1374  0.4947  0.0339
  549MOL0     C74007  11.140   2.898  10.060  0.7482 -0.5177  0.7582
  549MOL0     C74008  11.133   2.773  10.121 -0.9864 -0.6738  1.8376
  549MOL0     C74009  11.246   2.679  10.101  0.4268  1.4442 -0.1441
  549MOL0     O74010  11.350   2.725  10.028 -0.2038  0.4749  0.0853
  549MOL0     C74011  11.465   2.641  10.010 -0.8455  0.1435 -0.3769
  549MOL0     C74012  11.565   2.642  10.107 -0.4115 -0.6721 -0.1993
  549MOL0     C74013  11.677   2.561  10.097 -0.1163  0.9005 -0.2650
  549MOL0     C74014  11.690   2.463   9.996  0.3713 -0.0580 -0.5615
  549MOL0     O74015  11.792   2.380   9.985 -0.5111  0.2905 -0.4173
  549MOL0     C74016  11.921   2.443  10.010  0.4346 -0.4594 -0.1879
  549MOL0     C74017  11.999   2.405   9.888 -0.1853  0.1241  0.2264
  549MOL0     C74018  12.142   2.438   9.875  0.1132 -1.2810  0.3198
  549MOL0     C74019  12.145   2.587   9.844 -0.0760  0.4316  0.0633
  549MOL0     C74020  12.254   2.662   9.921 -0.3847 -0.4661  0.1473
  549MOL0     C74021  12.251   2.819   9.910  0.4740 -0.0694  0.3444
  549MOL0     C74022  12.317   2.861   9.776 -0.4110 -0.0014 -0.4263
  549MOL0     C74023  12.304   3.009   9.754  0.5624 -0.7106 -0.3180
  549MOL0    Cl74024  12.357   3.029   9.579  0.3059  0.0249  0.3480
  549MOL0     C74025  11.596   2.474   9.885  0.1208 -0.3947 -0.2096
  549MOL0     C74026  11.482   2.563   9.897 -0.2198  0.9288  0.3599
  549MOL0     O74027  11.231   2.573  10.157  0.4835 -0.0470  0.1656
  549MOL0     C74028  11.013   2.742  10.186 -0.7923  0.3351 -0.1902
  549MOL0     C74029  10.915   2.839  10.198 -0.6548  0.2244 -0.7207
  549MOL0     N74030  10.762   3.518   9.722  0.3059  0.0499  0.6820
  549MOL0     N74031  10.733   3.598   9.622  0.4949 -0.1744 -0.7435
  549MOL0     C74032   9.701   3.969   8.906 -0.4145 -0.7156 -0.2287
  549MOL0     C74033   9.574   3.939   8.945 -0.3084  0.2967 -0.1491
  549MOL0     C74034   9.232   3.955   9.271  0.3475 -0.8057  0.0298
  549MOL0     C74035   9.185   4.003   9.399 -0.4940 -0.2185  0.4839
  549MOL0     C74036   9.050   4.003   9.433  0.5618 -0.4021  0.2103
  549MOL0     C74037   8.954   3.960   9.339  0.6242  0.5947 -0.1198
  549MOL0     O74038   8.818   3.966   9.374  0.4405  0.2820  0.3716
  549MOL0     C74039   8.794   3.876   9.495 -0.6859 -0.4980  0.4665
  549MOL0     C74040   8.835   3.728   9.487  0.1584  0.2070  0.4289
  549MOL0     C74041   8.747   3.656   9.387 -0.7189  0.2633 -0.0556
  549MOL0     C74042   8.596   3.660   9.430 -0.1776  0.3513 -0.1620
  549MOL0     C74043   8.515   3.540   9.404  0.9024 -0.9398  0.1906
  549MOL0     C74044   8.442   3.443   9.382  0.1348 -0.0965  1.0663
  549MOL0     C74045   8.992   3.936   9.213  0.0352  0.4625 -0.9694
  549MOL0     C74046   9.131   3.913   9.183  0.3101 -0.4486 -0.2164
  549MOL0     C74047   9.154   3.849   9.054 -0.0259 -0.1432  0.6157
  549MOL0     H74048   9.647   3.853   9.267  0.0036 -0.1274  0.0581
  549MOL0     H74049   9.860   3.886   9.190  0.9067  2.3452 -0.6353
  549MOL0     H74050  10.098   4.114   8.997 -0.1243  0.2072 -0.6549
  549MOL0     H74051  10.015   4.027   9.130 -1.9254 -3.1743 -1.4461
  549MOL0     H74052  10.204   3.937   8.910  1.4424 -2.0748 -0.0362
  549MOL0     H74053  10.090   3.826   8.952 -1.9280  2.5187 -1.6314
  549MOL0     H74054  10.299   3.963   9.134  0.4122  0.0522  0.4741
  549MOL0     H74055  10.304   3.795   9.070  0.4055  0.0744  2.9137
  549MOL0     H74056  10.093   3.901   9.257  2.2549  1.5576  2.0945
  549MOL0     H74057  10.127   3.728   9.218  0.7712 -0.4341  0.6201
  549MOL0     H74058  10.305   3.895   9.389  0.9001  0.4511 -2.2550
  549MOL0     H74059  10.200   3.763   9.436 -1.5732  1.5049 -0.5471
  549MOL0     H74060  10.341   3.606   9.297 -1.3536 -0.0982  1.2670
  549MOL0     H74061  10.455   3.738   9.258  2.7465 -0.6942  1.5634
  549MOL0     H74062  10.402   3.599   9.513  0.5100 -0.2552  1.3467
  549MOL0     H74063  10.486   3.749   9.528  2.7823 -1.3212 -0.6991
  549MOL0     H74064  10.583   3.532   9.345  0.6779 -2.3406  1.2411
  549MOL0     H74065  10.674   3.674   9.385 -2.6707  1.7478 -1.3323
  549MOL0     H74066  10.556   3.336   9.532 -0.4001  1.4532 -3.4236
  549MOL0     H74067  10.632   3.196   9.746  1.3174 -0.4637 -1.0677
  549MOL0     H74068  10.797   3.232   9.786 -0.6805 -0.9844 -3.2799
  549MOL0     H74069  10.718   3.381   9.968  0.5258 -0.5839 -1.7467
  549MOL0     H74070  10.550   3.340   9.935 -1.1375  0.0790 -1.4528
  549MOL0     H74071  10.637   3.088  10.006  2.1790  0.4705  0.4531
  549MOL0     H74072  10.614   3.212  10.124 -1.7028 -2.3303 -1.3205
  549MOL0     H74073  10.858   3.252  10.126 -2.0146  0.9913 -0.9140
  549MOL0     H74074  10.874   3.158   9.982 -1.8457  0.7162 -0.6832
  549MOL0     H74075  11.064   3.094  10.037  0.6730  1.2185  2.1693
  549MOL0     H74076  11.225   2.926  10.000 -0.2762 -0.5499 -0.7504
  549MOL0     H74077  11.545   2.688  10.203  2.3545 -2.6868  1.5260
  549MOL0     H74078  11.753   2.568  10.175  0.4935 -0.3922 -0.7091
  549MOL0     H74079  11.922   2.551  10.025 -1.6749 -0.6268  1.8322
  549MOL0     H74080  11.957   2.404  10.106 -1.4283  0.5404  0.9946
  549MOL0     H74081  11.995   2.295   9.884  1.4330  0.0867 -1.6777
  549MOL0     H74082  11.940   2.435   9.800 -1.5085 -4.1783 -0.6003
  549MOL0     H74083  12.192   2.418   9.970 -2.0423 -0.3152  1.7227
  549MOL0     H74084  12.187   2.376   9.797 -2.3624  0.5248 -2.7930
  549MOL0     H74085  12.048   2.638   9.851 -0.4652 -0.1295 -1.0170
  549MOL0     H74086  12.163   2.590   9.737 -0.3114 -0.4106 -0.0076
  549MOL0     H74087  12.345   2.613   9.885  0.1510  0.4275  0.2497
  549MOL0     H74088  12.244   2.641  10.028 -2.0927 -1.5966 -0.1926
  549MOL0     H74089  12.151   2.856   9.933 -0.3536 -1.6211 -0.5708
  549MOL0     H74090  12.327   2.860   9.977  1.8549  0.6324 -1.5838
  549MOL0     H74091  12.263   2.803   9.700 -0.6455  1.6568 -1.5819
  549MOL0     H74092  12.425   2.843   9.774  0.4850  4.1912 -3.4140
  549MOL0     H74093  12.204   3.049   9.773  0.9816 -0.9879  2.9504
  549MOL0     H74094  12.380   3.055   9.818 -0.6185  2.4703 -0.9823
  549MOL0     H74095  11.624   2.414   9.799 -0.5030 -0.2447 -0.5307
  549MOL0     H74096  11.413   2.558   9.814  0.2271 -3.6775  0.0291
  549MOL0     H74097  11.003   2.649  10.241 -1.2948 -0.5245 -1.6690
  549MOL0     H74098  10.837   2.827  10.273  1.5587 -1.9108  1.4244
  549MOL0     H74099   9.712   4.003   8.803  0.6257 -3.6956 -1.2118
  549MOL0     H74100   9.500   3.929   8.866 -0.5574 -0.4938  0.1769
  549MOL0     H74101   9.265   4.030   9.467  0.4508  1.3584 -1.1586
  549MOL0     H74102   9.008   4.032   9.529 -0.7449  2.3752 -1.0884
  549MOL0     H74103   8.686   3.887   9.503 -0.6730  1.3402 -1.1522
  549MOL0     H74104   8.847   3.913   9.583  0.6955  0.6738 -0.8067
  549MOL0     H74105   8.830   3.672   9.581 -0.8323 -0.3792  0.0374
  549MOL0     H74106   8.935   3.710   9.448  0.0707 -0.4148  0.4810
  549MOL0     H74107   8.776   3.551   9.381 -3.4574 -0.5277 -0.9475
  549MOL0     H74108   8.767   3.699   9.289 -0.2857 -0.3874 -0.2569
  549MOL0     H74109   8.589   3.687   9.536  0.5937 -0.1481  0.0253
  549MOL0     H74110   8.542   3.750   9.399 -1.7998  0.0421  1.5738
  549MOL0     H74111   8.374   3.361   9.367  0.0191 -0.2144  2.1728
  549MOL0     H74112   8.913   3.915   9.142 -0.6931 -1.4989  0.3265
  549MOL0     H74113   9.056   3.836   9.007  0.2904 -0.0787 -0.0777
  549MOL0     H74114   9.207   3.927   8.999 -0.8320  0.5366  0.7733
  549MOL0     H74115   9.195   3.748   9.063 -0.0922  0.0217  3.2672
  550MOL0     O74116   0.508   2.899   0.876 -0.1413  0.1939 -0.4601
  550MOL0     C74117   0.499   2.957   0.764  0.2698 -0.5498 -0.9686
  550MOL0     O74118   0.589   3.048   0.715 -0.2885  0.1361 -0.0836
  550MOL0     C74119   0.710   3.077   0.780  0.7297  0.2721  0.1089
  550MOL0     C74120   0.815   3.113   0.694  0.6833  0.4885  0.2352
  550MOL0     C74121   0.942   3.142   0.744  0.0623  0.0707  0.5527
  550MOL0     C74122   0.977   3.132   0.878  1.1724  0.5968 -0.4475
  550MOL0     O74123   1.107   3.142   0.922 -0.2617  1.0387 -0.4800
  550MOL0     C74124   1.154   3.044   1.017  1.1124  0.8061  0.2632
  550MOL0     C74125   1.306   3.036   1.017  0.4421  0.4213 -0.2669
  550MOL0     C74126   1.374   3.148   1.086 -0.1234  0.1849  0.1361
  550MOL0     C74127   1.518   3.158   1.060 -0.0933 -0.3568  0.4773
  550MOL0     C74128   1.596   3.076   1.163 -0.4178  0.7772  0.3207
  550MOL0     C74129   1.744   3.118   1.185  1.1715 -0.5511 -0.1081
  550MOL0     C74130   1.845   3.144   1.068  0.6969  0.0771 -0.3813
  550MOL0     C74131   1.856   3.022   0.981  0.0629  0.7240 -0.3119
  550MOL0     N74132   1.935   3.047   0.863 -0.0778  0.1915 -0.7283
  550MOL0     C74133   2.070   3.064   0.860  0.6913 -0.2919 -0.2257
  550MOL0     C74134   2.098   3.045   0.729 -0.6461  0.1117  0.0617
  550MOL0     C74135   2.242   3.035   0.689 -0.0272  0.3387  0.0004
  550MOL0     C74136   2.288   3.124   0.578 -0.1413 -0.4872  0.1857
  550MOL0     C74137   2.259   3.272   0.608 -0.1931 -1.0628 -0.3366
  550MOL0     C74138   2.224   3.364   0.493 -0.2099  0.5281 -0.1438
  550MOL0     O74139   2.189   3.490   0.547 -0.0455  0.2351  0.1049
  550MOL0     C74140   2.053   3.505   0.586 -0.3528  0.3434  0.0506
  550MOL0     C74141   1.957   3.418   0.543 -0.3406  0.1475  0.1472
  550MOL0     C74142   1.821   3.461   0.553 -0.7579  0.2516 -0.5458
  550MOL0     C74143   1.783   3.576   0.622  0.3051 -0.1806  0.1684
  550MOL0     C74144   1.638   3.605   0.650 -0.7312 -0.3008 -0.7363
  550MOL0     O74145   1.553   3.506   0.610  0.2448 -0.3688 -0.1448
  550MOL0     C74146   1.419   3.502   0.634  0.1052 -0.1356 -0.0421
  550MOL0     C74147   1.373   3.428   0.742 -0.1441  0.5159  0.0645
  550MOL0     C74148   1.234   3.422   0.769 -0.1350  0.1209 -0.0868
  550MOL0     C74149   1.146   3.487   0.689  0.3548 -0.1460  0.0544
  550MOL0     O74150   1.015   3.475   0.742  0.3688  0.4703  0.3589
  550MOL0     C74151   0.902   3.459   0.648 -0.4326  0.1686  0.1460
  550MOL0     C74152   0.772   3.444   0.725 -0.7948 -0.5589 -0.1258
  550MOL0     C74153   0.662   3.400   0.636  0.1149  1.1149 -0.5398
  550MOL0     C74154   0.611   3.504   0.535 -0.3751 -0.0723 -0.8969
  550MOL0     C74155   0.489   3.465   0.464 -0.3416 -0.5012 -0.0246
  550MOL0     C74156   0.506   3.352   0.375 -0.2641 -0.5038  0.6774
  550MOL0     C74157   0.377   3.309   0.316  0.1229 -0.3058  1.2269
  550MOL0     C74158   0.346   3.380   0.186 -0.0009  0.8227  0.1288
  550MOL0    Cl74159   0.202   3.299   0.121  0.1221 -0.5294 -0.2656
  550MOL0     C74160   1.194   3.561   0.583  0.0495  0.5292 -0.0563
  550MOL0     C74161   1.331   3.568   0.554 -0.3704 -0.6975 -0.7949
  550MOL0     O74162   1.611   3.698   0.720 -0.0002 -1.1771 -0.1087
  550MOL0     C74163   1.883   3.659   0.677 -0.1639 -0.6572  0.4848
  550MOL0     C74164   2.015   3.622   0.656 -0.9348  0.3164  0.0975
  550MOL0     N74165   1.990   3.034   0.654  0.5031 -0.1255 -0.8961
  550MOL0     N74166   1.879   3.043   0.737 -0.3974  0.1969 -0.3827
  550MOL0     C74167   0.868   3.102   0.961  0.1011 -0.0265 -0.4268
  550MOL0     C74168   0.733   3.072   0.920  0.6215  0.2150  0.5076
  550MOL0     C74169   0.363   2.954   0.695 -0.4046 -0.2706  0.1550
  550MOL0     C74170   0.343   2.998   0.563  0.0032  0.4562 -0.5355
  550MOL0     C74171   0.220   3.010   0.505  0.6834  0.0492  0.2614
  550MOL0     C74172   0.108   2.969   0.577 -0.0782 -0.3638 -0.2590
  550MOL0     O74173  -0.007   2.995   0.515  0.0226 -0.2299  0.3461
  550MOL0     C74174  -0.138   2.996   0.582  0.8394  0.0443 -0.3756
  550MOL0     C74175  -0.217   3.124   0.549  0.2784  0.2389  0.2654
  550MOL0     C74176  -0.141   3.262   0.543 -0.0053 -0.2022 -0.0437
  550MOL0     C74177  -0.232   3.362   0.476 -0.4393 -0.4090  0.1138
  550MOL0     C74178  -0.226   3.341   0.335 -0.4198  0.7297  0.1162
  550MOL0     C74179  -0.208   3.342   0.212  0.3052  0.6784  0.6852
  550MOL0     C74180   0.126   2.907   0.704 -0.4756  0.1034 -0.0792
  550MOL0     C74181   0.250   2.907   0.763 -0.0062  0.4034 -0.0102
  550MOL0     C74182   0.245   2.850   0.906 -0.4855 -0.2508  0.0406
  550MOL0     H74183   0.803   3.098   0.587 -2.1633  0.6542  0.4671
  550MOL0     H74184   1.015   3.175   0.670 -0.7007 -2.7637 -1.6119
  550MOL0     H74185   1.137   3.057   1.124  3.8106 -0.3323  0.9215
  550MOL0     H74186   1.112   2.948   0.984  0.7172  1.3729 -0.9235
  550MOL0     H74187   1.338   3.038   0.912 -1.3033  0.0663 -0.8471
  550MOL0     H74188   1.331   2.935   1.049 -0.4157  0.6619  1.2414
  550MOL0     H74189   1.361   3.141   1.195  1.2344 -0.1671  0.2928
  550MOL0     H74190   1.315   3.230   1.045 -0.3017 -0.6222 -1.2729
  550MOL0     H74191   1.542   3.126   0.958  0.2947  0.2886  0.3618
  550MOL0     H74192   1.562   3.257   1.070  0.6576 -0.6707  0.3316
  550MOL0     H74193   1.542   3.093   1.256 -4.6321 -1.2132 -1.4949
  550MOL0     H74194   1.589   2.970   1.134 -0.3431  0.9654 -0.3974
  550MOL0     H74195   1.743   3.216   1.233  2.0093  0.6217 -2.3322
  550MOL0     H74196   1.779   3.048   1.261  0.0224 -1.1415 -0.1039
  550MOL0     H74197   1.942   3.162   1.116  0.9628 -0.7523 -0.5995
  550MOL0     H74198   1.823   3.233   1.009  1.3411  1.2535  1.0651
  550MOL0     H74199   1.896   2.936   1.035 -0.1688  0.1586 -1.0236
  550MOL0     H74200   1.755   2.984   0.960  0.7609 -2.9022  2.0544
  550MOL0     H74201   2.143   3.082   0.938 -0.9136  1.7195  0.9025
  550MOL0     H74202   2.317   3.041   0.768  1.5134  0.3122 -1.4151
  550MOL0     H74203   2.250   2.932   0.653 -1.5366 -0.4034  1.6092
  550MOL0     H74204   2.389   3.107   0.541 -0.6640 -2.5573 -0.4564
  550MOL0     H74205   2.225   3.112   0.489  1.3386  2.2758 -1.3782
  550MOL0     H74206   2.352   3.312   0.649  0.4686 -4.6200  2.1231
  550MOL0     H74207   2.179   3.287   0.682  0.8479  0.0483  0.6103
  550MOL0     H74208   2.157   3.314   0.423  0.7828 -0.9026 -0.1019
  550MOL0     H74209   2.309   3.390   0.429 -0.8275  1.3357 -0.6562
  550MOL0     H74210   1.975   3.324   0.492  2.4753  2.0987 -2.8201
  550MOL0     H74211   1.743   3.399   0.510 -0.2041 -0.3343 -0.7308
  550MOL0     H74212   1.440   3.362   0.797 -0.3538  2.0105  2.2228
  550MOL0     H74213   1.197   3.372   0.858 -0.9448  2.1040  0.7375
  550MOL0     H74214   0.895   3.544   0.580 -0.6977 -0.0659 -0.1276
  550MOL0     H74215   0.913   3.367   0.589 -3.0253  0.9337 -1.7297
  550MOL0     H74216   0.788   3.372   0.806 -0.1850  1.0441  1.2278
  550MOL0     H74217   0.754   3.538   0.777 -0.2282 -1.0651  1.0273
  550MOL0     H74218   0.688   3.317   0.570 -0.9602  0.5995 -0.3361
  550MOL0     H74219   0.579   3.361   0.695  1.1230  0.3195  0.3868
  550MOL0     H74220   0.696   3.509   0.467  1.7250  0.4445  1.5625
  550MOL0     H74221   0.602   3.599   0.590  0.7310  0.2116 -1.1644
  550MOL0     H74222   0.448   3.553   0.414  0.9496  0.0485 -0.1475
  550MOL0     H74223   0.415   3.431   0.537 -3.3162 -1.0558 -3.0457
  550MOL0     H74224   0.586   3.375   0.304  1.6270  2.0411  3.4122
  550MOL0     H74225   0.532   3.266   0.436  0.6336 -1.6310 -1.2135
  550MOL0     H74226   0.294   3.325   0.386  3.0791  4.2278  4.2599
  550MOL0     H74227   0.377   3.201   0.295 -0.9731 -0.7279  3.1114
  550MOL0     H74228   0.342   3.488   0.201  0.1443  0.6999  1.0883
  550MOL0     H74229   0.429   3.356   0.118 -0.0034  2.3428 -0.4484
  550MOL0     H74230   1.120   3.619   0.528  1.2914 -0.1813 -2.6426
  550MOL0     H74231   1.369   3.639   0.482  0.9196 -1.2810 -0.7187
  550MOL0     H74232   1.859   3.754   0.724  1.5562  1.3928 -2.4381
  550MOL0     H74233   2.094   3.686   0.694 -1.5654  4.9676 -5.1277
  550MOL0     H74234   0.883   3.088   1.067 -0.8926  2.4182  0.1151
  550MOL0     H74235   0.660   3.034   0.991  0.3449  0.0525  0.1395
  550MOL0     H74236   0.422   3.022   0.492  1.3381  0.8178  1.0274
  550MOL0     H74237   0.211   3.062   0.410  1.3908  0.7776  0.5836
  550MOL0     H74238  -0.131   3.008   0.690  0.2440  0.9830 -0.4319
  550MOL0     H74239  -0.191   2.904   0.557 -0.7282  1.0878 -1.1074
  550MOL0     H74240  -0.292   3.136   0.628  1.6401 -0.2643  1.6744
  550MOL0     H74241  -0.264   3.094   0.455  3.8019 -2.6396 -0.7829
  550MOL0     H74242  -0.049   3.249   0.485 -0.2330  0.4417 -0.5712
  550MOL0     H74243  -0.107   3.303   0.638  0.2888  2.5387 -1.2261
  550MOL0     H74244  -0.332   3.346   0.516  0.7914 -2.4907  2.6551
  550MOL0     H74245  -0.203   3.467   0.492  0.2952 -0.0189 -3.0298
  550MOL0     H74246  -0.200   3.342   0.105  0.3471 -2.4109  0.5975
  550MOL0     H74247   0.049   2.861   0.765 -0.7757 -0.6989 -1.0381
  550MOL0     H74248   0.156   2.798   0.946  0.3568 -1.6525  0.1681
  550MOL0     H74249   0.314   2.766   0.920 -1.0158 -0.9698 -1.4329
  550MOL0     H74250   0.287   2.929   0.968  1.0577  1.1439 -2.6213
  551MOL0     O74251   1.275   1.829   4.842 -0.7273  0.3281 -0.3049
  551MOL0     C74252   1.259   1.794   4.957  0.3591  0.2409  0.0973
  551MOL0     O74253   1.147   1.808   5.028 -0.0799  0.2177 -0.5760
  551MOL0     C74254   1.032   1.839   4.964 -0.5405  0.8055  0.2257
  551MOL0     C74255   0.954   1.736   4.913  0.7021  0.5432  0.6068
  551MOL0     C74256   0.820   1.764   4.878  0.6777 -0.5771 -0.5212
  551MOL0     C74257   0.764   1.892   4.888  0.0161  0.5719 -0.1124
  551MOL0     O74258   0.633   1.900   4.855  0.3215  0.0029  0.5824
  551MOL0     C74259   0.577   2.014   4.935  0.5496  0.4173  0.2937
  551MOL0     C74260   0.427   2.006   4.938  0.2451  0.4037  0.2804
  551MOL0     C74261   0.380   1.980   4.793  0.5736  0.2353 -0.0446
  551MOL0     C74262   0.218   1.990   4.776 -0.5019  0.0741  0.4113
  551MOL0     C74263   0.143   1.871   4.842  0.7902 -0.2491  0.6324
  551MOL0     C74264   0.106   1.885   4.990  0.9225 -0.0172  0.0170
  551MOL0     C74265   0.016   1.766   5.034  0.7655  0.5904  0.5530
  551MOL0     C74266   0.003   1.760   5.186  0.3088 -0.9705  0.4165
  551MOL0     N74267   0.110   1.689   5.265  0.6543  0.3778  0.0001
  551MOL0     C74268   0.150   1.565   5.238 -0.2797 -0.2460 -0.3443
  551MOL0     C74269   0.229   1.527   5.341 -0.1151 -1.0426 -0.5909
  551MOL0     C74270   0.320   1.394   5.335  0.3657  0.4489  0.3354
  551MOL0     C74271   0.393   1.363   5.474 -0.0491  0.4496 -0.0707
  551MOL0     C74272   0.540   1.400   5.455  0.5986  0.8465  0.6678
  551MOL0     C74273   0.623   1.353   5.571  0.3449  0.0271 -0.2335
  551MOL0     O74274   0.583   1.403   5.700 -0.0521  0.7556 -0.4583
  551MOL0     C74275   0.613   1.537   5.708 -0.7524  0.4981  0.4095
  551MOL0     C74276   0.521   1.644   5.682  0.6493  0.0376 -0.3905
  551MOL0     C74277   0.541   1.775   5.702 -0.4140 -1.1129  0.5928
  551MOL0     C74278   0.679   1.815   5.733  0.7217 -0.2029 -0.1247
  551MOL0     C74279   0.702   1.960   5.745 -0.1802 -0.2746  0.3918
  551MOL0     O74280   0.821   2.011   5.697 -0.1564  0.0415 -0.2722
  551MOL0     C74281   0.867   2.134   5.732  0.0365 -0.5911 -0.1761
  551MOL0     C74282   0.960   2.194   5.654  0.5992 -0.4952  0.8468
  551MOL0     C74283   1.025   2.315   5.694 -1.2000  0.8195 -0.2159
  551MOL0     C74284   0.993   2.386   5.813 -0.9274 -0.7993  0.2381
  551MOL0     O74285   1.058   2.511   5.832 -0.5450  0.1067  0.0370
  551MOL0     C74286   1.034   2.589   5.951  0.2555 -0.2216 -0.0975
  551MOL0     C74287   1.136   2.711   5.942  0.3484 -0.2156  0.4287
  551MOL0     C74288   1.282   2.670   5.987  0.5696 -0.3613  0.1953
  551MOL0     C74289   1.358   2.582   5.880 -0.1623  0.3765 -0.5392
  551MOL0     C74290   1.513   2.608   5.896  0.1764 -0.6284  0.0942
  551MOL0     C74291   1.608   2.522   5.811  0.8460  0.3482  0.0387
  551MOL0     C74292   1.577   2.368   5.815  0.4161 -0.2617  0.0434
  551MOL0     C74293   1.488   2.325   5.692 -0.1807  0.5282 -0.5086
  551MOL0    Cl74294   1.442   2.144   5.722  0.2753 -0.2419  0.2288
  551MOL0     C74295   0.885   2.339   5.879  0.5558  0.1013 -0.1669
  551MOL0     C74296   0.822   2.213   5.844 -0.3416  0.2241 -0.6380
  551MOL0     O74297   0.604   2.026   5.786  0.1485 -0.0407 -0.0587
  551MOL0     C74298   0.781   1.721   5.736 -0.8374  0.8279  0.4492
  551MOL0     C74299   0.749   1.586   5.730 -0.5087  0.3121 -0.5869
  551MOL0     N74300   0.238   1.633   5.434 -0.9949 -0.0216  0.7958
  551MOL0     N74301   0.163   1.726   5.387  0.4887 -0.0740  0.1724
  551MOL0     C74302   0.848   1.993   4.933  0.4758 -0.7058  0.1637
  551MOL0     C74303   0.984   1.968   4.972 -0.0451  0.7187  0.3457
  551MOL0     C74304   1.369   1.721   5.023 -0.2120 -0.5275  0.1563
  551MOL0     C74305   1.336   1.638   5.132  0.0752 -0.1762 -0.4568
  551MOL0     C74306   1.430   1.563   5.198  0.1640  0.2473  0.8403
  551MOL0     C74307   1.561   1.560   5.145 -0.4635 -0.5660 -0.5616
  551MOL0     O74308   1.651   1.479   5.219  0.5544  0.0163  0.8852
  551MOL0     C74309   1.774   1.441   5.153  0.1107  0.0333 -0.1877
  551MOL0     C74310   1.865   1.355   5.237 -0.3514  0.6987 -0.2970
  551MOL0     C74311   1.972   1.310   5.143  0.6664  0.2230 -0.0957
  551MOL0     C74312   2.097   1.290   5.237  0.1169 -0.4245 -0.4353
  551MOL0     C74313   2.207   1.220   5.170 -0.4019  0.6774  0.1698
  551MOL0     C74314   2.314   1.174   5.122 -0.0685 -0.5378 -0.1433
  551MOL0     C74315   1.602   1.642   5.037 -0.0507 -0.7392 -0.1183
  551MOL0     C74316   1.506   1.722   4.971 -0.5167 -0.1581  0.1281
  551MOL0     C74317   1.570   1.821   4.872 -0.7461  0.4876  0.5901
  551MOL0     H74318   1.002   1.638   4.906  0.2269  0.2886  0.8549
  551MOL0     H74319   0.776   1.677   4.830  0.4638  0.3625 -2.0660
  551MOL0     H74320   0.621   2.030   5.034  3.7057  1.6341 -1.1868
  551MOL0     H74321   0.613   2.098   4.875 -0.8867 -0.7842 -2.4391
  551MOL0     H74322   0.387   2.103   4.969  1.2478  1.2307 -0.8972
  551MOL0     H74323   0.403   1.935   5.017  1.8513  0.6231  1.0137
  551MOL0     H74324   0.410   1.879   4.763  1.0685 -0.4526  2.4960
  551MOL0     H74325   0.422   2.043   4.715  3.3954 -2.5455 -0.9810
  551MOL0     H74326   0.181   2.085   4.814  0.6555  0.7394 -0.0661
  551MOL0     H74327   0.204   1.989   4.667  4.2617  0.0593 -0.4196
  551MOL0     H74328   0.040   1.856   4.808 -0.3200 -0.9657  3.9018
  551MOL0     H74329   0.200   1.779   4.827 -1.4873 -1.3368 -2.1442
  551MOL0     H74330   0.193   1.885   5.056  0.5155 -1.7681  0.5919
  551MOL0     H74331   0.055   1.980   5.008  0.9551 -0.4499  2.8010
  551MOL0     H74332   0.053   1.675   4.986  3.2895  1.7860  0.0791
  551MOL0     H74333  -0.086   1.782   4.998  0.0232  0.5677  2.5245
  551MOL0     H74334  -0.012   1.856   5.235  1.6802  1.4750 -3.4671
  551MOL0     H74335  -0.086   1.699   5.205 -0.3446 -0.1531  0.0092
  551MOL0     H74336   0.127   1.514   5.145 -0.7852  5.4970 -3.8959
  551MOL0     H74337   0.252   1.310   5.321 -0.3876  1.0669  0.1931
  551MOL0     H74338   0.379   1.404   5.244 -1.0896  3.0338 -0.4389
  551MOL0     H74339   0.345   1.413   5.559  0.8340 -1.3606  1.5765
  551MOL0     H74340   0.402   1.255   5.489 -2.5010 -0.0904 -1.7919
  551MOL0     H74341   0.541   1.507   5.434  1.3828  0.4174 -1.8025
  551MOL0     H74342   0.580   1.355   5.363  1.3458  0.0507  1.3579
  551MOL0     H74343   0.728   1.377   5.548  1.3821 -2.8342  1.0919
  551MOL0     H74344   0.627   1.244   5.579  2.5555 -0.1717 -2.4454
  551MOL0     H74345   0.424   1.603   5.656 -0.6103  0.0733  3.5864
  551MOL0     H74346   0.459   1.847   5.695 -1.1915 -2.1507 -2.3195
  551MOL0     H74347   0.991   2.152   5.559  1.5467 -1.5409  1.5964
  551MOL0     H74348   1.110   2.348   5.634 -0.3628 -0.8456 -0.0118
  551MOL0     H74349   0.933   2.630   5.951  0.5235  0.4735 -0.9136
  551MOL0     H74350   1.054   2.551   6.051 -0.6412  1.8808  0.9427
  551MOL0     H74351   1.137   2.758   5.844 -0.8182  0.3843  0.6782
  551MOL0     H74352   1.105   2.789   6.012  1.9671  0.6714  0.1937
  551MOL0     H74353   1.336   2.765   5.995 -0.2682  0.1772 -0.3808
  551MOL0     H74354   1.271   2.644   6.093 -1.3436  3.1442  0.9908
  551MOL0     H74355   1.319   2.621   5.785 -2.0371  0.1743  0.1047
  551MOL0     H74356   1.324   2.478   5.884 -0.0679 -0.0418 -5.1368
  551MOL0     H74357   1.525   2.570   5.998 -2.0276 -1.8201 -0.0328
  551MOL0     H74358   1.558   2.708   5.895  0.5988 -0.8093  0.7710
  551MOL0     H74359   1.590   2.553   5.708 -1.4062 -1.2213 -0.1322
  551MOL0     H74360   1.710   2.542   5.844  1.7473 -1.7425 -1.2413
  551MOL0     H74361   1.523   2.336   5.905  2.5341 -3.0756  0.4567
  551MOL0     H74362   1.673   2.316   5.811  0.8957  0.6699 -1.0369
  551MOL0     H74363   1.394   2.380   5.684  0.4618  1.8884  0.8948
  551MOL0     H74364   1.540   2.333   5.596  2.9773 -3.3359  0.6087
  551MOL0     H74365   0.846   2.402   5.959 -0.4659  1.6934 -1.8301
  551MOL0     H74366   0.738   2.185   5.906 -0.2792  1.1187 -0.1321
  551MOL0     H74367   0.886   1.750   5.741 -0.7165  0.1809  2.1518
  551MOL0     H74368   0.826   1.509   5.720  0.5388  1.0400  1.4115
  551MOL0     H74369   0.809   2.094   4.941 -0.1646 -0.7298 -2.0196
  551MOL0     H74370   1.048   2.045   5.015  0.0885  0.2417  1.0051
  551MOL0     H74371   1.240   1.646   5.182  0.6836  1.0548  0.5783
  551MOL0     H74372   1.416   1.498   5.283  2.3996 -4.0147 -1.6608
  551MOL0     H74373   1.820   1.536   5.125 -3.5727  1.6929 -1.3132
  551MOL0     H74374   1.751   1.385   5.061  2.9937  2.0505 -2.3382
  551MOL0     H74375   1.803   1.271   5.270 -0.0829  0.2257 -0.9587
  551MOL0     H74376   1.898   1.414   5.322 -1.9134 -1.4312  1.9338
  551MOL0     H74377   1.995   1.380   5.061  1.3140 -0.7814 -0.8003
  551MOL0     H74378   1.942   1.215   5.096  0.1412  1.1157 -1.6571
  551MOL0     H74379   2.134   1.390   5.263  0.3979 -0.1407 -1.8767
  551MOL0     H74380   2.058   1.235   5.324 -1.4577 -0.3412 -1.0492
  551MOL0     H74381   2.397   1.127   5.073 -0.9353 -2.8980  0.5183
  551MOL0     H74382   1.705   1.637   5.004  0.3881 -1.7846  1.3361
  551MOL0     H74383   1.578   1.927   4.901 -0.9198  0.9083 -0.8302
  551MOL0     H74384   1.672   1.795   4.842 -0.2006  0.0519  2.6797
  551MOL0     H74385   1.512   1.821   4.779 -0.6247 -2.9710  0.4006
  552MOL0     O74386   7.741   6.826   4.619 -0.5282 -0.5045 -0.3606
  552MOL0     C74387   7.791   6.806   4.509 -0.6907  0.1320  0.7483
  552MOL0     O74388   7.717   6.809   4.397  0.3064 -0.4929 -0.2238
  552MOL0     C74389   7.582   6.799   4.397  0.2144 -0.3194 -0.2285
  552MOL0     C74390   7.535   6.683   4.330 -0.0265 -1.0749  0.1220
  552MOL0     C74391   7.395   6.674   4.310 -0.8312  0.4134  1.2227
  552MOL0     C74392   7.308   6.768   4.357 -0.1527 -0.0831 -0.1945
  552MOL0     O74393   7.172   6.764   4.332  0.5399  0.0648 -0.1849
  552MOL0     C74394   7.115   6.655   4.411 -0.4811 -0.5645  0.3770
  552MOL0     C74395   6.980   6.693   4.476 -0.3052  0.8370 -0.3823
  552MOL0     C74396   6.936   6.577   4.560 -0.7301 -0.2350 -0.2567
  552MOL0     C74397   6.812   6.619   4.648  0.2005  0.3507  0.2885
  552MOL0     C74398   6.725   6.498   4.675 -0.0126  1.1924 -0.5969
  552MOL0     C74399   6.610   6.533   4.767  0.6536  0.2835  0.1990
  552MOL0     C74400   6.561   6.409   4.839 -0.1390  0.4477 -0.3375
  552MOL0     C74401   6.444   6.438   4.930  0.3138  0.6346 -0.3932
  552MOL0     N74402   6.337   6.488   4.843 -0.7286  0.3815 -0.1334
  552MOL0     C74403   6.268   6.407   4.755 -0.7041  0.1957 -0.2882
  552MOL0     C74404   6.191   6.487   4.691 -0.1129  0.2383  0.5863
  552MOL0     C74405   6.067   6.447   4.615  0.0792 -0.2306  0.4024
  552MOL0     C74406   6.102   6.338   4.509  0.3189 -0.1104 -0.2286
  552MOL0     C74407   6.216   6.374   4.415  0.1203  0.2361  0.4062
  552MOL0     C74408   6.207   6.514   4.345  0.2811  0.5533  0.1988
  552MOL0     O74409   6.269   6.495   4.215  0.3336  0.1676 -0.6081
  552MOL0     C74410   6.408   6.505   4.201  0.0940  0.0481 -0.2290
  552MOL0     C74411   6.456   6.502   4.073  0.1414 -0.3097  0.8483
  552MOL0     C74412   6.587   6.504   4.036 -0.5504 -0.3896  0.5645
  552MOL0     C74413   6.686   6.505   4.134 -0.0226 -1.4014 -0.2735
  552MOL0     C74414   6.828   6.521   4.109 -0.1624  0.2460 -0.1478
  552MOL0     O74415   6.866   6.526   3.981  0.2925 -0.4470  0.7549
  552MOL0     C74416   6.993   6.563   3.945 -0.6632  0.4004  0.2462
  552MOL0     C74417   7.065   6.666   4.014 -0.5955 -0.6485 -0.4584
  552MOL0     C74418   7.202   6.680   3.987 -0.2299 -0.3534  1.3523
  552MOL0     C74419   7.253   6.629   3.874  0.0051  0.2639 -0.5302
  552MOL0     O74420   7.380   6.665   3.855 -0.7050  0.0301 -0.2768
  552MOL0     C74421   7.477   6.572   3.791  0.3422  0.6613  0.4396
  552MOL0     C74422   7.604   6.640   3.788 -0.6412 -0.7623  0.9335
  552MOL0     C74423   7.662   6.679   3.926  0.6210 -0.3131  0.6065
  552MOL0     C74424   7.737   6.568   3.984  0.1350  0.2779 -0.2035
  552MOL0     C74425   7.882   6.551   3.933 -0.9548 -0.0383  0.1290
  552MOL0     C74426   7.970   6.676   3.969  0.3668 -0.2821  0.2820
  552MOL0     C74427   8.111   6.619   3.948  0.8076  0.4349 -0.3298
  552MOL0     C74428   8.220   6.728   3.916  0.2809 -0.0773 -0.1657
  552MOL0    Cl74429   8.387   6.663   3.932  0.5392 -0.1815  0.6774
  552MOL0     C74430   7.176   6.532   3.794  0.1442 -0.6896 -1.6530
  552MOL0     C74431   7.046   6.499   3.832 -0.3004 -0.5325 -0.6177
  552MOL0     O74432   6.899   6.531   4.206 -0.9632 -0.0163 -0.6766
  552MOL0     C74433   6.633   6.506   4.269 -0.3023 -0.0189  0.0743
  552MOL0     C74434   6.498   6.506   4.305  0.1022  0.7934  0.0940
  552MOL0     N74435   6.204   6.616   4.752 -0.4617 -1.4956 -0.2265
  552MOL0     N74436   6.297   6.615   4.843 -0.8350  0.0617 -0.2886
  552MOL0     C74437   7.355   6.881   4.411 -0.5231 -0.6050  0.6358
  552MOL0     C74438   7.495   6.891   4.431 -0.6119 -0.2528  0.1950
  552MOL0     C74439   7.939   6.799   4.495  1.4879 -0.3340 -0.5869
  552MOL0     C74440   7.989   6.815   4.366  0.4002  0.5738 -0.3997
  552MOL0     C74441   8.121   6.814   4.338 -0.0464 -0.3170 -0.0856
  552MOL0     C74442   8.216   6.798   4.438 -0.5255 -0.0150 -0.4706
  552MOL0     O74443   8.359   6.802   4.424  0.2127  0.5348 -0.4131
  552MOL0     C74444   8.405   6.826   4.289  0.5132  0.0629 -0.1437
  552MOL0     C74445   8.542   6.756   4.259  0.2544  0.1365 -0.5140
  552MOL0     C74446   8.519   6.607   4.248 -0.5877 -0.2590 -0.8532
  552MOL0     C74447   8.645   6.523   4.223  0.7480  0.1224 -0.0971
  552MOL0     C74448   8.717   6.551   4.098 -0.3354  0.5307  0.1347
  552MOL0     C74449   8.774   6.565   3.991 -0.0536 -0.6401  0.5811
  552MOL0     C74450   8.174   6.780   4.565  0.3125  0.2308  0.4335
  552MOL0     C74451   8.033   6.784   4.600  0.5696  0.6305 -0.5587
  552MOL0     C74452   8.005   6.745   4.742 -0.0808  0.1727  0.1850
  552MOL0     H74453   7.605   6.609   4.294  1.4112 -0.2275  1.0503
  552MOL0     H74454   7.353   6.593   4.252 -0.4708 -0.3898  2.0649
  552MOL0     H74455   7.110   6.572   4.340  0.2010  0.1784 -0.5791
  552MOL0     H74456   7.181   6.620   4.490  1.2218 -1.9302 -1.5291
  552MOL0     H74457   6.917   6.705   4.388 -1.2287 -0.4439  0.0652
  552MOL0     H74458   6.974   6.789   4.528 -0.3816  1.6707 -1.8790
  552MOL0     H74459   7.018   6.545   4.625 -0.6477  1.3316  0.4516
  552MOL0     H74460   6.915   6.497   4.488 -2.0210  1.6893 -2.1348
  552MOL0     H74461   6.839   6.660   4.745 -2.2193 -1.5962  1.9246
  552MOL0     H74462   6.744   6.689   4.598 -2.4202 -2.3674 -0.3057
  552MOL0     H74463   6.677   6.468   4.581  0.2780 -0.6056 -0.2065
  552MOL0     H74464   6.783   6.416   4.719 -2.8188 -0.5220  0.1719
  552MOL0     H74465   6.631   6.612   4.839  0.1574 -1.8492  2.8146
  552MOL0     H74466   6.532   6.573   4.702 -1.2168  0.4051  2.4011
  552MOL0     H74467   6.639   6.376   4.907 -1.0545 -1.6575 -0.2435
  552MOL0     H74468   6.530   6.328   4.772  0.3729  1.2565 -1.5955
  552MOL0     H74469   6.407   6.351   4.985 -1.2065  2.0881  0.9673
  552MOL0     H74470   6.482   6.510   5.003  0.4063  1.4723 -1.2463
  552MOL0     H74471   6.277   6.302   4.732  2.0989  1.1296 -4.6806
  552MOL0     H74472   5.999   6.397   4.685 -0.6585 -3.3142 -2.2488
  552MOL0     H74473   6.025   6.541   4.578  0.8539 -0.6882 -1.7781
  552MOL0     H74474   6.135   6.253   4.569  0.8621 -1.4146 -2.2588
  552MOL0     H74475   6.017   6.290   4.459  0.1839 -2.0677  1.7595
  552MOL0     H74476   6.231   6.296   4.340 -3.2956  1.2643 -1.5716
  552MOL0     H74477   6.311   6.381   4.468  1.0009  1.4824 -1.2170
  552MOL0     H74478   6.255   6.589   4.409  0.5174  0.1980  0.4429
  552MOL0     H74479   6.108   6.558   4.334  1.3433  2.5287 -2.8939
  552MOL0     H74480   6.388   6.491   3.989  1.7388 -0.9964 -0.4197
  552MOL0     H74481   6.611   6.502   3.930 -1.8116 -1.5044  0.2728
  552MOL0     H74482   7.025   6.725   4.095 -0.0197  3.9764 -3.1882
  552MOL0     H74483   7.261   6.743   4.053 -0.3911  0.4669  0.7305
  552MOL0     H74484   7.489   6.474   3.838 -2.4066 -0.9339 -1.8786
  552MOL0     H74485   7.439   6.550   3.691  1.7131  3.0626 -0.7009
  552MOL0     H74486   7.684   6.587   3.735 -0.3386 -0.2030  0.8232
  552MOL0     H74487   7.587   6.733   3.734  1.3018 -2.1977 -2.4714
  552MOL0     H74488   7.723   6.768   3.910 -0.7673  0.7080  0.8271
  552MOL0     H74489   7.584   6.712   3.995 -0.6173 -2.6231  0.4061
  552MOL0     H74490   7.683   6.474   3.969 -1.1101  1.3645 -3.3969
  552MOL0     H74491   7.741   6.583   4.093 -0.0831 -2.6840  0.2938
  552MOL0     H74492   7.885   6.539   3.825 -4.2105 -2.5649  0.1562
  552MOL0     H74493   7.932   6.467   3.983 -0.5594  0.8509  1.2773
  552MOL0     H74494   7.951   6.766   3.910  3.8266  0.4904  0.1463
  552MOL0     H74495   7.961   6.704   4.074  3.9765  0.0315  0.6357
  552MOL0     H74496   8.120   6.541   3.873 -0.3778 -0.6254  0.5843
  552MOL0     H74497   8.145   6.576   4.043  1.1787 -1.3630 -1.2330
  552MOL0     H74498   8.202   6.757   3.813 -1.7910  1.4552  0.5748
  552MOL0     H74499   8.210   6.816   3.980 -3.0988  1.2265 -2.2125
  552MOL0     H74500   7.224   6.487   3.708  1.1570 -1.1688 -0.8751
  552MOL0     H74501   6.982   6.435   3.773  0.7751 -1.6377 -0.6211
  552MOL0     H74502   6.707   6.499   4.347 -0.0900  0.4794 -0.0785
  552MOL0     H74503   6.482   6.519   4.412 -0.4103  0.7967  0.0192
  552MOL0     H74504   7.272   6.945   4.437 -0.4304 -0.3237  0.2474
  552MOL0     H74505   7.541   6.983   4.466 -0.3599 -0.0393 -0.6862
  552MOL0     H74506   7.916   6.824   4.286 -1.6651  2.2697  1.5297
  552MOL0     H74507   8.147   6.827   4.233 -0.0556  1.1224  0.0620
  552MOL0     H74508   8.418   6.929   4.255 -1.7224  0.3781 -0.1971
  552MOL0     H74509   8.339   6.783   4.213  2.2302 -1.9753 -0.5817
  552MOL0     H74510   8.612   6.783   4.339  0.4933  1.8314 -1.2574
  552MOL0     H74511   8.597   6.779   4.167  1.1966 -0.8920 -0.2253
  552MOL0     H74512   8.456   6.578   4.164 -1.5303 -1.3094  0.1815
  552MOL0     H74513   8.462   6.569   4.334 -1.4953  0.8427 -0.9492
  552MOL0     H74514   8.719   6.525   4.303  0.6459  0.9972 -0.0099
  552MOL0     H74515   8.608   6.421   4.212 -0.4491  0.5761 -0.4741
  552MOL0     H74516   8.799   6.582   3.888 -2.4133  0.0659  0.0419
  552MOL0     H74517   8.249   6.765   4.642  0.4487 -2.0148 -0.0591
  552MOL0     H74518   7.986   6.638   4.749 -0.9121  0.4350  5.2667
  552MOL0     H74519   8.091   6.781   4.800 -2.5013 -0.0106  4.2471
  552MOL0     H74520   7.912   6.789   4.780  0.0866 -0.8443  1.8826
  553MOL0     O74521   9.900   6.700   3.825 -0.4305  0.5053 -0.0040
  553MOL0     C74522   9.905   6.636   3.720 -0.3027  0.0832 -0.0719
  553MOL0     O74523  10.002   6.646   3.634  0.0381  0.5545  0.7005
  553MOL0     C74524  10.121   6.721   3.647  0.4885  0.2088  0.5864
  553MOL0     C74525  10.122   6.851   3.600  0.2115 -0.6249 -0.3225
  553MOL0     C74526  10.243   6.928   3.600 -0.1020 -0.2770 -0.1378
  553MOL0     C74527  10.348   6.869   3.683 -0.1185  0.2831 -0.6790
  553MOL0     O74528  10.441   6.958   3.719  0.1082 -0.3523  0.8133
  553MOL0     C74529  10.582   6.922   3.745  0.0782  1.0150  0.8244
  553MOL0     C74530  10.674   7.048   3.725  0.7816 -0.3094 -0.8442
  553MOL0     C74531  10.818   7.008   3.695 -0.0582  0.5342  0.3211
  553MOL0     C74532  10.910   7.128   3.689  0.5378 -0.3675 -0.5983
  553MOL0     C74533  11.058   7.084   3.662  0.2398 -0.3119 -0.1529
  553MOL0     C74534  11.160   7.200   3.684 -0.3336 -0.2379 -0.1021
  553MOL0     C74535  11.295   7.150   3.625 -0.2820  0.4237  0.5262
  553MOL0     C74536  11.420   7.222   3.697 -1.3476 -0.4503 -0.5025
  553MOL0     N74537  11.548   7.166   3.652 -0.4484 -0.2131  0.3044
  553MOL0     C74538  11.589   7.034   3.655  0.3761 -0.3457  0.4933
  553MOL0     C74539  11.716   7.034   3.607  0.0255 -0.0638  0.0851
  553MOL0     C74540  11.800   6.911   3.599  0.6896 -0.7187  1.3252
  553MOL0     C74541  11.937   6.934   3.532  0.5814 -0.2852  0.3225
  553MOL0     C74542  11.930   6.908   3.379  0.1052  0.3138  0.3098
  553MOL0     C74543  12.059   6.966   3.313  0.0579 -0.0143 -0.7224
  553MOL0     O74544  12.175   6.936   3.397 -0.3279 -0.2132 -0.0879
  553MOL0     C74545  12.297   6.995   3.376 -0.1548  0.5515 -0.8449
  553MOL0     C74546  12.407   6.964   3.458  0.6366 -0.2565 -0.5224
  553MOL0     C74547  12.531   7.031   3.444  0.8168 -0.6194 -0.0590
  553MOL0     C74548  12.543   7.128   3.338  0.9217  0.3994  0.4972
  553MOL0     C74549  12.674   7.184   3.313  0.5143  0.1149  0.5900
  553MOL0     O74550  12.747   7.200   3.424 -0.1647 -0.3777  0.5058
  553MOL0     C74551  12.877   7.248   3.405 -0.0836  0.1064  0.6461
  553MOL0     C74552  12.920   7.371   3.466 -0.0776 -0.0463  0.6201
  553MOL0     C74553  13.058   7.414   3.455  0.1953 -1.0579  0.2545
  553MOL0     C74554  13.145   7.340   3.373 -0.7130 -0.3058  0.0133
  553MOL0     O74555  13.272   7.397   3.352 -0.1976 -0.5536  0.0565
  553MOL0     C74556  13.375   7.312   3.310 -0.0770  0.3773  0.1176
  553MOL0     C74557  13.509   7.390   3.302  0.1206 -0.2930 -0.4470
  553MOL0     C74558  13.508   7.519   3.211  0.6452 -0.1544 -0.3853
  553MOL0     C74559  13.523   7.483   3.063 -0.0635 -0.2389 -0.2397
  553MOL0     C74560  13.496   7.598   2.970 -0.2442 -0.8174  0.9636
  553MOL0     C74561  13.526   7.553   2.832 -0.6195  0.5620 -0.3206
  553MOL0     C74562  13.504   7.668   2.733 -0.1202 -0.2433  0.4161
  553MOL0     C74563  13.588   7.645   2.607 -0.3305 -0.0022 -0.6335
  553MOL0    Cl74564  13.510   7.505   2.523 -0.3942 -0.0936  0.5266
  553MOL0     C74565  13.104   7.211   3.324 -0.2124  0.0365  1.2216
  553MOL0     C74566  12.970   7.166   3.337 -0.1267 -0.7935 -0.0647
  553MOL0     O74567  12.699   7.217   3.201  0.0672 -0.5956  0.4300
  553MOL0     C74568  12.432   7.157   3.254 -0.6823 -0.5434 -1.0102
  553MOL0     C74569  12.312   7.094   3.279  0.3750 -0.3981 -0.6075
  553MOL0     N74570  11.742   7.156   3.549 -0.3526 -0.4019 -0.2829
  553MOL0     N74571  11.642   7.232   3.575  0.3215  0.9450 -0.3257
  553MOL0     C74572  10.342   6.738   3.740 -0.5220  0.0044  0.1957
  553MOL0     C74573  10.227   6.666   3.713  1.1881  0.8123  0.1131
  553MOL0     C74574   9.789   6.562   3.683  0.7621 -1.0123 -0.8750
  553MOL0     C74575   9.807   6.463   3.594  0.4263 -0.0148  1.1637
  553MOL0     C74576   9.708   6.374   3.560  0.5178 -0.0969  0.1534
  553MOL0     C74577   9.585   6.384   3.624 -0.2880  0.9101 -0.8432
  553MOL0     O74578   9.476   6.302   3.600 -0.2164  0.6060 -1.0696
  553MOL0     C74579   9.486   6.188   3.508  0.0259 -0.9527 -0.0838
  553MOL0     C74580   9.537   6.068   3.592  0.0244  0.2273  0.4644
  553MOL0     C74581   9.573   5.943   3.513  0.2491 -0.6400  0.3853
  553MOL0     C74582   9.696   5.934   3.436  0.7394  0.3204 -0.6802
  553MOL0     C74583   9.817   5.976   3.508 -0.3405  0.4666  0.4783
  553MOL0     C74584   9.913   6.002   3.578  0.6716  0.4307 -0.0680
  553MOL0     C74585   9.557   6.495   3.708 -0.3962  0.4992 -0.2556
  553MOL0     C74586   9.656   6.588   3.735 -0.1480  1.0426 -0.2918
  553MOL0     C74587   9.612   6.721   3.805  0.3001  0.3858 -0.2757
  553MOL0     H74588  10.025   6.880   3.560 -0.1461 -2.1184 -0.5739
  553MOL0     H74589  10.256   7.025   3.553 -0.6421  0.4838  1.2095
  553MOL0     H74590  10.592   6.880   3.845 -0.3452  0.7207  0.7465
  553MOL0     H74591  10.606   6.850   3.666 -3.1893 -1.8033  2.1442
  553MOL0     H74592  10.676   7.103   3.819  1.8259 -0.5204 -0.7350
  553MOL0     H74593  10.638   7.096   3.634 -1.1789 -0.2791 -0.1078
  553MOL0     H74594  10.825   6.949   3.603 -0.0232 -0.4270  0.9200
  553MOL0     H74595  10.856   6.934   3.766 -0.3374  1.1294  1.1087
  553MOL0     H74596  10.865   7.196   3.616 -0.7476 -0.0290  0.4550
  553MOL0     H74597  10.908   7.177   3.787 -0.7797  2.1039 -1.7573
  553MOL0     H74598  11.082   7.001   3.730 -1.8747 -0.7650  0.1163
  553MOL0     H74599  11.064   7.048   3.559  2.5804  2.2306 -1.0020
  553MOL0     H74600  11.120   7.291   3.637  0.7070  0.8576  1.0909
  553MOL0     H74601  11.169   7.219   3.791  0.6345 -0.4795 -0.1360
  553MOL0     H74602  11.301   7.165   3.517  0.7049 -0.7867  0.3927
  553MOL0     H74603  11.301   7.042   3.634  1.5268  0.6068  2.2474
  553MOL0     H74604  11.423   7.327   3.668 -2.6078 -0.8051 -2.0713
  553MOL0     H74605  11.407   7.210   3.805 -1.9996  2.2191 -0.2269
  553MOL0     H74606  11.543   6.949   3.705  0.3548 -2.0161 -2.2066
  553MOL0     H74607  11.822   6.888   3.704  1.7466 -2.1504  0.8279
  553MOL0     H74608  11.756   6.817   3.564  1.5682 -1.2927  1.7063
  553MOL0     H74609  11.977   7.035   3.544 -2.1827  1.1901 -1.7626
  553MOL0     H74610  12.000   6.852   3.569 -2.3193 -3.0202 -0.3560
  553MOL0     H74611  11.849   6.959   3.324  0.4276  1.6756  1.0572
  553MOL0     H74612  11.932   6.801   3.355  1.4656  0.1043  1.2392
  553MOL0     H74613  12.034   7.072   3.304  2.1328  0.4551 -1.6427
  553MOL0     H74614  12.070   6.925   3.212  2.1800  0.1638 -0.6018
  553MOL0     H74615  12.410   6.886   3.534  0.1717  0.3367  0.1044
  553MOL0     H74616  12.608   7.007   3.517  0.0214 -2.5272  0.2018
  553MOL0     H74617  12.859   7.423   3.539  0.7223  2.2993 -0.3052
  553MOL0     H74618  13.085   7.506   3.507 -2.3576 -1.8980  3.4126
  553MOL0     H74619  13.394   7.240   3.390  0.4602  0.4828  0.0883
  553MOL0     H74620  13.350   7.265   3.214 -0.1323 -1.3856  0.9461
  553MOL0     H74621  13.536   7.409   3.406 -0.7095  2.3262 -0.6625
  553MOL0     H74622  13.585   7.327   3.253 -0.4912 -1.7923  0.4667
  553MOL0     H74623  13.418   7.577   3.235  0.5615 -1.1290  1.9542
  553MOL0     H74624  13.597   7.576   3.240  0.4608 -1.1235  2.4069
  553MOL0     H74625  13.444   7.409   3.047 -0.9362  1.0527 -2.3049
  553MOL0     H74626  13.618   7.437   3.036  0.7627 -0.2770  2.4695
  553MOL0     H74627  13.560   7.682   2.997  2.4204 -2.4419  0.0793
  553MOL0     H74628  13.394   7.635   2.982 -0.5510 -1.4424  0.3361
  553MOL0     H74629  13.627   7.512   2.825 -1.3271 -1.0993 -1.6131
  553MOL0     H74630  13.459   7.470   2.809  0.3478 -0.8565  1.6385
  553MOL0     H74631  13.519   7.767   2.778 -1.2354  0.1237  0.0097
  553MOL0     H74632  13.397   7.656   2.709  0.1724 -2.1677 -0.1369
  553MOL0     H74633  13.581   7.733   2.542 -2.1273  0.0341 -0.4434
  553MOL0     H74634  13.691   7.627   2.638 -0.8748 -1.5228  0.3630
  553MOL0     H74635  13.154   7.167   3.239 -2.3205  1.0149 -0.6420
  553MOL0     H74636  12.945   7.071   3.291  0.2350 -1.6858  1.5201
  553MOL0     H74637  12.451   7.235   3.181  2.1868 -0.7542 -0.6158
  553MOL0     H74638  12.223   7.117   3.221  1.4639 -0.4113 -2.3674
  553MOL0     H74639  10.423   6.697   3.800 -0.2369 -0.8717 -0.7605
  553MOL0     H74640  10.225   6.563   3.749  3.5022  0.1857 -1.3256
  553MOL0     H74641   9.903   6.450   3.545 -0.2081  2.8029 -1.1285
  553MOL0     H74642   9.722   6.300   3.482 -2.2442 -0.2003 -0.3387
  553MOL0     H74643   9.550   6.201   3.421  2.1550 -1.3140  1.3455
  553MOL0     H74644   9.381   6.168   3.485 -0.6270 -0.0991  1.8850
  553MOL0     H74645   9.455   6.052   3.663 -0.3826  0.4927  0.0565
  553MOL0     H74646   9.631   6.103   3.636  1.0928  0.6635 -1.9956
  553MOL0     H74647   9.481   5.928   3.456 -0.6868 -2.2398  2.2197
  553MOL0     H74648   9.579   5.866   3.590  0.0179  0.9014  2.0201
  553MOL0     H74649   9.712   5.828   3.415  1.1783 -0.7060  3.7595
  553MOL0     H74650   9.694   5.991   3.343 -1.7560  0.8069 -0.3995
  553MOL0     H74651   9.991   6.035   3.643  1.3925  0.6250 -1.0162
  553MOL0     H74652   9.457   6.523   3.739 -1.5305 -2.9820 -0.3655
  553MOL0     H74653   9.519   6.694   3.856  1.1392 -0.7230  0.7402
  553MOL0     H74654   9.676   6.768   3.880  3.5356 -2.5101 -0.9277
  553MOL0     H74655   9.589   6.787   3.721  0.6223  3.5955  1.9731
  554MOL0     O74656   5.250   1.439  11.203  0.3473  0.4141 -0.5779
  554MOL0     C74657   5.236   1.318  11.211 -0.1140 -0.5030 -0.6414
  554MOL0     O74658   5.334   1.230  11.178  0.6981 -0.0083  0.4706
  554MOL0     C74659   5.456   1.281  11.155 -0.1665  0.1196  0.3123
  554MOL0     C74660   5.529   1.201  11.064 -0.3607 -0.5909 -0.7219
  554MOL0     C74661   5.659   1.240  11.027 -0.7796  0.8528  0.2975
  554MOL0     C74662   5.730   1.354  11.092  0.1839  0.0272 -0.9388
  554MOL0     O74663   5.864   1.385  11.066  0.4786 -0.7586 -0.7731
  554MOL0     C74664   5.955   1.365  11.172 -0.7856  0.3694  0.1163
  554MOL0     C74665   6.096   1.419  11.142  0.3325 -0.4008 -0.3497
  554MOL0     C74666   6.161   1.346  11.023 -0.7525 -0.2468  0.6600
  554MOL0     C74667   6.304   1.385  11.017 -0.0202  0.5770 -1.0685
  554MOL0     C74668   6.395   1.308  10.913  0.0800  0.2331  0.0474
  554MOL0     C74669   6.532   1.369  10.898 -0.8209 -0.0060  0.6832
  554MOL0     C74670   6.618   1.286  10.809  0.0121  0.5827 -1.0810
  554MOL0     C74671   6.727   1.374  10.749  0.3261  0.2344 -0.7808
  554MOL0     N74672   6.752   1.361  10.608 -0.3462  0.5346 -0.0213
  554MOL0     C74673   6.873   1.321  10.556 -0.3080 -0.1924  0.0176
  554MOL0     C74674   6.855   1.333  10.424 -0.1378  0.3555  0.0410
  554MOL0     C74675   6.940   1.304  10.309 -0.5698 -0.0018 -0.0664
  554MOL0     C74676   7.031   1.433  10.267 -0.5538  1.0525 -0.1510
  554MOL0     C74677   7.118   1.395  10.155  0.2565  0.4101 -0.0655
  554MOL0     C74678   7.193   1.517  10.099  1.0970  0.3362  0.1365
  554MOL0     O74679   7.269   1.595  10.182  0.1372  0.4021  0.7664
  554MOL0     C74680   7.373   1.659  10.136 -0.0468  0.5637  1.0534
  554MOL0     C74681   7.391   1.702  10.000 -0.3018  0.3565 -0.1180
  554MOL0     C74682   7.506   1.765   9.963 -0.6215  1.5743  0.2976
  554MOL0     C74683   7.615   1.776  10.055  1.2555 -0.3089  1.2961
  554MOL0     C74684   7.750   1.815  10.011  0.8251 -0.4183 -0.3526
  554MOL0     O74685   7.858   1.782  10.096  0.6322 -0.3253  0.6535
  554MOL0     C74686   7.982   1.794  10.033 -0.3984 -0.7439 -0.1105
  554MOL0     C74687   8.072   1.872  10.097 -0.4019  0.0567  0.4488
  554MOL0     C74688   8.203   1.898  10.041  0.8435  0.3536 -0.3530
  554MOL0     C74689   8.248   1.829   9.933  0.3541  0.5154 -0.5622
  554MOL0     O74690   8.376   1.854   9.874  0.2679  0.0881  0.3522
  554MOL0     C74691   8.458   1.946   9.924  1.5446  0.0056 -0.4257
  554MOL0     C74692   8.425   2.085   9.873 -0.1795 -0.7438  0.5071
  554MOL0     C74693   8.537   2.189   9.915  0.4076 -0.3570  0.1400
  554MOL0     C74694   8.560   2.196  10.068  0.4191  0.6511 -0.0863
  554MOL0     C74695   8.623   2.327  10.117 -0.0301  0.9128 -0.3811
  554MOL0     C74696   8.605   2.336  10.272 -0.2898 -0.5890 -0.2919
  554MOL0     C74697   8.669   2.459  10.337 -0.2329  0.3509  0.5289
  554MOL0     C74698   8.819   2.442  10.360  0.2563  1.0603  0.6576
  554MOL0    Cl74699   8.863   2.313  10.468  0.2747  0.2205  0.1461
  554MOL0     C74700   8.158   1.742   9.865  0.2132 -0.0686  0.3939
  554MOL0     C74701   8.024   1.728   9.913 -0.6546  0.1389 -0.7207
  554MOL0     O74702   7.751   1.872   9.899  0.4061 -0.4084 -0.2036
  554MOL0     C74703   7.591   1.732  10.185 -0.7783 -0.7053 -0.4861
  554MOL0     C74704   7.477   1.683  10.223  0.1511  0.8435 -0.7670
  554MOL0     N74705   6.733   1.390  10.400  0.1630  1.1203 -0.0638
  554MOL0     N74706   6.667   1.401  10.513 -0.4999  0.0976  0.4944
  554MOL0     C74707   5.650   1.419  11.193 -0.1102  0.6605  0.3072
  554MOL0     C74708   5.521   1.385  11.219 -0.3698  0.2977  0.5841
  554MOL0     C74709   5.097   1.272  11.265 -0.0247  0.4573  0.0711
  554MOL0     C74710   4.996   1.367  11.303 -0.4398 -0.1717  0.3119
  554MOL0     C74711   4.867   1.322  11.330  0.1426 -0.1040 -0.8028
  554MOL0     C74712   4.826   1.187  11.337 -0.2170 -0.8095  0.0489
  554MOL0     O74713   4.702   1.137  11.375 -0.2798 -0.8004 -0.6949
  554MOL0     C74714   4.605   1.233  11.425  0.5255 -0.2206 -0.4552
  554MOL0     C74715   4.471   1.166  11.444  0.5188  0.5728  0.3060
  554MOL0     C74716   4.475   1.017  11.478  0.3692 -0.7955  0.4063
  554MOL0     C74717   4.328   0.990  11.531  0.2205 -0.4810 -0.0271
  554MOL0     C74718   4.334   0.909  11.653  0.3991  0.2136 -0.0130
  554MOL0     C74719   4.327   0.842  11.754 -0.6666 -0.2078  0.3168
  554MOL0     C74720   4.930   1.098  11.322  0.9752  0.0964  0.3770
  554MOL0     C74721   5.058   1.137  11.286 -0.1319  0.7897 -0.2612
  554MOL0     C74722   5.161   1.033  11.291  0.3728 -0.1855  0.1055
  554MOL0     H74723   5.498   1.106  11.021 -2.4190 -0.1637 -0.3010
  554MOL0     H74724   5.720   1.180  10.961  3.0269  3.7569  0.7776
  554MOL0     H74725   5.914   1.392  11.270 -1.1095 -4.0854  1.4314
  554MOL0     H74726   5.974   1.259  11.190 -0.9925  0.7634  3.0674
  554MOL0     H74727   6.152   1.398  11.234 -0.8740  0.6271  0.6480
  554MOL0     H74728   6.087   1.528  11.141 -2.2077 -0.5489  0.2892
  554MOL0     H74729   6.105   1.390  10.940 -2.8318 -1.1994  1.4960
  554MOL0     H74730   6.161   1.238  11.010  0.5745 -0.0127 -1.9934
  554MOL0     H74731   6.312   1.494  11.008  0.6576  0.6904  0.5124
  554MOL0     H74732   6.345   1.368  11.117  0.9423  0.8095 -1.4054
  554MOL0     H74733   6.422   1.216  10.966 -2.9571  0.7704  2.8519
  554MOL0     H74734   6.354   1.299  10.812 -1.2433  0.2181  0.5678
  554MOL0     H74735   6.521   1.470  10.857 -0.9646  0.5411  2.0294
  554MOL0     H74736   6.581   1.376  10.995 -1.9071  3.0114  1.1051
  554MOL0     H74737   6.560   1.240  10.728 -2.8053 -1.9395  2.0624
  554MOL0     H74738   6.675   1.208  10.861  0.5644  0.3969 -1.9576
  554MOL0     H74739   6.712   1.481  10.771 -3.5776 -0.0482 -1.2885
  554MOL0     H74740   6.817   1.348  10.805  0.2381 -0.2053 -0.8383
  554MOL0     H74741   6.960   1.282  10.608 -0.5059 -1.4863 -0.5670
  554MOL0     H74742   7.011   1.223  10.327 -0.4414  0.5269  2.0363
  554MOL0     H74743   6.883   1.279  10.219 -1.6302 -2.2251  1.1543
  554MOL0     H74744   6.965   1.514  10.234 -1.3351  0.5001  0.0331
  554MOL0     H74745   7.088   1.482  10.347  4.7509 -1.3872 -1.9726
  554MOL0     H74746   7.059   1.351  10.074 -1.1498  3.8395 -1.0757
  554MOL0     H74747   7.185   1.322  10.201 -2.7690 -0.9764  2.5766
  554MOL0     H74748   7.126   1.587  10.048  2.5019 -0.0021 -2.3563
  554MOL0     H74749   7.257   1.465  10.027  3.0727  1.9697  0.6523
  554MOL0     H74750   7.313   1.682   9.927 -2.4041  0.2529  1.9987
  554MOL0     H74751   7.517   1.799   9.860 -0.8224  0.6391 -0.0460
  554MOL0     H74752   8.034   1.921  10.186  0.1819 -1.8366  1.8245
  554MOL0     H74753   8.269   1.971  10.087  3.0352 -2.0064  0.4972
  554MOL0     H74754   8.458   1.943  10.034  0.4063 -0.7710 -0.4320
  554MOL0     H74755   8.561   1.920   9.897  2.3499 -0.5184  2.7364
  554MOL0     H74756   8.427   2.073   9.764  2.1441 -0.4530  0.4599
  554MOL0     H74757   8.327   2.117   9.909 -0.9468 -1.1923 -1.1017
  554MOL0     H74758   8.637   2.166   9.879  0.7195  0.1098  0.6894
  554MOL0     H74759   8.512   2.289   9.879  0.1503 -0.8228 -1.0092
  554MOL0     H74760   8.619   2.107  10.096 -1.7735 -0.7181  0.3985
  554MOL0     H74761   8.464   2.177  10.117  1.4197  0.7275  2.0237
  554MOL0     H74762   8.571   2.406  10.063 -0.3569  0.6732 -0.4202
  554MOL0     H74763   8.730   2.332  10.092  0.1490 -1.3838 -0.2713
  554MOL0     H74764   8.497   2.344  10.292 -0.5799  0.5267 -2.0902
  554MOL0     H74765   8.655   2.247  10.311 -0.4455 -0.7103 -0.3706
  554MOL0     H74766   8.629   2.474  10.437  0.9400  2.7209  0.6977
  554MOL0     H74767   8.643   2.549  10.281 -1.5663 -0.8931 -0.9874
  554MOL0     H74768   8.856   2.427  10.258 -1.5685  0.3918  0.0370
  554MOL0     H74769   8.861   2.537  10.392  1.3427  1.8207 -2.6387
  554MOL0     H74770   8.186   1.686   9.776  0.5645  0.1332  0.3760
  554MOL0     H74771   7.961   1.654   9.867  0.2724 -2.1809  1.5032
  554MOL0     H74772   7.665   1.763  10.258  0.3653  0.2577 -1.9996
  554MOL0     H74773   7.471   1.648  10.326 -0.5433  0.7889 -0.8190
  554MOL0     H74774   5.699   1.504  11.240 -2.1399  0.7187  2.5193
  554MOL0     H74775   5.463   1.447  11.286 -4.2949 -3.0075  0.6796
  554MOL0     H74776   5.011   1.474  11.290  0.5072 -0.0267  2.2422
  554MOL0     H74777   4.800   1.403  11.358 -0.0572  0.0535 -1.7047
  554MOL0     H74778   4.596   1.317  11.355 -0.2701 -0.1917 -0.3262
  554MOL0     H74779   4.643   1.265  11.523  2.3325 -3.4097  0.0087
  554MOL0     H74780   4.429   1.171  11.344  3.0169  0.5970 -0.8179
  554MOL0     H74781   4.426   1.222  11.527  1.2396  0.6223  0.6724
  554MOL0     H74782   4.544   0.988  11.558 -1.9941  0.1957  2.9723
  554MOL0     H74783   4.501   0.948  11.397 -2.7369 -2.1124  0.3938
  554MOL0     H74784   4.263   1.072  11.564  1.4644  0.0911  1.0838
  554MOL0     H74785   4.276   0.935  11.452 -3.8423  3.0508 -0.1634
  554MOL0     H74786   4.320   0.769  11.833 -0.6261 -1.2477 -0.6051
  554MOL0     H74787   4.902   0.995  11.347  1.3511 -0.3954 -1.1344
  554MOL0     H74788   5.204   1.005  11.195  1.4561 -2.0442  1.0680
  554MOL0     H74789   5.240   1.070  11.357 -1.1774  0.4344  1.7243
  554MOL0     H74790   5.127   0.947  11.350 -1.6072 -0.9854 -2.0869
  555MOL0     O74791   6.542  10.603   2.646  0.3528  0.8016  0.2959
  555MOL0     C74792   6.563  10.726   2.657 -0.2894  0.2967  0.6815
  555MOL0     O74793   6.474  10.806   2.718  0.8093 -0.5574 -0.5350
  555MOL0     C74794   6.340  10.761   2.724  0.7528  0.3110 -0.4020
  555MOL0     C74795   6.258  10.800   2.613 -1.2052  0.4167  0.2793
  555MOL0     C74796   6.124  10.776   2.633 -0.0524  0.4849  0.5281
  555MOL0     C74797   6.064  10.713   2.736  0.6477 -0.1032  1.0081
  555MOL0     O74798   5.934  10.673   2.725 -0.2970  0.8839  0.4228
  555MOL0     C74799   5.865  10.629   2.845 -0.1772 -0.3819  0.6217
  555MOL0     C74800   5.715  10.658   2.815  0.4204  0.2329  0.4224
  555MOL0     C74801   5.662  10.760   2.919  0.0287  0.2882 -0.0261
  555MOL0     C74802   5.512  10.770   2.914 -0.8748 -0.2432 -0.4100
  555MOL0     C74803   5.466  10.872   3.027 -0.5922  0.6865 -0.3412
  555MOL0     C74804   5.507  11.008   3.001 -0.7899 -1.0744 -0.8258
  555MOL0     C74805   5.461  11.105   3.116 -0.1702  0.6467  0.4206
  555MOL0     C74806   5.515  11.247   3.104 -0.2062 -0.0742  0.0470
  555MOL0     N74807   5.657  11.260   3.131 -0.0069  0.6608 -0.0424
  555MOL0     C74808   5.733  11.343   3.056 -0.3904 -0.1027 -0.5108
  555MOL0     C74809   5.847  11.356   3.137  0.6740  0.9479 -1.2913
  555MOL0     C74810   5.949  11.452   3.102  0.6130  0.6511  0.2863
  555MOL0     C74811   5.903  11.591   3.148  0.0355 -0.6688  0.9508
  555MOL0     C74812   5.870  11.600   3.297  0.3785  0.4083  0.2399
  555MOL0     C74813   5.976  11.560   3.404 -0.1216  0.5314  0.3451
  555MOL0     O74814   6.085  11.646   3.370 -0.5864  0.5260  0.1727
  555MOL0     C74815   6.191  11.587   3.310 -0.0903  0.4295  0.1209
  555MOL0     C74816   6.254  11.473   3.361  0.7257  0.0537  0.0530
  555MOL0     C74817   6.371  11.438   3.308 -0.6627  0.6196 -0.4058
  555MOL0     C74818   6.435  11.514   3.208  0.0733  0.5991 -0.4166
  555MOL0     C74819   6.566  11.479   3.157 -0.2818  1.0395 -0.8799
  555MOL0     O74820   6.625  11.360   3.204  0.1551 -0.6025  0.1259
  555MOL0     C74821   6.764  11.345   3.194  1.0146 -0.1192 -0.2353
  555MOL0     C74822   6.819  11.239   3.121  0.1128 -0.5683  0.1236
  555MOL0     C74823   6.958  11.227   3.108  1.0830 -0.0836  0.4575
  555MOL0     C74824   7.044  11.317   3.174 -0.3782 -0.0398  1.0291
  555MOL0     O74825   7.185  11.308   3.177 -0.5464  0.8259  0.1353
  555MOL0     C74826   7.251  11.184   3.122  0.1987 -0.5992 -0.0881
  555MOL0     C74827   7.219  11.072   3.219 -1.0676  0.9368 -0.2881
  555MOL0     C74828   7.305  10.945   3.206  0.2216  0.5879 -0.3148
  555MOL0     C74829   7.314  10.912   3.060 -0.4239  0.2858  0.4888
  555MOL0     C74830   7.387  10.781   3.039 -0.2040  0.3885 -0.0880
  555MOL0     C74831   7.542  10.785   3.052  0.6843  0.6285 -0.2471
  555MOL0     C74832   7.618  10.897   2.972 -1.1783  0.0225  0.6047
  555MOL0     C74833   7.752  10.932   3.046 -0.1276 -0.2003  1.0198
  555MOL0    Cl74834   7.832  11.079   2.988 -0.1492  0.0977  0.3600
  555MOL0     C74835   6.996  11.426   3.241  0.9175  0.2273  0.2479
  555MOL0     C74836   6.853  11.437   3.251 -0.5786 -0.0200 -0.1412
  555MOL0     O74837   6.622  11.567   3.094  0.7307  0.7516 -0.1291
  555MOL0     C74838   6.363  11.610   3.144 -0.4336 -0.1966 -0.7374
  555MOL0     C74839   6.240  11.650   3.196  0.4347  0.4153 -0.6651
  555MOL0     N74840   5.833  11.266   3.246 -0.6336  0.0032 -0.4834
  555MOL0     N74841   5.722  11.201   3.236 -0.6969  0.2991 -0.5236
  555MOL0     C74842   6.155  10.670   2.835  0.8028  0.0986 -0.1055
  555MOL0     C74843   6.292  10.692   2.836 -0.6130 -0.3270 -0.1248
  555MOL0     C74844   6.695  10.776   2.632 -0.3218 -0.8685  0.6098
  555MOL0     C74845   6.745  10.879   2.718  0.1958  0.3088 -0.3076
  555MOL0     C74846   6.871  10.942   2.689 -0.0040  0.5986 -0.7405
  555MOL0     C74847   6.948  10.896   2.587 -0.0378 -1.0029  0.7675
  555MOL0     O74848   7.088  10.928   2.578 -0.0593  0.8392  0.6242
  555MOL0     C74849   7.157  11.001   2.677 -0.4464 -0.1002 -0.2961
  555MOL0     C74850   7.317  10.991   2.666  1.0069  0.4637 -0.0020
  555MOL0     C74851   7.365  11.049   2.536  0.0153 -0.0942 -0.3338
  555MOL0     C74852   7.453  11.168   2.566 -0.5002  0.2999 -0.3046
  555MOL0     C74853   7.580  11.129   2.629  0.1126  0.3723  0.7630
  555MOL0     C74854   7.684  11.080   2.682  0.5958  0.3756  0.9038
  555MOL0     C74855   6.901  10.796   2.503 -0.7270 -0.1171  0.2003
  555MOL0     C74856   6.779  10.735   2.531 -0.3955  1.0084  0.0152
  555MOL0     C74857   6.732  10.625   2.440 -1.0576  0.5725  0.6184
  555MOL0     H74858   6.293  10.849   2.523  1.1435 -0.7518  0.4941
  555MOL0     H74859   6.069  10.790   2.540  0.5971  0.4995  0.1450
  555MOL0     H74860   5.882  10.523   2.864  0.6425 -0.3150  0.2942
  555MOL0     H74861   5.905  10.684   2.930  1.3020 -2.7258  1.5463
  555MOL0     H74862   5.662  10.565   2.836  0.6702 -0.0047  0.0076
  555MOL0     H74863   5.698  10.694   2.713 -1.3436 -1.2272  0.1539
  555MOL0     H74864   5.719  10.853   2.905  2.0576 -1.0186 -0.9628
  555MOL0     H74865   5.695  10.735   3.020  0.8849  3.0529  0.4641
  555MOL0     H74866   5.482  10.804   2.815 -3.0205  0.5095  0.4369
  555MOL0     H74867   5.476  10.667   2.922  0.9444 -1.0125 -1.5275
  555MOL0     H74868   5.356  10.873   3.031 -0.6331  1.0384 -1.4693
  555MOL0     H74869   5.495  10.839   3.128 -2.3942  3.3883  1.2012
  555MOL0     H74870   5.616  11.015   3.002 -0.6818 -2.4993 -1.2415
  555MOL0     H74871   5.483  11.049   2.903  1.9165  2.0463 -0.3495
  555MOL0     H74872   5.490  11.070   3.215 -0.2458  1.8656  0.8959
  555MOL0     H74873   5.352  11.109   3.103 -0.4965 -0.9194  2.2427
  555MOL0     H74874   5.486  11.287   3.007  0.3530 -1.9781 -0.9413
  555MOL0     H74875   5.454  11.298   3.179 -1.7227 -0.9471 -0.5500
  555MOL0     H74876   5.709  11.399   2.966  0.9746  1.7003  0.1838
  555MOL0     H74877   6.039  11.426   3.157 -1.5375  0.9207  4.3353
  555MOL0     H74878   5.960  11.449   2.994  0.4620  0.1246  0.2856
  555MOL0     H74879   5.987  11.656   3.122  0.1877 -1.2549 -0.0862
  555MOL0     H74880   5.811  11.621   3.097  0.1121 -0.0655  1.1607
  555MOL0     H74881   5.785  11.533   3.311 -1.5487  1.9362 -3.1584
  555MOL0     H74882   5.832  11.696   3.333  0.8656 -0.4517  3.4300
  555MOL0     H74883   6.006  11.455   3.406  1.0543  0.8708  2.0436
  555MOL0     H74884   5.928  11.577   3.500 -1.9407  0.0238 -0.4251
  555MOL0     H74885   6.216  11.425   3.451 -0.8368  1.5886  0.2571
  555MOL0     H74886   6.423  11.356   3.357 -0.3362  2.9885  3.5734
  555MOL0     H74887   6.754  11.172   3.065 -1.0777  1.7307 -1.4394
  555MOL0     H74888   7.009  11.160   3.040  0.9729  0.6258 -0.3280
  555MOL0     H74889   7.215  11.171   3.019  3.2705  1.1897 -1.5179
  555MOL0     H74890   7.359  11.198   3.118  0.1558 -0.4051 -0.6576
  555MOL0     H74891   7.246  11.108   3.319 -0.3773 -1.4943  0.4550
  555MOL0     H74892   7.113  11.045   3.214 -0.9680  0.5164 -0.1251
  555MOL0     H74893   7.403  10.976   3.246  0.6073 -1.2537  0.2502
  555MOL0     H74894   7.272  10.864   3.271 -0.4230 -0.4805 -1.9203
  555MOL0     H74895   7.370  10.991   3.010  1.3888 -3.2729 -3.8289
  555MOL0     H74896   7.211  10.905   3.021 -0.0206  0.9282 -0.7490
  555MOL0     H74897   7.368  10.735   2.942 -1.1402  1.8096 -0.6068
  555MOL0     H74898   7.332  10.711   3.102 -3.0952 -0.3567 -3.1452
  555MOL0     H74899   7.568  10.786   3.158 -2.3882  1.4898  0.5994
  555MOL0     H74900   7.556  10.689   3.001 -2.0233  2.1372 -4.3728
  555MOL0     H74901   7.562  10.992   2.973  0.5540  1.1386  2.9926
  555MOL0     H74902   7.647  10.866   2.872  0.6307  2.8783  0.1369
  555MOL0     H74903   7.732  10.953   3.152 -2.6520 -0.6045  0.6982
  555MOL0     H74904   7.818  10.846   3.035 -1.6494 -1.3995  0.8770
  555MOL0     H74905   7.067  11.488   3.295  0.9730 -0.4466  0.9742
  555MOL0     H74906   6.803  11.512   3.311  1.5360  0.9409  0.5071
  555MOL0     H74907   6.407  11.661   3.058  0.4980 -1.7443 -1.2254
  555MOL0     H74908   6.197  11.744   3.166  2.1508  1.9008  1.2111
  555MOL0     H74909   6.121  10.600   2.911 -1.0904  2.0029  0.9029
  555MOL0     H74910   6.353  10.650   2.915 -0.4944  0.9440  0.4872
  555MOL0     H74911   6.690  10.903   2.808 -2.3150 -0.7728 -1.4462
  555MOL0     H74912   6.907  11.016   2.760  1.2394 -2.0514  1.5813
  555MOL0     H74913   7.123  10.967   2.775 -0.4492  0.3933 -0.1257
  555MOL0     H74914   7.126  11.106   2.677  2.5189  0.9112  2.0333
  555MOL0     H74915   7.338  10.884   2.666  1.5368  0.5634 -0.2002
  555MOL0     H74916   7.367  11.032   2.754  0.0481 -0.5450  1.0395
  555MOL0     H74917   7.280  11.076   2.472  0.3360 -1.6200 -1.4509
  555MOL0     H74918   7.420  10.976   2.478 -0.3726 -1.5876  1.1124
  555MOL0     H74919   7.468  11.228   2.475 -0.6802  2.8406  1.2403
  555MOL0     H74920   7.403  11.239   2.633  1.7976  1.5583  0.2018
  555MOL0     H74921   7.773  11.038   2.723  0.7110  3.0893  3.7854
  555MOL0     H74922   6.960  10.773   2.415 -2.1669 -2.4191 -0.2468
  555MOL0     H74923   6.788  10.627   2.346 -1.4604  1.0443  0.3814
  555MOL0     H74924   6.736  10.531   2.495  1.0456 -0.2033 -0.7622
  555MOL0     H74925   6.628  10.635   2.409 -0.6336  0.9084 -0.7467
  556MOL0     O74926   7.841   2.380   9.173  0.1947  0.5273 -0.4070
  556MOL0     C74927   7.781   2.292   9.235 -0.6434 -0.0592  0.4152
  556MOL0     O74928   7.816   2.162   9.244 -0.1050  0.2718 -0.0917
  556MOL0     C74929   7.896   2.088   9.160  0.6645  0.2439  0.6230
  556MOL0     C74930   7.978   1.986   9.209 -0.1640  0.4393  0.2219
  556MOL0     C74931   8.075   1.932   9.126 -0.5744  0.1768 -0.6114
  556MOL0     C74932   8.090   1.976   8.997  0.0319  0.2469  0.5491
  556MOL0     O74933   8.174   1.923   8.902  0.3333  0.0026  0.0078
  556MOL0     C74934   8.308   1.907   8.942  0.0496 -1.0091 -0.1842
  556MOL0     C74935   8.396   1.942   8.815  0.2576 -0.6494 -0.2563
  556MOL0     C74936   8.372   1.859   8.692  0.8194 -0.3017  1.1999
  556MOL0     C74937   8.446   1.898   8.566  0.3823 -0.2054 -0.6297
  556MOL0     C74938   8.602   1.878   8.564  0.3270  0.5742  0.7353
  556MOL0     C74939   8.636   1.723   8.589 -0.4411  0.0500  0.2682
  556MOL0     C74940   8.781   1.685   8.576  0.2409 -0.3788  0.1479
  556MOL0     C74941   8.826   1.709   8.437  0.3111 -0.4968  1.1797
  556MOL0     N74942   8.964   1.701   8.432 -0.0542  0.4466 -0.0759
  556MOL0     C74943   9.044   1.806   8.466 -0.1578  0.1333  0.0140
  556MOL0     C74944   9.167   1.747   8.460  0.2611 -0.3343  0.9338
  556MOL0     C74945   9.292   1.818   8.484 -0.1568  0.7290 -0.0298
  556MOL0     C74946   9.414   1.736   8.448  0.2380  0.1837 -0.0977
  556MOL0     C74947   9.428   1.722   8.288  0.4089  0.6620 -0.1539
  556MOL0     C74948   9.574   1.680   8.260  0.1668 -0.6420 -0.3610
  556MOL0     O74949   9.626   1.585   8.357  0.1684  0.4166 -0.4169
  556MOL0     C74950   9.762   1.572   8.367  0.5888 -0.0099  0.0072
  556MOL0     C74951   9.855   1.647   8.295 -0.3849  0.4921 -0.4154
  556MOL0     C74952   9.988   1.611   8.305 -0.9486  0.5774  0.6219
  556MOL0     C74953  10.020   1.496   8.378 -1.3229  0.0017  0.8439
  556MOL0     C74954  10.164   1.452   8.373 -0.5013  0.0436  0.2163
  556MOL0     O74955  10.199   1.332   8.439 -0.0191  0.4908  0.0581
  556MOL0     C74956  10.331   1.295   8.457 -0.5165 -0.5054  0.3687
  556MOL0     C74957  10.451   1.341   8.400  0.0684 -0.4651 -1.3628
  556MOL0     C74958  10.569   1.295   8.432  0.4740 -0.0071 -0.3305
  556MOL0     C74959  10.584   1.209   8.543  0.8177 -0.0589  0.0113
  556MOL0     O74960  10.705   1.161   8.585 -0.2119  0.3533 -0.2616
  556MOL0     C74961  10.829   1.195   8.527  0.5733  0.0628  0.8839
  556MOL0     C74962  10.875   1.328   8.580  0.1173  0.6600  0.1919
  556MOL0     C74963  11.022   1.352   8.540  0.2610  0.8886 -0.0252
  556MOL0     C74964  11.070   1.490   8.585 -0.1858  0.4258  0.3590
  556MOL0     C74965  11.212   1.519   8.508  0.6413  0.0957  0.1678
  556MOL0     C74966  11.275   1.638   8.572 -0.0491 -0.5899 -0.6921
  556MOL0     C74967  11.411   1.678   8.499  0.6131 -0.1389 -0.7279
  556MOL0     C74968  11.517   1.569   8.484 -0.4754 -0.4621 -0.5744
  556MOL0    Cl74969  11.551   1.449   8.623  0.1273 -0.1760 -0.3710
  556MOL0     C74970  10.470   1.161   8.606 -0.2723  0.8940 -0.1247
  556MOL0     C74971  10.345   1.203   8.559  0.4604 -0.2017 -0.0812
  556MOL0     O74972  10.248   1.525   8.316  0.8448  0.2957  0.3375
  556MOL0     C74973   9.929   1.432   8.457 -0.6963 -0.6695 -0.2933
  556MOL0     C74974   9.793   1.469   8.448 -0.4853  1.0046  0.0141
  556MOL0     N74975   9.159   1.622   8.406 -0.3579 -0.4086 -0.0742
  556MOL0     N74976   9.030   1.588   8.393 -0.2354 -0.4293 -1.8866
  556MOL0     C74977   8.013   2.077   8.946  0.2029  0.8939  1.1211
  556MOL0     C74978   7.915   2.130   9.027  0.6917  0.0698  0.4925
  556MOL0     C74979   7.663   2.334   9.299  0.3119 -0.2194 -1.6018
  556MOL0     C74980   7.652   2.466   9.348 -0.7600  0.0150 -0.4195
  556MOL0     C74981   7.540   2.507   9.418 -0.6275  0.2722  0.2179
  556MOL0     C74982   7.430   2.420   9.444  0.6780 -0.3214 -0.6902
  556MOL0     O74983   7.306   2.451   9.499  0.0013  0.3145  1.0801
  556MOL0     C74984   7.283   2.591   9.523  0.2882  0.5105 -0.5633
  556MOL0     C74985   7.369   2.644   9.645  0.5681  0.5553 -0.6381
  556MOL0     C74986   7.304   2.778   9.677  0.3435 -1.3545  0.4937
  556MOL0     C74987   7.384   2.903   9.635 -0.2249  0.3472 -0.5062
  556MOL0     C74988   7.442   2.895   9.497 -0.8100  0.2430 -0.7865
  556MOL0     C74989   7.505   2.887   9.389  0.2636 -0.1416 -0.1143
  556MOL0     C74990   7.442   2.295   9.400  0.3920  0.0578  0.0473
  556MOL0     C74991   7.557   2.247   9.333 -0.1347  0.0579 -0.6889
  556MOL0     C74992   7.549   2.105   9.269  0.3934  0.3217  0.0233
  556MOL0     H74993   7.963   1.949   9.310  1.3685  1.3161  0.8234
  556MOL0     H74994   8.149   1.862   9.164 -0.3605  0.3742 -0.6592
  556MOL0     H74995   8.343   1.966   9.028  0.6732 -1.0705 -0.3884
  556MOL0     H74996   8.338   1.805   8.966  0.9073 -0.2954  2.0489
  556MOL0     H74997   8.497   1.932   8.856  0.3670 -0.0656 -0.3746
  556MOL0     H74998   8.372   2.043   8.783 -3.4217 -1.1469  0.5218
  556MOL0     H74999   8.268   1.865   8.657  1.2141  0.4814  0.0978
  556MOL0     H75000   8.394   1.754   8.711 -2.2912 -1.2171  0.3936
  556MOL0     H75001   8.408   1.839   8.482  1.2121  1.6540 -2.4088
  556MOL0     H75002   8.414   1.997   8.533  2.2078 -0.1501 -2.4229
  556MOL0     H75003   8.634   1.911   8.465  1.6383  0.9458  1.2630
  556MOL0     H75004   8.665   1.934   8.633 -0.7466  0.2023  2.0705
  556MOL0     H75005   8.597   1.696   8.687 -0.2309  1.9455  0.9200
  556MOL0     H75006   8.582   1.663   8.514  0.7581  0.5880 -1.0702
  556MOL0     H75007   8.795   1.583   8.614  1.3472 -1.1956 -2.2541
  556MOL0     H75008   8.833   1.758   8.638  1.1476 -0.2142 -0.7783
  556MOL0     H75009   8.787   1.644   8.359  0.7678 -0.9501  1.3204
  556MOL0     H75010   8.802   1.807   8.397  0.0933 -1.4627 -1.2041
  556MOL0     H75011   9.018   1.904   8.504 -0.8057 -0.4974  1.2497
  556MOL0     H75012   9.288   1.917   8.437 -2.8256  2.7753  3.9283
  556MOL0     H75013   9.311   1.843   8.588  2.6380 -0.8467 -0.0479
  556MOL0     H75014   9.500   1.798   8.476 -0.0429  0.4988  0.0621
  556MOL0     H75015   9.422   1.641   8.501  2.4736  0.8330  0.8670
  556MOL0     H75016   9.402   1.813   8.234 -1.6430  0.3781  0.2797
  556MOL0     H75017   9.370   1.640   8.245 -2.4617  1.8887  1.1218
  556MOL0     H75018   9.630   1.774   8.266  1.8991 -1.5253 -1.7398
  556MOL0     H75019   9.582   1.647   8.156 -2.1667 -0.1469 -0.7516
  556MOL0     H75020   9.827   1.735   8.236 -0.2474 -0.0767 -1.3561
  556MOL0     H75021  10.063   1.674   8.257  0.3702  0.4176  2.4132
  556MOL0     H75022  10.457   1.416   8.321  0.7807  0.4637 -0.4553
  556MOL0     H75023  10.659   1.335   8.387  0.4280 -2.7603 -3.2878
  556MOL0     H75024  10.905   1.119   8.546  1.0916  0.2232 -0.4095
  556MOL0     H75025  10.812   1.194   8.419 -0.8292 -0.9541  1.0811
  556MOL0     H75026  10.806   1.405   8.544  0.6082  0.3795 -1.4546
  556MOL0     H75027  10.866   1.311   8.688 -0.8306 -0.9180 -0.0945
  556MOL0     H75028  11.077   1.269   8.586  2.0271  0.2581 -3.0509
  556MOL0     H75029  11.025   1.348   8.431  1.0721 -0.4052  0.0308
  556MOL0     H75030  11.084   1.484   8.694  2.5147 -1.9896  0.0107
  556MOL0     H75031  10.999   1.566   8.552  1.3184  0.7949 -2.2853
  556MOL0     H75032  11.191   1.543   8.403  0.7178  0.5733  0.2578
  556MOL0     H75033  11.280   1.434   8.509  0.1461 -0.3580 -1.5654
  556MOL0     H75034  11.200   1.718   8.566 -0.0382 -0.4777  0.4375
  556MOL0     H75035  11.290   1.625   8.679  2.6977  1.5395 -0.6856
  556MOL0     H75036  11.442   1.764   8.560 -0.1411  2.0316 -3.2013
  556MOL0     H75037  11.383   1.716   8.400 -1.9928 -2.5686 -1.0315
  556MOL0     H75038  11.494   1.500   8.403  3.3347 -1.5083 -0.9441
  556MOL0     H75039  11.616   1.611   8.468  0.7169 -2.3073  1.3734
  556MOL0     H75040  10.485   1.081   8.678  3.5442  2.0328  0.6067
  556MOL0     H75041  10.263   1.167   8.620  1.6824 -1.0090  1.1526
  556MOL0     H75042   9.950   1.352   8.528 -1.7482 -1.9344 -1.3582
  556MOL0     H75043   9.708   1.416   8.491  0.3509 -0.1575  0.2726
  556MOL0     H75044   8.025   2.120   8.848 -2.0835  0.3029  0.5099
  556MOL0     H75045   7.861   2.209   8.975  1.1394  1.3212  1.8410
  556MOL0     H75046   7.724   2.547   9.341 -0.0873 -0.6798 -2.5828
  556MOL0     H75047   7.544   2.612   9.445  1.0212 -0.0948  1.6049
  556MOL0     H75048   7.174   2.596   9.530  0.3499  2.7080 -0.6428
  556MOL0     H75049   7.313   2.648   9.434  1.9415 -1.2764 -1.2290
  556MOL0     H75050   7.476   2.658   9.632  0.7476  2.1814  1.8545
  556MOL0     H75051   7.350   2.570   9.724 -3.2700  1.1469 -0.8014
  556MOL0     H75052   7.286   2.784   9.784 -3.7357 -3.3060  0.0930
  556MOL0     H75053   7.201   2.781   9.641  0.9677 -2.3709 -1.5500
  556MOL0     H75054   7.314   2.985   9.653 -0.0753 -0.1980  3.3200
  556MOL0     H75055   7.467   2.921   9.704 -1.0419 -3.7901  1.9093
  556MOL0     H75056   7.552   2.891   9.293  1.2720  1.4599  0.4069
  556MOL0     H75057   7.363   2.222   9.417  0.1630  0.2387 -0.2452
  556MOL0     H75058   7.612   2.041   9.331  2.8180  2.0225 -0.4947
  556MOL0     H75059   7.449   2.061   9.267 -0.2368  1.7084 -0.3356
  556MOL0     H75060   7.584   2.111   9.166  1.7281  0.4336  0.4635
  557MOL0     O75061  10.600   2.405   1.949  0.3820 -1.0962 -0.6593
  557MOL0     C75062  10.699   2.405   1.880  0.3027 -0.8131  0.0966
  557MOL0     O75063  10.733   2.315   1.787  0.8078 -0.2451 -0.2072
  557MOL0     C75064  10.653   2.206   1.783  0.6242  0.5539 -0.4347
  557MOL0     C75065  10.544   2.196   1.698 -0.1266 -0.3249  0.0687
  557MOL0     C75066  10.457   2.087   1.709 -0.1965 -0.4600 -0.7342
  557MOL0     C75067  10.469   2.000   1.812 -0.3591 -0.0253 -1.0759
  557MOL0     O75068  10.385   1.890   1.805  1.4560  0.4700 -0.6129
  557MOL0     C75069  10.442   1.757   1.831 -0.2171  0.6636 -0.3051
  557MOL0     C75070  10.363   1.653   1.763  0.3054 -0.0450 -0.2455
  557MOL0     C75071  10.307   1.700   1.629  0.0779  1.2474  0.2582
  557MOL0     C75072  10.241   1.590   1.544  1.5337  0.9832  0.4020
  557MOL0     C75073  10.177   1.625   1.412  0.2212  0.2520  0.1872
  557MOL0     C75074  10.156   1.493   1.333 -0.3333 -0.2238 -0.9822
  557MOL0     C75075  10.073   1.528   1.208  0.1334 -0.0553 -0.5536
  557MOL0     C75076  10.026   1.403   1.138  0.5318 -0.2668 -0.0523
  557MOL0     N75077  10.151   1.323   1.097  0.4419 -0.7807 -0.6585
  557MOL0     C75078  10.207   1.208   1.150 -0.0562 -0.0401  0.5346
  557MOL0     C75079  10.306   1.181   1.061  0.0453 -0.8369  0.2403
  557MOL0     C75080  10.389   1.057   1.055  0.1458 -0.6657 -0.0873
  557MOL0     C75081  10.324   0.920   1.088  0.6655  0.0382  0.8656
  557MOL0     C75082  10.222   0.887   0.981  1.4063  1.2318 -0.2296
  557MOL0     C75083  10.141   0.756   1.010  0.6772 -0.3451  0.1964
  557MOL0     O75084  10.026   0.735   0.932 -0.5531 -0.0680  0.2232
  557MOL0     C75085   9.956   0.625   0.964  0.4416  0.2181  0.5318
  557MOL0     C75086  10.012   0.510   1.026 -0.4322  0.6760 -0.6701
  557MOL0     C75087   9.934   0.394   1.037  0.6102  0.5107 -0.2851
  557MOL0     C75088   9.797   0.392   1.002 -0.4223  0.0483 -0.0598
  557MOL0     C75089   9.710   0.278   1.033 -0.0837 -0.9969 -0.6975
  557MOL0     O75090   9.580   0.293   0.981 -0.1638 -0.5348 -0.1543
  557MOL0     C75091   9.490   0.196   0.997 -0.6394  0.3687 -0.1045
  557MOL0     C75092   9.364   0.230   1.024 -0.2822  0.0708  0.0999
  557MOL0     C75093   9.267   0.134   1.051  0.7434 -0.1372  0.0141
  557MOL0     C75094   9.281   0.000   1.019 -0.9217  0.6773 -0.7798
  557MOL0     O75095   9.174  -0.081   1.041  0.1913 -0.7421  0.0908
  557MOL0     C75096   9.186  -0.218   0.997 -0.6681  0.9401  0.3651
  557MOL0     C75097   9.052  -0.292   1.020  0.8379  0.8480  0.0906
  557MOL0     C75098   8.935  -0.255   0.932  0.5072 -0.5092  0.2645
  557MOL0     C75099   8.794  -0.238   0.998  0.1754  0.1291 -0.6111
  557MOL0     C75100   8.699  -0.324   0.916  0.6725  0.7829  0.5684
  557MOL0     C75101   8.557  -0.340   0.980  0.0233  0.2725 -0.2100
  557MOL0     C75102   8.554  -0.416   1.118  0.1923  0.5430  0.5765
  557MOL0     C75103   8.419  -0.485   1.141 -0.2570  0.9585 -0.5661
  557MOL0    Cl75104   8.269  -0.384   1.125 -0.0026 -0.6286  0.1733
  557MOL0     C75105   9.410  -0.041   0.981 -0.3166 -0.0078  0.0648
  557MOL0     C75106   9.514   0.058   0.974 -0.4348 -0.0733 -0.4294
  557MOL0     O75107   9.748   0.205   1.126 -1.1077 -0.3252 -0.1809
  557MOL0     C75108   9.743   0.506   0.939 -0.3425  0.0143 -0.2214
  557MOL0     C75109   9.825   0.619   0.916  0.6088 -0.5437  0.0123
  557MOL0     N75110  10.321   1.287   0.972 -0.1024 -0.1137  0.0926
  557MOL0     N75111  10.225   1.371   0.997  0.5232  0.1424 -0.6738
  557MOL0     C75112  10.560   2.027   1.917 -0.8384  1.2062  0.4839
  557MOL0     C75113  10.657   2.121   1.901 -0.4597 -1.5996  0.4398
  557MOL0     C75114  10.788   2.522   1.890 -0.4362 -0.4666 -0.2207
  557MOL0     C75115  10.722   2.642   1.910 -0.9736  0.2169 -0.5716
  557MOL0     C75116  10.791   2.751   1.961 -0.6321  0.3071 -0.1547
  557MOL0     C75117  10.936   2.747   1.956  0.9020  0.0760 -0.2294
  557MOL0     O75118  10.998   2.861   1.985  0.3220 -0.1179 -0.1978
  557MOL0     C75119  11.133   2.882   1.947  0.1894 -0.3168 -0.3427
  557MOL0     C75120  11.164   3.029   1.996 -0.3215 -0.3947  0.4835
  557MOL0     C75121  11.114   3.141   1.900 -0.7368  0.2470 -0.3366
  557MOL0     C75122  10.989   3.123   1.818  0.1423  0.4475  0.2229
  557MOL0     C75123  10.957   3.240   1.742  0.2714 -0.0415 -0.2191
  557MOL0     C75124  10.928   3.341   1.682 -0.2972 -1.3544 -0.1252
  557MOL0     C75125  10.996   2.624   1.941  0.1605 -0.4762 -0.5851
  557MOL0     C75126  10.924   2.511   1.916  0.1189  1.0817  0.5349
  557MOL0     C75127  11.011   2.380   1.897  0.5677 -0.0221  0.0692
  557MOL0     H75128  10.512   2.282   1.640  3.5210  0.6563 -0.7357
  557MOL0     H75129  10.372   2.074   1.643 -0.4345  2.6924 -1.1860
  557MOL0     H75130  10.545   1.754   1.797  2.2724 -0.4547  5.9255
  557MOL0     H75131  10.452   1.738   1.939  1.1443  0.5399 -0.4453
  557MOL0     H75132  10.272   1.638   1.823 -0.9153 -0.2079 -2.0659
  557MOL0     H75133  10.414   1.556   1.758 -0.6725 -0.7013  1.4023
  557MOL0     H75134  10.386   1.741   1.564 -1.0603  0.2981 -1.8057
  557MOL0     H75135  10.227   1.772   1.650  0.4159  1.7649 -0.1622
  557MOL0     H75136  10.321   1.518   1.525 -1.3483 -2.0949 -1.2916
  557MOL0     H75137  10.167   1.543   1.610  3.1295 -1.2959  0.6838
  557MOL0     H75138  10.076   1.659   1.436  0.1539 -1.0815  1.9954
  557MOL0     H75139  10.242   1.688   1.351  1.8973 -1.8715 -0.3385
  557MOL0     H75140  10.247   1.456   1.285 -0.6393 -0.1874 -1.6052
  557MOL0     H75141  10.114   1.419   1.401 -0.3796  0.8510  0.1868
  557MOL0     H75142  10.127   1.587   1.133  2.0862  0.2770  1.0399
  557MOL0     H75143   9.980   1.581   1.229  1.2466  3.0245 -2.5886
  557MOL0     H75144   9.959   1.351   1.206  1.8094 -0.0350  1.4561
  557MOL0     H75145   9.971   1.427   1.046 -0.1031 -4.1367 -0.8454
  557MOL0     H75146  10.181   1.138   1.229  1.8656 -1.6024 -0.1150
  557MOL0     H75147  10.425   1.057   0.951 -0.5673  1.6193 -0.3748
  557MOL0     H75148  10.477   1.068   1.119  0.9513 -1.1185 -1.0907
  557MOL0     H75149  10.402   0.844   1.092  0.8188 -0.1605 -2.7561
  557MOL0     H75150  10.282   0.936   1.188 -2.7763 -0.4044 -0.3796
  557MOL0     H75151  10.252   0.897   0.877  1.3826  0.5613 -0.3051
  557MOL0     H75152  10.146   0.964   0.996 -0.0826 -0.3685  0.9759
  557MOL0     H75153  10.104   0.768   1.112  4.3794  3.0836  1.3804
  557MOL0     H75154  10.218   0.679   0.995 -1.0458 -2.0653 -0.2612
  557MOL0     H75155  10.113   0.505   1.065 -0.6751  0.8643 -0.0062
  557MOL0     H75156   9.977   0.312   1.094  2.0152  1.1338 -0.3870
  557MOL0     H75157   9.332   0.333   1.027  0.8752  0.4656 -0.4198
  557MOL0     H75158   9.166   0.171   1.064  0.6825 -0.8599  1.8777
  557MOL0     H75159   9.211  -0.224   0.890  2.5287 -0.3918  1.0748
  557MOL0     H75160   9.258  -0.285   1.044  0.3738 -1.8305 -4.4407
  557MOL0     H75161   9.068  -0.400   1.024 -1.5344  0.4584  1.7928
  557MOL0     H75162   9.011  -0.274   1.120 -2.1271 -0.4184 -0.7881
  557MOL0     H75163   8.943  -0.158   0.883  0.4969 -0.1285  0.9991
  557MOL0     H75164   8.938  -0.330   0.852  1.1227 -0.2339  0.0207
  557MOL0     H75165   8.764  -0.134   1.017 -2.2393 -0.3253 -1.6213
  557MOL0     H75166   8.798  -0.290   1.094 -0.9162 -2.6158 -1.9419
  557MOL0     H75167   8.742  -0.424   0.910 -0.2202  0.4473 -0.7620
  557MOL0     H75168   8.693  -0.291   0.812  1.9613 -2.3803 -0.6174
  557MOL0     H75169   8.511  -0.241   0.985  0.5094  0.4303  3.2704
  557MOL0     H75170   8.499  -0.394   0.904 -2.2192 -0.4482  1.8795
  557MOL0     H75171   8.569  -0.345   1.200  1.6249 -2.1011  2.8213
  557MOL0     H75172   8.629  -0.496   1.120 -0.5942 -0.2481 -0.5558
  557MOL0     H75173   8.415  -0.573   1.075  0.6366  0.3874  0.1074
  557MOL0     H75174   8.426  -0.525   1.243 -1.0937  0.8369 -0.5478
  557MOL0     H75175   9.431  -0.147   0.966 -1.9907 -0.3373 -0.1328
  557MOL0     H75176   9.612   0.039   0.931 -0.6019 -0.1130 -0.7994
  557MOL0     H75177   9.639   0.511   0.908  0.2110  1.0302 -2.1081
  557MOL0     H75178   9.782   0.711   0.877 -1.2635 -0.2358  2.5786
  557MOL0     H75179  10.570   1.965   2.005 -1.4045  4.4161  3.0049
  557MOL0     H75180  10.737   2.139   1.973  0.0759 -1.8064 -0.0942
  557MOL0     H75181  10.615   2.652   1.892 -0.7103  1.2943 -1.6674
  557MOL0     H75182  10.750   2.850   1.979  1.3443  0.9384  1.2320
  557MOL0     H75183  11.145   2.882   1.838  1.1708 -2.3935 -0.2779
  557MOL0     H75184  11.199   2.808   1.994 -0.2625 -0.0638  0.7184
  557MOL0     H75185  11.270   3.035   2.020 -0.6345 -2.2569  2.6632
  557MOL0     H75186  11.114   3.048   2.091  0.6943  2.0843  0.6072
  557MOL0     H75187  11.201   3.156   1.835  2.8027  0.8268  4.0515
  557MOL0     H75188  11.122   3.236   1.955 -1.6220  0.0687  0.1263
  557MOL0     H75189  11.014   3.042   1.749 -1.2982  1.1011 -1.1545
  557MOL0     H75190  10.904   3.093   1.880  0.3087  1.6884  1.0950
  557MOL0     H75191  10.922   3.436   1.633  1.0323 -1.0516  0.2464
  557MOL0     H75192  11.102   2.619   1.959  0.3224  2.8946 -0.0934
  557MOL0     H75193  10.967   2.303   1.962 -0.5971 -0.1679 -0.8668
  557MOL0     H75194  11.007   2.349   1.792 -0.8013  3.8179 -1.1793
  557MOL0     H75195  11.113   2.392   1.935  0.0928  0.1577  1.3362
  558MOL0     O75196   0.504   4.236   7.217 -0.4529  0.1834  0.0997
  558MOL0     C75197   0.415   4.150   7.231  0.0135  0.0856  0.7931
  558MOL0     O75198   0.435   4.027   7.290 -0.8534  0.3378 -0.3995
  558MOL0     C75199   0.566   3.993   7.318 -0.8751  0.1160  0.2044
  558MOL0     C75200   0.598   3.857   7.284  0.2729 -0.8288  0.6051
  558MOL0     C75201   0.713   3.795   7.335 -0.5738  0.2608  0.1156
  558MOL0     C75202   0.802   3.862   7.418 -0.1326 -0.0232 -0.5740
  558MOL0     O75203   0.928   3.818   7.473  0.8861  0.4169  0.3684
  558MOL0     C75204   0.974   3.684   7.433  1.0566  0.3183 -0.1691
  558MOL0     C75205   1.121   3.651   7.443 -0.2095  1.0065 -0.2834
  558MOL0     C75206   1.157   3.657   7.593 -0.3220  0.0637  0.1763
  558MOL0     C75207   1.311   3.640   7.618  0.1546 -1.0913  0.2227
  558MOL0     C75208   1.352   3.662   7.766  0.2543 -0.0914 -0.4374
  558MOL0     C75209   1.493   3.613   7.797 -0.8852  1.7754 -0.1923
  558MOL0     C75210   1.536   3.621   7.944  0.0923 -0.0155  0.6327
  558MOL0     C75211   1.541   3.767   7.986 -0.8922  0.0789 -0.2463
  558MOL0     N75212   1.575   3.784   8.125 -0.6946 -0.7001 -0.0774
  558MOL0     C75213   1.708   3.814   8.163  0.2085 -0.0537  0.9695
  558MOL0     C75214   1.701   3.831   8.300  0.1360  0.6370 -0.7668
  558MOL0     C75215   1.809   3.843   8.405 -1.1017 -0.0326  0.8230
  558MOL0     C75216   1.775   3.812   8.542 -0.5614 -0.4907  0.3859
  558MOL0     C75217   1.869   3.864   8.642  0.0351 -0.6619  0.5203
  558MOL0     C75218   2.012   3.794   8.621  1.3091 -0.1035  0.0779
  558MOL0     O75219   2.083   3.881   8.535  0.4853 -0.8959 -0.3152
  558MOL0     C75220   2.184   3.826   8.462  0.4781 -0.3591 -0.0192
  558MOL0     C75221   2.294   3.756   8.510  0.0423  0.1716  0.2969
  558MOL0     C75222   2.397   3.720   8.428  0.0740  0.5177  0.1069
  558MOL0     C75223   2.402   3.774   8.296  1.1494  1.0204 -0.2414
  558MOL0     C75224   2.521   3.737   8.217  0.9516 -0.6978 -0.2146
  558MOL0     O75225   2.587   3.620   8.248 -0.3241  0.3135 -0.2427
  558MOL0     C75226   2.705   3.575   8.200  0.8245  0.4197  0.4054
  558MOL0     C75227   2.743   3.459   8.260  0.0411 -0.3098 -0.2926
  558MOL0     C75228   2.866   3.403   8.231  0.6686 -0.2124 -0.6948
  558MOL0     C75229   2.951   3.451   8.136  0.2252  0.1892 -0.1918
  558MOL0     O75230   3.067   3.380   8.122 -0.2307 -0.5062  0.5929
  558MOL0     C75231   3.177   3.458   8.068 -0.2217  0.4810  0.3373
  558MOL0     C75232   3.304   3.363   8.097 -0.3663 -0.9567 -0.0807
  558MOL0     C75233   3.435   3.416   8.040  0.2102  0.3660 -0.8485
  558MOL0     C75234   3.555   3.329   8.069  0.3361  0.8119 -0.1357
  558MOL0     C75235   3.677   3.388   7.994  0.0452  0.5222 -0.5906
  558MOL0     C75236   3.808   3.311   8.032 -0.5854  0.1103 -0.1199
  558MOL0     C75237   3.937   3.390   7.991 -0.0443 -0.2815 -0.0868
  558MOL0     C75238   4.067   3.307   7.973 -0.0944 -0.4974  0.7828
  558MOL0    Cl75239   4.199   3.424   7.948  0.2708 -0.2728  0.0089
  558MOL0     C75240   2.913   3.573   8.072  0.4466 -0.7742 -1.0577
  558MOL0     C75241   2.787   3.629   8.103 -0.2666  1.0205  0.6442
  558MOL0     O75242   2.573   3.829   8.147 -0.3808 -0.1817  0.1053
  558MOL0     C75243   2.295   3.836   8.244  0.8630 -0.3084 -0.1682
  558MOL0     C75244   2.181   3.866   8.324 -0.0862 -0.2379 -0.6784
  558MOL0     N75245   1.564   3.809   8.333  0.5627 -0.0265 -0.7165
  558MOL0     N75246   1.489   3.792   8.234 -0.0119 -0.7602 -0.6681
  558MOL0     C75247   0.765   3.991   7.453  0.2044 -0.0553 -0.2232
  558MOL0     C75248   0.657   4.063   7.398 -0.1557  0.5103  0.4645
  558MOL0     C75249   0.277   4.173   7.174  0.9117  1.1113  0.5545
  558MOL0     C75250   0.189   4.058   7.162  0.3447 -0.6395 -1.1245
  558MOL0     C75251   0.066   4.073   7.104 -1.0070 -0.7927  0.8924
  558MOL0     C75252   0.022   4.202   7.056  0.2614  0.6921 -0.2241
  558MOL0     O75253  -0.088   4.206   6.968 -0.6090 -0.3592 -0.1099
  558MOL0     C75254  -0.181   4.306   6.967  0.3556 -0.4948  0.8977
  558MOL0     C75255  -0.319   4.258   6.956  0.0111  0.6550 -0.1652
  558MOL0     C75256  -0.420   4.379   6.946  0.0815  0.5209  0.4055
  558MOL0     C75257  -0.566   4.352   6.986  0.7689 -0.5733  0.6630
  558MOL0     C75258  -0.661   4.454   6.937 -0.9824  0.3282  0.3215
  558MOL0     C75259  -0.748   4.533   6.909  0.4046  0.1947 -0.6344
  558MOL0     C75260   0.096   4.314   7.084  0.2855 -0.0532 -0.4935
  558MOL0     C75261   0.218   4.301   7.142 -0.3130  0.1083 -0.4049
  558MOL0     C75262   0.292   4.426   7.189  0.0335 -0.1906  0.1364
  558MOL0     H75263   0.533   3.798   7.220 -0.0331 -0.4586  0.5724
  558MOL0     H75264   0.733   3.692   7.309 -2.0523 -0.3944  1.4131
  558MOL0     H75265   0.910   3.622   7.496  1.0620 -0.1238 -0.5944
  558MOL0     H75266   0.945   3.674   7.328 -2.1887  0.3272  0.6235
  558MOL0     H75267   1.172   3.724   7.379 -1.9463  2.3762 -0.1778
  558MOL0     H75268   1.145   3.549   7.411  2.2600  0.4293  2.8837
  558MOL0     H75269   1.104   3.571   7.634  1.9704 -1.5821 -0.1816
  558MOL0     H75270   1.124   3.755   7.631  0.0127  0.3484 -0.2590
  558MOL0     H75271   1.345   3.541   7.586  0.6957 -0.0529 -2.7762
  558MOL0     H75272   1.368   3.712   7.559 -0.7135 -0.2112  0.4430
  558MOL0     H75273   1.333   3.766   7.794 -2.3416 -0.5427 -0.3194
  558MOL0     H75274   1.283   3.606   7.830  0.2323  0.6228  0.1775
  558MOL0     H75275   1.490   3.505   7.783  1.2889  1.7246 -0.6585
  558MOL0     H75276   1.572   3.655   7.734 -0.1709  2.3696  1.0488
  558MOL0     H75277   1.637   3.583   7.959  0.2486  0.0184 -0.3123
  558MOL0     H75278   1.468   3.557   8.001  2.1475 -2.7807  0.1972
  558MOL0     H75279   1.602   3.814   7.909 -1.7018  1.3752 -0.1208
  558MOL0     H75280   1.440   3.807   7.980 -0.1265  1.9538 -1.4585
  558MOL0     H75281   1.793   3.826   8.097 -0.8736  0.4851 -0.3558
  558MOL0     H75282   1.888   3.778   8.366  0.7538  2.0007  0.9779
  558MOL0     H75283   1.854   3.942   8.391 -0.6994 -0.2690  0.4127
  558MOL0     H75284   1.674   3.843   8.570  1.1422  4.5581  2.1266
  558MOL0     H75285   1.780   3.703   8.537 -0.0920 -0.4234 -1.2660
  558MOL0     H75286   1.838   3.835   8.742  0.5661  0.4299  1.0227
  558MOL0     H75287   1.866   3.973   8.639 -0.3900 -0.6908 -0.8299
  558MOL0     H75288   2.003   3.691   8.588  4.3928 -0.6139  0.5026
  558MOL0     H75289   2.059   3.800   8.720 -1.7489  1.0382  1.5723
  558MOL0     H75290   2.297   3.712   8.609  0.1366  0.3703  0.3831
  558MOL0     H75291   2.475   3.661   8.475  0.1094  0.4943  0.0186
  558MOL0     H75292   2.672   3.414   8.328 -2.2209  0.9045 -1.7132
  558MOL0     H75293   2.887   3.314   8.288  1.0661  0.7630  0.7398
  558MOL0     H75294   3.173   3.473   7.959  2.6600 -4.2894 -0.7133
  558MOL0     H75295   3.195   3.553   8.120 -1.7785 -0.6893  3.2048
  558MOL0     H75296   3.322   3.340   8.203 -1.8646 -0.0147  0.4173
  558MOL0     H75297   3.280   3.266   8.052  1.2437 -0.8773 -1.2055
  558MOL0     H75298   3.436   3.448   7.935  0.5421  1.0259 -0.6468
  558MOL0     H75299   3.450   3.515   8.083 -0.4292 -0.4390  1.3603
  558MOL0     H75300   3.540   3.225   8.040 -0.6779  0.9947 -0.2920
  558MOL0     H75301   3.588   3.338   8.173  1.7070  0.7188 -0.5417
  558MOL0     H75302   3.692   3.492   8.024  1.8984 -0.1319  0.9615
  558MOL0     H75303   3.654   3.378   7.888 -0.5882 -0.8592 -0.3461
  558MOL0     H75304   3.830   3.295   8.138 -0.6766  0.6472 -0.0177
  558MOL0     H75305   3.813   3.212   7.985  0.4499 -0.0902  0.3792
  558MOL0     H75306   3.949   3.468   8.066 -4.0663 -0.7009  1.2077
  558MOL0     H75307   3.913   3.450   7.902 -0.4761  0.9449  0.8301
  558MOL0     H75308   4.086   3.249   8.064  2.4779  0.2980  0.8236
  558MOL0     H75309   4.060   3.234   7.892 -0.3572  0.2240  0.1397
  558MOL0     H75310   2.983   3.620   8.003 -0.6570 -0.4068 -1.9727
  558MOL0     H75311   2.751   3.714   8.046  2.0334  0.2707 -2.1895
  558MOL0     H75312   2.296   3.873   8.142 -2.6313 -2.6025 -1.1935
  558MOL0     H75313   2.098   3.921   8.282  0.4201  0.6761 -0.5134
  558MOL0     H75314   0.834   4.036   7.523 -2.6050  3.5466  0.4935
  558MOL0     H75315   0.635   4.168   7.415 -0.0642  0.5522  0.3221
  558MOL0     H75316   0.217   3.957   7.190 -0.0003  0.2143  2.8102
  558MOL0     H75317   0.021   3.985   7.060  1.1447 -0.6752 -1.8046
  558MOL0     H75318  -0.159   4.365   6.877  3.0073 -1.7216  0.6509
  558MOL0     H75319  -0.171   4.374   7.053 -0.4838  1.7540 -0.6839
  558MOL0     H75320  -0.352   4.199   7.042  1.1330 -2.1714 -1.5164
  558MOL0     H75321  -0.323   4.200   6.863  0.1653  1.9837 -1.0236
  558MOL0     H75322  -0.423   4.405   6.840 -2.1090  1.5597  0.6683
  558MOL0     H75323  -0.376   4.453   7.013  1.5527  1.5321 -1.5568
  558MOL0     H75324  -0.587   4.253   6.942  0.4093 -0.2599  0.1203
  558MOL0     H75325  -0.575   4.348   7.095  3.6424  0.0348  1.0120
  558MOL0     H75326  -0.815   4.616   6.899  4.6584  4.6387  2.7917
  558MOL0     H75327   0.072   4.415   7.054  2.8679  0.4345 -1.1698
  558MOL0     H75328   0.299   4.417   7.298 -1.3046 -0.0193  0.2521
  558MOL0     H75329   0.396   4.426   7.155  0.2554  0.5178  0.7800
  558MOL0     H75330   0.237   4.517   7.162 -2.9129 -2.0491 -0.6032
  559MOL0     O75331   4.114  10.083   2.682  0.0210  1.2020 -0.1150
  559MOL0     C75332   4.075  10.162   2.605  0.5513  0.4154  0.4570
  559MOL0     O75333   4.152  10.248   2.532  0.4435  0.5279 -0.6885
  559MOL0     C75334   4.276  10.282   2.583 -0.6933  0.6128  0.5265
  559MOL0     C75335   4.297  10.332   2.715 -0.0528 -0.1001 -0.3180
  559MOL0     C75336   4.423  10.384   2.746 -0.0511  0.0968  0.4524
  559MOL0     C75337   4.521  10.393   2.635  0.0677 -0.2582  0.3019
  559MOL0     O75338   4.635  10.460   2.663  0.2578  0.4212 -0.1717
  559MOL0     C75339   4.680  10.460   2.806  1.3586  0.6332 -0.0314
  559MOL0     C75340   4.831  10.471   2.814  0.6722 -0.3297  0.8866
  559MOL0     C75341   4.906  10.592   2.743 -0.8539  1.3416 -1.1310
  559MOL0     C75342   5.044  10.542   2.696  0.9101 -0.5241  0.6980
  559MOL0     C75343   5.120  10.645   2.616 -0.7933 -0.3335 -0.2620
  559MOL0     C75344   5.183  10.758   2.703 -0.2972  0.3180 -0.1079
  559MOL0     C75345   5.262  10.852   2.609  0.8367 -0.3776 -1.5227
  559MOL0     C75346   5.311  10.980   2.686  0.0843  0.2234  0.5863
  559MOL0     N75347   5.419  11.054   2.625 -0.3262  0.3135  0.0845
  559MOL0     C75348   5.547  11.021   2.635  0.4076  0.9376  0.3978
  559MOL0     C75349   5.621  11.110   2.564 -0.4165  0.8563  0.3940
  559MOL0     C75350   5.768  11.123   2.540  0.0733 -0.6265  0.0590
  559MOL0     C75351   5.856  11.051   2.646  0.0806 -0.1069 -0.1004
  559MOL0     C75352   5.903  11.153   2.747 -0.1561  0.0171 -0.2521
  559MOL0     C75353   5.998  11.079   2.835 -0.5162 -0.6323  0.2481
  559MOL0     O75354   6.055  11.183   2.915 -0.1132  0.6464 -0.6041
  559MOL0     C75355   6.191  11.202   2.887  0.5021  1.2210 -0.8889
  559MOL0     C75356   6.240  11.328   2.883  0.3019 -0.2231 -0.8052
  559MOL0     C75357   6.370  11.351   2.873  1.2759  0.1155  0.0976
  559MOL0     C75358   6.459  11.251   2.851  0.0716  0.1253 -0.1001
  559MOL0     C75359   6.599  11.287   2.829 -0.9177  0.6499  0.3794
  559MOL0     O75360   6.625  11.412   2.810 -0.4281 -0.1422  0.1995
  559MOL0     C75361   6.752  11.440   2.759 -0.0071  0.0842  0.3992
  559MOL0     C75362   6.772  11.448   2.629  0.4179  0.0574 -0.1586
  559MOL0     C75363   6.904  11.473   2.581  0.6064  0.4023  0.0715
  559MOL0     C75364   7.011  11.502   2.668  0.7551  0.5732  0.0400
  559MOL0     O75365   7.140  11.528   2.621  0.1744 -0.0170  0.4472
  559MOL0     C75366   7.230  11.599   2.701 -0.2810  0.2578  0.0228
  559MOL0     C75367   7.338  11.503   2.740  0.2607 -0.6387 -0.5911
  559MOL0     C75368   7.447  11.570   2.830  0.9087  0.9847 -0.1362
  559MOL0     C75369   7.575  11.500   2.829 -0.2662  0.2806 -1.5855
  559MOL0     C75370   7.676  11.573   2.918 -1.0093  0.3874 -0.3989
  559MOL0     C75371   7.814  11.504   2.904  0.0771 -0.2322  0.9473
  559MOL0     C75372   7.918  11.603   2.951 -0.5649  0.0332  0.5425
  559MOL0     C75373   8.052  11.546   2.911 -0.1384 -0.2207 -0.3574
  559MOL0    Cl75374   8.079  11.509   2.728 -0.0783 -0.3356  0.6975
  559MOL0     C75375   6.988  11.472   2.805 -0.6887 -0.0784  0.3951
  559MOL0     C75376   6.863  11.454   2.856  0.0071  0.1520 -0.4865
  559MOL0     O75377   6.680  11.191   2.820  0.2522  0.3175  0.9031
  559MOL0     C75378   6.413  11.118   2.857 -0.1670 -0.7081  0.0334
  559MOL0     C75379   6.280  11.092   2.870  0.8399  0.5210 -0.3756
  559MOL0     N75380   5.527  11.199   2.517  0.4725 -0.0071 -0.0876
  559MOL0     N75381   5.412  11.165   2.551 -0.1418  0.2106 -0.9273
  559MOL0     C75382   4.500  10.349   2.512  0.0019  0.1363 -0.1587
  559MOL0     C75383   4.378  10.285   2.481  0.1120  0.1999 -0.9340
  559MOL0     C75384   3.935  10.152   2.543  0.6349  0.0728 -0.2621
  559MOL0     C75385   3.912  10.192   2.405  0.7725  0.4381 -0.8382
  559MOL0     C75386   3.787  10.182   2.346  0.4189 -0.8026 -0.0652
  559MOL0     C75387   3.670  10.143   2.421  0.1921  0.1582  0.1419
  559MOL0     O75388   3.553  10.148   2.363 -0.0285  0.2437 -0.4630
  559MOL0     C75389   3.455  10.062   2.411 -0.0047  0.2724 -0.3744
  559MOL0     C75390   3.339  10.045   2.315  0.3717  0.3484  0.4821
  559MOL0     C75391   3.259  10.174   2.285 -0.6856 -0.8359  0.7253
  559MOL0     C75392   3.112  10.150   2.311  0.1292  0.0004  0.3975
  559MOL0     C75393   3.045  10.033   2.254 -0.0116  0.4897  0.3161
  559MOL0     C75394   2.995   9.930   2.210 -0.4267  0.3027  0.4752
  559MOL0     C75395   3.693  10.086   2.556 -0.2162  0.8847  1.3111
  559MOL0     C75396   3.819  10.099   2.613 -0.2264  0.0791 -1.5415
  559MOL0     C75397   3.817  10.066   2.754  0.6420  0.7047 -0.5668
  559MOL0     H75398   4.214  10.328   2.785 -2.3656  0.6667 -2.8402
  559MOL0     H75399   4.436  10.410   2.850 -2.9186 -0.0701  0.9534
  559MOL0     H75400   4.641  10.544   2.863 -3.6335 -1.2850 -0.1525
  559MOL0     H75401   4.651  10.368   2.857  1.5644 -0.0227 -1.0508
  559MOL0     H75402   4.859  10.374   2.771 -4.5213 -1.0192 -1.8543
  559MOL0     H75403   4.878  10.466   2.912  0.7318 -2.0900  0.8016
  559MOL0     H75404   4.924  10.671   2.816 -0.8704 -1.2426  1.8941
  559MOL0     H75405   4.837  10.633   2.669 -1.6602 -2.3844 -2.6389
  559MOL0     H75406   5.106  10.516   2.782  2.5057 -1.1397 -0.5746
  559MOL0     H75407   5.034  10.453   2.634 -0.2571 -1.5810  2.3515
  559MOL0     H75408   5.204  10.587   2.577 -0.3591 -0.5341  0.9265
  559MOL0     H75409   5.056  10.695   2.543  2.2687  1.8756 -1.6238
  559MOL0     H75410   5.106  10.807   2.763  1.6057  1.4794  1.4933
  559MOL0     H75411   5.251  10.711   2.774 -2.3500  0.8209  2.3443
  559MOL0     H75412   5.198  10.883   2.527  1.5124 -3.1076 -3.2062
  559MOL0     H75413   5.354  10.818   2.560  1.6025  1.0247 -1.1311
  559MOL0     H75414   5.223  11.045   2.690 -0.1921 -0.0927 -0.2136
  559MOL0     H75415   5.336  10.962   2.791 -0.0034 -0.4813  0.4935
  559MOL0     H75416   5.583  10.930   2.681 -1.3135  0.3160  0.5914
  559MOL0     H75417   5.780  11.074   2.443 -0.3097  0.1193 -0.3719
  559MOL0     H75418   5.804  11.225   2.526  0.1882 -0.7059 -0.2381
  559MOL0     H75419   5.802  10.979   2.709  1.9976 -0.7488  0.8724
  559MOL0     H75420   5.930  10.997   2.588  1.0658 -0.8485  1.7428
  559MOL0     H75421   5.817  11.177   2.811 -0.2707  1.2999 -0.8647
  559MOL0     H75422   5.930  11.250   2.705 -2.8085  2.0201  2.2753
  559MOL0     H75423   6.070  11.036   2.764 -1.1720  0.5225 -1.1928
  559MOL0     H75424   5.950  10.995   2.885 -1.3497 -0.3507 -0.0756
  559MOL0     H75425   6.181  11.417   2.903  0.1950 -0.1153 -1.5434
  559MOL0     H75426   6.404  11.454   2.874 -1.5913  1.1477  0.0252
  559MOL0     H75427   6.687  11.431   2.563  0.8841  0.2765 -0.8283
  559MOL0     H75428   6.925  11.482   2.475 -1.3754  0.0775 -0.3903
  559MOL0     H75429   7.261  11.687   2.644 -0.9391 -0.0659 -0.8468
  559MOL0     H75430   7.181  11.649   2.786  2.0780  1.1689  0.9107
  559MOL0     H75431   7.299  11.412   2.785 -0.0027 -0.4563 -0.4474
  559MOL0     H75432   7.381  11.483   2.641 -1.1155  0.6734 -1.5175
  559MOL0     H75433   7.462  11.674   2.799 -0.6798  0.8621 -1.4679
  559MOL0     H75434   7.417  11.587   2.934 -1.3284  2.4214 -0.9402
  559MOL0     H75435   7.609  11.481   2.727 -3.1930 -4.3825 -2.0314
  559MOL0     H75436   7.557  11.395   2.855 -1.1653  1.0559  1.3224
  559MOL0     H75437   7.643  11.568   3.022  0.0819  0.5632 -0.0332
  559MOL0     H75438   7.687  11.679   2.895  2.9282 -0.3255 -2.7235
  559MOL0     H75439   7.818  11.422   2.976  0.6348 -0.2402  0.9101
  559MOL0     H75440   7.826  11.467   2.802 -0.1998  1.1250  0.3929
  559MOL0     H75441   7.914  11.597   3.060 -0.8819 -2.4415  0.4478
  559MOL0     H75442   7.901  11.706   2.921  0.7766  0.1700  0.1812
  559MOL0     H75443   8.129  11.613   2.950  0.7317  0.0735 -2.4334
  559MOL0     H75444   8.055  11.452   2.967  0.5535  1.0028  1.7879
  559MOL0     H75445   7.064  11.475   2.882 -0.2490  3.8470 -0.0226
  559MOL0     H75446   6.845  11.456   2.963 -0.8352 -0.3000 -0.6104
  559MOL0     H75447   6.472  11.028   2.850 -1.0479 -1.4336  1.4319
  559MOL0     H75448   6.255  10.987   2.882 -0.2500  0.6079 -1.7629
  559MOL0     H75449   4.578  10.360   2.438 -0.8624 -0.1683 -1.1409
  559MOL0     H75450   4.343  10.258   2.382  1.8182 -0.5821 -1.3562
  559MOL0     H75451   3.998  10.237   2.356  0.1169  3.7703  0.8015
  559MOL0     H75452   3.767  10.216   2.245  2.1378 -0.4447 -0.3152
  559MOL0     H75453   3.403  10.102   2.498  1.6650 -1.9089  1.7638
  559MOL0     H75454   3.499   9.967   2.444  2.3862  2.1182  2.2750
  559MOL0     H75455   3.274   9.981   2.375 -0.6509  1.9371  1.1247
  559MOL0     H75456   3.376   9.990   2.227 -1.4181 -0.5168  0.2147
  559MOL0     H75457   3.279  10.203   2.181  2.3658 -3.5341  0.4234
  559MOL0     H75458   3.294  10.256   2.348  2.0711 -1.2594 -0.1312
  559MOL0     H75459   3.102  10.153   2.420 -0.4933 -1.4662  0.4069
  559MOL0     H75460   3.064  10.241   2.273  1.7972  1.4540  1.5438
  559MOL0     H75461   2.945   9.843   2.172  3.3983 -2.3973  1.0421
  559MOL0     H75462   3.609  10.049   2.613 -0.2337 -0.1819  0.6151
  559MOL0     H75463   3.879   9.977   2.772  0.3949  0.5731 -0.3669
  559MOL0     H75464   3.857  10.144   2.819  1.7045  0.0758 -0.4203
  559MOL0     H75465   3.713  10.050   2.781  0.6683 -2.6309 -1.8977
  560MOL0     O75466   0.133   3.602   9.047  0.7693  0.0189  0.4574
  560MOL0     C75467   0.155   3.638   8.930 -0.4263 -0.4236  0.0284
  560MOL0     O75468   0.264   3.693   8.874 -0.5484 -0.6018 -0.8438
  560MOL0     C75469   0.381   3.719   8.951  0.0605  1.2818  0.6495
  560MOL0     C75470   0.407   3.701   9.089  0.1719  0.3517  0.2535
  560MOL0     C75471   0.536   3.734   9.127 -0.6705 -0.4514 -0.7844
  560MOL0     C75472   0.642   3.765   9.042  0.0839 -0.3123  0.0744
  560MOL0     O75473   0.767   3.778   9.099 -0.0475  0.4270 -0.2237
  560MOL0     C75474   0.857   3.846   9.011 -0.0693 -0.4985  0.5069
  560MOL0     C75475   0.979   3.875   9.100 -0.0115 -0.6165  0.0711
  560MOL0     C75476   1.083   3.961   9.034  0.7019 -0.2384  0.0924
  560MOL0     C75477   1.196   3.992   9.136 -0.7706  0.7893  0.1108
  560MOL0     C75478   1.281   4.114   9.095 -0.0799  0.1739  0.0227
  560MOL0     C75479   1.363   4.115   8.969  0.5835 -0.9164  0.2343
  560MOL0     C75480   1.441   3.981   8.956  0.2541 -1.1161 -0.0839
  560MOL0     C75481   1.530   3.996   8.838 -0.9137  0.8910  0.6236
  560MOL0     N75482   1.657   4.062   8.866 -0.0719 -0.4916 -0.0459
  560MOL0     C75483   1.768   4.031   8.942  0.3424  0.4812 -0.0811
  560MOL0     C75484   1.859   4.132   8.912 -0.1932  0.5214 -0.0191
  560MOL0     C75485   1.994   4.126   8.988  0.4616  0.2408  0.2638
  560MOL0     C75486   2.089   4.009   8.957 -0.9761 -0.0727  0.6878
  560MOL0     C75487   2.202   4.022   9.052 -0.0423 -0.3998 -0.4548
  560MOL0     C75488   2.316   3.921   9.048 -0.0417 -0.0644 -0.7780
  560MOL0     O75489   2.423   3.968   9.138  0.2728 -0.9074  0.5184
  560MOL0     C75490   2.546   3.914   9.114  0.4237 -0.0638  0.0776
  560MOL0     C75491   2.586   3.793   9.164  0.2436 -0.5791 -0.6586
  560MOL0     C75492   2.708   3.733   9.146  0.1711 -0.6230  1.1157
  560MOL0     C75493   2.798   3.801   9.064  0.7390 -0.2793 -0.9520
  560MOL0     C75494   2.933   3.750   9.063  0.6222  0.0848  0.5435
  560MOL0     O75495   3.008   3.782   8.961  0.2883  0.7913  0.0401
  560MOL0     C75496   3.139   3.736   8.943  0.3442  0.0957  0.3384
  560MOL0     C75497   3.219   3.670   9.043 -0.7428  0.3342 -0.0368
  560MOL0     C75498   3.336   3.614   9.003 -0.4790 -0.4766 -0.1781
  560MOL0     C75499   3.386   3.618   8.875 -0.4411 -0.8152  0.1860
  560MOL0     O75500   3.505   3.569   8.837  0.6232  0.3497 -0.5941
  560MOL0     C75501   3.603   3.593   8.940 -1.3318  0.2787  0.1031
  560MOL0     C75502   3.749   3.595   8.878  0.0333  0.9487  0.5911
  560MOL0     C75503   3.841   3.638   8.984 -0.1465  0.5578  0.3862
  560MOL0     C75504   3.982   3.622   8.922  0.9304 -0.2638  0.2802
  560MOL0     C75505   4.072   3.630   9.040  0.5404  1.3775 -0.6430
  560MOL0     C75506   4.216   3.603   9.009  0.1716  0.7092 -0.3788
  560MOL0     C75507   4.305   3.641   9.130  0.5088 -0.1595  0.0556
  560MOL0     C75508   4.379   3.782   9.106 -0.1316 -0.0791 -0.2023
  560MOL0    Cl75509   4.452   3.827   9.266 -0.1426 -0.2894 -0.3919
  560MOL0     C75510   3.307   3.679   8.784  0.7405 -0.4159 -0.1952
  560MOL0     C75511   3.188   3.746   8.818  0.1313  0.5101 -0.3445
  560MOL0     O75512   2.960   3.681   9.160  0.0274  1.1997  0.7021
  560MOL0     C75513   2.768   3.928   9.017 -0.5491  0.4965  0.3432
  560MOL0     C75514   2.642   3.990   9.042  0.7011  0.8469 -0.4160
  560MOL0     N75515   1.786   4.227   8.840 -0.7373 -0.2400  0.2378
  560MOL0     N75516   1.676   4.184   8.812 -0.3750  0.5613 -0.0342
  560MOL0     C75517   0.609   3.792   8.907 -0.1081  0.0422  0.7552
  560MOL0     C75518   0.483   3.771   8.871  1.0967 -0.7788  0.4453
  560MOL0     C75519   0.038   3.621   8.837  0.0001  0.5761  0.2202
  560MOL0     C75520  -0.044   3.504   8.851  0.0545  0.2976 -0.6022
  560MOL0     C75521  -0.155   3.490   8.775  0.2531 -0.1089  1.0214
  560MOL0     C75522  -0.186   3.564   8.662 -0.4883 -0.1183 -0.3592
  560MOL0     O75523  -0.305   3.558   8.591 -0.9906 -0.1395  0.1880
  560MOL0     C75524  -0.408   3.463   8.627 -0.3187  0.4683 -0.1221
  560MOL0     C75525  -0.532   3.478   8.522  0.0477  0.8185 -0.8028
  560MOL0     C75526  -0.623   3.347   8.546  0.5743  0.2133 -0.7605
  560MOL0     C75527  -0.704   3.350   8.674 -0.3657  0.2503  0.9742
  560MOL0     C75528  -0.773   3.222   8.678 -0.6843  0.3022  0.0282
  560MOL0     C75529  -0.812   3.109   8.683 -0.5179  0.7171 -0.9940
  560MOL0     C75530  -0.092   3.662   8.634  0.3825 -1.1333 -0.3105
  560MOL0     C75531   0.012   3.702   8.724 -0.6514 -0.1129  0.6148
  560MOL0     C75532   0.087   3.834   8.688  0.1500  0.1459 -0.0007
  560MOL0     H75533   0.345   3.664   9.171  0.3415 -0.0447  0.2023
  560MOL0     H75534   0.565   3.723   9.231  0.3356 -1.1114 -1.1123
  560MOL0     H75535   0.873   3.788   8.920 -0.6629  0.7534 -0.4323
  560MOL0     H75536   0.815   3.943   8.982  1.8975  0.6145  1.1868
  560MOL0     H75537   1.024   3.781   9.133  1.1387 -0.1033  0.0087
  560MOL0     H75538   0.946   3.931   9.188 -1.9043 -1.3180 -0.1449
  560MOL0     H75539   1.041   4.057   9.003 -1.4475 -0.8275  1.0017
  560MOL0     H75540   1.121   3.912   8.944 -1.8390  0.9814 -1.7731
  560MOL0     H75541   1.151   4.026   9.229  0.1100  1.5024  0.2828
  560MOL0     H75542   1.247   3.896   9.154 -1.7649 -0.7591 -4.1030
  560MOL0     H75543   1.216   4.201   9.094  0.7605  0.8143 -1.6139
  560MOL0     H75544   1.352   4.132   9.177 -0.0052  0.7801 -0.1749
  560MOL0     H75545   1.300   4.112   8.880  0.1841 -1.5963  0.5361
  560MOL0     H75546   1.430   4.202   8.964  0.2914 -0.6683  0.5991
  560MOL0     H75547   1.371   3.900   8.935  0.5860 -1.9604  1.8277
  560MOL0     H75548   1.493   3.956   9.049 -1.2515 -1.6306  0.6342
  560MOL0     H75549   1.547   3.893   8.805 -1.0836  1.2743 -0.7037
  560MOL0     H75550   1.486   4.039   8.747  1.0645  0.9699 -0.3435
  560MOL0     H75551   1.784   3.937   8.994  3.5918  0.1623 -1.3888
  560MOL0     H75552   2.043   4.223   8.976 -0.2680  1.2841  4.1468
  560MOL0     H75553   1.961   4.119   9.093 -2.1104 -0.0877 -0.5035
  560MOL0     H75554   2.047   3.908   8.959  0.9689 -0.9840 -1.1193
  560MOL0     H75555   2.132   4.014   8.857 -0.7123  1.7326  0.8611
  560MOL0     H75556   2.161   4.026   9.154 -1.2371  2.4814 -0.9645
  560MOL0     H75557   2.245   4.122   9.040  0.4453 -0.8369 -2.8150
  560MOL0     H75558   2.348   3.907   8.944  0.5497 -1.2290 -0.4448
  560MOL0     H75559   2.270   3.823   9.062 -2.6253  0.3827 -4.5482
  560MOL0     H75560   2.515   3.733   9.220  1.5069 -0.5743  1.0565
  560MOL0     H75561   2.731   3.637   9.191  1.4587  1.2440  4.8555
  560MOL0     H75562   3.190   3.649   9.146 -1.2956  3.8199  0.6573
  560MOL0     H75563   3.383   3.559   9.084 -2.9199 -3.7366 -0.7451
  560MOL0     H75564   3.596   3.684   9.000 -0.1037  0.0961  0.5461
  560MOL0     H75565   3.597   3.508   9.008  1.8052  0.3850  0.6254
  560MOL0     H75566   3.769   3.492   8.848 -1.9779  0.7433 -0.2112
  560MOL0     H75567   3.744   3.669   8.798 -0.7007  2.3263  1.8521
  560MOL0     H75568   3.817   3.742   9.005  0.4855  0.2264  3.1409
  560MOL0     H75569   3.830   3.580   9.076 -1.6337 -0.1199 -0.1970
  560MOL0     H75570   4.003   3.698   8.847  3.1865 -2.0774 -1.0712
  560MOL0     H75571   3.998   3.523   8.879 -1.5469 -1.1350  1.1763
  560MOL0     H75572   4.028   3.560   9.111 -1.3995  3.5913  0.4477
  560MOL0     H75573   4.074   3.730   9.083  2.0520  2.1714 -2.3967
  560MOL0     H75574   4.228   3.496   8.989  0.7560  0.3322  1.7969
  560MOL0     H75575   4.253   3.659   8.923  3.5313 -2.3825 -1.1587
  560MOL0     H75576   4.377   3.559   9.137 -0.6892 -1.0760  3.5967
  560MOL0     H75577   4.245   3.638   9.222 -0.4957 -1.7039 -0.6022
  560MOL0     H75578   4.451   3.780   9.023  2.4018 -2.5820  1.8553
  560MOL0     H75579   4.300   3.850   9.072 -0.9989  0.0990  2.0210
  560MOL0     H75580   3.352   3.685   8.685  1.9577 -0.4226  0.3419
  560MOL0     H75581   3.134   3.811   8.749 -0.7684  0.0409 -0.0851
  560MOL0     H75582   2.830   4.001   8.965 -1.8271  0.9285 -0.6480
  560MOL0     H75583   2.621   4.095   9.021 -1.5762  0.6569  0.5797
  560MOL0     H75584   0.680   3.816   8.829 -0.8172 -4.3704 -1.5637
  560MOL0     H75585   0.470   3.793   8.765  3.2278 -0.9166  0.1164
  560MOL0     H75586  -0.021   3.421   8.917  1.4682 -0.2785 -1.7671
  560MOL0     H75587  -0.213   3.404   8.807 -1.5598 -0.5957 -2.9621
  560MOL0     H75588  -0.437   3.493   8.728  0.9018 -0.3475  0.5014
  560MOL0     H75589  -0.363   3.363   8.632 -0.2608  0.5319  0.8170
  560MOL0     H75590  -0.479   3.465   8.427 -2.1063  0.3397 -1.9869
  560MOL0     H75591  -0.580   3.576   8.519  0.2249  0.9446  0.0748
  560MOL0     H75592  -0.565   3.254   8.550  2.6229  1.3459  4.3594
  560MOL0     H75593  -0.701   3.334   8.472 -1.9199 -3.2491  2.0794
  560MOL0     H75594  -0.641   3.356   8.764  0.9943  0.3258  0.0474
  560MOL0     H75595  -0.781   3.426   8.692 -1.1022 -0.7083  2.0055
  560MOL0     H75596  -0.840   3.006   8.697 -1.5446  1.4157  4.0548
  560MOL0     H75597  -0.117   3.714   8.542  1.2539 -0.6138 -0.2604
  560MOL0     H75598   0.012   3.914   8.688 -1.3455 -1.0777  3.2097
  560MOL0     H75599   0.153   3.858   8.772 -1.0238 -2.8564  1.9292
  560MOL0     H75600   0.130   3.824   8.588 -1.1746 -0.5564 -0.5234
  561MOL0     O75601   6.315   3.186   5.922  0.6935 -0.7321 -0.0115
  561MOL0     C75602   6.228   3.187   6.009 -2.1118  0.3137 -0.2001
  561MOL0     O75603   6.232   3.115   6.128 -0.5320 -0.0701 -0.3564
  561MOL0     C75604   6.352   3.063   6.173 -0.0206 -0.8014 -0.1318
  561MOL0     C75605   6.344   2.948   6.245 -0.0042 -0.5699 -0.2644
  561MOL0     C75606   6.455   2.895   6.303  0.2644 -0.0229  0.7721
  561MOL0     C75607   6.580   2.952   6.291  0.0602  0.6887  0.9763
  561MOL0     O75608   6.697   2.900   6.334 -0.1970  0.5627  0.3216
  561MOL0     C75609   6.695   2.772   6.401 -0.0720 -0.4248  0.3250
  561MOL0     C75610   6.833   2.721   6.394 -0.2767 -0.8530 -0.0902
  561MOL0     C75611   6.842   2.581   6.449 -0.6580 -0.0059 -1.2642
  561MOL0     C75612   6.903   2.566   6.594 -0.0193 -0.0756 -0.3939
  561MOL0     C75613   7.053   2.570   6.615 -0.8211 -0.2754 -0.8308
  561MOL0     C75614   7.134   2.477   6.513  0.4279 -0.4277  0.3448
  561MOL0     C75615   7.278   2.472   6.541 -0.3947  1.2087  0.1913
  561MOL0     C75616   7.362   2.390   6.437 -0.4115  0.1258  0.6844
  561MOL0     N75617   7.498   2.376   6.486 -0.2459 -0.2094 -1.0867
  561MOL0     C75618   7.548   2.274   6.555  0.2004 -0.1901 -0.7118
  561MOL0     C75619   7.674   2.307   6.584  0.4471  0.4367 -0.1792
  561MOL0     C75620   7.779   2.226   6.648 -0.2691 -0.2547  0.6142
  561MOL0     C75621   7.827   2.290   6.783  0.3081 -0.3912 -0.1401
  561MOL0     C75622   7.932   2.209   6.858 -0.3875  0.1033 -0.0894
  561MOL0     C75623   8.065   2.209   6.786  0.4599 -0.2154  0.2571
  561MOL0     O75624   8.108   2.343   6.766  0.0885 -0.2301  0.1810
  561MOL0     C75625   8.224   2.368   6.692 -0.3653 -0.1419 -0.5936
  561MOL0     C75626   8.280   2.490   6.715  0.9493 -0.9110  0.3318
  561MOL0     C75627   8.402   2.520   6.653  0.2682 -0.0465 -0.2880
  561MOL0     C75628   8.474   2.430   6.573 -0.3635  0.4867  0.2177
  561MOL0     C75629   8.597   2.467   6.503  0.0869  0.6252  0.0875
  561MOL0     O75630   8.674   2.564   6.556 -0.9551 -0.2699 -0.7767
  561MOL0     C75631   8.770   2.627   6.477  0.2400  0.6716  0.2595
  561MOL0     C75632   8.892   2.661   6.526 -0.9526  0.3666 -0.0775
  561MOL0     C75633   8.979   2.741   6.446 -0.5030  0.0179  0.2692
  561MOL0     C75634   8.939   2.789   6.318  0.1294 -0.4106 -0.2548
  561MOL0     O75635   9.031   2.868   6.254  0.2776 -0.6380 -0.5115
  561MOL0     C75636   8.990   2.950   6.146 -0.6996 -0.5321  0.6601
  561MOL0     C75637   9.105   3.035   6.087  0.8070  0.7463  0.5256
  561MOL0     C75638   9.038   3.147   6.012 -0.1795 -1.0271 -0.8011
  561MOL0     C75639   9.147   3.220   5.940  0.3184 -0.0671  0.5400
  561MOL0     C75640   9.075   3.334   5.855 -0.5101 -0.3813  0.7836
  561MOL0     C75641   9.013   3.444   5.939  0.5275 -1.3924 -0.3798
  561MOL0     C75642   8.900   3.520   5.866 -0.6398 -1.1153  0.1860
  561MOL0     C75643   8.874   3.671   5.901  0.5635 -0.5181  0.0548
  561MOL0    Cl75644   9.007   3.774   5.927  0.5065  0.0526 -0.0506
  561MOL0     C75645   8.814   2.752   6.266  0.3338  0.3848  0.1313
  561MOL0     C75646   8.733   2.673   6.351  0.4946 -0.1760 -0.5309
  561MOL0     O75647   8.616   2.404   6.395  0.4974 -0.5253 -0.7151
  561MOL0     C75648   8.421   2.307   6.557  0.3360 -0.4164  0.3733
  561MOL0     C75649   8.297   2.272   6.619 -0.9654 -0.6006  0.0646
  561MOL0     N75650   7.698   2.424   6.523  0.4279 -0.0886 -0.2634
  561MOL0     N75651   7.592   2.462   6.454 -0.5937 -0.3276  0.2869
  561MOL0     C75652   6.592   3.070   6.215  1.3602  1.2396  0.2063
  561MOL0     C75653   6.477   3.126   6.150  0.4208 -0.4262  0.0131
  561MOL0     C75654   6.102   3.257   5.986 -0.7438 -0.2158 -0.7633
  561MOL0     C75655   5.982   3.190   6.013  0.1220 -0.0122  0.1098
  561MOL0     C75656   5.856   3.250   5.998  0.5751 -0.7799  0.2554
  561MOL0     C75657   5.851   3.385   5.969  0.2544  0.1237 -0.7057
  561MOL0     O75658   5.729   3.444   5.969  0.6473  0.5711 -0.0266
  561MOL0     C75659   5.716   3.587   5.961 -0.8932 -0.1188  1.2542
  561MOL0     C75660   5.757   3.668   6.090 -0.2353  1.0027 -0.6898
  561MOL0     C75661   5.724   3.809   6.081 -0.1636 -0.0228  0.6969
  561MOL0     C75662   5.809   3.896   6.179  0.5305 -0.4494  0.7582
  561MOL0     C75663   5.792   3.868   6.318  0.3376 -0.0378 -0.8213
  561MOL0     C75664   5.815   3.848   6.438 -0.4290  0.3528 -0.4776
  561MOL0     C75665   5.972   3.453   5.932  1.1341  0.0814 -0.3303
  561MOL0     C75666   6.091   3.391   5.943 -0.0566 -0.5718  1.4913
  561MOL0     C75667   6.215   3.470   5.918  0.2530  0.0657 -0.3259
  561MOL0     H75668   6.246   2.905   6.266 -0.0246  0.1093  1.1607
  561MOL0     H75669   6.449   2.803   6.360  0.7070 -0.0432  0.7896
  561MOL0     H75670   6.649   2.785   6.500 -2.9181 -4.1689 -0.2796
  561MOL0     H75671   6.628   2.706   6.346 -0.9522 -0.4363  1.3920
  561MOL0     H75672   6.894   2.790   6.453 -1.6533 -0.2705  0.7141
  561MOL0     H75673   6.865   2.728   6.290 -0.9069  2.0187 -0.1928
  561MOL0     H75674   6.905   2.522   6.382 -1.3664  0.9179 -2.7820
  561MOL0     H75675   6.745   2.532   6.456 -1.2953  1.3327 -0.0663
  561MOL0     H75676   6.870   2.644   6.664 -0.1164 -1.2333  0.9034
  561MOL0     H75677   6.864   2.472   6.633  1.0482 -1.3252 -2.2242
  561MOL0     H75678   7.103   2.666   6.606  2.6758 -1.6482  1.5480
  561MOL0     H75679   7.065   2.532   6.717 -1.7336  2.7654  0.5094
  561MOL0     H75680   7.096   2.376   6.495  2.7141 -1.3583  0.4341
  561MOL0     H75681   7.120   2.535   6.422 -2.2672  0.1809  1.0443
  561MOL0     H75682   7.289   2.428   6.641  1.3432  1.6222  0.2269
  561MOL0     H75683   7.320   2.572   6.554  0.8584  0.7063  0.2276
  561MOL0     H75684   7.322   2.291   6.416  0.4189 -0.2865  1.0210
  561MOL0     H75685   7.361   2.460   6.353  1.4800  0.3875  0.8468
  561MOL0     H75686   7.497   2.181   6.577 -0.0990 -0.2181 -1.4819
  561MOL0     H75687   7.746   2.124   6.666 -3.0719  0.4292 -0.0943
  561MOL0     H75688   7.875   2.232   6.596  0.6709  0.1585  2.3371
  561MOL0     H75689   7.848   2.397   6.784  0.2079 -0.3507  1.7662
  561MOL0     H75690   7.737   2.280   6.845 -1.1836  0.9182 -1.9687
  561MOL0     H75691   7.888   2.111   6.879 -3.1217  1.4575  1.0872
  561MOL0     H75692   7.952   2.252   6.957 -2.8979  0.5297  0.3186
  561MOL0     H75693   8.054   2.156   6.692 -0.3860 -3.8013  2.2107
  561MOL0     H75694   8.140   2.150   6.839 -1.3777 -0.7774  2.3830
  561MOL0     H75695   8.241   2.563   6.785  1.2209  1.8301 -2.1296
  561MOL0     H75696   8.422   2.626   6.662 -2.0356  0.4003  0.1015
  561MOL0     H75697   8.926   2.637   6.626 -0.2980  1.8915  0.0895
  561MOL0     H75698   9.075   2.764   6.492 -0.8224  0.4573  0.7330
  561MOL0     H75699   8.953   2.888   6.065  0.6692 -1.7508  0.9308
  561MOL0     H75700   8.916   3.018   6.191  2.0029  2.5273  0.9199
  561MOL0     H75701   9.165   3.065   6.173  1.6194  0.1200  0.1917
  561MOL0     H75702   9.168   2.977   6.019 -0.3823  1.7565 -1.5227
  561MOL0     H75703   8.962   3.101   5.947 -0.0260 -1.3623 -0.7417
  561MOL0     H75704   8.982   3.212   6.080  0.6858  1.7040 -2.5413
  561MOL0     H75705   9.195   3.151   5.871 -1.8863 -1.5137  0.3370
  561MOL0     H75706   9.224   3.260   6.006 -2.2823  1.6941  2.7535
  561MOL0     H75707   8.995   3.293   5.793 -0.4109 -0.0001  0.4069
  561MOL0     H75708   9.156   3.371   5.792  1.9274 -0.1990  3.7543
  561MOL0     H75709   8.969   3.422   6.037  0.0461  4.2098  1.0011
  561MOL0     H75710   9.105   3.503   5.943  0.7284 -1.7364  0.5401
  561MOL0     H75711   8.811   3.457   5.873 -1.3181 -0.2484 -0.3406
  561MOL0     H75712   8.932   3.519   5.761  5.0263 -0.9533  1.5592
  561MOL0     H75713   8.811   3.707   5.819 -4.1007 -0.4564  3.2500
  561MOL0     H75714   8.799   3.683   5.979 -0.2113 -0.1985 -0.7162
  561MOL0     H75715   8.788   2.763   6.161 -3.8879 -2.2698  0.6688
  561MOL0     H75716   8.647   2.626   6.304  2.8276 -5.4271 -0.1948
  561MOL0     H75717   8.473   2.235   6.495  0.1346  0.1993 -0.5315
  561MOL0     H75718   8.261   2.170   6.610 -3.0868  0.1265 -0.3034
  561MOL0     H75719   6.690   3.111   6.197  1.0108  1.7723 -0.5198
  561MOL0     H75720   6.489   3.216   6.090  0.5484 -1.6888 -1.9316
  561MOL0     H75721   6.009   3.088   6.040  2.8088  0.3429 -0.9889
  561MOL0     H75722   5.758   3.209   6.021 -1.3796  3.3287  0.0373
  561MOL0     H75723   5.613   3.615   5.935  0.0074  0.9990 -1.4872
  561MOL0     H75724   5.778   3.630   5.881 -1.0766 -1.6508  0.2524
  561MOL0     H75725   5.860   3.642   6.113  0.4651  2.7388 -1.7055
  561MOL0     H75726   5.691   3.628   6.168  1.0020  1.3978  0.6119
  561MOL0     H75727   5.615   3.818   6.094 -0.0210  1.5283  0.9806
  561MOL0     H75728   5.744   3.848   5.981 -2.2625  0.9992  0.6120
  561MOL0     H75729   5.914   3.885   6.151  1.0444  1.0452  1.9712
  561MOL0     H75730   5.793   4.001   6.154  3.2276 -0.5182 -1.9188
  561MOL0     H75731   5.837   3.815   6.538  1.3266 -2.9373 -1.7908
  561MOL0     H75732   5.969   3.556   5.899 -1.2746  0.5063  1.0118
  561MOL0     H75733   6.201   3.578   5.924  2.5724  0.3354  2.8039
  561MOL0     H75734   6.279   3.451   6.005 -0.6796 -1.2701  0.1040
  561MOL0     H75735   6.267   3.437   5.827  1.1465  2.3648 -0.7061
  562MOL0     O75736   7.337   9.911   8.152 -0.0846 -0.3586 -0.1020
  562MOL0     C75737   7.341   9.862   8.040 -0.2134 -0.6177 -0.7833
  562MOL0     O75738   7.450   9.794   7.991  0.4532  1.0216  0.8057
  562MOL0     C75739   7.554   9.782   8.073 -1.0970  0.2356 -0.3419
  562MOL0     C75740   7.672   9.858   8.052  0.7301 -0.4674 -0.6304
  562MOL0     C75741   7.784   9.835   8.122 -0.4416  0.0451 -0.2364
  562MOL0     C75742   7.788   9.747   8.230  0.5131  0.8252 -0.2374
  562MOL0     O75743   7.912   9.741   8.297  0.6137 -0.6816 -0.5153
  562MOL0     C75744   7.921   9.827   8.415  0.2929 -0.5404 -0.7235
  562MOL0     C75745   8.071   9.838   8.451  0.0418  0.6284 -0.9728
  562MOL0     C75746   8.152   9.928   8.357  0.0488 -0.9862  0.4401
  562MOL0     C75747   8.149  10.078   8.374 -0.5227 -0.4729 -0.5959
  562MOL0     C75748   8.225  10.127   8.498 -0.2948 -0.1062 -0.6341
  562MOL0     C75749   8.247  10.276   8.495  0.1211 -0.0641  0.6019
  562MOL0     C75750   8.307  10.331   8.629 -0.0527 -1.0225 -0.4813
  562MOL0     C75751   8.351  10.473   8.612  0.6078 -0.2890 -0.0415
  562MOL0     N75752   8.446  10.517   8.716  0.5111  0.6042  0.9469
  562MOL0     C75753   8.576  10.478   8.709 -0.9850 -0.1373  0.6564
  562MOL0     C75754   8.640  10.559   8.800  0.0205 -0.5161 -0.7929
  562MOL0     C75755   8.788  10.534   8.839 -0.6408  0.5051  0.1212
  562MOL0     C75756   8.886  10.631   8.779  0.4174  0.1998 -0.0470
  562MOL0     C75757   9.028  10.581   8.807 -0.3469 -0.3275  0.2724
  562MOL0     C75758   9.138  10.691   8.789  0.1822 -0.9597  0.7361
  562MOL0     O75759   9.125  10.739   8.662 -1.4635 -0.3752  0.1717
  562MOL0     C75760   9.242  10.770   8.597 -0.8599  0.1363 -0.3666
  562MOL0     C75761   9.241  10.765   8.462  0.2317  0.0470  0.8844
  562MOL0     C75762   9.354  10.799   8.377 -0.0739 -0.2460 -0.4019
  562MOL0     C75763   9.476  10.830   8.434  0.2180  0.5257  0.4654
  562MOL0     C75764   9.594  10.857   8.347 -0.2521  0.1781 -0.3996
  562MOL0     O75765   9.586  10.810   8.217  0.5355  0.5019  0.1249
  562MOL0     C75766   9.695  10.817   8.139  0.5341 -0.9104  0.4843
  562MOL0     C75767   9.800  10.727   8.144 -0.4577  0.5806 -0.4418
  562MOL0     C75768   9.916  10.750   8.069  0.7565 -0.0334 -0.0581
  562MOL0     C75769   9.923  10.862   7.976  0.0305  0.5972 -0.4655
  562MOL0     O75770  10.021  10.881   7.887 -0.6490 -0.3178 -0.1271
  562MOL0     C75771  10.130  10.793   7.873 -0.1205  0.5868  0.1297
  562MOL0     C75772  10.245  10.827   7.965  0.0374 -0.3948  0.1065
  562MOL0     C75773  10.380  10.761   7.919  0.1163  0.1862 -0.7717
  562MOL0     C75774  10.490  10.866   7.950 -1.1559 -1.0514  0.1781
  562MOL0     C75775  10.632  10.805   7.945 -0.3269  0.6072  0.2704
  562MOL0     C75776  10.673  10.760   7.807 -0.1539 -0.8179  0.4159
  562MOL0     C75777  10.804  10.680   7.823  0.0777  0.3658 -0.6389
  562MOL0     C75778  10.858  10.641   7.686 -0.1661 -0.1171  0.1650
  562MOL0    Cl75779  11.012  10.554   7.706  0.2475  0.1648  0.1841
  562MOL0     C75780   9.820  10.951   7.980 -0.8265 -0.6272 -0.4588
  562MOL0     C75781   9.705  10.930   8.052  0.0113 -0.5850 -0.7308
  562MOL0     O75782   9.690  10.919   8.399 -0.0988 -0.1079 -0.0182
  562MOL0     C75783   9.469  10.847   8.574  0.9150  0.3261 -0.1080
  562MOL0     C75784   9.357  10.831   8.659  0.4420  0.1093  0.3400
  562MOL0     N75785   8.548  10.643   8.863 -0.7947 -0.4572 -0.1714
  562MOL0     N75786   8.431  10.615   8.810 -0.1539  0.1075 -0.1519
  562MOL0     C75787   7.678   9.664   8.247  0.5364  0.9588 -0.6585
  562MOL0     C75788   7.564   9.673   8.164  0.3857 -0.7175 -0.3990
  562MOL0     C75789   7.234   9.896   7.945  0.2997  0.7534 -0.5032
  562MOL0     C75790   7.274   9.897   7.809  0.7044  0.1279  0.1324
  562MOL0     C75791   7.192   9.933   7.704 -0.7811 -0.2535  0.5822
  562MOL0     C75792   7.059   9.966   7.727  0.3011 -0.5123 -0.6999
  562MOL0     O75793   6.970   9.991   7.619  0.2958  0.1796  0.3042
  562MOL0     C75794   6.936  10.132   7.597  0.4341  0.3129 -0.2017
  562MOL0     C75795   6.797  10.140   7.544  0.6320  0.7720 -0.3210
  562MOL0     C75796   6.691  10.111   7.653  0.5706  0.1503  0.3973
  562MOL0     C75797   6.546  10.123   7.592 -0.0494  0.4250 -0.4317
  562MOL0     C75798   6.511  10.059   7.469  0.2139 -0.0541 -0.2136
  562MOL0     C75799   6.485  10.014   7.365 -0.5598  1.0436 -0.5176
  562MOL0     C75800   7.012   9.948   7.863 -0.4932  0.6084  1.2202
  562MOL0     C75801   7.095   9.915   7.968 -0.5748  0.0514  0.3892
  562MOL0     C75802   7.029   9.892   8.100  0.1048  0.1173  0.6052
  562MOL0     H75803   7.664   9.936   7.976  0.0770 -0.3387 -0.4373
  562MOL0     H75804   7.873   9.893   8.100  1.0495 -1.4101  1.6226
  562MOL0     H75805   7.897   9.933   8.400  3.1450  0.2548 -0.2330
  562MOL0     H75806   7.870   9.782   8.500  2.7638 -3.3781 -0.5732
  562MOL0     H75807   8.104   9.734   8.457 -0.1647  0.5388 -1.3363
  562MOL0     H75808   8.107   9.877   8.547  1.0930 -0.5987 -0.8457
  562MOL0     H75809   8.114   9.907   8.257 -0.5077 -2.1610  0.8754
  562MOL0     H75810   8.253   9.886   8.347 -0.4807 -1.9499 -1.3347
  562MOL0     H75811   8.215  10.107   8.291 -0.2639 -1.7853 -0.8575
  562MOL0     H75812   8.053  10.131   8.367 -0.3981 -0.2972 -1.0464
  562MOL0     H75813   8.171  10.096   8.588  2.7275 -0.1110  1.3103
  562MOL0     H75814   8.325  10.083   8.506  0.3905  1.5613  0.6293
  562MOL0     H75815   8.319  10.299   8.416  1.0111  3.7501  2.3055
  562MOL0     H75816   8.146  10.315   8.479 -0.1114  0.1868  2.3863
  562MOL0     H75817   8.387  10.274   8.677 -0.3499 -0.3296  0.9015
  562MOL0     H75818   8.231  10.326   8.708  0.5694 -0.4102  0.1735
  562MOL0     H75819   8.411  10.473   8.521  1.2416  1.1164  0.3539
  562MOL0     H75820   8.267  10.540   8.594  0.1947 -0.8860 -0.3767
  562MOL0     H75821   8.631  10.408   8.647  3.0311  3.4364 -0.3427
  562MOL0     H75822   8.803  10.518   8.946 -0.7650 -1.3549 -0.1141
  562MOL0     H75823   8.823  10.438   8.802  0.4743 -0.0939  2.4982
  562MOL0     H75824   8.880  10.636   8.670  1.5596 -0.9891 -0.1843
  562MOL0     H75825   8.862  10.733   8.813  1.3406  0.5295 -0.3759
  562MOL0     H75826   9.043  10.496   8.740  3.6310  0.9457 -0.6894
  562MOL0     H75827   9.039  10.546   8.910  1.0448  1.5773  0.8297
  562MOL0     H75828   9.232  10.637   8.804 -1.0413 -3.9548 -1.4640
  562MOL0     H75829   9.121  10.769   8.864 -0.3379 -0.9671  0.6263
  562MOL0     H75830   9.143  10.744   8.422  0.2988  3.1145 -1.1845
  562MOL0     H75831   9.325  10.799   8.272 -0.0205 -1.1695 -0.4266
  562MOL0     H75832   9.797  10.645   8.215 -0.5769  0.9037 -0.0686
  562MOL0     H75833  10.002  10.686   8.085 -0.4059 -1.8408 -0.7236
  562MOL0     H75834  10.097  10.691   7.895 -0.1211  0.5087 -0.2346
  562MOL0     H75835  10.155  10.787   7.767  1.4991  2.2187  0.3661
  562MOL0     H75836  10.256  10.935   7.975 -2.4948 -0.0741  0.1342
  562MOL0     H75837  10.225  10.779   8.061  1.4668 -2.9114 -0.7677
  562MOL0     H75838  10.398  10.665   7.969 -1.3493  0.9873  1.4426
  562MOL0     H75839  10.367  10.743   7.812 -4.3729  0.0939 -0.4202
  562MOL0     H75840  10.484  10.909   8.050  1.0972 -2.1388  0.8548
  562MOL0     H75841  10.485  10.954   7.885  0.3782 -0.2645  1.0609
  562MOL0     H75842  10.629  10.712   8.001  0.4769  1.9194  2.6442
  562MOL0     H75843  10.708  10.873   7.986 -0.8997  2.3247 -1.3235
  562MOL0     H75844  10.595  10.707   7.752  0.6537 -0.4788 -1.1207
  562MOL0     H75845  10.695  10.851   7.750 -2.8643  0.7938  1.7228
  562MOL0     H75846  10.795  10.588   7.880  2.5609 -0.5638 -1.6386
  562MOL0     H75847  10.872  10.743   7.881 -1.3751 -0.0466  1.6506
  562MOL0     H75848  10.782  10.594   7.623 -1.2129  1.5782  0.0853
  562MOL0     H75849  10.867  10.728   7.621  0.1038  1.0000  1.6375
  562MOL0     H75850   9.831  11.044   7.925 -0.4261 -0.3274  0.1150
  562MOL0     H75851   9.623  11.001   8.046 -0.7940 -1.3942  0.3259
  562MOL0     H75852   9.562  10.884   8.616  1.0321 -0.6247  0.4984
  562MOL0     H75853   9.353  10.840   8.768 -2.8578  0.2597  0.3118
  562MOL0     H75854   7.685   9.595   8.331 -0.8071  2.3856  0.6933
  562MOL0     H75855   7.474   9.614   8.180  0.7835 -1.1168  0.3992
  562MOL0     H75856   7.370   9.869   7.768  0.1818  0.1564 -1.1613
  562MOL0     H75857   7.216   9.924   7.599 -0.5840  2.0845  0.3596
  562MOL0     H75858   7.000  10.172   7.519  1.4553 -0.1716  0.3725
  562MOL0     H75859   6.944  10.195   7.686 -0.6441 -0.0509  0.1725
  562MOL0     H75860   6.793  10.072   7.458 -1.3790  1.3979 -0.7682
  562MOL0     H75861   6.786  10.244   7.511  3.0833  1.2303  0.1353
  562MOL0     H75862   6.691  10.193   7.725 -0.3222  0.6518 -0.1530
  562MOL0     H75863   6.704  10.013   7.699  0.3205  0.4963  1.2080
  562MOL0     H75864   6.474  10.087   7.666 -0.5361 -1.3641 -1.7178
  562MOL0     H75865   6.531  10.229   7.568  1.2215  0.4577 -1.1731
  562MOL0     H75866   6.463   9.979   7.266 -1.9760 -1.2184  0.5210
  562MOL0     H75867   6.906   9.930   7.872 -0.2612 -2.4399 -0.7135
  562MOL0     H75868   6.976   9.980   8.139 -0.1814 -0.4667  1.5637
  562MOL0     H75869   6.954   9.813   8.087  0.1599 -0.1398  1.8096
  562MOL0     H75870   7.096   9.841   8.169  0.8770 -0.9388 -0.8613
  563MOL0     O75871   5.430   8.599   0.386 -0.6236  0.1863  0.3766
  563MOL0     C75872   5.334   8.673   0.383  0.4290  0.1341 -0.5544
  563MOL0     O75873   5.345   8.814   0.377  0.6013  0.3218 -0.4116
  563MOL0     C75874   5.458   8.881   0.352  0.3664  0.1832  0.5796
  563MOL0     C75875   5.484   9.001   0.420  0.9405  0.1937  0.3482
  563MOL0     C75876   5.607   9.069   0.410 -0.2301  0.4042  0.7225
  563MOL0     C75877   5.711   9.014   0.332 -0.8439 -0.5344  0.6893
  563MOL0     O75878   5.828   9.085   0.316  0.1586 -0.1241  0.9410
  563MOL0     C75879   5.908   9.053   0.211 -0.5160  0.4519 -0.1966
  563MOL0     C75880   6.021   9.162   0.204  0.8156 -0.7050 -0.3518
  563MOL0     C75881   6.113   9.155   0.331  0.1819 -0.1110  0.2430
  563MOL0     C75882   6.258   9.157   0.288 -1.3654  0.8576  0.4204
  563MOL0     C75883   6.311   9.277   0.209  0.3224 -0.0980  0.1798
  563MOL0     C75884   6.315   9.401   0.293  0.9375 -0.1030  0.2386
  563MOL0     C75885   6.401   9.388   0.423  0.2348 -1.2345 -0.7512
  563MOL0     C75886   6.550   9.359   0.401  0.0853  0.3628 -0.6310
  563MOL0     N75887   6.622   9.399   0.524 -0.5364  0.8401 -0.1610
  563MOL0     C75888   6.635   9.526   0.580  0.0164  0.9577  0.2897
  563MOL0     C75889   6.706   9.511   0.699  0.4315 -0.7950  0.3973
  563MOL0     C75890   6.746   9.607   0.814 -0.0065  0.5816  1.0334
  563MOL0     C75891   6.894   9.646   0.812 -0.3178 -0.3926  0.8017
  563MOL0     C75892   6.933   9.721   0.938 -0.0342  0.0012 -0.1266
  563MOL0     C75893   7.085   9.734   0.936 -0.7589 -0.2497  0.2682
  563MOL0     O75894   7.141   9.778   0.814  0.1756 -0.3749  0.8003
  563MOL0     C75895   7.276   9.785   0.802  0.5818 -1.5925 -0.6432
  563MOL0     C75896   7.373   9.708   0.865 -0.7013  0.3139 -0.3094
  563MOL0     C75897   7.509   9.725   0.858  0.4108 -0.2817 -0.1075
  563MOL0     C75898   7.564   9.826   0.774  0.5276  0.4590 -1.1860
  563MOL0     C75899   7.705   9.857   0.779 -1.1112  0.5850  0.5185
  563MOL0     O75900   7.779   9.786   0.874  1.6251 -0.5842  0.6421
  563MOL0     C75901   7.914   9.790   0.882  0.0759 -0.9816  0.9335
  563MOL0     C75902   7.995   9.777   0.767  0.0752  0.2861 -0.5780
  563MOL0     C75903   8.128   9.764   0.778 -0.0295 -0.1905 -0.0356
  563MOL0     C75904   8.193   9.747   0.902 -1.0514 -0.1947 -0.0744
  563MOL0     O75905   8.326   9.708   0.897  0.6374 -0.1250 -0.4802
  563MOL0     C75906   8.399   9.669   1.014 -1.1659 -0.0983 -0.2936
  563MOL0     C75907   8.543   9.664   0.961 -0.1569 -0.1313  0.2178
  563MOL0     C75908   8.657   9.619   1.057  0.3712 -0.3280 -0.0882
  563MOL0     C75909   8.663   9.464   1.067  1.2682 -0.1211  1.1929
  563MOL0     C75910   8.790   9.412   1.125 -0.5479 -0.8889 -0.2138
  563MOL0     C75911   8.796   9.261   1.127  0.3458 -0.1669 -0.0287
  563MOL0     C75912   8.886   9.201   1.237  0.3583  0.4856  0.2798
  563MOL0     C75913   8.803   9.099   1.315  0.7160 -0.6120  0.3235
  563MOL0    Cl75914   8.900   9.062   1.458 -0.5293  0.2324  0.0191
  563MOL0     C75915   8.119   9.758   1.019  0.0064 -0.0642  0.7260
  563MOL0     C75916   7.984   9.790   1.007  0.4638 -0.1940  0.7353
  563MOL0     O75917   7.747   9.929   0.688 -0.2806 -0.2559  0.3121
  563MOL0     C75918   7.466   9.910   0.709  0.5575 -0.8892 -0.6008
  563MOL0     C75919   7.326   9.882   0.717 -0.4645 -0.2087  0.0333
  563MOL0     N75920   6.744   9.376   0.701 -0.3563 -0.7368  1.3076
  563MOL0     N75921   6.684   9.309   0.605  0.4719 -0.0706  0.3256
  563MOL0     C75922   5.685   8.896   0.260  0.1380  0.1399  0.3906
  563MOL0     C75923   5.559   8.832   0.271 -0.7737 -0.0814  0.1117
  563MOL0     C75924   5.196   8.608   0.386  0.3101  0.2498 -0.0837
  563MOL0     C75925   5.190   8.468   0.409 -0.3700 -0.3482 -0.9419
  563MOL0     C75926   5.068   8.405   0.428 -0.2641 -0.4596  0.2175
  563MOL0     C75927   4.949   8.471   0.412  0.1881 -0.4747 -0.6158
  563MOL0     O75928   4.832   8.399   0.409  0.4658 -0.2844 -0.0535
  563MOL0     C75929   4.720   8.459   0.342  1.2711 -0.6228  0.1692
  563MOL0     C75930   4.599   8.356   0.347  0.0775  0.1276  0.4661
  563MOL0     C75931   4.573   8.299   0.493 -0.5705  0.6752 -0.5329
  563MOL0     C75932   4.484   8.180   0.473  0.0581 -0.7345  0.2247
  563MOL0     C75933   4.507   8.091   0.587  0.4147 -1.0535 -0.2021
  563MOL0     C75934   4.515   8.016   0.686  0.9534  0.5289  0.1928
  563MOL0     C75935   4.951   8.614   0.393  0.4446  0.9532 -0.2183
  563MOL0     C75936   5.071   8.677   0.388 -0.3079 -0.5042 -0.3134
  563MOL0     C75937   5.065   8.829   0.385  0.2918 -0.3204 -0.9736
  563MOL0     H75938   5.406   9.028   0.489  0.3614 -0.6463  0.0394
  563MOL0     H75939   5.626   9.156   0.471  1.1132  0.8060 -0.2409
  563MOL0     H75940   5.952   8.953   0.213 -2.7587 -0.6959 -2.4243
  563MOL0     H75941   5.852   9.058   0.117 -1.8291 -1.6685  0.4042
  563MOL0     H75942   5.978   9.263   0.204  0.4935 -0.8381  0.0304
  563MOL0     H75943   6.080   9.160   0.112  1.4963 -0.8277  0.0794
  563MOL0     H75944   6.087   9.060   0.377 -0.6091 -1.2175 -2.2857
  563MOL0     H75945   6.092   9.237   0.400 -0.0900 -0.4497  0.5675
  563MOL0     H75946   6.313   9.135   0.381 -2.3522  0.6251  0.9671
  563MOL0     H75947   6.282   9.070   0.227  1.6981  0.7510  1.6172
  563MOL0     H75948   6.412   9.263   0.168  0.6594 -0.7897  1.2164
  563MOL0     H75949   6.244   9.294   0.125  1.7188 -1.1231 -1.2086
  563MOL0     H75950   6.346   9.472   0.215 -0.2391 -0.6410 -0.7524
  563MOL0     H75951   6.210   9.421   0.315  0.5283  0.2942 -1.8238
  563MOL0     H75952   6.346   9.321   0.490 -0.6419  0.9638  0.8204
  563MOL0     H75953   6.388   9.487   0.467 -1.2438 -1.5641 -0.4055
  563MOL0     H75954   6.571   9.254   0.376 -1.1895  0.0378 -0.3771
  563MOL0     H75955   6.594   9.417   0.319  1.8428  0.6649  0.4656
  563MOL0     H75956   6.582   9.611   0.539 -3.8299 -2.3402 -2.3631
  563MOL0     H75957   6.684   9.697   0.806 -1.8963 -0.5787  2.0607
  563MOL0     H75958   6.713   9.571   0.912  2.2952 -1.1074  1.2621
  563MOL0     H75959   6.946   9.550   0.820  0.5127  0.0436  0.7597
  563MOL0     H75960   6.930   9.691   0.719  0.2756 -0.1232  1.1570
  563MOL0     H75961   6.909   9.664   1.029  0.8665 -0.5998 -0.2447
  563MOL0     H75962   6.891   9.821   0.949 -2.4919 -1.1388  1.8232
  563MOL0     H75963   7.127   9.633   0.936  1.5133  0.5236 -3.1036
  563MOL0     H75964   7.116   9.783   1.028 -1.3735  0.4646  0.1047
  563MOL0     H75965   7.332   9.624   0.920 -1.8159  1.4650  0.6810
  563MOL0     H75966   7.569   9.665   0.926 -2.1292 -0.7554  1.8825
  563MOL0     H75967   7.958   9.784   0.666  1.8056  2.2678 -1.1406
  563MOL0     H75968   8.184   9.751   0.685  1.8079 -2.2231  1.2680
  563MOL0     H75969   8.397   9.750   1.087  4.3180  1.5153 -1.4614
  563MOL0     H75970   8.369   9.575   1.060  2.0458 -0.3187  1.6798
  563MOL0     H75971   8.536   9.592   0.879 -3.4574 -0.7607  0.8965
  563MOL0     H75972   8.563   9.765   0.925 -0.5748 -0.9477 -2.5123
  563MOL0     H75973   8.753   9.654   1.017 -0.2824  3.3648  1.1752
  563MOL0     H75974   8.634   9.673   1.149 -2.6615  1.3555 -1.6875
  563MOL0     H75975   8.661   9.419   0.967  0.5688  2.8259 -0.2305
  563MOL0     H75976   8.574   9.437   1.125  0.6446  1.6468  1.1200
  563MOL0     H75977   8.822   9.459   1.219  3.2770 -1.6188 -0.9651
  563MOL0     H75978   8.880   9.441   1.070 -0.1930 -1.0548  0.2753
  563MOL0     H75979   8.701   9.209   1.136 -0.6046  1.7196  1.6681
  563MOL0     H75980   8.837   9.239   1.028  0.8002 -2.0163  0.5258
  563MOL0     H75981   8.912   9.276   1.312 -2.8573  0.4581  1.5594
  563MOL0     H75982   8.978   9.159   1.194  0.2842 -0.0132  0.5996
  563MOL0     H75983   8.709   9.147   1.347  0.0394 -3.3292  2.8840
  563MOL0     H75984   8.783   9.016   1.246  2.2051 -0.6109 -0.1475
  563MOL0     H75985   8.162   9.739   1.117 -0.5875 -0.7125  0.8731
  563MOL0     H75986   7.936   9.801   1.103  1.5042 -0.8321  1.3441
  563MOL0     H75987   7.491   9.997   0.648 -0.7113  0.2677  0.4510
  563MOL0     H75988   7.258   9.934   0.649  0.1368 -0.0008 -0.4158
  563MOL0     H75989   5.747   8.845   0.186 -2.7454  0.7828 -2.7053
  563MOL0     H75990   5.546   8.741   0.213 -1.1898  0.1034 -0.0935
  563MOL0     H75991   5.278   8.406   0.424 -0.6234 -0.6693 -0.7428
  563MOL0     H75992   5.069   8.296   0.434 -1.0715 -0.5052 -0.3424
  563MOL0     H75993   4.745   8.485   0.238  2.1624  0.3965  0.6102
  563MOL0     H75994   4.682   8.547   0.395  1.3902 -0.6289  0.2670
  563MOL0     H75995   4.628   8.273   0.283  0.3407  1.1665 -0.8004
  563MOL0     H75996   4.505   8.398   0.312 -0.9628  0.6547  3.5839
  563MOL0     H75997   4.531   8.375   0.559 -0.1990 -1.2184  2.0173
  563MOL0     H75998   4.666   8.267   0.540 -1.5966 -0.5034  0.7795
  563MOL0     H75999   4.378   8.206   0.468  0.3824  0.5860 -0.2582
  563MOL0     H76000   4.506   8.120   0.384 -1.2783 -0.8050 -0.0806
  563MOL0     H76001   4.532   7.967   0.779 -1.7501  1.0041  1.0276
  563MOL0     H76002   4.857   8.667   0.389  1.0262  2.0346  0.2366
  563MOL0     H76003   5.113   8.870   0.475 -1.4906 -0.0479 -0.1124
  563MOL0     H76004   5.120   8.874   0.302  0.0650  1.3130 -0.2820
  563MOL0     H76005   4.961   8.862   0.388  0.4672  0.5131 -2.8147
  564MOL0     O76006   4.039   7.208   0.657  0.0403  0.4247  0.0607
  564MOL0     C76007   3.946   7.120   0.673  0.0729  0.5177 -0.9056
  564MOL0     O76008   3.957   6.998   0.730 -1.0102  0.4543 -0.5551
  564MOL0     C76009   4.079   6.941   0.764  0.0645 -0.3967  0.3370
  564MOL0     C76010   4.094   6.802   0.750  0.5597 -0.6695  0.6069
  564MOL0     C76011   4.209   6.734   0.785 -1.4108 -0.4461  0.3922
  564MOL0     C76012   4.314   6.811   0.837  0.1979  0.8664  0.2542
  564MOL0     O76013   4.418   6.739   0.886  0.5357  0.4706 -0.1143
  564MOL0     C76014   4.542   6.810   0.917 -0.3640  0.5559 -0.3380
  564MOL0     C76015   4.647   6.691   0.949  0.1778 -0.2599 -0.3256
  564MOL0     C76016   4.786   6.761   0.941  0.1625 -0.1210 -0.7965
  564MOL0     C76017   4.896   6.666   0.911 -0.5852 -0.3464  0.1546
  564MOL0     C76018   5.021   6.732   0.869  0.2407 -0.5076  0.1408
  564MOL0     C76019   5.103   6.811   0.974  0.0771  1.0285 -1.2682
  564MOL0     C76020   5.218   6.883   0.924 -0.7369  0.1989  0.5834
  564MOL0     C76021   5.270   6.972   1.041  0.4519 -0.0962 -0.6463
  564MOL0     N76022   5.398   7.035   1.014 -0.1646  0.2877 -0.3106
  564MOL0     C76023   5.521   6.974   1.003  0.8304  0.1677 -0.3652
  564MOL0     C76024   5.595   7.076   0.940 -0.7215 -0.4227  0.2047
  564MOL0     C76025   5.735   7.039   0.911 -0.0269  0.5389 -0.1511
  564MOL0     C76026   5.833   7.101   1.015  0.3993 -0.5051 -1.1605
  564MOL0     C76027   5.823   7.047   1.151  0.3350 -1.3003  0.0894
  564MOL0     C76028   5.956   7.045   1.228  0.2929  0.3868 -0.6855
  564MOL0     O76029   6.028   7.166   1.242 -0.1218 -0.4644 -0.2641
  564MOL0     C76030   6.125   7.175   1.344  0.1632 -0.0125 -0.2255
  564MOL0     C76031   6.198   7.064   1.387 -0.4556  0.0497  0.1627
  564MOL0     C76032   6.289   7.078   1.489 -1.2776  0.2819  0.4331
  564MOL0     C76033   6.337   7.206   1.535  0.2388  0.7750  0.7994
  564MOL0     C76034   6.449   7.215   1.638  1.5656  0.3499  0.2306
  564MOL0     O76035   6.472   7.343   1.684 -1.0334 -0.3564  0.2065
  564MOL0     C76036   6.553   7.375   1.790  0.2205 -0.0492  0.3925
  564MOL0     C76037   6.656   7.295   1.844  0.0201  0.4433  0.4701
  564MOL0     C76038   6.724   7.335   1.963  1.0829  1.0259  0.1075
  564MOL0     C76039   6.702   7.460   2.015 -0.2378  0.7748  0.1577
  564MOL0     O76040   6.783   7.496   2.115  0.5971 -0.2312 -1.0131
  564MOL0     C76041   6.797   7.637   2.144  0.1739 -0.2789 -0.2459
  564MOL0     C76042   6.924   7.677   2.225  0.4819  0.4460 -0.1681
  564MOL0     C76043   6.882   7.662   2.369 -0.8084  0.8005  0.1041
  564MOL0     C76044   6.988   7.702   2.469 -0.4119  0.8597 -0.6535
  564MOL0     C76045   7.024   7.850   2.462 -0.1520 -0.0208 -0.8659
  564MOL0     C76046   7.096   7.893   2.587  0.5137 -0.4648 -0.0062
  564MOL0     C76047   7.251   7.862   2.609  0.4258 -0.1620  0.3890
  564MOL0     C76048   7.342   7.946   2.519 -0.4561  0.2394 -0.0543
  564MOL0    Cl76049   7.327   8.130   2.552 -0.5547  0.1321  0.1256
  564MOL0     C76050   6.612   7.545   1.948 -0.3860 -0.0986  0.4317
  564MOL0     C76051   6.533   7.506   1.839 -0.5092  0.4500 -0.1192
  564MOL0     O76052   6.486   7.113   1.692  0.0148 -0.4437  0.1063
  564MOL0     C76053   6.270   7.314   1.483  0.1619 -0.4561  0.9452
  564MOL0     C76054   6.164   7.303   1.389  0.4735 -0.1770 -1.2770
  564MOL0     N76055   5.524   7.194   0.932 -0.5901 -0.0548  0.1178
  564MOL0     N76056   5.405   7.172   0.979  0.1589  0.1374 -0.1354
  564MOL0     C76057   4.300   6.945   0.858 -0.1271 -0.3889 -0.6070
  564MOL0     C76058   4.182   7.011   0.817 -0.3450 -0.3091 -0.1756
  564MOL0     C76059   3.809   7.160   0.629 -0.0462  0.2713 -0.1078
  564MOL0     C76060   3.718   7.061   0.633  0.3396  0.3969 -0.7925
  564MOL0     C76061   3.578   7.082   0.619 -0.1491  0.2256 -0.1042
  564MOL0     C76062   3.531   7.210   0.597 -0.0026 -0.5949 -0.3039
  564MOL0     O76063   3.396   7.237   0.599  0.4796  0.0831  0.6980
  564MOL0     C76064   3.341   7.238   0.725  0.4413 -0.9515  0.4790
  564MOL0     C76065   3.190   7.229   0.722  0.5017  0.1777 -0.3170
  564MOL0     C76066   3.134   7.166   0.857 -0.7833  0.1532  0.5341
  564MOL0     C76067   2.985   7.141   0.859 -0.5226  0.0491 -0.5233
  564MOL0     C76068   2.955   7.110   1.003 -0.0585  0.2135  0.4322
  564MOL0     C76069   2.919   7.066   1.112 -0.0563 -0.6220  0.5258
  564MOL0     C76070   3.622   7.317   0.586  1.0822  0.1245  0.2462
  564MOL0     C76071   3.759   7.295   0.607 -0.2408  0.8420 -0.3426
  564MOL0     C76072   3.849   7.421   0.592  0.0896 -1.2728 -0.1813
  564MOL0     H76073   4.016   6.745   0.701  0.1849  2.1890 -2.4364
  564MOL0     H76074   4.238   6.631   0.769 -0.6789 -0.0944 -0.6104
  564MOL0     H76075   4.568   6.880   0.837  0.6713  1.8144  1.0378
  564MOL0     H76076   4.541   6.862   1.013 -2.3457 -1.4783  0.8452
  564MOL0     H76077   4.639   6.615   0.870  1.7616 -1.0621  0.2437
  564MOL0     H76078   4.631   6.640   1.045  0.5793  1.3757  0.6380
  564MOL0     H76079   4.811   6.820   1.029  2.3528 -1.3687 -0.5001
  564MOL0     H76080   4.777   6.839   0.865 -0.9146  1.9425  1.3508
  564MOL0     H76081   4.910   6.621   1.010  2.9493 -0.1025 -0.1307
  564MOL0     H76082   4.863   6.585   0.845  0.2245 -1.6842  1.3227
  564MOL0     H76083   5.091   6.659   0.828  0.2273 -1.1946  1.2844
  564MOL0     H76084   5.002   6.797   0.783  0.3715  1.6156  1.6405
  564MOL0     H76085   5.037   6.885   1.019 -3.0911 -2.6736  0.8037
  564MOL0     H76086   5.138   6.736   1.046  1.7807  1.4986 -1.5596
  564MOL0     H76087   5.178   6.948   0.846 -1.9010  2.8813  3.2119
  564MOL0     H76088   5.296   6.812   0.894  0.6356  1.6711  0.5735
  564MOL0     H76089   5.204   7.059   1.040 -2.7144 -2.0559  3.4541
  564MOL0     H76090   5.268   6.924   1.140 -1.8825  2.6873  0.8087
  564MOL0     H76091   5.561   6.879   1.037  0.2183 -0.1067 -0.3885
  564MOL0     H76092   5.746   6.930   0.919  0.6554  0.7498  4.9104
  564MOL0     H76093   5.770   7.082   0.816  0.9917 -0.5419 -0.2847
  564MOL0     H76094   5.930   7.082   0.967  0.1930 -1.3417 -1.2535
  564MOL0     H76095   5.816   7.209   1.023 -0.3752 -0.7120  0.1322
  564MOL0     H76096   5.789   6.943   1.153 -0.5142 -1.2573 -4.0201
  564MOL0     H76097   5.743   7.107   1.195  3.0773  1.3466  1.8462
  564MOL0     H76098   6.025   6.970   1.188  0.7200  1.1323 -1.3785
  564MOL0     H76099   5.941   6.997   1.325  0.3918  2.0744  0.1999
  564MOL0     H76100   6.185   6.963   1.349 -0.4514 -0.0902  0.5280
  564MOL0     H76101   6.343   6.991   1.528  0.9530  0.7648 -1.3236
  564MOL0     H76102   6.676   7.191   1.817  2.8663  0.9164  0.4221
  564MOL0     H76103   6.795   7.271   2.013  0.4710  0.9215  0.8672
  564MOL0     H76104   6.814   7.687   2.049 -1.8110  1.5884  0.3001
  564MOL0     H76105   6.708   7.679   2.193 -1.5960 -2.4861 -1.3438
  564MOL0     H76106   7.015   7.621   2.200  1.6098  2.1785 -0.1301
  564MOL0     H76107   6.950   7.782   2.209  2.6964  1.0710  5.3818
  564MOL0     H76108   6.797   7.721   2.405 -0.6518 -0.0570  1.9790
  564MOL0     H76109   6.861   7.556   2.377  0.6312  0.3239 -1.6255
  564MOL0     H76110   7.072   7.635   2.488 -0.3624  0.5927 -1.7486
  564MOL0     H76111   6.929   7.696   2.561  0.0291 -0.6541 -0.4472
  564MOL0     H76112   6.936   7.911   2.441 -0.9415  0.4623  3.1228
  564MOL0     H76113   7.090   7.843   2.375 -0.5529  0.9957 -1.2680
  564MOL0     H76114   7.077   8.000   2.602 -2.2710 -0.6718 -1.3698
  564MOL0     H76115   7.040   7.835   2.660 -0.1244 -1.7013 -1.4373
  564MOL0     H76116   7.271   7.758   2.581 -1.9037 -0.1234 -1.8398
  564MOL0     H76117   7.272   7.893   2.712  1.9480  2.2027 -0.5310
  564MOL0     H76118   7.445   7.912   2.525 -1.4485 -3.4244 -1.3333
  564MOL0     H76119   7.309   7.925   2.417 -1.6863  0.5807  0.2491
  564MOL0     H76120   6.592   7.644   1.988  2.6831  1.1114 -0.6863
  564MOL0     H76121   6.456   7.571   1.800 -1.2558  0.3811  1.2041
  564MOL0     H76122   6.295   7.410   1.527 -1.3294  0.5482 -0.2888
  564MOL0     H76123   6.124   7.391   1.340  1.8436  0.2122 -1.7197
  564MOL0     H76124   4.375   7.002   0.912 -0.6932  2.7197 -2.8400
  564MOL0     H76125   4.166   7.118   0.826 -0.6733 -0.4043  0.3701
  564MOL0     H76126   3.747   6.958   0.651 -1.1488  0.2202  0.8697
  564MOL0     H76127   3.518   6.992   0.607 -1.3654  1.0617 -0.4772
  564MOL0     H76128   3.372   7.334   0.769  3.0952 -0.8719 -1.3115
  564MOL0     H76129   3.389   7.158   0.782  2.0195 -0.2650  0.1659
  564MOL0     H76130   3.163   7.166   0.636  0.6539 -2.4271  1.4199
  564MOL0     H76131   3.149   7.328   0.703  0.2071 -0.5843 -4.6569
  564MOL0     H76132   3.152   7.229   0.945 -2.9448  0.0256  1.1125
  564MOL0     H76133   3.175   7.064   0.865  0.6230  0.7204  0.8649
  564MOL0     H76134   2.918   7.223   0.833 -2.6182 -1.5546 -0.5177
  564MOL0     H76135   2.959   7.062   0.788 -0.5582 -0.8178  0.4167
  564MOL0     H76136   2.879   7.018   1.199  1.8899 -1.6696  0.9002
  564MOL0     H76137   3.590   7.417   0.558  3.4362  1.1227  0.8127
  564MOL0     H76138   3.926   7.412   0.669 -0.3025 -2.5346  0.0864
  564MOL0     H76139   3.895   7.431   0.494 -2.0191 -0.0410 -1.1185
  564MOL0     H76140   3.789   7.512   0.603  0.0024 -0.8095 -3.5930
  565MOL0     O76141   4.717  11.006  10.957  0.8436 -0.5131  0.0283
  565MOL0     C76142   4.669  11.116  10.987 -1.1800  0.2108  0.3196
  565MOL0     O76143   4.716  11.236  10.943  0.1217 -0.6553 -0.4586
  565MOL0     C76144   4.821  11.240  10.857 -0.6136  0.2871 -0.0214
  565MOL0     C76145   4.811  11.296  10.722 -1.3552 -0.5216  0.0357
  565MOL0     C76146   4.921  11.334  10.649  0.6765  0.3652  0.7185
  565MOL0     C76147   5.049  11.306  10.697  0.5833 -0.3735  0.0031
  565MOL0     O76148   5.149  11.341  10.613  0.4834 -0.4146  0.6362
  565MOL0     C76149   5.262  11.416  10.671  0.9513 -0.8607  0.7785
  565MOL0     C76150   5.329  11.499  10.553  0.4708 -1.7201 -0.3975
  565MOL0     C76151   5.425  11.411  10.469  0.1297  0.0167 -0.0150
  565MOL0     C76152   5.426  11.443  10.316 -0.4947  0.6342  0.2471
  565MOL0     C76153   5.535  11.383  10.225 -0.0617  0.0457  0.1074
  565MOL0     C76154   5.662  11.457  10.238  0.1829  0.7291 -0.0733
  565MOL0     C76155   5.761  11.413  10.130 -0.5213 -0.3779  0.1214
  565MOL0     C76156   5.785  11.265  10.108  0.6212 -0.6934  1.1524
  565MOL0     N76157   5.839  11.200  10.230  0.4616 -0.2325 -0.6919
  565MOL0     C76158   5.971  11.170  10.232  0.2539 -0.6017  0.4330
  565MOL0     C76159   6.004  11.162  10.356  0.4584 -0.2702 -0.4109
  565MOL0     C76160   6.145  11.141  10.406  0.0869  0.4974 -0.1672
  565MOL0     C76161   6.252  11.246  10.362 -1.1797  0.0044  0.9561
  565MOL0     C76162   6.384  11.227  10.450  0.0240 -0.1749 -0.7343
  565MOL0     C76163   6.485  11.328  10.408 -0.7628  0.5016  0.0715
  565MOL0     O76164   6.532  11.305  10.269  0.8042  0.4988 -0.7039
  565MOL0     C76165   6.641  11.377  10.228 -0.8380 -0.6900  0.0283
  565MOL0     C76166   6.678  11.501  10.281 -0.8470  0.1446 -0.7193
  565MOL0     C76167   6.800  11.558  10.257  0.9056  0.9772  0.6158
  565MOL0     C76168   6.890  11.494  10.164  0.9856 -0.3901  0.1450
  565MOL0     C76169   7.015  11.560  10.129 -0.5183  0.0569 -0.1853
  565MOL0     O76170   7.049  11.672  10.204  0.3890  0.0336 -0.0540
  565MOL0     C76171   7.171  11.738  10.214 -1.3481  0.7810  0.7764
  565MOL0     C76172   7.283  11.688  10.150 -0.6620 -0.1411 -0.2065
  565MOL0     C76173   7.409  11.749  10.174  0.1560  0.1549  0.3123
  565MOL0     C76174   7.421  11.855  10.267  0.6766 -0.0714 -0.6729
  565MOL0     O76175   7.546  11.900  10.290  0.1674  0.0145  0.1414
  565MOL0     C76176   7.567  12.041  10.324 -0.0577 -0.4918 -0.1619
  565MOL0     C76177   7.713  12.076  10.307 -0.6231  1.2103 -0.0887
  565MOL0     C76178   7.814  11.996  10.395 -0.7968 -0.5902  0.0098
  565MOL0     C76179   7.934  12.089  10.429  0.0675 -0.2313 -0.4819
  565MOL0     C76180   8.060  12.013  10.491 -0.3397 -0.5491 -1.0502
  565MOL0     C76181   8.189  12.092  10.477  0.6846  0.2031  0.0838
  565MOL0     C76182   8.296  12.014  10.552  0.1333 -0.5491  0.2471
  565MOL0     C76183   8.429  12.095  10.545 -0.8242  0.3743 -0.6241
  565MOL0    Cl76184   8.501  12.123  10.383 -0.0914  0.5408  0.2298
  565MOL0     C76185   7.308  11.910  10.327  0.3681 -0.5973 -0.6763
  565MOL0     C76186   7.182  11.851  10.291 -0.4561 -0.1639  0.7437
  565MOL0     O76187   7.079  11.510  10.035  0.7676  0.2383 -0.1405
  565MOL0     C76188   6.847  11.373  10.099 -0.3142  0.4760  0.2335
  565MOL0     C76189   6.729  11.316  10.136  0.6577  0.1438  0.0370
  565MOL0     N76190   5.889  11.168  10.442 -0.2752  0.5906  0.5883
  565MOL0     N76191   5.795  11.200  10.362  0.4255 -0.2832 -0.3264
  565MOL0     C76192   5.063  11.237  10.819 -0.3339 -0.1058 -0.6259
  565MOL0     C76193   4.954  11.208  10.888 -0.2642  0.6929 -0.2039
  565MOL0     C76194   4.551  11.121  11.076 -0.3903  0.6409 -0.7783
  565MOL0     C76195   4.473  11.245  11.071 -0.7204  0.0230 -0.8478
  565MOL0     C76196   4.354  11.250  11.157 -0.4425 -0.0463 -0.3760
  565MOL0     C76197   4.313  11.139  11.229  0.6018  0.4322 -0.0241
  565MOL0     O76198   4.217  11.141  11.326 -0.1645 -0.1643  0.1413
  565MOL0     C76199   4.083  11.203  11.296 -0.7628  0.4993 -0.1900
  565MOL0     C76200   3.966  11.134  11.375 -0.2642 -0.1479  0.3742
  565MOL0     C76201   3.827  11.209  11.350  0.5230 -0.2132 -1.0609
  565MOL0     C76202   3.718  11.124  11.288 -0.1712  0.3108  0.2307
  565MOL0     C76203   3.689  11.008  11.383  0.0653  0.0675  0.1538
  565MOL0     C76204   3.680  10.907  11.449  0.1964  0.6593  0.0438
  565MOL0     C76205   4.389  11.020  11.227 -0.4191 -0.1751  0.5182
  565MOL0     C76206   4.507  11.007  11.158  1.1351  0.4818  0.1640
  565MOL0     C76207   4.591  10.884  11.191  0.3847  0.3718  0.2893
  565MOL0     H76208   4.713  11.317  10.683 -0.6610  0.6391 -1.1471
  565MOL0     H76209   4.892  11.385  10.558 -0.9885 -3.1613 -0.8893
  565MOL0     H76210   5.217  11.484  10.743  1.3759  1.9112 -1.3657
  565MOL0     H76211   5.336  11.348  10.714  2.7880  0.0054 -0.8172
  565MOL0     H76212   5.380  11.589  10.590 -0.5935 -1.6547  1.0035
  565MOL0     H76213   5.242  11.541  10.501  1.8689 -0.8985 -2.2000
  565MOL0     H76214   5.399  11.308  10.494 -1.3665  0.7422  1.5934
  565MOL0     H76215   5.525  11.432  10.509 -0.2260 -0.5578  1.2272
  565MOL0     H76216   5.326  11.410  10.287 -0.9856  3.8485 -2.1859
  565MOL0     H76217   5.425  11.551  10.306 -1.3492  0.5820 -0.3093
  565MOL0     H76218   5.548  11.275  10.240 -0.0379 -0.0944 -0.9070
  565MOL0     H76219   5.496  11.383  10.123  1.9076 -2.8353 -0.7571
  565MOL0     H76220   5.641  11.562  10.215  0.4664  0.9899  0.8095
  565MOL0     H76221   5.706  11.452  10.338  0.5064 -5.3381 -0.1508
  565MOL0     H76222   5.857  11.455  10.163 -0.0568 -0.5061 -1.0116
  565MOL0     H76223   5.739  11.468  10.038  1.7080  1.5828  0.6650
  565MOL0     H76224   5.690  11.216  10.086  0.4145  0.1673  0.0895
  565MOL0     H76225   5.852  11.245  10.024  0.3062 -1.5008  1.0905
  565MOL0     H76226   6.028  11.182  10.140  0.7124  0.1679  0.8057
  565MOL0     H76227   6.134  11.147  10.515 -0.5476  2.5652 -0.3087
  565MOL0     H76228   6.181  11.040  10.385  0.0156  1.1031 -3.8375
  565MOL0     H76229   6.275  11.240  10.255  1.0271 -1.4189  1.4189
  565MOL0     H76230   6.214  11.348  10.367  0.0762  0.5518 -0.1623
  565MOL0     H76231   6.410  11.121  10.444  1.6386  0.1439 -0.0206
  565MOL0     H76232   6.355  11.243  10.554 -2.6114 -0.4331 -1.3583
  565MOL0     H76233   6.574  11.309  10.469 -0.2890 -1.8310 -1.2362
  565MOL0     H76234   6.430  11.422  10.413 -0.0855  1.0344 -1.7616
  565MOL0     H76235   6.616  11.551  10.356 -2.7218 -0.9965 -1.4377
  565MOL0     H76236   6.829  11.654  10.300 -0.7090  1.9991 -0.4654
  565MOL0     H76237   7.279  11.607  10.078 -0.9978  1.4535 -2.0610
  565MOL0     H76238   7.499  11.700  10.137 -0.5356  0.2972 -1.6907
  565MOL0     H76239   7.511  12.115  10.265  1.6479  2.8340  2.0735
  565MOL0     H76240   7.528  12.053  10.426 -0.7877 -2.7567 -0.1297
  565MOL0     H76241   7.741  12.044  10.206 -0.7908 -0.4466  0.3622
  565MOL0     H76242   7.720  12.185  10.315 -1.9998  1.1814  4.5055
  565MOL0     H76243   7.771  11.951  10.485  0.9858 -1.6388  0.3923
  565MOL0     H76244   7.855  11.909  10.343  1.1863  0.7226 -0.7163
  565MOL0     H76245   7.895  12.160  10.502 -1.2992 -1.6722  0.2430
  565MOL0     H76246   7.975  12.140  10.341  0.5646  0.4802  0.1557
  565MOL0     H76247   8.070  11.921  10.432 -2.4963 -0.9498 -0.8659
  565MOL0     H76248   8.047  11.986  10.596  3.5256 -0.9135 -0.4967
  565MOL0     H76249   8.222  12.100  10.373  1.7057 -0.1055  0.3678
  565MOL0     H76250   8.184  12.191  10.523 -0.4211  0.8696 -1.3874
  565MOL0     H76251   8.318  11.921  10.500  0.1609 -0.5288  0.2232
  565MOL0     H76252   8.263  11.993  10.654 -2.6549 -0.9850 -0.6511
  565MOL0     H76253   8.404  12.184  10.603 -2.3419 -0.5583  0.2169
  565MOL0     H76254   8.495  12.038  10.611 -0.8781 -1.9043 -2.4112
  565MOL0     H76255   7.314  12.005  10.379 -1.2237 -0.0953 -1.3659
  565MOL0     H76256   7.092  11.891  10.336 -0.2019  1.4886 -0.1384
  565MOL0     H76257   6.907  11.319  10.026 -0.3847 -0.2144  0.6764
  565MOL0     H76258   6.701  11.218  10.098  0.2481  0.2919 -0.0472
  565MOL0     H76259   5.159  11.218  10.865 -0.0709 -0.5254 -1.3373
  565MOL0     H76260   4.974  11.171  10.988  1.1858 -1.0067 -1.0599
  565MOL0     H76261   4.513  11.326  11.010  1.7305 -1.2902 -1.0883
  565MOL0     H76262   4.303  11.346  11.164  2.5591  1.8377 -2.2729
  565MOL0     H76263   4.063  11.193  11.189 -0.8999  0.3271 -0.1482
  565MOL0     H76264   4.084  11.309  11.323 -0.9457  0.0786  1.5562
  565MOL0     H76265   3.978  11.141  11.483 -0.1656 -0.3138  0.3746
  565MOL0     H76266   3.963  11.028  11.347  1.2759 -0.6372  1.8592
  565MOL0     H76267   3.844  11.294  11.284 -0.1187 -1.8154 -3.4379
  565MOL0     H76268   3.793  11.242  11.448 -1.8641 -2.5385 -0.9954
  565MOL0     H76269   3.627  11.181  11.267 -1.3413 -1.8502 -0.9075
  565MOL0     H76270   3.765  11.089  11.195  0.3522 -1.0375  0.9655
  565MOL0     H76271   3.675  10.817  11.506 -0.9216 -1.1041 -2.6043
  565MOL0     H76272   4.356  10.935  11.287  1.3741 -2.3155 -1.3302
  565MOL0     H76273   4.595  10.859  11.297  1.8853  2.0325  0.6689
  565MOL0     H76274   4.569  10.791  11.137 -0.9384  0.0675  1.2897
  565MOL0     H76275   4.697  10.898  11.170  0.3937 -1.8163 -1.5191
  566MOL0     O76276   2.922   1.098   0.108  0.2009  0.0525  0.1230
  566MOL0     C76277   2.829   1.111   0.021  1.1990  0.8867  1.1750
  566MOL0     O76278   2.848   1.178  -0.098 -0.3548 -0.0188 -0.0793
  566MOL0     C76279   2.970   1.229  -0.143 -0.1563  1.1060 -1.1736
  566MOL0     C76280   3.033   1.318  -0.064  1.3025  0.5326 -0.1786
  566MOL0     C76281   3.154   1.376  -0.110  0.1543 -0.1075 -1.2593
  566MOL0     C76282   3.208   1.358  -0.233  0.4255  0.1993  0.3147
  566MOL0     O76283   3.320   1.423  -0.267  0.3951  0.2941 -0.8326
  566MOL0     C76284   3.376   1.392  -0.395  0.1662 -0.5927 -0.1002
  566MOL0     C76285   3.502   1.479  -0.394 -0.8706  1.1978 -0.7253
  566MOL0     C76286   3.604   1.443  -0.293 -0.2623  1.6593 -0.3353
  566MOL0     C76287   3.745   1.505  -0.297  0.1041  0.1830  0.3353
  566MOL0     C76288   3.833   1.466  -0.418  0.2876  1.0788  0.5621
  566MOL0     C76289   3.809   1.324  -0.471 -0.2680 -0.3466 -0.4946
  566MOL0     C76290   3.902   1.283  -0.589 -0.0244 -0.1314  0.2879
  566MOL0     C76291   3.885   1.144  -0.655 -0.5299  0.3761  0.8253
  566MOL0     N76292   4.016   1.095  -0.716 -0.0373 -0.4280 -0.5586
  566MOL0     C76293   4.058   0.964  -0.715  0.2205 -0.4197 -1.0797
  566MOL0     C76294   4.179   0.972  -0.767  0.0696 -0.6392 -0.7323
  566MOL0     C76295   4.295   0.871  -0.770 -0.6173  0.4458 -0.0308
  566MOL0     C76296   4.392   0.869  -0.658 -0.4011  0.3616 -1.5575
  566MOL0     C76297   4.487   0.988  -0.646  0.3507 -1.2164  0.3351
  566MOL0     C76298   4.596   0.993  -0.755 -0.5062 -0.1783  0.7423
  566MOL0     O76299   4.696   0.897  -0.727  0.2781 -0.2826 -0.5062
  566MOL0     C76300   4.807   0.886  -0.801 -0.9788 -0.0892 -0.2614
  566MOL0     C76301   4.892   0.777  -0.789  0.1949 -0.0630  0.0085
  566MOL0     C76302   4.999   0.745  -0.877  0.0637 -0.5364 -0.3263
  566MOL0     C76303   5.021   0.831  -0.983  0.0889 -0.1339 -0.5496
  566MOL0     C76304   5.138   0.805  -1.077  0.2646 -0.3431 -0.3708
  566MOL0     O76305   5.241   0.728  -1.025  0.8696  0.1377  0.0033
  566MOL0     C76306   5.346   0.695  -1.100  0.1372 -0.3464 -0.5574
  566MOL0     C76307   5.355   0.667  -1.236 -0.9745  0.0737 -0.3372
  566MOL0     C76308   5.478   0.638  -1.298 -0.0726  0.5276  0.4836
  566MOL0     C76309   5.600   0.625  -1.224 -0.2115  0.8749  0.4046
  566MOL0     O76310   5.728   0.587  -1.261  0.2042 -0.1828  0.1440
  566MOL0     C76311   5.750   0.514  -1.384  0.6836 -0.4579 -0.0532
  566MOL0     C76312   5.789   0.603  -1.497  0.2289  0.4195 -0.1825
  566MOL0     C76313   5.782   0.528  -1.634  0.0933  0.6220  0.2091
  566MOL0     C76314   5.799   0.635  -1.741 -0.5882  1.4310 -0.0681
  566MOL0     C76315   5.946   0.676  -1.755  0.0694  0.2178 -0.5142
  566MOL0     C76316   5.975   0.787  -1.852  0.2650  0.1589 -0.5284
  566MOL0     C76317   6.082   0.885  -1.804 -0.3753  0.0073  0.0182
  566MOL0     C76318   6.140   0.957  -1.916 -0.2759 -0.2140 -0.4536
  566MOL0    Cl76319   6.003   1.055  -1.995 -0.1820  0.4977 -0.4771
  566MOL0     C76320   5.592   0.661  -1.091 -0.3141  0.1953  0.2400
  566MOL0     C76321   5.465   0.694  -1.024 -0.3239 -0.4877  0.1072
  566MOL0     O76322   5.135   0.856  -1.190 -0.1969 -0.2242 -0.5814
  566MOL0     C76323   4.939   0.948  -0.996 -1.1136 -0.6619 -0.3408
  566MOL0     C76324   4.835   0.974  -0.899 -0.3782 -0.4318 -0.1262
  566MOL0     N76325   4.209   1.101  -0.797  0.8447  0.2214 -0.1311
  566MOL0     N76326   4.113   1.180  -0.766  0.8071 -0.9591  0.5380
  566MOL0     C76327   3.138   1.270  -0.317  0.5935  1.0017  0.5464
  566MOL0     C76328   3.023   1.206  -0.269  0.9349 -0.2692  0.4756
  566MOL0     C76329   2.694   1.061   0.052 -0.7837  0.9714  0.4130
  566MOL0     C76330   2.592   1.106  -0.028 -0.1880  0.2621  0.2463
  566MOL0     C76331   2.469   1.053  -0.021 -0.4409 -0.1665 -0.4750
  566MOL0     C76332   2.444   0.966   0.083  0.2847  0.3292 -0.2220
  566MOL0     O76333   2.322   0.909   0.088  0.2848 -0.0700  0.5562
  566MOL0     C76334   2.291   0.808   0.187 -0.3306  0.3806  0.1075
  566MOL0     C76335   2.137   0.817   0.209 -0.9122  0.5871 -0.4830
  566MOL0     C76336   2.083   0.961   0.236 -0.2276 -0.7442 -0.6778
  566MOL0     C76337   1.926   0.959   0.247  0.1379  0.2060  0.8620
  566MOL0     C76338   1.849   0.913   0.124 -0.7833 -0.3491  0.7601
  566MOL0     C76339   1.798   0.876   0.022 -0.3038  0.0881  0.4876
  566MOL0     C76340   2.540   0.923   0.181  0.2448 -0.1217  0.2669
  566MOL0     C76341   2.666   0.973   0.170  0.3648 -0.5581 -0.5231
  566MOL0     C76342   2.762   0.935   0.281 -0.5631  0.1469  0.4119
  566MOL0     H76343   2.996   1.335   0.036  1.0323 -0.1479 -0.1618
  566MOL0     H76344   3.208   1.434  -0.037  2.4172 -3.1216 -0.3225
  566MOL0     H76345   3.398   1.289  -0.424  0.1832 -0.0163 -2.3185
  566MOL0     H76346   3.304   1.430  -0.468 -0.8758 -2.1326  0.0784
  566MOL0     H76347   3.472   1.582  -0.371  0.3828  1.2406  0.9715
  566MOL0     H76348   3.551   1.484  -0.491  0.2235 -0.8631 -0.3388
  566MOL0     H76349   3.610   1.334  -0.282  3.8391  1.8159  0.3259
  566MOL0     H76350   3.563   1.464  -0.194  2.1327  2.0188  0.6363
  566MOL0     H76351   3.725   1.611  -0.317 -0.7821 -0.0104  0.1250
  566MOL0     H76352   3.787   1.494  -0.197  0.9641  1.3651  0.1281
  566MOL0     H76353   3.821   1.539  -0.498 -2.8914  1.3366  1.1325
  566MOL0     H76354   3.939   1.467  -0.389  0.9577  1.7527 -1.7581
  566MOL0     H76355   3.827   1.246  -0.397 -0.4590  0.7300  0.7127
  566MOL0     H76356   3.703   1.315  -0.497 -0.2851 -0.3532 -0.4233
  566MOL0     H76357   4.001   1.295  -0.544 -0.5678  1.5000  1.1168
  566MOL0     H76358   3.894   1.366  -0.660  0.6147  1.2780  1.8076
  566MOL0     H76359   3.838   1.075  -0.583 -1.7600  1.1245  0.7660
  566MOL0     H76360   3.821   1.141  -0.744  1.5919 -1.1531 -0.7503
  566MOL0     H76361   4.012   0.879  -0.667 -0.6403 -0.6530 -2.2991
  566MOL0     H76362   4.252   0.771  -0.782 -1.5743  0.9024 -0.5399
  566MOL0     H76363   4.339   0.877  -0.870 -4.0943  0.2897 -1.7081
  566MOL0     H76364   4.335   0.870  -0.564 -0.3172  0.9058 -1.5063
  566MOL0     H76365   4.442   0.772  -0.649 -2.9568 -0.9479  5.9851
  566MOL0     H76366   4.536   0.988  -0.549  0.3237  3.9293  0.5957
  566MOL0     H76367   4.429   1.080  -0.658  1.2273 -1.0060 -3.6209
  566MOL0     H76368   4.631   1.097  -0.754  2.3971 -1.0422  2.4670
  566MOL0     H76369   4.550   0.969  -0.851  1.1365  1.7163 -0.6187
  566MOL0     H76370   4.881   0.708  -0.706 -2.5214  0.2353 -0.0017
  566MOL0     H76371   5.052   0.653  -0.857  1.3114  0.1861 -0.2097
  566MOL0     H76372   5.274   0.669  -1.308  0.3223  1.7549 -1.8262
  566MOL0     H76373   5.468   0.613  -1.403 -1.8478 -0.6143  0.8778
  566MOL0     H76374   5.840   0.454  -1.364 -0.7354 -2.7253 -0.1576
  566MOL0     H76375   5.663   0.452  -1.406 -1.1801  1.3425  1.8196
  566MOL0     H76376   5.714   0.683  -1.503  1.7936  1.8559 -2.0506
  566MOL0     H76377   5.882   0.654  -1.471  1.0527  0.2029 -2.5085
  566MOL0     H76378   5.865   0.458  -1.644  1.3100  1.9701  0.5721
  566MOL0     H76379   5.691   0.471  -1.651 -0.2266  0.7576  1.3583
  566MOL0     H76380   5.732   0.721  -1.729 -2.1257  0.1583  0.9164
  566MOL0     H76381   5.774   0.589  -1.836  1.1284  0.5191 -0.1253
  566MOL0     H76382   6.012   0.593  -1.780  0.3100  1.1215 -3.1682
  566MOL0     H76383   5.970   0.721  -1.658  1.1465 -0.3297 -0.5229
  566MOL0     H76384   6.002   0.747  -1.950  2.3361 -2.0357  0.8128
  566MOL0     H76385   5.877   0.834  -1.857 -1.4269 -2.2077  3.9292
  566MOL0     H76386   6.162   0.848  -1.739  1.7562  1.5996 -1.5779
  566MOL0     H76387   6.042   0.970  -1.747  0.9053  0.3242  0.4864
  566MOL0     H76388   6.213   1.018  -1.861 -1.0039  0.0725  0.2083
  566MOL0     H76389   6.188   0.893  -1.991 -1.2293  0.3066 -1.5464
  566MOL0     H76390   5.687   0.645  -1.040  0.2461 -1.3563 -1.1891
  566MOL0     H76391   5.455   0.715  -0.918 -0.0880  0.3207 -0.0211
  566MOL0     H76392   4.966   1.009  -1.082 -1.2775 -0.0157  0.0585
  566MOL0     H76393   4.778   1.062  -0.927  0.8787  0.6049  0.4369
  566MOL0     H76394   3.173   1.235  -0.413 -2.0909 -2.4394  0.6126
  566MOL0     H76395   2.983   1.134  -0.340  1.1242  0.7886 -0.7331
  566MOL0     H76396   2.605   1.177  -0.109  0.9125 -0.3221 -0.1110
  566MOL0     H76397   2.395   1.072  -0.098 -1.5088  0.4293  0.6618
  566MOL0     H76398   2.323   0.841   0.286 -1.9811 -1.5460  1.3596
  566MOL0     H76399   2.321   0.709   0.151 -0.4057  0.4634 -0.1918
  566MOL0     H76400   2.110   0.750   0.291 -1.4316  1.8354  0.3818
  566MOL0     H76401   2.087   0.774   0.122 -0.5879  0.2283 -0.4978
  566MOL0     H76402   2.115   1.028   0.157 -0.4849 -0.2741 -0.3903
  566MOL0     H76403   2.122   0.994   0.333 -1.9483  2.1687 -0.8496
  566MOL0     H76404   1.895   0.900   0.334 -1.5283 -0.2388  0.0145
  566MOL0     H76405   1.902   1.063   0.271  1.5558  0.5698  0.7556
  566MOL0     H76406   1.770   0.850  -0.078 -0.1081  1.0629  0.1723
  566MOL0     H76407   2.516   0.851   0.259 -0.3766  0.1591  0.3419
  566MOL0     H76408   2.839   0.870   0.240  0.2932  1.9983 -1.0470
  566MOL0     H76409   2.817   1.018   0.328 -3.2983  1.7986  0.9485
  566MOL0     H76410   2.706   0.887   0.362  2.2269 -0.9318  1.8141
  567MOL0     O76411   5.390   3.256   4.696  0.1882  0.4017  0.6022
  567MOL0     C76412   5.355   3.138   4.695  0.1528 -0.2769  0.5446
  567MOL0     O76413   5.444   3.034   4.680 -0.4316  0.5936  0.6814
  567MOL0     C76414   5.579   3.070   4.699 -0.3545  1.6033 -0.7573
  567MOL0     C76415   5.642   3.037   4.817  0.7107 -1.1400  0.1374
  567MOL0     C76416   5.777   3.073   4.835  0.1639  0.0950 -0.4836
  567MOL0     C76417   5.852   3.139   4.739 -0.3213 -0.5989 -0.1665
  567MOL0     O76418   5.990   3.156   4.769  0.2629 -0.8934  0.0372
  567MOL0     C76419   6.066   3.198   4.651 -0.5259  0.0354 -0.4581
  567MOL0     C76420   6.217   3.231   4.662 -0.1504  0.0142 -1.1037
  567MOL0     C76421   6.294   3.099   4.714 -0.0262 -0.2276 -0.8467
  567MOL0     C76422   6.424   3.138   4.762 -0.5637  0.8064  0.4933
  567MOL0     C76423   6.515   3.018   4.801 -0.7851 -0.3232 -0.4753
  567MOL0     C76424   6.645   3.075   4.857  0.1843  0.4176  0.0646
  567MOL0     C76425   6.734   2.977   4.933  0.0729  0.5873 -0.2885
  567MOL0     C76426   6.869   3.050   4.965 -0.2756  0.1814 -0.3928
  567MOL0     N76427   6.967   2.963   5.043 -0.3369 -0.4809 -0.1328
  567MOL0     C76428   7.045   3.003   5.147 -0.0352  0.6693 -0.2946
  567MOL0     C76429   7.126   2.895   5.177  0.5822  0.5994 -0.5074
  567MOL0     C76430   7.220   2.887   5.293 -1.0923 -1.4787 -0.2519
  567MOL0     C76431   7.331   2.999   5.292  0.3417 -0.0509  0.6932
  567MOL0     C76432   7.425   2.987   5.417 -0.1817 -0.6168 -0.0260
  567MOL0     C76433   7.502   2.854   5.412  0.0472 -0.2269 -0.4258
  567MOL0     O76434   7.605   2.851   5.514 -0.0253  0.1031  0.0379
  567MOL0     C76435   7.707   2.766   5.493  0.3721 -0.3295 -0.9955
  567MOL0     C76436   7.836   2.806   5.537  0.6980  0.3233 -0.1736
  567MOL0     C76437   7.943   2.718   5.516  0.4431 -0.1464 -0.2068
  567MOL0     C76438   7.930   2.589   5.451 -0.2424 -0.4841 -0.8538
  567MOL0     C76439   8.042   2.509   5.410  0.3750 -0.5985  0.2810
  567MOL0     O76440   8.166   2.552   5.448 -0.2216 -0.3656 -0.8942
  567MOL0     C76441   8.280   2.510   5.385  0.5468  1.0514  0.1344
  567MOL0     C76442   8.401   2.542   5.445  0.0467  0.5177  0.0526
  567MOL0     C76443   8.517   2.481   5.397  1.4090 -0.0477  0.4389
  567MOL0     C76444   8.525   2.381   5.302  1.1236 -0.4097  0.3957
  567MOL0     O76445   8.640   2.316   5.280 -0.2154 -0.6224  0.1890
  567MOL0     C76446   8.654   2.217   5.184  0.7650  0.5792 -0.6487
  567MOL0     C76447   8.785   2.136   5.187  0.2623 -0.2781 -0.5647
  567MOL0     C76448   8.791   2.078   5.339  0.7993 -0.3430  0.4412
  567MOL0     C76449   8.868   1.947   5.339 -0.0839  0.3695  1.5211
  567MOL0     C76450   8.862   1.880   5.479  0.3664 -0.3114 -0.7421
  567MOL0     C76451   8.981   1.787   5.508 -0.3115  0.3011 -0.3085
  567MOL0     C76452   8.960   1.706   5.627  1.6193 -0.3648  0.3822
  567MOL0     C76453   9.081   1.672   5.713  0.8650 -0.1116  0.9860
  567MOL0    Cl76454   9.213   1.602   5.604 -0.0979  0.0790  0.0751
  567MOL0     C76455   8.404   2.369   5.234 -0.6203 -0.3179  0.0624
  567MOL0     C76456   8.284   2.431   5.270 -0.6855  0.2635 -0.5369
  567MOL0     O76457   8.022   2.409   5.343 -0.1179 -0.2824 -0.3092
  567MOL0     C76458   7.799   2.561   5.408  0.5117  1.1271 -0.4407
  567MOL0     C76459   7.693   2.650   5.420  0.6901  0.2499 -0.0339
  567MOL0     N76460   7.091   2.789   5.090 -0.6372  0.3105  0.1816
  567MOL0     N76461   6.989   2.837   5.011  0.6396 -0.0898  0.4340
  567MOL0     C76462   5.782   3.167   4.623 -0.2091 -0.8071  0.4617
  567MOL0     C76463   5.649   3.134   4.597 -0.1958  0.1698  0.0209
  567MOL0     C76464   5.213   3.115   4.672  0.8206 -0.1700  0.7396
  567MOL0     C76465   5.141   3.152   4.554 -0.3743 -0.2134  0.4200
  567MOL0     C76466   5.004   3.127   4.544  0.3167  0.0489  0.0105
  567MOL0     C76467   4.934   3.098   4.657 -0.5210  0.4284 -0.2930
  567MOL0     O76468   4.801   3.086   4.670 -0.0841  0.0780  0.0634
  567MOL0     C76469   4.720   3.127   4.557  0.2174 -0.2082  0.5261
  567MOL0     C76470   4.570   3.112   4.612 -0.0943  0.8820  0.8119
  567MOL0     C76471   4.492   3.114   4.486  0.0441 -0.0697  0.1002
  567MOL0     C76472   4.348   3.072   4.519  0.3662  0.9533 -0.0621
  567MOL0     C76473   4.240   3.104   4.428  0.8393  0.7996  0.7442
  567MOL0     C76474   4.139   3.136   4.368 -0.0603  0.1579 -0.2155
  567MOL0     C76475   5.000   3.072   4.779  0.3198 -0.0757 -0.7685
  567MOL0     C76476   5.138   3.069   4.785 -0.1035  1.0317  0.1465
  567MOL0     C76477   5.204   3.058   4.915 -1.1192 -0.2950  0.0075
  567MOL0     H76478   5.588   2.970   4.883  1.2569 -2.2096 -0.4876
  567MOL0     H76479   5.820   3.035   4.927  0.4876 -0.5156 -0.8872
  567MOL0     H76480   6.044   3.114   4.584 -0.8625  0.4699 -0.8904
  567MOL0     H76481   6.036   3.293   4.608  4.2898  1.7154 -0.7104
  567MOL0     H76482   6.246   3.303   4.740 -0.2735 -1.3558  0.2561
  567MOL0     H76483   6.260   3.275   4.572  0.7609  1.0408 -0.2041
  567MOL0     H76484   6.304   3.027   4.631  3.0584  1.1162 -1.7962
  567MOL0     H76485   6.239   3.059   4.799  1.6693 -0.3746  0.2292
  567MOL0     H76486   6.468   3.188   4.674 -1.4539 -1.4915 -1.3666
  567MOL0     H76487   6.420   3.207   4.846  3.1012  0.8033  0.8458
  567MOL0     H76488   6.463   2.955   4.873 -0.7045  0.4128  0.2396
  567MOL0     H76489   6.532   2.957   4.712 -4.3012 -2.8953  0.3709
  567MOL0     H76490   6.707   3.116   4.777 -2.4208 -0.6331 -2.6671
  567MOL0     H76491   6.633   3.161   4.924 -0.6268 -1.0865  1.9311
  567MOL0     H76492   6.741   2.882   4.879 -2.4539  1.1417 -1.7842
  567MOL0     H76493   6.678   2.952   5.024 -1.4182  2.3344 -0.6470
  567MOL0     H76494   6.917   3.070   4.868 -0.7118  1.6815 -0.3297
  567MOL0     H76495   6.845   3.144   5.016  0.9062 -0.5719  1.6700
  567MOL0     H76496   7.040   3.091   5.210  2.4201  0.3014  0.5112
  567MOL0     H76497   7.165   2.918   5.382  0.3116 -0.9653  0.4675
  567MOL0     H76498   7.251   2.782   5.302 -1.7045 -1.7627 -1.3254
  567MOL0     H76499   7.384   2.988   5.197  0.0035  0.1296  0.4804
  567MOL0     H76500   7.287   3.100   5.294  1.8231  0.6906 -0.8772
  567MOL0     H76501   7.373   2.979   5.513  2.0210 -0.1597  1.2743
  567MOL0     H76502   7.482   3.081   5.414 -2.9462  1.1823 -0.7491
  567MOL0     H76503   7.539   2.850   5.309 -0.3684  1.2489 -0.6579
  567MOL0     H76504   7.447   2.762   5.433  2.6267 -2.3200 -2.2188
  567MOL0     H76505   7.848   2.904   5.583 -0.7933 -0.6741  2.5619
  567MOL0     H76506   8.039   2.751   5.555  0.4666 -0.2039 -0.2151
  567MOL0     H76507   8.405   2.608   5.531 -2.1688  0.2716  0.4203
  567MOL0     H76508   8.605   2.510   5.453 -0.7295  2.0847  2.9583
  567MOL0     H76509   8.569   2.151   5.203  0.2149  1.2458 -0.7298
  567MOL0     H76510   8.634   2.248   5.081 -2.3701 -0.9217 -0.6099
  567MOL0     H76511   8.773   2.051   5.119  1.6121 -0.4216 -0.6550
  567MOL0     H76512   8.867   2.204   5.159  1.2315 -0.1008  2.4029
  567MOL0     H76513   8.841   2.144   5.411 -1.9423  2.5007 -0.0281
  567MOL0     H76514   8.690   2.046   5.368  1.1301 -2.2547 -0.3459
  567MOL0     H76515   8.972   1.974   5.322 -0.5373  0.5532 -1.6865
  567MOL0     H76516   8.837   1.879   5.259 -0.8768  1.3095  1.0124
  567MOL0     H76517   8.765   1.828   5.481  0.0285  0.3004  1.0951
  567MOL0     H76518   8.866   1.952   5.561  0.5953 -2.0833  0.8684
  567MOL0     H76519   9.009   1.732   5.418  3.0951  2.5240 -0.7949
  567MOL0     H76520   9.067   1.851   5.530  1.1150 -2.6652  4.0879
  567MOL0     H76521   8.905   1.618   5.592  0.7923 -0.3198  1.5074
  567MOL0     H76522   8.890   1.762   5.689  0.8704  0.1395 -0.8745
  567MOL0     H76523   9.128   1.762   5.753  0.6741 -1.3447  4.2990
  567MOL0     H76524   9.049   1.610   5.797 -0.6461  0.1250  0.6117
  567MOL0     H76525   8.392   2.312   5.143  1.5639  2.4535 -2.1155
  567MOL0     H76526   8.209   2.421   5.192  0.7746  1.1752 -2.1277
  567MOL0     H76527   7.789   2.461   5.368  3.3740 -1.4588  4.3169
  567MOL0     H76528   7.602   2.606   5.382  0.7754 -0.2260  0.3026
  567MOL0     H76529   5.827   3.199   4.530 -0.6891 -2.3563 -0.3465
  567MOL0     H76530   5.611   3.173   4.503 -1.1457  1.7740  1.0148
  567MOL0     H76531   5.191   3.191   4.465  0.5155  0.4053  1.1666
  567MOL0     H76532   4.951   3.125   4.449  2.2253 -0.5566 -1.0943
  567MOL0     H76533   4.734   3.054   4.477 -1.5401 -1.0514  0.9416
  567MOL0     H76534   4.729   3.233   4.530  0.1265 -0.4468 -0.4952
  567MOL0     H76535   4.548   3.205   4.666 -1.5366  3.7696 -4.0977
  567MOL0     H76536   4.574   3.016   4.665  1.1282  0.0120 -0.7552
  567MOL0     H76537   4.548   3.046   4.420  1.0341 -0.0478  0.8923
  567MOL0     H76538   4.489   3.213   4.441 -0.8942 -1.0358 -2.1325
  567MOL0     H76539   4.348   2.967   4.548 -1.6803  0.6769 -0.9281
  567MOL0     H76540   4.312   3.114   4.614  2.1909 -1.7117  1.9586
  567MOL0     H76541   4.050   3.166   4.317 -0.0402  0.2824 -0.1769
  567MOL0     H76542   4.953   3.034   4.870  1.5193  3.6330  1.6382
  567MOL0     H76543   5.312   3.042   4.911 -0.7695  1.9374 -1.1122
  567MOL0     H76544   5.171   3.148   4.969 -3.1785 -0.6176 -0.6131
  567MOL0     H76545   5.156   2.978   4.971  0.1007 -1.9971 -1.2950
  568MOL0     O76546   5.433   9.892   3.929  0.5865  0.4626  0.5728
  568MOL0     C76547   5.329   9.838   3.888  0.3808 -0.8810  0.4738
  568MOL0     O76548   5.330   9.760   3.780 -0.2254  0.0674 -0.3879
  568MOL0     C76549   5.450   9.695   3.746  0.3832  0.3184 -0.0159
  568MOL0     C76550   5.471   9.561   3.740  0.1245  0.3736  0.2108
  568MOL0     C76551   5.591   9.510   3.697 -0.8726  0.5040  0.2630
  568MOL0     C76552   5.699   9.597   3.646 -0.6392  0.3595 -0.3493
  568MOL0     O76553   5.816   9.545   3.597 -0.2525 -0.2001  0.0666
  568MOL0     C76554   5.907   9.503   3.700 -1.0916 -1.1077 -0.0477
  568MOL0     C76555   6.014   9.405   3.642 -0.4065  0.1133  0.0401
  568MOL0     C76556   6.139   9.483   3.586  0.6704  0.9444 -0.1405
  568MOL0     C76557   6.220   9.540   3.706 -0.2448  0.6157  0.6094
  568MOL0     C76558   6.357   9.591   3.663 -0.6803  0.0150  0.7211
  568MOL0     C76559   6.348   9.689   3.543  0.2274  0.9156 -0.4111
  568MOL0     C76560   6.487   9.743   3.509 -0.2817  0.0432 -0.5432
  568MOL0     C76561   6.494   9.840   3.388 -0.9204  0.7495 -0.1487
  568MOL0     N76562   6.617   9.916   3.378  0.3070 -0.1575  0.1114
  568MOL0     C76563   6.672   9.996   3.475 -0.3799 -0.3496 -0.4174
  568MOL0     C76564   6.803   9.990   3.443 -0.5765  0.6582 -0.3195
  568MOL0     C76565   6.920  10.043   3.531  0.4629 -0.0053 -0.3977
  568MOL0     C76566   6.923  10.194   3.546 -0.1653  0.2515  0.4381
  568MOL0     C76567   7.017  10.245   3.660 -0.6180  0.7396 -0.6806
  568MOL0     C76568   7.166  10.260   3.622  0.4175  0.3548 -0.2344
  568MOL0     O76569   7.181  10.369   3.531 -0.0359  0.3412  0.3149
  568MOL0     C76570   7.307  10.390   3.469  0.2582 -0.1114 -0.7876
  568MOL0     C76571   7.440  10.358   3.526  0.0419 -0.0999  0.2636
  568MOL0     C76572   7.561  10.372   3.456  1.1445 -0.0834 -0.1268
  568MOL0     C76573   7.558  10.419   3.323 -0.1985 -0.3237  0.3069
  568MOL0     C76574   7.693  10.441   3.259  0.3927 -1.0180 -0.1868
  568MOL0     O76575   7.790  10.451   3.353 -0.0964 -0.3586  0.0752
  568MOL0     C76576   7.902  10.521   3.326 -0.1727 -1.1478 -0.0478
  568MOL0     C76577   8.002  10.490   3.418 -0.4600 -0.2316 -0.5344
  568MOL0     C76578   8.134  10.545   3.397  0.0276  0.0111 -0.1121
  568MOL0     C76579   8.162  10.636   3.298 -0.6784 -0.0022  0.2552
  568MOL0     O76580   8.278  10.710   3.285  0.0964  0.1097 -0.2822
  568MOL0     C76581   8.413  10.639   3.302  0.2996 -1.1795 -0.2500
  568MOL0     C76582   8.527  10.739   3.285 -0.8420 -0.0786 -0.1683
  568MOL0     C76583   8.650  10.650   3.265 -0.2506  0.3706 -0.5042
  568MOL0     C76584   8.779  10.734   3.278 -0.5218  0.0062  0.2772
  568MOL0     C76585   8.901  10.650   3.311 -0.3247  0.3046  0.0994
  568MOL0     C76586   9.031  10.735   3.330  0.7741  0.2520  0.5661
  568MOL0     C76587   9.157  10.661   3.403  1.1056  0.4993 -0.3678
  568MOL0     C76588   9.289  10.726   3.345 -0.2781 -0.2731  1.0223
  568MOL0    Cl76589   9.309  10.708   3.173 -0.5105  0.8863 -0.1173
  568MOL0     C76590   8.054  10.682   3.215 -0.8112  0.4635  0.3528
  568MOL0     C76591   7.929  10.625   3.231  0.4832  0.2480 -0.3176
  568MOL0     O76592   7.699  10.463   3.137  0.1855  0.5285 -0.1958
  568MOL0     C76593   7.431  10.451   3.262  0.6163  0.5374 -0.7319
  568MOL0     C76594   7.308  10.426   3.329 -0.2000  0.0775 -0.1586
  568MOL0     N76595   6.817   9.921   3.321  0.4085 -0.5021  0.5079
  568MOL0     N76596   6.699   9.886   3.275 -0.5438  0.7645 -0.0786
  568MOL0     C76597   5.676   9.730   3.643 -0.3934  0.2748  0.0494
  568MOL0     C76598   5.548   9.779   3.684  0.1196  0.4808  0.3868
  568MOL0     C76599   5.199   9.867   3.957 -0.8314 -0.1449 -0.3787
  568MOL0     C76600   5.084   9.835   3.879 -0.9591 -1.5768 -0.5045
  568MOL0     C76601   4.950   9.852   3.921 -0.2314  0.0711 -0.1415
  568MOL0     C76602   4.938   9.910   4.044  0.2766  0.1924  0.6021
  568MOL0     O76603   4.815   9.930   4.103 -0.2608 -0.1732 -0.5215
  568MOL0     C76604   4.767  10.058   4.128 -0.7560  0.1431 -0.2811
  568MOL0     C76605   4.691  10.110   4.001 -0.1416  0.6581  0.2612
  568MOL0     C76606   4.671  10.260   3.988 -0.2128  0.0129  0.1773
  568MOL0     C76607   4.633  10.340   4.112  0.1788  0.4168  0.0100
  568MOL0     C76608   4.497  10.307   4.163 -0.1351  0.1711 -0.2136
  568MOL0     C76609   4.387  10.286   4.195  0.2371  0.1206 -0.5933
  568MOL0     C76610   5.046   9.944   4.123 -0.1060 -0.0328 -0.3288
  568MOL0     C76611   5.173   9.924   4.080 -0.4281  0.1529 -0.2013
  568MOL0     C76612   5.286   9.970   4.160  0.0105  0.4484 -0.2306
  568MOL0     H76613   5.402   9.486   3.777  0.7519 -0.5132 -0.3913
  568MOL0     H76614   5.609   9.403   3.697 -0.8103  0.3334  4.5869
  568MOL0     H76615   5.945   9.598   3.741 -1.2978 -0.4845 -1.2654
  568MOL0     H76616   5.849   9.457   3.781  1.1593  0.0705  2.4094
  568MOL0     H76617   5.983   9.348   3.554  4.1724  0.0781 -1.8257
  568MOL0     H76618   6.049   9.332   3.715  1.7750  1.0672  0.0511
  568MOL0     H76619   6.110   9.555   3.509 -0.3696 -2.2053 -2.9166
  568MOL0     H76620   6.192   9.403   3.534  0.9917  0.6008  0.6956
  568MOL0     H76621   6.169   9.626   3.749 -0.5836  1.0769 -0.6552
  568MOL0     H76622   6.232   9.460   3.779  2.3495  1.0233  0.7330
  568MOL0     H76623   6.400   9.652   3.743 -1.5402  3.1682 -1.0325
  568MOL0     H76624   6.416   9.500   3.648 -2.3298 -1.1540  1.0093
  568MOL0     H76625   6.298   9.633   3.462 -1.4104  2.3893 -0.4820
  568MOL0     H76626   6.273   9.767   3.561 -2.3771 -0.9119 -2.4557
  568MOL0     H76627   6.549   9.655   3.490 -4.3233 -3.2517 -0.0887
  568MOL0     H76628   6.526   9.797   3.595 -0.5495  0.1650 -0.4953
  568MOL0     H76629   6.470   9.785   3.297  2.5962  1.5821 -1.7414
  568MOL0     H76630   6.420   9.920   3.401 -1.4715 -0.1063  2.5599
  568MOL0     H76631   6.625  10.030   3.566 -2.3922 -0.3307 -1.4189
  568MOL0     H76632   6.905   9.991   3.626 -0.4072  2.3490  0.8302
  568MOL0     H76633   7.015  10.018   3.484 -0.4644  0.7219 -2.8156
  568MOL0     H76634   6.953  10.237   3.450  3.0226 -0.9544  0.7657
  568MOL0     H76635   6.829  10.242   3.575 -1.5122 -0.8864 -1.8089
  568MOL0     H76636   7.002  10.174   3.742  1.1787  0.9927 -0.0859
  568MOL0     H76637   6.982  10.343   3.693 -1.0402  0.6858 -0.9674
  568MOL0     H76638   7.206  10.169   3.578 -0.8540 -1.4509  2.1067
  568MOL0     H76639   7.219  10.289   3.714  1.0584 -0.4593 -0.3416
  568MOL0     H76640   7.433  10.326   3.629 -1.0639  1.5746  0.7693
  568MOL0     H76641   7.649  10.347   3.513  2.2340  0.2953 -1.5731
  568MOL0     H76642   7.973  10.423   3.498 -1.1586  0.0965 -0.5030
  568MOL0     H76643   8.216  10.518   3.462  0.3488 -2.2531 -1.3236
  568MOL0     H76644   8.427  10.598   3.402 -1.4567 -1.1451  0.0421
  568MOL0     H76645   8.423  10.566   3.221 -0.4253  1.4145 -2.8553
  568MOL0     H76646   8.509  10.795   3.193  2.0857 -1.0863 -1.4798
  568MOL0     H76647   8.535  10.799   3.376  2.8425 -1.8274  0.8637
  568MOL0     H76648   8.653  10.569   3.339  0.7716  0.8822  0.0308
  568MOL0     H76649   8.632  10.607   3.166 -0.8176 -1.3491  0.2902
  568MOL0     H76650   8.753  10.810   3.353 -2.0192 -1.4578  1.3129
  568MOL0     H76651   8.804  10.779   3.181 -0.4377 -0.2786  0.1680
  568MOL0     H76652   8.922  10.586   3.225  1.7189  0.3004  0.5467
  568MOL0     H76653   8.893  10.590   3.402 -2.0294 -0.7207 -0.6934
  568MOL0     H76654   9.060  10.768   3.230 -0.5311 -1.0095 -0.2739
  568MOL0     H76655   8.998  10.821   3.389 -1.9467 -0.9498  0.9439
  568MOL0     H76656   9.153  10.553   3.386  0.6504  0.0684  2.1419
  568MOL0     H76657   9.150  10.666   3.512  2.2471  0.8608 -0.2961
  568MOL0     H76658   9.290  10.828   3.383  0.7593  1.1728 -2.4855
  568MOL0     H76659   9.373  10.670   3.387  1.1250  2.1150  1.5348
  568MOL0     H76660   8.064  10.772   3.155 -0.7525 -0.8179 -1.6212
  568MOL0     H76661   7.839  10.661   3.181 -0.6906 -0.8341  0.9182
  568MOL0     H76662   7.433  10.470   3.155  1.4315 -2.5695 -1.3712
  568MOL0     H76663   7.214  10.445   3.277  0.8791  3.7514 -1.0414
  568MOL0     H76664   5.759   9.786   3.603  1.8108 -2.4941  0.4242
  568MOL0     H76665   5.518   9.882   3.669  1.4278  0.9672  0.9367
  568MOL0     H76666   5.090   9.792   3.780 -0.1858 -3.8446  0.4702
  568MOL0     H76667   4.861   9.819   3.869  1.0279 -0.5434 -2.0643
  568MOL0     H76668   4.846  10.126   4.161 -1.8962  0.3231  2.3237
  568MOL0     H76669   4.696  10.052   4.211 -1.4097 -1.6834 -0.9428
  568MOL0     H76670   4.600  10.050   3.986 -0.5381  1.4211 -0.5158
  568MOL0     H76671   4.751  10.088   3.912  0.9719 -1.7895  1.5324
  568MOL0     H76672   4.592  10.293   3.921 -1.3772 -0.9341  1.0411
  568MOL0     H76673   4.768  10.300   3.954  0.8580 -1.5376  1.2677
  568MOL0     H76674   4.707  10.311   4.187  0.0015  0.1958  0.1020
  568MOL0     H76675   4.639  10.446   4.088 -0.7734  0.8532  1.5649
  568MOL0     H76676   4.286  10.259   4.220 -0.0979  0.5934 -1.3823
  568MOL0     H76677   5.005   9.964   4.222  0.3493 -2.8738  0.5146
  568MOL0     H76678   5.382   9.921   4.138  0.6097  0.5699  1.9441
  568MOL0     H76679   5.286  10.077   4.140 -1.5216  1.0976  2.7533
  568MOL0     H76680   5.273   9.950   4.267 -0.1828 -2.5546 -0.7081
  569MOL0     O76681   9.306   8.594   0.855  0.1920 -0.4254  0.6620
  569MOL0     C76682   9.276   8.487   0.890 -0.2805 -0.0502 -0.6021
  569MOL0     O76683   9.363   8.405   0.947 -0.1979  0.3094  0.5132
  569MOL0     C76684   9.489   8.428   1.007 -1.0083 -0.1705  0.5968
  569MOL0     C76685   9.535   8.549   1.051  0.3110  0.0726 -0.5391
  569MOL0     C76686   9.656   8.558   1.117  0.0462  0.1242 -0.2098
  569MOL0     C76687   9.737   8.442   1.126 -0.1703  0.1348 -0.2027
  569MOL0     O76688   9.866   8.422   1.176 -0.4466 -0.1396 -0.9653
  569MOL0     C76689   9.924   8.537   1.237 -0.3686 -0.2442  0.3489
  569MOL0     C76690  10.044   8.496   1.332  0.0875 -0.5500 -0.6588
  569MOL0     C76691  10.160   8.419   1.260 -0.2595 -0.9036 -0.2490
  569MOL0     C76692  10.241   8.340   1.370 -0.2576 -0.0304 -0.0132
  569MOL0     C76693  10.351   8.250   1.302 -0.7253  0.3979  0.6155
  569MOL0     C76694  10.423   8.164   1.403 -0.1479 -0.1721 -0.0609
  569MOL0     C76695  10.537   8.095   1.352 -0.2492  0.5667 -0.3043
  569MOL0     C76696  10.604   8.033   1.482  0.1180 -0.0771  0.8036
  569MOL0     N76697  10.734   7.986   1.446 -0.6169  0.1842  0.2650
  569MOL0     C76698  10.853   8.044   1.467  0.9472  0.1383 -0.9919
  569MOL0     C76699  10.948   7.965   1.415 -0.4065  0.0293  0.2843
  569MOL0     C76700  11.091   8.000   1.388 -0.7525 -0.3570  0.1623
  569MOL0     C76701  11.172   7.878   1.333  0.5872 -0.5827  0.0222
  569MOL0     C76702  11.321   7.915   1.314  1.0051  1.1469  0.0144
  569MOL0     C76703  11.382   7.815   1.215 -0.3122  0.2290 -0.3805
  569MOL0     O76704  11.518   7.822   1.234  0.3664  0.7691  0.1116
  569MOL0     C76705  11.594   7.763   1.129  0.2014 -0.1697  0.7073
  569MOL0     C76706  11.719   7.818   1.116  0.3110 -0.8307  0.1111
  569MOL0     C76707  11.804   7.743   1.031 -0.3325  0.6045  0.7160
  569MOL0     C76708  11.761   7.631   0.952 -0.4836  0.1770 -0.2449
  569MOL0     C76709  11.859   7.566   0.858  0.4758  0.4353 -0.2796
  569MOL0     O76710  11.804   7.498   0.754  0.4728 -0.4595 -0.3105
  569MOL0     C76711  11.878   7.466   0.645 -1.0731 -0.0441 -0.3104
  569MOL0     C76712  12.017   7.430   0.646  0.1241  0.3031  0.3991
  569MOL0     C76713  12.072   7.371   0.538 -0.1716  0.5197  1.2148
  569MOL0     C76714  11.994   7.344   0.428 -0.4654 -0.4557  0.9003
  569MOL0     O76715  12.057   7.283   0.324  0.5748 -1.1372 -0.0577
  569MOL0     C76716  12.124   7.386   0.244 -0.5874  0.9930  0.5121
  569MOL0     C76717  12.039   7.456   0.148  0.2622 -0.4650  0.1654
  569MOL0     C76718  11.981   7.359   0.046 -0.2690 -0.3656 -0.0616
  569MOL0     C76719  11.903   7.441  -0.063 -0.1766  0.1976  0.2399
  569MOL0     C76720  11.984   7.440  -0.188 -0.1346 -0.6776 -0.9881
  569MOL0     C76721  11.923   7.523  -0.301 -0.7031 -0.4258  0.1422
  569MOL0     C76722  12.009   7.513  -0.428  1.1292 -0.3202 -0.3346
  569MOL0     C76723  12.001   7.385  -0.510  0.8383  0.1809 -0.5794
  569MOL0    Cl76724  11.863   7.383  -0.618 -0.0310 -0.0818  0.0256
  569MOL0     C76725  11.857   7.390   0.420 -0.5795  0.1218  0.5032
  569MOL0     C76726  11.801   7.444   0.532  0.5424 -0.1372 -0.3108
  569MOL0     O76727  11.976   7.568   0.892  0.2323  0.2347 -0.2124
  569MOL0     C76728  11.624   7.600   0.955  0.0244  0.5003  0.0036
  569MOL0     C76729  11.537   7.661   1.047  0.7108  0.0426  1.0289
  569MOL0     N76730  10.881   7.854   1.372  0.2139 -0.0823 -0.3567
  569MOL0     N76731  10.759   7.858   1.394  0.4277 -1.0937 -0.9192
  569MOL0     C76732   9.697   8.323   1.066 -0.5301 -0.2096 -0.1348
  569MOL0     C76733   9.572   8.313   1.007  0.1341  0.0916 -0.6031
  569MOL0     C76734   9.135   8.437   0.879  0.9750 -0.2113 -0.0894
  569MOL0     C76735   9.046   8.525   0.816  1.0600 -0.1392  1.1730
  569MOL0     C76736   8.915   8.492   0.787 -0.4603  0.0632 -0.3837
  569MOL0     C76737   8.869   8.364   0.811  0.0799  0.0692  0.0732
  569MOL0     O76738   8.741   8.323   0.768 -0.4235 -0.3301  0.2902
  569MOL0     C76739   8.644   8.424   0.735  0.7016  0.1648 -0.0056
  569MOL0     C76740   8.501   8.375   0.730 -0.3979 -1.1996  0.1028
  569MOL0     C76741   8.457   8.293   0.856  0.1151  0.1440  0.4562
  569MOL0     C76742   8.304   8.288   0.841  0.6444  0.1859 -0.6657
  569MOL0     C76743   8.266   8.168   0.758  0.1168 -0.0333 -0.1531
  569MOL0     C76744   8.219   8.072   0.691  0.1270  0.5092 -0.0356
  569MOL0     C76745   8.958   8.274   0.872  0.3016  1.2620  0.5454
  569MOL0     C76746   9.088   8.303   0.914  1.2718 -0.1584 -0.8297
  569MOL0     C76747   9.169   8.203   0.983  0.5153  0.7384  0.2800
  569MOL0     H76748   9.483   8.640   1.024  2.0419  2.1901  2.5876
  569MOL0     H76749   9.680   8.655   1.160  2.5502 -0.0984 -0.9390
  569MOL0     H76750   9.964   8.597   1.155 -0.2794  2.1493  2.0200
  569MOL0     H76751   9.851   8.588   1.301  1.0492  0.0586  1.8000
  569MOL0     H76752   9.985   8.441   1.406 -0.5832  1.7794  0.6706
  569MOL0     H76753  10.084   8.588   1.377  0.2228 -0.8958 -0.0657
  569MOL0     H76754  10.225   8.491   1.212 -0.4193  1.6075  2.9463
  569MOL0     H76755  10.115   8.345   1.193  0.5995  0.6021 -2.5940
  569MOL0     H76756  10.305   8.405   1.431 -0.2295 -0.2568  0.1981
  569MOL0     H76757  10.181   8.283   1.440  0.6224 -0.1995  0.6195
  569MOL0     H76758  10.304   8.194   1.221  0.7780  0.2621 -0.2029
  569MOL0     H76759  10.423   8.324   1.266  1.0687 -1.2957  0.5565
  569MOL0     H76760  10.449   8.228   1.488  0.3749 -2.1999  1.3965
  569MOL0     H76761  10.353   8.095   1.452 -1.0452  0.8330  0.0983
  569MOL0     H76762  10.610   8.161   1.304  1.3019 -1.3112 -0.6828
  569MOL0     H76763  10.500   8.013   1.290 -1.7438 -0.9913  2.4605
  569MOL0     H76764  10.611   8.114   1.555 -3.2465  0.3569  0.8073
  569MOL0     H76765  10.526   7.961   1.508  0.8810 -2.0070 -1.7484
  569MOL0     H76766  10.858   8.144   1.507 -0.1336  1.0127 -2.9229
  569MOL0     H76767  11.104   8.083   1.318  2.3373  0.4374  1.5015
  569MOL0     H76768  11.142   8.027   1.481 -1.3935 -2.1940  1.0882
  569MOL0     H76769  11.160   7.791   1.398 -0.6893 -0.9747 -0.6897
  569MOL0     H76770  11.130   7.859   1.233  2.0102 -1.8583 -0.3694
  569MOL0     H76771  11.373   7.897   1.409  1.0868 -2.7906 -0.5947
  569MOL0     H76772  11.334   8.017   1.278  0.7071  0.7112 -1.3851
  569MOL0     H76773  11.346   7.839   1.114  1.1029 -0.2433 -1.0274
  569MOL0     H76774  11.348   7.713   1.234  0.2271  0.0736 -0.2453
  569MOL0     H76775  11.743   7.901   1.181  0.3778  2.3466 -3.5769
  569MOL0     H76776  11.908   7.772   1.023 -0.7715  1.8219 -2.2122
  569MOL0     H76777  12.066   7.435   0.743 -1.1252 -0.9181  1.1325
  569MOL0     H76778  12.178   7.347   0.534 -0.1957  0.4198  1.1556
  569MOL0     H76779  12.185   7.449   0.310 -0.1959  0.8148  0.3276
  569MOL0     H76780  12.209   7.340   0.193  1.0158  4.1979  0.0593
  569MOL0     H76781  11.956   7.509   0.195  1.1559  0.5443  0.6385
  569MOL0     H76782  12.105   7.530   0.102 -0.3851 -1.1036 -1.8787
  569MOL0     H76783  12.059   7.311  -0.014  1.0498  1.3625  0.1943
  569MOL0     H76784  11.914   7.284   0.089  0.1293  0.1169  1.4705
  569MOL0     H76785  11.868   7.529  -0.008 -2.6419 -1.4911  1.5627
  569MOL0     H76786  11.809   7.390  -0.088  0.0570 -1.1590  1.8972
  569MOL0     H76787  11.986   7.336  -0.222 -1.1116 -1.1328  0.2771
  569MOL0     H76788  12.090   7.462  -0.170 -0.8405 -0.1091  3.7019
  569MOL0     H76789  11.820   7.502  -0.330 -0.9028  3.0483 -2.3598
  569MOL0     H76790  11.920   7.622  -0.255  2.5438  0.0599 -0.4343
  569MOL0     H76791  12.115   7.530  -0.409  0.9024  2.6666 -1.1899
  569MOL0     H76792  11.982   7.598  -0.492 -0.5030  0.7521  1.6735
  569MOL0     H76793  12.090   7.356  -0.565  0.7887 -1.2596  0.0436
  569MOL0     H76794  11.981   7.301  -0.443  2.0270 -0.8195 -1.4419
  569MOL0     H76795  11.800   7.367   0.331  1.3162 -1.4941 -0.3546
  569MOL0     H76796  11.695   7.467   0.534  1.0118  2.1042  0.9559
  569MOL0     H76797  11.588   7.520   0.892  0.5663 -0.0789  0.4155
  569MOL0     H76798  11.433   7.634   1.055  1.4498 -3.0613  1.2638
  569MOL0     H76799   9.756   8.231   1.064 -1.5883 -0.9125 -1.9897
  569MOL0     H76800   9.548   8.218   0.960  3.5652 -1.2394  0.0906
  569MOL0     H76801   9.080   8.627   0.803  1.0582 -0.3296 -0.6131
  569MOL0     H76802   8.866   8.579   0.745  0.0468  0.7966  0.5147
  569MOL0     H76803   8.663   8.472   0.638  1.4431  1.4816  0.7578
  569MOL0     H76804   8.663   8.506   0.805  0.2195 -0.2298  0.5971
  569MOL0     H76805   8.488   8.303   0.649 -1.9092  0.2874 -1.0553
  569MOL0     H76806   8.430   8.456   0.711 -1.1286 -2.1803 -1.5159
  569MOL0     H76807   8.482   8.337   0.953 -1.1606 -0.9847  1.3293
  569MOL0     H76808   8.500   8.193   0.856  2.8974  1.2730  0.9048
  569MOL0     H76809   8.252   8.272   0.936 -1.0929  1.4340 -1.3507
  569MOL0     H76810   8.258   8.379   0.801  2.2755 -0.0532 -3.2891
  569MOL0     H76811   8.163   8.005   0.630 -2.3905  1.2440  1.3157
  569MOL0     H76812   8.925   8.174   0.898 -1.2897  0.5505 -3.5122
  569MOL0     H76813   9.107   8.120   1.018  2.3959  0.2808  2.8317
  569MOL0     H76814   9.253   8.172   0.920 -0.0923  2.3006 -1.3971
  569MOL0     H76815   9.198   8.255   1.075 -2.3483 -0.2008  1.8376
  570MOL0     O76816   5.403   1.524   6.904 -0.2344  0.1296  0.1840
  570MOL0     C76817   5.300   1.571   6.876 -0.9003  0.1482 -0.5566
  570MOL0     O76818   5.271   1.629   6.757 -0.5209  0.1751  0.0524
  570MOL0     C76819   5.376   1.647   6.670 -0.3928 -1.0129  0.1092
  570MOL0     C76820   5.374   1.592   6.541  1.1171 -0.4290  0.7906
  570MOL0     C76821   5.473   1.610   6.444  0.6633  0.0893  0.0644
  570MOL0     C76822   5.581   1.695   6.481  0.2392 -0.9139 -0.3991
  570MOL0     O76823   5.672   1.733   6.387 -0.6082 -0.2631  0.5649
  570MOL0     C76824   5.796   1.665   6.395 -0.3051  0.3470  0.5093
  570MOL0     C76825   5.895   1.761   6.335 -0.4922 -0.5210 -0.0229
  570MOL0     C76826   5.902   1.757   6.184 -0.3083  0.8188  0.4641
  570MOL0     C76827   5.995   1.864   6.124  0.4815 -0.0546 -0.3145
  570MOL0     C76828   6.144   1.827   6.138  0.7318 -0.7532  0.2098
  570MOL0     C76829   6.241   1.939   6.149 -0.1801  0.1356  1.3033
  570MOL0     C76830   6.236   2.040   6.032  0.4426  0.8462  0.2165
  570MOL0     C76831   6.260   1.973   5.894  0.3372  0.9061  0.3299
  570MOL0     N76832   6.392   1.924   5.880  0.0751 -0.1773 -0.7936
  570MOL0     C76833   6.496   2.006   5.865  0.8258  0.1532 -0.5617
  570MOL0     C76834   6.601   1.926   5.863 -0.7295  0.9906 -0.5887
  570MOL0     C76835   6.756   1.965   5.861 -0.0335 -0.3707  0.1378
  570MOL0     C76836   6.783   2.116   5.857  0.3160 -0.3129 -0.4929
  570MOL0     C76837   6.915   2.145   5.914 -0.2475  0.5491 -0.3235
  570MOL0     C76838   6.957   2.294   5.901  0.5796  0.6902  1.1755
  570MOL0     O76839   7.098   2.300   5.927  0.2182 -0.1646  0.1987
  570MOL0     C76840   7.147   2.422   5.981 -1.0829 -0.5347  0.6543
  570MOL0     C76841   7.284   2.428   6.026 -1.3001 -0.3138 -0.3700
  570MOL0     C76842   7.351   2.540   6.074  0.1295 -0.1463 -0.0743
  570MOL0     C76843   7.285   2.657   6.086  0.9872 -0.2598  0.5032
  570MOL0     C76844   7.342   2.773   6.141  0.2992 -0.0254  0.5714
  570MOL0     O76845   7.451   2.752   6.220  0.6162 -0.9966 -0.5245
  570MOL0     C76846   7.523   2.860   6.267 -0.5884  0.5128  0.1571
  570MOL0     C76847   7.533   2.985   6.208  0.1862 -0.6845  0.6839
  570MOL0     C76848   7.596   3.089   6.269 -0.8595  0.0723  0.3883
  570MOL0     C76849   7.666   3.064   6.386 -0.1301  0.7873  0.1224
  570MOL0     O76850   7.720   3.176   6.445  0.2833  0.2109  0.6213
  570MOL0     C76851   7.841   3.159   6.521  0.0384 -0.9323 -0.3615
  570MOL0     C76852   7.954   3.156   6.428 -0.2841  0.3973  0.2555
  570MOL0     C76853   8.091   3.181   6.482 -0.6724  0.6069  0.6235
  570MOL0     C76854   8.194   3.159   6.366 -0.2914 -0.0319  0.6245
  570MOL0     C76855   8.339   3.180   6.422  0.3443  0.0893 -0.4746
  570MOL0     C76856   8.448   3.175   6.309  0.3090  0.0773  0.0179
  570MOL0     C76857   8.582   3.209   6.364  0.6944 -0.3538  0.1597
  570MOL0     C76858   8.700   3.154   6.268 -0.1855 -0.5632  0.4626
  570MOL0    Cl76859   8.691   3.225   6.104 -0.0463 -0.0123  0.3744
  570MOL0     C76860   7.671   2.937   6.446 -0.5057 -0.0683  0.2987
  570MOL0     C76861   7.616   2.835   6.376 -0.3455 -0.6739  0.0785
  570MOL0     O76862   7.287   2.883   6.118  0.0916  0.6595 -0.5552
  570MOL0     C76863   7.155   2.660   6.038  0.6755 -0.6450  0.5648
  570MOL0     C76864   7.082   2.547   5.991 -0.0531 -0.1858 -0.0319
  570MOL0     N76865   6.555   1.793   5.874 -0.3039 -0.3528 -0.3700
  570MOL0     N76866   6.429   1.796   5.890  0.5967 -0.3017 -0.4122
  570MOL0     C76867   5.578   1.768   6.597  0.9125 -0.2340 -1.0292
  570MOL0     C76868   5.479   1.739   6.699  0.0065 -0.4627 -0.0307
  570MOL0     C76869   5.194   1.538   6.978 -0.6716  0.0317 -0.7969
  570MOL0     C76870   5.066   1.560   6.934  0.0185 -0.2822  0.5778
  570MOL0     C76871   4.955   1.550   7.010  0.5959 -0.5888 -0.8116
  570MOL0     C76872   4.973   1.539   7.149 -0.3008 -0.2950 -0.7098
  570MOL0     O76873   4.871   1.517   7.247  0.0098  0.2735  0.2932
  570MOL0     C76874   4.737   1.521   7.199 -0.8229 -0.6671 -0.1077
  570MOL0     C76875   4.639   1.516   7.321  0.5726  0.0775 -0.2562
  570MOL0     C76876   4.508   1.588   7.293  0.0030 -0.0435 -0.3867
  570MOL0     C76877   4.432   1.612   7.427  0.3467 -0.5920 -0.0459
  570MOL0     C76878   4.381   1.484   7.477  0.0775  0.4167  0.2104
  570MOL0     C76879   4.329   1.385   7.515 -0.5672 -0.8083 -0.9157
  570MOL0     C76880   5.103   1.520   7.194 -0.0343 -0.3544 -0.1820
  570MOL0     C76881   5.218   1.509   7.119  1.6027 -0.6114 -1.0989
  570MOL0     C76882   5.351   1.492   7.187  0.1450  0.2764 -0.1145
  570MOL0     H76883   5.277   1.551   6.513  0.7308  0.6218  0.5269
  570MOL0     H76884   5.461   1.563   6.347  0.2579  0.7522 -0.2156
  570MOL0     H76885   5.824   1.654   6.500 -2.4440  3.2787  1.5120
  570MOL0     H76886   5.788   1.570   6.340  2.5996 -0.1341  0.7528
  570MOL0     H76887   5.993   1.726   6.370 -1.0954  0.4495  2.9025
  570MOL0     H76888   5.880   1.860   6.379  3.0813  1.4973 -2.7895
  570MOL0     H76889   5.801   1.778   6.149 -0.1455 -2.0633 -2.1758
  570MOL0     H76890   5.927   1.658   6.144  1.0724  1.4667 -0.3453
  570MOL0     H76891   5.967   1.886   6.021  1.1653  0.1740 -0.4590
  570MOL0     H76892   5.981   1.955   6.183  1.7275  0.3768 -0.6455
  570MOL0     H76893   6.149   1.756   6.222 -0.8963 -2.4519 -1.0415
  570MOL0     H76894   6.177   1.763   6.056  0.7083 -0.3652 -0.1026
  570MOL0     H76895   6.212   1.990   6.241  1.1524  3.1789  0.1739
  570MOL0     H76896   6.344   1.902   6.153 -0.8030 -1.9949 -0.5609
  570MOL0     H76897   6.317   2.112   6.044 -0.2994  1.9073 -0.8516
  570MOL0     H76898   6.138   2.089   6.026 -0.3669 -0.7683 -0.3635
  570MOL0     H76899   6.189   1.891   5.879 -0.3544  1.6184 -0.3816
  570MOL0     H76900   6.240   2.041   5.810  0.2203  0.1189 -0.2901
  570MOL0     H76901   6.491   2.113   5.846 -2.0246 -0.4305 -4.4088
  570MOL0     H76902   6.807   1.931   5.951 -1.7271 -2.0463  0.5401
  570MOL0     H76903   6.796   1.915   5.773  0.9968 -1.3666  1.1392
  570MOL0     H76904   6.767   2.147   5.753  0.2240 -1.5206 -0.8606
  570MOL0     H76905   6.708   2.159   5.924 -0.2068 -1.4069 -0.3593
  570MOL0     H76906   6.980   2.086   5.849 -1.4944 -1.4817  0.1710
  570MOL0     H76907   6.941   2.107   6.013  2.9609  1.0963 -0.8542
  570MOL0     H76908   6.893   2.358   5.961 -0.7599  0.0168  0.5185
  570MOL0     H76909   6.944   2.322   5.796  1.2324  2.0036  1.4211
  570MOL0     H76910   7.352   2.343   6.023  0.4543  0.7776  3.1183
  570MOL0     H76911   7.457   2.536   6.097 -0.1701  2.0000  2.0011
  570MOL0     H76912   7.479   3.015   6.119  3.4433  3.6425 -0.1730
  570MOL0     H76913   7.601   3.188   6.226 -1.0861  0.2998  0.8816
  570MOL0     H76914   7.861   3.238   6.595  0.8317 -0.1446 -1.3871
  570MOL0     H76915   7.830   3.079   6.595 -0.8139  1.9385  2.9209
  570MOL0     H76916   7.947   3.061   6.374 -1.9855  1.1750 -0.9596
  570MOL0     H76917   7.932   3.237   6.359 -2.2260  0.5175  0.9729
  570MOL0     H76918   8.091   3.282   6.524 -1.0468  1.2162 -0.7851
  570MOL0     H76919   8.116   3.113   6.564 -1.7774 -0.4810  0.0777
  570MOL0     H76920   8.173   3.222   6.280  1.1696  1.1601  1.1071
  570MOL0     H76921   8.183   3.055   6.333 -1.4351  0.3239 -0.1735
  570MOL0     H76922   8.370   3.112   6.502  3.0794 -1.0278 -2.3309
  570MOL0     H76923   8.355   3.279   6.465  3.3793 -0.1514 -0.8561
  570MOL0     H76924   8.452   3.069   6.281 -0.9203 -0.5756  2.0837
  570MOL0     H76925   8.418   3.239   6.226 -0.0643 -0.3377 -0.1666
  570MOL0     H76926   8.601   3.159   6.459  1.6011  0.2596  0.3172
  570MOL0     H76927   8.601   3.316   6.377  2.7134 -0.9246  2.6404
  570MOL0     H76928   8.799   3.185   6.301 -0.1757  0.4868 -0.4816
  570MOL0     H76929   8.695   3.045   6.264 -0.7102 -0.5368  0.3688
  570MOL0     H76930   7.705   2.919   6.547  2.0645  3.1476  0.1750
  570MOL0     H76931   7.609   2.735   6.419  0.3419 -1.6527 -1.9381
  570MOL0     H76932   7.115   2.760   6.022 -0.3495 -0.9678  1.0427
  570MOL0     H76933   6.981   2.552   5.951  0.6646  0.3126 -1.8872
  570MOL0     H76934   5.652   1.847   6.611 -0.4552  0.7029  1.4793
  570MOL0     H76935   5.479   1.792   6.794 -0.3781 -0.0285 -0.2675
  570MOL0     H76936   5.056   1.595   6.832 -0.3730  0.2481  0.7925
  570MOL0     H76937   4.859   1.574   6.964  0.5514  0.4635 -0.1958
  570MOL0     H76938   4.716   1.444   7.125  2.0775 -0.8733 -0.8361
  570MOL0     H76939   4.716   1.620   7.156 -5.8722 -2.1507 -1.7181
  570MOL0     H76940   4.688   1.567   7.404 -0.2128 -3.8675  2.9872
  570MOL0     H76941   4.621   1.410   7.344 -0.2200  0.5193  1.2696
  570MOL0     H76942   4.436   1.533   7.231 -1.9497  2.9723 -0.9816
  570MOL0     H76943   4.534   1.684   7.249 -0.0218  0.1763  0.0740
  570MOL0     H76944   4.489   1.659   7.507 -0.4675 -2.9448  2.0127
  570MOL0     H76945   4.350   1.680   7.402  2.0418  1.6757  0.2664
  570MOL0     H76946   4.283   1.295   7.549 -1.7014 -0.2332 -0.8925
  570MOL0     H76947   5.123   1.498   7.299  3.0763 -2.2816 -1.0381
  570MOL0     H76948   5.417   1.573   7.156  2.1583 -0.2822  2.4095
  570MOL0     H76949   5.353   1.497   7.296 -2.5370  0.2216  0.0113
  570MOL0     H76950   5.395   1.398   7.153 -1.6761 -0.9602  0.7435
  571MOL0     O76951   6.794   0.460   8.821 -0.4406 -0.1956  0.2137
  571MOL0     C76952   6.721   0.561   8.816 -0.6912 -0.6730 -1.6041
  571MOL0     O76953   6.755   0.676   8.754  0.7275  0.3203 -0.0472
  571MOL0     C76954   6.887   0.696   8.715  0.0132  0.0165 -0.8187
  571MOL0     C76955   6.926   0.644   8.595 -0.4478 -0.6372  0.0541
  571MOL0     C76956   7.063   0.649   8.559  0.8197  0.5157 -1.1317
  571MOL0     C76957   7.158   0.692   8.651  0.5208  0.2942  0.7949
  571MOL0     O76958   7.291   0.692   8.618 -0.4147 -0.4730 -0.6425
  571MOL0     C76959   7.343   0.560   8.602  0.0304 -0.9632 -0.3060
  571MOL0     C76960   7.500   0.548   8.597  0.2528  0.1751  1.3191
  571MOL0     C76961   7.563   0.603   8.730  0.1033  0.0128  0.1415
  571MOL0     C76962   7.718   0.590   8.710  0.3648  0.7525  0.6130
  571MOL0     C76963   7.794   0.657   8.826 -0.3506 -0.2232 -0.2990
  571MOL0     C76964   7.944   0.685   8.793  0.0077 -0.1638 -0.5516
  571MOL0     C76965   7.966   0.784   8.677  0.6642  0.3568 -0.6715
  571MOL0     C76966   8.083   0.884   8.693 -0.0061 -0.7063  0.6032
  571MOL0     N76967   8.220   0.815   8.675  1.0465 -1.0117  0.2808
  571MOL0     C76968   8.290   0.812   8.552 -0.6392  0.0183 -0.8032
  571MOL0     C76969   8.411   0.759   8.588  0.0760  0.1411  0.2406
  571MOL0     C76970   8.538   0.719   8.514 -0.0027  0.3318  0.0084
  571MOL0     C76971   8.615   0.851   8.463  0.2289  0.7268 -0.5374
  571MOL0     C76972   8.734   0.818   8.384 -0.3980 -0.0339  0.6378
  571MOL0     C76973   8.818   0.938   8.335  0.5436  0.2814  0.4602
  571MOL0     O76974   8.953   0.895   8.341 -0.6366  1.0894 -0.2132
  571MOL0     C76975   9.029   0.909   8.459  0.0168  0.5694  0.1670
  571MOL0     C76976   8.990   0.982   8.574 -0.8003 -0.7426 -0.1015
  571MOL0     C76977   9.072   0.975   8.687  0.3097 -0.3380  0.0956
  571MOL0     C76978   9.199   0.918   8.686  0.4729  0.2861 -0.5678
  571MOL0     C76979   9.284   0.929   8.809  1.6169 -0.0832  0.1711
  571MOL0     O76980   9.407   0.876   8.803 -0.5199 -0.0337 -0.2615
  571MOL0     C76981   9.478   0.864   8.919  0.6082  0.2766 -0.2549
  571MOL0     C76982   9.613   0.888   8.901  0.4854 -0.2855  0.2342
  571MOL0     C76983   9.706   0.883   9.004  0.2189 -0.1380 -0.3277
  571MOL0     C76984   9.661   0.838   9.137  0.2371 -1.0813 -0.3987
  571MOL0     O76985   9.746   0.819   9.242 -0.2468  0.3879 -0.2424
  571MOL0     C76986   9.885   0.867   9.222  0.3848 -0.7577  0.0879
  571MOL0     C76987   9.943   0.886   9.361 -0.1769 -0.2096  0.0860
  571MOL0     C76988  10.097   0.911   9.350 -0.0489 -0.0217  0.0859
  571MOL0     C76989  10.166   0.887   9.486  0.0802 -0.3086  0.0340
  571MOL0     C76990  10.317   0.919   9.480 -0.1588 -0.7874 -0.8444
  571MOL0     C76991  10.388   0.820   9.381 -0.5447 -0.0122 -0.0962
  571MOL0     C76992  10.544   0.812   9.392 -0.0280  0.2069 -0.7929
  571MOL0     C76993  10.592   0.762   9.535 -0.2280  0.7085  0.5457
  571MOL0    Cl76994  10.765   0.709   9.530  0.9035  0.3697  0.2986
  571MOL0     C76995   9.528   0.802   9.147  0.3225  0.0004  0.4641
  571MOL0     C76996   9.435   0.814   9.040 -0.0768 -0.1129 -0.3046
  571MOL0     O76997   9.239   0.996   8.903  0.2901  0.6216  0.6305
  571MOL0     C76998   9.230   0.833   8.580  0.0360 -0.3300  0.1987
  571MOL0     C76999   9.148   0.827   8.467 -0.1613  0.4118 -0.5168
  571MOL0     N77000   8.413   0.730   8.726  0.9632 -0.8534 -1.0860
  571MOL0     N77001   8.301   0.776   8.778 -0.5085  0.5463 -0.2694
  571MOL0     C77002   7.122   0.749   8.772 -1.2561  0.1068  0.3832
  571MOL0     C77003   6.987   0.747   8.802 -0.4919  0.7565  0.4180
  571MOL0     C77004   6.580   0.542   8.881 -0.6030 -0.2004  0.0534
  571MOL0     C77005   6.567   0.445   8.978  0.3185 -0.0125  0.0587
  571MOL0     C77006   6.442   0.425   9.037 -0.5979  0.4845  0.8198
  571MOL0     C77007   6.328   0.486   8.995 -1.0822  0.7204  0.4764
  571MOL0     O77008   6.208   0.448   9.057  0.1209 -0.4443 -0.4738
  571MOL0     C77009   6.079   0.499   9.002 -0.3871 -0.4842  0.2265
  571MOL0     C77010   5.966   0.439   9.083 -0.1025  0.3446  0.1405
  571MOL0     C77011   5.960   0.284   9.086 -0.5223  0.5780  0.2754
  571MOL0     C77012   5.847   0.214   9.161 -0.3707 -0.1733  1.7725
  571MOL0     C77013   5.838   0.255   9.298 -0.1972  0.6063 -0.1618
  571MOL0     C77014   5.834   0.296   9.410 -0.4628  0.3209  0.5622
  571MOL0     C77015   6.337   0.583   8.890  0.0957 -0.0651  0.1035
  571MOL0     C77016   6.462   0.616   8.824 -0.8375 -0.0131 -0.1590
  571MOL0     C77017   6.468   0.720   8.718  0.5241 -0.0115  0.2979
  571MOL0     H77018   6.860   0.594   8.525 -0.2155 -1.9239  0.7213
  571MOL0     H77019   7.090   0.609   8.461 -1.2794 -0.4098 -1.3961
  571MOL0     H77020   7.312   0.486   8.677 -6.0041  1.8287  0.5571
  571MOL0     H77021   7.304   0.522   8.507 -0.4514 -0.1158 -0.4581
  571MOL0     H77022   7.536   0.618   8.521  0.9071  0.7430  2.1356
  571MOL0     H77023   7.535   0.447   8.578  1.0794  0.6660  0.1302
  571MOL0     H77024   7.534   0.545   8.818  1.8453 -0.4817  0.4265
  571MOL0     H77025   7.532   0.705   8.755 -2.5560 -0.9848  1.1845
  571MOL0     H77026   7.731   0.482   8.705  0.9658  0.8579 -0.9099
  571MOL0     H77027   7.755   0.610   8.609  0.9703 -1.3280  0.3892
  571MOL0     H77028   7.753   0.755   8.849 -2.9848 -1.8947  3.0025
  571MOL0     H77029   7.783   0.598   8.918 -2.4106  0.8686  0.2102
  571MOL0     H77030   7.977   0.743   8.879 -1.3066  2.0474 -1.4552
  571MOL0     H77031   7.996   0.589   8.783  1.8323  0.6199  0.9285
  571MOL0     H77032   7.871   0.838   8.675  1.8332  2.5447 -2.8063
  571MOL0     H77033   7.972   0.729   8.583  5.5930  1.9263 -1.5227
  571MOL0     H77034   8.071   0.962   8.616 -0.8803 -1.4912 -0.0855
  571MOL0     H77035   8.084   0.936   8.789  0.2502  3.7956 -1.5522
  571MOL0     H77036   8.261   0.853   8.456 -1.0971  0.1970 -0.5912
  571MOL0     H77037   8.605   0.661   8.577  0.5628 -0.9434 -1.6912
  571MOL0     H77038   8.515   0.663   8.422 -0.2013 -1.9148  1.3447
  571MOL0     H77039   8.554   0.910   8.394  1.3762 -0.7293 -2.9065
  571MOL0     H77040   8.644   0.914   8.548 -0.7312 -0.1616  0.4781
  571MOL0     H77041   8.692   0.777   8.291 -4.5168 -2.5804  3.2888
  571MOL0     H77042   8.798   0.747   8.437  1.8357  0.8825 -0.7103
  571MOL0     H77043   8.791   1.026   8.394  3.1221 -0.1551  2.4891
  571MOL0     H77044   8.792   0.954   8.230  0.5829  0.6108  0.5008
  571MOL0     H77045   8.894   1.033   8.583  1.1128  3.2127 -0.1099
  571MOL0     H77046   9.024   1.024   8.771 -2.0939 -1.2234 -0.6909
  571MOL0     H77047   9.653   0.907   8.802  0.5709  3.6143  0.8562
  571MOL0     H77048   9.812   0.906   8.992 -0.4374  5.5986  1.8026
  571MOL0     H77049   9.939   0.786   9.171  0.3142 -0.3942 -0.5845
  571MOL0     H77050   9.887   0.966   9.176 -0.5017 -0.1685  1.2813
  571MOL0     H77051   9.889   0.972   9.402 -2.7436 -2.3932  1.5929
  571MOL0     H77052   9.917   0.803   9.427  0.2660 -0.1065  0.3936
  571MOL0     H77053  10.140   0.849   9.270 -0.3061 -1.3824  0.9829
  571MOL0     H77054  10.123   1.012   9.317 -0.5416 -0.0607 -0.4435
  571MOL0     H77055  10.149   0.787   9.526 -1.3970  0.1101  0.5264
  571MOL0     H77056  10.110   0.953   9.554 -0.5031 -1.6350  0.8756
  571MOL0     H77057  10.354   0.913   9.583 -0.8030 -0.2571 -0.5775
  571MOL0     H77058  10.321   1.025   9.451 -1.6334 -0.3648  0.3455
  571MOL0     H77059  10.331   0.727   9.378 -1.9797  0.8257  0.4702
  571MOL0     H77060  10.375   0.858   9.280 -2.3350  3.8846  1.4168
  571MOL0     H77061  10.576   0.916   9.374 -0.4443  0.0771 -2.4197
  571MOL0     H77062  10.591   0.743   9.321  0.5782 -1.6616  1.3200
  571MOL0     H77063  10.572   0.837   9.612  1.7706 -0.5869  2.4127
  571MOL0     H77064  10.532   0.677   9.570 -1.1080  1.8158  1.8192
  571MOL0     H77065   9.476   0.773   9.237  1.3260  1.4550  1.5632
  571MOL0     H77066   9.328   0.795   9.037 -0.4138  1.5989 -0.5114
  571MOL0     H77067   9.323   0.779   8.582  1.3202  1.7784  0.1783
  571MOL0     H77068   9.177   0.768   8.381 -0.9331 -0.7243 -0.0304
  571MOL0     H77069   7.202   0.785   8.835 -1.5241  2.0798 -0.3380
  571MOL0     H77070   6.967   0.775   8.905 -0.5772  1.5304  0.1962
  571MOL0     H77071   6.642   0.372   9.007 -0.7032 -1.2156 -0.2381
  571MOL0     H77072   6.428   0.359   9.121 -1.6165  1.0373  1.1017
  571MOL0     H77073   6.070   0.477   8.895 -0.9231 -1.1808  0.4052
  571MOL0     H77074   6.075   0.607   9.017 -3.0137 -0.7056  1.7177
  571MOL0     H77075   5.873   0.481   9.044  0.5288  0.1168 -1.6753
  571MOL0     H77076   5.984   0.486   9.180 -0.3698 -1.5604  1.1585
  571MOL0     H77077   6.051   0.238   9.126 -2.8553 -4.0089  1.0272
  571MOL0     H77078   5.950   0.246   8.983 -3.2111 -0.3520  0.8004
  571MOL0     H77079   5.751   0.219   9.111 -0.5942 -0.4431  2.1660
  571MOL0     H77080   5.869   0.108   9.149  0.4100  0.3472 -4.6155
  571MOL0     H77081   5.865   0.330   9.507  4.0268 -0.3803 -0.4367
  571MOL0     H77082   6.252   0.642   8.857 -0.0061 -1.0777 -1.5316
  571MOL0     H77083   6.489   0.814   8.770  1.4557  1.6718 -2.8643
  571MOL0     H77084   6.548   0.696   8.649  1.4863 -0.3681  1.4982
  571MOL0     H77085   6.380   0.722   8.653  0.9702 -0.6780 -0.3279
  572MOL0     O77086   8.295   3.452   0.562 -0.8056 -0.6419 -0.3320
  572MOL0     C77087   8.348   3.340   0.581 -0.6777  0.1456 -0.2745
  572MOL0     O77088   8.282   3.215   0.583 -0.0999 -0.3813  0.1790
  572MOL0     C77089   8.144   3.225   0.591  0.7598  0.0115  1.4552
  572MOL0     C77090   8.087   3.254   0.711  0.0139  0.2589 -0.3602
  572MOL0     C77091   7.947   3.255   0.728 -0.7255  0.5253 -0.1547
  572MOL0     C77092   7.861   3.205   0.635 -0.1023 -0.2632 -0.5163
  572MOL0     O77093   7.726   3.200   0.672 -0.1792  0.0617  0.4002
  572MOL0     C77094   7.637   3.157   0.572 -0.4360  0.3325 -0.3061
  572MOL0     C77095   7.492   3.148   0.620 -0.1466 -0.9920  0.9200
  572MOL0     C77096   7.459   3.030   0.712 -0.3007 -0.4045 -0.3798
  572MOL0     C77097   7.390   3.077   0.844 -0.4817  0.7480  0.7470
  572MOL0     C77098   7.321   2.960   0.918 -0.6133 -0.6656 -0.6038
  572MOL0     C77099   7.187   2.920   0.861 -1.2365 -0.1427  0.1754
  572MOL0     C77100   7.124   2.807   0.947  0.0894  0.5049  0.0063
  572MOL0     C77101   6.991   2.751   0.875 -0.5366  0.2930 -0.1636
  572MOL0     N77102   6.881   2.842   0.887 -1.0052  0.2122  0.4291
  572MOL0     C77103   6.782   2.833   0.973 -0.7506 -0.4852  0.1535
  572MOL0     C77104   6.678   2.904   0.925 -0.4379  0.9796  0.0103
  572MOL0     C77105   6.540   2.902   0.984  0.0617 -0.7811  0.6422
  572MOL0     C77106   6.428   2.908   0.865 -1.1906  0.2634  0.3585
  572MOL0     C77107   6.303   2.851   0.927 -0.1002 -0.3885  0.2809
  572MOL0     C77108   6.178   2.879   0.843 -1.0034  0.3830  0.2480
  572MOL0     O77109   6.069   2.889   0.922  0.1517 -0.1082  0.7552
  572MOL0     C77110   5.954   2.945   0.856 -0.0815  0.1824 -0.4317
  572MOL0     C77111   5.942   2.986   0.721 -0.2903  0.5298  0.2898
  572MOL0     C77112   5.821   3.031   0.673  0.0732  0.0835  0.3634
  572MOL0     C77113   5.707   3.034   0.753  0.5358 -0.3177 -0.1503
  572MOL0     C77114   5.577   3.092   0.712 -0.3717  0.1594 -0.2827
  572MOL0     O77115   5.489   3.119   0.811 -0.4060  0.5957  0.4723
  572MOL0     C77116   5.355   3.129   0.776  0.0084 -0.0109  0.0008
  572MOL0     C77117   5.278   3.195   0.875 -0.1873  0.3949  0.9428
  572MOL0     C77118   5.148   3.214   0.842  0.3710  0.6282  0.6934
  572MOL0     C77119   5.093   3.163   0.725  1.0195  0.1581  0.2009
  572MOL0     O77120   4.954   3.174   0.713  0.1052  0.1248  0.5252
  572MOL0     C77121   4.898   3.160   0.581  0.2247 -0.3014  0.2422
  572MOL0     C77122   4.755   3.211   0.585 -0.0258 -0.8834  0.0596
  572MOL0     C77123   4.745   3.342   0.661 -0.9626  0.2188 -1.0881
  572MOL0     C77124   4.621   3.418   0.619 -0.8146 -0.6247  0.5245
  572MOL0     C77125   4.607   3.554   0.684  0.0439 -0.5750 -0.0850
  572MOL0     C77126   4.479   3.628   0.641 -0.6985  0.0486  0.0464
  572MOL0     C77127   4.479   3.770   0.691 -0.3715  0.6619 -0.2711
  572MOL0     C77128   4.345   3.828   0.662 -0.4196 -0.0504 -0.6673
  572MOL0    Cl77129   4.212   3.758   0.758  0.0205  0.0837  0.3857
  572MOL0     C77130   5.166   3.104   0.632 -0.0489 -0.8880 -0.1398
  572MOL0     C77131   5.300   3.076   0.659 -0.6513  0.1984  0.2377
  572MOL0     O77132   5.564   3.120   0.593  1.0077  0.8968 -0.6846
  572MOL0     C77133   5.713   2.982   0.889  0.5420 -0.0023  0.2283
  572MOL0     C77134   5.834   2.950   0.936 -1.1853  0.1949  0.0050
  572MOL0     N77135   6.720   2.963   0.811  0.0105 -0.0713  0.7992
  572MOL0     N77136   6.841   2.923   0.786  0.3815 -0.6133  0.6833
  572MOL0     C77137   7.919   3.160   0.518 -0.0044  0.0350  0.5238
  572MOL0     C77138   8.057   3.177   0.488  0.6880  0.2435 -0.1658
  572MOL0     C77139   8.501   3.335   0.587 -0.4367 -0.9052 -0.2853
  572MOL0     C77140   8.555   3.229   0.517 -0.1846 -0.1880 -0.8253
  572MOL0     C77141   8.693   3.223   0.507 -0.3843  0.3585  0.6015
  572MOL0     C77142   8.781   3.301   0.586 -0.0505 -1.3737  0.2067
  572MOL0     O77143   8.919   3.296   0.586 -0.0732 -0.4024 -0.2478
  572MOL0     C77144   8.982   3.216   0.488  0.5083 -0.4505 -0.8170
  572MOL0     C77145   8.977   3.274   0.336  0.3219 -0.5513 -0.1972
  572MOL0     C77146   9.093   3.348   0.288 -0.3033 -0.2361 -0.6579
  572MOL0     C77147   9.121   3.335   0.136  0.1953  0.7671  1.1060
  572MOL0     C77148   9.170   3.205   0.092  0.0880 -0.1931  0.9593
  572MOL0     C77149   9.221   3.096   0.070  0.2233  0.5686 -0.2870
  572MOL0     C77150   8.719   3.407   0.652 -1.3160  0.1068  0.1666
  572MOL0     C77151   8.584   3.430   0.652  0.6419 -0.2558 -0.7296
  572MOL0     C77152   8.519   3.565   0.692 -0.3646  0.4421  0.2502
  572MOL0     H77153   8.154   3.281   0.793  1.0211  0.6255 -1.2852
  572MOL0     H77154   7.904   3.283   0.824 -0.5026  0.8292 -0.1420
  572MOL0     H77155   7.646   3.222   0.485 -2.3602  0.3527 -0.5515
  572MOL0     H77156   7.664   3.054   0.545 -0.3309  0.2516  0.0923
  572MOL0     H77157   7.435   3.137   0.528  2.4471  0.6974 -1.0662
  572MOL0     H77158   7.455   3.241   0.666 -4.2937 -2.6060  1.2221
  572MOL0     H77159   7.556   2.987   0.739  1.7531  1.5888 -3.8294
  572MOL0     H77160   7.404   2.961   0.647 -1.0166 -0.6807  0.4839
  572MOL0     H77161   7.463   3.130   0.906 -0.5646 -0.3277  1.8064
  572MOL0     H77162   7.309   3.146   0.818 -2.8600 -2.8752 -2.6604
  572MOL0     H77163   7.382   2.870   0.914 -0.8260 -0.8766  0.4855
  572MOL0     H77164   7.313   2.979   1.026 -1.7781  0.1094 -0.7996
  572MOL0     H77165   7.130   3.013   0.855  1.3604  1.4685 -4.7045
  572MOL0     H77166   7.197   2.879   0.760 -1.1515  0.6610 -0.1477
  572MOL0     H77167   7.102   2.841   1.048  0.9316 -0.3382  0.4939
  572MOL0     H77168   7.209   2.737   0.939 -0.6494 -0.1897 -3.2622
  572MOL0     H77169   7.021   2.724   0.773  0.1748 -3.5454  0.9115
  572MOL0     H77170   6.963   2.662   0.932  2.7608 -0.0946  1.0584
  572MOL0     H77171   6.775   2.762   1.054 -0.1006 -0.4609  0.2365
  572MOL0     H77172   6.533   2.810   1.043 -0.0945 -1.3403 -0.2274
  572MOL0     H77173   6.522   2.985   1.052  0.6159 -1.0338  1.1036
  572MOL0     H77174   6.413   3.009   0.826 -0.6143 -0.3241 -1.4746
  572MOL0     H77175   6.458   2.835   0.789  0.0166 -0.2924  1.3273
  572MOL0     H77176   6.302   2.901   1.025  0.3886 -1.4069  0.8297
  572MOL0     H77177   6.318   2.744   0.943 -0.1155 -0.9478 -2.9776
  572MOL0     H77178   6.161   2.805   0.764  0.5679  0.5742 -0.3280
  572MOL0     H77179   6.188   2.978   0.797  0.6053  0.0391 -0.2285
  572MOL0     H77180   6.018   2.963   0.648 -3.0567 -0.1332 -2.5983
  572MOL0     H77181   5.806   3.050   0.567 -1.3358 -0.2959  0.4804
  572MOL0     H77182   5.307   3.210   0.979 -2.0736 -1.9173  1.8786
  572MOL0     H77183   5.077   3.242   0.919  0.4463  3.3940 -0.1354
  572MOL0     H77184   4.954   3.218   0.507 -0.0969 -1.2860 -0.7993
  572MOL0     H77185   4.887   3.057   0.548 -0.9426  0.5805 -2.4248
  572MOL0     H77186   4.720   3.220   0.481 -3.6454  0.6152  1.2323
  572MOL0     H77187   4.687   3.146   0.641  0.7677  0.7898  3.1980
  572MOL0     H77188   4.752   3.329   0.770 -0.2424  3.9843 -0.5187
  572MOL0     H77189   4.821   3.414   0.630 -0.2755  0.5530  1.1669
  572MOL0     H77190   4.531   3.364   0.651  0.9884 -5.3211 -1.5384
  572MOL0     H77191   4.614   3.432   0.511 -3.4454 -1.3981  0.5276
  572MOL0     H77192   4.705   3.594   0.656  1.9423 -2.7887  2.6800
  572MOL0     H77193   4.602   3.556   0.794 -2.4195  0.5537 -0.1440
  572MOL0     H77194   4.472   3.623   0.532  3.5170  1.7856 -0.4780
  572MOL0     H77195   4.389   3.578   0.678 -0.2347 -1.8817 -1.2466
  572MOL0     H77196   4.556   3.835   0.649  1.1058  1.7191  3.6615
  572MOL0     H77197   4.499   3.761   0.798  2.2272 -4.4385 -0.8826
  572MOL0     H77198   4.353   3.936   0.679  2.7786 -0.1596 -0.9462
  572MOL0     H77199   4.315   3.808   0.559 -0.8264 -0.9609 -0.3891
  572MOL0     H77200   5.121   3.081   0.536 -3.0763  1.3063  0.5706
  572MOL0     H77201   5.356   3.039   0.574 -1.9411  1.2264 -1.1143
  572MOL0     H77202   5.624   2.986   0.950  1.2715  1.0814  1.2700
  572MOL0     H77203   5.845   2.917   1.039 -0.4174  0.6819  0.0868
  572MOL0     H77204   7.863   3.099   0.449 -1.2742  0.7922  0.8554
  572MOL0     H77205   8.084   3.145   0.388  0.7038  3.9646 -1.5209
  572MOL0     H77206   8.491   3.158   0.465 -2.4672 -0.5817  2.2656
  572MOL0     H77207   8.734   3.145   0.444  0.8534  0.5710  1.1235
  572MOL0     H77208   8.933   3.118   0.488 -0.5580  0.0399  0.5090
  572MOL0     H77209   9.087   3.199   0.512  0.4699 -1.6864 -1.4326
  572MOL0     H77210   8.888   3.335   0.319  1.9010  1.3389 -2.3058
  572MOL0     H77211   8.963   3.192   0.266  2.0226  0.0982 -1.3511
  572MOL0     H77212   9.184   3.308   0.335 -1.2527 -2.7656 -0.8430
  572MOL0     H77213   9.084   3.455   0.312 -0.7787 -0.6629  1.2354
  572MOL0     H77214   9.034   3.371   0.080  0.8324  0.0455 -0.3826
  572MOL0     H77215   9.203   3.402   0.109 -0.3051  0.4914 -1.2622
  572MOL0     H77216   9.255   2.997   0.050 -3.2019 -0.7273 -0.3453
  572MOL0     H77217   8.779   3.483   0.702  2.6857 -2.3233 -0.5052
  572MOL0     H77218   8.479   3.622   0.607  0.7664  0.4949 -0.2588
  572MOL0     H77219   8.436   3.548   0.761  0.0125 -2.5637  0.0860
  572MOL0     H77220   8.600   3.627   0.732  1.3032 -1.8775  0.6461
  573MOL0     O77221   3.356   5.696   7.442  0.4287  0.0928  0.5679
  573MOL0     C77222   3.322   5.788   7.363 -0.6456  0.2680 -0.8400
  573MOL0     O77223   3.407   5.856   7.282  0.2782  0.2346 -0.2297
  573MOL0     C77224   3.527   5.803   7.251 -0.6506  0.6152 -1.4789
  573MOL0     C77225   3.646   5.860   7.306 -0.1943  0.6315 -0.3741
  573MOL0     C77226   3.775   5.816   7.281 -0.7648  1.0812 -0.3966
  573MOL0     C77227   3.800   5.709   7.195  0.3116 -0.1840 -0.3712
  573MOL0     O77228   3.927   5.686   7.158 -0.2431 -0.1364  0.7828
  573MOL0     C77229   3.943   5.612   7.041  0.2160 -0.0027  0.5914
  573MOL0     C77230   4.082   5.602   6.985 -0.6688 -0.0763 -0.7874
  573MOL0     C77231   4.171   5.523   7.080 -0.4458  0.2998  0.8970
  573MOL0     C77232   4.305   5.505   6.998 -0.4561 -0.1641 -0.4617
  573MOL0     C77233   4.411   5.429   7.076 -0.0319 -0.0491 -0.5305
  573MOL0     C77234   4.551   5.420   7.001  0.2906  0.6889  0.6941
  573MOL0     C77235   4.647   5.303   7.037  0.7285 -0.6726  0.1681
  573MOL0     C77236   4.714   5.334   7.174 -0.5602  0.0744 -0.1507
  573MOL0     N77237   4.791   5.221   7.224  0.1502 -0.2732 -0.0735
  573MOL0     C77238   4.914   5.181   7.195  0.9765  0.4564 -0.1769
  573MOL0     C77239   4.929   5.066   7.269 -0.0478  0.0314  0.6184
  573MOL0     C77240   5.052   4.975   7.264 -0.4226 -0.2185  0.7494
  573MOL0     C77241   5.107   4.972   7.120  0.0720  0.4497  0.2976
  573MOL0     C77242   5.222   4.864   7.109 -0.0132 -0.8416  1.2229
  573MOL0     C77243   5.363   4.917   7.103  0.5253 -0.6255  0.7116
  573MOL0     O77244   5.413   4.952   7.231 -0.4403  0.0948  0.1452
  573MOL0     C77245   5.536   5.020   7.231 -0.0635  0.1076  0.3436
  573MOL0     C77246   5.626   5.029   7.121  0.7842  0.1395  0.9955
  573MOL0     C77247   5.749   5.102   7.127  0.3698 -0.1416 -0.5232
  573MOL0     C77248   5.787   5.165   7.244 -0.2476 -1.6318  0.0917
  573MOL0     C77249   5.905   5.258   7.246  0.1314  0.7067 -0.5533
  573MOL0     O77250   5.927   5.332   7.360 -0.7212 -0.0764  0.1887
  573MOL0     C77251   6.053   5.394   7.359 -0.5264  0.3950  0.6565
  573MOL0     C77252   6.063   5.531   7.368 -0.2001  0.7087 -0.0743
  573MOL0     C77253   6.193   5.586   7.358 -1.0529 -0.7323 -0.3419
  573MOL0     C77254   6.309   5.520   7.321 -0.2880  0.2115 -0.5234
  573MOL0     O77255   6.435   5.569   7.296 -0.5211  0.3471  0.5022
  573MOL0     C77256   6.460   5.711   7.276 -0.4103 -0.4345  0.0976
  573MOL0     C77257   6.561   5.711   7.166 -0.7395 -1.0502 -0.4055
  573MOL0     C77258   6.586   5.855   7.128  0.0826  1.0145  0.8240
  573MOL0     C77259   6.714   5.858   7.056 -0.1880 -0.4030  0.1865
  573MOL0     C77260   6.770   6.008   7.042 -0.2239 -0.1002  0.2798
  573MOL0     C77261   6.878   6.005   6.932  0.1974  0.1155 -0.6806
  573MOL0     C77262   6.910   6.151   6.888 -0.2787  0.3098  0.4960
  573MOL0     C77263   6.992   6.163   6.753 -0.0873  1.5706 -0.0339
  573MOL0    Cl77264   6.899   6.118   6.606  0.2946 -0.0437 -0.0638
  573MOL0     C77265   6.301   5.384   7.317  0.3074  0.5423  0.4743
  573MOL0     C77266   6.171   5.321   7.333  0.7573  0.3954 -0.2279
  573MOL0     O77267   5.963   5.271   7.136 -0.1949 -0.4817  0.5608
  573MOL0     C77268   5.702   5.147   7.359  0.3721  0.0197 -1.0165
  573MOL0     C77269   5.576   5.076   7.354 -1.0025 -1.7108 -0.1234
  573MOL0     N77270   4.815   5.038   7.337 -0.3287 -0.1731  0.6204
  573MOL0     N77271   4.733   5.130   7.305 -0.0387  0.1722 -0.2378
  573MOL0     C77272   3.683   5.642   7.151  1.0246 -0.9751 -0.0512
  573MOL0     C77273   3.545   5.685   7.182  0.0768 -0.5345 -0.2957
  573MOL0     C77274   3.172   5.807   7.350 -0.0835 -0.0273 -0.8203
  573MOL0     C77275   3.085   5.751   7.452  0.4073 -0.2494 -0.4486
  573MOL0     C77276   2.946   5.753   7.432 -1.0513 -0.3241 -0.3419
  573MOL0     C77277   2.886   5.814   7.328 -0.0350  0.3926 -0.5857
  573MOL0     O77278   2.751   5.779   7.303 -0.3675 -0.3866 -0.8926
  573MOL0     C77279   2.681   5.825   7.188 -0.1877  0.8318 -0.4213
  573MOL0     C77280   2.538   5.791   7.206  0.0708 -0.1307 -0.2940
  573MOL0     C77281   2.463   5.869   7.315  0.3529  0.3215 -0.6726
  573MOL0     C77282   2.315   5.831   7.313 -0.8478  0.6979  0.1778
  573MOL0     C77283   2.234   5.909   7.398  0.7756  0.6952 -0.5588
  573MOL0     C77284   2.168   5.985   7.464  0.5089 -0.9230 -0.0627
  573MOL0     C77285   2.962   5.882   7.237 -0.6259  0.1096  0.6689
  573MOL0     C77286   3.100   5.892   7.255 -0.6373 -0.0135  0.7750
  573MOL0     C77287   3.172   5.962   7.145 -0.2821 -0.0473 -0.5026
  573MOL0     H77288   3.630   5.943   7.375  2.6879 -0.7346  2.1766
  573MOL0     H77289   3.849   5.878   7.330  0.3080 -2.5221  2.9745
  573MOL0     H77290   3.899   5.512   7.053  1.6782 -0.5041  2.1551
  573MOL0     H77291   3.876   5.660   6.969  0.2754 -0.8304 -0.0355
  573MOL0     H77292   4.124   5.703   6.975  2.3231 -0.7283  2.9262
  573MOL0     H77293   4.072   5.557   6.886 -0.5805 -1.8503 -0.0295
  573MOL0     H77294   4.128   5.425   7.105  2.7807 -1.3297  0.5773
  573MOL0     H77295   4.187   5.570   7.178 -0.4978  1.7779  0.2200
  573MOL0     H77296   4.278   5.441   6.914  0.8348 -1.0639 -0.2228
  573MOL0     H77297   4.348   5.592   6.948 -0.0853  1.3639  2.2973
  573MOL0     H77298   4.435   5.485   7.167  0.2396  0.1560 -0.7271
  573MOL0     H77299   4.381   5.331   7.117  4.6152 -1.6486 -0.3470
  573MOL0     H77300   4.535   5.416   6.893 -0.5332  1.3326  0.7761
  573MOL0     H77301   4.596   5.519   7.016  1.3668  0.4917 -1.0093
  573MOL0     H77302   4.729   5.296   6.965  1.7595  4.4140  0.4870
  573MOL0     H77303   4.591   5.209   7.029  0.7168 -0.7632  1.1855
  573MOL0     H77304   4.787   5.414   7.162  0.1185 -0.7335 -1.7205
  573MOL0     H77305   4.647   5.373   7.251 -0.7055  0.1095 -0.2948
  573MOL0     H77306   4.978   5.246   7.135 -0.7792  1.8686 -0.6183
  573MOL0     H77307   5.124   5.010   7.338 -0.1696  0.9337 -0.0133
  573MOL0     H77308   5.023   4.871   7.280 -1.9331 -0.1309 -1.0884
  573MOL0     H77309   5.019   4.936   7.066 -0.6509  1.3199  0.8759
  573MOL0     H77310   5.137   5.067   7.076 -3.8570  0.8434 -1.9721
  573MOL0     H77311   5.191   4.817   7.015 -1.2595  1.0058  0.6394
  573MOL0     H77312   5.208   4.790   7.188  0.7831 -2.1714  0.1642
  573MOL0     H77313   5.365   5.002   7.033  0.0896  0.7839  2.3491
  573MOL0     H77314   5.434   4.842   7.067  1.4086 -0.6687  2.4263
  573MOL0     H77315   5.600   4.966   7.036 -0.8270  2.1826 -0.1123
  573MOL0     H77316   5.807   5.107   7.036  3.4546 -0.8952  1.2539
  573MOL0     H77317   5.970   5.583   7.389 -0.3976  0.5299 -0.4827
  573MOL0     H77318   6.185   5.693   7.371  0.4036 -0.6965  0.5586
  573MOL0     H77319   6.376   5.768   7.234 -1.3056 -3.7650 -3.1382
  573MOL0     H77320   6.505   5.757   7.365 -0.0967 -0.3543 -0.1027
  573MOL0     H77321   6.654   5.673   7.208 -0.2867 -0.9830 -1.3334
  573MOL0     H77322   6.524   5.644   7.087 -2.0271 -0.7241 -0.1161
  573MOL0     H77323   6.507   5.894   7.064 -1.8133  1.4977  3.2925
  573MOL0     H77324   6.597   5.912   7.221  0.0327  0.4817  1.1617
  573MOL0     H77325   6.688   5.816   6.958 -0.9892  1.0577 -0.2642
  573MOL0     H77326   6.792   5.803   7.109  1.4356 -0.7461 -2.3645
  573MOL0     H77327   6.817   6.039   7.135  1.3305  0.2708 -0.5833
  573MOL0     H77328   6.695   6.083   7.014  0.6933  0.3867 -0.9942
  573MOL0     H77329   6.960   5.959   6.987 -1.9799 -0.8862  1.9719
  573MOL0     H77330   6.837   5.949   6.848 -0.5393  1.0235 -0.9485
  573MOL0     H77331   6.969   6.194   6.969  3.1313 -0.8586 -1.1754
  573MOL0     H77332   6.821   6.214   6.877  0.0118  0.6603  0.1667
  573MOL0     H77333   7.025   6.266   6.739 -0.0655  1.7568  1.2913
  573MOL0     H77334   7.081   6.099   6.760 -1.6264 -0.5082  2.9867
  573MOL0     H77335   6.395   5.332   7.301  0.7278  2.1398 -3.5429
  573MOL0     H77336   6.158   5.213   7.337 -4.3138  0.6508 -2.6278
  573MOL0     H77337   5.717   5.193   7.456  1.8606 -3.5217  0.5981
  573MOL0     H77338   5.534   5.063   7.453  1.5259  2.5981  1.8122
  573MOL0     H77339   3.698   5.561   7.081 -2.2637 -0.1650 -1.9288
  573MOL0     H77340   3.469   5.631   7.127 -1.8875  0.1551  1.6097
  573MOL0     H77341   3.127   5.710   7.543  3.0050  0.5990 -1.1710
  573MOL0     H77342   2.890   5.700   7.509  0.5562 -0.4973  0.7591
  573MOL0     H77343   2.717   5.765   7.103 -2.1992 -0.1149 -0.6451
  573MOL0     H77344   2.699   5.931   7.173  3.4362  0.3040 -0.8388
  573MOL0     H77345   2.532   5.687   7.238 -0.7611  0.0715  0.2153
  573MOL0     H77346   2.483   5.805   7.112 -1.1869 -1.2748  0.2407
  573MOL0     H77347   2.466   5.976   7.292  0.6988 -0.0832 -2.6853
  573MOL0     H77348   2.504   5.841   7.412  2.8467  3.0483 -0.7680
  573MOL0     H77349   2.279   5.832   7.210  0.5031  1.5159 -0.3176
  573MOL0     H77350   2.313   5.724   7.336 -0.6064 -0.1052 -3.0637
  573MOL0     H77351   2.105   6.054   7.516  0.1050 -1.0302 -0.4095
  573MOL0     H77352   2.912   5.933   7.156 -3.3484  2.6885  3.6878
  573MOL0     H77353   3.182   6.069   7.166 -1.1987 -0.0027 -0.2596
  573MOL0     H77354   3.265   5.917   7.109  0.4666 -1.6383  3.0374
  573MOL0     H77355   3.114   5.983   7.055  0.4019  2.5017 -0.4145
  574MOL0     O77356   0.420  10.696   5.675  0.0645  0.4395  0.9326
  574MOL0     C77357   0.340  10.782   5.640  0.9577 -0.5062 -0.2982
  574MOL0     O77358   0.348  10.926   5.666  0.5482  0.5102  0.5924
  574MOL0     C77359   0.470  10.971   5.712  0.0563 -0.1065  0.5569
  574MOL0     C77360   0.524  10.925   5.832  0.1705  0.5699  0.0916
  574MOL0     C77361   0.645  10.976   5.883  0.0367 -0.4207 -0.0030
  574MOL0     C77362   0.711  11.072   5.819  0.2187  0.5036 -0.1097
  574MOL0     O77363   0.836  11.097   5.876  0.0132  0.3270  0.8036
  574MOL0     C77364   0.885  11.230   5.857 -0.0137  0.1890 -0.1689
  574MOL0     C77365   1.010  11.247   5.949  0.0366 -0.3625 -0.1361
  574MOL0     C77366   1.074  11.381   5.965  0.8762  0.4881  0.9709
  574MOL0     C77367   1.196  11.367   6.055  0.8225 -0.1736  0.4741
  574MOL0     C77368   1.254  11.506   6.076 -1.2680 -0.4948  0.0836
  574MOL0     C77369   1.367  11.514   6.184  0.3097  0.5072  0.3294
  574MOL0     C77370   1.477  11.418   6.169  0.0718  0.9864  0.3251
  574MOL0     C77371   1.558  11.394   6.294  0.0207 -0.8813  0.0377
  574MOL0     N77372   1.677  11.474   6.269 -0.0167 -0.5599  0.2130
  574MOL0     C77373   1.805  11.420   6.256  0.7020  0.6129  0.4175
  574MOL0     C77374   1.883  11.533   6.246  0.2297 -0.6272 -0.8874
  574MOL0     C77375   2.033  11.549   6.230 -0.1180 -0.0546 -0.6290
  574MOL0     C77376   2.111  11.421   6.199 -0.5848  0.3193 -0.4117
  574MOL0     C77377   2.250  11.439   6.141 -0.6007 -0.2525 -0.5417
  574MOL0     C77378   2.354  11.448   6.250 -0.5412 -0.5801 -0.3920
  574MOL0     O77379   2.474  11.515   6.192 -0.4953 -0.2229 -1.1665
  574MOL0     C77380   2.483  11.654   6.186 -0.8637 -0.2311  0.3286
  574MOL0     C77381   2.379  11.743   6.212  0.0095  0.2724 -0.0968
  574MOL0     C77382   2.388  11.887   6.209 -0.1021 -0.0061 -0.8704
  574MOL0     C77383   2.507  11.941   6.167 -0.1694 -0.2376 -0.6701
  574MOL0     C77384   2.535  12.080   6.187 -0.5357  0.1876 -0.0621
  574MOL0     O77385   2.429  12.159   6.236 -0.2606  0.9220 -0.2840
  574MOL0     C77386   2.448  12.296   6.245  0.6012  0.1763  0.3952
  574MOL0     C77387   2.449  12.356   6.366 -0.7246  0.0214  0.4066
  574MOL0     C77388   2.468  12.497   6.372  0.0847  1.1256  0.2525
  574MOL0     C77389   2.489  12.579   6.254  0.0660  0.0102  0.3035
  574MOL0     O77390   2.503  12.713   6.273  0.4173 -0.1196  0.8866
  574MOL0     C77391   2.496  12.800   6.150 -0.5081  0.3378 -0.1078
  574MOL0     C77392   2.635  12.816   6.091  0.6012 -0.2312 -0.0602
  574MOL0     C77393   2.730  12.873   6.194 -0.0462  0.6955 -0.0134
  574MOL0     C77394   2.833  12.953   6.117  0.0538 -0.1975  0.7142
  574MOL0     C77395   2.954  12.876   6.063  0.2996  0.2032 -0.1669
  574MOL0     C77396   3.042  12.978   5.991 -0.7156 -0.0255 -0.2022
  574MOL0     C77397   3.181  12.912   5.946  0.2472  0.4613  0.3949
  574MOL0     C77398   3.224  12.945   5.804  0.2420  0.1265 -0.1268
  574MOL0    Cl77399   3.262  13.127   5.789 -0.1515  0.3944  0.0277
  574MOL0     C77400   2.474  12.510   6.132 -0.3628 -1.3964  0.0284
  574MOL0     C77401   2.461  12.370   6.128 -0.3328  0.4657  0.1748
  574MOL0     O77402   2.650  12.121   6.167 -0.1673 -0.3080  0.7212
  574MOL0     C77403   2.608  11.849   6.112  0.4837 -0.4073 -0.2119
  574MOL0     C77404   2.598  11.714   6.136 -0.1422 -0.2945 -0.3124
  574MOL0     N77405   1.806  11.650   6.257 -0.3599 -0.1785 -0.4246
  574MOL0     N77406   1.688  11.607   6.260 -0.2111  0.2989  0.1136
  574MOL0     C77407   0.669  11.112   5.689  0.3820  0.1182  0.7612
  574MOL0     C77408   0.541  11.072   5.637  0.1779  0.0764 -0.5142
  574MOL0     C77409   0.215  10.745   5.566  0.0591 -0.7783  0.2017
  574MOL0     C77410   0.104  10.838   5.564  0.6037  0.1723 -0.1540
  574MOL0     C77411  -0.021  10.799   5.509 -0.5504 -0.4789  0.7618
  574MOL0     C77412  -0.040  10.669   5.463 -0.7125 -0.6318  0.1773
  574MOL0     O77413  -0.159  10.613   5.421 -0.1577 -0.4156 -0.3805
  574MOL0     C77414  -0.271  10.700   5.394  0.8077  0.1493 -0.5990
  574MOL0     C77415  -0.344  10.652   5.269 -0.1025  0.1218 -1.4119
  574MOL0     C77416  -0.239  10.650   5.154  0.2222 -0.2603  0.2980
  574MOL0     C77417  -0.306  10.665   5.017  0.7879 -0.5768 -0.3314
  574MOL0     C77418  -0.402  10.556   4.989 -0.1685  0.1827 -0.5373
  574MOL0     C77419  -0.484  10.463   4.965  0.2287  0.0104  0.0425
  574MOL0     C77420   0.063  10.575   5.459  0.2154 -0.2097  0.0766
  574MOL0     C77421   0.196  10.613   5.506 -0.5782  0.3091 -0.0418
  574MOL0     C77422   0.301  10.498   5.506  0.0754 -0.5874  0.6001
  574MOL0     H77423   0.471  10.847   5.886 -0.2219  2.2427  2.2478
  574MOL0     H77424   0.680  10.943   5.980 -2.0257  2.6226  1.9560
  574MOL0     H77425   0.917  11.266   5.759 -0.8237 -0.1986 -0.5805
  574MOL0     H77426   0.806  11.301   5.882  0.6128  1.5460 -1.7654
  574MOL0     H77427   1.085  11.181   5.906 -1.4417 -1.7728 -0.6522
  574MOL0     H77428   0.980  11.211   6.048 -1.2113  0.1191 -0.3209
  574MOL0     H77429   0.999  11.449   6.007 -2.9373 -3.1747  0.8134
  574MOL0     H77430   1.094  11.429   5.869 -1.0037  3.4107  1.9324
  574MOL0     H77431   1.159  11.329   6.150  1.6910 -1.0970  0.4561
  574MOL0     H77432   1.268  11.294   6.017  0.8024 -0.1582  0.4062
  574MOL0     H77433   1.300  11.533   5.981 -0.0127  0.5807  0.9655
  574MOL0     H77434   1.180  11.584   6.097  1.3312  1.2155  4.0058
  574MOL0     H77435   1.410  11.614   6.183 -0.4875  0.8588 -0.2058
  574MOL0     H77436   1.317  11.492   6.278  0.8688 -2.3089  0.0683
  574MOL0     H77437   1.541  11.440   6.083 -0.6231  0.2193 -0.4011
  574MOL0     H77438   1.437  11.317   6.152  0.2006  0.9690  0.1158
  574MOL0     H77439   1.506  11.431   6.383  2.2871  1.8001  0.3816
  574MOL0     H77440   1.588  11.290   6.310  1.2790 -0.4731  0.4437
  574MOL0     H77441   1.833  11.314   6.256 -0.2943  0.3330 -0.6999
  574MOL0     H77442   2.053  11.619   6.148  2.7968 -2.2827 -2.0390
  574MOL0     H77443   2.084  11.597   6.314  0.7661  0.5546 -1.4853
  574MOL0     H77444   2.111  11.360   6.289  2.5061 -1.2726 -1.3373
  574MOL0     H77445   2.054  11.371   6.120  3.0340 -2.0771 -1.8116
  574MOL0     H77446   2.250  11.526   6.074  2.1862  1.8392  1.9115
  574MOL0     H77447   2.278  11.361   6.069 -0.3075  0.0508 -0.7620
  574MOL0     H77448   2.382  11.345   6.275 -2.7753 -1.2644 -0.4524
  574MOL0     H77449   2.323  11.509   6.335 -1.3969 -1.1686 -0.2654
  574MOL0     H77450   2.279  11.712   6.243 -0.8411 -0.3521 -3.1947
  574MOL0     H77451   2.302  11.947   6.237  0.5892  0.0352  1.3544
  574MOL0     H77452   2.433  12.294   6.453  0.7695  0.0651  0.7436
  574MOL0     H77453   2.465  12.544   6.470 -3.0363 -0.3114  0.9575
  574MOL0     H77454   2.422  12.758   6.081 -0.2256 -1.1763  0.4528
  574MOL0     H77455   2.454  12.897   6.178 -0.6807 -0.1241  1.3305
  574MOL0     H77456   2.667  12.717   6.058 -1.0050 -2.0533  3.3088
  574MOL0     H77457   2.624  12.883   6.005  0.1830  2.9080  2.2608
  574MOL0     H77458   2.693  12.939   6.273  2.6467  2.5718 -0.1568
  574MOL0     H77459   2.775  12.790   6.249  2.1076  0.4363 -1.9960
  574MOL0     H77460   2.876  13.028   6.184  0.8555 -2.2094  2.5849
  574MOL0     H77461   2.791  13.014   6.036 -0.3279 -2.2171 -0.6841
  574MOL0     H77462   2.920  12.797   5.996  3.3410 -1.4887  0.1347
  574MOL0     H77463   2.980  12.821   6.154 -2.1883 -1.4567 -0.3403
  574MOL0     H77464   2.985  13.015   5.906 -2.8277  1.5143  1.7590
  574MOL0     H77465   3.061  13.068   6.050  0.6495  0.5555 -1.4781
  574MOL0     H77466   3.179  12.803   5.942  1.6477  0.3809  1.2343
  574MOL0     H77467   3.259  12.957   6.008 -0.1154  2.8589 -0.7614
  574MOL0     H77468   3.313  12.884   5.787 -0.7349 -0.8019 -2.4086
  574MOL0     H77469   3.144  12.924   5.733 -1.1574 -0.4206  1.5468
  574MOL0     H77470   2.486  12.560   6.037  0.1219  0.2859  0.9250
  574MOL0     H77471   2.464  12.323   6.030  3.2081  0.5392  0.1186
  574MOL0     H77472   2.700  11.899   6.083 -0.9767  3.3559  1.1013
  574MOL0     H77473   2.679  11.651   6.100 -2.8566 -1.7008 -4.7892
  574MOL0     H77474   0.739  11.170   5.628 -1.3572  0.1743 -1.2824
  574MOL0     H77475   0.510  11.100   5.537  2.5582  1.2143 -1.0070
  574MOL0     H77476   0.114  10.933   5.615 -1.1795  0.1058  0.3910
  574MOL0     H77477  -0.094  10.880   5.513 -0.5696 -0.5361  2.1934
  574MOL0     H77478  -0.245  10.804   5.372  2.3931  0.5885  2.6581
  574MOL0     H77479  -0.344  10.702   5.476 -3.7459  2.2594 -4.2624
  574MOL0     H77480  -0.423  10.727   5.259  0.3445  1.1724  1.7867
  574MOL0     H77481  -0.392  10.555   5.282 -1.8066  1.0361 -0.3367
  574MOL0     H77482  -0.192  10.551   5.156  0.3225 -0.4561 -3.6525
  574MOL0     H77483  -0.160  10.726   5.162  0.7819 -0.8204  0.1880
  574MOL0     H77484  -0.363  10.758   5.018  1.4719 -0.1570  0.1250
  574MOL0     H77485  -0.232  10.674   4.936  1.2093  0.1492  0.1269
  574MOL0     H77486  -0.562  10.397   4.936  1.3265 -1.0865 -0.4975
  574MOL0     H77487   0.036  10.475   5.427  0.6897  0.4098 -2.4479
  574MOL0     H77488   0.319  10.464   5.609  0.2856 -1.4168  0.2918
  574MOL0     H77489   0.246  10.421   5.452  0.9052 -0.2152 -0.8278
  574MOL0     H77490   0.390  10.531   5.453  0.4528 -0.5650  1.2386
  575MOL0     O77491   3.466   3.193  10.976  0.1735  0.0003  0.3247
  575MOL0     C77492   3.437   3.138  11.079 -1.4481  0.6454 -0.5208
  575MOL0     O77493   3.477   3.010  11.116 -0.9429  0.2100 -0.0168
  575MOL0     C77494   3.606   2.975  11.091 -0.2753  0.1708  0.2032
  575MOL0     C77495   3.717   3.052  11.054  0.4695 -0.4843 -0.5504
  575MOL0     C77496   3.847   3.005  11.021  0.0411 -0.1170 -0.4161
  575MOL0     C77497   3.871   2.873  11.044 -0.0717  0.5497 -0.1048
  575MOL0     O77498   3.998   2.827  11.010 -0.0610  0.3653 -0.3219
  575MOL0     C77499   4.033   2.696  11.050 -0.8860  0.4758 -1.0049
  575MOL0     C77500   4.187   2.672  11.048 -0.5488  0.2287 -0.2087
  575MOL0     C77501   4.250   2.686  10.901 -1.0644  0.5481  0.1178
  575MOL0     C77502   4.412   2.682  10.893  0.4349 -0.5789  0.0091
  575MOL0     C77503   4.480   2.672  10.759 -0.1055 -0.6378 -0.7408
  575MOL0     C77504   4.622   2.617  10.764  0.7106  0.0268 -0.1646
  575MOL0     C77505   4.718   2.717  10.832 -0.2530  0.9493  0.3555
  575MOL0     C77506   4.864   2.671  10.816  0.5314 -0.2633 -0.3601
  575MOL0     N77507   4.954   2.768  10.882  0.3926 -0.3262 -0.1795
  575MOL0     C77508   4.946   2.794  11.011  0.5979  0.6594 -0.0287
  575MOL0     C77509   5.021   2.899  11.037 -0.0468  0.2518 -0.2702
  575MOL0     C77510   5.030   2.951  11.177  0.0268  0.3907  0.3515
  575MOL0     C77511   5.143   3.045  11.200 -0.1439 -0.4598  1.2106
  575MOL0     C77512   5.128   3.121  11.339 -0.6366  0.9663  0.7852
  575MOL0     C77513   5.246   3.208  11.363 -0.6351  0.0807  0.2789
  575MOL0     O77514   5.241   3.260  11.501 -0.7590 -0.0822 -0.5558
  575MOL0     C77515   5.361   3.300  11.566  0.3951 -0.7095  0.0963
  575MOL0     C77516   5.358   3.324  11.704  0.1332  0.0883 -0.0470
  575MOL0     C77517   5.469   3.372  11.775 -0.8634  0.2735  0.1840
  575MOL0     C77518   5.593   3.388  11.708 -1.0857  0.0052  0.0705
  575MOL0     C77519   5.714   3.438  11.772 -0.6936  0.2726 -0.1712
  575MOL0     O77520   5.837   3.373  11.737 -0.4712 -0.6207  1.3059
  575MOL0     C77521   5.940   3.398  11.825  0.4212  0.0865  0.3984
  575MOL0     C77522   5.951   3.333  11.947  0.0323 -0.0954  0.2804
  575MOL0     C77523   6.073   3.335  12.020  1.1841 -0.3959 -0.1765
  575MOL0     C77524   6.178   3.411  11.977 -0.2300 -0.3465  0.3949
  575MOL0     O77525   6.299   3.421  12.040  0.0613  0.0032 -0.0334
  575MOL0     C77526   6.303   3.384  12.176 -0.3796 -0.5680  0.4065
  575MOL0     C77527   6.441   3.418  12.236 -0.3688 -0.1734  0.5456
  575MOL0     C77528   6.557   3.339  12.170 -0.1069  0.7622 -0.7728
  575MOL0     C77529   6.686   3.404  12.218  1.2296  0.6200 -0.0729
  575MOL0     C77530   6.796   3.300  12.197  0.9442 -0.0769  0.4145
  575MOL0     C77531   6.922   3.373  12.169 -0.9554  1.0254  0.1797
  575MOL0     C77532   6.987   3.448  12.285  0.2361 -0.9065 -0.1805
  575MOL0     C77533   7.104   3.537  12.246 -0.4973 -0.2308 -0.9245
  575MOL0    Cl77534   7.200   3.607  12.380 -0.0197 -0.8148 -0.4460
  575MOL0     C77535   6.174   3.473  11.849  0.6749  0.3531 -0.6487
  575MOL0     C77536   6.056   3.462  11.776  1.2711 -0.2096 -0.8004
  575MOL0     O77537   5.702   3.513  11.866 -0.2786  0.7518 -0.8424
  575MOL0     C77538   5.600   3.365  11.569 -0.1937 -0.6132  0.0045
  575MOL0     C77539   5.481   3.326  11.502 -0.2651  0.1890  0.2550
  575MOL0     N77540   5.066   2.948  10.916 -0.4674 -0.4668 -0.3465
  575MOL0     N77541   5.015   2.872  10.823  0.0550 -0.5524  0.1934
  575MOL0     C77542   3.763   2.791  11.087 -0.0538  0.0753  0.2184
  575MOL0     C77543   3.636   2.842  11.106 -0.1910  0.6912 -0.2260
  575MOL0     C77544   3.354   3.228  11.164  0.1909 -0.2494 -0.1147
  575MOL0     C77545   3.242   3.180  11.224  0.8394  0.0451  0.0230
  575MOL0     C77546   3.167   3.264  11.308  0.8902 -0.0293 -0.4247
  575MOL0     C77547   3.190   3.397  11.333  0.2821  0.5776  0.7570
  575MOL0     O77548   3.108   3.467  11.412  0.7678  1.0271  0.0528
  575MOL0     C77549   3.142   3.602  11.448  0.1014  0.2763  0.2923
  575MOL0     C77550   3.039   3.663  11.541 -0.1883  0.2520 -0.7345
  575MOL0     C77551   3.036   3.588  11.663  0.1776  0.5947 -0.1785
  575MOL0     C77552   2.959   3.657  11.776 -0.1403  0.4483  1.0449
  575MOL0     C77553   3.012   3.790  11.809 -0.1758  0.1386  1.0628
  575MOL0     C77554   3.071   3.893  11.838 -0.3692 -0.0381  0.6709
  575MOL0     C77555   3.311   3.449  11.282  0.5594 -0.0929 -0.7255
  575MOL0     C77556   3.392   3.366  11.197 -1.6124 -0.4488 -1.0161
  575MOL0     C77557   3.533   3.418  11.174  0.1325 -0.7883 -0.5233
  575MOL0     H77558   3.704   3.159  11.041 -2.2088 -0.9262 -2.0467
  575MOL0     H77559   3.919   3.060  10.962 -1.3584  1.1310 -1.0144
  575MOL0     H77560   4.001   2.675  11.153  4.5232  1.2464  1.1673
  575MOL0     H77561   3.981   2.631  10.979 -0.9865 -0.2778 -0.2688
  575MOL0     H77562   4.209   2.572  11.085  0.8764  0.7704  0.4962
  575MOL0     H77563   4.222   2.752  11.115 -0.5088  0.9433 -1.0721
  575MOL0     H77564   4.219   2.783  10.862 -0.4637 -0.1714 -2.3545
  575MOL0     H77565   4.205   2.608  10.838 -0.0596  2.7547 -3.6047
  575MOL0     H77566   4.450   2.776  10.935 -3.0428  0.7117  0.6621
  575MOL0     H77567   4.452   2.602  10.956  1.3620 -0.7141 -0.7435
  575MOL0     H77568   4.409   2.614  10.699  0.6495 -2.4790  0.0767
  575MOL0     H77569   4.496   2.771  10.715 -0.9746 -0.7429 -1.3275
  575MOL0     H77570   4.624   2.517  10.806  0.3833 -0.0761 -0.3902
  575MOL0     H77571   4.651   2.606  10.659  1.1976 -0.6052  0.0334
  575MOL0     H77572   4.676   2.731  10.932 -2.9599 -1.6734 -0.2510
  575MOL0     H77573   4.699   2.810  10.779 -1.1613 -0.3900 -1.8089
  575MOL0     H77574   4.875   2.568  10.850 -0.8713 -1.3200 -2.8399
  575MOL0     H77575   4.889   2.668  10.710  2.5811 -2.0765  0.1070
  575MOL0     H77576   4.892   2.744  11.091  1.4241 -0.4396 -0.1429
  575MOL0     H77577   4.935   2.998  11.204 -0.1658  2.7649 -3.6951
  575MOL0     H77578   5.066   2.874  11.245  1.7787 -0.3676 -1.3354
  575MOL0     H77579   5.232   2.982  11.204 -0.7958 -1.4112  1.0411
  575MOL0     H77580   5.147   3.117  11.117  1.1658 -1.9156 -0.0561
  575MOL0     H77581   5.117   3.041  11.413  2.3832 -0.5780 -0.2640
  575MOL0     H77582   5.039   3.185  11.343  0.4322  2.4950  1.0479
  575MOL0     H77583   5.252   3.296  11.300  0.5073  0.2094  0.5567
  575MOL0     H77584   5.340   3.157  11.341 -1.1686 -1.6054  1.6332
  575MOL0     H77585   5.259   3.311  11.746  0.3327 -2.8835 -0.2639
  575MOL0     H77586   5.464   3.420  11.872 -0.6976  3.3644 -1.2280
  575MOL0     H77587   5.860   3.287  11.984 -1.4567 -1.9202 -4.7751
  575MOL0     H77588   6.068   3.286  12.117  1.1601 -0.3531 -0.1563
  575MOL0     H77589   6.223   3.443  12.223  0.1384  1.6964 -1.3425
  575MOL0     H77590   6.282   3.277  12.179  0.4120 -0.7949 -1.1862
  575MOL0     H77591   6.469   3.522  12.217 -1.8925  0.1301 -0.2089
  575MOL0     H77592   6.441   3.401  12.344  1.4825 -0.1801  0.5787
  575MOL0     H77593   6.557   3.237  12.209  0.1479  1.6404  1.7108
  575MOL0     H77594   6.547   3.353  12.062  2.5761  1.1781 -1.0529
  575MOL0     H77595   6.675   3.438  12.322  0.5763 -2.3728  0.9294
  575MOL0     H77596   6.716   3.495  12.165  0.3161  1.0734  0.1638
  575MOL0     H77597   6.789   3.234  12.110  0.3722  1.4909 -0.7775
  575MOL0     H77598   6.798   3.229  12.280  2.1062  1.1757  1.4889
  575MOL0     H77599   6.990   3.297  12.130 -1.5485  0.9724 -0.7731
  575MOL0     H77600   6.914   3.447  12.088 -1.3969  0.5530 -0.2153
  575MOL0     H77601   7.033   3.376  12.353  0.9220  1.2381  1.7458
  575MOL0     H77602   6.911   3.510  12.333  0.1453 -0.3174 -1.0688
  575MOL0     H77603   7.172   3.469  12.192  0.0823 -2.1859  1.9944
  575MOL0     H77604   7.059   3.620  12.191 -2.8412 -0.1578  0.9665
  575MOL0     H77605   6.269   3.511  11.811 -0.5894  0.6008 -3.8488
  575MOL0     H77606   6.057   3.510  11.679  1.6561  0.2547 -0.5658
  575MOL0     H77607   5.696   3.378  11.520 -1.0967  1.1728 -1.4074
  575MOL0     H77608   5.487   3.316  11.394  0.8359  0.9504  0.2273
  575MOL0     H77609   3.771   2.683  11.092  1.0334 -0.1754 -3.9470
  575MOL0     H77610   3.556   2.776  11.138  0.7618 -0.7596 -0.7285
  575MOL0     H77611   3.213   3.076  11.214 -0.3035  0.3827 -0.3487
  575MOL0     H77612   3.083   3.215  11.357  1.2946 -0.7226 -0.4144
  575MOL0     H77613   3.152   3.671  11.363  2.4510 -0.0444  0.2438
  575MOL0     H77614   3.232   3.607  11.510 -1.0622  1.9739  1.9490
  575MOL0     H77615   2.944   3.681  11.491 -2.2592 -1.0025  2.4284
  575MOL0     H77616   3.077   3.762  11.568  2.4521 -1.6609  3.7708
  575MOL0     H77617   3.136   3.570  11.704  0.2774  0.3344 -0.5291
  575MOL0     H77618   2.985   3.492  11.649  0.1510  0.5742  0.0575
  575MOL0     H77619   2.855   3.675  11.748 -0.0428 -0.1039  0.3043
  575MOL0     H77620   2.955   3.590  11.863 -1.4475 -0.4041  0.3518
  575MOL0     H77621   3.119   3.987  11.853  0.6074 -0.0000 -2.1112
  575MOL0     H77622   3.335   3.553  11.305 -2.6857  0.2584  1.7844
  575MOL0     H77623   3.534   3.482  11.085 -1.3743  0.6858  0.4596
  575MOL0     H77624   3.565   3.486  11.253 -0.2605  1.9751 -2.5601
  575MOL0     H77625   3.608   3.339  11.166  2.3495  1.3434 -6.4763
  576MOL0     O77626   1.104   3.352  11.126 -0.2977  0.1811  0.3722
  576MOL0     C77627   1.073   3.242  11.167  0.3197 -1.0486 -0.1275
  576MOL0     O77628   1.162   3.148  11.206  0.1229 -0.2135  0.5558
  576MOL0     C77629   1.301   3.170  11.209  1.1728 -0.2715 -0.2539
  576MOL0     C77630   1.377   3.177  11.324 -0.1698  0.4583 -0.0806
  576MOL0     C77631   1.517   3.202  11.314  1.3799 -0.9738  0.2506
  576MOL0     C77632   1.583   3.206  11.188 -0.0450 -0.8642 -0.1173
  576MOL0     O77633   1.720   3.225  11.206 -0.2466 -0.8869  0.5154
  576MOL0     C77634   1.802   3.222  11.086  0.0543 -0.8205  0.1251
  576MOL0     C77635   1.946   3.263  11.115 -0.1743 -0.5358  0.3376
  576MOL0     C77636   2.029   3.271  10.991  0.0549 -0.4830  0.9160
  576MOL0     C77637   2.004   3.393  10.906 -0.3353  0.3272 -0.3331
  576MOL0     C77638   2.114   3.416  10.804  0.1868  1.0088 -0.8006
  576MOL0     C77639   2.071   3.523  10.707 -0.2601 -0.4683 -0.0654
  576MOL0     C77640   2.174   3.551  10.595  0.5279 -0.3686  0.4415
  576MOL0     C77641   2.306   3.588  10.664  0.1668 -0.8287 -0.0347
  576MOL0     N77642   2.401   3.629  10.562  1.3550 -0.2163  1.1412
  576MOL0     C77643   2.402   3.752  10.507 -0.2787  0.2030  0.2759
  576MOL0     C77644   2.485   3.728  10.399  0.5845  0.4765  0.5850
  576MOL0     C77645   2.533   3.840  10.307  0.7343  0.2498  0.0041
  576MOL0     C77646   2.637   3.917  10.386 -0.3189  0.2756 -0.1045
  576MOL0     C77647   2.667   4.048  10.320 -0.2337  1.7629 -0.1253
  576MOL0     C77648   2.801   4.088  10.345  0.1084  0.5613  0.0650
  576MOL0     O77649   2.912   4.000  10.320  0.0036  0.4432  0.3362
  576MOL0     C77650   3.046   4.042  10.327  0.4169 -0.8297  0.3070
  576MOL0     C77651   3.146   3.950  10.304 -0.5919 -0.2330  0.3148
  576MOL0     C77652   3.285   3.984  10.305  0.1306  0.5733  0.5861
  576MOL0     C77653   3.315   4.109  10.349 -0.3174 -0.1573 -0.5411
  576MOL0     C77654   3.463   4.128  10.359 -0.1198 -0.7129 -0.4633
  576MOL0     O77655   3.547   4.025  10.346  0.4925  0.4462 -0.2314
  576MOL0     C77656   3.683   4.024  10.371 -0.2395  0.5595 -0.1002
  576MOL0     C77657   3.753   3.915  10.315  0.4730  0.1729 -1.2087
  576MOL0     C77658   3.891   3.893  10.352 -0.6661  0.3421  0.2634
  576MOL0     C77659   3.950   3.972  10.451  0.8995  0.2797  0.6374
  576MOL0     O77660   4.086   3.972  10.486  0.8802 -0.9158  0.5212
  576MOL0     C77661   4.174   3.891  10.410 -0.5759  0.6381  0.8762
  576MOL0     C77662   4.314   3.953  10.427  0.7266 -0.5797  0.5888
  576MOL0     C77663   4.348   3.961  10.569 -0.1828 -0.0580 -0.1897
  576MOL0     C77664   4.496   3.982  10.598  0.3339 -0.3923 -0.4420
  576MOL0     C77665   4.521   3.947  10.745  0.4579 -0.8676  0.4563
  576MOL0     C77666   4.655   3.998  10.794  0.1579 -0.1327  0.6864
  576MOL0     C77667   4.765   3.896  10.758 -0.4659 -0.4528  0.8372
  576MOL0     C77668   4.901   3.953  10.776 -0.6106  0.4266  0.0168
  576MOL0    Cl77669   4.935   4.035  10.932 -0.0121 -0.7278 -0.2710
  576MOL0     C77670   3.867   4.064  10.512  0.7819 -0.5962  0.2638
  576MOL0     C77671   3.741   4.100  10.469 -0.0031  0.1536 -0.4207
  576MOL0     O77672   3.500   4.243  10.380 -1.1376 -0.3432  0.1404
  576MOL0     C77673   3.222   4.207  10.365  0.6448  0.4666  0.5172
  576MOL0     C77674   3.083   4.176  10.339 -0.1639 -0.3923 -0.3729
  576MOL0     N77675   2.532   3.595  10.404 -0.3389 -0.6477  0.3925
  576MOL0     N77676   2.491   3.542  10.511  0.3490 -0.4952  0.3168
  576MOL0     C77677   1.504   3.197  11.068  0.0165  0.1990  0.0124
  576MOL0     C77678   1.368   3.181  11.083 -0.3456 -0.3986  0.5282
  576MOL0     C77679   0.927   3.193  11.174  0.6535  0.5832  0.3529
  576MOL0     C77680   0.893   3.082  11.252 -0.1983 -0.8265  0.3822
  576MOL0     C77681   0.763   3.032  11.261  0.6025 -0.1084  0.1658
  576MOL0     C77682   0.662   3.078  11.181  0.2993 -0.5266  0.7200
  576MOL0     O77683   0.540   3.025  11.201 -0.3280 -0.6457 -0.3191
  576MOL0     C77684   0.453   3.050  11.091  1.1233  0.5999 -0.2271
  576MOL0     C77685   0.322   2.972  11.097  1.6139 -0.2999  0.0770
  576MOL0     C77686   0.228   2.982  10.972 -0.6089  0.0037 -0.2352
  576MOL0     C77687   0.112   3.091  10.965 -0.1305  0.2155  0.8500
  576MOL0     C77688   0.045   3.132  11.090  0.1598  0.8271  0.3841
  576MOL0     C77689   0.004   3.165  11.199  0.4961 -0.3127 -0.3020
  576MOL0     C77690   0.699   3.199  11.107 -0.2849 -0.8605  0.2110
  576MOL0     C77691   0.821   3.257  11.105  0.0526 -0.2800 -0.2051
  576MOL0     C77692   0.842   3.388  11.032  0.0820 -0.1304 -0.0732
  576MOL0     H77693   1.327   3.179  11.420  0.5148 -0.1104  0.2970
  576MOL0     H77694   1.585   3.189  11.398  0.5828 -1.3758  0.8534
  576MOL0     H77695   1.786   3.119  11.053 -2.0495 -0.6360  0.4348
  576MOL0     H77696   1.762   3.296  11.017 -0.0844  0.5949  1.6704
  576MOL0     H77697   1.986   3.186  11.182  0.6578 -2.2694 -2.0223
  576MOL0     H77698   1.942   3.361  11.162  1.3851  0.4144 -1.4023
  576MOL0     H77699   2.019   3.184  10.925  2.3964  0.7133 -1.2128
  576MOL0     H77700   2.131   3.274  11.030  1.4600  0.8092 -2.4461
  576MOL0     H77701   1.913   3.369  10.851 -0.9389 -1.0546  1.1931
  576MOL0     H77702   1.986   3.487  10.959 -0.8569  1.6269 -2.6759
  576MOL0     H77703   2.193   3.452  10.870  0.1072 -1.9392  1.0761
  576MOL0     H77704   2.144   3.320  10.759  2.8725  0.6295  1.5299
  576MOL0     H77705   1.972   3.496  10.669  0.2838  0.9898 -2.7637
  576MOL0     H77706   2.065   3.614  10.766 -0.4517 -0.8531  0.5133
  576MOL0     H77707   2.135   3.636  10.539  0.2915  0.4083  1.7636
  576MOL0     H77708   2.190   3.467  10.526 -0.9652 -0.5204  0.2456
  576MOL0     H77709   2.286   3.668  10.737  2.6091 -1.7377  1.7681
  576MOL0     H77710   2.353   3.504  10.716 -1.6122 -2.2689 -0.6721
  576MOL0     H77711   2.359   3.846  10.539 -0.1128  0.2722  0.2982
  576MOL0     H77712   2.565   3.812  10.207  1.6489 -2.9228  1.0563
  576MOL0     H77713   2.447   3.906  10.292 -0.7035 -1.7171 -0.7260
  576MOL0     H77714   2.600   3.926  10.489  0.7995 -0.3061  0.3700
  576MOL0     H77715   2.723   3.850  10.374 -0.2180  0.1683  1.1169
  576MOL0     H77716   2.591   4.124  10.343 -2.1633  1.2700 -3.9961
  576MOL0     H77717   2.664   4.025  10.213 -2.1280  0.8794  0.0851
  576MOL0     H77718   2.792   4.131  10.445 -3.7270  2.8454 -1.0406
  576MOL0     H77719   2.806   4.173  10.276 -1.4479 -0.6721 -1.6800
  576MOL0     H77720   3.108   3.849  10.292 -0.8230 -0.3818  1.9938
  576MOL0     H77721   3.351   3.910  10.261 -0.2559  1.2667 -1.2573
  576MOL0     H77722   3.714   3.841  10.246  1.5505 -2.2751  0.6318
  576MOL0     H77723   3.951   3.816  10.305  0.9100  1.8343 -0.2875
  576MOL0     H77724   4.177   3.787  10.444  2.5409  0.3219  0.0194
  576MOL0     H77725   4.163   3.901  10.301  0.1558  2.7534  0.9564
  576MOL0     H77726   4.385   3.889  10.375 -0.3589  0.6315 -2.5870
  576MOL0     H77727   4.316   4.053  10.384  2.5206 -0.7683  0.1841
  576MOL0     H77728   4.289   4.044  10.610 -2.7729 -0.9816 -1.7792
  576MOL0     H77729   4.302   3.877  10.621 -1.6314 -0.6219 -2.2437
  576MOL0     H77730   4.515   4.086  10.574 -1.3695  0.2312  0.6789
  576MOL0     H77731   4.558   3.916  10.537  0.8770  0.4938 -0.8601
  576MOL0     H77732   4.525   3.841  10.773  0.8560 -0.6678  1.1804
  576MOL0     H77733   4.445   3.996  10.806  0.5138 -1.4502  1.0009
  576MOL0     H77734   4.678   4.099  10.760  1.7742 -0.7423 -0.1970
  576MOL0     H77735   4.650   3.999  10.903 -2.1364 -1.6397  0.6770
  576MOL0     H77736   4.750   3.855  10.658 -0.7747 -3.2850  1.9622
  576MOL0     H77737   4.755   3.808  10.821  0.9964 -0.3001  1.3334
  576MOL0     H77738   4.954   3.858  10.773 -1.2965 -0.2814  4.3365
  576MOL0     H77739   4.927   4.018  10.692  0.7065  1.5665  1.2654
  576MOL0     H77740   3.905   4.136  10.584  1.7562  0.4650 -1.2489
  576MOL0     H77741   3.696   4.169  10.539  2.4549 -1.7745  3.4137
  576MOL0     H77742   3.248   4.312  10.379  5.4500 -0.4382  0.1433
  576MOL0     H77743   3.006   4.252  10.338  1.3707  1.3269  1.9537
  576MOL0     H77744   1.558   3.223  10.978 -0.8101 -2.4555 -1.3809
  576MOL0     H77745   1.307   3.170  10.995 -0.6682 -3.6135  1.0125
  576MOL0     H77746   0.977   3.039  11.306  1.8264  2.4308  0.0812
  576MOL0     H77747   0.750   2.955  11.338 -0.3449  0.3223  0.4588
  576MOL0     H77748   0.505   3.026  10.997 -0.6834  1.1156 -1.4098
  576MOL0     H77749   0.429   3.156  11.089 -0.5840  0.2543  0.7767
  576MOL0     H77750   0.274   2.986  11.195  1.1753 -0.5771 -0.0964
  576MOL0     H77751   0.347   2.866  11.095 -0.3376 -0.7993 -0.0470
  576MOL0     H77752   0.176   2.886  10.966  0.1975 -0.4795  0.3424
  576MOL0     H77753   0.293   3.005  10.888  3.2196  0.0840  2.5028
  576MOL0     H77754   0.149   3.179  10.911 -0.7483 -1.4127 -2.4533
  576MOL0     H77755   0.035   3.050  10.899 -0.0676  1.2660  0.0882
  576MOL0     H77756  -0.027   3.208  11.292  1.3969  0.1443 -0.1943
  576MOL0     H77757   0.626   3.263  11.057  0.4528  1.4361  1.8857
  576MOL0     H77758   0.900   3.468  11.079 -0.8720  1.4939 -1.5196
  576MOL0     H77759   0.878   3.368  10.930  0.5980  0.7265 -0.0791
  576MOL0     H77760   0.752   3.449  11.025  1.8882  3.1486  2.3229
  577MOL0     O77761   9.737   8.310   0.658  0.1469  0.0572 -0.6980
  577MOL0     C77762   9.767   8.400   0.581 -0.8397  0.6944 -0.3290
  577MOL0     O77763   9.702   8.423   0.468  0.2844  0.6625 -0.2436
  577MOL0     C77764   9.566   8.423   0.465  0.3587  0.2297 -0.8844
  577MOL0     C77765   9.507   8.472   0.353  0.1408 -0.2905  0.5723
  577MOL0     C77766   9.363   8.461   0.325  0.8954  0.1729  0.4369
  577MOL0     C77767   9.281   8.409   0.427 -0.6227 -0.0523  0.1950
  577MOL0     O77768   9.155   8.361   0.395  0.6061  0.1761 -0.1620
  577MOL0     C77769   9.152   8.272   0.277 -0.2981  1.2329 -0.3051
  577MOL0     C77770   9.086   8.134   0.314 -0.6450 -0.1368  1.0183
  577MOL0     C77771   8.945   8.156   0.352  0.0325 -0.0201  0.1811
  577MOL0     C77772   8.864   8.022   0.349 -1.5600 -0.0430 -0.0254
  577MOL0     C77773   8.724   8.031   0.370  0.2525  0.5556 -0.2979
  577MOL0     C77774   8.663   7.890   0.368  1.0652  0.2036  0.3549
  577MOL0     C77775   8.503   7.886   0.376  0.0173 -0.0430 -1.0622
  577MOL0     C77776   8.437   7.949   0.255  0.5830 -0.4340  0.2419
  577MOL0     N77777   8.425   7.855   0.143  0.1022  0.4782 -0.3844
  577MOL0     C77778   8.504   7.861   0.028 -0.0342 -0.2657  0.2669
  577MOL0     C77779   8.476   7.751  -0.039 -0.1903 -0.2593  0.9914
  577MOL0     C77780   8.507   7.719  -0.182  0.6065  1.5294 -0.2375
  577MOL0     C77781   8.588   7.814  -0.248 -0.2559  0.1764 -0.3879
  577MOL0     C77782   8.635   7.766  -0.387  0.4531  0.8056  0.6125
  577MOL0     C77783   8.725   7.849  -0.459 -0.0963 -1.4629 -0.1248
  577MOL0     O77784   8.850   7.854  -0.388 -0.6516 -0.0658 -0.5290
  577MOL0     C77785   8.932   7.959  -0.415  1.1580  0.4179  0.6921
  577MOL0     C77786   8.912   8.095  -0.426  0.9884 -0.0093 -0.1385
  577MOL0     C77787   9.002   8.194  -0.465 -0.3813  0.2814 -0.3037
  577MOL0     C77788   9.136   8.165  -0.484 -0.8703  0.3940 -1.0234
  577MOL0     C77789   9.254   8.263  -0.493  1.0360  0.6143 -0.1011
  577MOL0     O77790   9.216   8.387  -0.512 -0.2388 -0.0003  0.5158
  577MOL0     C77791   9.305   8.489  -0.551 -0.1583 -0.0049 -0.2269
  577MOL0     C77792   9.442   8.488  -0.586 -0.6289  0.4944 -0.5657
  577MOL0     C77793   9.513   8.601  -0.614 -0.0488 -0.2009  0.1618
  577MOL0     C77794   9.460   8.729  -0.606 -0.1878  0.1853 -0.7312
  577MOL0     O77795   9.539   8.828  -0.645 -0.0773  0.1299 -0.1119
  577MOL0     C77796   9.500   8.966  -0.656 -0.9776 -0.3954  0.0322
  577MOL0     C77797   9.598   9.069  -0.588  0.3220 -0.5117  0.5752
  577MOL0     C77798   9.744   9.028  -0.589 -0.3974  1.2415 -0.3015
  577MOL0     C77799   9.832   9.147  -0.565  0.0522 -0.2576 -0.1567
  577MOL0     C77800   9.978   9.103  -0.548 -0.0561  0.3509  0.7316
  577MOL0     C77801  10.010   9.054  -0.406 -0.1314 -0.5666 -0.2984
  577MOL0     C77802  10.157   9.020  -0.389 -0.2579  0.6459  1.3641
  577MOL0     C77803  10.199   8.998  -0.240 -0.1556  0.0077  1.5166
  577MOL0    Cl77804  10.099   8.875  -0.160 -0.0690 -0.5384 -0.4464
  577MOL0     C77805   9.320   8.738  -0.571 -0.2566  0.9557 -0.2533
  577MOL0     C77806   9.255   8.616  -0.543  0.9062  0.4796 -0.1230
  577MOL0     O77807   9.366   8.217  -0.493 -0.6239  0.6530  0.6091
  577MOL0     C77808   9.161   8.029  -0.465 -1.1425  0.0958 -0.0862
  577MOL0     C77809   9.061   7.929  -0.435  0.8786  0.4493  0.5051
  577MOL0     N77810   8.387   7.678   0.034 -0.1912  0.5606 -0.3011
  577MOL0     N77811   8.364   7.737   0.147 -0.7624 -0.2085 -0.5026
  577MOL0     C77812   9.339   8.386   0.547  0.2108 -0.2411 -0.5444
  577MOL0     C77813   9.477   8.396   0.568  0.3645 -0.6337  0.0756
  577MOL0     C77814   9.906   8.460   0.588  0.5214 -0.4771 -0.1125
  577MOL0     C77815   9.992   8.459   0.477 -0.8884  0.1368 -0.6767
  577MOL0     C77816  10.123   8.507   0.497  0.8188  0.5797 -0.1674
  577MOL0     C77817  10.168   8.563   0.618  0.0085 -0.1352  0.4614
  577MOL0     O77818  10.291   8.626   0.625  0.0080 -0.3963 -0.6016
  577MOL0     C77819  10.370   8.645   0.505  0.5380  0.2881  0.2806
  577MOL0     C77820  10.488   8.724   0.551  0.7621  0.0283  0.5700
  577MOL0     C77821  10.578   8.647   0.653 -0.7160 -0.3821  0.4448
  577MOL0     C77822  10.636   8.516   0.598  0.8902 -0.2485  0.0865
  577MOL0     C77823  10.766   8.492   0.675  0.4730  0.5599 -0.1288
  577MOL0     C77824  10.870   8.472   0.733 -0.7828 -0.3572  0.0677
  577MOL0     C77825  10.085   8.559   0.727  0.4134  0.2883 -0.3532
  577MOL0     C77826   9.952   8.516   0.707  0.1993 -0.6461  0.0389
  577MOL0     C77827   9.876   8.531   0.838 -0.8440  0.6058  0.7289
  577MOL0     H77828   9.566   8.499   0.266 -3.2493 -2.2094 -2.5588
  577MOL0     H77829   9.309   8.504   0.241  0.8419  2.8174  1.6996
  577MOL0     H77830   9.095   8.311   0.192 -2.1698 -0.1679  0.2334
  577MOL0     H77831   9.252   8.244   0.242 -0.3040 -0.4398  0.8691
  577MOL0     H77832   9.146   8.106   0.402 -0.8079 -0.7837  0.9295
  577MOL0     H77833   9.083   8.052   0.242 -1.3975  0.2020  0.6657
  577MOL0     H77834   8.900   8.221   0.276  0.9041  0.1026 -0.2379
  577MOL0     H77835   8.937   8.210   0.446 -3.9203  0.5846 -0.3337
  577MOL0     H77836   8.892   7.981   0.251  0.8074  1.9125 -0.2684
  577MOL0     H77837   8.891   7.951   0.428 -2.9991 -1.3809 -0.6714
  577MOL0     H77838   8.709   8.084   0.465 -0.5277  1.1628 -0.7507
  577MOL0     H77839   8.697   8.097   0.287  1.7323  0.2194 -1.0846
  577MOL0     H77840   8.696   7.831   0.281 -1.6028 -0.0579 -0.5668
  577MOL0     H77841   8.702   7.839   0.457 -1.5622  0.7000  1.8806
  577MOL0     H77842   8.476   7.947   0.462  0.1836 -1.2043 -0.1494
  577MOL0     H77843   8.477   7.780   0.385  0.7894 -0.1565  0.0878
  577MOL0     H77844   8.342   7.990   0.290  1.5529  1.7281  0.4821
  577MOL0     H77845   8.507   8.023   0.216  1.8199 -2.4420 -1.5858
  577MOL0     H77846   8.561   7.950   0.003 -0.8156  0.7173  1.8374
  577MOL0     H77847   8.545   7.617  -0.187 -0.3263  1.1770 -0.4020
  577MOL0     H77848   8.408   7.720  -0.229 -0.7688  0.1344  2.3725
  577MOL0     H77849   8.543   7.913  -0.250  1.7346  1.1344 -0.5205
  577MOL0     H77850   8.682   7.816  -0.191 -0.0386 -3.2463 -0.3849
  577MOL0     H77851   8.544   7.743  -0.445  1.8977 -4.5573 -0.0682
  577MOL0     H77852   8.679   7.666  -0.386 -0.1680  0.5226  1.9600
  577MOL0     H77853   8.679   7.947  -0.476  0.0328 -1.4128 -0.1834
  577MOL0     H77854   8.751   7.807  -0.556  2.4472  1.2235 -0.7584
  577MOL0     H77855   8.817   8.128  -0.387  0.5564  1.1228 -2.0005
  577MOL0     H77856   8.970   8.298  -0.454  0.4647  0.3538  2.0373
  577MOL0     H77857   9.492   8.392  -0.595 -1.7840 -0.0692 -1.3371
  577MOL0     H77858   9.616   8.587  -0.644  0.7920  3.0188  1.1539
  577MOL0     H77859   9.522   8.999  -0.758  1.0519  1.3324  0.9502
  577MOL0     H77860   9.392   8.987  -0.648 -1.0511 -1.0160  0.7093
  577MOL0     H77861   9.590   9.159  -0.649  0.9819 -1.0101 -0.2688
  577MOL0     H77862   9.586   9.092  -0.481  0.7047  1.6302  0.2030
  577MOL0     H77863   9.762   8.962  -0.504  1.8995  3.8540  1.4537
  577MOL0     H77864   9.774   8.988  -0.686  1.3896 -0.6675  0.9492
  577MOL0     H77865   9.807   9.195  -0.470  0.3506 -0.5322  0.0650
  577MOL0     H77866   9.819   9.216  -0.648  1.4074 -1.0013 -1.0208
  577MOL0     H77867  10.050   9.183  -0.564 -0.9142  1.4320  2.1015
  577MOL0     H77868  10.008   9.030  -0.624 -0.6549  1.3798 -0.5289
  577MOL0     H77869   9.979   9.134  -0.338  2.2941  0.6684 -0.5463
  577MOL0     H77870   9.949   8.966  -0.383 -1.3736 -0.0382 -1.4276
  577MOL0     H77871  10.217   9.100  -0.434 -0.4146 -0.1762 -0.3843
  577MOL0     H77872  10.185   8.927  -0.438 -0.9797  1.0022  0.2372
  577MOL0     H77873  10.307   8.982  -0.233  0.0641 -1.1482 -2.1475
  577MOL0     H77874  10.174   9.095  -0.196 -0.4517  0.4321  0.4665
  577MOL0     H77875   9.269   8.833  -0.563 -0.1976  1.1982 -2.2781
  577MOL0     H77876   9.151   8.618  -0.514  0.3247 -2.5460 -1.5538
  577MOL0     H77877   9.264   7.996  -0.459 -1.3392 -0.5276 -0.1246
  577MOL0     H77878   9.088   7.825  -0.424 -1.3429 -0.2188  0.0919
  577MOL0     H77879   9.281   8.342   0.627  2.4901 -1.2761  0.6292
  577MOL0     H77880   9.516   8.378   0.668  6.0176  0.8054 -1.4909
  577MOL0     H77881   9.957   8.413   0.386  0.9832 -1.9282 -0.4073
  577MOL0     H77882  10.188   8.507   0.410 -0.5383  1.4670 -1.2354
  577MOL0     H77883  10.310   8.688   0.424  3.2764  0.8262 -1.5826
  577MOL0     H77884  10.405   8.547   0.474  1.2635  0.5285  0.3241
  577MOL0     H77885  10.450   8.823   0.579 -0.3904  0.8472 -3.2294
  577MOL0     H77886  10.555   8.741   0.466  1.1910  2.5982  1.3521
  577MOL0     H77887  10.522   8.635   0.747 -3.1691  2.9969 -0.3963
  577MOL0     H77888  10.660   8.712   0.686 -0.2059  0.3443 -2.0179
  577MOL0     H77889  10.568   8.430   0.597  0.1585  0.2933 -2.1537
  577MOL0     H77890  10.664   8.523   0.493  2.5454 -1.0920  0.4399
  577MOL0     H77891  10.966   8.438   0.766 -1.4214 -2.6686 -0.2789
  577MOL0     H77892  10.119   8.593   0.824 -1.3026  0.7658  0.1240
  577MOL0     H77893   9.897   8.615   0.904 -1.6395  0.0178  1.7734
  577MOL0     H77894   9.769   8.510   0.830 -0.5797 -1.4620  1.8563
  577MOL0     H77895   9.912   8.443   0.893 -0.9101  0.6837  0.8958
  578MOL0     O77896   0.894   7.331   7.051 -0.4791 -0.4588  0.3169
  578MOL0     C77897   0.893   7.372   6.938  0.2048 -0.2386 -0.0147
  578MOL0     O77898   1.001   7.415   6.870 -0.5785 -0.5504  0.1733
  578MOL0     C77899   1.122   7.407   6.926  0.4809  0.8908  0.0650
  578MOL0     C77900   1.153   7.462   7.052 -0.2903 -1.2215  0.3992
  578MOL0     C77901   1.278   7.459   7.107 -0.3371  0.3524  0.1104
  578MOL0     C77902   1.376   7.378   7.050  1.3919 -0.7352  0.1223
  578MOL0     O77903   1.503   7.358   7.090 -0.2944  0.1084  0.6674
  578MOL0     C77904   1.550   7.457   7.175 -0.6027 -0.1749 -0.6564
  578MOL0     C77905   1.690   7.428   7.206  0.6890  0.4419  1.3494
  578MOL0     C77906   1.747   7.510   7.306  0.2726 -0.1823 -0.1478
  578MOL0     C77907   1.855   7.458   7.402  0.2037  0.4959 -0.0396
  578MOL0     C77908   1.935   7.557   7.477 -0.1694 -0.7199 -1.0619
  578MOL0     C77909   2.041   7.632   7.384  0.2622  1.1491 -0.2212
  578MOL0     C77910   2.171   7.548   7.369 -0.6569  0.1805  0.3915
  578MOL0     C77911   2.293   7.638   7.329 -0.0293 -0.0764 -0.1809
  578MOL0     N77912   2.344   7.708   7.439 -0.5136 -0.6169  0.2340
  578MOL0     C77913   2.446   7.663   7.515 -0.0106  0.2595  0.2339
  578MOL0     C77914   2.482   7.766   7.594 -0.9310  0.2439  0.1806
  578MOL0     C77915   2.588   7.747   7.688  0.3303  0.7848 -0.2775
  578MOL0     C77916   2.731   7.741   7.634 -0.5185 -0.6953  0.1981
  578MOL0     C77917   2.823   7.687   7.745  0.8990 -0.4310  0.2524
  578MOL0     C77918   2.970   7.670   7.688 -0.0958  0.3037 -0.6247
  578MOL0     O77919   3.023   7.795   7.650  0.1649  0.1867 -0.2168
  578MOL0     C77920   3.162   7.817   7.643  0.5157 -0.4127  0.0955
  578MOL0     C77921   3.191   7.951   7.614  0.5284 -1.1407  0.1536
  578MOL0     C77922   3.321   7.997   7.604  0.0129 -0.5476 -0.6094
  578MOL0     C77923   3.429   7.912   7.603 -0.7759 -0.2410  0.3620
  578MOL0     C77924   3.566   7.961   7.575  1.1491  0.6138  0.0538
  578MOL0     O77925   3.656   7.863   7.554 -0.0722  0.6629 -0.3103
  578MOL0     C77926   3.789   7.890   7.522 -0.1950 -0.6975  0.3668
  578MOL0     C77927   3.861   7.798   7.445 -0.3283  0.3639  0.6779
  578MOL0     C77928   3.998   7.820   7.414 -0.1636  0.8213 -1.1023
  578MOL0     C77929   4.068   7.922   7.479 -0.0202  0.3052  0.3395
  578MOL0     O77930   4.201   7.957   7.464  0.1661  0.0960 -0.1660
  578MOL0     C77931   4.253   7.961   7.333  0.6184 -0.6871 -0.2698
  578MOL0     C77932   4.390   8.033   7.320 -0.3332  0.0674 -0.1164
  578MOL0     C77933   4.406   8.113   7.173  0.5874 -0.6658  0.1884
  578MOL0     C77934   4.552   8.140   7.158 -0.1993 -0.7176 -0.1845
  578MOL0     C77935   4.589   8.086   7.009  0.5261 -0.7418 -0.0720
  578MOL0     C77936   4.737   8.082   6.968 -0.2057 -0.4405  0.1627
  578MOL0     C77937   4.833   8.013   7.064  0.0427 -0.1631  1.4522
  578MOL0     C77938   4.953   8.103   7.096  0.3271 -0.9574 -0.4831
  578MOL0    Cl77939   5.041   8.135   6.934  0.1642 -0.6130 -0.1356
  578MOL0     C77940   4.002   8.006   7.570  0.6213  0.8675  1.0767
  578MOL0     C77941   3.863   7.988   7.589  0.2571 -0.7424  0.7517
  578MOL0     O77942   3.582   8.072   7.542 -0.4682 -0.7457 -0.2879
  578MOL0     C77943   3.398   7.775   7.632  1.1139 -0.1345 -0.4292
  578MOL0     C77944   3.267   7.724   7.650  0.3050 -0.1921 -0.6289
  578MOL0     N77945   2.389   7.862   7.576 -0.3173  0.2888 -0.1846
  578MOL0     N77946   2.301   7.827   7.484  0.0807 -0.7360 -0.3705
  578MOL0     C77947   1.349   7.319   6.923 -0.9451  0.1570 -0.5157
  578MOL0     C77948   1.221   7.325   6.859  0.2040 -0.3352 -0.7030
  578MOL0     C77949   0.764   7.406   6.874 -0.2055  0.4762 -0.2041
  578MOL0     C77950   0.749   7.540   6.858  0.6453  0.0607  0.3609
  578MOL0     C77951   0.628   7.599   6.807 -0.0576  0.5490  0.1668
  578MOL0     C77952   0.531   7.505   6.765  0.4847  0.6605 -0.1380
  578MOL0     O77953   0.411   7.545   6.713  1.4183 -0.5074  0.5432
  578MOL0     C77954   0.387   7.678   6.659 -0.4595  0.6148 -0.2019
  578MOL0     C77955   0.293   7.666   6.537  0.2307  0.7155 -0.3536
  578MOL0     C77956   0.147   7.625   6.570  0.0660  0.0282 -0.4080
  578MOL0     C77957   0.120   7.482   6.633 -0.0680 -0.6454 -0.6141
  578MOL0     C77958   0.192   7.366   6.575  0.1787  0.3899  0.6130
  578MOL0     C77959   0.251   7.272   6.522  0.1340  0.3287  0.1047
  578MOL0     C77960   0.547   7.365   6.780 -0.7674  0.3585  0.0988
  578MOL0     C77961   0.666   7.314   6.835  0.2828  0.0999  0.0812
  578MOL0     C77962   0.694   7.164   6.850 -0.0438 -0.4017  0.6415
  578MOL0     H77963   1.074   7.514   7.104 -0.6821  0.2898 -1.5656
  578MOL0     H77964   1.289   7.512   7.202 -0.1075 -0.2963  0.4517
  578MOL0     H77965   1.535   7.561   7.145 -1.1342  0.0258  0.2812
  578MOL0     H77966   1.492   7.444   7.267 -0.2613 -1.5272 -0.6113
  578MOL0     H77967   1.742   7.443   7.111 -3.8982  2.6143 -1.1236
  578MOL0     H77968   1.702   7.323   7.233 -0.2607 -0.7588 -2.3515
  578MOL0     H77969   1.671   7.538   7.380 -1.6024  3.1024 -3.0308
  578MOL0     H77970   1.765   7.605   7.255 -2.8032 -0.5857 -2.2638
  578MOL0     H77971   1.805   7.390   7.472  1.8920 -1.6183 -0.7646
  578MOL0     H77972   1.927   7.396   7.346 -0.6642  0.6368 -1.3676
  578MOL0     H77973   1.860   7.624   7.521 -0.8795 -0.4163 -2.6681
  578MOL0     H77974   1.985   7.513   7.564 -0.1682  1.3274  0.0315
  578MOL0     H77975   2.000   7.658   7.286 -2.2325  4.1836  1.3996
  578MOL0     H77976   2.065   7.730   7.426 -0.8747  1.1627  0.4482
  578MOL0     H77977   2.155   7.477   7.287 -1.0392 -0.8518  1.3379
  578MOL0     H77978   2.201   7.474   7.444  3.1507 -0.4890 -1.5323
  578MOL0     H77979   2.367   7.571   7.285  1.6764  2.6646 -1.7387
  578MOL0     H77980   2.268   7.693   7.238  2.6827  0.2354 -0.8309
  578MOL0     H77981   2.498   7.568   7.505 -1.2221 -0.2198 -2.1740
  578MOL0     H77982   2.578   7.831   7.757 -2.4658  0.3950 -0.0990
  578MOL0     H77983   2.564   7.665   7.756 -1.2397 -0.8035 -2.6100
  578MOL0     H77984   2.739   7.666   7.555 -0.6292 -2.1619  1.5338
  578MOL0     H77985   2.770   7.842   7.614  2.2311 -1.3071  1.9350
  578MOL0     H77986   2.789   7.586   7.770  2.1368 -1.5909 -2.3707
  578MOL0     H77987   2.814   7.764   7.822  0.0833 -2.2596  2.1058
  578MOL0     H77988   2.976   7.600   7.604 -1.4364 -4.3611  2.7746
  578MOL0     H77989   3.028   7.626   7.769  0.5265 -0.5512 -1.5208
  578MOL0     H77990   3.110   8.021   7.597 -0.3890 -2.5330 -1.5760
  578MOL0     H77991   3.335   8.103   7.584 -0.1584 -0.5360 -0.6694
  578MOL0     H77992   3.815   7.704   7.415 -2.0420  0.9100  1.4272
  578MOL0     H77993   4.042   7.738   7.358 -0.6632  0.1602 -0.5539
  578MOL0     H77994   4.256   7.864   7.281  2.4126 -0.1448 -1.2438
  578MOL0     H77995   4.181   8.010   7.267 -2.8517 -4.0796  0.6101
  578MOL0     H77996   4.400   8.105   7.401 -2.3998  1.3827 -0.9394
  578MOL0     H77997   4.475   7.969   7.345  0.2174  0.7435 -0.2490
  578MOL0     H77998   4.369   8.053   7.089  0.0036  2.0832 -1.6417
  578MOL0     H77999   4.347   8.205   7.178 -1.8474 -1.9174 -2.6279
  578MOL0     H78000   4.620   8.096   7.230  0.5154 -2.2058 -1.7084
  578MOL0     H78001   4.573   8.248   7.162  1.4401 -0.9034 -1.9564
  578MOL0     H78002   4.554   8.150   6.927  1.7002 -1.7334 -1.3936
  578MOL0     H78003   4.550   7.985   6.999 -0.9797 -0.4950  2.5149
  578MOL0     H78004   4.746   8.021   6.877 -3.2265 -0.9779  0.1414
  578MOL0     H78005   4.768   8.185   6.947  3.2562 -1.8602 -2.8711
  578MOL0     H78006   4.875   7.926   7.012  0.0493  1.0804 -0.7781
  578MOL0     H78007   4.775   7.984   7.152 -1.8472  0.7789  0.5678
  578MOL0     H78008   4.920   8.192   7.150  0.4548 -2.6506  2.6088
  578MOL0     H78009   5.022   8.045   7.158  2.4265  1.6978 -0.1285
  578MOL0     H78010   4.068   8.077   7.620  2.8907  0.2420 -0.8443
  578MOL0     H78011   3.821   8.062   7.656  4.5891  0.8829  2.0029
  578MOL0     H78012   3.476   7.702   7.650 -1.2237 -2.1069  2.7147
  578MOL0     H78013   3.252   7.619   7.671  1.8367 -0.0845  1.3256
  578MOL0     H78014   1.425   7.255   6.880 -2.8148 -1.6691 -1.2588
  578MOL0     H78015   1.208   7.287   6.758  1.4028  0.6321 -1.2564
  578MOL0     H78016   0.830   7.606   6.886 -0.0439 -0.3838  3.9303
  578MOL0     H78017   0.619   7.706   6.790  0.5128  0.2440 -2.5126
  578MOL0     H78018   0.478   7.724   6.618 -1.1188  0.5615 -1.7879
  578MOL0     H78019   0.347   7.747   6.734 -0.4526  0.6381 -0.2192
  578MOL0     H78020   0.343   7.604   6.462  0.4485  1.4519 -0.8242
  578MOL0     H78021   0.288   7.766   6.493  4.4227  2.1241  1.8628
  578MOL0     H78022   0.090   7.630   6.476  0.2943 -0.5984 -0.5850
  578MOL0     H78023   0.104   7.691   6.646 -1.4047 -1.7079  0.3303
  578MOL0     H78024   0.154   7.483   6.738 -0.7042  0.2978 -0.4102
  578MOL0     H78025   0.012   7.467   6.643 -0.0321 -0.6194 -0.1317
  578MOL0     H78026   0.289   7.183   6.475 -0.4067 -0.8213  1.7539
  578MOL0     H78027   0.471   7.301   6.736 -0.6004  0.7447 -0.7769
  578MOL0     H78028   0.710   7.140   6.956 -1.6214  0.8213  1.2031
  578MOL0     H78029   0.611   7.100   6.819  0.8185 -1.4162  0.3741
  578MOL0     H78030   0.777   7.135   6.786  0.8747 -2.8708  2.8050
  579MOL0     O78031   2.355   2.584   3.360  0.1904  0.1569  1.3917
  579MOL0     C78032   2.332   2.524   3.254  0.0256  0.3610 -1.8905
  579MOL0     O78033   2.422   2.477   3.166 -0.1865  0.6638  0.3041
  579MOL0     C78034   2.554   2.486   3.200 -0.8926  0.4048  0.4915
  579MOL0     C78035   2.633   2.379   3.244 -0.1404  0.2275  1.0504
  579MOL0     C78036   2.760   2.397   3.292 -0.0390  0.3407 -0.0401
  579MOL0     C78037   2.824   2.523   3.266 -0.6904  0.7908  0.4721
  579MOL0     O78038   2.960   2.539   3.279 -0.0329  0.2231  0.4280
  579MOL0     C78039   3.018   2.671   3.290  0.3580 -1.0261 -0.2210
  579MOL0     C78040   3.161   2.660   3.331  0.3289 -0.2087 -0.1123
  579MOL0     C78041   3.262   2.779   3.314 -0.2830  0.3965 -0.4062
  579MOL0     C78042   3.212   2.910   3.390 -0.2924  1.1498  0.9298
  579MOL0     C78043   3.339   3.002   3.420  0.3327  0.3877 -0.1748
  579MOL0     C78044   3.410   3.055   3.301 -0.4187 -0.2190 -1.0750
  579MOL0     C78045   3.332   3.153   3.225 -0.2869 -0.3108 -0.4756
  579MOL0     C78046   3.393   3.215   3.100  0.3493  0.6919  0.6775
  579MOL0     N78047   3.507   3.290   3.134  0.1906 -1.2194  0.3399
  579MOL0     C78048   3.514   3.417   3.197  0.1830  0.5139 -0.2677
  579MOL0     C78049   3.641   3.460   3.169  0.5249 -0.1624  0.2225
  579MOL0     C78050   3.700   3.584   3.204  0.6340 -0.0269 -0.1821
  579MOL0     C78051   3.852   3.567   3.219 -1.2279  0.3264  0.5073
  579MOL0     C78052   3.922   3.695   3.249 -0.5362 -0.5696 -0.0100
  579MOL0     C78053   4.071   3.678   3.248  0.0870  0.1873 -0.8446
  579MOL0     O78054   4.120   3.797   3.310 -0.6785  0.0374  0.8077
  579MOL0     C78055   4.256   3.838   3.327 -0.2889  0.0767 -0.0633
  579MOL0     C78056   4.298   3.944   3.410  0.1738 -0.6302  0.0865
  579MOL0     C78057   4.431   3.969   3.445 -0.1105  0.5889  0.2236
  579MOL0     C78058   4.529   3.870   3.411 -0.3290 -0.3762  0.8818
  579MOL0     C78059   4.668   3.882   3.456 -0.1978 -0.3136  0.3937
  579MOL0     O78060   4.751   3.789   3.403 -0.4494 -0.6680  0.8517
  579MOL0     C78061   4.887   3.806   3.428  0.2185 -0.4312  0.1236
  579MOL0     C78062   4.956   3.723   3.517  0.8679  0.3710 -0.4859
  579MOL0     C78063   5.092   3.739   3.535 -0.1230 -0.1970  0.0437
  579MOL0     C78064   5.169   3.847   3.470 -0.1419 -0.5715  0.6314
  579MOL0     O78065   5.301   3.853   3.499  0.4002 -0.8287  0.3823
  579MOL0     C78066   5.392   3.941   3.436  0.5405 -0.2705 -0.2989
  579MOL0     C78067   5.543   3.914   3.448 -0.2382 -0.6186  0.8647
  579MOL0     C78068   5.627   3.994   3.346 -0.2408  0.0552 -0.1688
  579MOL0     C78069   5.774   3.949   3.341  0.3916  0.4093  0.5544
  579MOL0     C78070   5.832   3.986   3.201 -0.3691  0.2039 -1.1974
  579MOL0     C78071   5.982   4.002   3.209 -0.0648  0.4012  0.0121
  579MOL0     C78072   6.035   4.032   3.069 -0.0754 -0.3458 -0.3227
  579MOL0     C78073   6.198   4.034   3.069 -0.2761 -0.1961 -1.0078
  579MOL0    Cl78074   6.266   3.877   3.126  0.2492  0.2501  0.3391
  579MOL0     C78075   5.101   3.935   3.389  0.3960 -0.5512 -0.3998
  579MOL0     C78076   4.962   3.917   3.367 -0.1274  0.0507  0.1278
  579MOL0     O78077   4.693   3.981   3.529 -0.2928  0.8882 -0.1933
  579MOL0     C78078   4.489   3.773   3.322 -0.2585  0.1078 -0.4674
  579MOL0     C78079   4.361   3.755   3.283 -0.1039 -0.9490 -0.3334
  579MOL0     N78080   3.704   3.356   3.100  0.6418  0.1397 -0.3180
  579MOL0     N78081   3.618   3.257   3.080  0.9951  0.3589  1.1294
  579MOL0     C78082   2.753   2.630   3.225 -0.0489  0.4970 -0.3931
  579MOL0     C78083   2.615   2.611   3.190 -0.9550 -0.1183 -0.8797
  579MOL0     C78084   2.183   2.518   3.217  0.3521  0.5187  0.0853
  579MOL0     C78085   2.120   2.626   3.155 -0.0909  0.7154  0.5629
  579MOL0     C78086   1.989   2.632   3.126  1.2321 -0.0369 -0.6234
  579MOL0     C78087   1.903   2.530   3.168  0.0762  0.5825 -0.4143
  579MOL0     O78088   1.764   2.561   3.176  0.1046 -0.1411  0.4988
  579MOL0     C78089   1.669   2.461   3.195  0.1107 -0.6533  0.3235
  579MOL0     C78090   1.627   2.468   3.340  1.0097  0.1582  0.3034
  579MOL0     C78091   1.533   2.589   3.355  0.0984  0.3903 -0.1801
  579MOL0     C78092   1.491   2.609   3.499 -0.2703  1.2667 -0.0665
  579MOL0     C78093   1.410   2.496   3.547 -0.0237  0.1353  0.2480
  579MOL0     C78094   1.323   2.417   3.585  0.0070  0.7914  0.7530
  579MOL0     C78095   1.965   2.418   3.227 -0.1098 -0.3074 -0.1140
  579MOL0     C78096   2.101   2.415   3.254  1.0273 -0.0439  0.0813
  579MOL0     C78097   2.155   2.292   3.324 -0.0318  0.8179 -0.1099
  579MOL0     H78098   2.583   2.283   3.247  1.1835 -0.5307 -0.1761
  579MOL0     H78099   2.813   2.318   3.342  2.1274  1.1797 -0.8941
  579MOL0     H78100   3.022   2.718   3.191  0.7193  0.5579  0.5309
  579MOL0     H78101   2.956   2.738   3.350 -0.0236 -2.2472  0.7789
  579MOL0     H78102   3.205   2.569   3.290  0.2278 -0.3736  0.1385
  579MOL0     H78103   3.156   2.636   3.438 -0.3634  2.1504  0.4635
  579MOL0     H78104   3.270   2.798   3.206 -1.0118  2.8994 -0.0841
  579MOL0     H78105   3.361   2.746   3.346  0.2166 -0.7020 -2.7995
  579MOL0     H78106   3.139   2.965   3.329 -0.7479 -1.9772 -1.6158
  579MOL0     H78107   3.157   2.876   3.478  1.2958 -2.8070  0.6160
  579MOL0     H78108   3.311   3.088   3.482  1.1040  1.8609 -1.7883
  579MOL0     H78109   3.405   2.940   3.481 -0.0093 -0.0678 -0.2608
  579MOL0     H78110   3.505   3.091   3.343 -1.0837  0.9552 -0.5388
  579MOL0     H78111   3.441   2.973   3.235 -0.3574  1.2775 -2.9884
  579MOL0     H78112   3.302   3.230   3.297 -0.9821 -1.3379  0.3684
  579MOL0     H78113   3.247   3.105   3.175  0.7304 -0.2585 -2.3384
  579MOL0     H78114   3.408   3.145   3.018  0.6107  1.6022 -0.0674
  579MOL0     H78115   3.320   3.287   3.062 -0.2244 -1.4116 -2.6503
  579MOL0     H78116   3.434   3.467   3.249 -0.7236  0.4833 -1.5734
  579MOL0     H78117   3.665   3.649   3.124 -1.4009 -1.9540 -0.9591
  579MOL0     H78118   3.652   3.615   3.298 -0.0916  0.4389 -0.6988
  579MOL0     H78119   3.865   3.495   3.300  2.6276  1.2328  0.8787
  579MOL0     H78120   3.894   3.529   3.125  1.1737 -0.0153  1.6475
  579MOL0     H78121   3.901   3.737   3.347  0.6962  1.7206 -0.6407
  579MOL0     H78122   3.889   3.764   3.171  3.9224 -1.3755 -3.0130
  579MOL0     H78123   4.112   3.675   3.146  0.6301  0.5268 -0.6381
  579MOL0     H78124   4.100   3.588   3.303 -1.2630  0.6498  0.6775
  579MOL0     H78125   4.220   4.015   3.435  0.9887  0.6087 -0.7823
  579MOL0     H78126   4.461   4.057   3.501  2.2481 -0.7530  1.2215
  579MOL0     H78127   4.903   3.638   3.558 -2.2385  2.2627 -0.2352
  579MOL0     H78128   5.150   3.667   3.593  0.4812 -1.6471 -2.2040
  579MOL0     H78129   5.376   3.933   3.328  0.4250  3.9117 -0.7534
  579MOL0     H78130   5.370   4.043   3.469 -0.3635 -0.7053  0.5024
  579MOL0     H78131   5.577   3.952   3.544  0.8712 -2.7446  1.3571
  579MOL0     H78132   5.569   3.808   3.441 -3.5545 -1.7907  3.6037
  579MOL0     H78133   5.578   3.966   3.252 -0.9513  1.8932 -0.4072
  579MOL0     H78134   5.624   4.104   3.344 -0.1097  0.0908  0.8749
  579MOL0     H78135   5.786   3.840   3.347 -1.0503  0.0407 -1.9336
  579MOL0     H78136   5.837   3.991   3.420  0.5952 -0.3596  0.8124
  579MOL0     H78137   5.790   4.084   3.175 -0.1833  0.8163  0.6980
  579MOL0     H78138   5.813   3.917   3.118 -0.5494 -1.8584  0.4943
  579MOL0     H78139   5.989   4.096   3.265 -2.2674  0.6712 -0.1110
  579MOL0     H78140   6.030   3.912   3.248 -0.5141 -0.7924 -2.0649
  579MOL0     H78141   5.999   4.123   3.020  1.5841 -0.5090 -1.9886
  579MOL0     H78142   6.015   3.959   2.990  0.5759  0.8013 -1.6096
  579MOL0     H78143   6.235   4.062   2.970  1.8258 -2.3057 -0.9093
  579MOL0     H78144   6.228   4.101   3.150 -2.6981 -0.6469  0.3724
  579MOL0     H78145   5.160   4.008   3.335  0.8300  1.1044  2.1566
  579MOL0     H78146   4.908   3.969   3.289  0.2983 -1.1220 -0.9651
  579MOL0     H78147   4.556   3.694   3.289  1.6394 -0.3731  3.8313
  579MOL0     H78148   4.329   3.673   3.220 -1.5037 -1.8773  1.5047
  579MOL0     H78149   2.795   2.728   3.203  1.9581 -0.2190  0.0905
  579MOL0     H78150   2.561   2.700   3.158 -2.1529  0.5793  2.6219
  579MOL0     H78151   2.183   2.708   3.121 -1.5546  2.1712  1.2235
  579MOL0     H78152   1.939   2.710   3.070 -0.2214 -1.5830 -1.5784
  579MOL0     H78153   1.709   2.362   3.172  0.4539 -0.6156  0.7692
  579MOL0     H78154   1.582   2.470   3.128 -0.2029 -1.8694  0.5503
  579MOL0     H78155   1.718   2.478   3.399  2.2207  1.3318 -1.6292
  579MOL0     H78156   1.592   2.365   3.354  0.6314  0.3073  0.4509
  579MOL0     H78157   1.442   2.567   3.299  1.1459  1.3015 -2.3519
  579MOL0     H78158   1.582   2.682   3.326 -0.3964  0.0571 -2.1983
  579MOL0     H78159   1.570   2.626   3.573  0.3570  0.8620 -0.6369
  579MOL0     H78160   1.428   2.699   3.500 -0.3194  1.2269  0.9850
  579MOL0     H78161   1.245   2.349   3.614  0.8761 -1.9324 -2.6016
  579MOL0     H78162   1.894   2.341   3.256 -1.6635 -0.2668 -3.3554
  579MOL0     H78163   2.102   2.198   3.304  1.8573 -0.1342 -0.8629
  579MOL0     H78164   2.261   2.273   3.309  0.1080 -2.7227  3.3733
  579MOL0     H78165   2.143   2.303   3.433  0.8427 -0.0016  0.0771
  580MOL0     O78166   2.579   6.219   2.275 -0.5011 -0.8034 -0.0460
  580MOL0     C78167   2.507   6.283   2.197  0.4111 -0.5925 -0.4370
  580MOL0     O78168   2.544   6.393   2.121  0.7222 -0.6154 -0.2172
  580MOL0     C78169   2.671   6.429   2.099 -0.5480  0.5578  0.3288
  580MOL0     C78170   2.749   6.472   2.200 -0.9120  0.4943 -0.3038
  580MOL0     C78171   2.876   6.529   2.173 -0.3843  0.7782  0.9644
  580MOL0     C78172   2.935   6.492   2.049  0.7469 -0.5370 -0.3374
  580MOL0     O78173   3.069   6.504   2.025 -0.4400 -0.1639 -0.1833
  580MOL0     C78174   3.151   6.556   2.130  0.3957 -0.7021 -0.0825
  580MOL0     C78175   3.304   6.577   2.095 -0.3767 -0.2643  0.4024
  580MOL0     C78176   3.382   6.658   2.198  0.2525 -0.0996  0.7082
  580MOL0     C78177   3.526   6.658   2.149  0.2160 -0.3715 -0.9057
  580MOL0     C78178   3.610   6.714   2.254  0.3499 -0.3683 -0.9596
  580MOL0     C78179   3.741   6.767   2.201 -0.1651  0.0421 -0.0023
  580MOL0     C78180   3.833   6.808   2.318  0.1221  0.2431  0.5160
  580MOL0     C78181   3.947   6.894   2.250 -0.4583 -0.0942  0.4141
  580MOL0     N78182   4.044   6.936   2.353  0.4490 -0.2603  0.0764
  580MOL0     C78183   4.112   6.855   2.440 -0.6897 -0.5676 -0.7893
  580MOL0     C78184   4.184   6.939   2.520 -0.5247 -0.4324  1.0237
  580MOL0     C78185   4.299   6.902   2.609 -0.6878 -0.2779  0.4984
  580MOL0     C78186   4.298   6.764   2.676  0.2836  0.4375 -0.0742
  580MOL0     C78187   4.382   6.762   2.809  1.4756 -0.0364  0.3506
  580MOL0     C78188   4.537   6.787   2.793 -0.1743  0.9927  0.3274
  580MOL0     O78189   4.598   6.680   2.716  0.5005  0.3502  0.3826
  580MOL0     C78190   4.729   6.692   2.666 -0.0894  0.3791  0.0928
  580MOL0     C78191   4.777   6.590   2.587 -0.2243 -0.2107 -0.4301
  580MOL0     C78192   4.903   6.598   2.526  0.4242  0.2938 -0.2281
  580MOL0     C78193   4.987   6.708   2.548  1.0845  0.6541  0.1870
  580MOL0     C78194   5.128   6.708   2.503  0.2446  0.1784 -0.2667
  580MOL0     O78195   5.197   6.820   2.534 -0.4596  0.0938 -0.6152
  580MOL0     C78196   5.319   6.838   2.476 -0.2331  0.6455  0.5061
  580MOL0     C78197   5.361   6.789   2.340  0.4443 -0.6730 -0.5842
  580MOL0     C78198   5.490   6.804   2.293  0.5486  0.3993  0.9919
  580MOL0     C78199   5.579   6.882   2.357 -0.6019  1.0983 -0.6484
  580MOL0     O78200   5.686   6.897   2.280 -0.0298 -0.5517 -0.0785
  580MOL0     C78201   5.791   6.979   2.340 -0.3952 -1.3271 -0.9697
  580MOL0     C78202   5.924   6.939   2.268  0.2285 -0.7819 -0.0451
  580MOL0     C78203   6.051   7.009   2.291 -0.6769  0.9145 -1.4201
  580MOL0     C78204   6.087   7.021   2.446  0.8000  0.4823  1.6286
  580MOL0     C78205   6.215   7.116   2.454  0.1318  0.2495 -1.1214
  580MOL0     C78206   6.286   7.084   2.588  1.0382  0.0133  0.2915
  580MOL0     C78207   6.410   7.174   2.622 -0.1091 -0.0874 -0.3738
  580MOL0     C78208   6.495   7.140   2.735 -0.5589 -0.6057  0.1546
  580MOL0    Cl78209   6.622   7.267   2.771  0.1317  0.1504 -0.0545
  580MOL0     C78210   5.536   6.934   2.487 -0.2312 -0.1866  0.0605
  580MOL0     C78211   5.412   6.917   2.558  0.2394  0.5662  0.9489
  580MOL0     O78212   5.178   6.613   2.434  0.3789 -0.2024 -0.6061
  580MOL0     C78213   4.940   6.819   2.625  1.2843 -0.2924 -0.4361
  580MOL0     C78214   4.810   6.808   2.675 -0.6130 -0.1322 -0.0359
  580MOL0     N78215   4.141   7.066   2.499  0.2682 -0.1884  0.2508
  580MOL0     N78216   4.062   7.067   2.398 -0.6724 -0.4942  0.1770
  580MOL0     C78217   2.846   6.459   1.940  0.3056 -0.2125  0.0566
  580MOL0     C78218   2.712   6.425   1.971  0.0170 -0.2096 -0.0611
  580MOL0     C78219   2.357   6.244   2.196  0.1597  0.5143 -0.0883
  580MOL0     C78220   2.336   6.105   2.200 -0.8742 -0.4153  0.3471
  580MOL0     C78221   2.206   6.056   2.229 -0.5687  0.2283 -0.5524
  580MOL0     C78222   2.100   6.144   2.215 -0.2321 -0.7886 -0.4693
  580MOL0     O78223   1.977   6.094   2.245 -0.5034  0.3899 -0.7493
  580MOL0     C78224   1.862   6.118   2.158 -0.2046  0.3596  0.7529
  580MOL0     C78225   1.849   6.043   2.030  0.2572 -1.0757  0.3512
  580MOL0     C78226   1.937   6.111   1.918 -0.1589 -0.3972 -0.4047
  580MOL0     C78227   1.908   6.258   1.877 -0.6683 -0.3003 -0.1603
  580MOL0     C78228   1.896   6.266   1.734  0.5993 -0.2713 -0.4652
  580MOL0     C78229   1.878   6.273   1.612  0.5377 -0.1196 -0.4914
  580MOL0     C78230   2.124   6.286   2.202 -0.1583  0.1522 -0.5840
  580MOL0     C78231   2.247   6.339   2.175 -0.6987  0.3108 -0.2997
  580MOL0     C78232   2.273   6.489   2.148 -0.2457 -0.7462  0.2694
  580MOL0     H78233   2.699   6.477   2.296  0.7485 -0.6103  0.6587
  580MOL0     H78234   2.923   6.568   2.263 -0.0779 -0.0175  1.1589
  580MOL0     H78235   3.113   6.657   2.149 -2.4494 -1.9005  1.2118
  580MOL0     H78236   3.141   6.507   2.227 -1.0501 -0.6721 -0.1991
  580MOL0     H78237   3.311   6.625   1.998  2.1351 -1.6090 -0.1625
  580MOL0     H78238   3.345   6.477   2.083 -2.0590 -1.5781  4.0760
  580MOL0     H78239   3.368   6.621   2.300  0.5468 -2.6134 -0.1016
  580MOL0     H78240   3.340   6.759   2.203  0.1048  0.0011 -1.5307
  580MOL0     H78241   3.566   6.558   2.127  2.5244  0.5481 -1.1315
  580MOL0     H78242   3.541   6.720   2.061  0.9867  0.6638 -0.0668
  580MOL0     H78243   3.566   6.797   2.309  0.0259 -1.6587  0.8343
  580MOL0     H78244   3.631   6.636   2.327  1.4772 -0.8297 -1.7446
  580MOL0     H78245   3.800   6.683   2.162  2.0449  1.1896  0.7158
  580MOL0     H78246   3.726   6.845   2.126  2.5500  0.1769 -0.5399
  580MOL0     H78247   3.873   6.723   2.373  1.0964  0.2545 -0.1440
  580MOL0     H78248   3.773   6.863   2.391  0.0719  0.9875 -0.0760
  580MOL0     H78249   3.997   6.828   2.178 -0.5823 -0.4660  0.6642
  580MOL0     H78250   3.904   6.977   2.195 -2.3299 -2.4085 -1.8718
  580MOL0     H78251   4.135   6.751   2.417  0.8801 -0.5879  0.6946
  580MOL0     H78252   4.386   6.901   2.542 -0.9511 -1.0100  0.1538
  580MOL0     H78253   4.305   6.982   2.683 -0.6808  0.1693  0.0274
  580MOL0     H78254   4.196   6.730   2.698  1.6226 -2.5910  2.3181
  580MOL0     H78255   4.337   6.693   2.602  1.6308  0.0625  0.9507
  580MOL0     H78256   4.356   6.667   2.856 -2.3350  0.7205  0.1249
  580MOL0     H78257   4.332   6.829   2.879  0.7976  0.0359 -0.1906
  580MOL0     H78258   4.591   6.795   2.887  2.8810  0.2535 -1.2303
  580MOL0     H78259   4.549   6.884   2.743 -1.1244  1.3666  0.7900
  580MOL0     H78260   4.717   6.500   2.586 -1.6661  0.6235  2.1183
  580MOL0     H78261   4.947   6.515   2.474 -0.3221 -0.0904 -0.2590
  580MOL0     H78262   5.295   6.732   2.276  0.3677 -1.0399 -0.1841
  580MOL0     H78263   5.521   6.774   2.193 -0.0146 -2.7795  1.6484
  580MOL0     H78264   5.774   7.085   2.318 -1.7450 -1.4776 -0.7568
  580MOL0     H78265   5.796   6.971   2.449 -2.0801 -0.6328 -0.8024
  580MOL0     H78266   5.952   6.841   2.307  2.2884 -0.1658  0.1452
  580MOL0     H78267   5.899   6.930   2.162  0.4853 -3.8099  0.0796
  580MOL0     H78268   6.127   6.952   2.238 -0.0016  0.4092  0.0450
  580MOL0     H78269   6.051   7.111   2.251 -1.2322  1.5322  0.0557
  580MOL0     H78270   6.105   6.921   2.487  1.5109 -0.0943  0.0183
  580MOL0     H78271   6.010   7.068   2.508 -1.4475 -1.9346  0.8561
  580MOL0     H78272   6.202   7.224   2.444  1.5408  0.5338 -0.2152
  580MOL0     H78273   6.278   7.096   2.367  0.2374  0.6099 -1.1321
  580MOL0     H78274   6.215   7.101   2.670 -1.1851  0.8317 -1.6734
  580MOL0     H78275   6.315   6.979   2.583  1.6084  0.2228 -1.1668
  580MOL0     H78276   6.371   7.275   2.637 -0.6300 -0.3923  0.4200
  580MOL0     H78277   6.477   7.180   2.536 -1.8777  0.9650 -1.7431
  580MOL0     H78278   6.431   7.155   2.822 -0.6648  0.1025 -0.0381
  580MOL0     H78279   6.530   7.036   2.733 -1.3468 -0.8935  0.7650
  580MOL0     H78280   5.601   7.000   2.542 -2.8843  0.4152  2.7317
  580MOL0     H78281   5.392   6.960   2.656 -2.7982  0.3351  0.5416
  580MOL0     H78282   5.002   6.903   2.655  0.1395  1.1083 -1.7929
  580MOL0     H78283   4.773   6.897   2.725 -0.8886  0.4965 -1.3116
  580MOL0     H78284   2.887   6.458   1.839  1.7149  3.3966  0.4313
  580MOL0     H78285   2.635   6.412   1.896 -0.9845  3.4610  0.1479
  580MOL0     H78286   2.416   6.032   2.198 -1.4234 -1.0378  0.7512
  580MOL0     H78287   2.197   5.950   2.248  1.2329  0.3875  1.5850
  580MOL0     H78288   1.859   6.224   2.131 -0.6950  0.7822  2.3110
  580MOL0     H78289   1.765   6.104   2.208 -1.1338  0.3300 -0.9987
  580MOL0     H78290   1.752   6.032   1.983  0.0818  1.3515  0.0604
  580MOL0     H78291   1.887   5.941   2.046  3.8559  0.1372  0.5689
  580MOL0     H78292   1.929   6.041   1.835  0.9299 -1.3540  0.2621
  580MOL0     H78293   2.040   6.112   1.956  0.2450 -0.7437 -1.4473
  580MOL0     H78294   1.812   6.284   1.921 -0.5210 -4.0282  2.8984
  580MOL0     H78295   1.981   6.327   1.921 -0.4967  0.6951 -1.9285
  580MOL0     H78296   1.863   6.266   1.506 -3.2381  0.0782 -0.1351
  580MOL0     H78297   2.034   6.348   2.201 -0.0248  0.4213 -2.8318
  580MOL0     H78298   2.316   6.504   2.048 -0.4018  0.9486  0.4338
  580MOL0     H78299   2.180   6.545   2.151  0.3946  0.6365 -2.4605
  580MOL0     H78300   2.344   6.525   2.222  0.0739  1.8113 -1.1817
  581MOL0     O78301   1.395  10.209   0.120 -0.5196 -0.1146  0.1329
  581MOL0     C78302   1.364  10.163   0.233 -0.6793 -0.7289 -0.2319
  581MOL0     O78303   1.336  10.039   0.252 -0.5960  0.6057  0.0364
  581MOL0     C78304   1.350   9.953   0.146  0.0038  0.5203  0.7633
  581MOL0     C78305   1.473   9.937   0.080  0.1030 -0.5006  0.4423
  581MOL0     C78306   1.481   9.842  -0.025 -0.1238 -0.1424 -0.2704
  581MOL0     C78307   1.373   9.765  -0.063 -0.3171  0.3127  0.5896
  581MOL0     O78308   1.396   9.681  -0.170  0.3839 -0.2671 -0.5341
  581MOL0     C78309   1.300   9.582  -0.214  0.4506  0.1718 -0.5884
  581MOL0     C78310   1.320   9.458  -0.120  0.7796 -0.8227  0.0255
  581MOL0     C78311   1.250   9.333  -0.169  0.4171  0.4868  0.3068
  581MOL0     C78312   1.099   9.338  -0.188  0.5067 -0.7641  0.0577
  581MOL0     C78313   1.057   9.210  -0.261 -0.1456 -0.6549  0.0596
  581MOL0     C78314   0.908   9.172  -0.234 -0.0496  0.3530  0.2499
  581MOL0     C78315   0.857   9.048  -0.301 -0.1690 -0.3787  0.4800
  581MOL0     C78316   0.869   9.064  -0.454  0.5339  0.6492 -0.6891
  581MOL0     N78317   0.785   8.971  -0.526 -0.3289  0.7824  0.0730
  581MOL0     C78318   0.655   8.944  -0.509  0.4108  0.2888 -0.7212
  581MOL0     C78319   0.620   8.845  -0.598  0.2712 -0.7094  0.3343
  581MOL0     C78320   0.493   8.792  -0.631 -0.0185 -0.1536 -0.2022
  581MOL0     C78321   0.448   8.702  -0.512 -0.3990 -0.0566  0.3375
  581MOL0     C78322   0.401   8.779  -0.380  0.3870 -0.1479  0.3736
  581MOL0     C78323   0.385   8.685  -0.269  0.5204  1.0840  0.1047
  581MOL0     O78324   0.506   8.624  -0.229 -0.4540  0.6534  0.2166
  581MOL0     C78325   0.598   8.704  -0.165  0.3358  0.7979  0.2370
  581MOL0     C78326   0.578   8.835  -0.117  0.2679  0.1924  0.2623
  581MOL0     C78327   0.678   8.894  -0.026  0.5829  0.2546  0.0846
  581MOL0     C78328   0.796   8.831  -0.009 -0.0256  0.3978  0.1173
  581MOL0     C78329   0.896   8.904   0.077 -1.0165  0.8839  0.4359
  581MOL0     O78330   0.851   9.004   0.159  0.2778  0.3102 -0.3951
  581MOL0     C78331   0.937   9.066   0.246  0.8676 -0.4832  0.6347
  581MOL0     C78332   1.029   9.159   0.207  0.3879 -0.2053 -0.0329
  581MOL0     C78333   1.100   9.237   0.292 -0.3232  1.2591  0.1314
  581MOL0     C78334   1.102   9.205   0.437 -1.0024  0.0794  1.0301
  581MOL0     O78335   1.155   9.292   0.528  0.2908 -0.1162  0.5863
  581MOL0     C78336   1.176   9.239   0.665 -0.0941 -0.1731  0.3756
  581MOL0     C78337   1.260   9.328   0.757 -0.4877  0.4431  0.1112
  581MOL0     C78338   1.397   9.344   0.697  0.1589  0.1873  0.1987
  581MOL0     C78339   1.500   9.392   0.798  0.1977  0.2963 -0.2149
  581MOL0     C78340   1.630   9.434   0.734 -0.4926 -0.2684 -0.3372
  581MOL0     C78341   1.737   9.490   0.839  1.1757  0.2645  0.2283
  581MOL0     C78342   1.867   9.532   0.759 -0.4522  0.1445 -0.2174
  581MOL0     C78343   1.969   9.576   0.858 -0.3020  0.1849 -0.9088
  581MOL0    Cl78344   1.961   9.747   0.877  0.3342 -0.0007  0.6337
  581MOL0     C78345   1.011   9.102   0.474 -0.2541 -0.1227 -1.2389
  581MOL0     C78346   0.928   9.040   0.382  0.1604  0.3023 -0.4672
  581MOL0     O78347   1.014   8.865   0.075  0.0712 -0.5964  0.1934
  581MOL0     C78348   0.819   8.703  -0.059 -0.3898 -0.3192 -0.0346
  581MOL0     C78349   0.711   8.640  -0.131 -0.1721  0.0673  0.1927
  581MOL0     N78350   0.733   8.810  -0.665 -0.0809 -0.4934  0.1657
  581MOL0     N78351   0.834   8.873  -0.614 -0.0030  0.0458 -0.1284
  581MOL0     C78352   1.246   9.783  -0.008  0.0053 -0.0124 -0.0942
  581MOL0     C78353   1.241   9.878   0.102  0.5183  0.4396  0.3730
  581MOL0     C78354   1.356  10.260   0.334  0.7790 -0.1683 -0.2031
  581MOL0     C78355   1.224  10.297   0.371  0.4884 -0.8929  0.7149
  581MOL0     C78356   1.196  10.383   0.468  0.9414 -0.4098 -0.5462
  581MOL0     C78357   1.304  10.457   0.533  0.1744  0.3551 -0.1148
  581MOL0     O78358   1.281  10.554   0.626 -0.0631 -0.0513  0.0629
  581MOL0     C78359   1.240  10.681   0.570 -0.4660 -0.5033  0.3810
  581MOL0     C78360   1.288  10.804   0.655  0.0436  0.8411  0.1613
  581MOL0     C78361   1.241  10.799   0.807  0.2785 -0.0834  0.0664
  581MOL0     C78362   1.279  10.673   0.891 -0.2825  0.7464  0.2357
  581MOL0     C78363   1.425  10.646   0.881  0.2696  0.0232  0.2161
  581MOL0     C78364   1.536  10.607   0.848 -0.3209  1.2212 -0.4216
  581MOL0     C78365   1.433  10.410   0.504  0.2763  0.6602 -0.1488
  581MOL0     C78366   1.464  10.313   0.407  0.0541 -0.5435 -0.1541
  581MOL0     C78367   1.604  10.262   0.371  0.5800 -0.7349  0.1393
  581MOL0     H78368   1.552  10.005   0.109  1.2373 -1.3551 -0.5254
  581MOL0     H78369   1.570   9.814  -0.080  1.4117 -2.3207  2.9992
  581MOL0     H78370   1.195   9.610  -0.213 -0.0311 -1.2432 -2.6857
  581MOL0     H78371   1.316   9.544  -0.316 -0.5748 -2.3846  0.1053
  581MOL0     H78372   1.278   9.498  -0.027 -0.5374 -1.0575 -0.4505
  581MOL0     H78373   1.427   9.450  -0.098  0.5021  0.7489  2.3252
  581MOL0     H78374   1.269   9.260  -0.090 -0.0056 -3.3921 -2.8820
  581MOL0     H78375   1.301   9.300  -0.260  2.9176 -2.5634  2.5839
  581MOL0     H78376   1.051   9.355  -0.092 -3.1220 -0.4996 -1.6504
  581MOL0     H78377   1.073   9.421  -0.255  1.2736 -0.7167 -0.1980
  581MOL0     H78378   1.067   9.233  -0.367 -0.6844  0.1625  0.1779
  581MOL0     H78379   1.129   9.130  -0.239  0.9435 -0.2328 -1.7780
  581MOL0     H78380   0.898   9.168  -0.125  2.8672  0.6537  0.6028
  581MOL0     H78381   0.836   9.248  -0.264 -2.0243 -2.3186 -2.4387
  581MOL0     H78382   0.755   9.027  -0.268 -0.7565  1.1749 -0.2595
  581MOL0     H78383   0.925   8.971  -0.262  0.3281  0.2309  0.8198
  581MOL0     H78384   0.830   9.163  -0.477  0.1930  0.4049 -1.1873
  581MOL0     H78385   0.969   9.055  -0.496  0.2333 -0.9346 -1.1618
  581MOL0     H78386   0.585   8.995  -0.443 -2.6201 -1.1085 -2.5939
  581MOL0     H78387   0.431   8.878  -0.658  1.4235  0.4950 -1.6312
  581MOL0     H78388   0.494   8.738  -0.726 -1.0653 -2.6546  1.1171
  581MOL0     H78389   0.367   8.639  -0.549 -1.0341  0.6426  0.5122
  581MOL0     H78390   0.532   8.642  -0.475 -0.6795  1.1407  3.2355
  581MOL0     H78391   0.297   8.814  -0.385 -0.1470 -0.6371  4.8179
  581MOL0     H78392   0.464   8.862  -0.346  1.3623 -0.9797  0.6147
  581MOL0     H78393   0.315   8.611  -0.308 -0.6968  2.9867 -1.5234
  581MOL0     H78394   0.330   8.724  -0.182  2.4316  0.6491  1.5727
  581MOL0     H78395   0.483   8.885  -0.131  0.7890  0.7253 -1.6773
  581MOL0     H78396   0.662   8.994   0.014  0.1919 -0.0986  0.8178
  581MOL0     H78397   1.020   9.186   0.102  0.9755  0.6832  0.1395
  581MOL0     H78398   1.160   9.313   0.243 -0.2599  0.3284 -1.2814
  581MOL0     H78399   1.086   9.202   0.715 -0.1152  0.1504  0.5816
  581MOL0     H78400   1.232   9.147   0.646 -1.2033 -0.8540  0.2531
  581MOL0     H78401   1.217   9.427   0.777 -1.7471 -0.4972  2.4435
  581MOL0     H78402   1.270   9.282   0.856 -1.0631  1.8879  0.8669
  581MOL0     H78403   1.425   9.246   0.659 -3.2315 -1.6003  1.8814
  581MOL0     H78404   1.377   9.414   0.615  1.9534  1.4817  0.8104
  581MOL0     H78405   1.517   9.311   0.870 -2.3157 -0.3742 -0.2739
  581MOL0     H78406   1.452   9.476   0.848 -2.5263 -1.0369 -0.4201
  581MOL0     H78407   1.600   9.505   0.657  1.7574  0.7041 -0.3893
  581MOL0     H78408   1.673   9.337   0.706  1.0718 -0.9806  3.7832
  581MOL0     H78409   1.702   9.582   0.886 -1.0653  0.7835 -2.2641
  581MOL0     H78410   1.753   9.410   0.911 -0.3640 -1.1065 -0.8785
  581MOL0     H78411   1.846   9.616   0.691 -0.8248  0.7877  0.6648
  581MOL0     H78412   1.914   9.447   0.709  4.5166  2.1462  0.4034
  581MOL0     H78413   1.963   9.515   0.948  0.1887 -1.7023 -2.0922
  581MOL0     H78414   2.063   9.545   0.810 -1.1264 -1.5254 -1.4834
  581MOL0     H78415   0.996   9.078   0.579 -1.8122 -2.2537 -1.8612
  581MOL0     H78416   0.854   8.966   0.410  0.4657  0.4326  0.7444
  581MOL0     H78417   0.902   8.641  -0.029 -0.8931 -1.1849 -0.3834
  581MOL0     H78418   0.733   8.538  -0.161  3.2457  0.3432  1.2889
  581MOL0     H78419   1.155   9.747  -0.056 -2.1012  2.2406  1.9347
  581MOL0     H78420   1.152   9.898   0.162 -0.9020 -3.8966  0.1003
  581MOL0     H78421   1.136  10.257   0.322  0.7360 -2.8764  1.8144
  581MOL0     H78422   1.097  10.425   0.473  1.9245  2.0016  0.1373
  581MOL0     H78423   1.131  10.677   0.573 -0.4758 -0.0933  0.7649
  581MOL0     H78424   1.262  10.687   0.463  1.3443  0.6624  0.7660
  581MOL0     H78425   1.238  10.894   0.618 -3.8078  0.0216  2.8315
  581MOL0     H78426   1.398  10.807   0.653  0.2037 -0.6115  2.8906
  581MOL0     H78427   1.132  10.807   0.817  0.0833  0.0023 -1.7448
  581MOL0     H78428   1.290  10.886   0.851  2.1879  0.3036 -2.5931
  581MOL0     H78429   1.255  10.696   0.995  3.3435  0.5415  1.2712
  581MOL0     H78430   1.221  10.585   0.861  1.2892 -0.6331  1.0886
  581MOL0     H78431   1.634  10.578   0.814  0.7707 -0.8736  3.7885
  581MOL0     H78432   1.507  10.452   0.571 -0.8611  0.4744  1.2789
  581MOL0     H78433   1.595  10.155   0.348 -1.0360 -0.3827 -1.0490
  581MOL0     H78434   1.638  10.323   0.287  1.0163 -0.1190  0.7580
  581MOL0     H78435   1.670  10.270   0.458 -2.0628 -0.1913  2.2291
  582MOL0     O78436   1.891   2.972   3.800  0.4746  0.2228  0.3148
  582MOL0     C78437   1.839   3.061   3.872 -0.1900 -0.0837  0.1397
  582MOL0     O78438   1.740   3.142   3.837  0.5831 -0.0200 -0.2900
  582MOL0     C78439   1.667   3.121   3.725  0.6183 -0.1304 -0.9775
  582MOL0     C78440   1.619   2.992   3.681  0.6420  0.2263 -0.0427
  582MOL0     C78441   1.543   2.988   3.564 -0.2685  0.1007  0.0179
  582MOL0     C78442   1.492   3.099   3.495 -0.2602 -0.6691 -0.1918
  582MOL0     O78443   1.405   3.081   3.391  0.0802  0.6964 -0.1953
  582MOL0     C78444   1.323   3.196   3.357  0.7775  0.1003  0.9040
  582MOL0     C78445   1.230   3.165   3.239 -0.9644 -0.4138 -0.2393
  582MOL0     C78446   1.144   3.285   3.193 -0.0751  0.1157  0.5464
  582MOL0     C78447   1.024   3.302   3.277 -0.0660  0.5578 -0.3510
  582MOL0     C78448   0.935   3.409   3.242 -0.5068 -0.1065 -0.3296
  582MOL0     C78449   0.829   3.435   3.348 -0.0279 -0.2269 -0.9005
  582MOL0     C78450   0.708   3.526   3.305  0.1462  0.1448  0.3399
  582MOL0     C78451   0.619   3.455   3.210 -0.2342 -0.2629  0.5121
  582MOL0     N78452   0.516   3.542   3.156 -0.0295 -0.8874  0.1718
  582MOL0     C78453   0.538   3.616   3.050  1.1614 -0.5249 -0.3437
  582MOL0     C78454   0.414   3.676   3.026 -0.3447 -0.1572  0.2271
  582MOL0     C78455   0.380   3.759   2.904 -1.0852 -1.0396 -0.6214
  582MOL0     C78456   0.377   3.907   2.941 -0.5407  0.9136  0.1925
  582MOL0     C78457   0.489   3.988   2.866  0.1624 -0.7093 -0.5183
  582MOL0     C78458   0.627   3.950   2.913  0.1095 -0.3343  0.3439
  582MOL0     O78459   0.644   3.953   3.061 -0.5796 -0.3257  0.9006
  582MOL0     C78460   0.759   3.897   3.114  0.0962 -0.7783  1.0218
  582MOL0     C78461   0.871   3.846   3.046  0.9572  0.1076  0.3079
  582MOL0     C78462   0.976   3.793   3.117 -0.0977 -0.0570  0.3365
  582MOL0     C78463   0.992   3.799   3.262 -1.4168 -0.0520 -0.8316
  582MOL0     C78464   1.113   3.744   3.334  1.1516  0.1629 -1.1501
  582MOL0     O78465   1.121   3.754   3.473  0.3090  0.0912  0.5816
  582MOL0     C78466   1.227   3.706   3.527 -0.9894  0.6151  0.4522
  582MOL0     C78467   1.227   3.573   3.569  0.9749 -0.5823  0.0104
  582MOL0     C78468   1.339   3.523   3.642 -0.8272 -0.3356  1.3090
  582MOL0     C78469   1.452   3.610   3.676  0.3958  0.2008  0.3289
  582MOL0     O78470   1.569   3.553   3.720  0.6069 -0.2880 -0.6415
  582MOL0     C78471   1.628   3.614   3.832 -1.1869  0.2024  0.2910
  582MOL0     C78472   1.759   3.561   3.883 -0.3713 -0.1297  0.4809
  582MOL0     C78473   1.805   3.666   3.974 -0.4597  1.2148 -0.3407
  582MOL0     C78474   1.911   3.618   4.065 -0.7220  0.9632  0.1849
  582MOL0     C78475   1.958   3.738   4.157 -0.0702  0.0311  0.4230
  582MOL0     C78476   2.031   3.700   4.286  0.1440 -0.4690 -0.1475
  582MOL0     C78477   2.132   3.590   4.252 -0.5707 -0.3384  0.4276
  582MOL0     C78478   2.226   3.557   4.361 -1.0110 -0.3211 -0.8315
  582MOL0    Cl78479   2.321   3.704   4.412  0.2373 -0.1766  0.4113
  582MOL0     C78480   1.446   3.743   3.625 -0.2131  0.1475 -0.4325
  582MOL0     C78481   1.334   3.796   3.552  0.2533  0.4279 -0.4392
  582MOL0     O78482   1.186   3.677   3.261  0.1506  0.0014  0.1809
  582MOL0     C78483   0.882   3.859   3.326  0.1906 -0.5574  0.2503
  582MOL0     C78484   0.771   3.900   3.251 -0.7908  0.1210 -0.4140
  582MOL0     N78485   0.329   3.640   3.130 -0.0242 -0.7275 -0.3725
  582MOL0     N78486   0.392   3.563   3.208  0.7617 -0.3309  0.1250
  582MOL0     C78487   1.538   3.220   3.545  0.0110  0.2471  0.5845
  582MOL0     C78488   1.634   3.225   3.648 -1.0810 -1.4478  0.1430
  582MOL0     C78489   1.890   3.096   4.011  0.2076  0.2739 -1.2803
  582MOL0     C78490   1.837   3.205   4.090 -0.1734  0.9289  0.4924
  582MOL0     C78491   1.879   3.244   4.217 -0.3796  0.9993 -0.5221
  582MOL0     C78492   1.974   3.163   4.289  0.5615  0.1477 -0.5294
  582MOL0     O78493   2.027   3.188   4.416  0.6208 -0.2740  0.4430
  582MOL0     C78494   1.967   3.286   4.500  0.0858  0.1193 -0.6378
  582MOL0     C78495   1.992   3.243   4.640 -0.1167  0.8207  0.9185
  582MOL0     C78496   1.962   3.091   4.664 -0.0396 -0.2364  0.4477
  582MOL0     C78497   1.989   3.048   4.810 -0.0865  0.7157 -0.0023
  582MOL0     C78498   1.997   2.898   4.814 -0.2552  0.0617  0.0218
  582MOL0     C78499   2.021   2.776   4.813  0.8945 -0.3693  0.1743
  582MOL0     C78500   2.034   3.060   4.211 -1.4171  0.2573 -0.3202
  582MOL0     C78501   1.995   3.025   4.084 -0.4661 -0.3948 -1.2377
  582MOL0     C78502   2.071   2.917   4.020  0.0388  0.4498  0.1173
  582MOL0     H78503   1.646   2.903   3.738  1.2286  0.7909  0.5805
  582MOL0     H78504   1.518   2.889   3.526 -2.3246  0.5570  0.0977
  582MOL0     H78505   1.256   3.206   3.443 -1.4793  0.8143 -0.8423
  582MOL0     H78506   1.374   3.292   3.346 -0.2730  0.8676  2.2837
  582MOL0     H78507   1.161   3.086   3.270 -3.3749  0.9678 -1.7385
  582MOL0     H78508   1.300   3.130   3.163  0.7213 -1.9683  1.8919
  582MOL0     H78509   1.103   3.277   3.092 -1.3416 -0.7750  1.1005
  582MOL0     H78510   1.204   3.376   3.189  0.3037 -0.0966  1.2970
  582MOL0     H78511   0.972   3.206   3.286 -0.2593  0.7206  0.3462
  582MOL0     H78512   1.059   3.322   3.379 -0.2307 -2.0960  0.3119
  582MOL0     H78513   0.990   3.503   3.232 -3.1715  1.7432  1.1400
  582MOL0     H78514   0.898   3.389   3.141  1.5555 -0.3254 -1.0895
  582MOL0     H78515   0.789   3.340   3.386 -1.9272  1.1962  0.8719
  582MOL0     H78516   0.885   3.476   3.433  2.3720  1.4523 -3.1493
  582MOL0     H78517   0.748   3.611   3.249 -0.0177 -0.9671 -1.5574
  582MOL0     H78518   0.656   3.564   3.393 -1.3803 -0.4703 -0.2688
  582MOL0     H78519   0.669   3.406   3.125 -2.9436  1.4103 -2.2562
  582MOL0     H78520   0.566   3.371   3.255 -0.4219  0.5275  1.8178
  582MOL0     H78521   0.630   3.632   2.994  1.6172  1.7919  0.9407
  582MOL0     H78522   0.456   3.738   2.828 -1.5388 -0.1612 -1.3403
  582MOL0     H78523   0.288   3.739   2.849 -2.1968  0.6522  0.5238
  582MOL0     H78524   0.275   3.934   2.913 -1.2774 -2.4976 -0.8549
  582MOL0     H78525   0.389   3.918   3.049  2.6143 -3.2421  0.5472
  582MOL0     H78526   0.470   4.094   2.887  1.9537 -0.7310  1.5867
  582MOL0     H78527   0.476   3.974   2.758 -0.5994 -3.1321 -0.1689
  582MOL0     H78528   0.696   4.025   2.874 -0.9326  0.4563 -0.0096
  582MOL0     H78529   0.662   3.854   2.873  0.1137  0.1004 -0.7099
  582MOL0     H78530   0.878   3.844   2.938  0.3076  1.0760  0.2286
  582MOL0     H78531   1.052   3.768   3.044  1.0087  0.5580  1.2388
  582MOL0     H78532   1.141   3.516   3.536  1.4487 -1.2092 -0.1776
  582MOL0     H78533   1.352   3.418   3.664 -0.9631 -0.6912 -0.1700
  582MOL0     H78534   1.640   3.720   3.810  4.1105  0.5489  3.0799
  582MOL0     H78535   1.565   3.606   3.921  1.6259  1.6500  2.5923
  582MOL0     H78536   1.738   3.473   3.944  0.0848  1.4984  3.1535
  582MOL0     H78537   1.829   3.534   3.803  0.4896  0.6219  0.9678
  582MOL0     H78538   1.847   3.746   3.913  1.4552  1.6110  1.3728
  582MOL0     H78539   1.723   3.699   4.039  0.2707  4.0873 -0.7513
  582MOL0     H78540   1.994   3.580   4.005  0.9873 -0.7792  3.3525
  582MOL0     H78541   1.862   3.540   4.125  1.6366 -0.6762  0.1239
  582MOL0     H78542   1.872   3.801   4.183 -1.3161 -0.4815 -2.0527
  582MOL0     H78543   2.009   3.806   4.087 -0.0245  2.3660  2.5860
  582MOL0     H78544   2.085   3.779   4.339 -0.7058  0.8575 -1.1997
  582MOL0     H78545   1.953   3.665   4.354  2.8557  0.3952  3.7239
  582MOL0     H78546   2.190   3.623   4.166  0.3139 -1.5688  0.5303
  582MOL0     H78547   2.088   3.496   4.216 -0.6563  0.5311 -1.8598
  582MOL0     H78548   2.172   3.489   4.427  0.2677 -0.4598  0.1085
  582MOL0     H78549   2.296   3.484   4.320 -1.8611 -1.4839 -0.2805
  582MOL0     H78550   1.526   3.814   3.642 -1.0835  0.8256  1.0843
  582MOL0     H78551   1.328   3.899   3.520 -1.5596  1.2831  2.2846
  582MOL0     H78552   0.902   3.874   3.432 -2.4424  0.9177  0.6112
  582MOL0     H78553   0.694   3.953   3.306  1.4667  3.8818 -0.5076
  582MOL0     H78554   1.501   3.314   3.507 -0.0559  0.2653  0.6938
  582MOL0     H78555   1.681   3.313   3.688  0.5846 -1.5297 -1.4838
  582MOL0     H78556   1.762   3.268   4.042  2.2694  2.2968 -1.8311
  582MOL0     H78557   1.848   3.342   4.251  0.2547  0.9054  0.3619
  582MOL0     H78558   1.861   3.304   4.480  0.2565  1.5837 -0.3795
  582MOL0     H78559   2.006   3.388   4.491 -3.6332  2.0038  2.0221
  582MOL0     H78560   1.929   3.305   4.704 -0.3736  2.5468 -0.8932
  582MOL0     H78561   2.095   3.266   4.669 -0.5484  1.4921  1.9793
  582MOL0     H78562   2.037   3.040   4.603  1.1774  1.6092  0.3210
  582MOL0     H78563   1.858   3.074   4.634 -0.4360  4.8859 -2.1507
  582MOL0     H78564   2.083   3.090   4.846  0.3485 -1.1288  1.1503
  582MOL0     H78565   1.910   3.083   4.878  0.3867  0.3196  0.7614
  582MOL0     H78566   2.063   2.678   4.824 -0.1982 -0.8207  0.4853
  582MOL0     H78567   2.118   3.000   4.245 -0.7712  0.7402 -1.0430
  582MOL0     H78568   2.000   2.839   3.991 -1.6639  1.5862  1.0776
  582MOL0     H78569   2.117   2.962   3.932 -0.1675 -0.0481 -0.2472
  582MOL0     H78570   2.152   2.873   4.080 -0.5917  0.9183  1.3576
  583MOL0     O78571   5.721   7.800   5.910 -0.7815  0.0059  0.1304
  583MOL0     C78572   5.748   7.791   6.029  0.5264  0.2621 -0.0994
  583MOL0     O78573   5.873   7.804   6.087 -0.5730  0.1543 -0.0139
  583MOL0     C78574   5.964   7.857   5.997 -0.4354  0.1777 -0.1458
  583MOL0     C78575   5.963   7.997   5.987 -0.5037  0.0823 -0.1858
  583MOL0     C78576   6.052   8.056   5.904  0.1209 -0.3618 -0.7305
  583MOL0     C78577   6.151   7.990   5.837 -0.1183  0.3307 -0.0451
  583MOL0     O78578   6.256   8.063   5.774 -0.1655  0.0301  0.7441
  583MOL0     C78579   6.352   8.008   5.685  0.9461 -0.5084  0.5305
  583MOL0     C78580   6.438   8.122   5.622 -0.3089  0.4668 -0.1631
  583MOL0     C78581   6.551   8.066   5.530  0.4791 -0.4188 -0.5611
  583MOL0     C78582   6.617   8.192   5.460  0.8035 -0.5358  0.5468
  583MOL0     C78583   6.755   8.171   5.417  0.0697  0.1169 -0.1293
  583MOL0     C78584   6.775   8.250   5.300 -0.3251 -0.1343 -0.1041
  583MOL0     C78585   6.923   8.262   5.257 -0.1895  0.1347  0.4827
  583MOL0     C78586   7.012   8.340   5.356  0.3822  0.6503 -0.0931
  583MOL0     N78587   7.154   8.331   5.312  0.4097  0.2620 -0.0170
  583MOL0     C78588   7.260   8.272   5.369  0.0371  1.2376  0.4366
  583MOL0     C78589   7.368   8.327   5.306  0.5917 -0.8740 -0.0268
  583MOL0     C78590   7.509   8.315   5.353  0.9293  0.3763  0.2477
  583MOL0     C78591   7.618   8.369   5.254  0.4473  0.1124 -1.0309
  583MOL0     C78592   7.750   8.317   5.306 -0.6216 -0.1238 -0.0513
  583MOL0     C78593   7.876   8.366   5.227 -0.4516  0.5420 -0.2232
  583MOL0     O78594   7.902   8.511   5.216  0.1535 -0.8086  0.2318
  583MOL0     C78595   8.027   8.556   5.168 -0.3522  0.2460  0.3535
  583MOL0     C78596   8.063   8.690   5.175  0.7157  0.5924 -0.0945
  583MOL0     C78597   8.179   8.742   5.117 -0.6268 -0.5426  0.1230
  583MOL0     C78598   8.277   8.661   5.070  1.0118  0.6867 -0.0204
  583MOL0     C78599   8.403   8.710   5.037  0.2577  0.6613  0.5626
  583MOL0     O78600   8.489   8.616   4.997  0.0216 -0.2511  1.3130
  583MOL0     C78601   8.612   8.634   4.930 -0.5885 -0.3942 -0.4594
  583MOL0     C78602   8.713   8.540   4.956 -1.0120  0.0202 -0.3642
  583MOL0     C78603   8.829   8.536   4.882 -0.6135 -0.3216  0.7649
  583MOL0     C78604   8.857   8.637   4.775 -0.4515  0.1024 -0.3937
  583MOL0     O78605   8.975   8.633   4.702  0.6662  0.3160  0.4828
  583MOL0     C78606   9.025   8.753   4.645 -0.1687 -0.4272  0.5796
  583MOL0     C78607   9.154   8.713   4.582 -0.5698 -0.3393 -0.0486
  583MOL0     C78608   9.244   8.833   4.548  0.2844 -0.2346 -0.9350
  583MOL0     C78609   9.372   8.790   4.479  0.3882  0.0826 -0.2300
  583MOL0     C78610   9.468   8.904   4.430 -0.0455 -0.5383  0.4873
  583MOL0     C78611   9.533   8.983   4.548  0.1081  0.1262  0.3816
  583MOL0     C78612   9.636   9.087   4.512  0.1350 -0.0096 -0.0856
  583MOL0     C78613   9.764   9.029   4.446 -0.3719  0.2898 -0.2646
  583MOL0    Cl78614   9.840   9.173   4.385  0.6815 -0.0034 -0.3275
  583MOL0     C78615   8.758   8.731   4.761 -0.0658  0.6733 -0.1054
  583MOL0     C78616   8.634   8.722   4.828  0.3649 -0.1287  0.9856
  583MOL0     O78617   8.423   8.834   5.038  0.3186  0.4910  0.2502
  583MOL0     C78618   8.256   8.515   5.081  0.5501  0.1738  0.8690
  583MOL0     C78619   8.137   8.467   5.132  0.6160  0.5307 -0.2480
  583MOL0     N78620   7.327   8.427   5.217  0.3204 -0.0611  0.3858
  583MOL0     N78621   7.203   8.427   5.224 -0.5119 -0.2956  0.5674
  583MOL0     C78622   6.145   7.848   5.839 -0.6482 -0.0318  0.1390
  583MOL0     C78623   6.053   7.779   5.920  1.0606  0.1304  0.0579
  583MOL0     C78624   5.631   7.792   6.115 -0.3937 -0.4665 -0.3419
  583MOL0     C78625   5.637   7.854   6.245  0.0981 -0.0418  0.1709
  583MOL0     C78626   5.531   7.850   6.329  0.2187  0.8437 -0.3560
  583MOL0     C78627   5.412   7.797   6.296 -0.0432  0.9184  0.3557
  583MOL0     O78628   5.300   7.793   6.382 -0.2915 -0.0161 -0.0312
  583MOL0     C78629   5.323   7.720   6.506 -0.0047  0.7944 -0.5676
  583MOL0     C78630   5.217   7.763   6.605 -0.2809  0.6162 -0.4711
  583MOL0     C78631   5.175   7.657   6.714  0.0681 -0.6506 -0.0411
  583MOL0     C78632   5.099   7.725   6.826 -0.0171 -0.1527 -0.8606
  583MOL0     C78633   5.005   7.636   6.900 -0.4323 -0.3518 -0.1771
  583MOL0     C78634   4.913   7.577   6.950 -0.3281  0.1749  0.0694
  583MOL0     C78635   5.402   7.728   6.179 -0.3843 -0.6668 -0.0096
  583MOL0     C78636   5.511   7.730   6.083  0.3936  0.2694 -0.0983
  583MOL0     C78637   5.480   7.656   5.951  0.5551 -0.6196 -0.4339
  583MOL0     H78638   5.896   8.044   6.058 -0.4049  0.8886 -0.6086
  583MOL0     H78639   6.036   8.162   5.920 -1.4767 -0.7511  0.5123
  583MOL0     H78640   6.405   7.932   5.743 -3.3250 -1.5240  3.6145
  583MOL0     H78641   6.296   7.958   5.605  0.3706  0.1179  0.5368
  583MOL0     H78642   6.486   8.171   5.706  1.0295  0.0909 -0.6806
  583MOL0     H78643   6.376   8.198   5.573  0.3610  0.6755 -0.6935
  583MOL0     H78644   6.506   8.020   5.441 -0.9715  2.7288 -1.5955
  583MOL0     H78645   6.619   8.009   5.594  2.1090  4.3365  2.4089
  583MOL0     H78646   6.547   8.212   5.378  1.3396 -0.8470  0.0022
  583MOL0     H78647   6.608   8.281   5.523  0.8828 -0.8062  0.9452
  583MOL0     H78648   6.822   8.189   5.501 -1.2117 -0.0339  0.9477
  583MOL0     H78649   6.772   8.065   5.397 -0.5628  0.3486 -2.1008
  583MOL0     H78650   6.711   8.214   5.219  0.7880 -0.7213 -0.7406
  583MOL0     H78651   6.749   8.354   5.323 -0.6396 -0.0066 -1.0075
  583MOL0     H78652   6.923   8.317   5.163  0.0561  2.1958  1.6275
  583MOL0     H78653   6.974   8.166   5.242 -1.2253 -0.5507  1.2121
  583MOL0     H78654   6.988   8.447   5.357  0.4536  0.7116  2.6073
  583MOL0     H78655   6.988   8.301   5.455 -2.6389 -0.4943 -1.1598
  583MOL0     H78656   7.258   8.209   5.457  0.3782 -0.8950 -0.9821
  583MOL0     H78657   7.518   8.360   5.453  0.0406  1.9140 -0.3334
  583MOL0     H78658   7.519   8.207   5.366  1.4135  0.4745  0.7422
  583MOL0     H78659   7.608   8.337   5.149  2.3998  1.8858 -1.8202
  583MOL0     H78660   7.630   8.477   5.258  4.1602 -0.2228  0.5532
  583MOL0     H78661   7.758   8.208   5.316  1.0835  0.1567  2.5357
  583MOL0     H78662   7.769   8.358   5.405  0.5162  1.3749 -0.8457
  583MOL0     H78663   7.857   8.331   5.125  0.2450  0.8137 -0.4560
  583MOL0     H78664   7.963   8.319   5.273 -0.6641  1.5783  1.2946
  583MOL0     H78665   7.983   8.754   5.209 -0.0730 -1.0924  1.3634
  583MOL0     H78666   8.190   8.849   5.106 -0.5927 -0.7292 -1.9115
  583MOL0     H78667   8.689   8.469   5.035 -1.1948  1.9058  1.3727
  583MOL0     H78668   8.894   8.451   4.902  2.2285  1.0229 -1.8048
  583MOL0     H78669   8.961   8.789   4.563 -1.1593 -1.9208  0.6385
  583MOL0     H78670   9.039   8.828   4.723 -0.1231  1.2798 -1.0114
  583MOL0     H78671   9.211   8.654   4.653  0.0092  1.4943  1.0649
  583MOL0     H78672   9.150   8.643   4.498  0.8568 -1.0189  0.4313
  583MOL0     H78673   9.180   8.900   4.491 -2.1895  0.0338  1.8810
  583MOL0     H78674   9.266   8.891   4.638 -0.5513  0.4829 -1.1784
  583MOL0     H78675   9.343   8.722   4.399  0.9800 -2.0781  1.2749
  583MOL0     H78676   9.436   8.734   4.548 -0.5406  0.0470  0.6253
  583MOL0     H78677   9.418   8.975   4.364  0.5373  0.1880  0.8029
  583MOL0     H78678   9.548   8.868   4.365 -0.7188  2.3927 -2.1950
  583MOL0     H78679   9.455   9.030   4.610 -1.7723 -1.4180 -0.6872
  583MOL0     H78680   9.593   8.918   4.612 -1.9097 -0.5172  1.7511
  583MOL0     H78681   9.664   9.145   4.600 -1.0690 -0.6100  0.7291
  583MOL0     H78682   9.588   9.149   4.436 -2.0929 -0.8303  0.5833
  583MOL0     H78683   9.837   8.987   4.515  0.4285  2.7310  0.4862
  583MOL0     H78684   9.746   8.970   4.356  1.2062  0.2375 -0.5608
  583MOL0     H78685   8.758   8.803   4.679 -1.2210  0.4824 -0.2909
  583MOL0     H78686   8.549   8.781   4.797  1.0786 -0.3077 -1.5236
  583MOL0     H78687   8.332   8.452   5.036  4.1004  2.7679  2.7378
  583MOL0     H78688   8.124   8.361   5.156 -0.6207  1.0198  1.4584
  583MOL0     H78689   6.227   7.798   5.788 -1.0490  0.7813 -1.3782
  583MOL0     H78690   6.058   7.671   5.920  1.6886  0.1242 -1.8627
  583MOL0     H78691   5.722   7.910   6.281 -1.3212  1.1703  1.7777
  583MOL0     H78692   5.546   7.897   6.426  1.5716 -0.0759 -0.0885
  583MOL0     H78693   5.423   7.746   6.544  0.6428  0.2903 -1.8392
  583MOL0     H78694   5.318   7.613   6.485  1.4846 -0.6755  4.8259
  583MOL0     H78695   5.121   7.790   6.558 -1.7517 -0.5862  1.6727
  583MOL0     H78696   5.243   7.858   6.653  3.5240 -0.1306 -0.7937
  583MOL0     H78697   5.265   7.610   6.754 -0.2873 -2.2002 -0.9728
  583MOL0     H78698   5.116   7.578   6.665  1.0081 -0.9847 -0.6758
  583MOL0     H78699   5.169   7.756   6.904 -0.4837  2.4742 -1.3721
  583MOL0     H78700   5.040   7.812   6.794 -0.4415 -1.0810 -2.7256
  583MOL0     H78701   4.827   7.527   6.990 -0.2072 -0.5213 -0.5123
  583MOL0     H78702   5.304   7.689   6.155 -2.4298  4.0066 -0.1839
  583MOL0     H78703   5.377   7.622   5.960  1.0824 -1.8278  1.5489
  583MOL0     H78704   5.499   7.722   5.865  3.2748 -0.0120  0.5478
  583MOL0     H78705   5.540   7.567   5.932  4.8042  1.8759  0.0739
  584MOL0     O78706  10.020   2.623   4.503 -0.8826  0.1303  0.6266
  584MOL0     C78707   9.988   2.670   4.605 -0.2841 -0.1779 -0.2035
  584MOL0     O78708  10.072   2.728   4.702 -0.4306  0.1138 -0.7111
  584MOL0     C78709  10.202   2.746   4.670 -0.4005 -0.3413 -0.4124
  584MOL0     C78710  10.307   2.686   4.744  0.7541 -0.2955 -0.0175
  584MOL0     C78711  10.439   2.722   4.713 -0.4466 -0.7010 -0.6964
  584MOL0     C78712  10.475   2.802   4.605 -0.3955  0.2097 -1.0154
  584MOL0     O78713  10.608   2.810   4.563 -0.2871  0.3737  0.2037
  584MOL0     C78714  10.655   2.941   4.527  0.1239  0.2899  0.5950
  584MOL0     C78715  10.800   2.946   4.557  0.2463 -0.4968  0.2409
  584MOL0     C78716  10.846   2.932   4.703  0.9099 -0.0086  0.2893
  584MOL0     C78717  10.994   2.970   4.725 -0.2217 -0.8437  0.3187
  584MOL0     C78718  11.041   2.938   4.865  0.1163 -0.1873 -0.7664
  584MOL0     C78719  10.993   3.031   4.978 -0.2660  0.1235 -0.2256
  584MOL0     C78720  11.064   2.989   5.107 -0.7341  0.5936 -0.5215
  584MOL0     C78721  10.989   3.026   5.231 -0.1651 -0.5019  0.2551
  584MOL0     N78722  11.062   2.994   5.352  0.4289 -0.0280  0.2492
  584MOL0     C78723  11.164   3.063   5.407  0.1907  0.5144 -0.1413
  584MOL0     C78724  11.201   3.000   5.521 -0.5312 -0.1373 -0.1312
  584MOL0     C78725  11.309   3.043   5.614  0.4118 -1.3513  0.2044
  584MOL0     C78726  11.432   2.967   5.606 -1.4290  0.1920 -0.0604
  584MOL0     C78727  11.542   3.044   5.669 -0.1249  0.4968 -0.7295
  584MOL0     C78728  11.539   3.034   5.830 -0.9009  0.1839  0.1210
  584MOL0     O78729  11.655   3.078   5.897 -0.2216 -0.0790 -0.2646
  584MOL0     C78730  11.732   2.989   5.976  0.9473 -0.0938  0.2396
  584MOL0     C78731  11.687   2.877   6.055  0.3865  0.5847 -0.5414
  584MOL0     C78732  11.776   2.800   6.130 -0.3101  0.0688 -0.3034
  584MOL0     C78733  11.911   2.823   6.130  0.2798  0.0011  0.5592
  584MOL0     C78734  12.006   2.761   6.224  0.3414  0.5713 -0.0061
  584MOL0     O78735  12.136   2.797   6.214  0.2170  0.5118 -0.2291
  584MOL0     C78736  12.241   2.753   6.305  0.1974 -0.3239 -0.4678
  584MOL0     C78737  12.353   2.834   6.303 -0.3986  0.4637 -0.4239
  584MOL0     C78738  12.464   2.798   6.385  0.4011  0.2690  0.4285
  584MOL0     C78739  12.458   2.677   6.451  0.0981 -0.3816 -0.3492
  584MOL0     O78740  12.558   2.641   6.536  0.3846 -0.3784  0.2185
  584MOL0     C78741  12.645   2.540   6.483  0.1202  1.1237  0.0986
  584MOL0     C78742  12.759   2.602   6.411  0.1016  0.0129 -0.4492
  584MOL0     C78743  12.836   2.507   6.323 -0.9385  0.2356 -0.7742
  584MOL0     C78744  12.986   2.542   6.307  0.2291 -0.5827 -0.0918
  584MOL0     C78745  13.062   2.426   6.231 -0.4918  0.0227  0.0031
  584MOL0     C78746  13.212   2.466   6.207 -0.4777  0.7040 -0.0370
  584MOL0     C78747  13.275   2.394   6.091 -0.5160 -0.4031 -1.0129
  584MOL0     C78748  13.430   2.423   6.087 -0.6249 -1.0391  0.0592
  584MOL0    Cl78749  13.440   2.602   6.048  0.3902 -0.1465 -0.1903
  584MOL0     C78750  12.342   2.598   6.458 -0.0582 -0.6866 -0.6102
  584MOL0     C78751  12.233   2.641   6.386  0.0008  0.1556 -0.6494
  584MOL0     O78752  11.954   2.687   6.303 -1.1186 -0.3798  0.4308
  584MOL0     C78753  11.956   2.913   6.031  0.0964 -0.5631 -0.4507
  584MOL0     C78754  11.871   3.000   5.963  0.0331  0.2851  0.0893
  584MOL0     N78755  11.114   2.897   5.532  0.3568  0.3095  0.2299
  584MOL0     N78756  11.023   2.901   5.436  0.8043  0.5373  0.0350
  584MOL0     C78757  10.373   2.858   4.533  0.4717 -0.8202  0.6177
  584MOL0     C78758  10.236   2.832   4.558 -0.4366  0.7690  0.4626
  584MOL0     C78759   9.844   2.666   4.640  0.6975 -0.6342  0.1444
  584MOL0     C78760   9.805   2.720   4.768 -0.6416 -1.4106  0.7463
  584MOL0     C78761   9.672   2.740   4.801  0.2751  0.3867  0.3240
  584MOL0     C78762   9.569   2.697   4.714 -0.4323 -0.2878 -0.4286
  584MOL0     O78763   9.434   2.696   4.741  0.7975 -0.3682 -0.2843
  584MOL0     C78764   9.396   2.760   4.868 -0.8762  0.0578 -0.0374
  584MOL0     C78765   9.244   2.754   4.893 -0.3879  0.1324 -0.3808
  584MOL0     C78766   9.156   2.791   4.771  0.2311 -0.7841  0.2460
  584MOL0     C78767   9.021   2.751   4.803 -0.0418  0.4484 -1.1798
  584MOL0     C78768   8.919   2.823   4.716 -0.4760 -0.3045 -0.2046
  584MOL0     C78769   8.860   2.897   4.645  0.7580  0.6579  0.3112
  584MOL0     C78770   9.607   2.644   4.592  0.4271  0.3180  0.2415
  584MOL0     C78771   9.737   2.619   4.553 -0.3850 -0.1156 -0.1454
  584MOL0     C78772   9.759   2.547   4.424 -0.4752  0.1560 -0.2553
  584MOL0     H78773  10.295   2.619   4.829 -2.6363  2.0885  1.5911
  584MOL0     H78774  10.521   2.664   4.755  0.6406 -0.2881 -2.1736
  584MOL0     H78775  10.635   2.957   4.420  0.0096  1.9184  0.8429
  584MOL0     H78776  10.602   3.014   4.588 -2.8532 -0.3243 -1.0456
  584MOL0     H78777  10.834   3.046   4.529  1.7024 -0.6768  1.2491
  584MOL0     H78778  10.857   2.869   4.504  1.1788 -0.1701  0.7502
  584MOL0     H78779  10.834   2.827   4.730 -1.6998 -0.3709 -1.8983
  584MOL0     H78780  10.778   2.989   4.768  0.8556  0.2821 -0.0187
  584MOL0     H78781  11.057   2.925   4.647 -2.2832  0.7576 -2.4615
  584MOL0     H78782  10.991   3.079   4.720 -1.3614 -0.9057 -3.2343
  584MOL0     H78783  11.003   2.838   4.889 -0.5976  0.9073  3.5113
  584MOL0     H78784  11.150   2.939   4.872  0.2391 -0.5461 -2.3279
  584MOL0     H78785  11.013   3.135   4.951 -1.0127  0.5749  0.9140
  584MOL0     H78786  10.883   3.026   4.983 -0.8025 -2.8166 -6.0448
  584MOL0     H78787  11.160   3.042   5.105  1.5428 -3.2182 -0.7481
  584MOL0     H78788  11.091   2.884   5.098  0.5152  0.9501 -1.1842
  584MOL0     H78789  10.976   3.135   5.232  0.5334 -0.3231 -2.4775
  584MOL0     H78790  10.885   2.992   5.224 -0.0898 -0.7134  0.1522
  584MOL0     H78791  11.220   3.145   5.364 -1.3744  1.6240 -0.1442
  584MOL0     H78792  11.337   3.148   5.604  2.2094 -1.7842  0.3274
  584MOL0     H78793  11.256   3.037   5.710 -1.0996  2.2332 -0.2449
  584MOL0     H78794  11.416   2.877   5.665  0.9077 -0.2814 -0.0342
  584MOL0     H78795  11.463   2.936   5.506  1.5215  0.7722  0.5718
  584MOL0     H78796  11.539   3.148   5.636 -0.0551 -0.1373 -2.9023
  584MOL0     H78797  11.634   3.000   5.631  0.8341  1.9490 -0.1873
  584MOL0     H78798  11.522   2.929   5.857  0.3413 -0.3837 -1.1470
  584MOL0     H78799  11.452   3.089   5.867 -0.9224 -1.3470  2.5356
  584MOL0     H78800  11.584   2.847   6.045  0.3635  1.4173 -5.2326
  584MOL0     H78801  11.744   2.727   6.203 -1.0606  2.8120  2.3253
  584MOL0     H78802  12.346   2.928   6.249 -2.0062  0.3469 -0.4713
  584MOL0     H78803  12.549   2.864   6.399  0.4535 -0.2263  2.9812
  584MOL0     H78804  12.684   2.483   6.568 -3.3509 -1.3420  0.2446
  584MOL0     H78805  12.588   2.480   6.412 -0.5837  0.9351  0.7975
  584MOL0     H78806  12.707   2.670   6.344  1.6363  2.6468  0.9031
  584MOL0     H78807  12.828   2.650   6.481 -0.9167 -0.0541  0.6442
  584MOL0     H78808  12.827   2.406   6.366  0.2001  0.4796  0.0988
  584MOL0     H78809  12.803   2.507   6.219  0.2524  0.0860 -1.1664
  584MOL0     H78810  13.035   2.581   6.396  1.0614 -0.5201 -0.5685
  584MOL0     H78811  12.988   2.628   6.239 -0.4686 -0.3106  0.2176
  584MOL0     H78812  13.012   2.399   6.137 -1.3434  3.0062 -0.5363
  584MOL0     H78813  13.057   2.339   6.296 -0.8744 -0.7246 -1.0048
  584MOL0     H78814  13.218   2.573   6.190  0.3600  0.7554  0.5070
  584MOL0     H78815  13.266   2.440   6.299 -2.4610  1.2074  1.3395
  584MOL0     H78816  13.219   2.424   6.001 -2.7049  0.0402  0.4106
  584MOL0     H78817  13.264   2.285   6.092  0.9442 -0.6062 -2.6203
  584MOL0     H78818  13.479   2.426   6.185  1.3266  2.0106 -0.8752
  584MOL0     H78819  13.484   2.368   6.010  0.3254  0.7817 -0.6350
  584MOL0     H78820  12.337   2.507   6.517  3.5271 -1.2228 -0.8902
  584MOL0     H78821  12.137   2.591   6.398  0.2093 -0.1231 -0.1518
  584MOL0     H78822  12.063   2.930   6.016 -0.2787  3.3322  0.3858
  584MOL0     H78823  11.913   3.073   5.894  0.4344 -0.4745 -0.4832
  584MOL0     H78824  10.394   2.923   4.448 -0.0015 -1.3603  0.0814
  584MOL0     H78825  10.156   2.881   4.503 -0.8530 -0.4403 -0.0264
  584MOL0     H78826   9.879   2.763   4.835 -0.4820  0.9616 -0.8220
  584MOL0     H78827   9.633   2.791   4.888 -0.9083  1.1139 -0.5987
  584MOL0     H78828   9.451   2.855   4.868 -0.1199 -0.3703 -0.2718
  584MOL0     H78829   9.436   2.701   4.951 -0.1344  0.9713  0.2768
  584MOL0     H78830   9.221   2.816   4.980  1.6424 -0.6534  0.7673
  584MOL0     H78831   9.213   2.652   4.915 -4.0192  0.9222 -1.1305
  584MOL0     H78832   9.192   2.754   4.675  1.6674  1.6139 -0.2376
  584MOL0     H78833   9.162   2.900   4.766  5.7411 -0.7637  0.6513
  584MOL0     H78834   9.024   2.642   4.799  0.3229  0.3903  0.1283
  584MOL0     H78835   9.000   2.785   4.905  3.2032 -2.0830  0.5355
  584MOL0     H78836   8.820   2.951   4.561  1.0341 -0.7438 -0.7489
  584MOL0     H78837   9.522   2.608   4.535  0.4324 -0.8488  0.9354
  584MOL0     H78838   9.818   2.460   4.454 -1.5943 -0.4609  0.2341
  584MOL0     H78839   9.673   2.507   4.369  1.5216  0.1237 -3.5941
  584MOL0     H78840   9.808   2.610   4.350 -2.2354  1.2191 -0.5753
  585MOL0     O78841   1.770   6.670  10.066  0.8139 -0.2740 -0.0779
  585MOL0     C78842   1.760   6.550  10.092  0.9134 -0.0237 -0.4325
  585MOL0     O78843   1.847   6.459  10.040 -0.4743 -0.4189  0.8366
  585MOL0     C78844   1.933   6.514   9.943  0.8449 -0.3488  0.4706
  585MOL0     C78845   1.905   6.520   9.803  0.0541 -0.5565 -0.9822
  585MOL0     C78846   1.998   6.570   9.719 -0.6945  0.0462  1.4208
  585MOL0     C78847   2.118   6.628   9.755 -0.3684 -0.4837  0.1577
  585MOL0     O78848   2.219   6.678   9.674 -0.5294 -0.4532  0.1504
  585MOL0     C78849   2.186   6.689   9.529  0.1726 -0.2130 -0.9794
  585MOL0     C78850   2.280   6.780   9.462 -0.0121 -0.0085  0.4742
  585MOL0     C78851   2.407   6.706   9.431  0.6511 -0.5992  0.0028
  585MOL0     C78852   2.518   6.804   9.398  0.3631  0.3815 -0.1984
  585MOL0     C78853   2.627   6.742   9.311 -0.4501  0.5173 -0.5528
  585MOL0     C78854   2.753   6.826   9.298 -0.5053 -0.3748 -0.3309
  585MOL0     C78855   2.733   6.960   9.227 -0.2400 -0.7867 -0.2355
  585MOL0     C78856   2.859   7.055   9.231 -0.5196  0.6316  0.2144
  585MOL0     N78857   2.974   6.987   9.180 -0.3417  0.1028 -0.2492
  585MOL0     C78858   3.053   6.899   9.252  0.2013 -0.0072  0.6148
  585MOL0     C78859   3.158   6.880   9.170  0.9683 -0.8947 -0.0649
  585MOL0     C78860   3.279   6.793   9.189 -0.0647 -0.0654  0.6133
  585MOL0     C78861   3.357   6.861   9.301 -0.6971 -0.1618  0.0385
  585MOL0     C78862   3.499   6.794   9.304  0.4724 -0.1059 -0.2958
  585MOL0     C78863   3.558   6.841   9.439 -0.2606 -1.1685  0.3669
  585MOL0     O78864   3.702   6.811   9.443  0.1650 -0.8154 -0.1177
  585MOL0     C78865   3.783   6.876   9.537 -0.5655 -0.7030  1.3166
  585MOL0     C78866   3.738   6.929   9.658 -0.6725  0.1601  0.0484
  585MOL0     C78867   3.829   6.988   9.745  0.1127 -0.0555  0.2186
  585MOL0     C78868   3.970   6.999   9.719  0.4569  0.3389  0.0749
  585MOL0     C78869   4.066   7.061   9.812  0.8593  0.3853 -2.2720
  585MOL0     O78870   4.021   7.118   9.932 -0.9254  0.6898  0.2573
  585MOL0     C78871   4.107   7.198  10.012  1.0314  0.3902  0.9289
  585MOL0     C78872   4.061   7.328  10.051 -0.0321  1.5569  0.2665
  585MOL0     C78873   4.150   7.410  10.116 -0.3614  0.1587 -0.6842
  585MOL0     C78874   4.274   7.359  10.170 -0.2930 -0.1212  0.4354
  585MOL0     O78875   4.337   7.451  10.253 -0.2952  0.0224 -1.5781
  585MOL0     C78876   4.433   7.396  10.342  0.7497 -0.1107 -0.2047
  585MOL0     C78877   4.573   7.440  10.286  0.6176 -0.0817  0.3442
  585MOL0     C78878   4.580   7.542  10.183 -0.8692 -0.5216 -0.0572
  585MOL0     C78879   4.728   7.554  10.146 -0.7883 -0.5484  0.3930
  585MOL0     C78880   4.738   7.664  10.041  0.7282 -0.2447  0.5080
  585MOL0     C78881   4.879   7.692   9.984 -0.2791 -0.3030  0.1084
  585MOL0     C78882   4.888   7.664   9.840  0.9823  0.1624 -0.4512
  585MOL0     C78883   5.028   7.709   9.799 -0.0469 -0.1709 -0.5346
  585MOL0    Cl78884   5.035   7.662   9.623 -0.1360 -0.4529  0.2187
  585MOL0     C78885   4.326   7.230  10.123 -0.0132 -0.2343  0.1863
  585MOL0     C78886   4.232   7.155  10.043 -0.3462  0.2450  1.1988
  585MOL0     O78887   4.186   7.065   9.774  0.3987 -0.1726  0.1997
  585MOL0     C78888   4.015   6.956   9.591 -0.9610  0.2168 -0.5242
  585MOL0     C78889   3.920   6.895   9.501 -0.3844  0.5257 -0.1786
  585MOL0     N78890   3.138   6.954   9.049  1.0887  0.1138  0.8821
  585MOL0     N78891   3.023   7.006   9.054 -0.1266  0.1529 -0.4754
  585MOL0     C78892   2.142   6.637   9.895  0.5362 -0.6030 -0.0682
  585MOL0     C78893   2.056   6.574   9.985  0.8039  0.5156  0.1222
  585MOL0     C78894   1.652   6.490  10.163 -0.1630 -0.4745  0.5110
  585MOL0     C78895   1.672   6.367  10.232 -0.6563  0.0320 -0.1369
  585MOL0     C78896   1.566   6.299  10.298 -0.3974  0.3311  0.2145
  585MOL0     C78897   1.441   6.354  10.303  0.3236 -0.9979  0.4357
  585MOL0     O78898   1.338   6.304  10.387 -0.4877  0.9265  0.4145
  585MOL0     C78899   1.238   6.252  10.299 -0.2462 -0.2933  0.6416
  585MOL0     C78900   1.103   6.262  10.378 -0.4885 -0.3409  0.4132
  585MOL0     C78901   0.990   6.196  10.306 -0.6005  0.3144 -0.1113
  585MOL0     C78902   0.862   6.221  10.374 -0.1537 -0.4165 -0.2927
  585MOL0     C78903   0.848   6.147  10.501 -0.1409  0.3438  0.6328
  585MOL0     C78904   0.829   6.081  10.598  0.3170  0.0414 -0.1110
  585MOL0     C78905   1.426   6.485  10.253  0.6181 -0.1670  1.0817
  585MOL0     C78906   1.524   6.553  10.187  0.9518 -0.6602 -0.1468
  585MOL0     C78907   1.487   6.691  10.122  0.6612 -0.5694  0.5033
  585MOL0     H78908   1.815   6.472   9.765  0.2125 -0.7888 -1.0632
  585MOL0     H78909   1.972   6.578   9.614  0.0839  1.0807  1.2943
  585MOL0     H78910   2.168   6.593   9.480 -0.7710 -0.7612  0.3800
  585MOL0     H78911   2.083   6.727   9.526 -0.2805 -1.3329 -0.0829
  585MOL0     H78912   2.306   6.865   9.527 -1.0201 -1.9693  3.6587
  585MOL0     H78913   2.233   6.817   9.370  1.3460 -0.9319 -0.6235
  585MOL0     H78914   2.373   6.654   9.341 -0.7596  2.4281 -1.3572
  585MOL0     H78915   2.431   6.641   9.516 -0.4171 -0.9535  0.0385
  585MOL0     H78916   2.478   6.888   9.340  1.9345  0.9258 -0.5300
  585MOL0     H78917   2.561   6.840   9.491 -0.4714 -2.0419  1.2248
  585MOL0     H78918   2.648   6.641   9.346 -0.0516  1.2894  1.5568
  585MOL0     H78919   2.586   6.730   9.210 -0.7810  1.5280 -0.5544
  585MOL0     H78920   2.808   6.828   9.393 -0.0168 -3.3283 -0.4585
  585MOL0     H78921   2.816   6.770   9.228 -1.1822 -0.5105 -0.8396
  585MOL0     H78922   2.649   7.018   9.267  0.5036  0.0441  0.1655
  585MOL0     H78923   2.707   6.937   9.123 -0.3493 -3.1734  0.2687
  585MOL0     H78924   2.837   7.146   9.174  0.5095 -1.2629 -3.4896
  585MOL0     H78925   2.878   7.080   9.336  0.9066  3.4534 -0.6286
  585MOL0     H78926   3.037   6.861   9.353 -1.2748  2.0097  1.2125
  585MOL0     H78927   3.242   6.694   9.219 -0.5260  0.2794  1.2056
  585MOL0     H78928   3.330   6.790   9.093 -0.1114  1.2831  0.5368
  585MOL0     H78929   3.368   6.967   9.277  0.8270 -0.5851 -1.3275
  585MOL0     H78930   3.299   6.853   9.394 -0.8327  2.5231  0.2420
  585MOL0     H78931   3.564   6.816   9.218 -0.2491  3.3260 -0.1180
  585MOL0     H78932   3.475   6.688   9.300 -0.8313  0.1290  0.5791
  585MOL0     H78933   3.501   6.802   9.523 -0.5442 -0.3020  0.5901
  585MOL0     H78934   3.548   6.950   9.445 -0.3485 -1.1783  0.3935
  585MOL0     H78935   3.632   6.913   9.677 -0.9276 -0.6573 -1.8311
  585MOL0     H78936   3.794   7.030   9.839  1.0839 -2.5729  1.8078
  585MOL0     H78937   3.955   7.347  10.044 -0.2016  1.8502  2.6320
  585MOL0     H78938   4.117   7.503  10.162 -0.4886 -0.0896 -0.2591
  585MOL0     H78939   4.398   7.423  10.442 -0.9558  0.1140 -0.8140
  585MOL0     H78940   4.430   7.289  10.361 -1.8696  0.5190  4.8029
  585MOL0     H78941   4.628   7.459  10.379  1.6079 -1.9753  0.2152
  585MOL0     H78942   4.617   7.344  10.254 -0.8515 -0.9063  0.7171
  585MOL0     H78943   4.512   7.535  10.097  1.5009  1.8926 -2.3339
  585MOL0     H78944   4.543   7.630  10.237 -3.8149 -0.9331 -1.1976
  585MOL0     H78945   4.768   7.462  10.103 -0.4524 -1.3475  2.3078
  585MOL0     H78946   4.790   7.575  10.233  4.6456  0.2017 -3.1523
  585MOL0     H78947   4.701   7.759  10.082  0.8786  0.5750 -1.1969
  585MOL0     H78948   4.667   7.637   9.962  1.0281  1.0296 -0.2181
  585MOL0     H78949   4.905   7.794  10.015 -0.6215  0.8921 -3.1220
  585MOL0     H78950   4.950   7.631  10.039  0.4341 -0.2778 -0.7669
  585MOL0     H78951   4.812   7.725   9.790  0.3023 -0.2043  0.1208
  585MOL0     H78952   4.869   7.560   9.812 -2.0316  0.2759  0.7622
  585MOL0     H78953   5.037   7.816   9.820  3.6001 -0.5931  0.9107
  585MOL0     H78954   5.105   7.655   9.856 -0.5086 -3.6250 -2.8774
  585MOL0     H78955   4.426   7.194  10.143 -0.0268 -1.9985 -2.4518
  585MOL0     H78956   4.263   7.057  10.009 -2.6744  0.4951 -2.1626
  585MOL0     H78957   4.118   6.964   9.559 -0.7089 -2.3268 -0.5042
  585MOL0     H78958   3.942   6.851   9.405  3.2143 -0.0702  0.7584
  585MOL0     H78959   2.234   6.675   9.937 -1.0758  4.4288 -0.4189
  585MOL0     H78960   2.103   6.561  10.082  1.9339  2.1126 -0.1538
  585MOL0     H78961   1.768   6.318  10.220 -1.6265 -1.6583 -1.4888
  585MOL0     H78962   1.584   6.204  10.347 -0.2114  1.5625  2.6827
  585MOL0     H78963   1.244   6.148  10.267 -0.4469  0.7286 -3.1391
  585MOL0     H78964   1.225   6.311  10.208  0.9707 -1.6625 -0.4797
  585MOL0     H78965   1.078   6.368  10.389 -1.6064 -0.8003  3.2929
  585MOL0     H78966   1.099   6.227  10.482 -0.7017  0.2625  0.6123
  585MOL0     H78967   1.007   6.089  10.290 -0.3836 -0.2087  3.0591
  585MOL0     H78968   0.983   6.240  10.206 -0.0759  0.6173 -0.0206
  585MOL0     H78969   0.843   6.327  10.390  1.3499 -0.2657  0.7452
  585MOL0     H78970   0.779   6.201  10.305 -1.8569  1.7893  0.9682
  585MOL0     H78971   0.819   6.028  10.690  0.5425  1.9655  1.0769
  585MOL0     H78972   1.337   6.543  10.272  1.0270  1.2649 -0.9650
  585MOL0     H78973   1.538   6.770  10.179  0.1478 -1.0220  1.6127
  585MOL0     H78974   1.522   6.684  10.018  0.9122 -0.3465  0.5727
  585MOL0     H78975   1.380   6.712  10.122  0.8749  1.4198 -3.0337
  586MOL0     O78976   5.114   8.706   2.610  0.1093 -0.1722 -0.6650
  586MOL0     C78977   5.075   8.680   2.723  0.7310 -0.7391 -0.0938
  586MOL0     O78978   5.153   8.647   2.824  0.0386 -0.2206  0.4932
  586MOL0     C78979   5.288   8.622   2.810  0.6793  0.7670 -0.5362
  586MOL0     C78980   5.390   8.708   2.762  0.0433 -0.2582 -0.5103
  586MOL0     C78981   5.529   8.671   2.762  0.0913  0.0421 -0.9235
  586MOL0     C78982   5.569   8.548   2.822  0.1933  0.4325  0.5047
  586MOL0     O78983   5.697   8.500   2.823 -0.0280  0.5957  0.3882
  586MOL0     C78984   5.802   8.598   2.796 -0.0451 -0.1562  0.0685
  586MOL0     C78985   5.934   8.522   2.779 -0.3532  0.2994  0.0800
  586MOL0     C78986   6.045   8.605   2.717  0.4727  0.1976 -0.1083
  586MOL0     C78987   6.182   8.589   2.779  0.3034  0.6440 -0.2331
  586MOL0     C78988   6.257   8.727   2.799  0.2174 -0.2475  0.5384
  586MOL0     C78989   6.409   8.709   2.803 -0.3856 -0.2203 -0.6193
  586MOL0     C78990   6.491   8.667   2.667  0.5461  0.2882 -0.4992
  586MOL0     C78991   6.469   8.779   2.564  0.9277  0.4229  0.3223
  586MOL0     N78992   6.550   8.763   2.443 -0.5968  0.2395 -0.1827
  586MOL0     C78993   6.663   8.831   2.403  0.1979 -0.5322 -0.6606
  586MOL0     C78994   6.689   8.778   2.283 -0.5839  0.6041 -0.5202
  586MOL0     C78995   6.802   8.819   2.184 -0.1143  0.1477 -0.0546
  586MOL0     C78996   6.918   8.883   2.252  0.6581  0.6688 -0.5030
  586MOL0     C78997   7.004   8.956   2.143 -0.2764 -0.5306 -1.3663
  586MOL0     C78998   7.143   8.989   2.197  0.1555  0.1173 -0.5781
  586MOL0     O78999   7.221   9.054   2.106  0.4374 -0.3503 -0.4981
  586MOL0     C79000   7.357   9.036   2.107  0.1027 -0.2516  0.3777
  586MOL0     C79001   7.435   9.075   2.000  0.4723 -0.1071 -0.6972
  586MOL0     C79002   7.572   9.064   2.000  0.0255  0.7229 -0.5092
  586MOL0     C79003   7.648   8.997   2.106 -0.5341 -0.3959  1.0205
  586MOL0     C79004   7.792   8.971   2.095 -0.1134 -0.3717 -0.1382
  586MOL0     O79005   7.852   8.940   2.209 -0.0063  0.1728  0.3168
  586MOL0     C79006   7.988   8.919   2.188  0.1721 -0.2190 -0.4239
  586MOL0     C79007   8.039   8.790   2.194  0.6647 -0.2080  0.4445
  586MOL0     C79008   8.163   8.765   2.134 -0.4045 -0.0729  0.8213
  586MOL0     C79009   8.240   8.876   2.104  0.1270  0.8047  0.2109
  586MOL0     O79010   8.376   8.875   2.055  0.5662 -0.4307 -0.1538
  586MOL0     C79011   8.418   8.765   1.983  0.1547  0.0813 -0.6676
  586MOL0     C79012   8.559   8.787   1.926 -0.7570  0.5685 -0.7301
  586MOL0     C79013   8.663   8.795   2.036  0.4140 -0.3846  0.0834
  586MOL0     C79014   8.803   8.818   1.985 -0.0007 -0.2245  1.2191
  586MOL0     C79015   8.898   8.823   2.110 -0.2910 -0.4220  0.7228
  586MOL0     C79016   9.045   8.837   2.063 -0.2668 -0.5135  0.3734
  586MOL0     C79017   9.133   8.817   2.186  0.0972  0.5359  0.0129
  586MOL0     C79018   9.282   8.805   2.140  0.8382  0.3354  1.1180
  586MOL0    Cl79019   9.382   8.800   2.290  0.4475  0.4590  0.1439
  586MOL0     C79020   8.207   9.003   2.135 -0.5685 -0.7969 -0.0465
  586MOL0     C79021   8.078   9.030   2.182 -0.6006 -0.0702  0.1136
  586MOL0     O79022   7.846   8.971   1.982  0.2366  0.2724  0.1108
  586MOL0     C79023   7.571   8.955   2.211  0.1486 -0.1497  0.1180
  586MOL0     C79024   7.430   8.978   2.212 -0.0983  0.7995 -0.8391
  586MOL0     N79025   6.588   8.693   2.245  0.5952  0.3744 -0.3084
  586MOL0     N79026   6.500   8.686   2.342 -0.5355  0.3056 -0.0513
  586MOL0     C79027   5.472   8.460   2.870  0.0973  0.3136 -0.1883
  586MOL0     C79028   5.333   8.501   2.864 -0.3384  0.4808  0.4621
  586MOL0     C79029   4.926   8.703   2.744  0.0354  0.5368 -0.3069
  586MOL0     C79030   4.864   8.805   2.668 -0.1662 -1.1241 -0.8056
  586MOL0     C79031   4.730   8.841   2.701  0.0054  1.0969  0.2493
  586MOL0     C79032   4.653   8.779   2.795 -0.1536  0.6637  0.0901
  586MOL0     O79033   4.519   8.812   2.804 -0.4903  0.0833 -0.3908
  586MOL0     C79034   4.420   8.719   2.765  0.5086 -0.1220  0.4797
  586MOL0     C79035   4.279   8.764   2.785  0.0655  0.0392 -0.2394
  586MOL0     C79036   4.224   8.773   2.929 -0.2442  0.4234 -0.2691
  586MOL0     C79037   4.118   8.668   2.970 -0.4205  0.5268  0.3784
  586MOL0     C79038   3.987   8.706   2.911  0.0801 -1.0400  0.3906
  586MOL0     C79039   3.876   8.728   2.875  0.7266  0.5467 -0.2717
  586MOL0     C79040   4.712   8.676   2.866 -0.4761  0.9145 -0.3843
  586MOL0     C79041   4.849   8.642   2.848  0.5976  0.9110  0.4840
  586MOL0     C79042   4.901   8.528   2.932 -0.1635  0.6558  0.1573
  586MOL0     H79043   5.362   8.799   2.710 -0.3168  0.2850  0.6053
  586MOL0     H79044   5.598   8.744   2.720  0.6113  1.3646  1.9755
  586MOL0     H79045   5.779   8.636   2.696  4.0946  0.9946 -0.6462
  586MOL0     H79046   5.809   8.679   2.870 -2.6973  4.2820 -3.9652
  586MOL0     H79047   5.928   8.425   2.729 -1.3745  1.0906 -1.4042
  586MOL0     H79048   5.951   8.489   2.882  0.6321  1.8213  0.4206
  586MOL0     H79049   6.015   8.710   2.733  3.6158  0.9079  2.1446
  586MOL0     H79050   6.046   8.579   2.611 -1.4268  0.1913 -0.1602
  586MOL0     H79051   6.179   8.544   2.879 -0.1526 -0.8753 -0.8865
  586MOL0     H79052   6.241   8.520   2.718  1.3564 -1.5772  2.9995
  586MOL0     H79053   6.233   8.808   2.728 -1.5354 -0.8658  0.3735
  586MOL0     H79054   6.223   8.779   2.889  0.4698  0.0746  0.4517
  586MOL0     H79055   6.452   8.805   2.833  0.6533 -1.1569  1.1124
  586MOL0     H79056   6.427   8.637   2.884  1.5055 -0.8049 -1.4995
  586MOL0     H79057   6.458   8.570   2.628 -1.7956  0.7234  0.2586
  586MOL0     H79058   6.594   8.652   2.699  0.2089 -1.1104  0.0056
  586MOL0     H79059   6.364   8.766   2.536  0.9925 -0.1999  0.3531
  586MOL0     H79060   6.491   8.877   2.607  1.3055  2.2532 -3.6165
  586MOL0     H79061   6.709   8.910   2.461 -1.5861  0.3142 -0.3530
  586MOL0     H79062   6.834   8.733   2.124  0.6939  0.2329  0.2583
  586MOL0     H79063   6.762   8.887   2.108 -0.5587 -0.4270 -0.3485
  586MOL0     H79064   6.890   8.964   2.320 -1.5224 -0.7813  0.4504
  586MOL0     H79065   6.979   8.815   2.312  0.4226  1.2246  0.4012
  586MOL0     H79066   6.951   9.047   2.114 -1.2148 -0.7318 -0.3483
  586MOL0     H79067   7.034   8.893   2.058 -1.1093 -0.9178 -1.3913
  586MOL0     H79068   7.185   8.893   2.228 -0.9444 -0.0311  0.5337
  586MOL0     H79069   7.139   9.056   2.284 -0.7401  1.8756 -1.9079
  586MOL0     H79070   7.373   9.126   1.927 -0.8370  1.1975  1.2120
  586MOL0     H79071   7.632   9.097   1.916  0.0584 -0.9269 -1.1896
  586MOL0     H79072   7.974   8.707   2.219 -0.8536 -0.2082 -2.9048
  586MOL0     H79073   8.197   8.663   2.121  1.8852  0.4887  1.8749
  586MOL0     H79074   8.427   8.680   2.050  1.0859  0.3483 -0.4438
  586MOL0     H79075   8.335   8.744   1.914 -3.4328 -1.7845  3.7380
  586MOL0     H79076   8.584   8.698   1.868  1.9833  0.8705 -0.1730
  586MOL0     H79077   8.568   8.880   1.870 -1.4071  1.5315  0.6884
  586MOL0     H79078   8.637   8.873   2.108  0.3247  1.3089 -1.7145
  586MOL0     H79079   8.671   8.701   2.091  0.8108 -0.9748 -0.9588
  586MOL0     H79080   8.802   8.915   1.934  2.5281 -0.7218  0.1026
  586MOL0     H79081   8.838   8.740   1.917  2.3799 -0.4542  2.6017
  586MOL0     H79082   8.886   8.727   2.163 -1.8425 -1.3378 -1.1564
  586MOL0     H79083   8.872   8.908   2.174 -0.5635  0.5591 -0.6470
  586MOL0     H79084   9.072   8.747   2.007 -1.5439 -1.9956  2.0417
  586MOL0     H79085   9.067   8.920   1.996  0.5138  0.0150  1.2567
  586MOL0     H79086   9.105   8.719   2.227 -0.7061  1.8046  2.7393
  586MOL0     H79087   9.116   8.895   2.260 -3.6737 -1.7256  1.8482
  586MOL0     H79088   9.289   8.713   2.081 -3.8091 -0.7892  1.9246
  586MOL0     H79089   9.327   8.889   2.085  0.9033  0.9223  2.0455
  586MOL0     H79090   8.280   9.078   2.109 -2.5067  0.9610 -0.6970
  586MOL0     H79091   8.035   9.129   2.191 -2.7159 -0.9837  0.6928
  586MOL0     H79092   7.605   8.903   2.300  1.7010 -0.3018 -0.5316
  586MOL0     H79093   7.379   8.939   2.300 -1.6376  1.3125 -1.4733
  586MOL0     H79094   5.493   8.362   2.912  2.8426  2.0676  2.9625
  586MOL0     H79095   5.254   8.440   2.907  0.2615  1.8106  3.7125
  586MOL0     H79096   4.916   8.866   2.595 -1.8821  0.5740 -0.7061
  586MOL0     H79097   4.686   8.921   2.642  2.3362  1.4382 -1.1509
  586MOL0     H79098   4.429   8.620   2.811 -2.0245 -1.0683 -0.8668
  586MOL0     H79099   4.428   8.701   2.657 -3.4481  0.6960 -0.1076
  586MOL0     H79100   4.208   8.701   2.732 -0.5054 -0.0370  0.5897
  586MOL0     H79101   4.265   8.867   2.752  0.6889  0.6427  1.2709
  586MOL0     H79102   4.168   8.867   2.941 -0.5843  0.2936 -0.8023
  586MOL0     H79103   4.313   8.767   2.991  0.0914 -1.4651 -0.8815
  586MOL0     H79104   4.142   8.574   2.919 -0.1150  0.2109  1.1012
  586MOL0     H79105   4.110   8.652   3.078 -1.2523 -1.8589  0.0376
  586MOL0     H79106   3.777   8.716   2.837  1.3334 -0.8714 -1.5362
  586MOL0     H79107   4.653   8.621   2.939  0.4331 -3.0418 -2.3169
  586MOL0     H79108   4.932   8.435   2.882 -1.9575  0.0594  0.0801
  586MOL0     H79109   4.981   8.552   3.001 -0.6535  2.2159  0.2268
  586MOL0     H79110   4.814   8.498   2.991  0.3436 -0.6215  0.2862
  587MOL0     O79111   9.342   5.141   5.413  0.2934 -0.0176  0.2814
  587MOL0     C79112   9.247   5.068   5.443 -0.3654 -0.6470  0.3052
  587MOL0     O79113   9.268   4.943   5.493  0.1898  0.3815  0.3359
  587MOL0     C79114   9.395   4.895   5.515  0.5560 -0.4650 -0.2369
  587MOL0     C79115   9.429   4.878   5.654  0.0743  0.4262  1.7052
  587MOL0     C79116   9.555   4.844   5.699 -0.3554 -0.6754  0.0545
  587MOL0     C79117   9.659   4.826   5.602  0.6174 -0.1521  0.1365
  587MOL0     O79118   9.781   4.798   5.641  0.3749  0.3357  0.4291
  587MOL0     C79119   9.802   4.656   5.652  0.3675 -0.4812  0.3480
  587MOL0     C79120   9.935   4.621   5.727  0.1963  0.1774  0.8117
  587MOL0     C79121   9.945   4.698   5.857  0.1543  0.6904 -0.3307
  587MOL0     C79122  10.093   4.685   5.914 -0.3232 -0.5807  0.4550
  587MOL0     C79123  10.112   4.753   6.056 -0.3873  0.3561 -0.0869
  587MOL0     C79124  10.264   4.748   6.103 -0.6522 -0.7240  0.1665
  587MOL0     C79125  10.362   4.817   6.010 -0.2109  0.6255  0.1440
  587MOL0     C79126  10.341   4.971   5.996 -0.1500 -0.4231  0.3929
  587MOL0     N79127  10.475   5.012   5.934  0.0522 -1.2059 -0.0260
  587MOL0     C79128  10.509   5.021   5.800  0.3963  0.4687  0.3732
  587MOL0     C79129  10.628   5.079   5.797  0.7934  0.0478 -0.4681
  587MOL0     C79130  10.726   5.121   5.690  0.7067  0.3607 -0.9232
  587MOL0     C79131  10.685   5.067   5.551  0.3224 -0.0886  0.3964
  587MOL0     C79132  10.668   4.913   5.543 -0.3147  0.2556 -0.2676
  587MOL0     C79133  10.801   4.838   5.520  0.3856 -0.0533  0.9127
  587MOL0     O79134  10.856   4.889   5.392 -0.0581  0.1169 -0.2076
  587MOL0     C79135  10.980   4.838   5.353  0.7761  0.1141  0.1091
  587MOL0     C79136  11.062   4.761   5.441 -0.3403  0.5511  0.1363
  587MOL0     C79137  11.183   4.710   5.399 -0.3499  0.3595  0.1375
  587MOL0     C79138  11.229   4.741   5.270 -0.8358  0.0035 -0.5297
  587MOL0     C79139  11.355   4.682   5.218 -0.0398  0.2076 -0.2548
  587MOL0     O79140  11.415   4.742   5.108 -0.5640  0.4487  0.3151
  587MOL0     C79141  11.546   4.712   5.089 -0.0111 -0.3738  0.0533
  587MOL0     C79142  11.636   4.767   5.181  0.4788  0.7017  0.0540
  587MOL0     C79143  11.766   4.737   5.169 -0.2853 -0.1475 -0.3525
  587MOL0     C79144  11.817   4.666   5.066  0.2824  0.1696  0.0678
  587MOL0     O79145  11.952   4.637   5.078  0.3233  0.6444  0.6602
  587MOL0     C79146  12.015   4.596   4.958 -0.0704 -0.1937 -0.4745
  587MOL0     C79147  12.157   4.548   4.973 -0.2605 -0.0561 -0.1659
  587MOL0     C79148  12.257   4.658   5.015 -0.7517 -0.0599 -0.1060
  587MOL0     C79149  12.402   4.601   5.042  0.0484 -0.4924 -0.3901
  587MOL0     C79150  12.489   4.701   5.121 -0.2092  0.1163  0.2997
  587MOL0     C79151  12.625   4.645   5.152 -1.4168  0.6234  0.2313
  587MOL0     C79152  12.712   4.741   5.231  0.4702  0.4056 -0.1758
  587MOL0     C79153  12.782   4.657   5.344 -1.2319  0.0192  0.1975
  587MOL0    Cl79154  12.893   4.538   5.275 -0.3980  0.1318 -0.0311
  587MOL0     C79155  11.732   4.633   4.963 -0.1134 -0.6348 -0.1261
  587MOL0     C79156  11.593   4.646   4.974 -0.0566  0.2801 -0.0529
  587MOL0     O79157  11.399   4.586   5.291  0.0760  0.9021 -0.2732
  587MOL0     C79158  11.158   4.826   5.186 -0.2529 -0.8545  0.7166
  587MOL0     C79159  11.032   4.875   5.227 -0.0760 -0.0776  0.0657
  587MOL0     N79160  10.678   5.099   5.933  0.0325 -0.8525  0.3604
  587MOL0     N79161  10.579   5.062   6.014  0.0680 -0.8476  0.0286
  587MOL0     C79162   9.622   4.845   5.462 -0.0589 -0.0218  0.6585
  587MOL0     C79163   9.492   4.884   5.421 -0.6402 -0.1757 -0.0834
  587MOL0     C79164   9.115   5.120   5.420 -0.0722  0.3865 -0.0333
  587MOL0     C79165   9.012   5.050   5.478  0.0249 -0.1048 -0.2825
  587MOL0     C79166   8.885   5.101   5.492  0.3078  0.4487 -0.6826
  587MOL0     C79167   8.852   5.214   5.420 -1.2113 -0.3737 -0.3225
  587MOL0     O79168   8.726   5.268   5.413  0.2040 -0.3863  0.0245
  587MOL0     C79169   8.623   5.188   5.469  0.7483  0.1895 -0.2551
  587MOL0     C79170   8.495   5.265   5.457  0.5530  0.2723 -0.1340
  587MOL0     C79171   8.454   5.354   5.587 -0.7230  1.1508  0.0796
  587MOL0     C79172   8.570   5.451   5.632 -0.6415 -0.7715  0.0684
  587MOL0     C79173   8.544   5.545   5.745 -0.1547  0.1082 -0.4517
  587MOL0     C79174   8.549   5.619   5.842  0.5012 -0.0039 -0.2683
  587MOL0     C79175   8.945   5.287   5.355 -0.8561  0.3449  0.0752
  587MOL0     C79176   9.083   5.242   5.354 -0.2309 -0.5809  0.7665
  587MOL0     C79177   9.180   5.332   5.278  0.6126 -0.0349  0.0643
  587MOL0     H79178   9.353   4.885   5.731  0.2412  0.7165  1.8464
  587MOL0     H79179   9.576   4.832   5.805  0.1614 -2.5816 -0.2425
  587MOL0     H79180   9.712   4.616   5.698 -1.9273  3.1505 -0.5529
  587MOL0     H79181   9.818   4.611   5.553  1.3096  0.5448  0.0118
  587MOL0     H79182  10.010   4.650   5.653  0.8060 -0.7503  1.0563
  587MOL0     H79183   9.945   4.513   5.743  0.1673  0.4544  2.8978
  587MOL0     H79184   9.874   4.660   5.931  2.1894 -1.1504  0.7928
  587MOL0     H79185   9.931   4.806   5.845  0.1967  0.5312 -1.9035
  587MOL0     H79186  10.132   4.583   5.920 -0.3626 -0.6595 -0.4200
  587MOL0     H79187  10.165   4.736   5.850  1.8179  0.2837  3.3817
  587MOL0     H79188  10.066   4.852   6.062  1.0713  1.0082  0.9858
  587MOL0     H79189  10.055   4.692   6.126  1.3718 -0.2754  0.8747
  587MOL0     H79190  10.282   4.787   6.204  1.4031  1.1581 -0.8502
  587MOL0     H79191  10.291   4.643   6.115 -0.7148 -0.6200  1.3508
  587MOL0     H79192  10.353   4.768   5.912  3.1615 -0.4626  0.2480
  587MOL0     H79193  10.463   4.800   6.047  0.0114  1.0580 -0.2592
  587MOL0     H79194  10.244   4.983   5.947  0.6893  0.1275 -1.2128
  587MOL0     H79195  10.337   5.009   6.099 -0.1132  1.2105 -0.1796
  587MOL0     H79196  10.454   4.997   5.709  0.1753  2.3191 -0.0051
  587MOL0     H79197  10.732   5.230   5.688 -1.5048  0.5307 -2.6160
  587MOL0     H79198  10.824   5.075   5.705  0.3909 -1.0482 -2.7154
  587MOL0     H79199  10.597   5.110   5.502  0.8743  0.6569  0.0535
  587MOL0     H79200  10.752   5.110   5.477 -0.5585  0.3162 -0.1942
  587MOL0     H79201  10.599   4.896   5.459  0.5562  0.2274 -0.9998
  587MOL0     H79202  10.624   4.875   5.636 -1.8797  1.8880 -0.2860
  587MOL0     H79203  10.783   4.730   5.516  0.2310  0.0018 -0.1305
  587MOL0     H79204  10.863   4.866   5.606  0.6278 -0.7762  0.9765
  587MOL0     H79205  11.028   4.726   5.538  1.3425 -0.6641  0.3368
  587MOL0     H79206  11.241   4.649   5.467 -1.9152  0.1311  1.3361
  587MOL0     H79207  11.603   4.810   5.276  0.0520  1.0084 -0.2277
  587MOL0     H79208  11.837   4.779   5.239  0.1318 -3.5657  1.4820
  587MOL0     H79209  11.960   4.509   4.920 -0.6595  0.5428 -1.3361
  587MOL0     H79210  12.014   4.667   4.875 -0.8570 -3.4501 -3.5370
  587MOL0     H79211  12.154   4.463   5.041  2.0500 -1.5144 -1.7255
  587MOL0     H79212  12.202   4.513   4.879 -0.0581  1.2886 -0.5919
  587MOL0     H79213  12.277   4.719   4.926 -0.0865 -2.4808 -1.7039
  587MOL0     H79214  12.221   4.713   5.102  0.2034  4.4921 -2.2812
  587MOL0     H79215  12.452   4.588   4.946  2.0732 -1.0893  0.6890
  587MOL0     H79216  12.398   4.505   5.095 -0.0784  0.5229  1.5286
  587MOL0     H79217  12.439   4.712   5.218 -0.0606 -1.6399  0.6096
  587MOL0     H79218  12.509   4.789   5.059  0.8128  0.3672  0.9696
  587MOL0     H79219  12.618   4.548   5.203 -0.1809 -0.2134 -1.1213
  587MOL0     H79220  12.671   4.622   5.056  0.6391  1.9925  0.8122
  587MOL0     H79221  12.654   4.813   5.289  0.8217  0.0969  0.5739
  587MOL0     H79222  12.783   4.796   5.169  0.5280  0.5916  0.0509
  587MOL0     H79223  12.840   4.734   5.396 -2.9010  0.4335  1.4918
  587MOL0     H79224  12.718   4.603   5.413 -0.0219  0.7200  1.9442
  587MOL0     H79225  11.758   4.576   4.875 -2.2788 -4.6947  1.5935
  587MOL0     H79226  11.520   4.602   4.907  0.5150 -1.8816  0.6534
  587MOL0     H79227  11.195   4.855   5.088 -1.9953 -0.1009  0.2405
  587MOL0     H79228  10.987   4.960   5.177  0.3567 -1.1565 -2.2804
  587MOL0     H79229   9.697   4.853   5.384 -0.0832 -1.6939  0.4211
  587MOL0     H79230   9.470   4.910   5.318 -0.6142 -2.2946 -0.6607
  587MOL0     H79231   9.035   4.957   5.528  1.9762  1.2717  1.5456
  587MOL0     H79232   8.818   5.045   5.557  0.1220  4.1361  2.7086
  587MOL0     H79233   8.635   5.171   5.576 -3.3477 -0.1626  0.2945
  587MOL0     H79234   8.612   5.089   5.423  0.8026 -1.0419  2.2372
  587MOL0     H79235   8.412   5.196   5.440  0.1300  0.4175  1.2006
  587MOL0     H79236   8.502   5.332   5.371 -1.7831 -0.5154 -1.0190
  587MOL0     H79237   8.449   5.283   5.670  1.3382  1.6855  0.7172
  587MOL0     H79238   8.357   5.399   5.566 -1.4859  0.3396  1.6890
  587MOL0     H79239   8.655   5.388   5.657  1.2248  0.5603 -2.4892
  587MOL0     H79240   8.609   5.515   5.553 -0.2746 -0.9479  0.1067
  587MOL0     H79241   8.553   5.673   5.934 -0.3740 -1.8667  0.9391
  587MOL0     H79242   8.915   5.381   5.309 -0.0199  0.7735  0.3753
  587MOL0     H79243   9.232   5.398   5.347 -2.0254  0.6873  1.4922
  587MOL0     H79244   9.247   5.255   5.239 -0.5077 -1.9920  1.8110
  587MOL0     H79245   9.140   5.390   5.194  0.6989  0.4963  0.3850
  588MOL0     O79246   9.037   3.797  10.937 -0.1327  0.0509 -0.0417
  588MOL0     C79247   9.064   3.887  11.007 -0.0325  0.2643 -0.8262
  588MOL0     O79248   9.188   3.941  11.009  0.4059  0.1082  0.5374
  588MOL0     C79249   9.273   3.893  10.912 -0.5823  0.1689  1.0554
  588MOL0     C79250   9.278   3.960  10.786 -0.1110 -0.4304 -0.6282
  588MOL0     C79251   9.392   3.938  10.704 -0.0571  0.2723 -0.1842
  588MOL0     C79252   9.494   3.850  10.743  0.0136  0.0562 -1.2312
  588MOL0     O79253   9.610   3.841  10.675  0.1405  0.8512 -0.1144
  588MOL0     C79254   9.687   3.961  10.657 -1.0759  1.0453 -0.0220
  588MOL0     C79255   9.825   3.955  10.737  1.3957 -0.7539 -0.9593
  588MOL0     C79256   9.912   4.058  10.681  0.1495 -1.0771  0.7158
  588MOL0     C79257  10.032   4.077  10.769 -0.1936 -0.5543 -1.0923
  588MOL0     C79258  10.117   4.200  10.716  0.0421  0.5480  0.1254
  588MOL0     C79259  10.194   4.179  10.592  0.0782 -0.0494  0.0065
  588MOL0     C79260  10.261   4.312  10.558  0.1658  1.2488 -0.0732
  588MOL0     C79261  10.335   4.305  10.423 -0.2729  0.1162  0.0323
  588MOL0     N79262  10.418   4.429  10.400  0.3548  0.2757 -0.3299
  588MOL0     C79263  10.369   4.556  10.382 -1.1080  0.4109 -0.5267
  588MOL0     C79264  10.479   4.637  10.377  0.5455  0.0457 -0.6370
  588MOL0     C79265  10.471   4.789  10.366  0.5665  0.6986  0.8457
  588MOL0     C79266  10.596   4.842  10.432  0.5905 -0.1344  0.7528
  588MOL0     C79267  10.602   4.992  10.438 -0.5163 -0.6883  0.4697
  588MOL0     C79268  10.738   5.036  10.494  0.2171 -0.4679 -0.4189
  588MOL0     O79269  10.740   5.009  10.635  0.1688 -0.0724  0.2681
  588MOL0     C79270  10.848   5.023  10.721  1.0808  0.2479 -0.7093
  588MOL0     C79271  10.978   5.041  10.678  0.6070  0.3050  0.1893
  588MOL0     C79272  11.079   5.053  10.770 -0.9010 -0.8286  0.0301
  588MOL0     C79273  11.054   5.051  10.910  0.5969 -0.1273 -0.1348
  588MOL0     C79274  11.147   5.081  11.018 -0.2591 -0.5985 -0.1300
  588MOL0     O79275  11.112   5.046  11.147  0.1831  0.3938  0.2718
  588MOL0     C79276  11.201   5.057  11.246  0.7532  0.4856  0.0797
  588MOL0     C79277  11.155   5.119  11.367  1.1716 -0.2312  0.0723
  588MOL0     C79278  11.236   5.134  11.474  0.8276  0.6460 -0.5282
  588MOL0     C79279  11.369   5.110  11.464 -0.5485 -0.0539  0.0037
  588MOL0     O79280  11.442   5.126  11.573  0.0739 -0.4039 -0.2976
  588MOL0     C79281  11.547   5.216  11.557  0.2034 -0.2618 -0.9249
  588MOL0     C79282  11.667   5.162  11.650  0.2033  0.2791  0.1223
  588MOL0     C79283  11.737   5.054  11.561 -0.0467  1.0146  0.6167
  588MOL0     C79284  11.867   5.015  11.633 -0.8345  0.3789 -0.4253
  588MOL0     C79285  11.933   4.882  11.587 -0.6933 -0.0960 -0.5101
  588MOL0     C79286  12.048   4.848  11.678  0.8328 -0.8423 -0.2370
  588MOL0     C79287  12.101   4.700  11.678 -0.2008 -0.0109 -0.4480
  588MOL0     C79288  12.163   4.670  11.543 -0.7452 -0.5655  0.4804
  588MOL0    Cl79289  12.308   4.782  11.522  0.4644  0.4443  0.1578
  588MOL0     C79290  11.421   5.049  11.347 -0.2333 -0.7616 -0.5871
  588MOL0     C79291  11.335   5.023  11.241 -0.6459  0.2003 -0.2200
  588MOL0     O79292  11.254   5.121  10.984 -0.1682  0.7762 -0.0221
  588MOL0     C79293  10.916   5.037  10.952 -0.6371  0.7499  0.2473
  588MOL0     C79294  10.821   5.014  10.861  0.3556  0.1646  0.5292
  588MOL0     N79295  10.592   4.561  10.389  0.4071 -0.4772  0.6916
  588MOL0     N79296  10.555   4.441  10.404  0.3819 -0.1864 -0.8036
  588MOL0     C79297   9.482   3.783  10.865 -1.2704  0.3584  0.1276
  588MOL0     C79298   9.373   3.805  10.952  0.1591  0.3013  0.2136
  588MOL0     C79299   8.954   3.939  11.091 -0.8514 -1.6628  0.6840
  588MOL0     C79300   8.969   4.076  11.133 -0.5116  0.1513  0.2967
  588MOL0     C79301   8.869   4.149  11.207  0.2149 -0.1435 -0.2392
  588MOL0     C79302   8.765   4.077  11.262  0.3391 -0.1091  0.3904
  588MOL0     O79303   8.674   4.143  11.340  0.0804 -0.6247 -0.1511
  588MOL0     C79304   8.638   4.078  11.463  1.0620 -0.3343  0.6610
  588MOL0     C79305   8.506   4.012  11.437  0.2587 -0.0120  0.1118
  588MOL0     C79306   8.394   4.006  11.544  0.1028  0.0405 -1.2913
  588MOL0     C79307   8.420   3.930  11.677 -1.1191 -0.4154  0.0333
  588MOL0     C79308   8.479   4.020  11.785 -1.5763 -0.0399  0.3173
  588MOL0     C79309   8.498   4.105  11.869  0.1806  0.2376  0.3796
  588MOL0     C79310   8.764   3.939  11.238 -0.5965  0.4033 -0.2378
  588MOL0     C79311   8.850   3.873  11.148  0.0920 -0.0197  0.0710
  588MOL0     C79312   8.813   3.732  11.105  0.1579 -0.1812 -1.1714
  588MOL0     H79313   9.201   4.033  10.767 -0.5520 -0.6654  0.1960
  588MOL0     H79314   9.391   3.990  10.609 -0.8889  1.7226  0.5750
  588MOL0     H79315   9.692   3.969  10.548  0.3609  0.5071 -0.0087
  588MOL0     H79316   9.629   4.048  10.689 -1.6518  0.4335  0.6469
  588MOL0     H79317   9.874   3.857  10.730  2.3894 -0.2897 -0.5689
  588MOL0     H79318   9.790   3.970  10.839 -4.4129  1.9542 -2.9025
  588MOL0     H79319   9.852   4.149  10.680 -0.9800 -1.8008  0.2525
  588MOL0     H79320   9.934   4.034  10.577 -0.7365  1.5444 -0.1385
  588MOL0     H79321  10.024   4.099  10.876  0.0856 -2.7023 -0.5900
  588MOL0     H79322  10.092   3.986  10.766  2.3328  1.0040 -1.4872
  588MOL0     H79323  10.055   4.289  10.706  2.1106  1.8453 -2.4822
  588MOL0     H79324  10.191   4.216  10.796 -2.2944  0.6802  2.3868
  588MOL0     H79325  10.268   4.103  10.617  0.6090  0.4949  0.1228
  588MOL0     H79326  10.122   4.130  10.525 -1.1817  0.0647  1.2225
  588MOL0     H79327  10.335   4.329  10.636  0.2059  2.4082 -0.3323
  588MOL0     H79328  10.195   4.399  10.551 -2.0044 -0.4500 -3.3030
  588MOL0     H79329  10.386   4.209  10.411 -0.2339  0.4008 -3.0011
  588MOL0     H79330  10.262   4.305  10.341 -0.7753  1.4917  0.4640
  588MOL0     H79331  10.262   4.573  10.380 -1.7114 -1.4964  3.7515
  588MOL0     H79332  10.456   4.808  10.259 -1.5484 -3.0865  0.3193
  588MOL0     H79333  10.379   4.830  10.408  0.7509  1.5996  0.4093
  588MOL0     H79334  10.593   4.796  10.531  1.9004  0.7618  1.2445
  588MOL0     H79335  10.691   4.816  10.384  0.0130 -1.9309  0.5062
  588MOL0     H79336  10.525   5.035  10.503 -0.0515 -1.2905  1.4302
  588MOL0     H79337  10.606   5.031  10.336 -0.2364 -0.1411  0.6894
  588MOL0     H79338  10.751   5.144  10.490 -1.7511 -0.2286 -1.5788
  588MOL0     H79339  10.820   4.985  10.442  0.0134 -0.3727 -0.8452
  588MOL0     H79340  11.002   5.048  10.573 -2.9204 -0.5762 -0.8168
  588MOL0     H79341  11.179   5.079  10.736 -2.2798  0.3630 -3.5417
  588MOL0     H79342  11.052   5.143  11.392  1.7899 -1.0074  4.0057
  588MOL0     H79343  11.196   5.186  11.561 -1.2036  2.0494 -2.2211
  588MOL0     H79344  11.585   5.230  11.456 -1.1335  0.4272 -1.3538
  588MOL0     H79345  11.518   5.313  11.598  1.0569  0.3929 -1.8387
  588MOL0     H79346  11.738   5.244  11.660 -0.5397  1.0070 -0.4278
  588MOL0     H79347  11.641   5.124  11.749 -0.0739 -3.0506 -1.0831
  588MOL0     H79348  11.673   4.967  11.542  0.1096  0.5316  2.1429
  588MOL0     H79349  11.769   5.093  11.464 -1.1523 -0.5965 -0.4509
  588MOL0     H79350  11.846   5.009  11.740 -1.4552 -1.2241 -0.6233
  588MOL0     H79351  11.934   5.100  11.615 -0.1701 -0.1809 -0.6314
  588MOL0     H79352  11.979   4.897  11.489  4.0628  0.6083  1.5291
  588MOL0     H79353  11.857   4.805  11.597  0.2416 -1.3348 -2.3999
  588MOL0     H79354  12.124   4.927  11.667 -0.6952  0.5793 -1.0419
  588MOL0     H79355  12.014   4.867  11.781  3.1216  1.0845  0.2639
  588MOL0     H79356  12.020   4.629  11.701  0.7121  0.1772  4.2482
  588MOL0     H79357  12.177   4.695  11.756 -1.3109 -0.4686  0.6347
  588MOL0     H79358  12.191   4.564  11.537  1.4234 -0.2994  3.4358
  588MOL0     H79359  12.093   4.683  11.460 -0.2474  0.1378  0.1680
  588MOL0     H79360  11.527   5.030  11.333  0.0241 -0.4764  0.8197
  588MOL0     H79361  11.378   4.979  11.151  1.2454  2.8051 -0.7045
  588MOL0     H79362  10.888   5.046  11.057 -1.2527  1.6779  0.0220
  588MOL0     H79363  10.718   4.992  10.889  0.6314 -2.8247 -0.4650
  588MOL0     H79364   9.568   3.725  10.898 -0.9438  1.3009  0.9853
  588MOL0     H79365   9.377   3.759  11.050 -0.0288 -1.1626 -0.4311
  588MOL0     H79366   9.049   4.130  11.082 -0.0081 -0.7123  0.1608
  588MOL0     H79367   8.884   4.256  11.214 -1.5770  0.0435  1.6728
  588MOL0     H79368   8.631   4.159  11.538  0.5454 -0.5086  0.8008
  588MOL0     H79369   8.714   4.011  11.503  1.3825 -0.4551 -0.1357
  588MOL0     H79370   8.536   3.913  11.403  2.5852  0.4633  0.6083
  588MOL0     H79371   8.474   4.076  11.355  2.1304  2.0350  0.8581
  588MOL0     H79372   8.308   3.955  11.501 -1.9245  0.0067  2.3605
  588MOL0     H79373   8.353   4.107  11.560 -4.1397 -1.5738 -0.6466
  588MOL0     H79374   8.327   3.893  11.722 -2.3761  1.2482 -1.0778
  588MOL0     H79375   8.481   3.841  11.654  1.4275  1.6214 -1.6508
  588MOL0     H79376   8.503   4.174  11.951  3.2920  0.8955 -0.2502
  588MOL0     H79377   8.690   3.877  11.287  0.3640  0.1557  0.9606
  588MOL0     H79378   8.809   3.726  10.996  0.4959 -0.2968 -1.1785
  588MOL0     H79379   8.883   3.663  11.153  0.3965  0.8207 -0.0254
  588MOL0     H79380   8.720   3.698  11.151  2.2971 -4.0803  0.7843
  589MOL0     O79381  11.203  10.811   4.522  0.5203 -0.3597 -0.3884
  589MOL0     C79382  11.140  10.849   4.423 -0.4848  0.3758 -0.3600
  589MOL0     O79383  11.160  10.973   4.362 -0.2404 -0.0316 -0.1528
  589MOL0     C79384  11.281  11.028   4.391  0.0066  0.0728  0.0899
  589MOL0     C79385  11.387  10.995   4.309 -0.1928  1.1035 -0.4385
  589MOL0     C79386  11.511  11.053   4.331 -0.7518 -0.1129 -0.2310
  589MOL0     C79387  11.513  11.151   4.424 -0.8077 -0.7059  0.2248
  589MOL0     O79388  11.642  11.210   4.435  0.1962 -0.2187 -0.2924
  589MOL0     C79389  11.658  11.326   4.521 -0.5724 -0.1375  0.2604
  589MOL0     C79390  11.667  11.283   4.668 -0.2622 -0.3269  0.2277
  589MOL0     C79391  11.714  11.138   4.664 -0.6860 -0.2062 -0.8447
  589MOL0     C79392  11.780  11.092   4.800  0.2118  0.8918 -0.4085
  589MOL0     C79393  11.847  10.957   4.787 -0.3715  0.4158  0.0479
  589MOL0     C79394  11.750  10.841   4.754 -0.1947 -0.5113 -0.2924
  589MOL0     C79395  11.648  10.814   4.857 -0.5483 -0.0286  0.6431
  589MOL0     C79396  11.689  10.715   4.956  1.1283 -0.2096  0.0036
  589MOL0     N79397  11.756  10.788   5.062 -0.2612  0.6211 -0.7574
  589MOL0     C79398  11.887  10.772   5.084 -0.1998  0.0085  0.6114
  589MOL0     C79399  11.913  10.866   5.175 -0.7093  0.4893 -0.0255
  589MOL0     C79400  12.057  10.900   5.208  0.3662 -0.2791  0.3332
  589MOL0     C79401  12.078  10.887   5.353 -0.2565 -0.2872 -0.3473
  589MOL0     C79402  12.205  10.955   5.393  0.0968 -0.1756  0.4929
  589MOL0     C79403  12.331  10.872   5.367 -0.1725  0.6070  0.1790
  589MOL0     O79404  12.442  10.955   5.407  0.0298 -0.8448  0.5360
  589MOL0     C79405  12.569  10.908   5.382  0.0518 -0.0174 -0.6041
  589MOL0     C79406  12.675  10.993   5.420  0.0729 -0.6147  0.8407
  589MOL0     C79407  12.806  10.949   5.411  0.0273  0.1608  0.0227
  589MOL0     C79408  12.837  10.824   5.358  0.2587 -0.5395  0.6934
  589MOL0     C79409  12.981  10.791   5.338 -0.2733 -0.8354  0.0773
  589MOL0     O79410  13.070  10.882   5.383 -0.6246  0.4421  0.4147
  589MOL0     C79411  13.199  10.859   5.344  0.5090 -0.4766 -0.0118
  589MOL0     C79412  13.289  10.807   5.436  0.3426  0.1073 -0.4714
  589MOL0     C79413  13.423  10.793   5.407 -0.0327 -0.4799  0.0195
  589MOL0     C79414  13.467  10.816   5.272 -0.6492  0.3472 -0.2427
  589MOL0     O79415  13.605  10.817   5.242 -0.4865 -0.4565 -0.0360
  589MOL0     C79416  13.702  10.806   5.354  0.7221  0.4890 -0.3617
  589MOL0     C79417  13.842  10.847   5.301  0.1524 -0.3246  0.3566
  589MOL0     C79418  13.900  10.963   5.378  0.5345  0.2321  0.0330
  589MOL0     C79419  13.958  10.936   5.517  0.1648 -0.4700  0.5916
  589MOL0     C79420  14.072  10.833   5.525  0.5833 -1.0235  0.0713
  589MOL0     C79421  14.142  10.843   5.661 -0.3743  1.1190  0.6067
  589MOL0     C79422  14.251  10.737   5.654  0.9775  0.1225  0.5105
  589MOL0     C79423  14.342  10.737   5.777 -0.1636  0.3799 -0.3780
  589MOL0    Cl79424  14.250  10.656   5.907  0.2828 -0.1284  0.5310
  589MOL0     C79425  13.374  10.870   5.180  0.7275  0.5693 -0.0816
  589MOL0     C79426  13.238  10.893   5.214  0.0150 -1.1871  0.3069
  589MOL0     O79427  13.006  10.690   5.271  0.1670  0.0461  0.5735
  589MOL0     C79428  12.734  10.735   5.324  0.2551 -0.1235 -0.1190
  589MOL0     C79429  12.600  10.780   5.334  0.0010 -0.1620 -0.2201
  589MOL0     N79430  11.803  10.944   5.197 -0.9076 -0.1170 -0.5350
  589MOL0     N79431  11.710  10.893   5.132  0.0653 -0.0195 -0.4735
  589MOL0     C79432  11.400  11.194   4.492  0.2630 -0.1911  0.9174
  589MOL0     C79433  11.281  11.140   4.473  0.5159  0.2932  0.2524
  589MOL0     C79434  11.027  10.768   4.364 -0.1506  0.2677 -0.1344
  589MOL0     C79435  10.988  10.802   4.234 -0.4401 -0.6139 -0.0622
  589MOL0     C79436  10.878  10.740   4.177 -0.8855 -0.0493  1.1870
  589MOL0     C79437  10.798  10.656   4.250  0.4890  0.9641  0.3176
  589MOL0     O79438  10.684  10.600   4.190  0.1433 -0.0147  0.5953
  589MOL0     C79439  10.639  10.637   4.063  0.8678 -0.1951  0.3673
  589MOL0     C79440  10.490  10.589   4.050  0.7188 -0.6383 -0.0943
  589MOL0     C79441  10.476  10.440   4.058  0.1351 -0.1925 -0.1274
  589MOL0     C79442  10.335  10.379   4.052  0.1267 -0.0734 -0.3274
  589MOL0     C79443  10.238  10.417   4.154 -0.3961 -0.6042  0.3468
  589MOL0     C79444  10.174  10.471   4.240  0.3369 -0.7203  0.6741
  589MOL0     C79445  10.826  10.622   4.383  0.0337 -0.7376 -0.9106
  589MOL0     C79446  10.938  10.678   4.444  0.8243 -0.6936  0.1431
  589MOL0     C79447  10.960  10.651   4.598  0.1604 -0.8341  0.0854
  589MOL0     H79448  11.373  10.924   4.229 -2.0083 -0.3013  1.0334
  589MOL0     H79449  11.605  11.035   4.280 -0.4831  1.8208 -0.5010
  589MOL0     H79450  11.753  11.377   4.508 -2.0540  2.2039 -2.6740
  589MOL0     H79451  11.574  11.396   4.511 -1.1023 -0.4358  2.1419
  589MOL0     H79452  11.570  11.280   4.718 -0.8877 -1.2084 -0.9680
  589MOL0     H79453  11.728  11.351   4.729  1.9154 -1.0771 -1.0085
  589MOL0     H79454  11.786  11.112   4.585  1.2282 -1.3141  1.1439
  589MOL0     H79455  11.626  11.079   4.638 -0.3064 -0.1630 -2.3378
  589MOL0     H79456  11.850  11.166   4.840 -1.1464  0.0161  4.1205
  589MOL0     H79457  11.709  11.089   4.883 -0.0427  0.4492 -0.6346
  589MOL0     H79458  11.917  10.971   4.704  0.9765  0.2971  1.1503
  589MOL0     H79459  11.910  10.941   4.874  0.2151  0.0096 -0.4463
  589MOL0     H79460  11.697  10.863   4.661 -1.2139 -4.0529 -0.7333
  589MOL0     H79461  11.814  10.756   4.727  1.3901  1.0297 -1.5869
  589MOL0     H79462  11.560  10.775   4.805 -1.3842  0.2989  1.7677
  589MOL0     H79463  11.608  10.907   4.900 -0.1597 -0.8832  2.9787
  589MOL0     H79464  11.595  10.675   4.996  1.3907 -1.0086 -0.1508
  589MOL0     H79465  11.746  10.630   4.919 -0.4670 -1.7237  0.8634
  589MOL0     H79466  11.960  10.713   5.029 -0.8092  1.9212 -2.4577
  589MOL0     H79467  12.112  10.817   5.163  0.4325 -1.2012  2.0407
  589MOL0     H79468  12.072  11.000   5.167 -0.3333 -0.4341 -0.3274
  589MOL0     H79469  12.000  10.933   5.414  4.4287  2.0097  4.6919
  589MOL0     H79470  12.087  10.779   5.373 -1.5624  0.2860  4.4743
  589MOL0     H79471  12.205  10.987   5.497  2.2917 -1.2291  0.8720
  589MOL0     H79472  12.207  11.050   5.338 -3.0025  0.1145  0.7283
  589MOL0     H79473  12.335  10.849   5.260  3.1329  2.7660 -0.3026
  589MOL0     H79474  12.332  10.779   5.425  1.3952  0.1967 -0.4459
  589MOL0     H79475  12.649  11.088   5.465 -1.4515 -0.8794  0.5814
  589MOL0     H79476  12.882  11.020   5.441 -2.3020  2.2862  1.2797
  589MOL0     H79477  13.244  10.779   5.531  1.1937  0.5494  0.0719
  589MOL0     H79478  13.490  10.762   5.487  0.4293 -0.9736 -0.5539
  589MOL0     H79479  13.675  10.864   5.443 -0.2818 -0.6693  0.1093
  589MOL0     H79480  13.697  10.700   5.379  2.0310  0.4602 -0.1401
  589MOL0     H79481  13.905  10.758   5.300 -0.9288 -1.1197 -1.4975
  589MOL0     H79482  13.845  10.882   5.197  1.5933  0.0068  0.4986
  589MOL0     H79483  13.982  11.007   5.320  0.1666  1.8892  0.7162
  589MOL0     H79484  13.818  11.036   5.372  0.5616  0.1765 -1.5499
  589MOL0     H79485  13.878  10.900   5.583 -0.1209 -0.7212  0.1135
  589MOL0     H79486  13.980  11.037   5.553 -0.5528  0.5454 -1.6359
  589MOL0     H79487  14.150  10.870   5.458  0.9905  0.5191  1.3537
  589MOL0     H79488  14.056  10.732   5.485 -1.6829 -0.0189 -1.7804
  589MOL0     H79489  14.179  10.944   5.682 -0.0625  0.9313  0.9770
  589MOL0     H79490  14.073  10.811   5.740  1.5784  0.0201  1.9685
  589MOL0     H79491  14.325  10.748   5.575  0.0018 -2.9935 -1.0180
  589MOL0     H79492  14.201  10.641   5.635 -0.9433  0.8039  1.7554
  589MOL0     H79493  14.435  10.685   5.755  1.1071  2.2810  0.2355
  589MOL0     H79494  14.362  10.842   5.799 -0.5222  0.2446  0.6091
  589MOL0     H79495  13.407  10.900   5.081 -1.6685 -1.1797 -1.5399
  589MOL0     H79496  13.154  10.914   5.149 -1.3122 -0.4956  2.1405
  589MOL0     H79497  12.755  10.639   5.279  0.5305 -0.5062  0.7918
  589MOL0     H79498  12.517  10.717   5.305 -1.9446  1.0204  2.3173
  589MOL0     H79499  11.393  11.277   4.561  0.9595  0.0341  0.7285
  589MOL0     H79500  11.195  11.184   4.521  0.7631  0.8104  0.2305
  589MOL0     H79501  11.050  10.869   4.176 -0.1180  0.1081  1.0909
  589MOL0     H79502  10.839  10.778   4.083 -1.5919 -2.0180  0.6310
  589MOL0     H79503  10.697  10.589   3.984  1.4201 -0.9711  1.2333
  589MOL0     H79504  10.637  10.746   4.056  0.9758 -0.2759 -1.5902
  589MOL0     H79505  10.436  10.624   3.962  0.0968 -2.0162 -0.2877
  589MOL0     H79506  10.436  10.636   4.133  0.8047 -0.7811  0.0445
  589MOL0     H79507  10.502  10.400   4.156 -1.0506 -3.4736 -1.0340
  589MOL0     H79508  10.542  10.394   3.984 -1.2057  2.1451 -2.9798
  589MOL0     H79509  10.286  10.398   3.956 -0.9823  0.9123  0.4074
  589MOL0     H79510  10.350  10.270   4.051  1.4752  0.0856 -0.0482
  589MOL0     H79511  10.116  10.509   4.321 -0.4643  1.5928 -0.8872
  589MOL0     H79512  10.756  10.557   4.434 -1.0172  1.1224  0.1200
  589MOL0     H79513  10.872  10.601   4.640 -1.8094  1.0927 -1.4873
  589MOL0     H79514  11.051  10.592   4.613  1.5459  1.0870 -0.3885
  589MOL0     H79515  10.965  10.749   4.647  1.7602  0.0853 -1.7645
  590MOL0     O79516   2.517   2.301   6.172 -0.1954 -0.2442  0.0701
  590MOL0     C79517   2.476   2.222   6.250 -0.0539  0.6619  0.2441
  590MOL0     O79518   2.450   2.094   6.223 -0.0251  0.1356  0.1941
  590MOL0     C79519   2.508   2.024   6.118 -0.9511 -0.7873 -0.5399
  590MOL0     C79520   2.439   1.920   6.055 -0.4529  0.1389 -0.4502
  590MOL0     C79521   2.501   1.853   5.947 -0.0398  0.3945 -0.0015
  590MOL0     C79522   2.634   1.878   5.907 -1.0426  0.9863 -0.0369
  590MOL0     O79523   2.695   1.791   5.813  0.3152 -0.4912 -0.4100
  590MOL0     C79524   2.793   1.855   5.731 -0.1987  0.2177 -0.4054
  590MOL0     C79525   2.795   1.757   5.616 -0.0174  0.0304 -0.7390
  590MOL0     C79526   2.882   1.809   5.497  0.0502 -0.2914 -0.0860
  590MOL0     C79527   3.030   1.819   5.538  0.2867  0.0445  0.4303
  590MOL0     C79528   3.126   1.857   5.415  0.1152  0.7306 -0.3928
  590MOL0     C79529   3.269   1.845   5.447  0.3612 -0.2416 -0.0783
  590MOL0     C79530   3.349   1.894   5.328  0.7720  0.2986 -0.3057
  590MOL0     C79531   3.502   1.915   5.348 -0.8024 -0.1861 -0.0896
  590MOL0     N79532   3.589   1.811   5.297 -0.1361 -0.3648 -0.4497
  590MOL0     C79533   3.613   1.690   5.355 -0.0968  0.4430  0.0711
  590MOL0     C79534   3.694   1.626   5.273 -1.1571 -0.7388  0.9170
  590MOL0     C79535   3.740   1.479   5.273 -0.1441 -0.6027  0.6484
  590MOL0     C79536   3.857   1.447   5.377  0.0261 -0.2848  0.4206
  590MOL0     C79537   3.984   1.524   5.344 -0.4916  1.0764  0.1394
  590MOL0     C79538   4.116   1.479   5.402  0.5186 -0.0849  0.1569
  590MOL0     O79539   4.226   1.565   5.358  0.9053  0.4394  0.4790
  590MOL0     C79540   4.339   1.536   5.422  0.7192 -0.2982 -0.2530
  590MOL0     C79541   4.424   1.456   5.353 -0.1110 -0.2006  0.6855
  590MOL0     C79542   4.549   1.425   5.410  0.7376 -0.5280  0.2768
  590MOL0     C79543   4.582   1.469   5.539 -0.8035  0.1047  0.0212
  590MOL0     C79544   4.719   1.431   5.589  0.7035  0.9938  0.2639
  590MOL0     O79545   4.797   1.345   5.516  0.4025  0.6883 -0.2866
  590MOL0     C79546   4.918   1.320   5.563 -0.6642 -0.4909  0.4256
  590MOL0     C79547   4.946   1.194   5.624 -0.2745  0.2593  0.5640
  590MOL0     C79548   5.075   1.154   5.647  0.0274 -0.4942 -0.0796
  590MOL0     C79549   5.180   1.245   5.616  0.2573 -0.3092 -0.5798
  590MOL0     O79550   5.318   1.222   5.629 -0.0670 -0.9402 -0.0192
  590MOL0     C79551   5.369   1.098   5.670 -0.2641  0.6541  0.0330
  590MOL0     C79552   5.520   1.083   5.675 -0.3526 -0.9046  0.5190
  590MOL0     C79553   5.578   1.203   5.752  0.6543 -0.1393 -0.1951
  590MOL0     C79554   5.607   1.149   5.894  0.0802  0.2008  0.6168
  590MOL0     C79555   5.670   1.237   6.000  0.2141 -0.6078 -0.3590
  590MOL0     C79556   5.682   1.170   6.137 -0.0217 -0.1728  0.4161
  590MOL0     C79557   5.707   1.283   6.241 -0.4385  0.8893  0.3279
  590MOL0     C79558   5.793   1.241   6.368  0.2987 -0.3760  0.7478
  590MOL0    Cl79559   5.831   1.357   6.487 -0.0874 -0.3000 -0.4734
  590MOL0     C79560   5.152   1.367   5.576 -0.6078 -1.6280  0.4108
  590MOL0     C79561   5.022   1.411   5.545 -0.2858 -0.0508  0.9720
  590MOL0     O79562   4.748   1.477   5.700  0.1161  0.6223  0.4655
  590MOL0     C79563   4.484   1.541   5.610  0.1307  0.1921 -0.0359
  590MOL0     C79564   4.363   1.580   5.554 -0.4345  0.4921 -0.3621
  590MOL0     N79565   3.720   1.713   5.169 -0.0056 -0.5549  0.2814
  590MOL0     N79566   3.664   1.817   5.182  0.6862  0.4975 -0.3167
  590MOL0     C79567   2.703   1.985   5.970  0.2581  0.4564 -0.2244
  590MOL0     C79568   2.640   2.058   6.072  0.0131  0.5444  0.9774
  590MOL0     C79569   2.399   2.267   6.369 -0.6741  0.3455 -0.5126
  590MOL0     C79570   2.262   2.249   6.371  0.6592 -0.3180 -0.2208
  590MOL0     C79571   2.188   2.278   6.486  0.1776 -0.1969 -0.0430
  590MOL0     C79572   2.252   2.345   6.600 -0.2393 -0.0991  1.5226
  590MOL0     O79573   2.179   2.373   6.711  0.1960  0.2572 -0.4018
  590MOL0     C79574   2.229   2.442   6.831 -0.3517  0.8858 -0.0033
  590MOL0     C79575   2.308   2.339   6.921 -0.7251 -0.7373  0.5079
  590MOL0     C79576   2.363   2.418   7.040  0.6234  0.3823 -0.4679
  590MOL0     C79577   2.478   2.522   7.031  0.4717  0.3621 -0.8027
  590MOL0     C79578   2.568   2.480   6.921  0.9398 -0.4135  0.6554
  590MOL0     C79579   2.643   2.453   6.830  0.4014 -1.3451  0.1969
  590MOL0     C79580   2.389   2.388   6.586 -0.5068 -0.1154  0.2942
  590MOL0     C79581   2.463   2.338   6.476  0.2427 -1.0140 -0.4439
  590MOL0     C79582   2.611   2.377   6.458  0.1613  0.3029 -0.1575
  590MOL0     H79583   2.343   1.878   6.083  0.8095 -3.8728 -1.4726
  590MOL0     H79584   2.437   1.773   5.914 -0.4434  0.7821 -0.1634
  590MOL0     H79585   2.774   1.958   5.702  4.7713  1.9586  1.3199
  590MOL0     H79586   2.895   1.862   5.771  0.4271 -1.7484 -1.5040
  590MOL0     H79587   2.690   1.752   5.585 -0.5176 -0.6483  0.9750
  590MOL0     H79588   2.828   1.657   5.644 -1.2249 -0.6124 -1.4984
  590MOL0     H79589   2.836   1.904   5.467 -3.0099 -1.4341  0.6819
  590MOL0     H79590   2.867   1.736   5.418 -1.1491  2.2986 -2.4166
  590MOL0     H79591   3.046   1.900   5.609  1.8580  1.2047 -1.1343
  590MOL0     H79592   3.056   1.722   5.583 -0.5393 -0.9073 -1.0443
  590MOL0     H79593   3.107   1.786   5.333  0.0178  1.3452 -0.9131
  590MOL0     H79594   3.100   1.958   5.382 -1.5340  0.7729  0.9503
  590MOL0     H79595   3.293   1.905   5.535 -1.1397  0.4769 -0.1313
  590MOL0     H79596   3.302   1.743   5.469 -0.5216 -1.2059 -2.7799
  590MOL0     H79597   3.318   1.995   5.301 -2.3035 -1.1306 -2.6864
  590MOL0     H79598   3.329   1.825   5.246 -0.0607 -1.8501  1.5711
  590MOL0     H79599   3.520   1.998   5.279  0.0682 -0.4588 -0.1983
  590MOL0     H79600   3.534   1.942   5.449 -1.5376 -0.5280  0.2370
  590MOL0     H79601   3.562   1.652   5.444 -2.1420  2.0427 -0.3515
  590MOL0     H79602   3.654   1.421   5.309 -0.5677  0.6829  1.7913
  590MOL0     H79603   3.768   1.449   5.172  1.5124 -0.2732  0.9810
  590MOL0     H79604   3.827   1.466   5.480  2.3408 -1.4547  1.3848
  590MOL0     H79605   3.874   1.339   5.367 -2.8333 -1.1183  2.8174
  590MOL0     H79606   3.968   1.617   5.398 -0.2064  0.1318  1.9459
  590MOL0     H79607   3.999   1.526   5.235  2.2251  0.7618  0.4265
  590MOL0     H79608   4.147   1.379   5.371  0.2523  0.1659 -0.9763
  590MOL0     H79609   4.106   1.492   5.510 -0.5672 -0.3565  0.0981
  590MOL0     H79610   4.398   1.426   5.252  2.8630 -1.3314  0.1543
  590MOL0     H79611   4.619   1.371   5.347  1.2934  1.1876 -0.6591
  590MOL0     H79612   4.871   1.120   5.647 -2.0956  2.0511  0.6511
  590MOL0     H79613   5.093   1.053   5.682  0.7934 -1.5828 -3.3142
  590MOL0     H79614   5.328   1.054   5.762  0.4154 -0.7601 -0.3077
  590MOL0     H79615   5.347   1.024   5.592  3.2792 -1.6135  0.9359
  590MOL0     H79616   5.553   0.985   5.712  0.6615 -0.1667  1.6681
  590MOL0     H79617   5.543   1.092   5.569 -0.2469  1.8686  0.7008
  590MOL0     H79618   5.666   1.243   5.700  2.3971 -1.2626  1.7097
  590MOL0     H79619   5.504   1.283   5.760 -3.6718 -3.9051  1.8982
  590MOL0     H79620   5.669   1.059   5.885 -0.9641 -0.3645 -1.3675
  590MOL0     H79621   5.517   1.112   5.943  2.0942 -0.6661  4.0043
  590MOL0     H79622   5.609   1.327   6.011 -1.5477 -1.3003 -3.3989
  590MOL0     H79623   5.771   1.269   5.973 -0.2174 -2.9729 -6.1800
  590MOL0     H79624   5.588   1.118   6.152 -1.5342  1.7039 -1.7564
  590MOL0     H79625   5.766   1.101   6.124 -0.9522 -0.8983 -2.6861
  590MOL0     H79626   5.609   1.322   6.272  0.0982  1.6802  1.0606
  590MOL0     H79627   5.756   1.364   6.187 -1.2136 -0.0786 -1.9192
  590MOL0     H79628   5.738   1.154   6.404  0.3493  0.4175  2.8498
  590MOL0     H79629   5.889   1.206   6.329  0.1246  0.1036 -0.1509
  590MOL0     H79630   5.231   1.441   5.564 -0.1260 -2.3684 -1.3279
  590MOL0     H79631   5.013   1.506   5.494  1.2376 -0.7299 -0.6914
  590MOL0     H79632   4.518   1.557   5.712 -3.4871 -3.4243  1.9987
  590MOL0     H79633   4.304   1.635   5.627  3.9687  1.8583  2.5819
  590MOL0     H79634   2.803   2.009   5.935  0.5972 -0.4783  0.0940
  590MOL0     H79635   2.691   2.143   6.117 -0.3660  1.0497  0.4647
  590MOL0     H79636   2.213   2.217   6.280 -0.7467  0.0266  0.3913
  590MOL0     H79637   2.079   2.274   6.477  0.0547  1.7149 -0.0076
  590MOL0     H79638   2.152   2.497   6.886  0.4723 -0.0566  2.1796
  590MOL0     H79639   2.307   2.514   6.806 -0.1921  0.0709 -2.0180
  590MOL0     H79640   2.390   2.290   6.869 -1.1678 -2.2009  1.1455
  590MOL0     H79641   2.252   2.254   6.961  1.3741 -3.1551 -1.3423
  590MOL0     H79642   2.404   2.341   7.106 -0.7797  0.6299  0.7340
  590MOL0     H79643   2.277   2.460   7.092 -0.0016 -0.3603 -0.8904
  590MOL0     H79644   2.438   2.623   7.019  3.4159  2.0800  2.3680
  590MOL0     H79645   2.537   2.514   7.122  0.8478 -1.0791 -1.1406
  590MOL0     H79646   2.718   2.432   6.757  1.3482  1.5105  0.2188
  590MOL0     H79647   2.439   2.445   6.664  0.4289  1.4799 -1.4163
  590MOL0     H79648   2.618   2.480   6.421  0.1936  1.2840  2.3336
  590MOL0     H79649   2.665   2.367   6.553  0.0669  1.7926  0.0819
  590MOL0     H79650   2.660   2.311   6.386 -1.2675 -1.9287  0.8085
  591MOL0     O79651   5.896   7.052   5.510 -0.0133  0.5566 -0.4783
  591MOL0     C79652   5.915   7.174   5.516  0.2673  0.8311  0.0050
  591MOL0     O79653   6.040   7.230   5.520  0.4138 -1.0254  0.3061
  591MOL0     C79654   6.141   7.159   5.462 -0.4787 -0.0276  0.4093
  591MOL0     C79655   6.133   7.113   5.329  0.5906  0.0316  0.7222
  591MOL0     C79656   6.240   7.046   5.263  0.3053 -0.3240 -0.2317
  591MOL0     C79657   6.349   7.009   5.342  0.8451  0.3597  1.0815
  591MOL0     O79658   6.449   6.940   5.279 -0.1656 -0.2439  0.2861
  591MOL0     C79659   6.508   7.016   5.167  0.4227  0.3713 -1.3113
  591MOL0     C79660   6.652   6.987   5.165  0.0474 -0.1962 -0.1468
  591MOL0     C79661   6.711   7.063   5.041 -0.0981 -0.3975  0.9790
  591MOL0     C79662   6.854   7.015   5.011  0.2859  0.4385  0.0048
  591MOL0     C79663   6.953   7.118   4.967  0.2348  0.7277 -0.3534
  591MOL0     C79664   6.919   7.188   4.835 -0.2634  0.3115 -0.1924
  591MOL0     C79665   7.018   7.290   4.788  0.1357 -0.2089 -0.4629
  591MOL0     C79666   6.986   7.427   4.861  0.0769 -0.4256 -0.9896
  591MOL0     N79667   7.077   7.530   4.803 -0.2486 -0.8590 -0.0760
  591MOL0     C79668   7.064   7.597   4.687 -1.0681  0.2382 -0.0065
  591MOL0     C79669   7.149   7.702   4.678 -0.0382  0.0041  0.6328
  591MOL0     C79670   7.166   7.802   4.564  1.1936  0.0390 -1.1778
  591MOL0     C79671   7.313   7.837   4.527 -0.8361  0.4128  0.0806
  591MOL0     C79672   7.368   7.965   4.585 -0.0989  0.9413  0.5328
  591MOL0     C79673   7.522   7.990   4.567 -0.2458  0.4461 -0.0966
  591MOL0     O79674   7.572   8.016   4.437  0.2548 -0.3374  0.5437
  591MOL0     C79675   7.709   8.041   4.427  0.8150 -0.3974  0.1163
  591MOL0     C79676   7.801   8.033   4.534 -0.0047 -0.4239 -0.0283
  591MOL0     C79677   7.933   8.051   4.502  0.1718 -0.8371  0.1661
  591MOL0     C79678   7.975   8.114   4.379 -0.2688  0.0839 -0.1048
  591MOL0     C79679   8.121   8.142   4.356  0.6002 -0.5461  0.2028
  591MOL0     O79680   8.167   8.130   4.229  0.1785  0.5624  0.3146
  591MOL0     C79681   8.302   8.118   4.185  0.4353  0.0893 -0.2052
  591MOL0     C79682   8.333   8.135   4.052 -0.4261  0.2578  0.0366
  591MOL0     C79683   8.468   8.139   4.012 -0.2823 -0.1059 -0.3061
  591MOL0     C79684   8.574   8.120   4.099 -0.0560 -0.4482 -0.1235
  591MOL0     O79685   8.704   8.117   4.062  0.0963  0.0642 -0.6424
  591MOL0     C79686   8.736   8.143   3.922  0.5770 -0.5367  0.1214
  591MOL0     C79687   8.883   8.115   3.912 -1.2709 -0.5183 -0.1669
  591MOL0     C79688   8.921   8.140   3.765  0.0076 -0.3802  0.4900
  591MOL0     C79689   8.920   8.284   3.702  0.4743 -0.4763  0.5710
  591MOL0     C79690   8.972   8.402   3.785  0.3775  0.1367 -0.4591
  591MOL0     C79691   9.123   8.387   3.806 -0.1837  0.2038  0.4500
  591MOL0     C79692   9.176   8.504   3.891 -0.6512 -0.6222 -0.9166
  591MOL0     C79693   9.327   8.501   3.894 -0.5490  0.0219 -0.8825
  591MOL0    Cl79694   9.380   8.633   4.010 -0.1904  0.0871 -0.3501
  591MOL0     C79695   8.541   8.074   4.230 -0.1637 -0.3140 -0.0482
  591MOL0     C79696   8.405   8.086   4.272 -0.2336  0.0342  0.0941
  591MOL0     O79697   8.183   8.185   4.451 -0.2468 -0.2042  0.1023
  591MOL0     C79698   7.876   8.115   4.277 -0.1850 -0.1670  0.6247
  591MOL0     C79699   7.750   8.070   4.296  0.4964  0.8916  0.2718
  591MOL0     N79700   7.225   7.687   4.797 -0.0917  0.3994  0.0332
  591MOL0     N79701   7.180   7.584   4.864 -0.6070 -0.3923  0.0745
  591MOL0     C79702   6.351   7.035   5.477  0.1888  0.2199  0.0141
  591MOL0     C79703   6.247   7.107   5.536 -0.1790  0.6142 -0.2816
  591MOL0     C79704   5.787   7.259   5.519 -0.4327 -0.4275 -0.3456
  591MOL0     C79705   5.668   7.207   5.451 -1.0883 -0.6447 -0.5923
  591MOL0     C79706   5.546   7.282   5.447  0.0206 -0.0500 -0.4241
  591MOL0     C79707   5.541   7.397   5.517  0.0784 -0.4870  1.0351
  591MOL0     O79708   5.427   7.471   5.500  0.0470 -0.0046 -0.3855
  591MOL0     C79709   5.371   7.527   5.615 -0.6036 -0.6036 -0.0841
  591MOL0     C79710   5.284   7.418   5.683  0.3716  0.6426  0.3911
  591MOL0     C79711   5.158   7.386   5.593  0.2153  0.5006  0.1360
  591MOL0     C79712   5.055   7.295   5.664 -0.2906 -0.9496  0.5884
  591MOL0     C79713   4.930   7.274   5.590  0.2425 -0.2569  0.4667
  591MOL0     C79714   4.821   7.247   5.538  0.7864 -0.1716  0.2660
  591MOL0     C79715   5.656   7.451   5.588  1.2069 -0.4686  0.5067
  591MOL0     C79716   5.776   7.389   5.583 -0.3417  1.2046  0.2058
  591MOL0     C79717   5.888   7.455   5.660 -0.3753 -0.2186 -0.5128
  591MOL0     H79718   6.037   7.140   5.285  1.8866  2.8701 -0.6168
  591MOL0     H79719   6.227   7.023   5.158  0.6676 -1.3975 -0.0503
  591MOL0     H79720   6.467   6.978   5.072 -1.4392 -1.9095  0.2929
  591MOL0     H79721   6.489   7.122   5.186 -1.1258 -0.2762  1.1598
  591MOL0     H79722   6.645   6.880   5.142 -0.3613  0.2193 -2.1410
  591MOL0     H79723   6.702   7.006   5.260  1.2958  0.2034 -0.8610
  591MOL0     H79724   6.700   7.171   5.049  2.6310 -0.0214  0.6663
  591MOL0     H79725   6.653   7.039   4.951  2.2137  2.1294 -1.3819
  591MOL0     H79726   6.879   6.972   5.108 -1.9500  2.0839  1.3986
  591MOL0     H79727   6.853   6.939   4.931 -0.5673 -0.5913  0.9726
  591MOL0     H79728   6.949   7.182   5.055  0.2361 -0.7871  0.7902
  591MOL0     H79729   7.053   7.077   4.954  1.7041  2.7271  3.2327
  591MOL0     H79730   6.911   7.107   4.762 -0.4678  0.1530  0.0030
  591MOL0     H79731   6.823   7.240   4.833  0.2837  1.7015 -5.4010
  591MOL0     H79732   7.000   7.319   4.684  0.3352 -3.2485 -1.4605
  591MOL0     H79733   7.121   7.255   4.802  0.6394  1.5692  0.5231
  591MOL0     H79734   6.889   7.466   4.830 -0.6406 -1.5647 -0.2721
  591MOL0     H79735   6.992   7.425   4.971 -2.1487  0.8675 -0.7756
  591MOL0     H79736   6.989   7.572   4.613 -1.6587 -2.2914  1.3543
  591MOL0     H79737   7.124   7.747   4.479 -0.6946 -5.0552  2.5311
  591MOL0     H79738   7.104   7.887   4.592  0.7526 -1.0173  1.2795
  591MOL0     H79739   7.380   7.754   4.553 -0.0740  0.6792 -0.9420
  591MOL0     H79740   7.318   7.849   4.418  2.7183  3.5743  0.3651
  591MOL0     H79741   7.349   7.949   4.692  2.9331 -0.1057  1.0013
  591MOL0     H79742   7.307   8.051   4.553 -1.4229  0.4001  1.4830
  591MOL0     H79743   7.565   7.897   4.606  0.7422  0.4932 -1.0195
  591MOL0     H79744   7.554   8.074   4.629  0.8019 -0.0385  0.0515
  591MOL0     H79745   7.792   7.992   4.634  3.9064 -0.4853  0.4381
  591MOL0     H79746   8.004   8.047   4.583  1.4719 -2.5656 -0.9879
  591MOL0     H79747   8.258   8.156   3.975  0.0168 -1.1418 -0.8138
  591MOL0     H79748   8.482   8.153   3.905  3.4587  1.2697  0.2081
  591MOL0     H79749   8.673   8.082   3.857  0.4853 -0.5621  0.2365
  591MOL0     H79750   8.716   8.249   3.901 -0.1214 -0.8478 -0.8319
  591MOL0     H79751   8.942   8.173   3.983  0.5651  0.2299 -2.1741
  591MOL0     H79752   8.906   8.013   3.945  2.7519  0.1316 -0.4176
  591MOL0     H79753   9.015   8.085   3.755  0.1105 -0.2964  0.9886
  591MOL0     H79754   8.853   8.083   3.701 -1.3121  2.6332 -1.0129
  591MOL0     H79755   8.815   8.312   3.687  0.4137 -1.9403 -2.4061
  591MOL0     H79756   8.967   8.286   3.604  1.1226  1.0829  0.8835
  591MOL0     H79757   8.921   8.430   3.877 -0.9826  1.5911 -1.6028
  591MOL0     H79758   8.974   8.494   3.726  0.6910 -0.1210 -0.8592
  591MOL0     H79759   9.134   8.298   3.868  0.0817 -1.1951 -1.5172
  591MOL0     H79760   9.182   8.384   3.714  0.5726  4.0373  0.6103
  591MOL0     H79761   9.135   8.501   3.992 -0.9983 -0.8460 -1.0645
  591MOL0     H79762   9.145   8.594   3.837  2.0622  2.1182  1.6727
  591MOL0     H79763   9.358   8.402   3.929  0.2103  0.4075 -0.4208
  591MOL0     H79764   9.387   8.515   3.803  0.6317  0.2475 -0.0959
  591MOL0     H79765   8.628   8.059   4.293 -0.1031 -0.4816 -0.1700
  591MOL0     H79766   8.389   8.076   4.379 -0.6529  5.8970  0.8940
  591MOL0     H79767   7.918   8.137   4.179  0.2415 -0.2675  0.7838
  591MOL0     H79768   7.676   8.078   4.218  0.3534  1.4327  0.4573
  591MOL0     H79769   6.432   6.997   5.538 -0.0933  0.3496  0.4795
  591MOL0     H79770   6.235   7.129   5.642 -1.7842 -0.5651 -0.1958
  591MOL0     H79771   5.670   7.111   5.399 -0.7595  0.4736 -2.7896
  591MOL0     H79772   5.459   7.241   5.396 -0.7865 -0.3049  1.0944
  591MOL0     H79773   5.318   7.620   5.592  0.5703  0.5354  1.5224
  591MOL0     H79774   5.452   7.553   5.684 -0.8501  1.4205 -0.5101
  591MOL0     H79775   5.256   7.454   5.782 -0.4484  0.5418  0.2083
  591MOL0     H79776   5.345   7.328   5.685  0.4260  0.4532 -2.9233
  591MOL0     H79777   5.188   7.331   5.503 -2.3690  0.3726 -0.7329
  591MOL0     H79778   5.126   7.485   5.559  0.7055  0.0913 -1.6113
  591MOL0     H79779   5.107   7.199   5.680  2.1313 -0.3172 -2.4910
  591MOL0     H79780   5.025   7.351   5.753 -0.8712  1.0331 -0.8020
  591MOL0     H79781   4.738   7.225   5.474 -0.0565 -0.2112  1.3356
  591MOL0     H79782   5.648   7.548   5.635 -1.4785  0.7211 -2.0723
  591MOL0     H79783   5.979   7.458   5.600 -1.2388  2.3569 -1.8664
  591MOL0     H79784   5.867   7.560   5.684  1.1442 -0.2493  1.1338
  591MOL0     H79785   5.902   7.402   5.755 -3.1555  2.2212  1.4376
  592MOL0     O79786   8.670   0.964   8.040  0.3670  0.2896 -0.0708
  592MOL0     C79787   8.605   0.970   7.936 -0.2824  0.5948  0.1016
  592MOL0     O79788   8.482   0.908   7.918 -0.2879 -0.5120 -0.2728
  592MOL0     C79789   8.442   0.794   7.971  0.4933 -0.0180 -0.2390
  592MOL0     C79790   8.520   0.703   8.049  0.0054  0.1215  0.1430
  592MOL0     C79791   8.453   0.598   8.119  0.1097 -0.6359  0.2920
  592MOL0     C79792   8.323   0.560   8.081 -0.6657  0.0402 -0.4864
  592MOL0     O79793   8.256   0.458   8.138  1.1236  1.4015  0.3739
  592MOL0     C79794   8.317   0.335   8.174 -0.7023  0.6237  0.6326
  592MOL0     C79795   8.420   0.258   8.086  0.9251 -0.4136  0.9884
  592MOL0     C79796   8.470   0.136   8.162  0.4733 -1.1434  0.0011
  592MOL0     C79797   8.598   0.068   8.105  1.7161  0.5184 -0.1725
  592MOL0     C79798   8.670  -0.023   8.205  0.1978 -0.1520 -0.1550
  592MOL0     C79799   8.764  -0.118   8.145  0.1730  0.8152  0.0466
  592MOL0     C79800   8.696  -0.262   8.142 -0.6868 -0.2408  0.4182
  592MOL0     C79801   8.759  -0.371   8.056  0.0758 -0.5364 -0.3634
  592MOL0     N79802   8.900  -0.410   8.085 -0.0713 -0.3069  0.4950
  592MOL0     C79803   9.010  -0.320   8.054 -0.1346  0.0863  1.2153
  592MOL0     C79804   9.119  -0.402   8.064  0.5805  0.3389 -1.2273
  592MOL0     C79805   9.256  -0.377   8.017 -0.8626  0.2193  0.7635
  592MOL0     C79806   9.257  -0.357   7.870  0.0987 -0.2658 -0.2604
  592MOL0     C79807   9.401  -0.353   7.811  0.6035 -0.4004  0.1727
  592MOL0     C79808   9.479  -0.485   7.777 -0.1941 -0.1328  1.0837
  592MOL0     O79809   9.600  -0.441   7.703  0.0659  0.3213 -0.0841
  592MOL0     C79810   9.698  -0.537   7.688  0.0751  0.0231 -0.3543
  592MOL0     C79811   9.679  -0.675   7.709 -0.5713  0.3744 -0.1696
  592MOL0     C79812   9.768  -0.770   7.665  0.4373 -0.0524 -0.4561
  592MOL0     C79813   9.895  -0.732   7.611  0.1816  0.3984  0.6305
  592MOL0     C79814   9.994  -0.827   7.551 -0.4729 -0.0192  0.0228
  592MOL0     O79815  10.119  -0.776   7.538 -0.4400 -0.8777  0.2649
  592MOL0     C79816  10.219  -0.837   7.460  0.4966 -1.2633 -0.1625
  592MOL0     C79817  10.319  -0.752   7.430  0.0462 -0.2199 -1.5079
  592MOL0     C79818  10.433  -0.787   7.353  0.0433 -0.5432 -0.6942
  592MOL0     C79819  10.441  -0.914   7.298  0.5078 -0.2272  0.3164
  592MOL0     O79820  10.549  -0.936   7.222  0.1676 -0.2694  0.1668
  592MOL0     C79821  10.675  -0.892   7.276 -0.8254 -1.1203  0.5259
  592MOL0     C79822  10.763  -0.992   7.212 -0.5587  0.5995 -0.3909
  592MOL0     C79823  10.907  -0.987   7.274 -0.0050  0.6479 -0.1333
  592MOL0     C79824  10.961  -0.845   7.284 -0.5009 -0.4708  0.2634
  592MOL0     C79825  11.097  -0.841   7.354 -0.4865  0.7605 -0.6393
  592MOL0     C79826  11.202  -0.908   7.258 -0.1491 -0.4417  0.1819
  592MOL0     C79827  11.347  -0.852   7.285 -0.0150 -0.2642 -0.2400
  592MOL0     C79828  11.451  -0.954   7.224 -0.5890 -0.3106  0.8936
  592MOL0    Cl79829  11.459  -1.115   7.294 -0.0347  0.3746 -0.1328
  592MOL0     C79830  10.340  -1.006   7.320  0.1142  0.4809 -0.0726
  592MOL0     C79831  10.223  -0.957   7.389 -0.7709  0.6092  0.6788
  592MOL0     O79832   9.960  -0.943   7.537 -0.2083  0.5175 -0.0576
  592MOL0     C79833   9.914  -0.593   7.591  0.7374 -0.0643 -0.4035
  592MOL0     C79834   9.815  -0.498   7.627  0.0811  0.0665 -0.7040
  592MOL0     N79835   9.077  -0.524   8.114 -0.1192 -0.4064  0.6185
  592MOL0     N79836   8.947  -0.528   8.123 -0.2092 -0.0875  0.2320
  592MOL0     C79837   8.255   0.643   7.997 -0.1513  0.1193 -0.5174
  592MOL0     C79838   8.311   0.757   7.947  0.0362 -0.6512  0.4555
  592MOL0     C79839   8.648   1.071   7.838 -0.0560  0.4125 -0.9605
  592MOL0     C79840   8.580   1.189   7.831  0.8136 -0.0349 -0.0363
  592MOL0     C79841   8.607   1.286   7.727 -0.1351  1.2527 -0.4070
  592MOL0     C79842   8.733   1.274   7.651  0.2670  0.2184  0.0608
  592MOL0     O79843   8.755   1.376   7.558  0.2099  0.3005  0.2642
  592MOL0     C79844   8.883   1.361   7.491 -0.6087 -0.0240  0.2421
  592MOL0     C79845   8.918   1.490   7.425 -0.4311  0.6285 -0.4541
  592MOL0     C79846   9.078   1.500   7.429  0.2825 -0.0587  0.5817
  592MOL0     C79847   9.110   1.636   7.354 -0.4529 -0.2236  0.3486
  592MOL0     C79848   9.092   1.753   7.440 -0.7242 -0.1315 -0.6397
  592MOL0     C79849   9.077   1.848   7.519 -0.4153  0.4318 -0.1538
  592MOL0     C79850   8.812   1.160   7.679  0.2438 -0.4644 -0.4445
  592MOL0     C79851   8.764   1.052   7.758  0.2918  0.1808 -0.0041
  592MOL0     C79852   8.843   0.919   7.780 -0.2018 -0.2456 -0.3062
  592MOL0     H79853   8.626   0.707   8.070  1.1480 -4.6272 -3.0185
  592MOL0     H79854   8.507   0.545   8.198  2.0798 -1.6577 -1.6374
  592MOL0     H79855   8.361   0.341   8.274  1.6091  1.1163 -0.3340
  592MOL0     H79856   8.227   0.274   8.182 -0.3979  0.3395  2.0625
  592MOL0     H79857   8.504   0.324   8.063  1.1241 -1.2287 -0.8324
  592MOL0     H79858   8.373   0.232   7.991  1.2320  0.5327  0.5701
  592MOL0     H79859   8.396   0.055   8.165 -0.4408 -0.2969  1.6342
  592MOL0     H79860   8.484   0.166   8.266 -1.3597  4.3424 -1.0408
  592MOL0     H79861   8.558   0.011   8.021 -0.4197 -0.1775  1.2331
  592MOL0     H79862   8.665   0.140   8.058  1.7839 -1.4634 -3.3808
  592MOL0     H79863   8.729   0.044   8.269 -3.2276 -0.0663  3.2438
  592MOL0     H79864   8.598  -0.060   8.278 -1.6316  2.3943 -0.5421
  592MOL0     H79865   8.789  -0.090   8.042 -1.0364  0.5052 -0.3488
  592MOL0     H79866   8.858  -0.123   8.201 -0.3465 -0.1514  0.8767
  592MOL0     H79867   8.594  -0.250   8.104  0.3991 -0.8109 -3.0733
  592MOL0     H79868   8.687  -0.292   8.247 -0.5167 -2.1155 -0.0697
  592MOL0     H79869   8.692  -0.455   8.078 -0.5547  0.1695  0.5217
  592MOL0     H79870   8.750  -0.337   7.953 -1.9577  1.5080  0.3858
  592MOL0     H79871   9.006  -0.219   8.014  0.0148 -0.5161 -0.3708
  592MOL0     H79872   9.291  -0.297   8.083  0.5308 -1.2980  1.9524
  592MOL0     H79873   9.311  -0.471   8.030 -2.4836 -0.7546  0.9975
  592MOL0     H79874   9.214  -0.445   7.821 -0.2451 -0.7855  0.9270
  592MOL0     H79875   9.211  -0.262   7.841  1.2212  0.8699  1.5004
  592MOL0     H79876   9.462  -0.302   7.886  1.0624 -0.0649 -0.4234
  592MOL0     H79877   9.391  -0.297   7.718 -0.3470  0.4493  0.7623
  592MOL0     H79878   9.411  -0.545   7.715 -3.2052  1.4638  2.5966
  592MOL0     H79879   9.515  -0.539   7.865  0.5644  1.9340  2.0954
  592MOL0     H79880   9.585  -0.711   7.748  0.4812 -3.2184 -0.5348
  592MOL0     H79881   9.742  -0.876   7.667 -3.6932  0.8081  0.0904
  592MOL0     H79882  10.320  -0.654   7.477  1.4948 -2.4192  3.7835
  592MOL0     H79883  10.513  -0.720   7.322 -0.7954  0.4638 -0.7246
  592MOL0     H79884  10.706  -0.795   7.236 -3.5821 -0.5611 -0.4489
  592MOL0     H79885  10.685  -0.910   7.383 -1.2019 -1.0064  0.5837
  592MOL0     H79886  10.726  -1.094   7.226 -1.3451  0.8046 -0.9212
  592MOL0     H79887  10.754  -0.962   7.107 -0.7916 -1.2605 -0.9479
  592MOL0     H79888  10.903  -1.027   7.376 -1.1839  3.0458  0.8401
  592MOL0     H79889  10.979  -1.047   7.218 -0.8893  3.5808 -4.9891
  592MOL0     H79890  10.893  -0.784   7.345  0.1320 -3.1363  3.9830
  592MOL0     H79891  10.986  -0.798   7.188  0.0253 -3.7166 -1.3269
  592MOL0     H79892  11.091  -0.899   7.447  3.6355 -0.5401 -0.9694
  592MOL0     H79893  11.126  -0.740   7.384 -2.0494  0.7955  0.8854
  592MOL0     H79894  11.200  -1.016   7.278  1.1475 -1.1081 -2.8035
  592MOL0     H79895  11.176  -0.877   7.157 -4.1413 -1.2551  0.8045
  592MOL0     H79896  11.343  -0.843   7.394 -2.4558  1.9835 -0.4089
  592MOL0     H79897  11.362  -0.753   7.242  0.8123  0.5825  1.8816
  592MOL0     H79898  11.422  -0.960   7.118 -2.8503  1.3580  1.3542
  592MOL0     H79899  11.556  -0.925   7.225 -0.6793  0.0807  0.2548
  592MOL0     H79900  10.347  -1.105   7.276 -0.2131  0.3373  0.1901
  592MOL0     H79901  10.145  -1.029   7.414 -1.4852  2.3943  4.2622
  592MOL0     H79902  10.006  -0.551   7.552  0.6140  0.6457  0.0457
  592MOL0     H79903   9.828  -0.392   7.608  1.1900  0.1904  0.6204
  592MOL0     H79904   8.149   0.622   7.990 -0.7702  1.6968  2.5121
  592MOL0     H79905   8.248   0.822   7.887 -1.6847 -0.5771  2.2695
  592MOL0     H79906   8.494   1.207   7.895 -1.1537 -1.0684 -2.1942
  592MOL0     H79907   8.541   1.372   7.718 -3.1292 -0.4401  2.7720
  592MOL0     H79908   8.891   1.275   7.423  0.7502 -0.4026  0.8618
  592MOL0     H79909   8.961   1.347   7.566  0.9940  0.0054 -1.3464
  592MOL0     H79910   8.877   1.571   7.485 -1.8191 -0.1870 -0.2529
  592MOL0     H79911   8.877   1.507   7.325  0.8879 -0.7532 -1.2869
  592MOL0     H79912   9.128   1.423   7.371 -0.5710  0.3652 -0.7622
  592MOL0     H79913   9.128   1.507   7.526  1.6666 -0.9314 -0.0499
  592MOL0     H79914   9.217   1.646   7.332 -0.1412  0.6379  2.0947
  592MOL0     H79915   9.054   1.653   7.261  0.4366  2.9866  0.2726
  592MOL0     H79916   9.061   1.926   7.591 -0.9494 -0.5856  0.8444
  592MOL0     H79917   8.906   1.140   7.628 -0.3368  1.1918 -2.2725
  592MOL0     H79918   8.787   0.828   7.760 -1.8024  0.7634 -0.6105
  592MOL0     H79919   8.938   0.912   7.726  0.6731 -1.3368  1.2972
  592MOL0     H79920   8.873   0.926   7.885 -1.1714  2.1617 -0.1095
  593MOL0     O79921   9.552   0.902   8.518 -0.2795 -0.3054 -0.3463
  593MOL0     C79922   9.515   1.017   8.496  0.6299  0.0173 -0.0500
  593MOL0     O79923   9.558   1.126   8.559 -0.6257  0.1047 -0.0223
  593MOL0     C79924   9.685   1.122   8.621  0.0660  0.1267  0.1971
  593MOL0     C79925   9.704   1.196   8.739  0.4455 -0.1209  0.0558
  593MOL0     C79926   9.824   1.196   8.815  0.3778  0.1476 -0.3405
  593MOL0     C79927   9.927   1.108   8.779 -0.0022 -0.1344  0.9147
  593MOL0     O79928  10.051   1.097   8.833 -0.3015 -0.4775  0.3362
  593MOL0     C79929  10.076   1.163   8.957  0.0917  0.6044  0.2013
  593MOL0     C79930  10.200   1.105   9.024  0.0341  0.2325  0.2558
  593MOL0     C79931  10.334   1.160   8.974  0.4221  0.0289  0.0283
  593MOL0     C79932  10.348   1.310   9.000 -0.3526 -0.0024  0.4513
  593MOL0     C79933  10.492   1.356   8.965  0.6784 -0.4660  0.1793
  593MOL0     C79934  10.586   1.303   9.063 -0.5227  0.3386  0.3473
  593MOL0     C79935  10.729   1.342   9.012 -0.8191  0.9937 -0.6863
  593MOL0     C79936  10.831   1.223   9.048  0.0090 -1.3998 -0.5908
  593MOL0     N79937  10.969   1.244   8.989 -0.7224  0.7347 -0.4426
  593MOL0     C79938  11.056   1.341   9.035 -0.1691 -0.0914  0.2719
  593MOL0     C79939  11.170   1.332   8.965  0.6638 -0.4915 -0.9091
  593MOL0     C79940  11.281   1.440   8.947  0.9393 -0.5190  1.0156
  593MOL0     C79941  11.366   1.453   9.080  0.0327 -0.2599  0.5570
  593MOL0     C79942  11.470   1.562   9.064 -0.2682 -0.1929  0.2976
  593MOL0     C79943  11.580   1.544   9.179 -0.0739 -0.1481 -0.1851
  593MOL0     O79944  11.639   1.411   9.181  0.3520  0.1552 -0.4228
  593MOL0     C79945  11.760   1.391   9.242  0.5280 -0.2056 -0.8754
  593MOL0     C79946  11.858   1.483   9.271  0.4078 -0.0105  0.1601
  593MOL0     C79947  11.973   1.439   9.341  0.0258 -0.6247  0.0226
  593MOL0     C79948  11.999   1.307   9.371  0.3529  0.3127  0.9687
  593MOL0     C79949  12.122   1.269   9.445 -0.2804  0.9913 -0.1908
  593MOL0     O79950  12.220   1.377   9.449  0.2394  0.1619  0.4676
  593MOL0     C79951  12.352   1.349   9.445  0.4628  0.0382 -0.0276
  593MOL0     C79952  12.422   1.315   9.326  0.1636 -0.6350  0.1837
  593MOL0     C79953  12.557   1.282   9.317  0.2124  0.7937 -0.8507
  593MOL0     C79954  12.625   1.264   9.443 -0.1910  0.4215  0.9329
  593MOL0     O79955  12.763   1.243   9.438  0.6305  0.9753  0.7900
  593MOL0     C79956  12.840   1.220   9.552 -0.3217 -0.5757 -0.1080
  593MOL0     C79957  12.986   1.186   9.514  0.3300 -0.1976 -0.5944
  593MOL0     C79958  13.071   1.166   9.639  0.4376  0.0788 -0.7666
  593MOL0     C79959  13.205   1.118   9.601  0.5099  0.7592 -0.0072
  593MOL0     C79960  13.312   1.094   9.717  0.3016  0.0617  0.2007
  593MOL0     C79961  13.269   0.972   9.799  0.1591 -0.0483  1.0768
  593MOL0     C79962  13.351   0.932   9.917  0.1290 -0.2500 -0.1472
  593MOL0     C79963  13.326   1.039  10.022 -0.6043  0.7711  0.1833
  593MOL0    Cl79964  13.387   0.974  10.171  0.4648  0.2490  0.2856
  593MOL0     C79965  12.547   1.281   9.559 -0.8276  0.7770  0.8397
  593MOL0     C79966  12.413   1.316   9.559  0.5224 -0.6039  0.5947
  593MOL0     O79967  12.157   1.149   9.461  0.1988 -0.2090  0.8242
  593MOL0     C79968  11.905   1.214   9.333  0.6592  0.5026  0.1207
  593MOL0     C79969  11.774   1.258   9.279 -0.9381 -0.6573 -0.4608
  593MOL0     N79970  11.155   1.229   8.875 -0.0689 -0.1266 -0.2261
  593MOL0     N79971  11.033   1.178   8.889 -0.4113 -0.0255 -0.1459
  593MOL0     C79972   9.907   1.031   8.663 -0.0090 -0.0077  0.1122
  593MOL0     C79973   9.793   1.043   8.579  0.6071  0.5365 -0.4460
  593MOL0     C79974   9.411   1.049   8.400 -0.4199 -0.1361 -0.0078
  593MOL0     C79975   9.398   0.964   8.294  1.3951  0.1798  0.1866
  593MOL0     C79976   9.294   0.981   8.203 -0.2227 -0.4379  0.4002
  593MOL0     C79977   9.213   1.093   8.204 -0.3783  0.7669  0.2029
  593MOL0     O79978   9.141   1.111   8.090  0.9582  0.4954 -0.0941
  593MOL0     C79979   9.006   1.151   8.103 -0.2292 -0.4866  0.0141
  593MOL0     C79980   9.010   1.299   8.052  0.2024 -0.4124  0.0740
  593MOL0     C79981   8.902   1.390   8.114  0.7234 -0.3466  0.0739
  593MOL0     C79982   8.761   1.322   8.101 -0.2756  0.1494 -0.6073
  593MOL0     C79983   8.661   1.427   8.138  0.4058  0.3983 -1.1842
  593MOL0     C79984   8.586   1.525   8.152  0.4319 -0.1121 -0.3979
  593MOL0     C79985   9.228   1.188   8.305  0.1282 -0.5926  0.0121
  593MOL0     C79986   9.330   1.166   8.403 -0.7795 -0.7549  0.6750
  593MOL0     C79987   9.336   1.270   8.517 -0.2829 -0.0337 -0.3505
  593MOL0     H79988   9.632   1.275   8.759  1.5048  0.2130  3.0077
  593MOL0     H79989   9.844   1.257   8.902  0.2841  0.6482 -0.6663
  593MOL0     H79990  10.083   1.268   8.928  1.8432 -0.3889 -3.5762
  593MOL0     H79991   9.985   1.159   9.017  0.7510 -0.8008  1.1626
  593MOL0     H79992  10.206   0.995   9.026  1.8153  0.2303 -1.5828
  593MOL0     H79993  10.194   1.140   9.127  1.2659 -1.4236  0.9450
  593MOL0     H79994  10.340   1.140   8.866 -0.4501  1.6115 -0.3462
  593MOL0     H79995  10.410   1.103   9.029 -0.3973  0.1565  1.3173
  593MOL0     H79996  10.274   1.374   8.952  1.9459  2.6527  0.1685
  593MOL0     H79997  10.335   1.336   9.106  3.9418  0.9292  0.9244
  593MOL0     H79998  10.520   1.319   8.866  2.6574  0.3406  0.3927
  593MOL0     H79999  10.497   1.465   8.960  2.4452 -0.5676 -1.2544
  593MOL0     H80000  10.566   1.345   9.162  1.7016  1.0887  0.5336
  593MOL0     H80001  10.573   1.194   9.058 -1.3853  0.4798 -2.4056
  593MOL0     H80002  10.758   1.425   9.077  4.0940 -0.2283 -0.9281
  593MOL0     H80003  10.738   1.384   8.911 -1.8613  1.6094 -0.5427
  593MOL0     H80004  10.815   1.210   9.156  1.6562  1.1220  0.0416
  593MOL0     H80005  10.790   1.135   8.997  0.3049 -0.1368 -3.1714
  593MOL0     H80006  11.024   1.418   9.104  1.4575  0.8680 -0.0080
  593MOL0     H80007  11.352   1.418   8.867 -0.0140  3.6222 -1.2150
  593MOL0     H80008  11.232   1.532   8.914 -2.3552 -2.3121  0.4751
  593MOL0     H80009  11.295   1.478   9.159  1.4357 -1.5886  2.3094
  593MOL0     H80010  11.409   1.354   9.090  1.0818 -0.0797 -1.6323
  593MOL0     H80011  11.415   1.656   9.064 -2.2166 -1.2898  0.4233
  593MOL0     H80012  11.522   1.562   8.968 -1.2081  1.3544 -0.2281
  593MOL0     H80013  11.536   1.567   9.276 -0.1557  2.9520 -0.8552
  593MOL0     H80014  11.660   1.612   9.151  1.1007 -1.5222 -0.2676
  593MOL0     H80015  11.843   1.586   9.244 -2.5790 -0.9822 -2.3792
  593MOL0     H80016  12.036   1.522   9.369 -2.6987  1.5686  0.1046
  593MOL0     H80017  12.376   1.340   9.231  3.2069  1.5654 -0.9102
  593MOL0     H80018  12.624   1.290   9.232  1.5443  0.4826  0.1294
  593MOL0     H80019  12.836   1.313   9.610 -1.3950  0.7939 -2.2623
  593MOL0     H80020  12.798   1.143   9.617 -3.4242  2.5435  1.9758
  593MOL0     H80021  12.993   1.109   9.437  0.6742 -0.0639 -0.6992
  593MOL0     H80022  13.025   1.274   9.461 -0.3202  0.2667 -0.3097
  593MOL0     H80023  13.079   1.262   9.691  1.6991  0.5544 -1.7801
  593MOL0     H80024  13.029   1.086   9.701  2.6116 -0.7818 -0.2956
  593MOL0     H80025  13.244   1.188   9.526  1.5603 -0.8794 -1.0638
  593MOL0     H80026  13.197   1.020   9.553  2.2785  1.0794 -1.0507
  593MOL0     H80027  13.308   1.178   9.786  0.6643  0.6775 -0.5091
  593MOL0     H80028  13.414   1.082   9.680  0.6059 -0.1872  1.0985
  593MOL0     H80029  13.169   1.002   9.833 -0.4482  1.1406 -1.4730
  593MOL0     H80030  13.275   0.891   9.726 -0.0884  1.8878 -1.2155
  593MOL0     H80031  13.456   0.926   9.885  0.2966  0.7632  0.1760
  593MOL0     H80032  13.317   0.834   9.953  0.7958  0.0379  1.3340
  593MOL0     H80033  13.367   1.139  10.005  1.1588  0.2014  0.9069
  593MOL0     H80034  13.218   1.053  10.034 -1.0443 -1.1921 -0.9738
  593MOL0     H80035  12.586   1.263   9.659 -0.8255  0.2952  0.7563
  593MOL0     H80036  12.360   1.330   9.653  0.3468  1.0528  0.2772
  593MOL0     H80037  11.915   1.108   9.356 -1.0588  0.3607  0.3159
  593MOL0     H80038  11.693   1.199   9.238 -0.6200  1.1073 -3.9462
  593MOL0     H80039   9.985   0.959   8.644 -2.7038 -3.6733  1.8195
  593MOL0     H80040   9.782   0.990   8.485  3.3984  2.6033 -2.1330
  593MOL0     H80041   9.448   0.869   8.282 -1.6968 -1.3742 -1.5758
  593MOL0     H80042   9.266   0.910   8.126  1.8148 -0.6746 -0.1939
  593MOL0     H80043   8.979   1.156   8.209  2.1949  0.4126  0.6587
  593MOL0     H80044   8.929   1.092   8.052 -0.7170 -2.1475  2.5175
  593MOL0     H80045   8.990   1.304   7.944 -0.8096  1.3222  0.2954
  593MOL0     H80046   9.104   1.354   8.065  1.3550 -2.2948  0.1324
  593MOL0     H80047   8.919   1.486   8.064  0.5828 -0.8249 -0.9057
  593MOL0     H80048   8.919   1.414   8.219 -0.6610  5.5109 -0.6907
  593MOL0     H80049   8.749   1.293   7.996 -2.8496  1.7861 -0.8481
  593MOL0     H80050   8.766   1.235   8.167  1.0906  0.1229 -0.7027
  593MOL0     H80051   8.516   1.604   8.168 -1.0675 -2.0572  4.0925
  593MOL0     H80052   9.161   1.273   8.296  2.4770  1.3497 -0.1850
  593MOL0     H80053   9.247   1.332   8.528  0.4661  0.6785  2.1459
  593MOL0     H80054   9.347   1.224   8.615  1.0051  1.7347  0.3766
  593MOL0     H80055   9.421   1.338   8.514 -1.8752  2.0174 -0.8494
  594MOL0     O80056   8.599   5.381   4.745  0.0255  0.5705  0.2311
  594MOL0     C80057   8.615   5.301   4.841 -0.9035 -0.2038  0.0779
  594MOL0     O80058   8.737   5.255   4.884 -0.0605 -0.2311 -0.0081
  594MOL0     C80059   8.861   5.292   4.841  1.2872 -0.6599  0.4788
  594MOL0     C80060   8.896   5.380   4.734  0.0013 -0.3040  0.2504
  594MOL0     C80061   9.026   5.414   4.703  0.0081  0.5390 -0.7216
  594MOL0     C80062   9.129   5.359   4.785  0.5443  0.1358 -0.0009
  594MOL0     O80063   9.264   5.368   4.760 -0.2238 -0.5205 -0.7097
  594MOL0     C80064   9.313   5.492   4.712  0.4820 -0.1152 -0.2002
  594MOL0     C80065   9.453   5.492   4.754  0.2249 -0.9452 -0.3545
  594MOL0     C80066   9.473   5.453   4.904  0.5012  0.5405 -1.3196
  594MOL0     C80067   9.618   5.454   4.953 -0.2259  0.7167 -0.2471
  594MOL0     C80068   9.644   5.426   5.097 -1.8770  1.0613 -0.7434
  594MOL0     C80069   9.595   5.287   5.145  0.4542 -0.8214 -0.3077
  594MOL0     C80070   9.656   5.262   5.279  0.3957  0.0261 -0.2992
  594MOL0     C80071   9.623   5.364   5.392 -0.4954  0.1375 -0.6169
  594MOL0     N80072   9.700   5.325   5.508 -0.4166  0.0124  0.4282
  594MOL0     C80073   9.677   5.212   5.582  0.4846  0.6488 -0.7004
  594MOL0     C80074   9.774   5.210   5.675  0.1251 -0.2313  0.3601
  594MOL0     C80075   9.807   5.102   5.773 -0.0713 -0.5105  0.0650
  594MOL0     C80076   9.858   5.159   5.903  0.1304 -1.1914 -0.2416
  594MOL0     C80077   9.761   5.257   5.967  1.0304  0.6616  0.4344
  594MOL0     C80078   9.800   5.288   6.115  0.1592  0.6089 -0.1569
  594MOL0     O80079   9.804   5.163   6.180 -0.3264  0.1890 -0.4751
  594MOL0     C80080   9.903   5.165   6.278  0.0663  0.7510  0.4303
  594MOL0     C80081   9.964   5.041   6.285 -0.3392 -0.0395  0.6011
  594MOL0     C80082  10.067   5.024   6.385 -0.4497 -0.9012 -0.4615
  594MOL0     C80083  10.098   5.114   6.488 -0.1403 -0.9453 -0.2200
  594MOL0     C80084  10.200   5.080   6.586 -0.3005 -0.1996  0.0894
  594MOL0     O80085  10.277   4.972   6.557  0.3268  0.8321  0.4637
  594MOL0     C80086  10.372   4.947   6.641 -0.2622 -0.0189  1.2646
  594MOL0     C80087  10.507   4.990   6.615  0.7873 -1.3105  0.1575
  594MOL0     C80088  10.601   4.960   6.705  0.2810 -0.3985 -0.4043
  594MOL0     C80089  10.578   4.899   6.828  0.4165 -0.5389 -0.4362
  594MOL0     O80090  10.673   4.881   6.928  0.1149  0.2968  0.7074
  594MOL0     C80091  10.807   4.918   6.901 -0.3399 -0.2574  1.0441
  594MOL0     C80092  10.888   4.779   6.874  0.6454  0.3992  0.4713
  594MOL0     C80093  11.034   4.808   6.844 -1.5361 -0.9508  0.6498
  594MOL0     C80094  11.112   4.677   6.834  0.1514  0.3551  0.3154
  594MOL0     C80095  11.227   4.660   6.927  0.5048  0.4068 -0.5326
  594MOL0     C80096  11.335   4.768   6.918 -0.3814 -0.7776 -0.0058
  594MOL0     C80097  11.446   4.744   7.017 -0.3089 -0.3416 -0.3286
  594MOL0     C80098  11.555   4.851   6.994 -0.5921 -0.1727 -0.4001
  594MOL0    Cl80099  11.675   4.819   7.118  0.0208 -0.1883  0.3372
  594MOL0     C80100  10.444   4.859   6.853 -0.7241  0.2311  0.7911
  594MOL0     C80101  10.347   4.885   6.760  0.5227 -0.0743 -0.2043
  594MOL0     O80102  10.212   5.147   6.690  0.0008  0.4053 -0.7475
  594MOL0     C80103  10.015   5.233   6.480 -0.2997  0.0127 -0.4750
  594MOL0     C80104   9.920   5.257   6.377  0.3577  0.0867 -0.6754
  594MOL0     N80105   9.850   5.317   5.648  0.3401 -0.0375  0.2346
  594MOL0     N80106   9.808   5.389   5.549 -0.7930  0.4895  0.6355
  594MOL0     C80107   9.100   5.262   4.885 -0.0818  0.3491  0.3390
  594MOL0     C80108   8.964   5.232   4.911 -0.1395  0.6945 -0.9111
  594MOL0     C80109   8.493   5.262   4.917  0.1004  0.4876  0.4110
  594MOL0     C80110   8.367   5.280   4.854 -0.5034  0.4518  0.5087
  594MOL0     C80111   8.250   5.238   4.912  0.0243  0.6063 -0.4124
  594MOL0     C80112   8.244   5.174   5.036 -0.2492  0.7112 -0.1879
  594MOL0     O80113   8.121   5.149   5.086  0.1056  0.1532  0.3581
  594MOL0     C80114   8.112   5.051   5.191 -0.1208  0.9712 -0.4121
  594MOL0     C80115   7.970   4.985   5.210  0.6943 -0.0555 -0.1403
  594MOL0     C80116   7.867   5.090   5.204  0.2259  0.5241  0.2922
  594MOL0     C80117   7.739   5.040   5.262  0.0001  0.2730  0.5179
  594MOL0     C80118   7.670   4.966   5.156 -0.1348  0.9800 -0.7485
  594MOL0     C80119   7.606   4.898   5.072  0.8202  0.3111  0.1261
  594MOL0     C80120   8.360   5.139   5.099 -0.9734 -0.1836  1.1345
  594MOL0     C80121   8.490   5.182   5.034  0.1519  0.2946 -0.9758
  594MOL0     C80122   8.618   5.140   5.116  0.0580  0.2741 -0.2527
  594MOL0     H80123   8.823   5.409   4.659 -0.2167 -2.1540 -0.3132
  594MOL0     H80124   9.058   5.476   4.619 -0.0601 -0.7622 -1.7518
  594MOL0     H80125   9.305   5.497   4.603 -1.3160  1.0909 -0.0524
  594MOL0     H80126   9.267   5.585   4.747  1.2774  0.9124 -1.7771
  594MOL0     H80127   9.493   5.592   4.738 -2.2769  0.2245  0.3197
  594MOL0     H80128   9.499   5.413   4.694  3.0739 -1.0356  1.6889
  594MOL0     H80129   9.436   5.357   4.942  3.0046  0.1854  0.5274
  594MOL0     H80130   9.418   5.529   4.960  2.5766  0.8893  0.3745
  594MOL0     H80131   9.676   5.380   4.898 -1.3488  1.5515 -2.7205
  594MOL0     H80132   9.662   5.552   4.932  1.2922  0.4618  1.5205
  594MOL0     H80133   9.751   5.423   5.121 -2.3347 -0.3895  1.3483
  594MOL0     H80134   9.602   5.505   5.159  1.2595  1.5339  0.9712
  594MOL0     H80135   9.485   5.287   5.153  0.4180  0.5372 -0.4377
  594MOL0     H80136   9.631   5.213   5.074  0.5858 -0.3691 -0.7207
  594MOL0     H80137   9.765   5.253   5.270  0.3179 -2.7182  0.6636
  594MOL0     H80138   9.632   5.159   5.307  0.3254 -0.3941 -1.8313
  594MOL0     H80139   9.653   5.462   5.353 -2.6968 -0.1402 -3.2791
  594MOL0     H80140   9.515   5.368   5.405 -0.3566  3.2897  0.4627
  594MOL0     H80141   9.590   5.147   5.578  2.0270 -1.5031 -1.1541
  594MOL0     H80142   9.721   5.036   5.792 -0.3150 -0.0515  0.5608
  594MOL0     H80143   9.897   5.057   5.729  3.3111  2.1029  3.6333
  594MOL0     H80144   9.881   5.087   5.981 -1.0053 -1.4175 -0.1002
  594MOL0     H80145   9.948   5.216   5.879 -0.0942  1.2906  3.8570
  594MOL0     H80146   9.664   5.207   5.965  2.7768 -3.3418  2.4767
  594MOL0     H80147   9.763   5.349   5.909  0.8020  0.4405  0.0791
  594MOL0     H80148   9.736   5.346   6.181  0.2901 -1.4020  1.8397
  594MOL0     H80149   9.899   5.334   6.123  0.7892 -0.9345  1.6901
  594MOL0     H80150   9.942   4.955   6.223  0.9228 -0.8322  1.2246
  594MOL0     H80151  10.119   4.930   6.394 -1.9629 -1.6357  1.2800
  594MOL0     H80152  10.532   5.041   6.522  0.9390 -1.5339  0.0736
  594MOL0     H80153  10.698   5.003   6.684  0.4192  0.8249  2.3175
  594MOL0     H80154  10.819   4.985   6.815 -2.3817 -0.6573  0.3863
  594MOL0     H80155  10.860   4.966   6.984  2.0247 -0.2393 -0.3820
  594MOL0     H80156  10.879   4.716   6.963 -1.3707  2.3508  1.7784
  594MOL0     H80157  10.830   4.726   6.798  0.6438 -2.5104  2.3515
  594MOL0     H80158  11.045   4.861   6.749  3.6458 -3.4840 -0.5777
  594MOL0     H80159  11.079   4.864   6.927  1.6217 -0.9583 -0.8781
  594MOL0     H80160  11.142   4.667   6.729  1.0116  0.0602  0.5841
  594MOL0     H80161  11.043   4.592   6.841  0.5785 -0.1016 -0.7749
  594MOL0     H80162  11.269   4.561   6.905  0.2283 -0.1419  1.2450
  594MOL0     H80163  11.192   4.660   7.030 -0.8335 -0.5480 -0.9533
  594MOL0     H80164  11.383   4.748   6.821 -1.4613  0.6324 -0.8752
  594MOL0     H80165  11.282   4.863   6.924 -0.1793 -0.5561 -1.2802
  594MOL0     H80166  11.476   4.640   6.999  1.8766 -0.6169  3.7362
  594MOL0     H80167  11.419   4.755   7.122 -1.2992 -0.4841 -0.5562
  594MOL0     H80168  11.606   4.849   6.898  0.5041  0.3805  0.1560
  594MOL0     H80169  11.508   4.950   7.007 -0.6599 -0.3990  1.3436
  594MOL0     H80170  10.417   4.818   6.950  1.1062  0.5626  1.5038
  594MOL0     H80171  10.246   4.847   6.769  0.7755 -0.4406  1.4407
  594MOL0     H80172  10.023   5.306   6.560 -0.8526 -1.2196  0.7454
  594MOL0     H80173   9.854   5.343   6.383  2.2011  1.8020 -2.8120
  594MOL0     H80174   9.181   5.217   4.941  0.8845  1.0722 -0.4454
  594MOL0     H80175   8.944   5.161   4.992  0.6826  0.6043 -0.7782
  594MOL0     H80176   8.343   5.342   4.768 -0.2334  0.3090  0.3271
  594MOL0     H80177   8.155   5.264   4.866  1.1470  1.3429 -2.4307
  594MOL0     H80178   8.148   5.096   5.284 -3.7640  1.0002  1.1595
  594MOL0     H80179   8.180   4.969   5.168 -1.6506 -0.7307  0.9057
  594MOL0     H80180   7.973   4.941   5.310  2.2732  0.8366  0.2360
  594MOL0     H80181   7.952   4.903   5.141  0.3192 -0.1807  0.1010
  594MOL0     H80182   7.855   5.129   5.103  0.5757 -0.6252 -0.2058
  594MOL0     H80183   7.895   5.171   5.272  0.0983  2.8547 -2.2906
  594MOL0     H80184   7.753   4.980   5.353 -2.9146 -0.3476  0.6359
  594MOL0     H80185   7.689   5.130   5.298  3.1781  2.0790  0.8070
  594MOL0     H80186   7.540   4.842   5.009  2.8918 -2.7243  0.4239
  594MOL0     H80187   8.364   5.101   5.201 -0.2012 -0.3669  1.0431
  594MOL0     H80188   8.574   5.096   5.205 -3.3597 -0.8164 -2.3242
  594MOL0     H80189   8.682   5.069   5.063 -0.5018  0.9197 -1.8841
  594MOL0     H80190   8.675   5.231   5.138  0.0550  0.2761 -0.2528
  595MOL0     O80191  11.231   6.319   2.917 -0.0780 -0.0604 -0.9700
  595MOL0     C80192  11.134   6.388   2.895 -0.4017 -0.4621 -0.4484
  595MOL0     O80193  11.144   6.517   2.850 -0.0972 -0.2397  0.3485
  595MOL0     C80194  11.264   6.578   2.828  0.1924 -0.0592 -0.1504
  595MOL0     C80195  11.317   6.661   2.931  0.0523  0.4035  1.0550
  595MOL0     C80196  11.438   6.733   2.909 -0.7587 -0.2693  0.4537
  595MOL0     C80197  11.517   6.711   2.796 -0.5925  0.7050  0.2389
  595MOL0     O80198  11.646   6.752   2.773  0.5863 -0.0300 -0.9319
  595MOL0     C80199  11.697   6.850   2.870 -0.0109  0.2021 -0.1320
  595MOL0     C80200  11.835   6.874   2.821  0.7369 -0.6568  0.0341
  595MOL0     C80201  11.923   6.960   2.895 -0.6949 -0.7700 -0.0544
  595MOL0     C80202  12.069   6.907   2.873  0.6387 -0.3461  0.6499
  595MOL0     C80203  12.182   7.011   2.896 -0.3593 -0.2483  0.6296
  595MOL0     C80204  12.319   6.956   2.898  0.3792 -0.4460 -0.3378
  595MOL0     C80205  12.418   7.063   2.891 -0.0923 -0.5834 -0.2982
  595MOL0     C80206  12.570   7.024   2.908  0.2981 -0.8837 -0.4375
  595MOL0     N80207  12.612   6.922   2.806  0.5548 -0.1286  0.7018
  595MOL0     C80208  12.676   6.805   2.826 -0.7571  1.1312  0.0498
  595MOL0     C80209  12.670   6.732   2.706 -0.2762  0.0766  0.4627
  595MOL0     C80210  12.722   6.593   2.669 -0.1773 -0.1174  0.2260
  595MOL0     C80211  12.836   6.616   2.575  0.5793 -0.1741 -0.3802
  595MOL0     C80212  12.962   6.625   2.666  0.5226 -1.1057  0.0701
  595MOL0     C80213  13.079   6.668   2.580 -0.0503  0.2350 -0.2236
  595MOL0     O80214  13.197   6.726   2.656 -1.0932  0.4390 -0.1269
  595MOL0     C80215  13.317   6.734   2.593 -0.0021 -0.2736  0.4073
  595MOL0     C80216  13.335   6.744   2.457 -0.2733  0.5435  0.5795
  595MOL0     C80217  13.468   6.757   2.397 -1.3370  0.4551 -0.0762
  595MOL0     C80218  13.577   6.774   2.480 -0.5993 -0.9907 -0.9259
  595MOL0     C80219  13.710   6.816   2.426 -0.0533  0.4072  0.1664
  595MOL0     O80220  13.707   6.854   2.299  0.5637 -0.2514  0.0844
  595MOL0     C80221  13.822   6.902   2.251 -0.6368  0.7488 -0.3812
  595MOL0     C80222  13.860   6.859   2.116 -0.2286 -0.4465 -0.1627
  595MOL0     C80223  13.965   6.919   2.050 -0.5065  0.1755 -0.0723
  595MOL0     C80224  14.040   7.019   2.108  0.0385  0.0589  0.0016
  595MOL0     O80225  14.138   7.091   2.041 -0.4539  0.0294 -0.0715
  595MOL0     C80226  14.259   7.080   2.117  0.7175  0.6461 -0.4936
  595MOL0     C80227  14.374   7.128   2.026 -1.9550  0.0989  0.1761
  595MOL0     C80228  14.372   7.274   2.038  1.0716 -0.3974 -0.0190
  595MOL0     C80229  14.454   7.338   1.920 -0.0832 -1.0640 -0.8657
  595MOL0     C80230  14.603   7.301   1.944  0.8460  0.4564  0.1157
  595MOL0     C80231  14.696   7.388   1.875 -0.2902 -0.5550  1.1494
  595MOL0     C80232  14.710   7.362   1.724 -0.0643 -0.4961  0.1267
  595MOL0     C80233  14.798   7.472   1.662  0.1895  0.4044 -0.4369
  595MOL0    Cl80234  14.965   7.462   1.726  0.2721  0.4183  0.3405
  595MOL0     C80235  14.000   7.057   2.241 -0.3606 -0.3382  0.4118
  595MOL0     C80236  13.901   7.001   2.316 -0.3237  0.3997  0.1199
  595MOL0     O80237  13.811   6.794   2.493 -0.1831 -0.8116  0.1479
  595MOL0     C80238  13.560   6.760   2.622 -0.1759 -0.1931  0.5752
  595MOL0     C80239  13.432   6.739   2.669 -0.0067  0.7175  0.4112
  595MOL0     N80240  12.615   6.824   2.611  0.2119  0.7794  0.0933
  595MOL0     N80241  12.579   6.932   2.677  0.0280  0.0570 -0.5880
  595MOL0     C80242  11.465   6.621   2.698 -0.2702 -0.2491  0.5376
  595MOL0     C80243  11.338   6.554   2.719 -0.3389 -0.0686  0.2794
  595MOL0     C80244  11.001   6.332   2.903  0.0162  0.8501  0.3832
  595MOL0     C80245  10.899   6.384   2.815  0.4846 -0.5011  0.3169
  595MOL0     C80246  10.770   6.339   2.821 -0.0124  0.1251 -0.4875
  595MOL0     C80247  10.731   6.238   2.905 -0.8686 -0.7964 -0.4299
  595MOL0     O80248  10.600   6.202   2.910  0.0836 -0.3124 -0.1277
  595MOL0     C80249  10.563   6.113   2.800 -0.2430 -0.5520  0.0397
  595MOL0     C80250  10.414   6.130   2.767 -0.1570  0.1376  0.4209
  595MOL0     C80251  10.310   6.068   2.866 -0.4891  0.7632  0.0497
  595MOL0     C80252  10.166   6.108   2.835  0.0635 -0.3719  0.7551
  595MOL0     C80253  10.128   6.082   2.693 -0.8645 -0.4090 -0.0113
  595MOL0     C80254  10.108   6.067   2.570 -0.0606  0.0716  0.3433
  595MOL0     C80255  10.829   6.200   2.993  0.7431 -0.3138 -0.9995
  595MOL0     C80256  10.965   6.236   2.999 -0.2466  0.1568 -0.2970
  595MOL0     C80257  11.039   6.169   3.120  0.7318 -0.5862 -0.4838
  595MOL0     H80258  11.263   6.664   3.025 -3.1644  0.6466 -0.6567
  595MOL0     H80259  11.471   6.801   2.987  1.6861  0.2305 -0.9159
  595MOL0     H80260  11.636   6.940   2.867 -0.8035 -0.3048  0.4577
  595MOL0     H80261  11.698   6.806   2.971 -0.5887  0.5538  0.0277
  595MOL0     H80262  11.837   6.904   2.716  0.6123 -0.0008  0.2200
  595MOL0     H80263  11.881   6.775   2.818 -1.3466 -1.6656 -1.9541
  595MOL0     H80264  11.904   6.961   3.003  1.5291  0.4275  0.3817
  595MOL0     H80265  11.917   7.061   2.854 -0.7278 -1.1560 -1.0191
  595MOL0     H80266  12.074   6.813   2.929  0.9119  0.2206  1.5919
  595MOL0     H80267  12.087   6.888   2.767 -0.0920 -0.8253  0.6058
  595MOL0     H80268  12.179   7.069   2.803 -1.1266 -1.9287 -0.4495
  595MOL0     H80269  12.166   7.076   2.983  3.7964  1.1978  0.5476
  595MOL0     H80270  12.325   6.897   2.990 -0.8998 -2.6463 -1.5833
  595MOL0     H80271  12.334   6.890   2.812 -1.1289 -0.1076 -0.8855
  595MOL0     H80272  12.391   7.133   2.970 -1.3908 -0.0410 -1.1809
  595MOL0     H80273  12.407   7.116   2.796  1.4896  2.2903  0.9939
  595MOL0     H80274  12.632   7.113   2.896 -0.4475 -0.6564 -3.5114
  595MOL0     H80275  12.585   6.984   3.008 -1.4929 -2.5772 -0.7828
  595MOL0     H80276  12.724   6.777   2.919 -1.3227  0.0756  0.0382
  595MOL0     H80277  12.747   6.545   2.764  0.5412  0.7183  0.4758
  595MOL0     H80278  12.652   6.523   2.623 -0.2036  1.3640 -2.1397
  595MOL0     H80279  12.842   6.531   2.507 -2.1398  0.4395 -1.5086
  595MOL0     H80280  12.821   6.704   2.512  0.4825  2.9044  3.5552
  595MOL0     H80281  12.975   6.525   2.708 -0.6259 -1.8888 -1.3641
  595MOL0     H80282  12.956   6.698   2.747  0.7064  1.4545 -2.1014
  595MOL0     H80283  13.051   6.750   2.513 -0.5236 -1.1348 -1.7631
  595MOL0     H80284  13.107   6.579   2.523 -2.7799  0.4359 -2.0841
  595MOL0     H80285  13.240   6.745   2.405 -0.0614 -1.3024  0.0811
  595MOL0     H80286  13.481   6.764   2.290  2.1247  0.3426  0.2375
  595MOL0     H80287  13.797   6.781   2.075  0.6194 -0.6545 -1.0862
  595MOL0     H80288  13.996   6.884   1.952 -2.4382  0.1498 -0.7169
  595MOL0     H80289  14.245   7.145   2.204 -0.0453  0.2449 -0.3111
  595MOL0     H80290  14.279   6.976   2.145  1.7160  1.2380  1.1065
  595MOL0     H80291  14.469   7.094   2.069 -2.3759  1.5077  2.3713
  595MOL0     H80292  14.360   7.102   1.921 -3.3364  1.8722 -0.1232
  595MOL0     H80293  14.274   7.322   2.026  1.0289 -0.3490  0.4760
  595MOL0     H80294  14.403   7.310   2.137 -1.1844 -0.7310  0.8645
  595MOL0     H80295  14.443   7.446   1.934  1.9832 -1.0429  1.2034
  595MOL0     H80296  14.406   7.313   1.825 -3.7295  0.6882  0.3489
  595MOL0     H80297  14.621   7.201   1.902  0.6517  0.9103 -1.0899
  595MOL0     H80298  14.625   7.303   2.051  3.7299  2.8723 -0.3844
  595MOL0     H80299  14.665   7.489   1.902  2.1694 -0.3747  3.8725
  595MOL0     H80300  14.793   7.362   1.919 -0.2027 -1.3745  0.4874
  595MOL0     H80301  14.607   7.364   1.686 -0.6174  0.8563  1.5726
  595MOL0     H80302  14.751   7.265   1.694 -0.0895 -1.0780  1.8896
  595MOL0     H80303  14.816   7.449   1.556  1.0217 -2.2432  0.1980
  595MOL0     H80304  14.757   7.573   1.669 -1.0876  0.0393 -1.9998
  595MOL0     H80305  14.047   7.146   2.281  1.3572 -0.2916 -1.5178
  595MOL0     H80306  13.870   7.040   2.412 -1.3064 -1.8394  0.7929
  595MOL0     H80307  13.643   6.759   2.691 -0.6053  0.1776  1.1028
  595MOL0     H80308  13.424   6.726   2.776  3.5330 -0.5199  0.6283
  595MOL0     H80309  11.526   6.604   2.610  0.6112  0.4745  0.9905
  595MOL0     H80310  11.296   6.483   2.648 -2.3391  1.0056  0.3383
  595MOL0     H80311  10.929   6.453   2.737  0.9378 -2.3724 -1.2402
  595MOL0     H80312  10.703   6.373   2.742  0.4672 -0.7242 -1.2850
  595MOL0     H80313  10.586   6.010   2.830  0.5498  0.2972  2.6037
  595MOL0     H80314  10.618   6.144   2.711 -2.5695 -0.4464 -1.4636
  595MOL0     H80315  10.388   6.078   2.675  0.4032  0.6015 -0.0092
  595MOL0     H80316  10.397   6.237   2.750  2.5834  0.5861  0.0059
  595MOL0     H80317  10.339   6.095   2.968  2.7437 -0.5845 -0.3716
  595MOL0     H80318  10.332   5.962   2.854  2.0960  1.1940  0.2486
  595MOL0     H80319  10.116   6.050   2.913 -1.9535  1.3693  0.8294
  595MOL0     H80320  10.147   6.212   2.864  0.7032 -0.1496  0.3957
  595MOL0     H80321  10.074   6.065   2.469 -1.0209  4.0617  0.4357
  595MOL0     H80322  10.805   6.123   3.066  3.1702  0.9671  1.2897
  595MOL0     H80323  10.985   6.083   3.161  1.9892 -0.0946  2.4313
  595MOL0     H80324  11.140   6.132   3.100  1.2849  1.3149 -1.4361
  595MOL0     H80325  11.050   6.251   3.192 -1.5280  1.3811 -2.1919
  596MOL0     O80326   6.412   8.562   5.529 -0.1450  0.6730  0.7971
  596MOL0     C80327   6.407   8.616   5.635  0.2922  0.7180 -0.0516
  596MOL0     O80328   6.510   8.657   5.708  0.4490 -0.8514 -0.0304
  596MOL0     C80329   6.642   8.638   5.670  0.4429 -0.8393 -0.4224
  596MOL0     C80330   6.700   8.517   5.680  0.1551  0.4817 -0.6262
  596MOL0     C80331   6.837   8.494   5.675  0.0379 -0.1611 -0.2974
  596MOL0     C80332   6.925   8.605   5.659  0.1288  0.0433 -0.1900
  596MOL0     O80333   7.061   8.586   5.634  0.0312  0.3673  0.0647
  596MOL0     C80334   7.128   8.693   5.564 -0.4206  0.7976  0.8870
  596MOL0     C80335   7.264   8.658   5.506 -0.9132  0.4168 -0.1353
  596MOL0     C80336   7.308   8.742   5.384 -0.4500 -0.1096  0.2301
  596MOL0     C80337   7.395   8.855   5.442 -0.7588 -0.1283 -0.8524
  596MOL0     C80338   7.426   8.967   5.350  0.2361 -0.9369  0.3186
  596MOL0     C80339   7.516   9.079   5.409  0.0652  0.0612  0.2228
  596MOL0     C80340   7.531   9.207   5.316  0.0940  0.5436  0.3686
  596MOL0     C80341   7.589   9.181   5.181  1.2380  1.0438 -0.4286
  596MOL0     N80342   7.641   9.298   5.121 -0.1663 -0.0192 -1.0357
  596MOL0     C80343   7.750   9.358   5.174 -0.6166 -0.3295 -0.3894
  596MOL0     C80344   7.761   9.470   5.103  0.1532  1.1665  0.0933
  596MOL0     C80345   7.873   9.568   5.136  0.1978 -0.2710 -0.7683
  596MOL0     C80346   8.010   9.539   5.092  0.0083  0.4067 -0.0184
  596MOL0     C80347   8.024   9.554   4.940  0.4126  0.2961 -0.0073
  596MOL0     C80348   8.174   9.541   4.890  0.5484  1.2882  0.4347
  596MOL0     O80349   8.244   9.653   4.934 -0.8904 -0.2605  0.6831
  596MOL0     C80350   8.385   9.655   4.938 -0.3571  0.1795 -0.2682
  596MOL0     C80351   8.475   9.563   4.882 -0.6766 -0.4588  0.1357
  596MOL0     C80352   8.612   9.582   4.905  1.0876  0.5416 -0.5221
  596MOL0     C80353   8.667   9.680   4.984 -1.1360  0.3008  0.0627
  596MOL0     C80354   8.811   9.698   5.013 -0.4745  0.4677  0.2247
  596MOL0     O80355   8.900   9.622   4.945 -0.2063  0.6817 -0.6600
  596MOL0     C80356   9.029   9.639   4.977 -0.3970  0.0278  0.1344
  596MOL0     C80357   9.077   9.609   5.105 -0.8387 -0.2859 -0.9627
  596MOL0     C80358   9.214   9.605   5.132 -0.1104 -0.7184  0.3672
  596MOL0     C80359   9.307   9.649   5.039 -0.5966  0.0297 -0.1165
  596MOL0     O80360   9.444   9.649   5.052 -0.3222  0.4975 -0.5791
  596MOL0     C80361   9.493   9.675   5.187 -0.5904  0.1164  0.0764
  596MOL0     C80362   9.623   9.737   5.198 -0.4167  0.6139  0.4621
  596MOL0     C80363   9.734   9.644   5.153  0.9918  0.6202 -0.6777
  596MOL0     C80364   9.862   9.733   5.152 -0.6013  0.9607  0.2431
  596MOL0     C80365   9.974   9.660   5.068  0.6907  0.0905 -0.5196
  596MOL0     C80366  10.107   9.723   5.097 -1.1837  0.4703 -0.4597
  596MOL0     C80367  10.197   9.692   4.979 -0.2442  0.7501  0.3450
  596MOL0     C80368  10.333   9.774   4.961  0.0657  0.1704 -0.7302
  596MOL0    Cl80369  10.441   9.676   4.856 -0.1036  0.0705 -0.4440
  596MOL0     C80370   9.261   9.679   4.908  0.6820 -0.1348 -0.6280
  596MOL0     C80371   9.126   9.682   4.886 -0.0067  1.1804 -0.5384
  596MOL0     O80372   8.837   9.784   5.095  0.5196  0.1903  0.5856
  596MOL0     C80373   8.575   9.764   5.055  0.2392  0.5475 -0.1739
  596MOL0     C80374   8.441   9.758   5.018  0.7334  0.7541  0.4938
  596MOL0     N80375   7.662   9.476   5.001 -0.2900 -0.8027 -0.1482
  596MOL0     N80376   7.579   9.378   5.028 -0.5916  0.4586 -0.0630
  596MOL0     C80377   6.859   8.736   5.665  0.4132 -0.2054 -0.8235
  596MOL0     C80378   6.722   8.753   5.682  0.1369  0.2851  0.9876
  596MOL0     C80379   6.277   8.618   5.705  0.9663  0.2423  0.0646
  596MOL0     C80380   6.275   8.649   5.843 -0.6977  0.5267  0.4863
  596MOL0     C80381   6.163   8.615   5.925 -0.3121 -0.3615  0.7324
  596MOL0     C80382   6.053   8.545   5.871 -0.4401  0.0992 -0.0290
  596MOL0     O80383   5.954   8.507   5.958 -0.5241 -0.5148 -0.5645
  596MOL0     C80384   5.834   8.560   5.909 -0.0602  0.4733 -0.3501
  596MOL0     C80385   5.719   8.562   6.012 -0.6389 -0.1451 -0.4086
  596MOL0     C80386   5.737   8.661   6.131 -0.1250  0.1378  0.0468
  596MOL0     C80387   5.671   8.608   6.253  0.2507  0.1633 -0.8839
  596MOL0     C80388   5.540   8.561   6.238  0.2903 -1.0281  0.3674
  596MOL0     C80389   5.430   8.514   6.227  1.1684  0.1022  0.0447
  596MOL0     C80390   6.057   8.515   5.739 -0.3944  0.3099 -0.2697
  596MOL0     C80391   6.164   8.558   5.654 -0.0001 -0.0035  0.0317
  596MOL0     C80392   6.136   8.515   5.511 -0.4612  0.5849  0.1157
  596MOL0     H80393   6.629   8.435   5.685  2.4500 -1.7659 -2.3450
  596MOL0     H80394   6.873   8.392   5.667 -0.9932 -0.5491 -0.0704
  596MOL0     H80395   7.068   8.732   5.481 -1.6432 -1.7021  0.4882
  596MOL0     H80396   7.151   8.773   5.635 -1.2351  1.3286  0.5708
  596MOL0     H80397   7.265   8.555   5.471 -1.3383  0.4901 -0.3851
  596MOL0     H80398   7.339   8.656   5.585 -0.8962 -1.4248 -0.1538
  596MOL0     H80399   7.218   8.772   5.330 -0.9227 -3.1034 -0.8689
  596MOL0     H80400   7.363   8.680   5.311 -1.5303 -2.5096  1.3425
  596MOL0     H80401   7.349   8.890   5.535 -2.6463  0.2820 -1.8913
  596MOL0     H80402   7.496   8.820   5.469  1.8916  6.3663 -0.4892
  596MOL0     H80403   7.487   8.919   5.273  2.1854 -0.3474  1.4163
  596MOL0     H80404   7.339   9.016   5.305 -0.5964 -2.0253  0.7208
  596MOL0     H80405   7.477   9.116   5.504  0.0117  0.4977  0.0317
  596MOL0     H80406   7.615   9.038   5.430  0.7807  2.5021  2.0295
  596MOL0     H80407   7.608   9.271   5.358 -0.6886  1.1971  0.8370
  596MOL0     H80408   7.442   9.271   5.314 -0.7124 -0.3915 -3.4074
  596MOL0     H80409   7.660   9.098   5.183 -0.5997 -0.5841  1.2235
  596MOL0     H80410   7.512   9.142   5.114  0.3848  1.3975  0.3289
  596MOL0     H80411   7.827   9.329   5.246  0.5448  0.6037 -1.2142
  596MOL0     H80412   7.846   9.664   5.092 -0.9339  0.3218  1.1014
  596MOL0     H80413   7.882   9.595   5.241  0.0425  0.7224 -1.0008
  596MOL0     H80414   8.081   9.592   5.155 -0.3482 -2.3279  2.9147
  596MOL0     H80415   8.032   9.435   5.120 -3.1546  0.2631  2.5362
  596MOL0     H80416   8.006   9.658   4.912  2.2703  0.7542  0.3439
  596MOL0     H80417   7.953   9.493   4.884  2.0345 -1.1640 -0.5580
  596MOL0     H80418   8.182   9.514   4.784  1.1481  1.1600  0.5075
  596MOL0     H80419   8.220   9.452   4.936  1.6659  1.0673 -1.0226
  596MOL0     H80420   8.450   9.477   4.822  2.9128  0.8154 -3.6589
  596MOL0     H80421   8.678   9.514   4.853  1.3743  1.6451 -1.6612
  596MOL0     H80422   9.013   9.582   5.189  0.2968 -0.9887 -0.2979
  596MOL0     H80423   9.251   9.578   5.230  0.1387  0.4928  0.6298
  596MOL0     H80424   9.428   9.737   5.249  0.0066 -0.0140  0.8416
  596MOL0     H80425   9.497   9.578   5.237  3.6414 -0.2744 -0.7040
  596MOL0     H80426   9.626   9.827   5.137  1.2363  1.2435  1.4229
  596MOL0     H80427   9.654   9.767   5.298  1.3417  1.3677 -0.2864
  596MOL0     H80428   9.755   9.563   5.224  2.8473  0.4721 -1.3534
  596MOL0     H80429   9.703   9.612   5.053 -1.0106  1.4229 -0.3674
  596MOL0     H80430   9.896   9.743   5.255 -0.8059 -0.1541  0.4368
  596MOL0     H80431   9.844   9.833   5.111  1.3017  1.1608 -0.1654
  596MOL0     H80432   9.955   9.671   4.961  0.2895  1.5903 -0.3107
  596MOL0     H80433   9.974   9.555   5.098 -0.3680  0.8554  2.5241
  596MOL0     H80434  10.102   9.832   5.101  1.0222  0.5984  2.1106
  596MOL0     H80435  10.149   9.695   5.194  2.7801 -0.7188 -2.2972
  596MOL0     H80436  10.138   9.693   4.887 -0.5836 -2.6560  0.3951
  596MOL0     H80437  10.221   9.587   4.998 -0.1844  0.5105 -0.9752
  596MOL0     H80438  10.303   9.871   4.919 -1.3464  0.3095  0.4990
  596MOL0     H80439  10.378   9.793   5.059  1.5277 -1.2461 -1.0831
  596MOL0     H80440   9.335   9.710   4.834  1.0915 -1.6293 -0.8846
  596MOL0     H80441   9.091   9.709   4.787  0.9504  1.0762 -0.9153
  596MOL0     H80442   8.605   9.853   5.108 -1.6666 -0.6071  3.1313
  596MOL0     H80443   8.371   9.832   5.056 -0.0448 -0.2233  1.0362
  596MOL0     H80444   6.910   8.830   5.648 -0.6898  0.4475 -0.6054
  596MOL0     H80445   6.671   8.849   5.678 -0.3778  0.1364  2.9741
  596MOL0     H80446   6.360   8.700   5.887 -2.3642  1.2644  3.0818
  596MOL0     H80447   6.152   8.649   6.028  0.9003 -1.2392  1.1798
  596MOL0     H80448   5.804   8.498   5.824  2.3876  0.7563 -1.5210
  596MOL0     H80449   5.851   8.660   5.867  1.5031  0.1667 -0.5173
  596MOL0     H80450   5.709   8.461   6.052 -1.5541  0.5410  1.2018
  596MOL0     H80451   5.623   8.584   5.964  0.3660  0.3104 -2.2803
  596MOL0     H80452   5.700   8.761   6.106  0.3851 -0.2924 -2.8355
  596MOL0     H80453   5.846   8.665   6.144  0.0221 -2.6628  0.2854
  596MOL0     H80454   5.740   8.527   6.275  0.8167  0.5885 -1.0792
  596MOL0     H80455   5.666   8.678   6.337  0.8733  0.4975 -1.1186
  596MOL0     H80456   5.332   8.472   6.213  0.7909  0.6289  1.0662
  596MOL0     H80457   5.976   8.468   5.683  0.9830 -2.8517  0.1920
  596MOL0     H80458   6.029   8.535   5.504 -0.2502  2.4900  1.6492
  596MOL0     H80459   6.185   8.586   5.444 -0.4426 -0.2467 -0.7892
  596MOL0     H80460   6.167   8.414   5.483  0.4787  0.2678  2.1084
  597MOL0     O80461   3.664   4.951   2.911 -0.0636  0.2347 -0.6327
  597MOL0     C80462   3.559   4.976   2.856  0.4925 -0.0269 -0.0304
  597MOL0     O80463   3.538   5.065   2.750 -0.0770 -0.5524 -0.6544
  597MOL0     C80464   3.637   5.157   2.719 -0.2354 -0.2602  0.4124
  597MOL0     C80465   3.713   5.220   2.809  0.2134  0.5108  0.1064
  597MOL0     C80466   3.808   5.313   2.762  0.1450 -0.9192  0.2052
  597MOL0     C80467   3.832   5.344   2.629 -0.8648 -0.2223 -0.0397
  597MOL0     O80468   3.924   5.452   2.596  0.2432 -0.5551  0.4971
  597MOL0     C80469   3.993   5.428   2.473 -0.0595  0.1625  0.5075
  597MOL0     C80470   4.104   5.524   2.440  0.6120  0.1075  1.2394
  597MOL0     C80471   4.223   5.528   2.541 -0.7216  0.5526 -0.0655
  597MOL0     C80472   4.319   5.653   2.511 -0.6411 -0.0056 -0.2431
  597MOL0     C80473   4.463   5.646   2.567  0.1541  0.3890  0.6276
  597MOL0     C80474   4.524   5.779   2.597  0.0329 -0.1525  0.1929
  597MOL0     C80475   4.549   5.860   2.471 -0.4000  0.6766  0.1317
  597MOL0     C80476   4.590   6.009   2.505  0.0275 -0.6549  0.9066
  597MOL0     N80477   4.717   6.016   2.573  0.2534 -0.0623 -0.0299
  597MOL0     C80478   4.841   5.989   2.523  0.4341 -0.4249  0.4579
  597MOL0     C80479   4.931   5.997   2.632 -0.4486 -0.5896 -0.0601
  597MOL0     C80480   5.078   5.998   2.629 -0.0743 -0.2915  0.0033
  597MOL0     C80481   5.142   6.112   2.556  0.5813  0.5036 -0.2639
  597MOL0     C80482   5.113   6.238   2.638 -0.6899 -0.7241  0.4014
  597MOL0     C80483   5.221   6.347   2.603 -0.4831 -0.4234 -0.1720
  597MOL0     O80484   5.350   6.290   2.643  0.4376  0.0069  0.0261
  597MOL0     C80485   5.468   6.357   2.618  0.4484  0.5996  0.6149
  597MOL0     C80486   5.463   6.495   2.594 -1.1899  0.5056 -0.0998
  597MOL0     C80487   5.582   6.559   2.556  1.0244 -0.0307 -0.9034
  597MOL0     C80488   5.708   6.492   2.554 -0.4583 -0.4737  0.5988
  597MOL0     C80489   5.837   6.564   2.524  0.1628 -0.0252 -1.1077
  597MOL0     O80490   5.952   6.489   2.512  0.2714 -0.2119  0.3456
  597MOL0     C80491   6.060   6.547   2.457 -0.1163 -0.0275  0.0127
  597MOL0     C80492   6.167   6.609   2.529  0.8505 -0.4433 -0.2119
  597MOL0     C80493   6.275   6.666   2.461  0.3700 -1.0730  0.6661
  597MOL0     C80494   6.286   6.678   2.316  0.4017 -0.4680 -0.4414
  597MOL0     O80495   6.357   6.763   2.234  0.6524  0.2789  0.0585
  597MOL0     C80496   6.465   6.836   2.300 -0.0374 -0.7375 -0.1952
  597MOL0     C80497   6.497   6.940   2.196 -0.1874 -0.0372  0.9122
  597MOL0     C80498   6.643   7.007   2.212  0.1649  0.8919 -0.1282
  597MOL0     C80499   6.701   7.026   2.359  0.2890 -0.3464  0.0438
  597MOL0     C80500   6.856   7.031   2.355 -0.3361  0.1542 -0.5008
  597MOL0     C80501   6.917   7.022   2.500  0.1755 -0.3647 -0.0674
  597MOL0     C80502   6.880   7.141   2.588 -0.2478  0.2293  0.1025
  597MOL0     C80503   6.872   7.281   2.514 -0.2039 -0.3436  0.7954
  597MOL0    Cl80504   7.015   7.331   2.422 -0.1002 -0.2535 -0.3318
  597MOL0     C80505   6.185   6.614   2.255  0.1333 -0.8266  0.1986
  597MOL0     C80506   6.075   6.552   2.318  0.2362 -0.6004 -0.5214
  597MOL0     O80507   5.829   6.683   2.511 -0.3211 -0.2555  0.0510
  597MOL0     C80508   5.706   6.352   2.583 -0.4985 -0.3451 -0.7783
  597MOL0     C80509   5.583   6.287   2.606 -0.0214  0.5913  0.4644
  597MOL0     N80510   4.844   6.007   2.739 -0.6163  0.4694 -0.3791
  597MOL0     N80511   4.725   6.032   2.707 -0.5638 -0.3764  0.4852
  597MOL0     C80512   3.745   5.284   2.537  0.5280 -0.5722  0.6363
  597MOL0     C80513   3.656   5.187   2.582 -0.3819  0.3859  0.1802
  597MOL0     C80514   3.433   4.907   2.893  0.4494  0.4156  0.4681
  597MOL0     C80515   3.326   4.895   2.802 -0.6531 -0.6881 -0.1008
  597MOL0     C80516   3.198   4.841   2.830  0.1390 -0.8141  0.6222
  597MOL0     C80517   3.175   4.777   2.951 -0.2403 -0.3180  0.1445
  597MOL0     O80518   3.052   4.708   2.955 -0.3671  0.4380 -0.3566
  597MOL0     C80519   3.020   4.634   3.079  0.8481 -0.7966  0.2083
  597MOL0     C80520   2.901   4.719   3.141 -0.1264  0.5016 -0.2059
  597MOL0     C80521   2.895   4.696   3.293 -0.3518  0.3695 -0.3559
  597MOL0     C80522   2.800   4.777   3.375 -1.2788 -0.0620 -0.4333
  597MOL0     C80523   2.663   4.766   3.317  0.1341  0.0089 -0.3196
  597MOL0     C80524   2.548   4.764   3.269 -0.4490  0.0299 -0.1149
  597MOL0     C80525   3.274   4.782   3.050 -0.4887 -0.6953 -0.4951
  597MOL0     C80526   3.399   4.844   3.017  0.4462 -0.1747 -0.0545
  597MOL0     C80527   3.503   4.857   3.122 -0.1054 -0.2313  0.5171
  597MOL0     H80528   3.673   5.229   2.909  1.3458 -1.1000  0.7507
  597MOL0     H80529   3.865   5.373   2.832 -0.0421 -0.3053 -0.1600
  597MOL0     H80530   4.042   5.330   2.470 -0.5227 -0.0797  0.9675
  597MOL0     H80531   3.927   5.432   2.386  0.3036 -3.0374 -0.0359
  597MOL0     H80532   4.057   5.623   2.444  0.6187  0.4618 -2.8193
  597MOL0     H80533   4.138   5.518   2.336  1.4393 -0.3946  1.5277
  597MOL0     H80534   4.272   5.430   2.538 -2.3943 -0.3553  0.9527
  597MOL0     H80535   4.195   5.538   2.646  1.8989  3.6956  0.4834
  597MOL0     H80536   4.329   5.655   2.402 -0.3751 -1.7692 -0.2769
  597MOL0     H80537   4.265   5.742   2.546 -1.0352  0.1583 -1.2375
  597MOL0     H80538   4.463   5.574   2.649 -3.6634  0.5866  1.0176
  597MOL0     H80539   4.526   5.599   2.491  1.9078  2.1713  0.9015
  597MOL0     H80540   4.470   5.840   2.670  0.7107 -0.8937  1.3539
  597MOL0     H80541   4.619   5.755   2.646 -1.1835 -0.0135  2.7537
  597MOL0     H80542   4.463   5.861   2.403  2.0807  0.3413 -3.2547
  597MOL0     H80543   4.630   5.817   2.412 -1.8830 -3.3621  0.7424
  597MOL0     H80544   4.615   6.068   2.416  0.9805 -1.6652  0.4857
  597MOL0     H80545   4.512   6.048   2.571 -0.8199 -0.6083 -0.0976
  597MOL0     H80546   4.867   5.966   2.421  1.8576 -2.3320  1.1859
  597MOL0     H80547   5.117   6.000   2.731  0.3311 -1.5346 -0.1061
  597MOL0     H80548   5.123   5.905   2.591  3.4315  0.1937  2.5347
  597MOL0     H80549   5.250   6.096   2.543  0.4676  1.3618 -2.8087
  597MOL0     H80550   5.102   6.125   2.456 -0.3660  0.2336  0.0708
  597MOL0     H80551   5.129   6.232   2.746 -0.6922  2.5830  0.6845
  597MOL0     H80552   5.015   6.278   2.612 -0.9325  0.3926  2.8117
  597MOL0     H80553   5.190   6.433   2.664 -2.0962  0.2909 -1.9071
  597MOL0     H80554   5.219   6.374   2.497  0.0876  0.5483  0.0589
  597MOL0     H80555   5.375   6.558   2.593 -0.6820  1.2516  0.5244
  597MOL0     H80556   5.571   6.662   2.522  1.4081  0.1742 -0.4259
  597MOL0     H80557   6.173   6.611   2.637  1.5450 -1.7017 -0.2055
  597MOL0     H80558   6.354   6.703   2.525  0.0631  0.8559  0.0159
  597MOL0     H80559   6.419   6.898   2.378  2.8627  2.9089 -1.1181
  597MOL0     H80560   6.541   6.773   2.347  1.8439  1.7560  0.3173
  597MOL0     H80561   6.498   6.891   2.099  3.3145  1.4201  0.0448
  597MOL0     H80562   6.422   7.020   2.193  1.8194  1.8988 -0.8400
  597MOL0     H80563   6.712   6.945   2.154  0.9660  4.1676 -2.9987
  597MOL0     H80564   6.630   7.104   2.164 -0.4365  0.3291 -1.1313
  597MOL0     H80565   6.663   6.949   2.427  0.2517  1.2583  1.9051
  597MOL0     H80566   6.656   7.115   2.405  0.2733 -0.7754  0.8776
  597MOL0     H80567   6.879   7.127   2.308 -0.0754  1.1655  1.5778
  597MOL0     H80568   6.903   6.947   2.302  2.1208 -0.1329  1.9252
  597MOL0     H80569   6.879   6.931   2.546 -1.8441  0.7473  0.5644
  597MOL0     H80570   7.026   7.028   2.489  0.2654  0.0558  0.9776
  597MOL0     H80571   6.944   7.131   2.676 -0.5108 -0.5378  0.2105
  597MOL0     H80572   6.778   7.129   2.624 -0.4277 -0.7233 -0.6732
  597MOL0     H80573   6.782   7.297   2.454 -0.3461  2.6653  1.6567
  597MOL0     H80574   6.874   7.357   2.593  2.9595  1.1002 -0.4794
  597MOL0     H80575   6.188   6.613   2.147 -0.8077  1.5396  0.0974
  597MOL0     H80576   5.993   6.501   2.269  0.5133 -1.8292  0.2454
  597MOL0     H80577   5.803   6.304   2.577 -0.8238 -0.9955 -0.9264
  597MOL0     H80578   5.572   6.180   2.620 -2.6141  0.6405 -0.5256
  597MOL0     H80579   3.742   5.312   2.432 -0.3634  0.3775  0.8900
  597MOL0     H80580   3.590   5.138   2.511  0.6571 -2.5395  1.0878
  597MOL0     H80581   3.337   4.939   2.703 -3.1692  2.2957  0.7602
  597MOL0     H80582   3.134   4.829   2.743 -0.2608  1.1348  0.6092
  597MOL0     H80583   3.105   4.624   3.146  0.5829  2.9063  1.3826
  597MOL0     H80584   2.988   4.534   3.051  1.7034 -1.4134  1.3784
  597MOL0     H80585   2.811   4.683   3.090  1.4831 -0.5109 -2.4924
  597MOL0     H80586   2.916   4.825   3.119  0.7952  0.1264 -1.4923
  597MOL0     H80587   2.995   4.699   3.336 -0.2128 -3.1586 -0.1559
  597MOL0     H80588   2.866   4.591   3.305 -0.0937  0.4618  1.2062
  597MOL0     H80589   2.806   4.742   3.479  0.3386  0.2491 -0.3930
  597MOL0     H80590   2.836   4.879   3.361  1.0612 -0.9407 -1.4183
  597MOL0     H80591   2.449   4.763   3.230 -0.2114 -0.7056 -0.7293
  597MOL0     H80592   3.255   4.749   3.152 -0.7049 -0.9577 -0.6199
  597MOL0     H80593   3.516   4.965   3.133  0.6916 -0.3672  0.9588
  597MOL0     H80594   3.474   4.816   3.219 -2.7125 -0.9111 -0.4495
  597MOL0     H80595   3.594   4.807   3.088  1.0987  2.0052  0.2934
  598MOL0     O80596  10.745   4.999   0.794  0.1692  0.4748  0.3103
  598MOL0     C80597  10.708   5.081   0.875 -0.1065  0.3177  0.6046
  598MOL0     O80598  10.752   5.207   0.876  0.2859 -1.3874  0.7741
  598MOL0     C80599  10.841   5.252   0.777 -0.0265 -0.2113 -0.2820
  598MOL0     C80600  10.973   5.237   0.809 -0.5595  1.2781  0.1356
  598MOL0     C80601  11.071   5.283   0.716  0.8530 -0.2102  0.4906
  598MOL0     C80602  11.039   5.351   0.605 -0.2991 -0.5289  0.0649
  598MOL0     O80603  11.129   5.394   0.514  0.4487 -0.4765 -0.7880
  598MOL0     C80604  11.252   5.444   0.567 -0.1711 -0.2136  0.5427
  598MOL0     C80605  11.327   5.531   0.457  0.3043 -0.3915 -0.4213
  598MOL0     C80606  11.449   5.603   0.514 -0.0469 -0.1789 -0.2011
  598MOL0     C80607  11.513   5.709   0.413  0.4590  1.2816 -0.6842
  598MOL0     C80608  11.593   5.658   0.290  0.2373  0.8680 -0.1316
  598MOL0     C80609  11.726   5.601   0.338 -0.1854 -0.0121  0.2567
  598MOL0     C80610  11.807   5.555   0.213 -0.8381  0.4384  0.2152
  598MOL0     C80611  11.936   5.635   0.173  0.0824 -0.1810  0.3460
  598MOL0     N80612  11.907   5.772   0.117 -0.0501 -0.1832 -0.5687
  598MOL0     C80613  11.989   5.880   0.141 -0.5115  0.4157 -0.4727
  598MOL0     C80614  11.960   5.967   0.045  0.3106  0.4770 -0.0449
  598MOL0     C80615  12.028   6.100   0.012 -0.4251 -0.4956 -0.0585
  598MOL0     C80616  12.167   6.086  -0.052 -0.2959 -0.2652 -0.4185
  598MOL0     C80617  12.234   6.218  -0.086 -0.8992 -0.0648  0.0083
  598MOL0     C80618  12.383   6.203  -0.140 -0.2130 -0.0278 -0.5059
  598MOL0     O80619  12.471   6.147  -0.034  0.5077  0.6855  0.2962
  598MOL0     C80620  12.607   6.148  -0.060 -0.8856  0.3847  0.1854
  598MOL0     C80621  12.665   6.103  -0.178  0.2772  0.7838 -0.5164
  598MOL0     C80622  12.798   6.126  -0.197 -0.3275  0.3633  0.5060
  598MOL0     C80623  12.893   6.173  -0.103  0.3530  0.4189  0.1331
  598MOL0     C80624  13.033   6.191  -0.141 -0.3704  0.1438  0.6381
  598MOL0     O80625  13.112   6.260  -0.047  0.2576  0.5766  0.4435
  598MOL0     C80626  13.248   6.248  -0.051  0.0554 -0.4873  0.2920
  598MOL0     C80627  13.319   6.133  -0.093 -0.2612  0.0582 -0.0584
  598MOL0     C80628  13.461   6.138  -0.098 -0.7414 -0.0737 -0.3339
  598MOL0     C80629  13.528   6.251  -0.051 -0.6073  0.3381 -0.1197
  598MOL0     O80630  13.661   6.266  -0.060 -0.0689 -0.4854 -0.0837
  598MOL0     C80631  13.726   6.372  -0.125  0.9348  0.3240  1.0079
  598MOL0     C80632  13.866   6.332  -0.168  1.0840  0.9511 -0.6435
  598MOL0     C80633  13.932   6.454  -0.225 -0.6462 -0.9791 -0.2957
  598MOL0     C80634  14.083   6.436  -0.263  0.2500 -0.1955 -0.8401
  598MOL0     C80635  14.135   6.563  -0.337  0.2646 -0.1421 -0.6037
  598MOL0     C80636  14.284   6.553  -0.364 -0.1805  1.1220 -0.2208
  598MOL0     C80637  14.358   6.684  -0.398 -0.7421 -0.0774  0.3106
  598MOL0     C80638  14.512   6.654  -0.402 -0.1755 -0.9341  0.5117
  598MOL0    Cl80639  14.588   6.767  -0.523  0.0686 -0.0949  0.1135
  598MOL0     C80640  13.457   6.359   0.008  0.8032  0.2747  0.1897
  598MOL0     C80641  13.312   6.354   0.009  0.0695 -0.2633  0.7212
  598MOL0     O80642  13.078   6.143  -0.249 -0.7250  0.5054  0.9584
  598MOL0     C80643  12.829   6.204   0.021  0.2629 -1.2137 -0.3327
  598MOL0     C80644  12.691   6.188   0.044  0.0523 -0.5857 -0.1548
  598MOL0     N80645  11.864   5.916  -0.035  0.1864  0.5770 -0.2213
  598MOL0     N80646  11.832   5.807   0.009  0.2084  0.3219 -0.0927
  598MOL0     C80647  10.903   5.361   0.573  0.8152 -0.3035 -0.2846
  598MOL0     C80648  10.802   5.320   0.661 -0.7239  0.9235  0.1658
  598MOL0     C80649  10.604   5.039   0.977 -0.2589  0.1273 -0.3966
  598MOL0     C80650  10.565   5.131   1.077 -1.2368 -0.2512 -0.0002
  598MOL0     C80651  10.466   5.111   1.175  0.5188  0.2712 -0.1705
  598MOL0     C80652  10.392   4.998   1.168 -0.2163  0.0608  0.4500
  598MOL0     O80653  10.286   4.971   1.257 -0.2014  0.5801  0.6292
  598MOL0     C80654  10.216   5.076   1.317  0.6035  0.2226 -0.4453
  598MOL0     C80655  10.086   5.011   1.373 -1.2672 -0.8165  0.6306
  598MOL0     C80656   9.994   5.120   1.421 -0.6247 -1.2892 -0.3651
  598MOL0     C80657   9.855   5.071   1.460 -0.3022 -1.1526  0.4138
  598MOL0     C80658   9.761   5.028   1.344 -0.5896 -0.2818 -0.7619
  598MOL0     C80659   9.699   4.998   1.250 -0.1529  0.2495 -0.1199
  598MOL0     C80660  10.438   4.894   1.083  0.5988 -0.0876  0.2473
  598MOL0     C80661  10.539   4.911   0.988  0.4454 -0.3408 -0.0535
  598MOL0     C80662  10.583   4.789   0.918 -0.2572  0.3499 -0.3596
  598MOL0     H80663  11.009   5.201   0.906 -2.9705 -0.0856  0.5891
  598MOL0     H80664  11.174   5.283   0.752  0.6608 -0.9426  1.0508
  598MOL0     H80665  11.240   5.499   0.661 -0.9736 -0.7962  0.7967
  598MOL0     H80666  11.309   5.351   0.583  2.1649  1.1609  0.6923
  598MOL0     H80667  11.256   5.602   0.416  0.0291 -1.3042 -1.5891
  598MOL0     H80668  11.355   5.468   0.372  1.4443  1.1514 -1.2423
  598MOL0     H80669  11.531   5.538   0.546 -1.8066 -2.4802 -0.0953
  598MOL0     H80670  11.410   5.662   0.597 -0.6790 -0.3335 -0.3786
  598MOL0     H80671  11.432   5.777   0.385 -1.2665 -0.4528 -0.2214
  598MOL0     H80672  11.577   5.778   0.468 -0.1051 -1.2520  3.6242
  598MOL0     H80673  11.524   5.586   0.244  1.7706 -1.0315  0.3652
  598MOL0     H80674  11.615   5.750   0.236  1.3609  2.4202  2.7584
  598MOL0     H80675  11.781   5.677   0.396 -1.7598  2.6794 -1.5284
  598MOL0     H80676  11.701   5.514   0.399  1.3672 -2.5833 -2.5074
  598MOL0     H80677  11.753   5.557   0.118 -1.8399  2.3217  0.7687
  598MOL0     H80678  11.835   5.451   0.231 -3.7290 -0.6557 -0.9392
  598MOL0     H80679  12.006   5.648   0.257  1.4100 -0.6637 -0.6598
  598MOL0     H80680  11.986   5.584   0.091  0.5353  0.5328  0.1618
  598MOL0     H80681  12.066   5.882   0.216 -2.2883  0.8171  1.4279
  598MOL0     H80682  11.969   6.148  -0.067 -0.2722 -1.2898 -0.6718
  598MOL0     H80683  12.036   6.165   0.100  3.6192 -2.8370  1.6190
  598MOL0     H80684  12.231   6.021   0.009  0.2002  2.1370  1.7849
  598MOL0     H80685  12.155   6.041  -0.151 -0.1191 -1.2618 -0.0025
  598MOL0     H80686  12.238   6.259   0.015  0.7964 -1.7800  0.7008
  598MOL0     H80687  12.172   6.275  -0.156 -1.1735  0.3706  0.6015
  598MOL0     H80688  12.415   6.294  -0.191  1.9710 -1.4599 -1.8482
  598MOL0     H80689  12.378   6.125  -0.216 -2.9660 -0.8274  0.3568
  598MOL0     H80690  12.607   6.058  -0.257  1.0722 -2.3151  0.5231
  598MOL0     H80691  12.841   6.113  -0.295  0.3245  0.5206  0.7663
  598MOL0     H80692  13.279   6.038  -0.128  2.0648 -0.8219 -0.4689
  598MOL0     H80693  13.528   6.063  -0.139 -0.8394 -1.3395  1.6666
  598MOL0     H80694  13.657   6.405  -0.203 -2.1971  3.0247  4.5367
  598MOL0     H80695  13.730   6.462  -0.063  3.1975  0.0992  1.2752
  598MOL0     H80696  13.921   6.290  -0.083 -0.1439  1.5581  0.4786
  598MOL0     H80697  13.843   6.257  -0.244  0.9945 -1.3612  1.5055
  598MOL0     H80698  13.872   6.482  -0.312 -1.0572 -0.3910  0.1701
  598MOL0     H80699  13.929   6.534  -0.151  1.4600  0.5506 -1.7452
  598MOL0     H80700  14.079   6.342  -0.319 -1.5031 -1.1719  0.8273
  598MOL0     H80701  14.139   6.412  -0.172  0.5120  0.8041 -0.7301
  598MOL0     H80702  14.106   6.652  -0.280 -2.1174  0.1377 -2.1579
  598MOL0     H80703  14.083   6.567  -0.433 -1.3426 -3.3358 -0.0040
  598MOL0     H80704  14.323   6.498  -0.278 -0.8910  0.0071 -0.5876
  598MOL0     H80705  14.291   6.490  -0.454  2.5713  0.3229  0.4527
  598MOL0     H80706  14.337   6.765  -0.328 -1.8902 -0.4835  0.4506
  598MOL0     H80707  14.322   6.714  -0.497 -0.5514 -1.6335 -0.2531
  598MOL0     H80708  14.568   6.659  -0.308  2.3079 -1.5119 -0.8564
  598MOL0     H80709  14.525   6.548  -0.427 -1.4302 -0.6094 -1.7229
  598MOL0     H80710  13.518   6.440   0.046  2.4997 -0.8716  0.0185
  598MOL0     H80711  13.248   6.426   0.060 -1.6178  0.7478 -2.4589
  598MOL0     H80712  12.885   6.242   0.107 -2.3000 -0.5946  1.1542
  598MOL0     H80713  12.646   6.217   0.139  1.4700 -3.8421  1.6760
  598MOL0     H80714  10.879   5.429   0.491 -0.5430 -0.1704  0.2033
  598MOL0     H80715  10.697   5.337   0.638  0.0174  4.5929 -1.2130
  598MOL0     H80716  10.629   5.218   1.079 -1.6283  0.1233 -1.6834
  598MOL0     H80717  10.453   5.185   1.253  0.5257  0.2046 -0.1069
  598MOL0     H80718  10.188   5.148   1.239 -0.5163  0.3666  0.0666
  598MOL0     H80719  10.275   5.129   1.392  1.5032 -0.4651 -0.6450
  598MOL0     H80720  10.119   4.941   1.450  3.6870  2.8339  2.3757
  598MOL0     H80721  10.047   4.967   1.281 -0.0103  1.7315 -1.2775
  598MOL0     H80722   9.992   5.186   1.333  3.9034  0.2661  0.4356
  598MOL0     H80723  10.036   5.176   1.505  3.2029 -0.9221 -2.2712
  598MOL0     H80724   9.854   4.984   1.526 -2.3196  0.2753  2.4262
  598MOL0     H80725   9.809   5.150   1.520 -1.2660 -2.1265  0.9925
  598MOL0     H80726   9.632   4.965   1.174 -3.7561 -0.4025  3.0596
  598MOL0     H80727  10.397   4.796   1.104  1.3080 -0.0471  1.9656
  598MOL0     H80728  10.687   4.806   0.888 -0.8749  3.0816 -1.1971
  598MOL0     H80729  10.582   4.711   0.995 -0.5505  1.3940  0.7252
  598MOL0     H80730  10.525   4.758   0.830 -1.4915 -4.1403  1.7201
  599MOL0     O80731   4.367   7.945   6.539 -0.6155  0.3234  0.2191
  599MOL0     C80732   4.386   7.834   6.483 -0.5757  0.3542 -1.4186
  599MOL0     O80733   4.283   7.757   6.433  0.0338  0.6330  0.5402
  599MOL0     C80734   4.155   7.795   6.436  0.2205 -0.1651  0.4361
  599MOL0     C80735   4.085   7.828   6.556 -1.1723  0.4013 -0.1585
  599MOL0     C80736   3.944   7.852   6.562 -0.7125  0.1882 -0.1049
  599MOL0     C80737   3.871   7.852   6.445 -0.2278 -0.8121  0.7464
  599MOL0     O80738   3.739   7.880   6.458  0.9001 -0.2542  0.9236
  599MOL0     C80739   3.670   7.951   6.344  0.1698 -0.8806 -0.2003
  599MOL0     C80740   3.720   8.089   6.335 -0.0547 -0.7610  0.1123
  599MOL0     C80741   3.602   8.167   6.262  0.1995  0.0632  0.1082
  599MOL0     C80742   3.551   8.098   6.135 -0.3494 -1.0143 -0.2902
  599MOL0     C80743   3.442   8.178   6.070  1.0656 -1.4308 -0.3588
  599MOL0     C80744   3.404   8.109   5.945  0.3763  0.5073 -0.8090
  599MOL0     C80745   3.283   8.161   5.861  0.3203  0.2149 -0.7395
  599MOL0     C80746   3.147   8.184   5.945 -0.0488  0.1795  0.4888
  599MOL0     N80747   3.104   8.054   6.000  0.5100 -0.1198  0.7194
  599MOL0     C80748   3.132   7.995   6.119 -0.2989 -0.0111 -0.7460
  599MOL0     C80749   3.077   7.875   6.103 -0.7994 -0.4539 -0.4939
  599MOL0     C80750   3.098   7.770   6.196  0.0310  0.6066 -0.9751
  599MOL0     C80751   3.217   7.681   6.170  0.2570  0.5323 -0.5336
  599MOL0     C80752   3.346   7.758   6.164  0.6022  0.5257 -0.8133
  599MOL0     C80753   3.468   7.661   6.164 -0.3996 -0.8620  0.4181
  599MOL0     O80754   3.460   7.557   6.260 -1.1500  0.2291 -0.0108
  599MOL0     C80755   3.580   7.509   6.317  0.0384  0.4474  0.3085
  599MOL0     C80756   3.560   7.439   6.438 -0.5161  0.0790  0.8413
  599MOL0     C80757   3.662   7.412   6.525 -0.7129  0.3030 -0.1832
  599MOL0     C80758   3.794   7.453   6.483 -0.0535 -0.5111  0.7811
  599MOL0     C80759   3.909   7.434   6.563 -0.5114  0.4111 -0.0944
  599MOL0     O80760   4.029   7.485   6.508  0.6382  0.6869  0.1793
  599MOL0     C80761   4.145   7.428   6.558 -0.9711 -0.6140 -0.0707
  599MOL0     C80762   4.223   7.488   6.663  0.4393  0.2226 -0.0769
  599MOL0     C80763   4.332   7.428   6.713 -0.0284  0.3797  0.1188
  599MOL0     C80764   4.382   7.302   6.667  0.6803  0.1124  0.6311
  599MOL0     O80765   4.490   7.234   6.723 -0.2328  0.3883 -0.2631
  599MOL0     C80766   4.490   7.229   6.867 -0.3269 -0.1042  0.1326
  599MOL0     C80767   4.596   7.132   6.916 -0.4029  0.8146  0.2484
  599MOL0     C80768   4.736   7.198   6.927  0.2780 -0.0385 -0.2460
  599MOL0     C80769   4.854   7.109   6.949 -0.7790  0.1825 -0.4554
  599MOL0     C80770   4.997   7.183   6.978  0.6204  0.3636  0.8923
  599MOL0     C80771   5.021   7.230   7.124 -0.4465  0.9125 -0.0993
  599MOL0     C80772   5.152   7.304   7.137 -0.2088  0.2030  0.5304
  599MOL0     C80773   5.193   7.280   7.280 -0.1973  0.6041  0.0141
  599MOL0    Cl80774   5.339   7.379   7.313  0.0695  0.2737 -0.4394
  599MOL0     C80775   4.315   7.245   6.549 -0.2543  0.4923 -0.5681
  599MOL0     C80776   4.199   7.307   6.505  0.9350  0.2344  0.4700
  599MOL0     O80777   3.903   7.370   6.670 -0.5218 -0.4181  0.1626
  599MOL0     C80778   3.812   7.518   6.359  1.2370 -1.4513 -1.2783
  599MOL0     C80779   3.710   7.549   6.285  0.3042  0.5619  0.7163
  599MOL0     N80780   3.010   7.866   5.987  0.1374 -0.5453  0.2054
  599MOL0     N80781   3.020   7.975   5.929 -0.1788  0.3490 -0.1754
  599MOL0     C80782   3.940   7.830   6.323  0.4816  0.4463 -0.3919
  599MOL0     C80783   4.077   7.792   6.318 -0.0895 -0.4520  0.0584
  599MOL0     C80784   4.523   7.790   6.462 -0.1246  0.0503 -0.3667
  599MOL0     C80785   4.582   7.772   6.336  0.5603  0.3006 -0.4198
  599MOL0     C80786   4.717   7.736   6.317  0.2284  0.3798 -0.1598
  599MOL0     C80787   4.799   7.710   6.430  0.2518  0.5764  0.6490
  599MOL0     O80788   4.928   7.670   6.433  0.1662 -0.5231  0.2333
  599MOL0     C80789   4.995   7.638   6.313  0.8087 -0.2841  0.2431
  599MOL0     C80790   4.948   7.501   6.270  0.1293 -0.3861  0.3209
  599MOL0     C80791   5.026   7.438   6.158  0.3718 -0.0138  0.6816
  599MOL0     C80792   5.013   7.530   6.033  0.4557  0.6414  0.5513
  599MOL0     C80793   4.871   7.524   5.987 -0.3459 -0.2838 -0.7713
  599MOL0     C80794   4.762   7.527   5.934  0.6857  0.1280 -0.4737
  599MOL0     C80795   4.742   7.711   6.550  0.6132 -0.7011 -1.8127
  599MOL0     C80796   4.601   7.751   6.579  0.4171 -1.0536  0.5941
  599MOL0     C80797   4.561   7.762   6.724  0.8305  0.1122  0.0114
  599MOL0     H80798   4.142   7.833   6.648 -0.1652 -1.0260 -0.6675
  599MOL0     H80799   3.892   7.866   6.656 -3.1142  0.4861 -1.4076
  599MOL0     H80800   3.682   7.903   6.246 -0.7897 -0.6058 -0.4650
  599MOL0     H80801   3.564   7.946   6.370 -0.3639  0.2927 -1.9569
  599MOL0     H80802   3.815   8.103   6.283 -0.1400  4.9012  0.9039
  599MOL0     H80803   3.733   8.131   6.434  1.3398 -0.4340 -0.1917
  599MOL0     H80804   3.628   8.272   6.245 -0.9551  0.4096  0.4115
  599MOL0     H80805   3.521   8.177   6.334 -1.7289 -2.5531 -1.5411
  599MOL0     H80806   3.633   8.072   6.067 -0.2451 -0.8677 -0.2213
  599MOL0     H80807   3.507   8.000   6.158  1.7459 -2.0385 -0.4130
  599MOL0     H80808   3.347   8.195   6.122  1.0510  3.6178 -1.5283
  599MOL0     H80809   3.492   8.270   6.041  1.3524 -2.1540 -2.3301
  599MOL0     H80810   3.493   8.109   5.882  0.1831  1.9257 -1.1161
  599MOL0     H80811   3.383   8.004   5.966 -4.9032  1.0718 -1.9710
  599MOL0     H80812   3.256   8.082   5.790 -2.1810  1.3142 -1.0976
  599MOL0     H80813   3.304   8.252   5.804 -0.4246  1.8185  1.4449
  599MOL0     H80814   3.151   8.260   6.023 -0.1579  0.1407  0.5322
  599MOL0     H80815   3.063   8.217   5.883 -2.4272 -1.1395  2.7754
  599MOL0     H80816   3.190   8.035   6.201  0.4214  0.2078 -1.3576
  599MOL0     H80817   3.097   7.797   6.302 -0.3641  0.1329 -0.8509
  599MOL0     H80818   3.007   7.709   6.187  1.1976 -1.5182  0.5965
  599MOL0     H80819   3.230   7.611   6.254  2.9308  1.3920 -0.1346
  599MOL0     H80820   3.200   7.613   6.086  4.4093 -0.0865 -1.1066
  599MOL0     H80821   3.346   7.821   6.254  1.8722  0.3360 -0.6648
  599MOL0     H80822   3.339   7.824   6.077 -0.6625  0.4669 -0.7656
  599MOL0     H80823   3.549   7.732   6.186 -1.9281  1.1823 -0.2591
  599MOL0     H80824   3.484   7.619   6.064  2.0815  0.8128  0.0042
  599MOL0     H80825   3.462   7.398   6.459 -0.2340 -1.7401 -1.0306
  599MOL0     H80826   3.644   7.381   6.627 -1.6482  1.7633  0.1182
  599MOL0     H80827   4.181   7.577   6.709  0.6314  0.6893 -0.7812
  599MOL0     H80828   4.384   7.470   6.799 -0.4595 -2.5880  1.9751
  599MOL0     H80829   4.524   7.327   6.904 -1.7127  1.1804 -1.7684
  599MOL0     H80830   4.389   7.206   6.903 -0.9858  0.0223 -1.5707
  599MOL0     H80831   4.566   7.087   7.011 -0.5755 -0.4543 -0.3766
  599MOL0     H80832   4.600   7.047   6.847  0.4606  0.4107  0.7761
  599MOL0     H80833   4.771   7.267   6.849  2.0811 -1.9709 -1.2736
  599MOL0     H80834   4.717   7.266   7.011 -2.4390  0.6785 -1.3398
  599MOL0     H80835   4.865   7.057   6.854 -2.4052 -1.2687  0.1039
  599MOL0     H80836   4.834   7.037   7.029 -2.1912 -0.0064 -0.9415
  599MOL0     H80837   5.018   7.270   6.915  2.7663  0.9016  2.2699
  599MOL0     H80838   5.080   7.117   6.952  0.4279  0.6900 -0.6282
  599MOL0     H80839   4.938   7.286   7.168  0.5666  2.0341  0.4674
  599MOL0     H80840   5.018   7.146   7.194 -0.7966  0.8488 -0.1860
  599MOL0     H80841   5.135   7.410   7.115 -1.2358 -0.7736 -5.1130
  599MOL0     H80842   5.226   7.258   7.070  0.8156  0.4473  1.4633
  599MOL0     H80843   5.108   7.323   7.334 -1.5746 -1.5543 -0.2885
  599MOL0     H80844   5.213   7.175   7.303 -1.4609 -0.1883 -2.1835
  599MOL0     H80845   4.338   7.156   6.491  1.9907 -1.4515  2.9483
  599MOL0     H80846   4.137   7.268   6.425 -0.6590  1.9327  0.8133
  599MOL0     H80847   3.907   7.564   6.333  0.9066 -0.8093 -1.3807
  599MOL0     H80848   3.727   7.602   6.192  0.9935 -0.2530  0.3765
  599MOL0     H80849   3.894   7.833   6.224  1.6041  0.6097 -0.9276
  599MOL0     H80850   4.118   7.765   6.220 -1.5191 -0.4432 -0.5612
  599MOL0     H80851   4.508   7.780   6.257 -0.3130  0.4030  0.3946
  599MOL0     H80852   4.759   7.723   6.218 -0.4589 -0.1691 -0.3869
  599MOL0     H80853   5.103   7.619   6.321  1.4306  0.9551 -3.3428
  599MOL0     H80854   4.990   7.716   6.236  0.1699 -1.9112 -1.4265
  599MOL0     H80855   4.840   7.503   6.256 -0.1810  0.8182  2.3861
  599MOL0     H80856   4.953   7.432   6.355 -0.0162  0.9601  1.4807
  599MOL0     H80857   4.982   7.339   6.146  0.9580 -0.2007 -0.0089
  599MOL0     H80858   5.129   7.411   6.182  0.9749  2.1630  0.8254
  599MOL0     H80859   5.039   7.636   6.044 -0.3074  0.8603  0.3010
  599MOL0     H80860   5.077   7.490   5.953 -0.2299 -0.2332  0.4287
  599MOL0     H80861   4.658   7.534   5.907  0.1069  2.8507  1.9126
  599MOL0     H80862   4.804   7.704   6.639  1.1128  0.6361 -2.0379
  599MOL0     H80863   4.606   7.857   6.755 -2.4530  1.5717  0.7740
  599MOL0     H80864   4.453   7.776   6.742  1.1230  0.6645  1.4553
  599MOL0     H80865   4.611   7.688   6.786  2.4626  0.7916 -0.4406
  600MOL0     O80866   3.681  11.266   4.638 -0.1982  0.8868 -0.9385
  600MOL0     C80867   3.584  11.197   4.616 -0.3411  0.4451 -0.3956
  600MOL0     O80868   3.585  11.057   4.619  0.4424  0.2225  0.6304
  600MOL0     C80869   3.697  10.975   4.620  0.1492  0.3693 -0.4739
  600MOL0     C80870   3.822  11.024   4.585 -0.5056 -0.3296 -0.5645
  600MOL0     C80871   3.926  10.945   4.580  0.6618  0.7324  0.5611
  600MOL0     C80872   3.909  10.811   4.593 -0.3075 -0.1424 -0.8434
  600MOL0     O80873   4.027  10.742   4.595 -0.9541  0.3503 -0.1924
  600MOL0     C80874   4.034  10.613   4.544  0.9713 -0.1352  1.0409
  600MOL0     C80875   4.023  10.617   4.386 -0.7862  0.5399 -0.4559
  600MOL0     C80876   4.046  10.476   4.323 -0.3247 -0.1001 -0.4481
  600MOL0     C80877   4.021  10.475   4.175  0.1404 -0.1956 -0.6239
  600MOL0     C80878   4.080  10.591   4.096  0.6900  1.0328 -0.0076
  600MOL0     C80879   4.085  10.551   3.951  0.7334  1.0109  0.1549
  600MOL0     C80880   4.112  10.665   3.855  0.4816  0.5618  0.4680
  600MOL0     C80881   4.128  10.621   3.705  0.1568 -0.3674  0.6256
  600MOL0     N80882   4.257  10.547   3.674 -0.2132 -0.4129 -0.2765
  600MOL0     C80883   4.375  10.611   3.658  0.3634 -0.0159 -0.6434
  600MOL0     C80884   4.462  10.511   3.633 -0.0980  0.3154  0.2303
  600MOL0     C80885   4.606  10.524   3.602 -0.7869 -0.4416 -0.5449
  600MOL0     C80886   4.699  10.572   3.718  0.4217  0.0712  0.0555
  600MOL0     C80887   4.853  10.545   3.695  0.9496 -0.4238  0.1005
  600MOL0     C80888   4.939  10.660   3.758  1.0138 -0.2176 -0.2640
  600MOL0     O80889   5.016  10.732   3.657  0.8519  1.1439 -0.5720
  600MOL0     C80890   5.151  10.713   3.651  0.2942 -0.1336 -0.4669
  600MOL0     C80891   5.229  10.614   3.713  0.2999  0.1244 -0.4247
  600MOL0     C80892   5.368  10.622   3.707  0.4716 -0.6251 -0.3469
  600MOL0     C80893   5.436  10.715   3.629  0.0734 -0.0262  1.1962
  600MOL0     C80894   5.577  10.721   3.631  0.5485  0.2500 -0.0815
  600MOL0     O80895   5.629  10.843   3.621  0.3255 -0.7171  0.5145
  600MOL0     C80896   5.742  10.839   3.538  0.4967 -0.0849 -0.1650
  600MOL0     C80897   5.877  10.800   3.579  0.1370 -0.2323 -0.7142
  600MOL0     C80898   5.982  10.796   3.492  0.9926  0.3361  0.5976
  600MOL0     C80899   5.965  10.855   3.365 -0.7637  0.1521  0.1271
  600MOL0     O80900   6.075  10.858   3.288 -0.6314  0.3215 -0.4416
  600MOL0     C80901   6.099  10.968   3.201 -0.3929 -0.9819  0.0982
  600MOL0     C80902   6.252  10.999   3.205  0.2249  0.4602  0.1468
  600MOL0     C80903   6.347  10.887   3.168 -0.0227 -0.1437 -1.4310
  600MOL0     C80904   6.494  10.936   3.175  0.3635  0.4184  0.1613
  600MOL0     C80905   6.593  10.828   3.116 -0.3508 -0.2401 -0.0434
  600MOL0     C80906   6.740  10.871   3.147  0.0537 -0.1454 -0.3387
  600MOL0     C80907   6.831  10.754   3.125  0.6557 -0.9816  0.5797
  600MOL0     C80908   6.978  10.778   3.079  0.5726 -0.0944 -0.2089
  600MOL0    Cl80909   7.078  10.654   3.167  0.2171 -0.0585  0.2182
  600MOL0     C80910   5.836  10.905   3.331 -0.2831  0.0987  0.3678
  600MOL0     C80911   5.728  10.888   3.414 -1.3105 -0.3185 -0.1105
  600MOL0     O80912   5.639  10.619   3.652  0.0362 -0.4057 -0.0774
  600MOL0     C80913   5.360  10.813   3.568 -0.1895 -0.3270 -0.0563
  600MOL0     C80914   5.222  10.812   3.578 -0.0090  1.1272  0.5684
  600MOL0     N80915   4.390  10.396   3.636 -0.0741 -0.1931  0.7346
  600MOL0     N80916   4.270  10.416   3.650 -0.6937 -0.1656 -0.2866
  600MOL0     C80917   3.789  10.753   4.624  0.5378 -0.0066 -0.0054
  600MOL0     C80918   3.683  10.841   4.642 -0.3347  0.6418  0.1025
  600MOL0     C80919   3.450  11.264   4.627  0.8044 -0.6354 -0.8071
  600MOL0     C80920   3.338  11.186   4.625 -0.1494 -0.0662  0.3488
  600MOL0     C80921   3.211  11.247   4.620 -0.0780 -0.4078 -0.2568
  600MOL0     C80922   3.207  11.384   4.640  0.2130  0.2883 -0.4111
  600MOL0     O80923   3.091  11.460   4.637  0.1685  0.5632 -0.2121
  600MOL0     C80924   2.972  11.399   4.676  0.8078  0.6089 -1.2568
  600MOL0     C80925   2.875  11.505   4.720  0.6418  0.0040  0.2462
  600MOL0     C80926   2.759  11.439   4.801  0.2175 -0.4530  0.4165
  600MOL0     C80927   2.647  11.538   4.831 -0.6585  0.7009 -0.1308
  600MOL0     C80928   2.687  11.631   4.938  0.9716  0.4476 -0.1549
  600MOL0     C80929   2.720  11.713   5.023  0.9582 -0.0439 -0.6623
  600MOL0     C80930   3.322  11.464   4.655 -0.7009 -0.6877 -0.1343
  600MOL0     C80931   3.442  11.403   4.647 -0.1421  0.4969 -0.8401
  600MOL0     C80932   3.555  11.498   4.670  0.4422  0.2100  0.4071
  600MOL0     H80933   3.851  11.127   4.562  0.5166  0.2684  2.9013
  600MOL0     H80934   4.022  10.984   4.548 -0.2614  1.1179 -1.8931
  600MOL0     H80935   4.130  10.569   4.572  0.7508 -1.8018 -0.5655
  600MOL0     H80936   3.948  10.557   4.583  1.2931 -0.7479  0.8864
  600MOL0     H80937   4.099  10.692   4.362 -1.9529  1.8510 -0.1397
  600MOL0     H80938   3.924  10.657   4.361 -0.5111  0.8114 -1.1549
  600MOL0     H80939   3.989  10.397   4.372 -0.1430 -0.4104 -0.7387
  600MOL0     H80940   4.150  10.444   4.329 -0.6610 -1.3233 -0.8504
  600MOL0     H80941   4.063  10.377   4.149 -3.7218 -2.5108  0.9701
  600MOL0     H80942   3.916  10.476   4.146  0.3801 -0.5484 -1.5608
  600MOL0     H80943   4.013  10.676   4.113  0.9511  1.2581 -0.0912
  600MOL0     H80944   4.184  10.611   4.126  1.1374  1.3165 -1.6287
  600MOL0     H80945   4.164  10.476   3.944  0.5506  0.7675  0.6489
  600MOL0     H80946   3.993  10.506   3.914 -0.8712  0.6576  4.0461
  600MOL0     H80947   4.201  10.722   3.885  0.6474  0.3940  0.2965
  600MOL0     H80948   4.022  10.728   3.861  0.4099  0.6035 -0.7994
  600MOL0     H80949   4.044  10.554   3.684 -0.1833  0.5289 -1.0271
  600MOL0     H80950   4.121  10.706   3.636 -1.6655  0.7653  2.0746
  600MOL0     H80951   4.400  10.715   3.675  2.8142 -0.8299  1.1740
  600MOL0     H80952   4.641  10.429   3.560 -2.4316 -1.0455 -0.6524
  600MOL0     H80953   4.609  10.590   3.516 -2.7385 -1.0702 -1.1445
  600MOL0     H80954   4.683  10.679   3.731 -0.4544 -0.0959  0.3774
  600MOL0     H80955   4.665  10.526   3.811 -2.5132  0.3387 -0.8067
  600MOL0     H80956   4.871  10.543   3.587 -1.5553 -0.6955 -0.3703
  600MOL0     H80957   4.875  10.450   3.744 -2.2440 -2.3143 -1.7865
  600MOL0     H80958   4.994  10.614   3.841 -2.7707 -0.5491  2.2635
  600MOL0     H80959   4.872  10.733   3.804  1.2341 -1.3166  1.9289
  600MOL0     H80960   5.179  10.539   3.773 -2.7795 -0.4879 -3.4448
  600MOL0     H80961   5.412  10.550   3.776 -1.8234 -1.0308  0.7890
  600MOL0     H80962   5.886  10.766   3.682 -0.4378  1.2945 -0.1195
  600MOL0     H80963   6.078  10.752   3.517  0.3322 -1.1331  0.6202
  600MOL0     H80964   6.074  10.948   3.097 -0.8013 -0.1661  0.0378
  600MOL0     H80965   6.032  11.049   3.227  1.9671  0.7880  1.0682
  600MOL0     H80966   6.282  11.086   3.147  1.8171 -1.5538 -2.2191
  600MOL0     H80967   6.264  11.035   3.308 -0.1538 -1.3994  0.8854
  600MOL0     H80968   6.332  10.803   3.237  1.6297  1.8063  1.5119
  600MOL0     H80969   6.335  10.851   3.065  3.0497 -0.0229 -1.9407
  600MOL0     H80970   6.526  10.958   3.277 -0.5807  1.5246  0.2383
  600MOL0     H80971   6.506  11.030   3.121  0.1772 -0.5847 -1.7036
  600MOL0     H80972   6.586  10.814   3.008  1.5159 -2.3516  0.0079
  600MOL0     H80973   6.577  10.729   3.161 -0.2295 -0.7584 -1.1046
  600MOL0     H80974   6.751  10.958   3.081  0.9201  0.7316  0.9166
  600MOL0     H80975   6.747  10.902   3.251 -2.9267 -0.8048  0.1571
  600MOL0     H80976   6.793  10.692   3.043  0.1767  0.2744 -0.1720
  600MOL0     H80977   6.843  10.696   3.217  1.7282  0.7290  1.5778
  600MOL0     H80978   6.990  10.775   2.970  1.0918  2.6349 -0.2986
  600MOL0     H80979   6.999  10.883   3.100 -2.7821  0.5672  0.3954
  600MOL0     H80980   5.814  10.929   3.227  0.8285  0.7912  0.2802
  600MOL0     H80981   5.636  10.936   3.381 -0.6191  2.3249  1.4638
  600MOL0     H80982   5.422  10.877   3.506  3.4410 -4.5603 -1.3867
  600MOL0     H80983   5.157  10.879   3.522  0.5325  1.9364  0.8913
  600MOL0     H80984   3.774  10.646   4.634  2.2984 -0.0955  2.9825
  600MOL0     H80985   3.591  10.786   4.657  0.4237 -0.9750 -0.9286
  600MOL0     H80986   3.345  11.079   4.607  1.8602  0.4268 -2.5901
  600MOL0     H80987   3.132  11.177   4.592  2.5610 -2.5171 -3.1357
  600MOL0     H80988   2.993  11.342   4.767  0.7306  0.3979 -1.3721
  600MOL0     H80989   2.936  11.327   4.602  0.2249 -1.3717  0.8187
  600MOL0     H80990   2.845  11.559   4.629  0.2069 -0.1598  0.2904
  600MOL0     H80991   2.928  11.578   4.782 -0.4884  2.0420 -1.0488
  600MOL0     H80992   2.804  11.412   4.897 -1.1834 -2.1751  0.6451
  600MOL0     H80993   2.722  11.346   4.757  0.5953 -0.0956 -0.6729
  600MOL0     H80994   2.621  11.595   4.741  0.6196  3.1307  0.9257
  600MOL0     H80995   2.557  11.478   4.840 -0.4375  0.2763 -0.6807
  600MOL0     H80996   2.736  11.774   5.109 -0.0930 -0.3545 -0.2285
  600MOL0     H80997   3.316  11.571   4.671  1.4443 -0.8581  2.4574
  600MOL0     H80998   3.509  11.591   4.704 -0.8994 -1.0857  2.3869
  600MOL0     H80999   3.634  11.463   4.737  1.0822  0.3284 -0.2827
  600MOL0     H81000   3.598  11.514   4.571 -0.0746  2.3653  0.4761
  601MOL0     O81001  11.160   6.802   2.160 -0.6016  0.0037 -0.0496
  601MOL0     C81002  11.082   6.885   2.108 -0.1795 -0.0107  0.6110
  601MOL0     O81003  11.114   6.995   2.039 -0.3759  1.0649  0.3006
  601MOL0     C81004  11.251   7.030   2.046 -0.2109  0.0515  0.4361
  601MOL0     C81005  11.303   7.084   2.165  0.1474 -0.5218 -0.0198
  601MOL0     C81006  11.438   7.090   2.184 -0.7468  0.3612  0.0511
  601MOL0     C81007  11.529   7.059   2.082  0.6446 -0.4168  0.3369
  601MOL0     O81008  11.663   7.060   2.094 -0.1122  0.2478  0.0091
  601MOL0     C81009  11.722   7.154   2.190 -0.2770  0.5220  0.4120
  601MOL0     C81010  11.861   7.217   2.156 -0.0522  0.9504 -1.2100
  601MOL0     C81011  11.863   7.290   2.026 -0.7931  0.5668  0.2379
  601MOL0     C81012  11.997   7.362   2.006 -0.8554 -0.2031  0.1458
  601MOL0     C81013  12.008   7.419   1.860 -0.1260 -0.4979 -0.9357
  601MOL0     C81014  12.131   7.517   1.840 -0.5879 -0.1508 -0.8825
  601MOL0     C81015  12.127   7.596   1.703 -0.2618  0.2302 -0.1028
  601MOL0     C81016  12.228   7.702   1.700  0.3073  0.2290  1.2783
  601MOL0     N81017  12.272   7.736   1.565  0.5766  0.0170 -0.1859
  601MOL0     C81018  12.241   7.853   1.510  0.5101 -0.5611  0.4466
  601MOL0     C81019  12.254   7.851   1.376 -0.4494  0.3738  0.1323
  601MOL0     C81020  12.236   7.971   1.288 -0.0095 -0.7538  0.0798
  601MOL0     C81021  12.350   8.068   1.308  0.4328 -0.8666  0.0804
  601MOL0     C81022  12.359   8.175   1.194 -0.3749  0.7345  0.0102
  601MOL0     C81023  12.296   8.303   1.241 -0.5303 -0.5237 -0.7570
  601MOL0     O81024  12.353   8.349   1.366 -0.0307  0.5706 -0.4003
  601MOL0     C81025  12.461   8.435   1.349 -0.9836 -0.6078  0.7605
  601MOL0     C81026  12.590   8.381   1.334 -0.6632 -0.3255 -0.6025
  601MOL0     C81027  12.696   8.474   1.296  0.6048  0.8303 -0.2665
  601MOL0     C81028  12.678   8.610   1.279  0.2103 -0.0311  0.5586
  601MOL0     C81029  12.799   8.696   1.241  0.1780  0.1222 -0.3357
  601MOL0     O81030  12.915   8.622   1.205  0.1791 -0.0413 -0.4207
  601MOL0     C81031  13.040   8.684   1.216  0.7435 -0.0790 -0.3031
  601MOL0     C81032  13.083   8.807   1.270 -0.3414  0.0320 -0.1913
  601MOL0     C81033  13.218   8.839   1.281 -0.1871  0.3878 -0.0149
  601MOL0     C81034  13.318   8.751   1.223 -1.2405  0.2747 -0.9729
  601MOL0     O81035  13.458   8.749   1.243  1.2468 -0.2351  0.0881
  601MOL0     C81036  13.514   8.861   1.317 -1.0764 -0.3281  0.2596
  601MOL0     C81037  13.668   8.856   1.316  0.2330  0.3845  0.3601
  601MOL0     C81038  13.729   8.918   1.195  0.3694  0.6562  0.4607
  601MOL0     C81039  13.879   8.917   1.206 -0.5858  0.5897 -0.4127
  601MOL0     C81040  13.944   8.955   1.074  0.3100 -0.1433 -0.1383
  601MOL0     C81041  13.954   8.852   0.961 -0.0106 -0.3062 -0.1500
  601MOL0     C81042  13.923   8.909   0.818  0.7192 -0.4385 -0.4290
  601MOL0     C81043  13.767   8.906   0.812  0.5666 -0.4362  0.3761
  601MOL0    Cl81044  13.714   8.957   0.649 -0.3554 -0.1018  0.6621
  601MOL0     C81045  13.276   8.640   1.155  0.2638 -0.0839  0.2850
  601MOL0     C81046  13.139   8.607   1.152  0.3066  0.3150 -0.8036
  601MOL0     O81047  12.781   8.820   1.236 -0.0569 -0.1978  0.3563
  601MOL0     C81048  12.545   8.659   1.299 -0.1580  0.4126  0.2187
  601MOL0     C81049  12.442   8.573   1.328 -0.2729 -0.8730  0.3270
  601MOL0     N81050  12.314   7.717   1.351  0.4009 -0.6258  0.1250
  601MOL0     N81051  12.314   7.651   1.469 -0.3315 -1.1092  0.3476
  601MOL0     C81052  11.474   7.017   1.958  0.0679  0.5188 -1.0023
  601MOL0     C81053  11.340   7.004   1.945  0.0351  0.2496  0.2929
  601MOL0     C81054  10.940   6.859   2.122  0.2533 -1.1177  0.5108
  601MOL0     C81055  10.851   6.964   2.082  0.0319 -0.4681  0.8889
  601MOL0     C81056  10.714   6.947   2.098  0.5350  0.1708 -0.1510
  601MOL0     C81057  10.659   6.834   2.154 -0.6875 -0.2629 -1.1055
  601MOL0     O81058  10.527   6.832   2.167 -0.8045 -0.8642  0.1237
  601MOL0     C81059  10.482   6.838   2.305  0.3927 -0.2199  0.4395
  601MOL0     C81060  10.370   6.944   2.321 -0.3367  0.2338  0.3016
  601MOL0     C81061  10.400   7.091   2.274  0.1046  0.5208 -0.6290
  601MOL0     C81062  10.275   7.181   2.289 -0.5098  0.2519 -0.6129
  601MOL0     C81063  10.261   7.224   2.428 -0.0766 -0.4843  0.3154
  601MOL0     C81064  10.231   7.264   2.534 -0.4419  0.1035  0.2998
  601MOL0     C81065  10.743   6.727   2.195 -0.3079  0.1199 -0.2395
  601MOL0     C81066  10.879   6.734   2.177 -0.6666 -0.6039  0.9902
  601MOL0     C81067  10.946   6.607   2.225 -0.2363 -0.1013 -0.5646
  601MOL0     H81068  11.244   7.112   2.251 -1.6320 -1.0298 -1.0282
  601MOL0     H81069  11.477   7.121   2.280  0.5996 -1.4192  0.1261
  601MOL0     H81070  11.656   7.241   2.196  0.7037  1.3455 -0.3003
  601MOL0     H81071  11.742   7.109   2.287  0.2125 -3.6755 -1.4490
  601MOL0     H81072  11.933   7.137   2.172 -2.0987 -0.5974  0.9550
  601MOL0     H81073  11.881   7.294   2.231 -3.2498  1.3431 -0.6202
  601MOL0     H81074  11.771   7.349   2.032 -2.3405 -1.8604  2.4302
  601MOL0     H81075  11.840   7.220   1.945  0.8935  0.1871  0.0405
  601MOL0     H81076  12.010   7.448   2.072  1.3682 -0.9785  0.7900
  601MOL0     H81077  12.074   7.289   2.033 -1.4171 -1.1865 -0.7905
  601MOL0     H81078  12.009   7.337   1.786 -2.8055 -0.7679 -0.8011
  601MOL0     H81079  11.909   7.459   1.834 -2.2882 -1.9386  3.9429
  601MOL0     H81080  12.134   7.589   1.922  1.4281  0.4166 -1.3899
  601MOL0     H81081  12.222   7.456   1.847  0.4959  1.3866 -1.0811
  601MOL0     H81082  12.038   7.658   1.690  0.2649  0.9817 -0.1507
  601MOL0     H81083  12.133   7.531   1.615 -0.1428 -0.1977  0.2138
  601MOL0     H81084  12.196   7.786   1.763 -0.3798 -0.0990  1.3709
  601MOL0     H81085  12.320   7.672   1.752  2.1446  1.7607 -0.8794
  601MOL0     H81086  12.203   7.943   1.557 -0.0895 -1.2407  1.2955
  601MOL0     H81087  12.241   7.930   1.187  1.0054 -1.1404  0.2728
  601MOL0     H81088  12.144   8.027   1.304  0.1467 -0.1336 -1.0571
  601MOL0     H81089  12.345   8.120   1.404  1.0955  0.0052 -0.3367
  601MOL0     H81090  12.446   8.016   1.311 -1.3362 -4.9918 -3.5941
  601MOL0     H81091  12.318   8.140   1.099 -1.0151  0.9174  0.2119
  601MOL0     H81092  12.467   8.186   1.181 -0.4517  1.8283  0.1792
  601MOL0     H81093  12.191   8.277   1.259 -0.0981 -2.4365 -0.7409
  601MOL0     H81094  12.295   8.375   1.159  0.7405  1.5001  0.8838
  601MOL0     H81095  12.614   8.276   1.322  2.3923  0.5417 -3.7799
  601MOL0     H81096  12.797   8.438   1.284  1.5560  3.1974  0.0800
  601MOL0     H81097  13.004   8.854   1.327  1.2608 -0.0110  2.1782
  601MOL0     H81098  13.252   8.932   1.327  1.0793  0.5207 -1.1798
  601MOL0     H81099  13.481   8.961   1.285 -0.2688  0.1703  0.9498
  601MOL0     H81100  13.484   8.851   1.421  0.6196 -1.2182  0.6967
  601MOL0     H81101  13.700   8.912   1.405 -0.0323  1.3117 -0.1216
  601MOL0     H81102  13.700   8.751   1.322  1.5575  0.5315 -2.5051
  601MOL0     H81103  13.698   8.873   1.101 -0.9830 -0.2355  1.2905
  601MOL0     H81104  13.702   9.024   1.182  1.3205  1.0320  1.3483
  601MOL0     H81105  13.922   8.824   1.243  3.7078  1.7542 -1.9018
  601MOL0     H81106  13.907   8.992   1.280  0.6485 -0.2007 -0.0456
  601MOL0     H81107  14.034   9.015   1.090 -1.6166  2.6697  1.0086
  601MOL0     H81108  13.878   9.029   1.026  0.8553  0.7156  0.4276
  601MOL0     H81109  14.054   8.806   0.963  0.5965  0.9955  0.4640
  601MOL0     H81110  13.880   8.777   0.990  1.1646 -1.4338  0.0868
  601MOL0     H81111  13.973   8.842   0.748  1.2726 -1.4803  0.9309
  601MOL0     H81112  13.964   9.010   0.805 -1.7745  0.6685 -0.2250
  601MOL0     H81113  13.732   8.803   0.823  0.4045 -0.7571 -2.3349
  601MOL0     H81114  13.728   8.974   0.889 -1.2891 -0.4331 -0.5121
  601MOL0     H81115  13.354   8.582   1.106 -1.7119 -2.5065 -0.2120
  601MOL0     H81116  13.120   8.510   1.107 -0.7666  1.2571 -2.4517
  601MOL0     H81117  12.529   8.766   1.288  1.6415  0.8709  1.6214
  601MOL0     H81118  12.343   8.615   1.344 -0.8544 -1.4216 -1.5390
  601MOL0     H81119  11.536   6.995   1.872  0.8884  0.8947 -0.5174
  601MOL0     H81120  11.294   6.978   1.849  0.8569 -0.2207  0.0190
  601MOL0     H81121  10.872   7.066   2.051  0.7420 -0.7820  0.3065
  601MOL0     H81122  10.648   7.029   2.070 -0.3892 -1.0343 -1.6234
  601MOL0     H81123  10.566   6.856   2.373  0.3621  0.1135  0.3893
  601MOL0     H81124  10.439   6.743   2.339  1.5174 -0.3120  1.7083
  601MOL0     H81125  10.339   6.960   2.425 -0.6935 -0.6373  0.3386
  601MOL0     H81126  10.280   6.898   2.279  0.1286 -0.7944  0.3902
  601MOL0     H81127  10.435   7.099   2.170  1.6170  1.6744 -0.0647
  601MOL0     H81128  10.480   7.131   2.336  0.1450  0.2199 -0.4847
  601MOL0     H81129  10.290   7.270   2.226  1.9959 -0.7463 -1.5489
  601MOL0     H81130  10.181   7.128   2.269 -0.7395 -1.0921  3.1615
  601MOL0     H81131  10.202   7.301   2.631 -0.7480  1.4516 -0.2846
  601MOL0     H81132  10.699   6.634   2.229  0.9956 -1.0306 -1.5734
  601MOL0     H81133  10.885   6.519   2.243 -1.3351  0.5763 -0.8676
  601MOL0     H81134  11.029   6.573   2.162 -1.1442 -1.0557 -1.2868
  601MOL0     H81135  10.995   6.633   2.320  0.0635 -0.2121 -0.6864
  602MOL0     O81136   0.616   0.062   6.060 -0.0684 -1.4859  0.5476
  602MOL0     C81137   0.595   0.167   6.123 -0.4791 -0.3181  0.4503
  602MOL0     O81138   0.644   0.294   6.086  0.2614  0.0652 -0.0488
  602MOL0     C81139   0.733   0.303   5.983  0.6300 -1.2124 -0.0631
  602MOL0     C81140   0.680   0.310   5.854 -1.2269 -0.4928  0.3256
  602MOL0     C81141   0.765   0.332   5.745 -0.6089  0.9919  0.2089
  602MOL0     C81142   0.910   0.332   5.771  0.0393  0.5561 -0.2629
  602MOL0     O81143   1.004   0.355   5.671 -0.6315 -0.2467  1.1560
  602MOL0     C81144   0.984   0.285   5.544  0.2161  0.2250 -0.6163
  602MOL0     C81145   1.006   0.128   5.549 -0.0430 -0.1900 -0.4877
  602MOL0     C81146   1.149   0.088   5.588 -0.2075  0.1132 -0.0317
  602MOL0     C81147   1.247   0.074   5.476 -0.1015 -0.1378  1.1694
  602MOL0     C81148   1.385   0.028   5.524  0.0199 -0.2660  0.5162
  602MOL0     C81149   1.484   0.014   5.406  0.3001  0.3704  0.6552
  602MOL0     C81150   1.622  -0.004   5.480  0.0531 -0.5592  0.1527
  602MOL0     C81151   1.737  -0.021   5.368  0.1396 -0.7689 -0.5491
  602MOL0     N81152   1.871  -0.029   5.425  0.1713 -0.5540 -1.2435
  602MOL0     C81153   1.917  -0.137   5.496  0.2917  0.2733  1.4286
  602MOL0     C81154   2.051  -0.136   5.483  0.5746  0.0981  0.1572
  602MOL0     C81155   2.147  -0.255   5.528  0.4615  0.1723 -0.8150
  602MOL0     C81156   2.275  -0.199   5.594 -0.0983  0.2551 -0.1341
  602MOL0     C81157   2.242  -0.114   5.722  0.2179  0.4771 -0.7673
  602MOL0     C81158   2.352  -0.021   5.750 -0.5324 -0.8032  1.0700
  602MOL0     O81159   2.466  -0.103   5.773  0.8686 -0.1272 -0.7212
  602MOL0     C81160   2.586  -0.041   5.773 -0.6496  0.5110 -0.2069
  602MOL0     C81161   2.607   0.088   5.811 -0.0516 -0.2442 -0.3698
  602MOL0     C81162   2.744   0.131   5.834  0.3573  0.5775  0.4593
  602MOL0     C81163   2.853   0.041   5.817  0.0470 -0.1267 -0.9302
  602MOL0     C81164   2.998   0.093   5.837 -0.2704 -1.0826  0.5689
  602MOL0     O81165   3.102   0.005   5.834 -0.0889 -0.6582 -0.7736
  602MOL0     C81166   3.242   0.045   5.833  0.2200  0.1638  0.1073
  602MOL0     C81167   3.294   0.181   5.832  0.0609 -0.8872  0.2978
  602MOL0     C81168   3.430   0.204   5.824  0.6062 -0.1136 -0.9030
  602MOL0     C81169   3.525   0.104   5.827  0.0613  0.3238 -0.6277
  602MOL0     O81170   3.665   0.122   5.834  0.5737  0.7414 -0.0340
  602MOL0     C81171   3.721   0.230   5.757 -0.3978 -0.0096 -0.5175
  602MOL0     C81172   3.871   0.199   5.727  0.2047 -0.1898 -0.2232
  602MOL0     C81173   3.883   0.086   5.624  0.3779  0.9310 -0.4507
  602MOL0     C81174   3.786   0.104   5.503  0.6782 -0.1528  0.2709
  602MOL0     C81175   3.820   0.002   5.395 -0.1059 -0.1480 -0.5785
  602MOL0     C81176   3.692  -0.032   5.310 -0.4546  0.0264  0.2901
  602MOL0     C81177   3.648   0.077   5.215 -1.5541 -0.1617 -0.8890
  602MOL0     C81178   3.514   0.034   5.159 -0.7005 -0.3514 -0.2492
  602MOL0    Cl81179   3.525  -0.089   5.033 -0.2006 -0.1696 -0.2518
  602MOL0     C81180   3.477  -0.025   5.838  0.1363 -0.6190 -0.2990
  602MOL0     C81181   3.340  -0.055   5.849 -0.0122 -0.7847  0.3889
  602MOL0     O81182   3.009   0.209   5.860  0.1442 -0.4790 -0.4272
  602MOL0     C81183   2.826  -0.088   5.764 -0.0080 -0.7749 -0.7525
  602MOL0     C81184   2.690  -0.127   5.759 -0.9153 -0.4614 -0.3560
  602MOL0     N81185   2.081  -0.027   5.397  0.3380 -0.0396 -0.4123
  602MOL0     N81186   1.975   0.037   5.360  0.2053 -0.1440 -0.1537
  602MOL0     C81187   0.957   0.334   5.904  0.6436  0.9039  0.3775
  602MOL0     C81188   0.865   0.319   6.011 -0.5747  0.6481 -0.5568
  602MOL0     C81189   0.492   0.155   6.232 -0.5261  1.3864 -0.8528
  602MOL0     C81190   0.510   0.039   6.307  0.2718  0.1658 -0.6728
  602MOL0     C81191   0.419  -0.006   6.405 -0.3200 -0.3972 -0.7981
  602MOL0     C81192   0.293   0.062   6.420  0.6675 -0.8123 -0.9284
  602MOL0     O81193   0.186   0.027   6.511  0.1033 -0.2987  0.1512
  602MOL0     C81194   0.175  -0.110   6.537  0.0698  1.0190  1.3459
  602MOL0     C81195   0.143  -0.178   6.400  0.7743 -0.7369 -0.2414
  602MOL0     C81196   0.060  -0.307   6.424 -0.2866  0.3768  0.3800
  602MOL0     C81197   0.120  -0.406   6.521 -0.2766 -0.3390 -0.4621
  602MOL0     C81198   0.264  -0.410   6.545 -0.7173  0.8186 -0.1380
  602MOL0     C81199   0.381  -0.415   6.557 -0.1088 -0.4806 -0.6499
  602MOL0     C81200   0.278   0.182   6.339  0.8870 -0.8357  0.4114
  602MOL0     C81201   0.374   0.227   6.243  0.5464  0.5310 -0.1200
  602MOL0     C81202   0.360   0.350   6.161 -0.4023  0.1204  0.0099
  602MOL0     H81203   0.572   0.320   5.848 -1.2727  1.9663  2.9908
  602MOL0     H81204   0.734   0.344   5.641  2.7632 -0.3505 -1.0893
  602MOL0     H81205   0.889   0.313   5.499 -0.1988 -0.1255  0.0312
  602MOL0     H81206   1.055   0.321   5.469 -1.8505 -0.0109 -2.8016
  602MOL0     H81207   0.978   0.076   5.457 -0.1947  0.4697 -0.8176
  602MOL0     H81208   0.934   0.080   5.616 -1.3041 -1.3440 -2.5950
  602MOL0     H81209   1.132  -0.013   5.626 -1.8900 -0.3477 -1.8738
  602MOL0     H81210   1.190   0.158   5.662  2.3333  2.4350 -3.3375
  602MOL0     H81211   1.211   0.003   5.400  1.0291 -0.2005  0.6766
  602MOL0     H81212   1.261   0.165   5.418  1.2268 -2.1450 -1.9479
  602MOL0     H81213   1.415   0.106   5.593 -2.1542  0.9586  0.1508
  602MOL0     H81214   1.373  -0.069   5.573 -0.9721 -0.1515  0.5100
  602MOL0     H81215   1.469  -0.083   5.358  4.6697 -1.6955  2.8055
  602MOL0     H81216   1.483   0.107   5.349  2.6130 -1.0600 -1.9903
  602MOL0     H81217   1.618  -0.098   5.537 -2.3773 -1.2148 -0.9677
  602MOL0     H81218   1.657   0.074   5.548  0.4886 -0.2611 -0.4099
  602MOL0     H81219   1.708  -0.112   5.316 -1.8491 -0.2317 -0.4494
  602MOL0     H81220   1.728   0.056   5.290 -0.9292 -0.5892 -0.2627
  602MOL0     H81221   1.859  -0.210   5.552 -0.9067  0.8571  0.9783
  602MOL0     H81222   2.092  -0.308   5.607  1.1036  0.6568 -0.0262
  602MOL0     H81223   2.168  -0.305   5.433 -2.1446  1.6115 -2.2832
  602MOL0     H81224   2.354  -0.274   5.606 -0.8600 -0.7015 -0.8984
  602MOL0     H81225   2.319  -0.130   5.522  2.3764  0.5831  1.5452
  602MOL0     H81226   2.224  -0.183   5.805  1.9558  0.1774 -0.6017
  602MOL0     H81227   2.146  -0.062   5.711  0.0501 -0.1690 -2.7577
  602MOL0     H81228   2.321   0.036   5.838  2.5052 -0.0407  1.7263
  602MOL0     H81229   2.372   0.044   5.664  3.9189 -0.7176  1.9654
  602MOL0     H81230   2.523   0.155   5.828 -1.5646 -2.8721  4.4240
  602MOL0     H81231   2.770   0.232   5.865  1.5992 -0.3476  2.6767
  602MOL0     H81232   3.232   0.270   5.835 -0.1907 -1.0859  2.1121
  602MOL0     H81233   3.453   0.311   5.822 -2.2750  0.5814 -0.3442
  602MOL0     H81234   3.655   0.253   5.672  0.0484  0.1222 -0.8305
  602MOL0     H81235   3.729   0.315   5.824 -0.1607  0.1331 -0.7266
  602MOL0     H81236   3.911   0.294   5.691  0.0831  0.2646  0.8158
  602MOL0     H81237   3.915   0.169   5.822  1.0350  0.6093 -0.3406
  602MOL0     H81238   3.987   0.088   5.590  0.2415  1.5038 -0.8416
  602MOL0     H81239   3.859  -0.010   5.671  3.4552 -0.4738 -1.4975
  602MOL0     H81240   3.797   0.209   5.472 -0.3449  0.5593  2.1482
  602MOL0     H81241   3.679   0.085   5.515  0.8454 -1.4150 -0.0905
  602MOL0     H81242   3.846  -0.089   5.450 -0.1028 -1.2833 -2.3748
  602MOL0     H81243   3.906   0.043   5.341 -0.0832  2.0502  0.9846
  602MOL0     H81244   3.710  -0.121   5.249  0.0834  0.5457 -0.3255
  602MOL0     H81245   3.609  -0.064   5.374 -1.6088 -0.2970 -1.3039
  602MOL0     H81246   3.721   0.100   5.138 -1.5930 -1.2456 -1.2679
  602MOL0     H81247   3.631   0.166   5.276 -1.3250 -0.0128 -1.0429
  602MOL0     H81248   3.437   0.002   5.231  0.8817 -1.9094  0.8324
  602MOL0     H81249   3.462   0.123   5.123 -0.4504  1.5483  3.5269
  602MOL0     H81250   3.554  -0.101   5.847  1.7066  0.7180 -1.6073
  602MOL0     H81251   3.317  -0.161   5.857  1.0186 -1.1052 -0.5670
  602MOL0     H81252   2.900  -0.165   5.752  2.0641  0.7656  1.2166
  602MOL0     H81253   2.666  -0.231   5.736  1.7649 -0.7346 -2.4027
  602MOL0     H81254   1.065   0.334   5.910  0.8050  4.1317 -1.0802
  602MOL0     H81255   0.890   0.320   6.117  2.0729 -3.5547 -0.9179
  602MOL0     H81256   0.602  -0.013   6.284  0.1630 -0.3624  0.0494
  602MOL0     H81257   0.447  -0.095   6.459 -2.3986 -1.2517 -1.0377
  602MOL0     H81258   0.089  -0.131   6.602  0.2573  1.2792  1.6831
  602MOL0     H81259   0.270  -0.140   6.583  0.8234 -0.6593 -1.1389
  602MOL0     H81260   0.233  -0.197   6.341 -0.8607 -1.7955 -2.5620
  602MOL0     H81261   0.078  -0.110   6.345 -1.8449  1.3884  4.8550
  602MOL0     H81262   0.055  -0.358   6.328 -1.7705  3.1650 -1.1567
  602MOL0     H81263  -0.044  -0.297   6.455 -1.3466 -3.9790 -1.0652
  602MOL0     H81264   0.083  -0.371   6.618  2.2717  0.4807  0.3007
  602MOL0     H81265   0.092  -0.509   6.495  1.3723 -1.2410  1.0440
  602MOL0     H81266   0.486  -0.432   6.565 -0.1547 -0.3156  0.4172
  602MOL0     H81267   0.186   0.239   6.342  1.7002  0.5422 -0.2338
  602MOL0     H81268   0.263   0.395   6.184 -0.5750 -0.8221  1.2288
  602MOL0     H81269   0.437   0.424   6.185 -1.7892  1.5446  0.2579
  602MOL0     H81270   0.359   0.332   6.054  0.1581 -4.5673  0.5953
  603MOL0     O81271   5.876   2.293   8.644 -0.7501  0.3189 -0.0157
  603MOL0     C81272   5.942   2.396   8.641  0.0213 -0.4078  0.1482
  603MOL0     O81273   5.908   2.507   8.715 -0.1251  0.0029 -0.0504
  603MOL0     C81274   5.789   2.528   8.792  0.0289 -0.4150  0.5092
  603MOL0     C81275   5.798   2.580   8.920  0.1717 -0.3736  0.1321
  603MOL0     C81276   5.691   2.615   9.005  0.2394  0.7388  0.7502
  603MOL0     C81277   5.563   2.597   8.948 -0.4973 -0.2992  0.8471
  603MOL0     O81278   5.448   2.622   9.013  0.6117 -0.4636 -0.3477
  603MOL0     C81279   5.458   2.683   9.144 -0.1515 -0.2206 -0.6693
  603MOL0     C81280   5.470   2.575   9.249 -0.3040  0.7795  0.1363
  603MOL0     C81281   5.466   2.641   9.387 -1.3925  0.1162 -0.2255
  603MOL0     C81282   5.598   2.729   9.417 -0.1888  0.5821  0.6516
  603MOL0     C81283   5.577   2.772   9.558 -0.0287  0.4401  0.1251
  603MOL0     C81284   5.667   2.893   9.569 -0.2416  0.0498 -0.0643
  603MOL0     C81285   5.652   2.938   9.724 -0.6352  0.0264  0.1023
  603MOL0     C81286   5.740   3.066   9.741  0.2314 -0.3783  0.0745
  603MOL0     N81287   5.749   3.098   9.882 -0.0430 -0.0169 -0.4446
  603MOL0     C81288   5.692   3.046   9.992  0.0503  0.1522  0.0175
  603MOL0     C81289   5.746   3.093  10.102  0.6833 -0.1401 -0.1513
  603MOL0     C81290   5.693   3.051  10.241 -0.1231  0.2315 -0.0989
  603MOL0     C81291   5.602   2.922  10.236 -0.2132 -0.3994 -0.7885
  603MOL0     C81292   5.578   2.860  10.371 -1.3891  0.9227 -0.4036
  603MOL0     C81293   5.456   2.764  10.382 -0.6259 -0.1473 -0.2414
  603MOL0     O81294   5.339   2.847  10.400 -0.3778 -0.0432  0.3689
  603MOL0     C81295   5.221   2.804  10.354 -0.8022 -0.4850  0.9884
  603MOL0     C81296   5.190   2.705  10.263 -0.3832  0.5247 -0.0480
  603MOL0     C81297   5.053   2.672  10.241 -0.4619 -0.6015  0.3394
  603MOL0     C81298   4.950   2.733  10.314 -0.4549  0.6213  0.2860
  603MOL0     C81299   4.810   2.702  10.286 -0.3984  0.0346 -0.0750
  603MOL0     O81300   4.712   2.736  10.381 -0.6325 -0.0931  1.2309
  603MOL0     C81301   4.581   2.749  10.333 -0.0049 -0.3136 -0.1656
  603MOL0     C81302   4.550   2.847  10.237 -0.6294  0.1303 -0.4964
  603MOL0     C81303   4.412   2.882  10.214  0.6940  0.1392  0.1920
  603MOL0     C81304   4.308   2.813  10.282 -1.1609  0.1774 -0.2679
  603MOL0     O81305   4.179   2.804  10.246  0.4018  0.1577  0.6952
  603MOL0     C81306   4.119   2.935  10.223  0.3095  0.7585  0.6071
  603MOL0     C81307   3.977   2.912  10.260  0.4870 -0.1985  0.1561
  603MOL0     C81308   3.899   3.030  10.205 -0.4470 -0.3622  0.0597
  603MOL0     C81309   3.754   3.024  10.249 -0.0188  0.2406  0.4090
  603MOL0     C81310   3.654   3.105  10.166 -0.2246 -0.4969  0.7327
  603MOL0     C81311   3.499   3.076  10.202 -0.8428  0.5378  0.0790
  603MOL0     C81312   3.393   3.118  10.100 -0.5186 -0.5929  0.4125
  603MOL0     C81313   3.328   3.237  10.150  0.4690 -0.6514  0.1282
  603MOL0    Cl81314   3.194   3.292  10.031 -0.3353  0.3546  0.1271
  603MOL0     C81315   4.343   2.714  10.368 -0.2202  0.6173 -0.8761
  603MOL0     C81316   4.474   2.682  10.400  0.0926  0.2198  0.4283
  603MOL0     O81317   4.787   2.646  10.179 -0.0188  0.1297 -0.5577
  603MOL0     C81318   4.976   2.837  10.407 -0.5893 -0.0869 -0.5215
  603MOL0     C81319   5.110   2.866  10.427 -0.6412 -0.0360 -0.9323
  603MOL0     N81320   5.846   3.183  10.057 -0.1482  0.3858 -0.7621
  603MOL0     N81321   5.847   3.179   9.926  0.5854  0.2911 -0.7630
  603MOL0     C81322   5.553   2.537   8.820  0.3080 -1.1406 -0.0468
  603MOL0     C81323   5.658   2.501   8.741 -0.2929 -0.6259  0.0750
  603MOL0     C81324   6.066   2.402   8.560  0.5947  0.5327  0.4247
  603MOL0     C81325   6.154   2.512   8.577 -0.9552 -0.6087  0.5545
  603MOL0     C81326   6.278   2.523   8.507 -0.6414 -1.1882 -0.1444
  603MOL0     C81327   6.301   2.433   8.406 -0.0214 -0.3304 -0.4322
  603MOL0     O81328   6.425   2.451   8.340  0.4976  0.0406 -0.1184
  603MOL0     C81329   6.433   2.440   8.199  0.0931 -0.4206  0.1242
  603MOL0     C81330   6.554   2.353   8.183 -0.1464  0.1383 -0.5519
  603MOL0     C81331   6.698   2.422   8.183 -1.0147 -0.1458 -0.0294
  603MOL0     C81332   6.810   2.314   8.188 -0.3707 -0.1056  0.1140
  603MOL0     C81333   6.932   2.377   8.235  0.2685 -0.1786 -0.3056
  603MOL0     C81334   7.039   2.418   8.261  0.0050 -0.9551  0.0541
  603MOL0     C81335   6.216   2.329   8.383 -0.5523  0.4742 -0.6137
  603MOL0     C81336   6.101   2.310   8.463  0.7684  0.3843 -0.2656
  603MOL0     C81337   6.025   2.176   8.440 -0.1498  0.3730 -0.0602
  603MOL0     H81338   5.899   2.598   8.955  0.9421 -2.7860 -0.6342
  603MOL0     H81339   5.710   2.652   9.105  0.0025  2.0967  0.3147
  603MOL0     H81340   5.530   2.763   9.159 -2.6536  2.2406 -0.9647
  603MOL0     H81341   5.365   2.737   9.163  0.0230  0.3160 -1.2952
  603MOL0     H81342   5.568   2.528   9.240 -1.0206 -0.5338 -1.0199
  603MOL0     H81343   5.383   2.509   9.253 -1.3422  2.1247  0.8536
  603MOL0     H81344   5.464   2.561   9.462  0.1513  0.9938  0.8147
  603MOL0     H81345   5.372   2.697   9.393 -0.6213  1.5748 -1.2950
  603MOL0     H81346   5.686   2.668   9.394 -0.9384 -0.1988 -0.2385
  603MOL0     H81347   5.608   2.812   9.346  2.7545 -1.8930 -2.1292
  603MOL0     H81348   5.475   2.798   9.590 -0.5168  0.6327 -1.4877
  603MOL0     H81349   5.606   2.694   9.628 -1.1430 -1.3620 -1.3363
  603MOL0     H81350   5.771   2.875   9.539  0.5599  3.3253  0.2571
  603MOL0     H81351   5.629   2.978   9.512  1.5070 -0.3229 -1.9015
  603MOL0     H81352   5.680   2.849   9.781 -0.4224 -0.6874 -1.0686
  603MOL0     H81353   5.551   2.974   9.743 -0.7488  0.2351 -0.8216
  603MOL0     H81354   5.844   3.047   9.713  0.3899 -1.3651  1.2588
  603MOL0     H81355   5.699   3.150   9.685 -2.9462 -1.1489  1.0580
  603MOL0     H81356   5.618   2.967   9.991 -0.1833  0.2486 -3.5940
  603MOL0     H81357   5.777   3.034  10.310  0.6767  1.5561 -0.7130
  603MOL0     H81358   5.640   3.136  10.284  0.3706 -0.3242  1.7085
  603MOL0     H81359   5.509   2.946  10.182  0.6699  1.2801 -1.6478
  603MOL0     H81360   5.651   2.852  10.168  1.3216  0.3588 -0.5045
  603MOL0     H81361   5.568   2.947  10.437  1.3707  1.8401 -1.0475
  603MOL0     H81362   5.666   2.799  10.391 -0.9274  2.6968  4.1973
  603MOL0     H81363   5.474   2.701  10.470  1.9494  1.7233  0.7150
  603MOL0     H81364   5.456   2.689  10.303  4.6232 -0.5007 -0.2667
  603MOL0     H81365   5.268   2.644  10.219  0.5156 -0.1580  2.3691
  603MOL0     H81366   5.024   2.596  10.169 -3.3600 -1.0372  1.8196
  603MOL0     H81367   4.626   2.892  10.175  0.2141  0.9534  1.0950
  603MOL0     H81368   4.380   2.955  10.139 -2.5421 -0.4021  0.8881
  603MOL0     H81369   4.171   3.011  10.281  1.7190 -1.1559  2.0086
  603MOL0     H81370   4.131   2.955  10.116 -1.0620 -0.0185  0.2847
  603MOL0     H81371   3.944   2.813  10.227  1.9987 -1.6532  2.6364
  603MOL0     H81372   3.980   2.928  10.369  4.7970  3.5662 -0.2039
  603MOL0     H81373   3.941   3.121  10.248 -2.9123  0.3894  1.0496
  603MOL0     H81374   3.899   3.046  10.097 -0.9054  1.1493  0.2635
  603MOL0     H81375   3.740   3.061  10.351 -0.6163  0.4101  0.2686
  603MOL0     H81376   3.715   2.922  10.251 -0.9295  0.5287 -0.9893
  603MOL0     H81377   3.663   3.084  10.059 -0.0766 -2.7922  1.1398
  603MOL0     H81378   3.659   3.213  10.183  0.0259 -0.0706 -1.6720
  603MOL0     H81379   3.496   2.968  10.218 -0.0793  0.1851 -1.8847
  603MOL0     H81380   3.473   3.106  10.304 -0.8534  0.6981  0.0305
  603MOL0     H81381   3.315   3.042  10.095  0.4903 -1.6948  0.8711
  603MOL0     H81382   3.440   3.131  10.002 -0.1429  0.3873  0.7130
  603MOL0     H81383   3.275   3.220  10.244 -1.9821  0.7058 -0.9043
  603MOL0     H81384   3.391   3.326  10.161 -0.9829  0.6443 -1.4659
  603MOL0     H81385   4.269   2.658  10.425  0.5807  0.5241  0.1002
  603MOL0     H81386   4.502   2.607  10.473  4.8939  1.0897 -0.1577
  603MOL0     H81387   4.900   2.889  10.466 -1.5220 -0.1872 -1.5847
  603MOL0     H81388   5.132   2.935  10.508  2.5992 -2.3131  0.3294
  603MOL0     H81389   5.457   2.526   8.771  0.6975  0.9583 -1.4146
  603MOL0     H81390   5.638   2.457   8.644 -1.0232 -0.8451  0.3145
  603MOL0     H81391   6.142   2.586   8.656 -0.3510  0.3861 -0.2685
  603MOL0     H81392   6.352   2.600   8.519  0.7915 -2.5347 -0.0556
  603MOL0     H81393   6.438   2.534   8.144 -0.2262  1.0717  2.4665
  603MOL0     H81394   6.348   2.383   8.159  2.3074 -1.7448 -3.0610
  603MOL0     H81395   6.542   2.296   8.090  2.6405  0.0110 -0.9098
  603MOL0     H81396   6.564   2.282   8.266 -1.1500  1.3867  0.6892
  603MOL0     H81397   6.712   2.482   8.273 -1.3201 -2.5158  1.6828
  603MOL0     H81398   6.715   2.473   8.087 -1.7221  1.0391  0.4570
  603MOL0     H81399   6.792   2.237   8.264  0.4702  0.9405  1.4020
  603MOL0     H81400   6.813   2.273   8.087 -1.8583  1.0587 -0.4335
  603MOL0     H81401   7.141   2.451   8.266 -0.1780 -0.1250 -1.1844
  603MOL0     H81402   6.237   2.268   8.296  1.1305 -1.0828  0.7995
  603MOL0     H81403   6.071   2.115   8.361 -2.2640  1.0735 -1.9289
  603MOL0     H81404   6.038   2.123   8.535 -0.9854  1.9091  0.9406
  603MOL0     H81405   5.917   2.179   8.425 -0.2460 -2.1982 -0.3660
  604MOL0     O81406   1.306   5.735  10.565  0.4549  0.6165 -0.1862
  604MOL0     C81407   1.372   5.633  10.534 -0.2108  0.2468  0.4267
  604MOL0     O81408   1.326   5.502  10.545 -0.4398  0.8752  0.8708
  604MOL0     C81409   1.210   5.491  10.621 -0.2606  0.1284 -0.0886
  604MOL0     C81410   1.203   5.470  10.768 -0.2525 -0.9167  0.1871
  604MOL0     C81411   1.079   5.443  10.830 -0.0632  0.3250  0.1729
  604MOL0     C81412   0.963   5.439  10.760 -0.7132  0.4837 -0.2685
  604MOL0     O81413   0.854   5.412  10.842 -1.0714  0.3760  0.6286
  604MOL0     C81414   0.726   5.401  10.785 -0.1727  0.6281 -0.2249
  604MOL0     C81415   0.620   5.399  10.904 -0.3719  0.1721  0.7551
  604MOL0     C81416   0.479   5.394  10.852  0.0358  0.2621  0.5328
  604MOL0     C81417   0.452   5.246  10.805 -0.2876 -0.5347 -0.9434
  604MOL0     C81418   0.309   5.205  10.820  0.0011  0.3370  0.2486
  604MOL0     C81419   0.286   5.058  10.794  0.2459  0.8721  0.2900
  604MOL0     C81420   0.147   4.992  10.819  0.0326 -0.5336 -0.3773
  604MOL0     C81421   0.153   4.848  10.869 -0.5652  0.3363 -0.2435
  604MOL0     N81422   0.014   4.791  10.904 -0.2931 -0.6161 -0.0626
  604MOL0     C81423  -0.068   4.746  10.801 -0.6031  0.1187 -0.2486
  604MOL0     C81424  -0.156   4.658  10.849 -0.5480 -0.1586  0.0732
  604MOL0     C81425  -0.259   4.573  10.790  0.4221 -0.7370 -0.1310
  604MOL0     C81426  -0.381   4.660  10.747 -0.6500  0.1068  0.0162
  604MOL0     C81427  -0.469   4.607  10.627  1.2005 -0.5571 -0.5349
  604MOL0     C81428  -0.391   4.584  10.496 -0.2738 -0.2395 -0.0894
  604MOL0     O81429  -0.315   4.700  10.467 -0.4673 -0.3305 -0.1008
  604MOL0     C81430  -0.181   4.691  10.444  0.3547 -0.8134  0.9016
  604MOL0     C81431  -0.112   4.566  10.428  0.3966 -0.3976  0.5508
  604MOL0     C81432   0.030   4.560  10.391  0.5527 -0.6254  0.1598
  604MOL0     C81433   0.105   4.684  10.396  0.5601  0.1386  0.8161
  604MOL0     C81434   0.245   4.675  10.358  0.6416 -0.9557  0.3626
  604MOL0     O81435   0.294   4.563  10.303 -0.1183  0.4118  0.0809
  604MOL0     C81436   0.436   4.553  10.287  0.0138  0.1030 -0.7060
  604MOL0     C81437   0.501   4.488  10.386  0.3070  0.5788  0.0102
  604MOL0     C81438   0.641   4.459  10.369  0.0632  0.2673  0.3745
  604MOL0     C81439   0.710   4.520  10.263 -0.8475 -0.0848 -0.3833
  604MOL0     O81440   0.849   4.512  10.245  0.1469 -0.5288  0.2968
  604MOL0     C81441   0.929   4.436  10.340 -0.3053 -0.2159 -0.3211
  604MOL0     C81442   1.078   4.482  10.310  0.4402  0.1020 -0.2637
  604MOL0     C81443   1.168   4.408  10.411 -0.0034  0.8009  0.0896
  604MOL0     C81444   1.301   4.478  10.425  0.0477 -0.1146  0.6838
  604MOL0     C81445   1.390   4.452  10.298  0.4567 -0.5550  0.3472
  604MOL0     C81446   1.509   4.546  10.301  0.6695  1.0954 -0.4211
  604MOL0     C81447   1.631   4.480  10.226  0.0928  0.6833  0.3142
  604MOL0     C81448   1.768   4.538  10.279  0.4893  0.1030 -0.0976
  604MOL0    Cl81449   1.763   4.709  10.287  0.3220  0.2254 -0.2312
  604MOL0     C81450   0.643   4.591  10.166 -0.3381  0.1667 -0.3003
  604MOL0     C81451   0.504   4.583  10.169  0.5030 -1.3597  0.5261
  604MOL0     O81452   0.297   4.786  10.372 -0.3418 -0.3806  0.9649
  604MOL0     C81453   0.035   4.808  10.404 -0.7283 -0.2031 -0.0963
  604MOL0     C81454  -0.102   4.805  10.430  0.5004 -0.3563 -0.1854
  604MOL0     N81455  -0.128   4.645  10.981 -0.5452  0.1892 -0.1334
  604MOL0     N81456  -0.025   4.719  11.013  0.6120  0.3206  0.4038
  604MOL0     C81457   0.970   5.479  10.627  0.1172 -0.7234 -0.7059
  604MOL0     C81458   1.092   5.501  10.559  0.5703  0.2114  0.0288
  604MOL0     C81459   1.502   5.671  10.461  0.0090 -0.0060 -0.4470
  604MOL0     C81460   1.552   5.573  10.384 -0.9263  0.4270 -0.8643
  604MOL0     C81461   1.665   5.590  10.299 -0.3589 -0.5728 -0.8219
  604MOL0     C81462   1.733   5.708  10.298  0.4680 -0.3467  0.6363
  604MOL0     O81463   1.842   5.708  10.211  0.3735  0.5064  0.6637
  604MOL0     C81464   1.947   5.816  10.220  0.8602  0.6546 -0.3638
  604MOL0     C81465   2.064   5.780  10.136  0.1663 -0.2194 -0.0199
  604MOL0     C81466   2.164   5.681  10.209  1.0527 -0.6669 -0.2162
  604MOL0     C81467   2.116   5.538  10.199  0.3161 -0.2455  0.1191
  604MOL0     C81468   2.228   5.447  10.199 -0.2865 -0.1400 -0.1644
  604MOL0     C81469   2.313   5.368  10.186  0.0549 -0.1777  0.2593
  604MOL0     C81470   1.694   5.816  10.382  1.0913  0.1700 -0.6983
  604MOL0     C81471   1.573   5.800  10.462  0.5488 -0.9675  0.3788
  604MOL0     C81472   1.527   5.906  10.558 -0.3860 -1.2506 -0.2700
  604MOL0     H81473   1.294   5.479  10.826  0.8611 -0.8793 -1.4794
  604MOL0     H81474   1.084   5.413  10.935  2.8164  0.2253  0.0867
  604MOL0     H81475   0.706   5.484  10.716  1.4614  2.3005  1.1986
  604MOL0     H81476   0.720   5.305  10.734  0.2416  0.3578  0.2220
  604MOL0     H81477   0.640   5.487  10.966  2.2774  0.5801 -0.5216
  604MOL0     H81478   0.637   5.320  10.978  2.9101  2.9913  3.3655
  604MOL0     H81479   0.464   5.472  10.777 -0.3476 -0.2871  0.0311
  604MOL0     H81480   0.412   5.430  10.931 -0.8086  0.0135 -0.0547
  604MOL0     H81481   0.489   5.234  10.702  2.1438  0.4662 -0.2693
  604MOL0     H81482   0.505   5.167  10.860 -1.9244 -2.2281 -1.6853
  604MOL0     H81483   0.287   5.222  10.926  1.5505  1.5499  0.4168
  604MOL0     H81484   0.244   5.269  10.759 -0.1876 -0.7727 -0.7505
  604MOL0     H81485   0.312   5.048  10.688  1.4265 -0.6632  0.6892
  604MOL0     H81486   0.364   5.007  10.852  1.7857 -0.8057 -2.9764
  604MOL0     H81487   0.092   4.999  10.725  2.0060 -2.0097 -1.7494
  604MOL0     H81488   0.089   5.053  10.888 -0.8815 -2.1550  0.3433
  604MOL0     H81489   0.200   4.786  10.792  2.8502  2.3323  0.0607
  604MOL0     H81490   0.213   4.837  10.960  1.9737  0.7786 -1.7700
  604MOL0     H81491  -0.053   4.771  10.696 -0.8028  0.5103 -0.1851
  604MOL0     H81492  -0.217   4.528  10.700  1.5885 -2.3997  1.1857
  604MOL0     H81493  -0.298   4.491  10.850  2.1909 -0.3453  1.6835
  604MOL0     H81494  -0.435   4.664  10.842  2.0643  1.5079  1.6501
  604MOL0     H81495  -0.338   4.758  10.725 -2.0097  0.9196  0.8497
  604MOL0     H81496  -0.542   4.687  10.614  0.7195 -0.6207  1.5096
  604MOL0     H81497  -0.521   4.514  10.652  1.5088 -1.5333 -3.2122
  604MOL0     H81498  -0.461   4.559  10.416 -0.1296 -1.0625  0.0314
  604MOL0     H81499  -0.325   4.499  10.517  4.1027  1.7205 -4.1873
  604MOL0     H81500  -0.158   4.468  10.431  0.8216 -0.6711 -0.9912
  604MOL0     H81501   0.069   4.462  10.365 -1.5510 -0.7964 -2.8990
  604MOL0     H81502   0.453   4.444  10.473  2.2904 -0.9587  0.4050
  604MOL0     H81503   0.685   4.400  10.449  1.2280  0.7771  0.1316
  604MOL0     H81504   0.901   4.458  10.444 -1.7341  1.6783 -1.0551
  604MOL0     H81505   0.920   4.330  10.317  0.1219 -0.4673  0.6051
  604MOL0     H81506   1.098   4.464  10.204  0.7662 -0.7012 -0.0723
  604MOL0     H81507   1.091   4.589  10.332  0.5219 -0.2198  1.4233
  604MOL0     H81508   1.110   4.423  10.503  0.2540  0.4937  0.3058
  604MOL0     H81509   1.180   4.300  10.397 -0.7335  0.6538  0.5194
  604MOL0     H81510   1.354   4.430  10.507 -1.3528  0.3014  1.8649
  604MOL0     H81511   1.278   4.585  10.433 -0.6664  0.0400 -2.2160
  604MOL0     H81512   1.337   4.462  10.202  3.2802 -0.0597 -1.2698
  604MOL0     H81513   1.424   4.348  10.304 -0.3838 -1.3202 -4.2931
  604MOL0     H81514   1.473   4.641  10.260 -0.5914  1.0025  0.3917
  604MOL0     H81515   1.532   4.566  10.406 -1.4558  1.5516  0.0174
  604MOL0     H81516   1.613   4.499  10.119  0.6018 -2.7443 -0.4903
  604MOL0     H81517   1.628   4.373  10.246  0.6205  0.8813  1.5388
  604MOL0     H81518   1.788   4.497  10.379  0.4953 -0.8286 -0.4704
  604MOL0     H81519   1.847   4.493  10.218  0.2612 -1.6296  0.8020
  604MOL0     H81520   0.682   4.633  10.073 -2.0018 -1.4418 -1.8107
  604MOL0     H81521   0.452   4.635  10.089  3.2545  2.3897  0.9250
  604MOL0     H81522   0.081   4.906  10.391  1.8259 -0.9146  2.4993
  604MOL0     H81523  -0.151   4.902  10.432 -1.1360 -1.1443 -0.2916
  604MOL0     H81524   0.880   5.476  10.567 -0.3549  0.1058 -0.0580
  604MOL0     H81525   1.084   5.509  10.451  3.1479 -0.1490 -0.2378
  604MOL0     H81526   1.506   5.476  10.370  1.4273 -0.5326 -2.7514
  604MOL0     H81527   1.712   5.518  10.235 -1.2279  0.4079 -2.6441
  604MOL0     H81528   1.976   5.821  10.325 -1.3874 -2.2526  0.5376
  604MOL0     H81529   1.892   5.907  10.196 -0.3852  0.1533  0.4348
  604MOL0     H81530   2.116   5.875  10.119  0.8008  0.1143  3.1803
  604MOL0     H81531   2.037   5.738  10.038  0.7115  3.4459 -1.8896
  604MOL0     H81532   2.174   5.716  10.312  1.2690 -0.3654 -0.3367
  604MOL0     H81533   2.259   5.699  10.157  0.9543  0.5268 -0.0122
  604MOL0     H81534   2.052   5.513  10.285  1.0284 -2.3244  0.0981
  604MOL0     H81535   2.066   5.519  10.104  2.6511  1.0955 -1.4491
  604MOL0     H81536   2.383   5.292  10.157 -0.0658 -0.7550  1.4284
  604MOL0     H81537   1.751   5.908  10.375  2.5010 -0.6826 -0.7738
  604MOL0     H81538   1.474   5.874  10.649 -1.9778  0.7995 -0.3872
  604MOL0     H81539   1.611   5.968  10.590 -1.1393 -0.4511  0.2289
  604MOL0     H81540   1.460   5.974  10.504  2.2696  1.6052 -0.2247
  605MOL0     O81541   3.102   9.222   3.823 -0.4319 -0.1762  0.3079
  605MOL0     C81542   3.065   9.225   3.707 -0.0491  0.7863  0.0356
  605MOL0     O81543   3.139   9.258   3.596 -0.3557 -0.1217  0.1638
  605MOL0     C81544   3.269   9.294   3.616 -0.0572  0.7359  0.0869
  605MOL0     C81545   3.307   9.413   3.685  0.1272  0.3660 -0.4798
  605MOL0     C81546   3.438   9.455   3.688 -0.3471  0.3191  0.1848
  605MOL0     C81547   3.536   9.391   3.613  0.2920 -1.0834 -0.4412
  605MOL0     O81548   3.672   9.426   3.628  1.2465 -0.2878 -0.2847
  605MOL0     C81549   3.746   9.315   3.678  0.2301 -0.0835 -0.7516
  605MOL0     C81550   3.891   9.365   3.705  0.9788  0.4941  0.2447
  605MOL0     C81551   3.994   9.264   3.749  0.5292  0.4067 -0.5531
  605MOL0     C81552   4.115   9.335   3.807  0.5881  0.6007 -0.2210
  605MOL0     C81553   4.195   9.371   3.680  0.2907  0.7122  0.0717
  605MOL0     C81554   4.299   9.481   3.710 -0.5426  0.3072  0.1302
  605MOL0     C81555   4.374   9.520   3.587 -1.1273 -0.1530 -0.1425
  605MOL0     C81556   4.508   9.600   3.606 -0.9461  1.1808  1.0510
  605MOL0     N81557   4.503   9.728   3.671  0.1656 -0.2062 -1.1979
  605MOL0     C81558   4.401   9.822   3.683 -0.2284 -0.1648 -0.9443
  605MOL0     C81559   4.460   9.918   3.759 -0.2463 -0.9930 -1.5243
  605MOL0     C81560   4.387  10.051   3.774 -0.1410  0.8680 -0.3091
  605MOL0     C81561   4.252  10.043   3.854 -0.4830 -0.3474 -0.1079
  605MOL0     C81562   4.167  10.156   3.834 -0.4415  0.3235  0.2486
  605MOL0     C81563   4.099  10.143   3.691  0.2648  0.3930 -0.5766
  605MOL0     O81564   4.037  10.014   3.684  0.7444  0.0388 -0.2320
  605MOL0     C81565   3.908   9.991   3.736 -0.3048 -0.6347 -0.3698
  605MOL0     C81566   3.821  10.089   3.799 -0.3366  0.3748  0.0246
  605MOL0     C81567   3.688  10.063   3.823 -0.4763 -0.1902 -1.4755
  605MOL0     C81568   3.636   9.933   3.804 -0.1837  0.7292  0.2551
  605MOL0     C81569   3.497   9.901   3.843 -0.3508 -0.3709 -1.1652
  605MOL0     O81570   3.419  10.010   3.886 -0.4244 -0.0397  0.0292
  605MOL0     C81571   3.282   9.990   3.901 -1.0686 -0.5081  0.2379
  605MOL0     C81572   3.231   9.943   4.024  0.3723  0.0108  1.0446
  605MOL0     C81573   3.091   9.944   4.034  0.5859  0.1462 -1.3906
  605MOL0     C81574   3.004   9.974   3.924 -0.1796  0.0832 -0.9981
  605MOL0     O81575   2.869   9.976   3.922  0.3848 -0.2523  1.1726
  605MOL0     C81576   2.815   9.916   4.043 -0.0683  0.3258 -0.5025
  605MOL0     C81577   2.660   9.901   4.022  0.6534  0.3778  0.0443
  605MOL0     C81578   2.617   9.798   3.912 -0.5410  0.1482 -0.8537
  605MOL0     C81579   2.469   9.764   3.909  0.2418 -0.1081  0.7061
  605MOL0     C81580   2.395   9.849   3.799  0.5388  0.3154 -0.5358
  605MOL0     C81581   2.246   9.828   3.778 -0.1024  0.8349 -0.1719
  605MOL0     C81582   2.203   9.681   3.779 -0.3765  0.1044  1.0368
  605MOL0     C81583   2.059   9.673   3.727 -0.1877 -0.3966  0.3602
  605MOL0    Cl81584   1.941   9.768   3.830 -0.2512 -0.4852 -0.1610
  605MOL0     C81585   3.070  10.002   3.802  0.1593 -0.3051 -0.2472
  605MOL0     C81586   3.206  10.019   3.797  0.4035 -0.2656 -0.2308
  605MOL0     O81587   3.456   9.786   3.826 -0.4905 -0.6336  0.4477
  605MOL0     C81588   3.717   9.831   3.746 -0.7058 -0.0388  0.5882
  605MOL0     C81589   3.849   9.868   3.708 -0.1406 -0.3105 -0.1760
  605MOL0     N81590   4.580   9.882   3.809  0.7267  0.3720 -0.5435
  605MOL0     N81591   4.607   9.773   3.745  0.3849 -0.0803 -0.0128
  605MOL0     C81592   3.500   9.274   3.542 -0.7941  0.1706 -0.2802
  605MOL0     C81593   3.371   9.225   3.557 -0.8868  0.5991  0.3243
  605MOL0     C81594   2.928   9.168   3.669  0.4498 -0.1522 -0.7502
  605MOL0     C81595   2.874   9.206   3.541  0.1133 -0.4530 -0.2244
  605MOL0     C81596   2.750   9.156   3.505  0.2216 -0.5961 -0.0769
  605MOL0     C81597   2.667   9.085   3.594  0.1210  0.7516 -0.1531
  605MOL0     O81598   2.544   9.033   3.574  0.1292 -0.2815  1.4236
  605MOL0     C81599   2.476   9.073   3.449  0.5445  0.3015 -0.1831
  605MOL0     C81600   2.387   9.201   3.457  0.0597 -0.0189 -0.2432
  605MOL0     C81601   2.321   9.213   3.594 -1.1360  0.2668  0.2420
  605MOL0     C81602   2.245   9.343   3.611  0.7317  0.8149 -0.1012
  605MOL0     C81603   2.129   9.363   3.523  0.7862  0.5598 -1.1600
  605MOL0     C81604   2.030   9.368   3.445 -0.5944 -0.1837 -0.1313
  605MOL0     C81605   2.731   9.038   3.716 -0.6273  0.4430  0.3894
  605MOL0     C81606   2.863   9.070   3.749 -0.1027  0.8180 -0.5679
  605MOL0     C81607   2.920   8.991   3.864  0.0766 -0.7968 -1.0104
  605MOL0     H81608   3.227   9.468   3.733 -0.3376  0.5312 -1.4019
  605MOL0     H81609   3.458   9.538   3.755 -3.0894  1.4519 -0.2587
  605MOL0     H81610   3.710   9.283   3.776 -0.0160  4.1651  0.7511
  605MOL0     H81611   3.755   9.239   3.600 -2.9739 -1.7466  0.3148
  605MOL0     H81612   3.870   9.430   3.791  1.9471 -2.5116  2.9626
  605MOL0     H81613   3.914   9.433   3.623 -3.5610  1.2946 -0.6581
  605MOL0     H81614   4.014   9.206   3.658  2.2982 -0.5225  0.3761
  605MOL0     H81615   3.959   9.196   3.826  2.2187  0.1185  0.0022
  605MOL0     H81616   4.073   9.421   3.860 -0.7092  1.3980 -2.4155
  605MOL0     H81617   4.170   9.270   3.875  0.1362  0.4910  0.0436
  605MOL0     H81618   4.254   9.284   3.648 -1.7335 -0.6773 -0.0705
  605MOL0     H81619   4.132   9.395   3.594 -1.0063 -0.3926  0.6716
  605MOL0     H81620   4.243   9.565   3.751 -0.3580  1.4935 -1.9079
  605MOL0     H81621   4.371   9.433   3.777 -0.1822 -0.2622 -0.6452
  605MOL0     H81622   4.308   9.587   3.532 -0.2630  1.4608  0.6975
  605MOL0     H81623   4.395   9.433   3.523  1.1750 -0.1149  0.4757
  605MOL0     H81624   4.578   9.525   3.643 -3.5314 -3.2050 -1.9599
  605MOL0     H81625   4.549   9.627   3.508 -1.0449  1.0108  0.9622
  605MOL0     H81626   4.307   9.803   3.633 -0.8456 -1.8170  0.7111
  605MOL0     H81627   4.451  10.115   3.837 -1.0440 -0.2481  1.8620
  605MOL0     H81628   4.370  10.092   3.674 -0.8294 -3.1948 -2.0280
  605MOL0     H81629   4.202   9.947   3.861 -0.0129 -0.5023  1.8499
  605MOL0     H81630   4.292  10.045   3.956 -0.8366 -2.0530  0.0783
  605MOL0     H81631   4.225  10.247   3.849  2.3900 -1.4396  0.6563
  605MOL0     H81632   4.075  10.166   3.893 -0.9776  1.8944 -0.8044
  605MOL0     H81633   4.170  10.148   3.607 -0.3907 -3.4762 -1.5707
  605MOL0     H81634   4.031  10.227   3.674  4.0808  3.7530 -0.8252
  605MOL0     H81635   3.851  10.194   3.802 -0.3240  0.4436 -1.5219
  605MOL0     H81636   3.630  10.148   3.858 -0.7824 -0.7861 -0.5003
  605MOL0     H81637   3.304   9.928   4.103  2.6491  0.4826 -0.8690
  605MOL0     H81638   3.047   9.922   4.131  0.2588  0.8500 -1.3728
  605MOL0     H81639   2.860   9.818   4.062  0.8236  1.1524  2.0634
  605MOL0     H81640   2.835   9.982   4.127  0.9496 -1.1334  0.4410
  605MOL0     H81641   2.607   9.857   4.107  0.1890  0.7653 -0.0366
  605MOL0     H81642   2.627  10.004   4.005 -1.0461  0.0129  0.9023
  605MOL0     H81643   2.639   9.847   3.817  0.1108  0.2746 -0.6466
  605MOL0     H81644   2.679   9.709   3.919 -0.5344  0.2938  2.8937
  605MOL0     H81645   2.421   9.782   4.005  1.4104 -1.2148  1.5439
  605MOL0     H81646   2.462   9.655   3.901  0.2540 -0.0233 -0.7155
  605MOL0     H81647   2.443   9.836   3.702  2.2884  0.8181  0.2126
  605MOL0     H81648   2.401   9.951   3.838 -2.5818 -0.5341  2.6821
  605MOL0     H81649   2.181   9.873   3.854  1.8790 -2.2076  3.7315
  605MOL0     H81650   2.219   9.884   3.688 -2.0151  2.6766  1.4316
  605MOL0     H81651   2.211   9.646   3.883  1.0646 -4.2939 -0.3473
  605MOL0     H81652   2.272   9.623   3.717 -3.3094 -1.1761 -1.2529
  605MOL0     H81653   2.067   9.708   3.623  0.7040  0.7390  0.7896
  605MOL0     H81654   2.023   9.570   3.720 -0.6670 -0.2026 -0.0963
  605MOL0     H81655   3.005  10.030   3.720  0.8596  0.2287 -0.6329
  605MOL0     H81656   3.239  10.048   3.697 -1.6430  0.7326 -0.6640
  605MOL0     H81657   3.686   9.730   3.722 -2.3641  0.1704  1.6541
  605MOL0     H81658   3.908   9.792   3.659 -0.6824  0.2522 -1.7747
  605MOL0     H81659   3.566   9.215   3.480  0.3380  0.5193  0.5540
  605MOL0     H81660   3.350   9.146   3.485  3.4159  2.2656 -3.2434
  605MOL0     H81661   2.925   9.267   3.467  1.4942  0.0355  1.0642
  605MOL0     H81662   2.708   9.172   3.406  0.3988  0.4132 -0.0013
  605MOL0     H81663   2.414   8.988   3.419  0.4827  0.1848  0.2812
  605MOL0     H81664   2.546   9.088   3.366  1.0828  0.9065  0.3718
  605MOL0     H81665   2.311   9.215   3.380 -1.7186  0.5396  1.5259
  605MOL0     H81666   2.459   9.284   3.452 -0.6581  0.5228 -3.0589
  605MOL0     H81667   2.397   9.196   3.671 -1.0249 -0.7738 -0.0787
  605MOL0     H81668   2.249   9.130   3.603  0.5486 -1.1608  1.4030
  605MOL0     H81669   2.212   9.343   3.715 -0.0705 -2.5142 -0.2423
  605MOL0     H81670   2.313   9.429   3.605 -1.3165  2.4922 -0.2828
  605MOL0     H81671   1.952   9.392   3.376 -0.6432 -2.0969 -0.7998
  605MOL0     H81672   2.676   8.964   3.774  0.6383 -1.6335 -0.9351
  605MOL0     H81673   2.862   8.900   3.884 -0.1117 -1.1308 -2.9258
  605MOL0     H81674   3.025   8.965   3.853  0.2492 -1.6728  1.8712
  605MOL0     H81675   2.900   9.052   3.953 -2.2317  0.1709 -2.0833
  606MOL0     O81676   2.055   1.440   2.482  0.4144  0.2720 -0.2818
  606MOL0     C81677   2.032   1.326   2.512 -0.7406  0.0834 -0.3242
  606MOL0     O81678   2.133   1.233   2.510  0.3449 -0.0574 -0.0251
  606MOL0     C81679   2.262   1.262   2.555 -0.1431 -0.4837 -0.7196
  606MOL0     C81680   2.293   1.371   2.630  0.4514 -0.1796  0.0572
  606MOL0     C81681   2.428   1.391   2.666 -0.3258 -0.9843 -0.3977
  606MOL0     C81682   2.523   1.289   2.664 -0.1521 -0.2322  0.5973
  606MOL0     O81683   2.637   1.316   2.725  0.1953 -0.1170  0.7232
  606MOL0     C81684   2.752   1.245   2.680 -0.0853  0.2900 -1.4810
  606MOL0     C81685   2.869   1.298   2.753 -0.0938  0.0979 -0.0983
  606MOL0     C81686   2.991   1.279   2.667 -0.6056 -0.8366 -1.1489
  606MOL0     C81687   3.112   1.369   2.708 -0.4482 -0.1654 -0.1144
  606MOL0     C81688   3.240   1.305   2.652 -0.2702 -0.5985 -0.6224
  606MOL0     C81689   3.256   1.295   2.497  0.5527  0.3787  0.0841
  606MOL0     C81690   3.372   1.207   2.447 -0.1243  0.9481 -0.5162
  606MOL0     C81691   3.501   1.273   2.467 -0.5808  0.4505 -0.4349
  606MOL0     N81692   3.520   1.406   2.403  0.5354 -0.5238  0.4723
  606MOL0     C81693   3.516   1.520   2.472 -0.8657 -0.6225 -0.6807
  606MOL0     C81694   3.534   1.620   2.382  0.2369  0.3153 -0.1036
  606MOL0     C81695   3.529   1.759   2.411 -0.9626  0.1925  0.3962
  606MOL0     C81696   3.650   1.819   2.478 -0.1627  0.3596  0.5013
  606MOL0     C81697   3.774   1.852   2.381  0.6587  0.0078  0.0225
  606MOL0     C81698   3.887   1.920   2.460 -0.7351  0.5915  0.0888
  606MOL0     O81699   3.945   1.821   2.550 -0.0174 -0.3631  0.7033
  606MOL0     C81700   4.058   1.763   2.507 -0.2450  0.2758  0.0002
  606MOL0     C81701   4.086   1.709   2.385  1.1258 -0.2332 -0.0544
  606MOL0     C81702   4.196   1.628   2.368 -0.2425 -0.2610 -0.5990
  606MOL0     C81703   4.275   1.585   2.477  0.1151 -0.0799 -0.1354
  606MOL0     C81704   4.386   1.484   2.456  0.4660 -1.1471 -0.3482
  606MOL0     O81705   4.425   1.421   2.566  0.3368 -0.2655 -0.1642
  606MOL0     C81706   4.518   1.322   2.554  0.0221  0.1795  0.1050
  606MOL0     C81707   4.648   1.362   2.531 -0.2999  0.0187  0.3190
  606MOL0     C81708   4.747   1.261   2.519 -0.1972  1.1290  0.2965
  606MOL0     C81709   4.710   1.121   2.520 -0.9525  0.6371 -0.5564
  606MOL0     O81710   4.819   1.029   2.522  0.2150  0.1323  0.5217
  606MOL0     C81711   4.892   1.006   2.395  0.0294 -0.1222  1.5440
  606MOL0     C81712   5.021   0.934   2.431  0.7288  0.6975 -0.7493
  606MOL0     C81713   4.987   0.785   2.451  0.2226 -0.7527 -0.3406
  606MOL0     C81714   5.095   0.688   2.491 -0.3814 -0.0955 -0.0635
  606MOL0     C81715   5.221   0.692   2.395 -0.1117 -0.0954  0.1013
  606MOL0     C81716   5.170   0.654   2.251  0.3325 -0.6026 -0.8237
  606MOL0     C81717   5.291   0.650   2.150  0.1890 -0.6859 -0.3228
  606MOL0     C81718   5.256   0.553   2.040  0.4831  0.0716  0.1936
  606MOL0    Cl81719   5.127   0.619   1.926 -0.0930 -0.3659 -0.1874
  606MOL0     C81720   4.578   1.084   2.545 -0.9725 -0.3901 -0.0137
  606MOL0     C81721   4.481   1.189   2.555 -0.0334 -0.5010 -0.8029
  606MOL0     O81722   4.430   1.466   2.345  0.4708  0.6924  0.7467
  606MOL0     C81723   4.240   1.630   2.605 -0.5942  0.4493 -0.1572
  606MOL0     C81724   4.131   1.715   2.625  0.1456 -0.2995  0.9591
  606MOL0     N81725   3.546   1.562   2.259 -0.3778 -0.1200 -0.6523
  606MOL0     N81726   3.552   1.433   2.273 -0.3659  0.6241  0.3664
  606MOL0     C81727   2.496   1.173   2.589 -0.1473  1.2270 -1.9519
  606MOL0     C81728   2.365   1.163   2.540 -0.5251 -0.5203  0.0979
  606MOL0     C81729   1.897   1.280   2.557 -0.0969 -0.1355  0.0046
  606MOL0     C81730   1.891   1.148   2.605  0.0571  0.6433 -0.3966
  606MOL0     C81731   1.769   1.100   2.649  0.1543 -0.2521 -0.0060
  606MOL0     C81732   1.651   1.176   2.654 -1.1237 -0.1126  0.8393
  606MOL0     O81733   1.528   1.129   2.693  0.8392  0.7702  0.2773
  606MOL0     C81734   1.518   1.015   2.777  0.7926 -0.3723  0.2015
  606MOL0     C81735   1.370   0.983   2.789  0.4408  0.6556  0.4692
  606MOL0     C81736   1.300   1.046   2.911  0.7643 -0.5250  0.2773
  606MOL0     C81737   1.175   0.967   2.940  0.4840  0.5343 -0.6659
  606MOL0     C81738   1.127   1.028   3.068  0.0258  0.2956  0.1163
  606MOL0     C81739   1.097   1.078   3.173 -0.6388 -1.0946 -0.5803
  606MOL0     C81740   1.655   1.306   2.607 -0.4080  0.1936  0.0280
  606MOL0     C81741   1.777   1.354   2.558 -0.2730  0.1776 -0.1890
  606MOL0     C81742   1.779   1.496   2.506 -0.1537 -0.0513 -0.6332
  606MOL0     H81743   2.219   1.451   2.641 -0.1763 -0.5541 -1.2231
  606MOL0     H81744   2.453   1.473   2.731 -3.0059  0.7654 -1.3969
  606MOL0     H81745   2.746   1.140   2.711 -4.6742  0.9550  0.8740
  606MOL0     H81746   2.760   1.249   2.571 -2.0277  2.3633 -1.6186
  606MOL0     H81747   2.884   1.257   2.853 -1.8243 -0.1586  0.0801
  606MOL0     H81748   2.853   1.405   2.770 -1.4075 -0.3879  1.9905
  606MOL0     H81749   2.965   1.302   2.563 -1.0427 -1.2509 -1.1306
  606MOL0     H81750   3.016   1.173   2.666 -1.0227 -0.9400 -0.7847
  606MOL0     H81751   3.102   1.475   2.684 -0.2999  0.2360  1.4694
  606MOL0     H81752   3.120   1.360   2.816 -1.6635  1.4955  0.1561
  606MOL0     H81753   3.323   1.357   2.702 -2.7113  1.7162  1.3038
  606MOL0     H81754   3.252   1.201   2.684  1.2627  0.2030  1.6869
  606MOL0     H81755   3.172   1.234   2.466  0.8942 -0.4029  0.6568
  606MOL0     H81756   3.237   1.389   2.444 -1.4752  0.5135  0.9559
  606MOL0     H81757   3.360   1.183   2.341  1.4615 -3.5030  0.0995
  606MOL0     H81758   3.361   1.109   2.495 -1.2060  1.7629  0.9959
  606MOL0     H81759   3.517   1.289   2.574  0.1384  1.4196 -0.6802
  606MOL0     H81760   3.584   1.211   2.433  0.7512  2.4910 -1.0575
  606MOL0     H81761   3.512   1.529   2.580  1.7947  0.3238 -0.5797
  606MOL0     H81762   3.511   1.812   2.317 -2.9246 -1.4951 -0.2470
  606MOL0     H81763   3.436   1.770   2.468 -1.2447 -1.3027  0.2723
  606MOL0     H81764   3.614   1.917   2.512 -4.1912  0.1995 -2.5102
  606MOL0     H81765   3.693   1.759   2.558 -0.3210 -1.7342 -0.9176
  606MOL0     H81766   3.733   1.917   2.303  0.6928 -2.4839 -2.2072
  606MOL0     H81767   3.800   1.760   2.329 -0.1364  1.5441 -3.3833
  606MOL0     H81768   3.827   1.993   2.515 -4.3943 -0.9713 -1.4908
  606MOL0     H81769   3.973   1.962   2.408  0.2896 -0.1098  1.1707
  606MOL0     H81770   4.015   1.714   2.303 -1.4369  2.1553  2.0999
  606MOL0     H81771   4.209   1.589   2.268  0.5668 -1.3001 -0.1015
  606MOL0     H81772   4.666   1.468   2.518  1.3235 -0.0472  1.6494
  606MOL0     H81773   4.850   1.290   2.506  0.2164 -1.0780 -2.1171
  606MOL0     H81774   4.829   0.945   2.329  3.2994  0.2162 -2.2415
  606MOL0     H81775   4.909   1.102   2.345 -2.3336 -0.3870  0.0284
  606MOL0     H81776   5.104   0.941   2.361  0.0801  2.3047 -1.3954
  606MOL0     H81777   5.067   0.978   2.520  2.6016 -2.8690  0.2128
  606MOL0     H81778   4.916   0.774   2.533 -0.1873  0.9211 -0.4369
  606MOL0     H81779   4.943   0.741   2.361  0.0188  2.1437 -1.7821
  606MOL0     H81780   5.050   0.589   2.486  2.3700 -1.4135 -0.1061
  606MOL0     H81781   5.135   0.716   2.589  1.8326  1.6142 -1.3424
  606MOL0     H81782   5.292   0.620   2.435 -1.9875 -0.4843  3.0265
  606MOL0     H81783   5.271   0.790   2.386 -2.0824  0.8117 -2.1714
  606MOL0     H81784   5.119   0.557   2.257  0.7574 -0.7423  1.1990
  606MOL0     H81785   5.097   0.730   2.221  0.5871  0.4567  1.0373
  606MOL0     H81786   5.381   0.611   2.198  2.1026 -3.7967 -5.5900
  606MOL0     H81787   5.300   0.749   2.106 -1.8624  0.3276  1.3428
  606MOL0     H81788   5.340   0.505   1.988 -0.0061 -0.1495 -0.4023
  606MOL0     H81789   5.213   0.466   2.091 -0.5426  1.1479  1.2072
  606MOL0     H81790   4.557   0.981   2.572  0.3280 -1.0014 -1.2405
  606MOL0     H81791   4.375   1.167   2.548  0.2908 -2.4866  0.0564
  606MOL0     H81792   4.318   1.627   2.680 -0.7168 -0.8323 -0.0642
  606MOL0     H81793   4.099   1.746   2.724  0.3233 -0.2906  1.0132
  606MOL0     H81794   2.560   1.087   2.570  0.4502  1.9220 -3.1204
  606MOL0     H81795   2.337   1.080   2.476 -0.7535 -0.7168  0.4483
  606MOL0     H81796   1.971   1.075   2.598 -1.3343 -0.9347 -0.6331
  606MOL0     H81797   1.761   1.001   2.692  1.9094 -0.7870 -0.7937
  606MOL0     H81798   1.546   1.034   2.881  1.4455 -2.2568  0.4051
  606MOL0     H81799   1.572   0.933   2.728 -1.3754 -2.4293  1.0496
  606MOL0     H81800   1.372   0.876   2.811 -0.0703 -0.3782 -3.6472
  606MOL0     H81801   1.302   1.001   2.705 -3.0197 -0.0927  2.8832
  606MOL0     H81802   1.265   1.148   2.894 -2.6658 -1.7127 -0.6284
  606MOL0     H81803   1.367   1.038   2.997 -0.1386  0.6023  1.1125
  606MOL0     H81804   1.103   0.969   2.858  0.4187 -0.0376 -0.6285
  606MOL0     H81805   1.201   0.861   2.946 -0.0567  0.4779  1.1981
  606MOL0     H81806   1.054   1.130   3.256 -1.1584 -2.0523 -0.2259
  606MOL0     H81807   1.563   1.363   2.609 -1.5020 -1.3494 -2.1964
  606MOL0     H81808   1.687   1.554   2.513  0.0975  0.1597  1.9289
  606MOL0     H81809   1.850   1.558   2.561 -0.7790  0.9227 -0.9066
  606MOL0     H81810   1.794   1.511   2.399 -1.0250  1.5744 -0.5532
  607MOL0     O81811   1.378   5.927   0.502  0.4767 -0.1362 -1.0425
  607MOL0     C81812   1.308   5.845   0.438  0.5121  0.6200 -1.1397
  607MOL0     O81813   1.354   5.769   0.330 -0.1375 -0.3290  0.2429
  607MOL0     C81814   1.470   5.801   0.266 -0.7482 -0.2837  0.3296
  607MOL0     C81815   1.533   5.692   0.214  0.4992 -0.0864 -0.2668
  607MOL0     C81816   1.639   5.693   0.121  1.1919  0.7466 -0.2673
  607MOL0     C81817   1.703   5.823   0.092  0.3645  0.4508 -0.3926
  607MOL0     O81818   1.810   5.842   0.009 -0.1772  0.2460  0.2331
  607MOL0     C81819   1.878   5.728  -0.044 -0.0284 -0.4912 -0.3308
  607MOL0     C81820   1.983   5.670   0.048 -0.6656 -0.2753  0.0590
  607MOL0     C81821   2.107   5.764   0.063  0.5426  0.2699 -0.3509
  607MOL0     C81822   2.179   5.768  -0.065 -0.1024 -0.3917 -0.1859
  607MOL0     C81823   2.311   5.854  -0.051 -0.0451 -1.0988 -0.6307
  607MOL0     C81824   2.395   5.858  -0.179  0.1644  0.2553  0.6879
  607MOL0     C81825   2.519   5.946  -0.174 -0.1329 -0.2600 -0.4827
  607MOL0     C81826   2.617   5.916  -0.066 -0.0202 -0.4245  0.1611
  607MOL0     N81827   2.747   5.977  -0.098 -0.2720  0.4045  0.2565
  607MOL0     C81828   2.835   5.958  -0.203  0.0450  0.7099 -0.2559
  607MOL0     C81829   2.931   6.057  -0.184  0.2514  0.8071 -0.3805
  607MOL0     C81830   3.050   6.079  -0.279  1.1432 -0.3667 -0.3080
  607MOL0     C81831   3.122   5.948  -0.309 -0.6371 -0.1615  0.4356
  607MOL0     C81832   3.261   5.968  -0.369 -0.7811  0.8288 -0.8089
  607MOL0     C81833   3.320   5.832  -0.417 -0.6536 -0.2031  0.1443
  607MOL0     O81834   3.450   5.863  -0.471 -0.8526  0.3083  0.3688
  607MOL0     C81835   3.547   5.766  -0.477 -0.3165 -0.7591 -0.5157
  607MOL0     C81836   3.608   5.731  -0.358 -0.2913 -0.2477 -0.6665
  607MOL0     C81837   3.728   5.665  -0.364  0.5174 -0.1363 -0.2842
  607MOL0     C81838   3.783   5.621  -0.488  0.3189  0.1045 -0.2076
  607MOL0     C81839   3.913   5.533  -0.500  0.7817  0.2528 -0.4469
  607MOL0     O81840   3.957   5.505  -0.622 -0.3192  0.2173  0.9057
  607MOL0     C81841   4.075   5.423  -0.625  0.5348 -0.2675 -0.4624
  607MOL0     C81842   4.176   5.463  -0.710  0.4483 -0.1680  0.2084
  607MOL0     C81843   4.278   5.367  -0.740 -1.4866  0.3226 -0.1894
  607MOL0     C81844   4.285   5.243  -0.681  0.4434  0.2216 -0.2744
  607MOL0     O81845   4.412   5.194  -0.700  0.4378  0.7841 -0.7109
  607MOL0     C81846   4.452   5.119  -0.581  0.9195 -0.2189  0.2967
  607MOL0     C81847   4.598   5.154  -0.557 -0.5780 -0.5580  0.9487
  607MOL0     C81848   4.679   5.097  -0.679 -0.0427  0.1328 -0.4905
  607MOL0     C81849   4.816   5.171  -0.685 -0.0092  0.7691 -0.7887
  607MOL0     C81850   4.915   5.108  -0.591  0.2266  0.7256  0.6112
  607MOL0     C81851   5.059   5.171  -0.595  0.2179 -0.0122  0.1272
  607MOL0     C81852   5.055   5.314  -0.530 -0.5634  0.4862  0.5781
  607MOL0     C81853   5.194   5.382  -0.508  1.1864  0.2129 -0.0424
  607MOL0    Cl81854   5.302   5.403  -0.649  0.0874 -0.1354 -0.0469
  607MOL0     C81855   4.179   5.208  -0.589 -0.1232  0.8453 -0.3907
  607MOL0     C81856   4.070   5.292  -0.571  0.0397  0.0858 -0.6479
  607MOL0     O81857   3.975   5.499  -0.392  0.1662 -0.0109  0.0644
  607MOL0     C81858   3.723   5.657  -0.606  0.4820 -1.3563  0.0873
  607MOL0     C81859   3.609   5.742  -0.602 -0.7283 -0.3534  0.3252
  607MOL0     N81860   2.911   6.120  -0.073 -0.5735  0.0892 -0.6548
  607MOL0     N81861   2.794   6.083  -0.026 -0.1599 -0.1059 -0.3451
  607MOL0     C81862   1.642   5.938   0.146 -0.1557 -0.5188 -0.3573
  607MOL0     C81863   1.523   5.926   0.231 -0.5272 -0.1049 -0.1495
  607MOL0     C81864   1.173   5.819   0.483 -0.1442  0.4317 -0.7922
  607MOL0     C81865   1.159   5.749   0.605  0.1546 -0.9005 -0.7313
  607MOL0     C81866   1.029   5.730   0.658 -0.3358 -0.7084 -0.0279
  607MOL0     C81867   0.916   5.756   0.581  0.3113  0.2655  0.4872
  607MOL0     O81868   0.794   5.698   0.620  0.0140  0.1732 -0.2346
  607MOL0     C81869   0.677   5.755   0.568 -0.1568 -0.3530 -0.0680
  607MOL0     C81870   0.555   5.711   0.654 -0.4816 -0.3445  0.1425
  607MOL0     C81871   0.530   5.564   0.650 -0.2055 -0.1559 -0.5027
  607MOL0     C81872   0.393   5.532   0.711 -0.7756  0.4511  0.0089
  607MOL0     C81873   0.341   5.396   0.674 -0.0859  0.3889  0.1286
  607MOL0     C81874   0.292   5.285   0.645 -0.3772  0.1932 -0.0227
  607MOL0     C81875   0.934   5.814   0.459 -0.1721 -0.5518  0.2846
  607MOL0     C81876   1.060   5.848   0.405  0.4022 -0.1227 -0.7784
  607MOL0     C81877   1.079   5.918   0.272  0.3343  0.0040  0.3930
  607MOL0     H81878   1.477   5.602   0.237 -2.2432  1.0935 -1.8471
  607MOL0     H81879   1.670   5.599   0.078  1.0514  1.0590 -1.0769
  607MOL0     H81880   1.809   5.647  -0.070 -0.4042  0.5861 -3.0171
  607MOL0     H81881   1.918   5.764  -0.140 -1.0943  2.5971  0.2863
  607MOL0     H81882   2.013   5.574   0.005  0.1857  0.9651 -2.3217
  607MOL0     H81883   1.940   5.645   0.146  0.8976  0.1037  0.8615
  607MOL0     H81884   2.174   5.724   0.139  0.6667 -0.1803 -0.6947
  607MOL0     H81885   2.083   5.861   0.108  1.9486 -0.2278  1.6028
  607MOL0     H81886   2.202   5.666  -0.098  2.1627  0.4604 -1.4194
  607MOL0     H81887   2.114   5.809  -0.143  0.0727 -1.9286 -1.1984
  607MOL0     H81888   2.291   5.957  -0.022  0.0014 -1.4362  0.6415
  607MOL0     H81889   2.362   5.810   0.035  2.5334  1.1518 -0.8683
  607MOL0     H81890   2.434   5.758  -0.201  5.6051  2.0510  0.6384
  607MOL0     H81891   2.346   5.900  -0.266  0.2770 -1.2748 -0.1488
  607MOL0     H81892   2.480   6.047  -0.154 -0.1542 -0.5378  1.0523
  607MOL0     H81893   2.565   5.924  -0.270  2.6499 -1.5017  1.0231
  607MOL0     H81894   2.580   5.956   0.029 -0.7607  0.2523 -0.4015
  607MOL0     H81895   2.648   5.811  -0.069  1.5718  0.0357 -0.5351
  607MOL0     H81896   2.833   5.890  -0.288  5.8729  1.4215 -1.4106
  607MOL0     H81897   3.008   6.117  -0.372 -1.5860  0.2142  1.0541
  607MOL0     H81898   3.113   6.151  -0.226 -0.8288 -0.2080  1.9818
  607MOL0     H81899   3.133   5.898  -0.212  1.3983  0.6803  0.6883
  607MOL0     H81900   3.058   5.897  -0.381 -2.0958  1.0585  0.8016
  607MOL0     H81901   3.325   6.002  -0.287  0.4005 -1.1337 -0.8519
  607MOL0     H81902   3.267   6.044  -0.448 -0.4645 -0.2258 -1.8330
  607MOL0     H81903   3.264   5.784  -0.497  1.2063  2.2686 -2.8476
  607MOL0     H81904   3.334   5.770  -0.328 -2.4291  1.7759  1.9312
  607MOL0     H81905   3.562   5.753  -0.262  1.8583  0.8007  0.1880
  607MOL0     H81906   3.779   5.657  -0.269 -1.3376  0.2742  0.7879
  607MOL0     H81907   4.183   5.559  -0.759 -2.2932 -0.5264 -1.0668
  607MOL0     H81908   4.357   5.394  -0.810  1.1072 -2.4006  1.4315
  607MOL0     H81909   4.395   5.152  -0.493 -1.0684  2.3765 -1.8033
  607MOL0     H81910   4.441   5.012  -0.600 -0.5150  0.1567 -1.1259
  607MOL0     H81911   4.598   5.263  -0.548 -0.0516 -0.0148 -3.2896
  607MOL0     H81912   4.642   5.110  -0.467 -0.9586 -2.2959  0.3420
  607MOL0     H81913   4.695   4.989  -0.680  1.1159  0.2716  0.1978
  607MOL0     H81914   4.623   5.114  -0.771  0.5000 -0.5312 -0.9445
  607MOL0     H81915   4.810   5.273  -0.646  1.2681 -0.1142  2.0030
  607MOL0     H81916   4.842   5.178  -0.791  1.3224  2.6137 -0.4005
  607MOL0     H81917   4.932   5.005  -0.624 -0.9207  0.5421  0.5395
  607MOL0     H81918   4.873   5.094  -0.491 -0.7652  0.0889  0.1197
  607MOL0     H81919   5.124   5.113  -0.529 -0.3465 -3.3511 -2.0525
  607MOL0     H81920   5.105   5.173  -0.694  1.7599  1.8245  0.8030
  607MOL0     H81921   4.998   5.311  -0.436 -1.7644 -1.2878 -0.1406
  607MOL0     H81922   4.993   5.379  -0.592 -3.9224 -0.1717  2.9587
  607MOL0     H81923   5.162   5.477  -0.463  0.1228 -1.1714  2.3118
  607MOL0     H81924   5.253   5.331  -0.431  2.0971  0.7230 -0.3777
  607MOL0     H81925   4.178   5.112  -0.538 -0.4107  1.5064  0.8920
  607MOL0     H81926   3.988   5.269  -0.505 -0.9345  1.4669 -1.3438
  607MOL0     H81927   3.761   5.625  -0.702 -0.8328 -2.1992 -0.1852
  607MOL0     H81928   3.576   5.789  -0.694 -2.2155 -0.7004  0.6494
  607MOL0     H81929   1.690   6.034   0.130  1.7846 -0.9848  2.0983
  607MOL0     H81930   1.484   6.024   0.255  1.8430  0.8903 -0.1427
  607MOL0     H81931   1.252   5.721   0.655  1.7594  0.8428 -2.5710
  607MOL0     H81932   1.012   5.675   0.749 -3.2705  0.3167  0.1561
  607MOL0     H81933   0.664   5.716   0.466 -0.1517 -0.6972  0.0618
  607MOL0     H81934   0.682   5.864   0.575 -1.8872 -0.2581  0.0938
  607MOL0     H81935   0.470   5.764   0.612 -0.8134  0.3092  1.5667
  607MOL0     H81936   0.576   5.750   0.755  0.7807  1.8400 -0.8852
  607MOL0     H81937   0.616   5.515   0.697  0.2508 -0.4317 -1.5945
  607MOL0     H81938   0.529   5.532   0.545 -2.2260  2.8317 -1.5164
  607MOL0     H81939   0.405   5.534   0.819  0.0243 -1.7565  0.0102
  607MOL0     H81940   0.319   5.607   0.683  0.8620  1.8722 -0.7601
  607MOL0     H81941   0.247   5.194   0.611 -0.8983  0.9069 -1.2891
  607MOL0     H81942   0.855   5.834   0.387 -0.8203 -1.6394  0.6679
  607MOL0     H81943   1.092   6.024   0.292  1.0367 -0.7131  4.9399
  607MOL0     H81944   1.173   5.890   0.223  0.0789 -0.9216  0.4035
  607MOL0     H81945   0.987   5.911   0.213 -1.3527  0.0692  2.8532
  608MOL0     O81946   8.988   2.844   3.711  0.9039 -0.0566 -0.2118
  608MOL0     C81947   8.926   2.844   3.602  0.3432 -0.3804 -0.7665
  608MOL0     O81948   8.986   2.876   3.479  0.5197  0.4320  0.2636
  608MOL0     C81949   9.121   2.897   3.469  0.9466  0.4449  0.0892
  608MOL0     C81950   9.204   2.958   3.562  0.5351  0.0402  0.3560
  608MOL0     C81951   9.337   2.983   3.534 -0.2420 -0.1578 -0.6231
  608MOL0     C81952   9.403   2.942   3.416  0.3989 -0.1295 -1.0550
  608MOL0     O81953   9.540   2.962   3.392  0.5618 -0.5061 -0.2817
  608MOL0     C81954   9.591   2.990   3.259 -0.0638  0.7377 -0.9399
  608MOL0     C81955   9.533   3.109   3.197 -0.0525 -0.6473  0.2632
  608MOL0     C81956   9.543   3.236   3.284  0.1881  1.0340  0.4194
  608MOL0     C81957   9.484   3.351   3.196  0.2239  0.2730  0.3749
  608MOL0     C81958   9.545   3.490   3.235 -0.1125 -0.0443  0.3706
  608MOL0     C81959   9.476   3.608   3.180  0.3151 -0.0764  0.5156
  608MOL0     C81960   9.499   3.636   3.029 -0.1601  0.6086  0.5561
  608MOL0     C81961   9.428   3.751   2.974 -0.0588  0.2430  0.4145
  608MOL0     N81962   9.482   3.874   3.035 -0.4647  0.6315  0.6849
  608MOL0     C81963   9.608   3.922   3.020 -0.5597 -0.9580 -0.3466
  608MOL0     C81964   9.595   4.052   3.074 -0.9633  0.3600 -0.3028
  608MOL0     C81965   9.703   4.148   3.095  0.1966 -0.2477  0.0968
  608MOL0     C81966   9.779   4.101   3.224  0.1345 -0.5663 -0.0477
  608MOL0     C81967   9.867   4.212   3.303 -0.0732  0.6156  0.1064
  608MOL0     C81968  10.014   4.248   3.254 -0.3696  0.3609 -0.0793
  608MOL0     O81969  10.030   4.270   3.113  0.0567 -0.3636  0.3833
  608MOL0     C81970  10.153   4.291   3.061 -0.9338  0.8936 -0.3900
  608MOL0     C81971  10.282   4.268   3.124  1.0440  0.9938 -0.1484
  608MOL0     C81972  10.408   4.271   3.060  0.0398  0.0125  0.3083
  608MOL0     C81973  10.410   4.319   2.929 -0.7620 -0.4424 -0.1906
  608MOL0     C81974  10.540   4.354   2.872 -0.3096 -0.7990 -0.3834
  608MOL0     O81975  10.553   4.418   2.752  0.6834 -0.3329 -0.0995
  608MOL0     C81976  10.669   4.441   2.704 -0.2165 -0.2102  0.6684
  608MOL0     C81977  10.715   4.575   2.715  1.3118 -0.3382  0.1354
  608MOL0     C81978  10.840   4.609   2.661 -0.0533  0.5312 -0.1689
  608MOL0     C81979  10.919   4.507   2.604  0.4599  0.4878 -0.3076
  608MOL0     O81980  11.053   4.524   2.576 -0.2917  0.1776  0.1832
  608MOL0     C81981  11.082   4.650   2.512  0.0137  0.2169  0.8861
  608MOL0     C81982  11.227   4.679   2.502  0.2939 -0.3723 -0.3472
  608MOL0     C81983  11.290   4.579   2.415 -0.5760  0.3115  0.5015
  608MOL0     C81984  11.446   4.558   2.446  0.4924 -0.2836 -0.1737
  608MOL0     C81985  11.465   4.461   2.555 -0.6406 -0.0316  0.3597
  608MOL0     C81986  11.610   4.444   2.608  0.3816 -0.4601  0.5166
  608MOL0     C81987  11.723   4.447   2.504  1.5676 -0.1531 -0.3610
  608MOL0     C81988  11.860   4.389   2.548 -0.1798 -0.4921  0.1075
  608MOL0    Cl81989  11.952   4.403   2.410  0.2459 -0.1106  0.0548
  608MOL0     C81990  10.865   4.373   2.590 -0.5406 -0.1471 -1.2350
  608MOL0     C81991  10.735   4.343   2.634 -0.6507 -0.2550  1.3595
  608MOL0     O81992  10.645   4.324   2.936  0.4346  0.4410 -0.8205
  608MOL0     C81993  10.289   4.350   2.863 -1.8088  1.1249 -0.3684
  608MOL0     C81994  10.165   4.326   2.920  0.0541  0.5195 -0.7327
  608MOL0     N81995   9.465   4.080   3.116 -0.0246  0.0016  0.2451
  608MOL0     N81996   9.394   3.973   3.083  0.0715  0.4889 -0.6812
  608MOL0     C81997   9.315   2.878   3.322 -0.6494  0.5758  0.3279
  608MOL0     C81998   9.182   2.852   3.346  0.7838  0.6712  0.1279
  608MOL0     C81999   8.785   2.792   3.597  0.0134  0.8846 -1.0050
  608MOL0     C82000   8.756   2.673   3.666 -0.0405 -0.5649 -0.4827
  608MOL0     C82001   8.633   2.613   3.633 -0.5425 -0.5826  0.2396
  608MOL0     C82002   8.545   2.669   3.540  0.2329 -0.2569 -0.2846
  608MOL0     O82003   8.434   2.594   3.519 -0.0131  0.3902 -0.3135
  608MOL0     C82004   8.328   2.646   3.443  0.0834 -0.2389 -0.7366
  608MOL0     C82005   8.243   2.727   3.540 -0.8977  0.7975  0.5493
  608MOL0     C82006   8.167   2.653   3.644 -0.5855  0.7033 -0.1989
  608MOL0     C82007   8.076   2.733   3.742 -0.4154  0.3684  0.4747
  608MOL0     C82008   8.149   2.797   3.860  0.5139 -0.3859 -0.4953
  608MOL0     C82009   8.208   2.851   3.954 -0.0865 -0.3813 -0.7706
  608MOL0     C82010   8.569   2.798   3.487  0.5666  0.1212 -0.6841
  608MOL0     C82011   8.689   2.860   3.520  0.4770 -0.1574  0.7905
  608MOL0     C82012   8.712   3.002   3.469 -0.1808 -0.3848  0.1155
  608MOL0     H82013   9.172   2.997   3.658  1.2995  0.3750  0.4851
  608MOL0     H82014   9.391   3.041   3.608  0.2298  2.9363 -3.1473
  608MOL0     H82015   9.700   2.988   3.267  0.2094  1.1889 -3.5894
  608MOL0     H82016   9.581   2.900   3.198  1.9009  1.7241 -2.8412
  608MOL0     H82017   9.426   3.094   3.179 -0.5640  2.4136  0.1927
  608MOL0     H82018   9.590   3.111   3.104 -0.8574 -2.7872 -0.3318
  608MOL0     H82019   9.643   3.269   3.312 -0.2649  1.6838  1.3284
  608MOL0     H82020   9.485   3.219   3.375  0.7140  1.2515  0.7959
  608MOL0     H82021   9.512   3.331   3.093  0.0558 -0.3092  0.4384
  608MOL0     H82022   9.375   3.349   3.187  0.0844  2.1230  1.3106
  608MOL0     H82023   9.553   3.495   3.344  2.5809 -2.6269  0.4063
  608MOL0     H82024   9.640   3.484   3.182 -0.9460 -0.6880 -1.1294
  608MOL0     H82025   9.366   3.606   3.185  0.2411  1.3930  0.2280
  608MOL0     H82026   9.515   3.700   3.226  3.4694 -1.3710  0.6489
  608MOL0     H82027   9.480   3.545   2.972 -0.1447  0.7628  0.3059
  608MOL0     H82028   9.607   3.651   3.019  0.4438 -1.5272  2.6928
  608MOL0     H82029   9.436   3.747   2.865  0.6592 -2.1272  0.4953
  608MOL0     H82030   9.320   3.744   2.991 -0.6631 -0.4297 -3.0500
  608MOL0     H82031   9.701   3.886   2.978  0.5265 -1.6061  2.3541
  608MOL0     H82032   9.774   4.172   3.015  1.2321  1.7550  1.5431
  608MOL0     H82033   9.652   4.242   3.115 -0.1904 -0.8288  2.0670
  608MOL0     H82034   9.704   4.057   3.291 -0.9551  0.8898 -0.2519
  608MOL0     H82035   9.845   4.024   3.183  1.1323  0.0711  0.3222
  608MOL0     H82036   9.863   4.177   3.407 -1.6017 -0.4382 -0.2769
  608MOL0     H82037   9.814   4.308   3.307 -1.0941  0.0363  0.7787
  608MOL0     H82038  10.081   4.166   3.281  1.8281  1.6112 -1.4354
  608MOL0     H82039  10.059   4.339   3.294  3.4308 -0.5928 -1.7100
  608MOL0     H82040  10.282   4.239   3.228 -0.3606 -0.4977 -0.5092
  608MOL0     H82041  10.490   4.245   3.126 -0.9792  2.1351  2.5533
  608MOL0     H82042  10.651   4.651   2.759  3.0827  0.7714  0.8595
  608MOL0     H82043  10.873   4.710   2.679 -0.2496  0.8541 -1.4722
  608MOL0     H82044  11.039   4.660   2.412 -2.7738  0.8672  2.0585
  608MOL0     H82045  11.034   4.739   2.555  0.3459  0.1770  1.3435
  608MOL0     H82046  11.244   4.773   2.450  1.8148 -0.6578 -0.4032
  608MOL0     H82047  11.273   4.685   2.601  0.8102 -0.7718 -0.5582
  608MOL0     H82048  11.245   4.480   2.421 -0.3262 -0.1634 -3.2775
  608MOL0     H82049  11.276   4.603   2.309 -2.0200 -0.4719  0.4939
  608MOL0     H82050  11.502   4.649   2.471  1.9317 -1.1789 -0.0447
  608MOL0     H82051  11.495   4.517   2.357  0.7515  0.5222 -0.4135
  608MOL0     H82052  11.427   4.364   2.524  1.0799 -0.7287  0.3015
  608MOL0     H82053  11.402   4.502   2.635 -1.2056  3.6836 -1.7399
  608MOL0     H82054  11.636   4.518   2.685  2.4835  1.0556 -1.5428
  608MOL0     H82055  11.609   4.346   2.658  0.6207 -0.4344  0.5718
  608MOL0     H82056  11.737   4.544   2.454  1.7664 -2.1433 -4.5976
  608MOL0     H82057  11.692   4.391   2.416 -0.5404 -0.6037  0.6156
  608MOL0     H82058  11.911   4.434   2.634  1.6501 -1.6423 -0.3090
  608MOL0     H82059  11.839   4.286   2.575  1.1983 -0.8887 -0.2308
  608MOL0     H82060  10.946   4.306   2.562  2.6351  2.7905  0.1089
  608MOL0     H82061  10.691   4.245   2.620 -0.6253 -0.1113  0.1132
  608MOL0     H82062  10.304   4.396   2.766  1.7707  0.7997 -0.0758
  608MOL0     H82063  10.075   4.332   2.860 -0.4502 -1.3407 -0.2299
  608MOL0     H82064   9.347   2.852   3.221  1.9480  0.9334  0.9952
  608MOL0     H82065   9.120   2.802   3.273 -1.2604  3.1455  0.0198
  608MOL0     H82066   8.830   2.621   3.727 -0.3433 -0.3526  0.0800
  608MOL0     H82067   8.601   2.517   3.673 -0.0721 -0.5319  0.7425
  608MOL0     H82068   8.261   2.569   3.406 -1.6808  1.4632 -1.2701
  608MOL0     H82069   8.369   2.706   3.361  1.3059  0.9822  0.7032
  608MOL0     H82070   8.174   2.794   3.488 -2.3901  0.0048  1.4229
  608MOL0     H82071   8.306   2.793   3.601  0.0241  0.7545 -0.3398
  608MOL0     H82072   8.225   2.587   3.710  0.3507  0.0447 -1.6256
  608MOL0     H82073   8.097   2.587   3.591  1.3057 -2.9760  1.4839
  608MOL0     H82074   8.010   2.799   3.686  1.5383  0.4770 -1.8936
  608MOL0     H82075   8.004   2.664   3.786 -0.7369  0.1887 -0.3186
  608MOL0     H82076   8.254   2.900   4.037 -1.6434 -0.9365  0.4546
  608MOL0     H82077   8.491   2.859   3.442 -0.7156 -0.8447  0.1572
  608MOL0     H82078   8.618   3.051   3.444 -0.3389 -0.7371  0.0191
  608MOL0     H82079   8.777   3.068   3.527 -1.0838  0.0565  0.6348
  608MOL0     H82080   8.760   2.991   3.371  1.2510 -2.3581  0.9743
  609MOL0     O82081   8.087  10.539   8.325  0.0421 -0.9955  0.0996
  609MOL0     C82082   8.040  10.646   8.303 -0.1051 -0.3158 -0.0651
  609MOL0     O82083   8.111  10.759   8.261 -0.1170 -0.1195 -0.1080
  609MOL0     C82084   8.242  10.764   8.299  0.0154  0.0262 -0.4668
  609MOL0     C82085   8.279  10.775   8.437 -0.3574  0.0778 -0.3084
  609MOL0     C82086   8.414  10.796   8.466 -0.4564 -0.0418  0.4164
  609MOL0     C82087   8.510  10.817   8.365  0.9101  0.0270 -0.4663
  609MOL0     O82088   8.646  10.842   8.382 -0.1513 -1.3516  0.1562
  609MOL0     C82089   8.685  10.866   8.525  0.8435  0.2705  0.8022
  609MOL0     C82090   8.830  10.894   8.547 -0.5400 -0.1651 -0.4071
  609MOL0     C82091   8.872  11.025   8.485 -0.7312  0.3012  0.3147
  609MOL0     C82092   9.030  11.040   8.491  1.2686  0.4350 -0.1976
  609MOL0     C82093   9.072  11.186   8.462  0.0438 -0.9038  0.3675
  609MOL0     C82094   9.235  11.194   8.459  0.4464  0.5903 -0.8626
  609MOL0     C82095   9.275  11.301   8.561 -0.1079 -0.0419  0.0188
  609MOL0     C82096   9.417  11.284   8.620 -0.1591 -1.0097  0.4879
  609MOL0     N82097   9.519  11.312   8.514  0.6853  0.2339  0.1535
  609MOL0     C82098   9.605  11.225   8.464  0.0280  0.0352 -0.2018
  609MOL0     C82099   9.700  11.290   8.397  0.3728 -0.1687 -0.3857
  609MOL0     C82100   9.805  11.218   8.320 -0.2298 -0.8776  0.6228
  609MOL0     C82101   9.912  11.161   8.407  0.0052  0.4414  0.0030
  609MOL0     C82102  10.002  11.062   8.333 -0.9322  1.0688 -0.6094
  609MOL0     C82103  10.084  11.115   8.218 -0.1597  0.3750  0.0851
  609MOL0     O82104  10.179  11.217   8.264 -0.3430  0.6969 -0.2587
  609MOL0     C82105  10.299  11.211   8.198  0.0177 -0.3013  0.7092
  609MOL0     C82106  10.307  11.200   8.061 -0.0619  0.3838  0.6779
  609MOL0     C82107  10.427  11.210   7.996 -1.0192  0.2651  0.6177
  609MOL0     C82108  10.551  11.210   8.060 -0.9675 -0.2991 -0.4375
  609MOL0     C82109  10.682  11.193   7.994 -0.7378 -0.2870 -0.0447
  609MOL0     O82110  10.794  11.181   8.073 -0.1436 -0.2027 -0.0858
  609MOL0     C82111  10.916  11.147   8.021 -0.0913  0.2803  0.2859
  609MOL0     C82112  10.954  11.049   7.930  0.7295  0.0315 -0.5578
  609MOL0     C82113  11.087  11.024   7.912 -0.5613 -0.0800 -0.0147
  609MOL0     C82114  11.185  11.097   7.985 -0.3481 -1.0149  0.7039
  609MOL0     O82115  11.323  11.073   7.979  0.1328 -1.1250 -0.1821
  609MOL0     C82116  11.374  10.969   7.895  0.4931 -0.1714 -0.0915
  609MOL0     C82117  11.517  10.956   7.936 -0.5913 -0.1621  0.0993
  609MOL0     C82118  11.609  11.079   7.928 -0.3221 -1.1825  0.6238
  609MOL0     C82119  11.756  11.050   7.969 -0.4629 -0.1283  0.3897
  609MOL0     C82120  11.848  11.166   7.970  0.2575  0.5615  1.2201
  609MOL0     C82121  11.860  11.228   7.830  0.9620 -0.4481 -0.3759
  609MOL0     C82122  11.980  11.324   7.827 -0.2117  1.0219 -0.6516
  609MOL0     C82123  11.979  11.398   7.694  0.0389  0.1066  0.2564
  609MOL0    Cl82124  12.046  11.307   7.572 -0.2341 -0.5659  0.2634
  609MOL0     C82125  11.142  11.203   8.061 -1.4587 -0.8932  0.2401
  609MOL0     C82126  11.009  11.226   8.082  0.1853 -0.3852 -0.1168
  609MOL0     O82127  10.687  11.180   7.874 -0.2039  0.1017  1.0083
  609MOL0     C82128  10.544  11.208   8.205  0.0075 -0.6632  1.4552
  609MOL0     C82129  10.424  11.215   8.268 -0.5963 -0.2168 -0.0448
  609MOL0     N82130   9.663  11.422   8.401 -0.2521 -0.2012 -0.4940
  609MOL0     N82131   9.548  11.438   8.465  0.4170 -0.6661  0.0152
  609MOL0     C82132   8.458  10.823   8.234  0.1149 -0.3985  0.3253
  609MOL0     C82133   8.321  10.804   8.200  0.2152  0.3098 -0.0858
  609MOL0     C82134   7.888  10.659   8.309  0.0224  0.0382  0.5559
  609MOL0     C82135   7.826  10.722   8.198  0.3375  0.0287 -0.6828
  609MOL0     C82136   7.683  10.711   8.179  0.2461  0.1500  1.0371
  609MOL0     C82137   7.614  10.639   8.286  0.5842 -0.3925  0.4879
  609MOL0     O82138   7.481  10.641   8.269  0.0332 -0.1490 -0.0147
  609MOL0     C82139   7.393  10.608   8.377  0.6203  0.1504  0.0841
  609MOL0     C82140   7.252  10.673   8.362 -0.0564 -0.3650  0.3820
  609MOL0     C82141   7.177  10.653   8.229 -0.8354  1.1620  0.3700
  609MOL0     C82142   7.040  10.719   8.212 -0.4935  0.7327 -0.8944
  609MOL0     C82143   6.952  10.653   8.307 -0.8873 -0.2328 -0.4480
  609MOL0     C82144   6.878  10.594   8.383  0.3477  0.9151  0.9774
  609MOL0     C82145   7.681  10.576   8.391  0.3411 -0.3425 -0.3480
  609MOL0     C82146   7.813  10.588   8.408  0.2497 -0.3253  0.2226
  609MOL0     C82147   7.874  10.522   8.526 -0.6738  0.0871 -0.3198
  609MOL0     H82148   8.214  10.778   8.524 -1.2478  4.6185 -0.8591
  609MOL0     H82149   8.445  10.795   8.570  1.5405 -0.5334 -0.1324
  609MOL0     H82150   8.616  10.940   8.565  1.1449 -0.0298  1.9213
  609MOL0     H82151   8.668  10.778   8.588  3.0739 -1.3173 -0.6612
  609MOL0     H82152   8.879  10.807   8.503  0.4419 -0.3051  0.9016
  609MOL0     H82153   8.851  10.910   8.653  0.5806  1.5698 -0.8307
  609MOL0     H82154   8.820  11.110   8.527 -1.5169  1.0733 -2.0435
  609MOL0     H82155   8.852  11.028   8.377 -0.5985 -0.9912  0.2374
  609MOL0     H82156   9.069  11.024   8.592 -2.7406  1.1935  1.6862
  609MOL0     H82157   9.068  10.964   8.423  0.3410  0.7908 -1.1393
  609MOL0     H82158   9.030  11.223   8.368 -2.8593  0.3534  2.0108
  609MOL0     H82159   9.028  11.262   8.527  3.1629  1.9811 -0.6091
  609MOL0     H82160   9.274  11.099   8.498 -2.3482  0.4203  1.9705
  609MOL0     H82161   9.270  11.224   8.360  2.4017  0.6953 -0.1752
  609MOL0     H82162   9.207  11.287   8.646 -0.4475 -2.5159 -0.5922
  609MOL0     H82163   9.262  11.403   8.523  1.5245  0.0971 -0.2366
  609MOL0     H82164   9.424  11.337   8.715  3.0987  0.4823 -0.4301
  609MOL0     H82165   9.423  11.178   8.649  0.1005 -1.0154  0.4163
  609MOL0     H82166   9.588  11.118   8.475 -1.2873  0.1875 -0.5714
  609MOL0     H82167   9.749  11.142   8.264 -0.8804  0.7184 -1.0305
  609MOL0     H82168   9.836  11.293   8.246 -3.5935  0.3667  0.2836
  609MOL0     H82169   9.975  11.237   8.453  1.7178 -1.5986  1.2253
  609MOL0     H82170   9.863  11.109   8.490  1.4585 -1.8382 -0.4727
  609MOL0     H82171   9.937  10.976   8.314 -2.5196  2.6840 -3.1416
  609MOL0     H82172  10.073  11.016   8.402  0.6887 -1.0864 -3.4905
  609MOL0     H82173  10.029  11.169   8.141  0.7139 -0.1582 -0.9344
  609MOL0     H82174  10.135  11.030   8.171 -2.2031 -1.8504  1.5942
  609MOL0     H82175  10.218  11.206   7.999  0.0242  0.2436  0.5392
  609MOL0     H82176  10.426  11.231   7.890 -2.4989  0.2638  0.6142
  609MOL0     H82177  10.877  10.992   7.879  2.5469 -0.9381 -2.3542
  609MOL0     H82178  11.102  10.940   7.846 -3.2809 -1.8576  1.4160
  609MOL0     H82179  11.320  10.879   7.928  0.5858  0.2139  1.1579
  609MOL0     H82180  11.365  10.991   7.788 -2.2643 -0.3993  0.0366
  609MOL0     H82181  11.528  10.903   8.031  1.8784 -1.3767 -0.7930
  609MOL0     H82182  11.558  10.878   7.871 -2.3917 -1.7525  0.7609
  609MOL0     H82183  11.609  11.117   7.825  0.1302 -2.4419  0.1461
  609MOL0     H82184  11.573  11.164   7.987 -1.6217  1.8329 -3.9076
  609MOL0     H82185  11.789  10.983   7.889  0.0511 -1.2071  1.4655
  609MOL0     H82186  11.756  11.003   8.068  0.9153  0.4127  0.6877
  609MOL0     H82187  11.945  11.127   8.002  0.5104  2.3922  2.8177
  609MOL0     H82188  11.816  11.246   8.037 -3.0493  2.3803 -2.1655
  609MOL0     H82189  11.869  11.146   7.758 -0.8412  1.4104 -2.8847
  609MOL0     H82190  11.765  11.275   7.804  3.0039  4.1854 -0.3713
  609MOL0     H82191  12.073  11.266   7.832  0.6041  2.1833 -1.8972
  609MOL0     H82192  11.987  11.394   7.911 -1.7190 -0.4089  0.7531
  609MOL0     H82193  11.874  11.421   7.669 -0.3549 -1.4541  0.3855
  609MOL0     H82194  12.044  11.486   7.699 -0.2191  0.2022  3.6771
  609MOL0     H82195  11.218  11.272   8.097 -2.3109  0.1863  0.0351
  609MOL0     H82196  10.996  11.311   8.147  3.8764  0.7563 -0.6396
  609MOL0     H82197  10.635  11.231   8.260  0.4652 -0.2246  0.5270
  609MOL0     H82198  10.438  11.232   8.375  0.3294  1.7648 -0.4405
  609MOL0     H82199   8.527  10.857   8.157  1.4625 -1.1458  1.1786
  609MOL0     H82200   8.283  10.821   8.100  1.6932  3.1652 -0.2807
  609MOL0     H82201   7.891  10.767   8.123  0.2600 -0.0882 -0.8201
  609MOL0     H82202   7.631  10.745   8.090 -1.2797 -2.4469  0.8416
  609MOL0     H82203   7.424  10.657   8.470  2.0478  2.3203 -1.4277
  609MOL0     H82204   7.377  10.501   8.389 -2.7291  0.1293 -2.8741
  609MOL0     H82205   7.266  10.781   8.377  0.1938 -0.7680  3.6937
  609MOL0     H82206   7.184  10.627   8.433 -1.4805 -0.8163 -1.2147
  609MOL0     H82207   7.162  10.546   8.213 -1.6455  0.7640  3.2632
  609MOL0     H82208   7.243  10.678   8.145 -0.6746  0.5699  0.3141
  609MOL0     H82209   7.041  10.827   8.230  2.3661  0.5075  0.9260
  609MOL0     H82210   6.998  10.701   8.112  0.0966  0.3399 -1.0758
  609MOL0     H82211   6.813  10.537   8.446 -0.0087  1.0235  0.7112
  609MOL0     H82212   7.622  10.517   8.459 -0.0972  0.9615  0.4389
  609MOL0     H82213   7.794  10.523   8.600 -0.8708 -1.2049 -0.4851
  609MOL0     H82214   7.909  10.422   8.500  1.0874  0.3410  0.8763
  609MOL0     H82215   7.968  10.568   8.560  1.6645 -5.0829  1.3943
  610MOL0     O82216   4.717   6.654   7.101 -1.3629 -0.1486  0.9790
  610MOL0     C82217   4.618   6.697   7.042 -0.1340 -0.9078 -0.2101
  610MOL0     O82218   4.595   6.698   6.898 -0.4898  0.7784 -0.8929
  610MOL0     C82219   4.700   6.694   6.808  1.0103  0.0190 -0.4564
  610MOL0     C82220   4.672   6.651   6.681  0.4445 -0.2989  0.7029
  610MOL0     C82221   4.772   6.643   6.572  0.7966 -0.5262 -0.1421
  610MOL0     C82222   4.900   6.699   6.593  0.2200 -0.0916  0.1814
  610MOL0     O82223   5.003   6.683   6.497  0.5047  0.3047  0.3068
  610MOL0     C82224   5.124   6.754   6.522 -0.9132 -0.4243  0.1122
  610MOL0     C82225   5.209   6.757   6.402 -0.0373  0.7400 -0.2606
  610MOL0     C82226   5.341   6.836   6.437  0.2584  0.0114 -0.2403
  610MOL0     C82227   5.444   6.836   6.314 -0.2172 -0.0366  0.2051
  610MOL0     C82228   5.569   6.923   6.353  0.7277  0.2264 -0.2253
  610MOL0     C82229   5.670   6.834   6.421  0.0945  0.4102 -0.5083
  610MOL0     C82230   5.803   6.900   6.452  0.6684 -0.6604 -0.7774
  610MOL0     C82231   5.894   6.924   6.326  0.4111  0.0564 -1.0465
  610MOL0     N82232   6.013   6.987   6.365  0.4862 -0.5256  0.1668
  610MOL0     C82233   6.039   7.115   6.397 -0.5577  0.1306  0.3692
  610MOL0     C82234   6.163   7.119   6.441 -1.6242 -0.5559  0.0053
  610MOL0     C82235   6.241   7.246   6.503 -0.5450 -0.0015  0.5175
  610MOL0     C82236   6.357   7.289   6.416  0.1292  0.1708 -0.5037
  610MOL0     C82237   6.475   7.192   6.415  0.3610  0.1230  0.3099
  610MOL0     C82238   6.591   7.256   6.344 -0.6537  0.4357 -0.0302
  610MOL0     O82239   6.706   7.165   6.337  0.8959 -0.0652  0.3464
  610MOL0     C82240   6.813   7.204   6.264  0.2708 -1.1108 -0.3542
  610MOL0     C82241   6.814   7.331   6.194  0.6842 -0.2552  0.0790
  610MOL0     C82242   6.915   7.356   6.111  0.3933 -0.6881  0.7496
  610MOL0     C82243   7.025   7.275   6.091 -0.4319  0.4426  0.3971
  610MOL0     C82244   7.153   7.308   6.013 -0.5535  0.4277  0.4481
  610MOL0     O82245   7.164   7.434   5.960 -0.3591 -1.4565 -0.5813
  610MOL0     C82246   7.270   7.458   5.882 -0.6050 -0.3445  0.2607
  610MOL0     C82247   7.257   7.443   5.743  0.0792  0.1294 -0.5249
  610MOL0     C82248   7.368   7.452   5.655 -0.4657 -1.1950 -0.5474
  610MOL0     C82249   7.491   7.490   5.705  0.0995  0.2158 -1.0712
  610MOL0     O82250   7.583   7.521   5.609  0.2894  0.1754 -0.3761
  610MOL0     C82251   7.710   7.564   5.655  0.4699 -0.0980  0.7335
  610MOL0     C82252   7.805   7.564   5.538  0.4477  0.4735 -0.4492
  610MOL0     C82253   7.948   7.604   5.589 -0.4003 -0.2108 -0.1456
  610MOL0     C82254   7.975   7.762   5.623 -0.3019  0.6101  0.3857
  610MOL0     C82255   8.077   7.775   5.738  0.1709  0.3092  0.7842
  610MOL0     C82256   8.218   7.762   5.683 -0.4435  0.5801  0.6675
  610MOL0     C82257   8.329   7.822   5.775 -0.0217  0.6396 -0.4132
  610MOL0     C82258   8.473   7.779   5.741 -0.0749 -0.4871  0.0627
  610MOL0    Cl82259   8.572   7.894   5.823 -0.5100  0.5656  0.3481
  610MOL0     C82260   7.511   7.494   5.845 -0.7977  0.0853 -0.8915
  610MOL0     C82261   7.401   7.486   5.934  0.3647  0.0316  0.0694
  610MOL0     O82262   7.242   7.221   6.020  0.8237  0.0260 -0.0487
  610MOL0     C82263   7.018   7.150   6.152 -0.8657 -0.0885 -0.2797
  610MOL0     C82264   6.912   7.116   6.238 -0.7708  0.0328 -0.3408
  610MOL0     N82265   6.218   6.994   6.420 -0.7399 -0.6862 -0.3522
  610MOL0     N82266   6.123   6.914   6.377  0.3583  0.7933 -0.8096
  610MOL0     C82267   4.926   6.746   6.722  0.0760 -0.4522 -0.6093
  610MOL0     C82268   4.831   6.740   6.832  0.0834  0.2718  0.7456
  610MOL0     C82269   4.518   6.750   7.135  0.6599 -0.6253  0.2117
  610MOL0     C82270   4.558   6.803   7.261  0.0650 -0.5209 -0.5772
  610MOL0     C82271   4.474   6.869   7.352  0.7007  0.1403  0.0070
  610MOL0     C82272   4.333   6.862   7.320 -0.0195  0.4180  0.3263
  610MOL0     O82273   4.249   6.919   7.409  0.1618  0.5151  0.8022
  610MOL0     C82274   4.105   6.906   7.408 -0.1541 -0.0703 -0.7783
  610MOL0     C82275   4.068   6.960   7.540 -0.7546 -0.2956  0.0245
  610MOL0     C82276   3.917   6.967   7.561  0.1479 -0.6763  0.1367
  610MOL0     C82277   3.896   7.089   7.644 -0.7290 -0.0911  0.1063
  610MOL0     C82278   3.760   7.121   7.670 -0.5717 -0.0168  0.0215
  610MOL0     C82279   3.644   7.130   7.697  0.1256 -0.8297  0.0318
  610MOL0     C82280   4.283   6.802   7.200 -0.1420  0.6364  0.6855
  610MOL0     C82281   4.372   6.750   7.104 -0.0829  0.5242 -0.0446
  610MOL0     C82282   4.321   6.706   6.968  0.8828 -0.7047 -0.4406
  610MOL0     H82283   4.574   6.609   6.660  0.8507 -0.6341 -0.6549
  610MOL0     H82284   4.754   6.594   6.476 -1.2900  2.3647 -1.3543
  610MOL0     H82285   5.105   6.854   6.563 -0.0169 -0.6921  1.2522
  610MOL0     H82286   5.183   6.701   6.598 -0.0056  0.3613 -0.0258
  610MOL0     H82287   5.152   6.809   6.325  1.0555 -0.1465 -1.7228
  610MOL0     H82288   5.245   6.656   6.379  2.0403  0.5290  3.2221
  610MOL0     H82289   5.393   6.790   6.521  1.5946 -0.2352 -1.1545
  610MOL0     H82290   5.308   6.936   6.468 -3.2837 -1.0200 -0.3085
  610MOL0     H82291   5.468   6.739   6.270 -2.6744  0.2168 -1.9284
  610MOL0     H82292   5.395   6.876   6.225  2.3580 -0.0468 -1.3166
  610MOL0     H82293   5.616   6.944   6.256 -0.0912  1.7407 -0.3169
  610MOL0     H82294   5.533   7.011   6.406 -0.4449  0.8327 -1.9554
  610MOL0     H82295   5.633   6.807   6.521  1.2185 -0.1199 -0.2202
  610MOL0     H82296   5.682   6.739   6.368  0.8311  0.0598  0.2502
  610MOL0     H82297   5.852   6.822   6.510 -0.1960 -1.0837 -0.6004
  610MOL0     H82298   5.773   6.986   6.511  0.5764 -2.0897  1.3500
  610MOL0     H82299   5.920   6.826   6.285  0.4747 -0.7080  0.7283
  610MOL0     H82300   5.839   6.982   6.251 -0.3525 -1.2519 -1.5323
  610MOL0     H82301   5.979   7.205   6.386 -0.3739  0.4749  1.8726
  610MOL0     H82302   6.174   7.333   6.507 -0.5107 -0.0148  1.4486
  610MOL0     H82303   6.280   7.230   6.603  3.9946  1.6489 -0.7477
  610MOL0     H82304   6.332   7.317   6.313  0.6968  0.7358 -0.4924
  610MOL0     H82305   6.405   7.379   6.455 -0.3654  0.5218 -0.7061
  610MOL0     H82306   6.447   7.097   6.368  0.7024 -0.3036  0.9530
  610MOL0     H82307   6.504   7.167   6.518  2.4432 -1.2813 -0.5426
  610MOL0     H82308   6.632   7.337   6.404 -2.9015  1.1694  0.5900
  610MOL0     H82309   6.564   7.285   6.242  0.1108  2.8094  0.3944
  610MOL0     H82310   6.745   7.414   6.200  2.7484  1.8202 -2.3584
  610MOL0     H82311   6.916   7.459   6.078  0.8567 -1.1477 -0.7412
  610MOL0     H82312   7.157   7.419   5.708 -0.0118  0.6647 -0.6535
  610MOL0     H82313   7.353   7.447   5.548  0.8601 -0.4185 -0.7952
  610MOL0     H82314   7.695   7.666   5.691 -1.4811 -0.2009  0.2875
  610MOL0     H82315   7.752   7.495   5.729  3.4316 -1.8568 -2.2582
  610MOL0     H82316   7.805   7.473   5.477 -0.2900  2.3990 -3.4778
  610MOL0     H82317   7.775   7.630   5.457  0.3113  0.1717 -0.6470
  610MOL0     H82318   7.980   7.552   5.680  0.6909 -1.1255 -1.0243
  610MOL0     H82319   8.019   7.574   5.511 -1.6076 -2.7376 -0.3625
  610MOL0     H82320   7.880   7.802   5.661 -1.6514 -0.3597 -1.7574
  610MOL0     H82321   8.004   7.817   5.533  0.8432 -0.0657  0.3219
  610MOL0     H82322   8.067   7.699   5.816 -1.8504  0.2795  0.5506
  610MOL0     H82323   8.073   7.878   5.775  0.0405  0.7482 -0.4137
  610MOL0     H82324   8.226   7.653   5.679 -1.0694  0.5624 -0.9664
  610MOL0     H82325   8.230   7.803   5.582 -1.0804  1.3426  0.8917
  610MOL0     H82326   8.293   7.783   5.871 -2.5739  0.8573 -1.1982
  610MOL0     H82327   8.311   7.930   5.781 -1.5876  0.6477 -3.3642
  610MOL0     H82328   8.494   7.679   5.777  3.5211  0.6314  1.4397
  610MOL0     H82329   8.493   7.789   5.634  2.7986 -0.0794  0.5564
  610MOL0     H82330   7.607   7.521   5.886 -1.5584 -0.1579  1.1411
  610MOL0     H82331   7.425   7.510   6.037  0.6532 -1.0965  0.2751
  610MOL0     H82332   7.097   7.077   6.137 -0.2955 -0.2904  3.1094
  610MOL0     H82333   6.893   7.017   6.281 -1.1905  0.1824 -0.1702
  610MOL0     H82334   5.022   6.784   6.756 -1.5218 -0.3283  4.5986
  610MOL0     H82335   4.855   6.776   6.932  2.1236  0.8357  0.1073
  610MOL0     H82336   4.664   6.820   7.279 -0.2657 -0.1353  1.2632
  610MOL0     H82337   4.510   6.919   7.441 -0.2039 -2.3896  1.9081
  610MOL0     H82338   4.068   6.804   7.395 -0.3105  0.1811 -2.6031
  610MOL0     H82339   4.058   6.964   7.327  3.6587  1.3201 -2.2139
  610MOL0     H82340   4.121   7.053   7.566  0.5753 -0.8474 -0.6244
  610MOL0     H82341   4.117   6.901   7.618  0.5519 -0.4534 -0.8863
  610MOL0     H82342   3.873   6.874   7.599 -0.0482 -0.8405 -0.4727
  610MOL0     H82343   3.866   6.987   7.466 -1.5450  0.3466  1.2047
  610MOL0     H82344   3.948   7.079   7.740 -0.9828 -1.3414  0.1205
  610MOL0     H82345   3.946   7.175   7.597  0.9054 -2.5620 -3.0223
  610MOL0     H82346   3.542   7.124   7.728  0.2965 -1.5929  0.4758
  610MOL0     H82347   4.177   6.816   7.181 -0.2570 -1.8124 -0.9220
  610MOL0     H82348   4.213   6.687   6.972  1.1125 -1.9787  2.2130
  610MOL0     H82349   4.342   6.790   6.902  4.2721  2.3268  3.9312
  610MOL0     H82350   4.379   6.617   6.940 -0.3615 -1.1490 -1.7037
  611MOL0     O82351   9.216   4.885   0.239 -1.1826  0.1026  0.5473
  611MOL0     C82352   9.294   4.842   0.160 -0.0291  0.0528  0.4197
  611MOL0     O82353   9.414   4.902   0.126  0.1304  0.0085 -0.7373
  611MOL0     C82354   9.450   5.014   0.200 -0.5928  0.4361  1.2011
  611MOL0     C82355   9.554   4.991   0.297  0.4069 -0.0894 -0.7927
  611MOL0     C82356   9.584   5.087   0.385 -0.0138  0.2271  0.2697
  611MOL0     C82357   9.529   5.213   0.379 -0.0817 -0.1979  1.1195
  611MOL0     O82358   9.575   5.309   0.463 -0.2663 -0.3324  0.9547
  611MOL0     C82359   9.715   5.339   0.431 -0.4710  0.0388  0.2794
  611MOL0     C82360   9.771   5.431   0.539 -0.4789 -0.0357 -0.0363
  611MOL0     C82361   9.922   5.436   0.541  0.1138 -0.2747  0.5701
  611MOL0     C82362   9.978   5.310   0.612 -0.1076  1.0662 -0.3519
  611MOL0     C82363  10.127   5.338   0.655  0.1639 -1.1408 -0.8583
  611MOL0     C82364  10.186   5.210   0.707 -0.5202  0.6072  0.1596
  611MOL0     C82365  10.320   5.196   0.773  0.1651  0.0587  0.3453
  611MOL0     C82366  10.421   5.160   0.671  0.1646  0.9982 -0.1927
  611MOL0     N82367  10.443   5.253   0.563  0.4052 -0.0128  0.5790
  611MOL0     C82368  10.486   5.220   0.438 -0.7071 -0.2484  0.0635
  611MOL0     C82369  10.530   5.322   0.374 -0.6609  0.3040  0.6125
  611MOL0     C82370  10.577   5.325   0.225 -0.1582 -0.8802 -0.8244
  611MOL0     C82371  10.726   5.347   0.198 -0.7777 -0.0486  0.1872
  611MOL0     C82372  10.793   5.210   0.153  0.4656 -0.0572  0.8375
  611MOL0     C82373  10.812   5.106   0.277  0.6691  0.0652  0.0882
  611MOL0     O82374  10.885   4.991   0.241 -0.6523 -0.1973 -0.1613
  611MOL0     C82375  10.989   4.946   0.321 -0.7315 -0.3259 -0.7444
  611MOL0     C82376  10.988   4.972   0.461 -0.4963 -0.7326 -0.0520
  611MOL0     C82377  11.099   4.950   0.538  0.3667  0.7229 -0.4612
  611MOL0     C82378  11.210   4.891   0.471 -0.5053  0.9831 -0.0312
  611MOL0     C82379  11.333   4.845   0.545 -0.3756  0.5453 -0.6490
  611MOL0     O82380  11.435   4.795   0.479 -0.0939  0.9164  0.2177
  611MOL0     C82381  11.555   4.788   0.545 -0.2307 -0.2227 -0.1095
  611MOL0     C82382  11.619   4.889   0.617  0.2426  0.6716 -0.1703
  611MOL0     C82383  11.754   4.880   0.654  0.8499 -0.5712 -0.2537
  611MOL0     C82384  11.831   4.771   0.633 -0.1283 -0.2447 -0.3384
  611MOL0     O82385  11.962   4.768   0.680 -0.4586  0.2579  0.0294
  611MOL0     C82386  12.027   4.645   0.680 -0.3239  0.1260  0.2146
  611MOL0     C82387  12.158   4.649   0.763 -0.2456  0.3957  0.4454
  611MOL0     C82388  12.128   4.672   0.902  0.1452  0.6845  0.8945
  611MOL0     C82389  12.267   4.666   0.974 -0.7380  0.3746  0.5747
  611MOL0     C82390  12.249   4.698   1.120  0.2717 -0.4834  0.2723
  611MOL0     C82391  12.366   4.657   1.217 -0.0312  0.1701 -0.1914
  611MOL0     C82392  12.508   4.699   1.161 -0.4031 -0.1975  0.4919
  611MOL0     C82393  12.541   4.833   1.217  0.6549 -0.7583  0.4283
  611MOL0    Cl82394  12.713   4.871   1.196  0.3836  0.2962  0.1379
  611MOL0     C82395  11.762   4.669   0.562 -0.1247  0.9112  0.1290
  611MOL0     C82396  11.637   4.677   0.517  1.4279  0.2942 -0.3176
  611MOL0     O82397  11.326   4.852   0.669  0.4000 -0.0976  0.5050
  611MOL0     C82398  11.214   4.860   0.332  0.2455 -0.3620  0.5071
  611MOL0     C82399  11.106   4.898   0.264  0.5351 -0.1321 -0.1597
  611MOL0     N82400  10.501   5.440   0.456  0.4014  0.4379 -0.1986
  611MOL0     N82401  10.455   5.392   0.573  0.3654  0.4902  0.2490
  611MOL0     C82402   9.430   5.242   0.284  0.0803  0.3086 -0.4277
  611MOL0     C82403   9.393   5.137   0.191 -0.6633  0.1594  0.7977
  611MOL0     C82404   9.258   4.719   0.081 -0.1589  0.2140 -0.3987
  611MOL0     C82405   9.362   4.635   0.047  0.0227  0.6834 -0.3823
  611MOL0     C82406   9.346   4.519  -0.039 -0.1763 -0.7823  0.3138
  611MOL0     C82407   9.219   4.487  -0.089  0.6309  0.5032 -0.3094
  611MOL0     O82408   9.186   4.380  -0.180  0.2720 -0.5093 -0.6539
  611MOL0     C82409   9.297   4.293  -0.222 -0.0173  0.0710 -0.2515
  611MOL0     C82410   9.330   4.179  -0.130  0.6149  0.3245 -0.2135
  611MOL0     C82411   9.462   4.104  -0.168  0.3294  0.0847  0.3848
  611MOL0     C82412   9.532   4.041  -0.047  0.2754 -1.0534  0.3672
  611MOL0     C82413   9.570   4.144   0.052 -0.8884  0.8467 -0.1350
  611MOL0     C82414   9.602   4.230   0.132 -0.4774  1.1537 -0.4000
  611MOL0     C82415   9.109   4.578  -0.055  0.3462 -0.0519 -0.2269
  611MOL0     C82416   9.125   4.697   0.015 -0.0292  0.3600 -0.2099
  611MOL0     C82417   9.014   4.779   0.030  0.3450  0.3358 -0.1657
  611MOL0     H82418   9.593   4.892   0.317  0.0809 -0.2512 -0.9511
  611MOL0     H82419   9.667   5.072   0.453  2.4719 -0.1295 -2.6024
  611MOL0     H82420   9.783   5.253   0.428  2.5231  2.2700 -0.2507
  611MOL0     H82421   9.728   5.389   0.335  0.5273  0.6382  0.7034
  611MOL0     H82422   9.732   5.395   0.634 -4.3866  0.0841 -1.4174
  611MOL0     H82423   9.729   5.532   0.529  2.1387  1.2763  1.1446
  611MOL0     H82424   9.959   5.533   0.575 -0.1031  0.0087  0.0063
  611MOL0     H82425   9.958   5.436   0.438  4.8819 -1.2694  1.9775
  611MOL0     H82426   9.915   5.283   0.698 -0.5028 -1.5661 -1.3550
  611MOL0     H82427   9.971   5.217   0.554 -0.8010  0.1915  1.0750
  611MOL0     H82428  10.172   5.373   0.562 -2.4475  0.4020 -1.6656
  611MOL0     H82429  10.124   5.411   0.736 -4.4247 -1.8106 -0.0968
  611MOL0     H82430  10.118   5.181   0.788  1.8040 -2.1622  1.2776
  611MOL0     H82431  10.186   5.126   0.638  1.7808 -0.9542  1.9236
  611MOL0     H82432  10.315   5.113   0.843  1.6513 -0.3490  0.0157
  611MOL0     H82433  10.350   5.294   0.813 -0.6870 -0.3560  2.0806
  611MOL0     H82434  10.513   5.146   0.728  0.3322  0.2811 -0.6240
  611MOL0     H82435  10.407   5.059   0.630 -0.2576  1.4356 -1.1655
  611MOL0     H82436  10.497   5.115   0.413 -3.1641 -0.7288  0.8005
  611MOL0     H82437  10.536   5.239   0.171 -0.2694 -0.6029 -1.1913
  611MOL0     H82438  10.528   5.411   0.177 -1.5697 -0.8419  0.6267
  611MOL0     H82439  10.726   5.414   0.111 -2.0872  0.8745  0.8661
  611MOL0     H82440  10.780   5.393   0.281 -4.1861  1.4664  1.7411
  611MOL0     H82441  10.888   5.248   0.115 -0.4563  0.1192 -1.5067
  611MOL0     H82442  10.741   5.179   0.061  1.0762  0.7396  0.2113
  611MOL0     H82443  10.713   5.066   0.304  1.8622 -3.6251 -0.4379
  611MOL0     H82444  10.842   5.168   0.361  0.2613  1.5667 -0.8203
  611MOL0     H82445  10.898   4.999   0.515 -3.0989 -1.3398 -3.7012
  611MOL0     H82446  11.112   4.976   0.642  0.0926  0.4166 -0.3487
  611MOL0     H82447  11.574   4.988   0.620  3.2310  2.3325 -2.8859
  611MOL0     H82448  11.817   4.955   0.702  0.4981 -1.8632  2.4566
  611MOL0     H82449  11.962   4.566   0.720  0.4558 -0.0890  1.1159
  611MOL0     H82450  12.041   4.622   0.575 -1.4238 -1.4387  0.3782
  611MOL0     H82451  12.204   4.550   0.761  2.0651  1.2576  3.5515
  611MOL0     H82452  12.223   4.724   0.717 -0.0976 -0.6355 -1.0977
  611MOL0     H82453  12.080   4.770   0.907 -0.3774  0.4690  0.2546
  611MOL0     H82454  12.063   4.603   0.957  2.3752 -2.3706  0.0005
  611MOL0     H82455  12.338   4.737   0.932 -1.0145  0.4668  0.2556
  611MOL0     H82456  12.297   4.562   0.991  1.6255  1.1789  1.7007
  611MOL0     H82457  12.155   4.656   1.156 -1.8986  1.7686 -2.2557
  611MOL0     H82458  12.229   4.806   1.123 -3.7220 -1.0967  0.5401
  611MOL0     H82459  12.354   4.700   1.316  1.8248  0.1353  0.0893
  611MOL0     H82460  12.369   4.548   1.230  1.0145  0.0285 -1.3492
  611MOL0     H82461  12.504   4.709   1.052  1.0333  1.0189  0.5163
  611MOL0     H82462  12.593   4.634   1.185  3.5547  4.1418 -0.1769
  611MOL0     H82463  12.484   4.904   1.156 -0.2599 -2.1778 -0.4269
  611MOL0     H82464  12.504   4.846   1.319 -1.2642 -0.9054 -0.2058
  611MOL0     H82465  11.796   4.574   0.524 -2.7889 -0.1626  0.2361
  611MOL0     H82466  11.596   4.592   0.464  2.1023 -2.7073  3.5364
  611MOL0     H82467  11.297   4.820   0.274 -0.1659 -2.8937  1.5209
  611MOL0     H82468  11.105   4.876   0.157  0.5345  2.8013 -0.8461
  611MOL0     H82469   9.396   5.344   0.268  4.2281  1.4626 -3.3782
  611MOL0     H82470   9.329   5.151   0.104  0.2081 -0.6612  0.0185
  611MOL0     H82471   9.457   4.665   0.091  1.8174 -0.7764 -2.9536
  611MOL0     H82472   9.427   4.451  -0.065 -2.2165 -3.0428 -0.4938
  611MOL0     H82473   9.385   4.354  -0.242  1.1070 -1.7390 -1.1476
  611MOL0     H82474   9.264   4.261  -0.322 -2.2542  2.3235 -0.3332
  611MOL0     H82475   9.242   4.114  -0.130  0.8556 -0.0655 -2.1982
  611MOL0     H82476   9.330   4.216  -0.027 -1.6038  0.0528 -0.0715
  611MOL0     H82477   9.539   4.163  -0.218  1.5295 -4.7612 -4.4795
  611MOL0     H82478   9.448   4.033  -0.249  3.1728  3.1156 -3.1133
  611MOL0     H82479   9.475   3.957  -0.006  0.8991 -0.9364  1.5267
  611MOL0     H82480   9.626   4.000  -0.086  0.1347 -3.8274  2.5983
  611MOL0     H82481   9.632   4.304   0.202 -0.0419 -0.8688  1.6831
  611MOL0     H82482   9.014   4.548  -0.100 -0.4295  1.4819  0.3492
  611MOL0     H82483   8.960   4.745   0.119  0.0821  0.5228 -0.2519
  611MOL0     H82484   9.043   4.884   0.045 -2.1383  1.1099 -0.2627
  611MOL0     H82485   8.940   4.786  -0.051 -4.4341 -1.5428  3.5398
  612MOL0     O82486  10.123   5.572  10.316  0.1666 -0.7850  0.3402
  612MOL0     C82487  10.189   5.562  10.421  0.0731  0.7214  0.6263
  612MOL0     O82488  10.252   5.448  10.458  0.4019  0.2605  0.3068
  612MOL0     C82489  10.225   5.323  10.400 -0.1262  0.1772  0.8370
  612MOL0     C82490  10.235   5.309  10.263  0.3936  0.1327  0.7411
  612MOL0     C82491  10.190   5.190  10.201 -0.5966  0.5681 -0.7198
  612MOL0     C82492  10.141   5.079  10.276  0.3360  0.8201  0.0734
  612MOL0     O82493  10.102   4.955  10.224 -0.1288 -0.2477  0.0980
  612MOL0     C82494  10.123   4.939  10.082  0.0606 -0.3117 -0.6700
  612MOL0     C82495  10.109   4.783  10.067  0.0097 -0.4532  0.6054
  612MOL0     C82496  10.133   4.734   9.919 -0.7525  0.7789  0.6693
  612MOL0     C82497  10.139   4.581   9.916 -0.2919 -0.0384 -0.4219
  612MOL0     C82498  10.138   4.530   9.769  0.2753 -0.0848 -0.3809
  612MOL0     C82499  10.271   4.556   9.693  0.7884  0.0189  0.4306
  612MOL0     C82500  10.281   4.479   9.560 -0.6185  0.2136 -0.2660
  612MOL0     C82501  10.428   4.453   9.518 -0.1476 -0.6441  0.6178
  612MOL0     N82502  10.509   4.571   9.499  0.0642 -0.5052  0.1656
  612MOL0     C82503  10.582   4.633   9.593 -1.0937  1.0512 -0.3295
  612MOL0     C82504  10.617   4.752   9.538 -0.6232  0.3051 -0.5073
  612MOL0     C82505  10.699   4.860   9.617 -0.7726  0.1210  0.8485
  612MOL0     C82506  10.854   4.838   9.609  0.3210 -0.6892  0.1864
  612MOL0     C82507  10.925   4.897   9.490 -0.2120 -0.3434 -0.1887
  612MOL0     C82508  11.082   4.897   9.499 -0.1412 -0.6148 -0.0215
  612MOL0     O82509  11.141   5.004   9.420 -0.1646  0.1205 -0.3036
  612MOL0     C82510  11.145   4.991   9.285  1.0470  1.0784  0.1508
  612MOL0     C82511  11.194   5.088   9.193 -0.1160  0.1162 -0.0568
  612MOL0     C82512  11.207   5.061   9.059  0.2171 -0.2096 -0.4008
  612MOL0     C82513  11.145   4.949   8.996  0.3935  1.2050 -0.1369
  612MOL0     C82514  11.150   4.942   8.842 -0.6021  0.0375  0.3982
  612MOL0     O82515  11.085   4.825   8.802 -0.1191  0.1322 -0.1147
  612MOL0     C82516  11.033   4.797   8.675 -0.6165  0.2076 -0.7423
  612MOL0     C82517  10.962   4.679   8.662  0.8852  0.1330 -0.5750
  612MOL0     C82518  10.915   4.632   8.543 -0.3127  0.7067 -0.0449
  612MOL0     C82519  10.939   4.701   8.427 -0.0752 -0.1636 -0.2502
  612MOL0     O82520  10.918   4.648   8.309  0.0869 -0.1121  0.5267
  612MOL0     C82521  10.775   4.644   8.279 -0.4569 -0.4124 -1.1159
  612MOL0     C82522  10.763   4.613   8.129  0.2966  0.6725 -0.3850
  612MOL0     C82523  10.626   4.621   8.067  1.0382  0.7274 -1.2735
  612MOL0     C82524  10.534   4.510   8.117  0.5324  0.3399  0.2011
  612MOL0     C82525  10.404   4.519   8.040  0.3027  0.5273  0.4904
  612MOL0     C82526  10.315   4.398   8.068  1.4543  0.4329 -0.3022
  612MOL0     C82527  10.177   4.402   8.001  0.8156 -0.5197  0.0980
  612MOL0     C82528  10.059   4.317   8.054 -1.0808 -0.2136 -0.2227
  612MOL0    Cl82529  10.119   4.147   8.056  0.3370 -0.1153  0.0239
  612MOL0     C82530  10.992   4.823   8.439 -0.6165  0.2601  0.6827
  612MOL0     C82531  11.046   4.871   8.562  0.2492  0.6095  1.0010
  612MOL0     O82532  11.177   5.041   8.776  0.1586 -0.2680 -0.7081
  612MOL0     C82533  11.092   4.856   9.084 -0.6895 -0.0700  0.0736
  612MOL0     C82534  11.093   4.867   9.221  0.4789 -1.0292  0.5866
  612MOL0     N82535  10.565   4.753   9.410 -0.2940 -0.0038 -0.2078
  612MOL0     N82536  10.517   4.636   9.391  0.8428  0.0859  0.8656
  612MOL0     C82537  10.139   5.089  10.414 -0.4382  0.3386  0.1899
  612MOL0     C82538  10.176   5.212  10.476  0.2801  0.2140  0.3505
  612MOL0     C82539  10.214   5.684  10.494 -0.5794  0.1052  0.0825
  612MOL0     C82540  10.340   5.699  10.557 -0.6167 -0.9582  0.5990
  612MOL0     C82541  10.368   5.815  10.622  0.9139 -0.5550 -0.4557
  612MOL0     C82542  10.278   5.920  10.640 -0.2890  0.6248  0.2234
  612MOL0     O82543  10.321   6.035  10.708  0.5301 -0.3392  0.2277
  612MOL0     C82544  10.229   6.144  10.726 -0.0029  1.0013 -0.0048
  612MOL0     C82545  10.308   6.270  10.771  0.2211 -0.0660  1.1313
  612MOL0     C82546  10.212   6.390  10.756  0.5095 -0.2591  0.1982
  612MOL0     C82547  10.130   6.396  10.893 -0.5703  0.4295  0.6112
  612MOL0     C82548  10.036   6.504  10.884  0.6418 -0.0720  0.4393
  612MOL0     C82549   9.953   6.592  10.870  0.2045 -0.8627  0.3140
  612MOL0     C82550  10.156   5.905  10.575  0.2215  1.1662  0.4634
  612MOL0     C82551  10.120   5.787  10.507 -0.2552  0.0066 -0.6121
  612MOL0     C82552   9.984   5.786  10.444 -0.1910 -0.5334  0.1240
  612MOL0     H82553  10.259   5.390  10.195 -1.2725 -2.7536 -3.7643
  612MOL0     H82554  10.196   5.193  10.092  0.4136  0.7529 -0.6671
  612MOL0     H82555  10.061   4.999  10.015  2.0573  0.8353 -1.5779
  612MOL0     H82556  10.226   4.969  10.059 -1.0149  4.0065 -0.6861
  612MOL0     H82557  10.007   4.746  10.084  0.2445 -2.9240 -2.4834
  612MOL0     H82558  10.179   4.733  10.134  4.1360 -1.4935 -3.9185
  612MOL0     H82559  10.216   4.782   9.867 -1.2153  1.0712  0.1830
  612MOL0     H82560  10.052   4.751   9.848 -0.4926  1.6969  0.5794
  612MOL0     H82561  10.227   4.550   9.973 -0.7285  1.0565  0.8983
  612MOL0     H82562  10.050   4.549   9.969 -0.8748 -1.1199 -1.9845
  612MOL0     H82563  10.139   4.424   9.796  1.8586  0.6201  2.8922
  612MOL0     H82564  10.048   4.563   9.717 -0.3017  0.7309  1.0855
  612MOL0     H82565  10.298   4.660   9.675 -0.6008  0.1427 -1.2815
  612MOL0     H82566  10.333   4.517   9.774 -1.4637 -0.6537  1.9381
  612MOL0     H82567  10.228   4.527   9.477 -0.1790  0.6682 -0.2889
  612MOL0     H82568  10.217   4.396   9.591 -2.9453  2.4144  1.2314
  612MOL0     H82569  10.473   4.388   9.594 -3.8706 -2.5929  1.3781
  612MOL0     H82570  10.431   4.392   9.427 -2.4084  0.9628 -0.6528
  612MOL0     H82571  10.586   4.608   9.698 -3.6130  0.4487 -0.3250
  612MOL0     H82572  10.673   4.962   9.587 -3.3559 -1.0179 -1.1561
  612MOL0     H82573  10.660   4.845   9.719 -4.9051 -1.6379 -0.7685
  612MOL0     H82574  10.900   4.894   9.692  0.3159  2.0675 -1.5428
  612MOL0     H82575  10.869   4.730   9.613  0.6731 -0.6019  2.1117
  612MOL0     H82576  10.887   4.998   9.474  1.0333  0.0064 -1.0381
  612MOL0     H82577  10.889   4.866   9.391 -1.4704 -0.0979  0.1670
  612MOL0     H82578  11.117   4.800   9.462  0.1374 -0.7752  0.6597
  612MOL0     H82579  11.111   4.897   9.604 -0.1343 -3.2444  0.0432
  612MOL0     H82580  11.230   5.184   9.228 -1.1442  0.0284  1.3336
  612MOL0     H82581  11.252   5.138   8.997 -1.0158  2.0642  1.3909
  612MOL0     H82582  10.940   4.608   8.742  0.1174  0.0449 -0.8541
  612MOL0     H82583  10.884   4.528   8.538  3.8473 -0.6724 -1.7645
  612MOL0     H82584  10.742   4.574   8.356  1.4436 -0.6649 -0.4813
  612MOL0     H82585  10.727   4.741   8.293 -2.3000 -1.4034 -0.2040
  612MOL0     H82586  10.829   4.678   8.071  2.1263 -1.5277 -0.9026
  612MOL0     H82587  10.811   4.516   8.115 -2.0758 -0.4356 -1.4613
  612MOL0     H82588  10.591   4.718   8.103 -1.3808  0.1216 -1.8226
  612MOL0     H82589  10.630   4.630   7.958  2.7838  1.6347 -1.1769
  612MOL0     H82590  10.507   4.521   8.222 -3.1208 -2.1517 -0.2878
  612MOL0     H82591  10.575   4.410   8.098 -0.8541 -0.4264  1.0269
  612MOL0     H82592  10.428   4.526   7.934 -0.8968 -0.4375  0.1267
  612MOL0     H82593  10.361   4.616   8.067  0.5871  0.6187  0.6184
  612MOL0     H82594  10.363   4.306   8.032 -1.2606 -1.7601  1.2705
  612MOL0     H82595  10.299   4.388   8.176 -0.0095 -0.1292 -0.5527
  612MOL0     H82596  10.191   4.364   7.899  1.5135  0.9514 -0.3796
  612MOL0     H82597  10.144   4.506   7.997 -1.0591 -1.0984 -2.3633
  612MOL0     H82598  10.016   4.348   8.149 -0.4136  2.0421 -0.5802
  612MOL0     H82599   9.973   4.315   7.985 -0.5132 -0.4490 -0.9432
  612MOL0     H82600  11.004   4.880   8.348 -1.2514  0.4845  0.7335
  612MOL0     H82601  11.104   4.962   8.571 -0.0498  1.0241 -0.8109
  612MOL0     H82602  11.037   4.779   9.030 -0.2606  0.2198 -0.7943
  612MOL0     H82603  11.042   4.778   9.255 -1.5120  0.1956  0.9582
  612MOL0     H82604  10.103   4.996  10.455  1.4800 -0.3327  0.4054
  612MOL0     H82605  10.161   5.218  10.583  1.0675  2.6218  0.3744
  612MOL0     H82606  10.421   5.631  10.531 -1.7333 -2.4933  1.0341
  612MOL0     H82607  10.470   5.817  10.660  1.5195  0.4314 -2.0048
  612MOL0     H82608  10.151   6.119  10.798  0.6853 -1.8137 -0.1301
  612MOL0     H82609  10.177   6.171  10.634 -4.2136  0.6234  1.9923
  612MOL0     H82610  10.391   6.284  10.702 -1.7992  0.1686 -1.4182
  612MOL0     H82611  10.352   6.264  10.871 -1.0717 -0.9775  1.6766
  612MOL0     H82612  10.133   6.365  10.684  1.0530 -2.2103  0.2212
  612MOL0     H82613  10.255   6.482  10.717  0.5322 -0.3637 -0.0254
  612MOL0     H82614  10.075   6.303  10.912  1.3358 -0.2785  3.2687
  612MOL0     H82615  10.193   6.422  10.978  1.4296 -2.0873  0.0044
  612MOL0     H82616   9.880   6.669  10.859 -0.3939 -1.6432 -1.5150
  612MOL0     H82617  10.083   5.984  10.591 -2.0256 -0.2850 -1.8666
  612MOL0     H82618   9.931   5.881  10.453  1.4992  0.4197  0.5868
  612MOL0     H82619  10.019   5.777  10.340  2.8675  1.6993  0.8338
  612MOL0     H82620   9.938   5.698  10.490  1.2874 -0.4681  1.8039
  613MOL0     O82621   3.513   7.226   8.889 -0.2716  0.0937  0.2258
  613MOL0     C82622   3.535   7.172   8.782 -1.2845  0.6364 -0.5080
  613MOL0     O82623   3.655   7.163   8.724 -0.0354  0.4310  0.3409
  613MOL0     C82624   3.776   7.223   8.762  0.1224  0.3883 -1.1668
  613MOL0     C82625   3.787   7.321   8.867 -0.1433 -0.0206 -0.0034
  613MOL0     C82626   3.899   7.387   8.896 -1.2751  0.3899 -0.3187
  613MOL0     C82627   4.017   7.359   8.815  0.6140  0.0755 -0.6173
  613MOL0     O82628   4.135   7.427   8.844  0.3268 -0.8857 -0.0904
  613MOL0     C82629   4.126   7.576   8.854 -0.4436  0.8894 -0.3655
  613MOL0     C82630   4.083   7.620   8.721 -0.6292 -0.1028  0.3585
  613MOL0     C82631   4.081   7.778   8.704 -0.3826  1.3152 -1.0496
  613MOL0     C82632   3.983   7.851   8.796 -0.2364 -0.0934  0.0948
  613MOL0     C82633   3.987   8.003   8.763 -0.2165 -0.7403  0.4671
  613MOL0     C82634   4.130   8.068   8.745  0.2540  0.7416 -0.2825
  613MOL0     C82635   4.116   8.219   8.759  0.3445  0.3550  0.1073
  613MOL0     C82636   4.027   8.293   8.648  0.0099 -0.6217  0.4035
  613MOL0     N82637   4.074   8.289   8.510 -0.2231  0.0225  1.0059
  613MOL0     C82638   4.193   8.342   8.458  0.3182  0.6146 -0.7799
  613MOL0     C82639   4.214   8.281   8.341 -0.0243  0.1524  0.0601
  613MOL0     C82640   4.328   8.309   8.248  0.2797  0.3544 -0.8664
  613MOL0     C82641   4.334   8.206   8.139  0.1911 -0.4319 -0.1322
  613MOL0     C82642   4.468   8.207   8.057 -0.3856  0.8749  0.5312
  613MOL0     C82643   4.493   8.337   7.990  0.5596 -0.2158 -0.6739
  613MOL0     O82644   4.585   8.315   7.885  0.7036 -0.5086 -0.0516
  613MOL0     C82645   4.711   8.359   7.900 -0.1950  0.1569 -0.0398
  613MOL0     C82646   4.774   8.425   8.013 -0.0130 -0.3997  0.2998
  613MOL0     C82647   4.909   8.475   7.996 -0.6304  0.1572 -0.1759
  613MOL0     C82648   4.990   8.437   7.878 -1.1276 -0.6620  0.5133
  613MOL0     C82649   5.131   8.491   7.870 -0.8192  0.6606 -0.2464
  613MOL0     O82650   5.191   8.524   7.977 -0.1492 -0.2249 -0.4125
  613MOL0     C82651   5.321   8.528   7.978 -0.2537 -0.0927  0.5244
  613MOL0     C82652   5.388   8.412   8.024  0.4218  0.8266 -0.8244
  613MOL0     C82653   5.522   8.414   8.065  0.1975 -0.3012 -0.0031
  613MOL0     C82654   5.597   8.534   8.060 -0.5421  0.9096 -0.5493
  613MOL0     O82655   5.724   8.548   8.101 -0.4600  0.5084 -0.3274
  613MOL0     C82656   5.812   8.464   8.025 -0.4612 -1.2879 -0.4663
  613MOL0     C82657   5.952   8.467   8.067 -0.2944 -0.0454  0.3453
  613MOL0     C82658   6.045   8.442   7.945  0.2506 -0.1579 -0.4192
  613MOL0     C82659   6.190   8.455   7.981  0.0587 -0.6155  0.8154
  613MOL0     C82660   6.282   8.511   7.871 -0.1685 -0.8889  0.6951
  613MOL0     C82661   6.245   8.440   7.741 -0.1122  0.5115 -0.5605
  613MOL0     C82662   6.335   8.486   7.629 -0.3812 -0.8659  0.0233
  613MOL0     C82663   6.271   8.460   7.482 -0.7845  0.2583 -0.0092
  613MOL0    Cl82664   6.110   8.546   7.452 -0.1324 -0.1552  0.5292
  613MOL0     C82665   5.529   8.638   8.002 -0.1771 -0.1912  0.3015
  613MOL0     C82666   5.396   8.642   7.951 -0.1450  0.4790  0.0076
  613MOL0     O82667   5.184   8.476   7.755 -0.4470  0.3721  0.2954
  613MOL0     C82668   4.922   8.361   7.775 -0.3921  0.4970 -0.8148
  613MOL0     C82669   4.790   8.338   7.794 -0.2730  0.4163  0.6982
  613MOL0     N82670   4.110   8.191   8.312 -0.3379  0.2211 -0.1396
  613MOL0     N82671   4.030   8.201   8.413  0.9389 -0.3581  0.5873
  613MOL0     C82672   4.011   7.252   8.721  0.1010 -0.0812  0.3456
  613MOL0     C82673   3.891   7.184   8.696  0.3272 -0.2894 -0.5106
  613MOL0     C82674   3.429   7.102   8.717  0.9250  0.0913  0.4609
  613MOL0     C82675   3.307   7.086   8.794 -0.3769  0.7845 -0.9195
  613MOL0     C82676   3.199   7.017   8.730 -0.6271  0.0998 -0.6774
  613MOL0     C82677   3.202   6.966   8.602  0.9171  0.0649  0.3636
  613MOL0     O82678   3.104   6.903   8.525  0.1508 -0.5709 -0.6176
  613MOL0     C82679   2.967   6.918   8.564  0.3943  0.7564 -0.8304
  613MOL0     C82680   2.938   6.792   8.648  0.2958 -0.2858  0.6000
  613MOL0     C82681   2.790   6.799   8.704  0.5309 -0.3146 -1.1321
  613MOL0     C82682   2.679   6.731   8.622 -1.1416 -0.0323 -0.1924
  613MOL0     C82683   2.717   6.593   8.604  1.1378  0.0230  0.5855
  613MOL0     C82684   2.738   6.477   8.583 -0.6530  0.8845 -0.1274
  613MOL0     C82685   3.319   6.987   8.531 -0.1979 -0.7985  0.2685
  613MOL0     C82686   3.438   7.052   8.582  0.0179 -0.4703  0.6478
  613MOL0     C82687   3.562   7.037   8.496  0.3265 -0.1403  0.3567
  613MOL0     H82688   3.703   7.336   8.933 -0.5177  2.0317 -0.8507
  613MOL0     H82689   3.894   7.460   8.976 -0.3668  0.3831 -0.2434
  613MOL0     H82690   4.053   7.598   8.932 -0.5528  1.8676 -0.7297
  613MOL0     H82691   4.226   7.613   8.880 -0.8854  1.7222  0.2205
  613MOL0     H82692   3.977   7.592   8.716 -0.9542  1.2875 -2.7490
  613MOL0     H82693   4.138   7.571   8.640  3.6601  0.1995  2.7881
  613MOL0     H82694   4.033   7.802   8.609 -1.4982 -1.2354 -1.2032
  613MOL0     H82695   4.180   7.823   8.712  0.5714 -0.8872  0.4402
  613MOL0     H82696   3.884   7.811   8.774 -0.7102  0.9512  0.2591
  613MOL0     H82697   4.006   7.828   8.901 -0.4043  2.4699  0.7646
  613MOL0     H82698   3.931   8.025   8.672  1.0235  5.5834  0.7467
  613MOL0     H82699   3.926   8.045   8.844 -0.5015 -1.5822  0.6961
  613MOL0     H82700   4.201   8.029   8.819 -0.8714  0.6280  0.7702
  613MOL0     H82701   4.178   8.036   8.652  5.2965 -0.8009  2.4685
  613MOL0     H82702   4.220   8.253   8.762  1.0133 -1.3491 -1.5099
  613MOL0     H82703   4.070   8.232   8.858  1.1944  1.2515  0.3986
  613MOL0     H82704   3.928   8.247   8.649 -0.9049  1.2107 -0.4940
  613MOL0     H82705   4.017   8.399   8.673 -0.8113 -0.6467  0.2077
  613MOL0     H82706   4.253   8.420   8.503  0.3525  0.0545  0.1668
  613MOL0     H82707   4.303   8.408   8.209  1.3700  1.4714  1.1199
  613MOL0     H82708   4.426   8.306   8.296 -0.2147 -0.6125  0.1231
  613MOL0     H82709   4.319   8.106   8.180  0.3235 -0.5767 -0.4337
  613MOL0     H82710   4.265   8.230   8.057  0.5840  1.1014 -0.0536
  613MOL0     H82711   4.475   8.123   7.987 -3.0965  1.3797 -0.4623
  613MOL0     H82712   4.544   8.183   8.133 -1.6207 -1.9481  1.0144
  613MOL0     H82713   4.508   8.417   8.063  1.4080 -0.4324 -0.6100
  613MOL0     H82714   4.396   8.353   7.941  1.8932 -0.1156 -3.4623
  613MOL0     H82715   4.713   8.434   8.102 -0.0989  0.2642  0.1787
  613MOL0     H82716   4.957   8.531   8.075  1.1639  0.3737 -1.3696
  613MOL0     H82717   5.327   8.324   8.043  1.7855 -0.1526 -0.8814
  613MOL0     H82718   5.553   8.321   8.111  0.3379  0.9154  2.5502
  613MOL0     H82719   5.786   8.358   8.032  1.0963 -1.5802  2.6622
  613MOL0     H82720   5.809   8.494   7.920 -1.0831  0.6412  0.0478
  613MOL0     H82721   5.967   8.570   8.101 -0.4095  0.4366 -1.0021
  613MOL0     H82722   5.972   8.388   8.140  1.3532 -0.4774 -0.5289
  613MOL0     H82723   6.015   8.352   7.891 -0.4136  0.6928 -1.5041
  613MOL0     H82724   6.028   8.525   7.877  0.1972  0.0652 -0.1344
  613MOL0     H82725   6.218   8.350   7.995 -0.7820 -1.2850 -1.9490
  613MOL0     H82726   6.212   8.500   8.079 -1.1940  1.3239  0.2587
  613MOL0     H82727   6.389   8.500   7.892 -0.4521 -1.9017  1.6774
  613MOL0     H82728   6.267   8.618   7.855 -0.1584 -0.8633  0.8543
  613MOL0     H82729   6.249   8.332   7.756 -0.3452  0.5958  0.1227
  613MOL0     H82730   6.143   8.468   7.713 -1.5182 -1.2162  2.3753
  613MOL0     H82731   6.438   8.448   7.628  1.4929  3.5651 -2.3364
  613MOL0     H82732   6.343   8.595   7.637  2.0547 -1.0376  0.6444
  613MOL0     H82733   6.343   8.488   7.405  0.5755 -0.9804  0.7681
  613MOL0     H82734   6.258   8.353   7.467  0.8511  0.0432 -0.0758
  613MOL0     H82735   5.583   8.732   8.012  0.6584 -0.6609  0.3287
  613MOL0     H82736   5.342   8.732   7.922 -0.4058  0.5731  0.7693
  613MOL0     H82737   4.977   8.330   7.687 -0.5767  2.4270 -1.6673
  613MOL0     H82738   4.741   8.284   7.713  2.2897  1.2660 -1.5673
  613MOL0     H82739   4.100   7.232   8.661  1.3602  4.6363  0.1829
  613MOL0     H82740   3.888   7.104   8.623 -1.2866 -1.2701  0.5849
  613MOL0     H82741   3.307   7.123   8.896  0.2563 -1.7031  0.0418
  613MOL0     H82742   3.107   7.006   8.787 -0.0320 -1.2315  0.0769
  613MOL0     H82743   2.899   6.911   8.478 -0.1447 -1.1891 -0.2856
  613MOL0     H82744   2.941   7.006   8.624  0.8361  1.1910 -1.2686
  613MOL0     H82745   3.018   6.769   8.720  2.9602  1.3295 -1.6198
  613MOL0     H82746   2.946   6.715   8.571  0.4637  3.2948 -3.3288
  613MOL0     H82747   2.764   6.905   8.709  0.2114 -0.4212 -0.1712
  613MOL0     H82748   2.812   6.764   8.806  3.6212  0.4291 -1.4438
  613MOL0     H82749   2.573   6.745   8.647 -1.3421 -2.7867  0.8112
  613MOL0     H82750   2.703   6.773   8.523 -0.4261 -1.8596 -0.8461
  613MOL0     H82751   2.763   6.380   8.546  3.1013  1.9199 -0.7360
  613MOL0     H82752   3.335   6.949   8.431  1.5159  2.3852 -0.7888
  613MOL0     H82753   3.631   7.121   8.482  0.9268 -0.4841  1.1793
  613MOL0     H82754   3.611   6.941   8.516 -1.6391 -1.6007 -1.3007
  613MOL0     H82755   3.523   7.035   8.393  0.7769  2.2443  0.0906
  614MOL0     O82756   1.239   5.112  10.485 -1.0564  0.6705  0.6280
  614MOL0     C82757   1.200   5.198  10.404 -0.2552  0.4114 -1.0851
  614MOL0     O82758   1.074   5.242  10.386 -0.5500 -0.4996  0.6139
  614MOL0     C82759   0.975   5.173  10.454 -0.6492 -0.5748 -0.8724
  614MOL0     C82760   0.987   5.161  10.597 -0.7112 -0.4528 -0.8534
  614MOL0     C82761   0.886   5.111  10.686  0.4767 -0.3194  1.3094
  614MOL0     C82762   0.766   5.067  10.623 -0.3282  0.0945 -0.2295
  614MOL0     O82763   0.681   4.987  10.702 -0.3610  0.2721 -0.3386
  614MOL0     C82764   0.587   4.889  10.641 -0.3557  0.5975  0.7563
  614MOL0     C82765   0.570   4.769  10.734  0.4372 -0.1079 -0.8019
  614MOL0     C82766   0.696   4.707  10.793 -0.3321  0.5925 -0.9476
  614MOL0     C82767   0.757   4.595  10.706 -0.4204  0.3309 -1.1609
  614MOL0     C82768   0.905   4.608  10.719 -1.1361 -0.1585  0.7730
  614MOL0     C82769   0.963   4.738  10.663 -0.1151  0.2883  0.2744
  614MOL0     C82770   1.109   4.719  10.625 -0.3078  0.4793 -0.6577
  614MOL0     C82771   1.191   4.690  10.747  0.3307  0.9921  0.1228
  614MOL0     N82772   1.327   4.677  10.717 -0.6676 -0.1750 -0.7438
  614MOL0     C82773   1.418   4.780  10.690  0.4279  0.5381  0.3174
  614MOL0     C82774   1.536   4.718  10.674 -0.0839 -0.6664 -0.3056
  614MOL0     C82775   1.671   4.789  10.639 -1.2111 -0.2396 -0.3053
  614MOL0     C82776   1.782   4.700  10.670 -0.4087  0.8968 -0.2537
  614MOL0     C82777   1.908   4.774  10.636 -0.0121 -0.4566  0.4759
  614MOL0     C82778   2.039   4.714  10.675  0.3189 -0.5095  0.6107
  614MOL0     O82779   2.139   4.770  10.588 -0.0388  0.2182  0.2019
  614MOL0     C82780   2.256   4.713  10.574  0.0291  0.0877 -0.2029
  614MOL0     C82781   2.314   4.614  10.655  0.7659  0.1691  0.2450
  614MOL0     C82782   2.436   4.558  10.620 -0.9412 -0.7136 -1.0345
  614MOL0     C82783   2.496   4.594  10.498  0.5240 -0.7075  0.7851
  614MOL0     C82784   2.622   4.540  10.450 -0.3385 -0.1754  0.3748
  614MOL0     O82785   2.703   4.630  10.407  0.0547 -0.1496  0.1885
  614MOL0     C82786   2.806   4.581  10.322  0.3749  0.4365 -0.2893
  614MOL0     C82787   2.786   4.509  10.199 -0.1289  0.4435  0.4739
  614MOL0     C82788   2.890   4.458  10.121 -0.8924 -0.0306  0.0824
  614MOL0     C82789   3.029   4.485  10.165  0.6075 -0.7009  0.7569
  614MOL0     O82790   3.144   4.441  10.101  0.6139  0.0596  0.1011
  614MOL0     C82791   3.139   4.356   9.995  0.0273  0.3969  0.9255
  614MOL0     C82792   3.283   4.327   9.956  0.2663 -0.1009  0.2265
  614MOL0     C82793   3.380   4.451   9.956  0.2225 -0.3623 -1.1933
  614MOL0     C82794   3.507   4.428   9.890 -0.6213 -0.4133  0.5748
  614MOL0     C82795   3.593   4.342   9.984  0.0106  0.2216  0.5878
  614MOL0     C82796   3.741   4.316   9.936  0.4841  0.0462 -0.5100
  614MOL0     C82797   3.811   4.216  10.034 -0.0438 -0.7612  0.7389
  614MOL0     C82798   3.961   4.201  10.015  0.5942 -1.0211 -0.0450
  614MOL0    Cl82799   4.009   4.074  10.123 -0.4334 -0.5395  0.0084
  614MOL0     C82800   3.045   4.566  10.273  0.2097 -0.3466  0.0416
  614MOL0     C82801   2.938   4.608  10.355  0.0019  1.0129  0.0607
  614MOL0     O82802   2.654   4.423  10.478 -0.6065 -0.1780 -0.8549
  614MOL0     C82803   2.441   4.695  10.421  0.3689 -0.1973  0.1784
  614MOL0     C82804   2.327   4.757  10.459 -0.1670 -0.4434 -0.4672
  614MOL0     N82805   1.516   4.578  10.705 -0.5407 -0.1750  0.4010
  614MOL0     N82806   1.391   4.559  10.727 -1.0002 -0.2463 -0.7419
  614MOL0     C82807   0.743   5.081  10.480 -0.2051  0.6106 -0.2872
  614MOL0     C82808   0.844   5.135  10.399 -0.7165  0.6432 -0.1154
  614MOL0     C82809   1.302   5.254  10.311 -0.3382 -0.1999  0.0979
  614MOL0     C82810   1.254   5.370  10.246  0.8758  0.9684 -1.0767
  614MOL0     C82811   1.330   5.421  10.148  0.5120 -0.6839 -0.0869
  614MOL0     C82812   1.455   5.369  10.112 -0.0037  0.6166 -0.5728
  614MOL0     O82813   1.544   5.414  10.020 -0.3243 -0.4259 -0.2616
  614MOL0     C82814   1.497   5.514   9.937  0.3718  0.1397  0.8670
  614MOL0     C82815   1.607   5.554   9.842  1.4216 -0.5175  0.5174
  614MOL0     C82816   1.747   5.587   9.891  0.1198 -0.0123  1.0611
  614MOL0     C82817   1.813   5.676   9.792 -0.4341  0.4919  0.4289
  614MOL0     C82818   1.864   5.604   9.675  0.3683 -0.3688 -0.4526
  614MOL0     C82819   1.910   5.529   9.596 -0.6385  0.2991  0.8486
  614MOL0     C82820   1.503   5.254  10.178  0.5293  0.0139 -0.7977
  614MOL0     C82821   1.425   5.191  10.275 -0.5834  0.5226 -0.4216
  614MOL0     C82822   1.478   5.066  10.334  0.2101  0.6500  0.0368
  614MOL0     H82823   1.071   5.189  10.660 -0.7970 -3.3756  0.7296
  614MOL0     H82824   0.913   5.088  10.788  1.8322 -0.2114  1.0018
  614MOL0     H82825   0.489   4.932  10.619 -1.0528 -1.3064  0.0188
  614MOL0     H82826   0.622   4.864  10.541  0.5955  1.4488  0.8519
  614MOL0     H82827   0.517   4.687  10.686 -2.4199  1.0163  0.2476
  614MOL0     H82828   0.504   4.807  10.812  0.7667  0.1590 -0.6471
  614MOL0     H82829   0.664   4.653  10.882  1.6250  0.4294 -0.2845
  614MOL0     H82830   0.765   4.782  10.832 -1.2127  0.4604  0.9730
  614MOL0     H82831   0.732   4.494  10.739 -0.4530  0.9064  0.7067
  614MOL0     H82832   0.718   4.601  10.604 -3.7113  0.4150 -0.0454
  614MOL0     H82833   0.948   4.597  10.819  1.5961 -0.4224 -0.3422
  614MOL0     H82834   0.958   4.522  10.679  0.5499  1.9718 -1.9871
  614MOL0     H82835   0.911   4.762  10.569 -1.0035  1.2286  0.9872
  614MOL0     H82836   0.952   4.827  10.725 -0.6670  0.7026 -0.3882
  614MOL0     H82837   1.145   4.813  10.583 -2.1849  1.8876  0.6908
  614MOL0     H82838   1.122   4.634  10.558  0.8637 -1.2699  1.6080
  614MOL0     H82839   1.168   4.759  10.829  0.9516 -0.5468  1.6603
  614MOL0     H82840   1.156   4.595  10.789 -2.8854  2.2013  0.4970
  614MOL0     H82841   1.405   4.885  10.664  1.4521  0.5856 -0.0485
  614MOL0     H82842   1.670   4.825  10.536 -1.6177 -1.7949 -0.8695
  614MOL0     H82843   1.681   4.880  10.698 -1.8021  0.7870 -1.7501
  614MOL0     H82844   1.770   4.664  10.773  0.3119 -1.2080 -0.8419
  614MOL0     H82845   1.784   4.609  10.610  2.4190 -0.8920  2.2128
  614MOL0     H82846   1.906   4.866  10.694  1.9142  0.3645 -0.6496
  614MOL0     H82847   1.903   4.795  10.528 -3.4330 -2.4645  0.1269
  614MOL0     H82848   2.030   4.606  10.659 -0.2512 -0.0087 -3.8116
  614MOL0     H82849   2.075   4.734  10.776  1.1861 -2.8065  0.8148
  614MOL0     H82850   2.255   4.590  10.743 -0.5996  1.8589 -0.1634
  614MOL0     H82851   2.480   4.470  10.666  1.7566 -0.1769 -2.3828
  614MOL0     H82852   2.683   4.486  10.172 -0.1337  0.2991  0.6130
  614MOL0     H82853   2.863   4.402  10.032 -2.4132 -0.7731  0.9568
  614MOL0     H82854   3.087   4.261  10.013 -1.0942  0.8196  0.0299
  614MOL0     H82855   3.094   4.409   9.911  0.6955 -0.3381  0.0797
  614MOL0     H82856   3.327   4.254  10.026  0.0630  1.0678  1.6311
  614MOL0     H82857   3.279   4.279   9.858  0.4564 -0.3001  0.3154
  614MOL0     H82858   3.330   4.533   9.904 -2.1775 -2.8614 -3.1955
  614MOL0     H82859   3.397   4.479  10.060 -2.8478 -0.9597 -0.4437
  614MOL0     H82860   3.557   4.516   9.850 -0.8203 -0.1154  0.9814
  614MOL0     H82861   3.480   4.373   9.799 -1.7590  3.3980 -1.5820
  614MOL0     H82862   3.538   4.248   9.994 -1.9517  1.1561 -0.8323
  614MOL0     H82863   3.593   4.390  10.082  0.5108  0.1607  0.6209
  614MOL0     H82864   3.758   4.276   9.836  1.2717  1.4127 -0.9336
  614MOL0     H82865   3.786   4.415   9.946  1.7404 -0.5746  0.3022
  614MOL0     H82866   3.762   4.122  10.009  1.5701 -1.2935 -0.6801
  614MOL0     H82867   3.797   4.244  10.139  1.3237  1.5049  0.3790
  614MOL0     H82868   3.989   4.173   9.913  2.2096 -1.4355  0.4763
  614MOL0     H82869   4.022   4.290  10.035  1.2523 -1.5105  0.1926
  614MOL0     H82870   3.150   4.584  10.297 -0.3607  0.8468  1.8835
  614MOL0     H82871   2.951   4.671  10.443  1.6014  0.4651  0.2509
  614MOL0     H82872   2.482   4.738  10.331 -0.1610  0.5840  0.3086
  614MOL0     H82873   2.291   4.847  10.411  0.8119  1.5123  2.2087
  614MOL0     H82874   0.655   5.041  10.430 -0.1370  0.9126 -0.6545
  614MOL0     H82875   0.811   5.162  10.299 -2.2794 -2.5984 -0.6314
  614MOL0     H82876   1.163   5.420  10.274 -0.3412 -2.0725  0.9167
  614MOL0     H82877   1.286   5.505  10.096 -1.1185 -1.6244 -0.3059
  614MOL0     H82878   1.475   5.598  10.002  2.6490  0.6232  1.0837
  614MOL0     H82879   1.404   5.478   9.890  1.5785 -1.4912 -0.3820
  614MOL0     H82880   1.565   5.639   9.788  1.1719  0.1887  1.7998
  614MOL0     H82881   1.615   5.468   9.774 -0.4211  0.6402 -1.3013
  614MOL0     H82882   1.804   5.499   9.924  0.7796 -0.0828 -0.2261
  614MOL0     H82883   1.747   5.650   9.980 -2.4483  0.9541  0.4495
  614MOL0     H82884   1.746   5.757   9.760 -0.2567  1.1510  1.6734
  614MOL0     H82885   1.899   5.730   9.832  1.1573  0.3776 -2.6141
  614MOL0     H82886   1.935   5.462   9.515  4.8590  3.1197 -0.2975
  614MOL0     H82887   1.600   5.206  10.168  0.0373 -1.2228  0.0763
  614MOL0     H82888   1.427   4.973  10.310 -1.9623  1.4339  1.3207
  614MOL0     H82889   1.584   5.044  10.317  0.7811  0.2378  3.3704
  614MOL0     H82890   1.474   5.064  10.443  4.5816 -0.8861  0.3569
  615MOL0     O82891  10.841   4.308   8.412 -0.1536  0.2157  0.0819
  615MOL0     C82892  10.876   4.300   8.292  0.0190 -0.2795 -0.7527
  615MOL0     O82893  11.001   4.336   8.238 -0.1876  0.5666 -0.6929
  615MOL0     C82894  11.100   4.385   8.323  0.8658  0.6494 -0.4342
  615MOL0     C82895  11.204   4.450   8.249  0.0845  0.5362 -0.0443
  615MOL0     C82896  11.306   4.505   8.315 -0.2202 -0.7485  0.4175
  615MOL0     C82897  11.324   4.507   8.455 -0.3746  0.9323  0.0532
  615MOL0     O82898  11.438   4.553   8.520 -0.1819  0.7055  0.3160
  615MOL0     C82899  11.538   4.624   8.443 -0.0304 -0.2367 -0.2376
  615MOL0     C82900  11.633   4.698   8.536 -0.4655 -0.8288  0.4767
  615MOL0     C82901  11.586   4.830   8.603  0.5404  0.3807 -0.0956
  615MOL0     C82902  11.695   4.877   8.704 -0.1158  0.2114 -0.1877
  615MOL0     C82903  11.655   4.995   8.790  0.0760 -0.5670  0.3304
  615MOL0     C82904  11.741   5.026   8.913 -0.2579  0.3097  0.2142
  615MOL0     C82905  11.886   5.061   8.886  0.4978  0.3572 -0.4346
  615MOL0     C82906  11.948   5.096   9.017  0.1112 -0.4529 -0.1195
  615MOL0     N82907  12.083   5.148   8.992 -0.6680  0.4301 -0.1194
  615MOL0     C82908  12.185   5.083   8.934 -0.5996 -0.2108 -0.8485
  615MOL0     C82909  12.284   5.172   8.908 -1.0048  0.6643  0.2469
  615MOL0     C82910  12.417   5.130   8.848 -0.0613  0.4563  0.7230
  615MOL0     C82911  12.530   5.102   8.942 -0.2581 -0.5729 -0.3700
  615MOL0     C82912  12.640   5.037   8.864 -1.1530  0.7474  1.2208
  615MOL0     C82913  12.684   5.098   8.736  0.2102  0.3902 -0.9779
  615MOL0     O82914  12.750   5.220   8.759  0.4361  0.2986  0.2755
  615MOL0     C82915  12.888   5.220   8.757 -0.2688 -0.3641 -0.0169
  615MOL0     C82916  12.951   5.315   8.847  0.3406  0.2605  0.6306
  615MOL0     C82917  13.089   5.327   8.853 -0.4912  0.9803  0.9108
  615MOL0     C82918  13.161   5.248   8.768 -0.0121  0.3523 -0.8320
  615MOL0     C82919  13.315   5.242   8.770  0.0254  0.1473 -0.5422
  615MOL0     O82920  13.367   5.141   8.709  0.2054 -0.0386  0.3248
  615MOL0     C82921  13.501   5.124   8.712  0.1837 -0.3437  0.0383
  615MOL0     C82922  13.594   5.228   8.670 -0.5584 -0.0528  0.5751
  615MOL0     C82923  13.729   5.194   8.643  0.3226  0.3781 -0.6266
  615MOL0     C82924  13.784   5.067   8.673  0.3976  0.1302 -1.0464
  615MOL0     O82925  13.915   5.046   8.663 -0.4449  0.8074 -0.0484
  615MOL0     C82926  13.956   4.910   8.636 -0.2707  0.5012  0.0917
  615MOL0     C82927  14.096   4.913   8.580  0.1973 -0.0361 -0.8530
  615MOL0     C82928  14.092   4.948   8.427 -0.1308  0.2355  0.3870
  615MOL0     C82929  14.226   5.000   8.380  0.3486 -0.7828  0.2338
  615MOL0     C82930  14.346   4.909   8.399 -0.4601  1.1962 -0.2663
  615MOL0     C82931  14.470   4.995   8.369 -0.0588  0.3143  0.3679
  615MOL0     C82932  14.598   4.923   8.417 -0.7567 -1.3655 -1.1402
  615MOL0     C82933  14.719   5.007   8.400  0.3689 -0.1990 -0.4804
  615MOL0    Cl82934  14.755   5.027   8.229 -0.5124  0.3371 -0.0489
  615MOL0     C82935  13.700   4.976   8.739  0.1281  0.4061 -0.1824
  615MOL0     C82936  13.561   4.999   8.754  0.7398 -0.3032  0.8998
  615MOL0     O82937  13.366   5.335   8.824 -1.0898 -0.5656  0.0228
  615MOL0     C82938  13.106   5.163   8.675 -0.0980 -0.0212 -0.8888
  615MOL0     C82939  12.965   5.153   8.669 -0.1818 -0.3918  0.5915
  615MOL0     N82940  12.241   5.294   8.958  0.6667 -0.6900 -0.2516
  615MOL0     N82941  12.117   5.280   9.004 -0.5248  0.3931 -0.4653
  615MOL0     C82942  11.227   4.442   8.525  0.0207 -0.6446 -0.2747
  615MOL0     C82943  11.114   4.379   8.468  0.1789  0.8419 -0.4184
  615MOL0     C82944  10.787   4.221   8.192  0.5076 -0.7431 -0.1647
  615MOL0     C82945  10.847   4.197   8.062  0.5632 -0.2654  0.8845
  615MOL0     C82946  10.762   4.150   7.958  0.2386  1.0262 -1.3062
  615MOL0     C82947  10.625   4.127   7.975 -0.0457  0.3674 -0.6941
  615MOL0     O82948  10.553   4.064   7.875 -0.0817 -0.0045  0.3056
  615MOL0     C82949  10.429   3.996   7.901 -0.1815 -0.1631 -0.2640
  615MOL0     C82950  10.423   3.880   7.998  0.6772  0.4485  0.2618
  615MOL0     C82951  10.545   3.788   7.979 -0.4031  0.3884 -1.0018
  615MOL0     C82952  10.523   3.655   8.052  0.1704 -0.0919 -0.1512
  615MOL0     C82953  10.656   3.594   8.065 -0.5759  0.6546  0.1014
  615MOL0     C82954  10.757   3.531   8.084 -0.2162 -0.5944 -0.4471
  615MOL0     C82955  10.571   4.147   8.104  0.9213 -0.1533 -0.0026
  615MOL0     C82956  10.646   4.204   8.205  0.2834 -0.0948 -0.2721
  615MOL0     C82957  10.575   4.230   8.333 -0.7097 -0.4991  0.4718
  615MOL0     H82958  11.204   4.466   8.141  4.4375 -2.0824 -0.6834
  615MOL0     H82959  11.383   4.554   8.256 -0.5789 -1.2716 -0.5008
  615MOL0     H82960  11.584   4.547   8.382 -1.7421 -1.7316  0.2827
  615MOL0     H82961  11.500   4.699   8.374  0.5866  0.7859  0.4958
  615MOL0     H82962  11.723   4.709   8.475  0.4667 -0.8077  1.8128
  615MOL0     H82963  11.662   4.628   8.615 -0.1057  0.0057  1.1038
  615MOL0     H82964  11.494   4.821   8.660  0.6879  1.0607  0.2648
  615MOL0     H82965  11.563   4.899   8.521  0.1149 -2.2746 -2.3577
  615MOL0     H82966  11.715   4.802   8.781  1.8975 -0.8092 -1.6354
  615MOL0     H82967  11.791   4.888   8.654 -0.7293 -2.0751 -2.0366
  615MOL0     H82968  11.651   5.084   8.727  0.3903 -1.8016 -1.5190
  615MOL0     H82969  11.553   4.979   8.827 -1.4772  2.2081 -2.3868
  615MOL0     H82970  11.696   5.105   8.973 -1.2154 -0.4701  0.5510
  615MOL0     H82971  11.742   4.942   8.984 -0.2288  1.3693  1.4973
  615MOL0     H82972  11.886   5.149   8.821  0.7381  2.1213  1.8444
  615MOL0     H82973  11.929   4.973   8.837 -3.3653 -0.3725 -3.0564
  615MOL0     H82974  11.887   5.174   9.062 -3.2964 -2.0994 -1.5484
  615MOL0     H82975  11.954   5.018   9.094 -2.0734 -1.5775 -1.0174
  615MOL0     H82976  12.189   4.979   8.904  2.6047 -0.2147 -0.7387
  615MOL0     H82977  12.406   5.050   8.774  0.8518 -2.0356  3.1257
  615MOL0     H82978  12.447   5.222   8.798 -0.1898 -1.0148 -2.2773
  615MOL0     H82979  12.570   5.197   8.978 -2.2929  1.6589 -3.4568
  615MOL0     H82980  12.501   5.043   9.029  4.2748  0.3275  2.0460
  615MOL0     H82981  12.614   4.933   8.845  0.2220  0.1638  2.3712
  615MOL0     H82982  12.729   5.040   8.927  0.7976 -0.3604 -1.3290
  615MOL0     H82983  12.606   5.116   8.661 -0.2832  0.6274 -0.4175
  615MOL0     H82984  12.737   5.026   8.673 -2.9045 -1.3961 -1.7955
  615MOL0     H82985  12.888   5.378   8.909  0.3668 -0.8818  1.8563
  615MOL0     H82986  13.144   5.395   8.918  0.0800  1.1576  0.2517
  615MOL0     H82987  13.564   5.330   8.647  0.6460  0.2620  0.3471
  615MOL0     H82988  13.797   5.268   8.603  0.2197  1.0151  0.3463
  615MOL0     H82989  13.967   4.844   8.722  1.2311  1.3439  0.5909
  615MOL0     H82990  13.882   4.871   8.565 -0.2645  1.9992 -0.7996
  615MOL0     H82991  14.152   4.998   8.619 -1.9722  0.1033  2.3558
  615MOL0     H82992  14.150   4.820   8.598 -0.3650 -0.1758  0.1712
  615MOL0     H82993  14.058   4.857   8.377  0.4767  1.5492 -2.6627
  615MOL0     H82994  14.017   5.023   8.399 -0.1433 -0.1330 -0.5983
  615MOL0     H82995  14.238   5.088   8.444 -0.9965  0.6714 -1.4134
  615MOL0     H82996  14.213   5.033   8.276  2.1990 -0.0570  0.1956
  615MOL0     H82997  14.347   4.826   8.327  3.7916 -2.5387  3.4810
  615MOL0     H82998  14.352   4.865   8.499 -0.3727  0.0615 -0.7547
  615MOL0     H82999  14.488   5.033   8.268  0.4067  1.2612  0.7904
  615MOL0     H83000  14.454   5.080   8.436  0.0113  0.4083  0.2686
  615MOL0     H83001  14.609   4.824   8.373  1.9115 -3.0100  2.6761
  615MOL0     H83002  14.575   4.924   8.524 -2.5588  0.8720 -1.4616
  615MOL0     H83003  14.695   5.102   8.448 -0.0937 -0.2478 -0.6131
  615MOL0     H83004  14.807   4.960   8.447 -0.7353 -1.2612  0.5973
  615MOL0     H83005  13.740   4.881   8.774 -1.3905 -0.7880 -1.5075
  615MOL0     H83006  13.493   4.926   8.797  0.8625 -0.2504  1.1902
  615MOL0     H83007  13.158   5.116   8.591  0.8822 -1.0916  0.2758
  615MOL0     H83008  12.926   5.087   8.592 -0.9491 -4.5871  4.1832
  615MOL0     H83009  11.243   4.460   8.631 -1.1433  0.6051 -0.2844
  615MOL0     H83010  11.045   4.332   8.537  0.4183  0.2870 -0.5526
  615MOL0     H83011  10.948   4.228   8.035 -0.8127  1.3256 -3.1110
  615MOL0     H83012  10.805   4.137   7.860  0.4300  0.2162 -1.1212
  615MOL0     H83013  10.384   3.947   7.813  2.3291 -3.0882 -0.0917
  615MOL0     H83014  10.364   4.075   7.938 -0.4900 -0.4554 -0.1673
  615MOL0     H83015  10.330   3.825   7.980 -1.0383  3.4212 -0.6169
  615MOL0     H83016  10.421   3.921   8.099 -1.8883  0.4028  0.3007
  615MOL0     H83017  10.627   3.841   8.029  0.4584 -2.1903  0.4857
  615MOL0     H83018  10.577   3.768   7.876  1.7385 -0.8804 -0.1604
  615MOL0     H83019  10.466   3.666   8.145  0.0740  0.8782 -0.3124
  615MOL0     H83020  10.455   3.594   7.992  1.7772 -1.7033 -0.4029
  615MOL0     H83021  10.837   3.469   8.119 -0.8087 -0.0734  2.0232
  615MOL0     H83022  10.465   4.129   8.121  0.9144  1.5754  2.2568
  615MOL0     H83023  10.598   4.329   8.374  2.7996 -0.8822 -0.3021
  615MOL0     H83024  10.467   4.225   8.314 -0.5506 -3.1328 -0.1286
  615MOL0     H83025  10.600   4.151   8.404  0.6821  0.7538  1.4418
  616MOL0     O83026   3.709   5.127   3.849 -0.5595 -0.4868 -0.1557
  616MOL0     C83027   3.693   5.097   3.963 -0.2243  0.3775 -0.0620
  616MOL0     O83028   3.619   4.994   4.013  0.3828  0.3451  1.1020
  616MOL0     C83029   3.559   4.908   3.928 -0.1145  0.4564 -0.9670
  616MOL0     C83030   3.607   4.855   3.807  0.1168 -0.6768 -0.2003
  616MOL0     C83031   3.540   4.765   3.727 -0.0963 -0.5848 -0.9862
  616MOL0     C83032   3.429   4.698   3.777 -0.2014 -0.9316 -1.0705
  616MOL0     O83033   3.363   4.598   3.710 -0.3527 -0.1092 -0.1401
  616MOL0     C83034   3.423   4.533   3.602  0.5050  1.2295  0.1962
  616MOL0     C83035   3.315   4.440   3.547  0.1538  0.2016  0.5257
  616MOL0     C83036   3.378   4.328   3.462  0.0212 -0.0298 -0.1173
  616MOL0     C83037   3.439   4.372   3.327  0.2842 -0.0295 -0.8965
  616MOL0     C83038   3.483   4.250   3.238 -0.1075  0.6221  0.6107
  616MOL0     C83039   3.542   4.294   3.107  0.1692 -0.6762 -0.0777
  616MOL0     C83040   3.674   4.370   3.131  0.5866  0.9230 -0.4511
  616MOL0     C83041   3.729   4.406   2.993 -0.2533  0.5989 -0.1223
  616MOL0     N83042   3.813   4.302   2.933 -0.5281 -0.4008 -0.5451
  616MOL0     C83043   3.829   4.171   2.963 -0.2480  0.0564  0.2397
  616MOL0     C83044   3.918   4.116   2.870  0.6583 -0.5060 -0.6028
  616MOL0     C83045   3.961   3.975   2.859 -0.0702  0.6388  0.1239
  616MOL0     C83046   3.850   3.873   2.889 -0.2731  0.1704  0.1292
  616MOL0     C83047   3.741   3.876   2.781 -0.2030  0.3526  0.0728
  616MOL0     C83048   3.641   3.766   2.807 -0.3937 -0.1973  0.5215
  616MOL0     O83049   3.503   3.796   2.785 -0.1114 -0.1846 -0.4798
  616MOL0     C83050   3.423   3.693   2.778  0.9387  0.0555 -0.2221
  616MOL0     C83051   3.300   3.723   2.718  0.6661  0.2089 -0.6647
  616MOL0     C83052   3.198   3.627   2.710 -0.2340 -0.1648  0.5825
  616MOL0     C83053   3.219   3.502   2.753  0.4492  0.6396 -0.3636
  616MOL0     C83054   3.109   3.395   2.740 -0.3838  0.5076  0.1555
  616MOL0     O83055   3.137   3.272   2.797  0.2450 -0.5418 -0.1928
  616MOL0     C83056   3.042   3.171   2.810 -0.3413 -0.3379 -1.1331
  616MOL0     C83057   3.098   3.054   2.873 -0.2498 -0.0358  0.2860
  616MOL0     C83058   3.022   2.950   2.918  0.2813  0.3341 -0.8739
  616MOL0     C83059   2.885   2.946   2.897 -0.2067 -0.5331 -0.0700
  616MOL0     O83060   2.818   2.841   2.943  0.1466  0.2376  0.3093
  616MOL0     C83061   2.685   2.816   2.882  0.0107 -0.6096  0.0722
  616MOL0     C83062   2.718   2.779   2.734 -0.1845 -0.7115  0.3308
  616MOL0     C83063   2.580   2.753   2.663  0.9220 -0.0857 -0.0051
  616MOL0     C83064   2.544   2.603   2.690  0.1571 -0.7252 -0.3380
  616MOL0     C83065   2.426   2.566   2.609 -0.5806 -0.2439 -0.1483
  616MOL0     C83066   2.296   2.571   2.683 -0.5713  0.1484 -0.1756
  616MOL0     C83067   2.173   2.529   2.591 -0.1621  0.8381  0.1284
  616MOL0     C83068   2.061   2.482   2.677  1.1600  0.4052  0.5799
  616MOL0    Cl83069   2.022   2.615   2.786  0.4683 -0.2527  0.1316
  616MOL0     C83070   2.826   3.057   2.839 -0.4160 -0.3580 -0.0685
  616MOL0     C83071   2.899   3.172   2.800 -0.0450 -0.3223 -0.0867
  616MOL0     O83072   3.001   3.426   2.695 -0.5014 -0.1915 -0.0609
  616MOL0     C83073   3.333   3.472   2.813 -1.3424 -0.5832 -0.5892
  616MOL0     C83074   3.439   3.567   2.824 -0.5005  0.1708 -0.5331
  616MOL0     N83075   3.965   4.225   2.793 -0.5466  0.0073  0.5613
  616MOL0     N83076   3.909   4.329   2.839  0.6759 -0.4513  0.6024
  616MOL0     C83077   3.391   4.731   3.910  0.4226 -0.2166  0.1457
  616MOL0     C83078   3.451   4.843   3.978  0.4771 -0.6390 -0.2092
  616MOL0     C83079   3.729   5.199   4.071  0.2679  0.3200  0.5166
  616MOL0     C83080   3.667   5.208   4.194  0.3739  1.4176 -0.4514
  616MOL0     C83081   3.693   5.305   4.289 -0.0964 -0.0287  0.1038
  616MOL0     C83082   3.765   5.418   4.261  0.5979 -0.2842  0.1239
  616MOL0     O83083   3.779   5.525   4.343  0.7977 -0.0282  0.0181
  616MOL0     C83084   3.702   5.527   4.467  0.5671  0.0740 -0.0068
  616MOL0     C83085   3.708   5.674   4.533  0.3038  1.3375 -0.3199
  616MOL0     C83086   3.828   5.684   4.621  0.2237  0.8040  0.1011
  616MOL0     C83087   3.846   5.823   4.673  0.2203  0.3421  0.3098
  616MOL0     C83088   3.968   5.823   4.747 -0.2477 -0.6755 -0.3093
  616MOL0     C83089   4.063   5.836   4.819  0.5436  0.7798 -0.3712
  616MOL0     C83090   3.841   5.416   4.141  0.0741 -0.9432 -0.8136
  616MOL0     C83091   3.822   5.307   4.048  0.0306 -0.1098 -0.7749
  616MOL0     C83092   3.921   5.306   3.933  0.0792  0.0342 -0.8550
  616MOL0     H83093   3.701   4.896   3.769 -0.1840  0.2718  0.0629
  616MOL0     H83094   3.575   4.748   3.626  1.6902  2.2660 -0.9513
  616MOL0     H83095   3.450   4.591   3.514  0.3072 -0.8419 -1.3204
  616MOL0     H83096   3.512   4.474   3.626 -1.8155 -2.1526  1.3793
  616MOL0     H83097   3.243   4.497   3.487  1.2966 -0.2916 -1.4342
  616MOL0     H83098   3.263   4.389   3.628 -2.5769  1.7838 -0.1156
  616MOL0     H83099   3.301   4.252   3.450 -2.2543  2.4465 -2.8254
  616MOL0     H83100   3.458   4.285   3.523 -2.7450 -1.7011  2.6089
  616MOL0     H83101   3.364   4.424   3.267 -0.6491 -0.7374 -0.3716
  616MOL0     H83102   3.515   4.444   3.359  1.6382 -2.2460  1.2521
  616MOL0     H83103   3.556   4.196   3.300 -2.5253 -1.5780  1.7149
  616MOL0     H83104   3.390   4.195   3.225 -0.5786  1.7719 -1.1815
  616MOL0     H83105   3.561   4.202   3.051 -2.5962  0.2745 -2.9215
  616MOL0     H83106   3.472   4.354   3.049 -4.3675 -3.0427  2.3858
  616MOL0     H83107   3.747   4.313   3.189  2.2193  3.7022  0.4388
  616MOL0     H83108   3.651   4.458   3.192 -0.6496 -0.7035  1.5384
  616MOL0     H83109   3.650   4.449   2.931 -0.5268 -0.4457 -0.5271
  616MOL0     H83110   3.787   4.497   3.007 -0.7348  0.9992 -0.7048
  616MOL0     H83111   3.775   4.112   3.036 -0.7702  1.0920  0.6989
  616MOL0     H83112   4.014   3.960   2.764 -1.5513  2.3763 -1.0474
  616MOL0     H83113   4.037   3.968   2.938 -0.8286  2.3221  1.0702
  616MOL0     H83114   3.903   3.778   2.883 -2.2208 -0.9272 -0.6641
  616MOL0     H83115   3.807   3.887   2.988 -0.5380 -0.2102  0.0702
  616MOL0     H83116   3.780   3.867   2.679  1.8384 -0.9624  0.9087
  616MOL0     H83117   3.693   3.974   2.795  0.9644  0.8592  0.6627
  616MOL0     H83118   3.654   3.720   2.905  0.0125  0.4319  0.7718
  616MOL0     H83119   3.675   3.686   2.740  0.3987 -0.5915  1.3703
  616MOL0     H83120   3.274   3.818   2.673 -2.9082 -0.8093 -1.0228
  616MOL0     H83121   3.098   3.645   2.671 -0.6780 -1.5112  1.0207
  616MOL0     H83122   3.205   3.042   2.885 -0.1896  0.9579  0.9321
  616MOL0     H83123   3.073   2.868   2.968  1.9907  0.8949 -1.6058
  616MOL0     H83124   2.636   2.731   2.930 -2.1784 -1.3979 -3.2121
  616MOL0     H83125   2.621   2.904   2.889 -0.1441 -0.6850 -0.3609
  616MOL0     H83126   2.770   2.859   2.681  1.6394 -2.1415 -0.1368
  616MOL0     H83127   2.779   2.688   2.733  0.0130 -0.5827 -0.4250
  616MOL0     H83128   2.507   2.820   2.709  2.4622  1.3090  0.5201
  616MOL0     H83129   2.584   2.778   2.557 -1.1064 -2.8792 -0.8493
  616MOL0     H83130   2.527   2.582   2.796  2.1351 -0.9811 -0.0348
  616MOL0     H83131   2.630   2.542   2.660 -2.1748 -4.8901  0.6560
  616MOL0     H83132   2.441   2.467   2.567  0.8758 -0.5199  0.9361
  616MOL0     H83133   2.424   2.640   2.528  1.7103  0.7351  0.6218
  616MOL0     H83134   2.301   2.494   2.760 -0.4968  1.8269  1.5573
  616MOL0     H83135   2.288   2.663   2.741  2.5580  0.3080  0.1279
  616MOL0     H83136   2.189   2.451   2.516  0.1068  0.7635  0.2588
  616MOL0     H83137   2.138   2.616   2.536  0.7393  0.5271 -0.9854
  616MOL0     H83138   1.978   2.457   2.610  2.0710 -0.8611 -0.1300
  616MOL0     H83139   2.084   2.387   2.727  0.0500  0.6567  1.5896
  616MOL0     H83140   2.720   3.064   2.818 -0.1738  4.2603 -0.7174
  616MOL0     H83141   2.848   3.258   2.756  0.5670 -0.7284 -1.6647
  616MOL0     H83142   3.353   3.371   2.847 -3.5340 -0.2800  1.8824
  616MOL0     H83143   3.538   3.538   2.858  0.5281  0.9699 -2.6445
  616MOL0     H83144   3.303   4.676   3.945 -0.6069  1.0532 -0.3882
  616MOL0     H83145   3.409   4.883   4.069  0.6095  0.2600 -0.5270
  616MOL0     H83146   3.605   5.124   4.226  2.0988 -0.1983 -1.1564
  616MOL0     H83147   3.636   5.296   4.381  0.3160  3.2353  0.7987
  616MOL0     H83148   3.729   5.453   4.542 -1.0975 -2.4222 -1.7359
  616MOL0     H83149   3.602   5.506   4.427  1.0655  0.7490 -1.7132
  616MOL0     H83150   3.616   5.697   4.588  0.4278  0.6380  0.1890
  616MOL0     H83151   3.713   5.747   4.451  2.7566 -0.7761 -2.2493
  616MOL0     H83152   3.918   5.663   4.563 -1.3737 -0.7921 -2.0098
  616MOL0     H83153   3.840   5.606   4.697  0.8727  0.5794 -0.2295
  616MOL0     H83154   3.866   5.890   4.589  0.9238 -0.8630 -0.5207
  616MOL0     H83155   3.764   5.863   4.734 -0.7962  0.5194 -1.1105
  616MOL0     H83156   4.149   5.841   4.883  1.6721 -1.5126 -1.5977
  616MOL0     H83157   3.908   5.500   4.125 -0.7309  0.5406  2.5403
  616MOL0     H83158   3.963   5.208   3.907 -0.8551 -0.4858 -0.4730
  616MOL0     H83159   3.871   5.338   3.841  0.8698  0.9935 -0.9656
  616MOL0     H83160   4.006   5.374   3.941  1.5646 -1.5778 -1.9918
  617MOL0     O83161   6.235   6.993   7.131  0.1131 -0.7561 -0.1578
  617MOL0     C83162   6.199   6.978   7.013  0.0571  0.1748 -0.5277
  617MOL0     O83163   6.283   6.968   6.900  0.5234 -0.2459  0.3175
  617MOL0     C83164   6.407   7.028   6.886 -0.4682  0.4953  0.2541
  617MOL0     C83165   6.464   7.003   6.766 -0.3638 -0.9871  0.0391
  617MOL0     C83166   6.597   7.041   6.734 -0.8179 -0.3408 -0.3645
  617MOL0     C83167   6.664   7.107   6.834 -1.2874 -0.2654  0.2953
  617MOL0     O83168   6.796   7.129   6.833 -0.6025 -0.5458  0.1712
  617MOL0     C83169   6.880   7.061   6.742 -0.0166 -0.3214  0.0166
  617MOL0     C83170   7.033   7.084   6.778  0.9158 -0.5098 -0.1079
  617MOL0     C83171   7.121   7.074   6.649 -0.5843  0.0660 -0.7925
  617MOL0     C83172   7.274   7.107   6.677 -0.1057 -0.7902 -0.0548
  617MOL0     C83173   7.366   7.071   6.560  0.9038 -0.0380  0.2747
  617MOL0     C83174   7.342   7.154   6.424  0.5320  0.2488  0.1018
  617MOL0     C83175   7.407   7.292   6.418  0.2551  0.0497  0.3325
  617MOL0     C83176   7.421   7.344   6.267  0.4841  0.2688  0.4322
  617MOL0     N83177   7.556   7.394   6.253  0.0978 -0.3179  0.7818
  617MOL0     C83178   7.649   7.350   6.163 -0.3717  0.2529 -0.7746
  617MOL0     C83179   7.739   7.460   6.151 -0.3404 -0.3342 -0.6281
  617MOL0     C83180   7.859   7.467   6.059 -0.6562  0.6836 -0.8928
  617MOL0     C83181   7.927   7.324   6.032  0.1018  0.1000 -0.2573
  617MOL0     C83182   8.034   7.323   5.925  0.5234  0.6946  0.2632
  617MOL0     C83183   8.154   7.409   5.936 -0.3431 -1.5853 -0.9862
  617MOL0     O83184   8.213   7.389   6.065 -0.3270  0.8568  0.7034
  617MOL0     C83185   8.295   7.484   6.094  0.3919 -0.1504  0.4545
  617MOL0     C83186   8.432   7.460   6.077  0.1986 -0.5005  0.2756
  617MOL0     C83187   8.521   7.565   6.092 -0.5481  0.3803 -0.1199
  617MOL0     C83188   8.474   7.698   6.126  1.0209  0.0260 -0.3063
  617MOL0     C83189   8.573   7.810   6.148 -0.5592  0.5540 -0.1267
  617MOL0     O83190   8.701   7.776   6.158  0.3140 -0.9259 -0.4478
  617MOL0     C83191   8.805   7.868   6.126 -0.2293 -0.2548 -0.4037
  617MOL0     C83192   8.784   7.989   6.061  0.1907  0.5141  0.7866
  617MOL0     C83193   8.897   8.059   6.016 -0.1480  0.4991  0.2881
  617MOL0     C83194   9.026   8.011   6.025 -0.2372 -0.7068  0.2756
  617MOL0     O83195   9.129   8.092   5.982  0.4037 -0.8630 -0.4143
  617MOL0     C83196   9.245   8.028   5.919 -0.4026 -0.4620  0.1946
  617MOL0     C83197   9.369   8.083   5.988 -0.3788 -0.5807 -0.3089
  617MOL0     C83198   9.490   8.061   5.901 -0.3714 -0.5382 -0.2420
  617MOL0     C83199   9.597   8.160   5.926 -0.0705 -0.1991 -0.0157
  617MOL0     C83200   9.685   8.190   5.793  0.4926  0.5476 -0.9482
  617MOL0     C83201   9.811   8.263   5.838  0.1329  0.5773  0.7004
  617MOL0     C83202   9.900   8.291   5.714  0.4109 -0.7931  0.2161
  617MOL0     C83203   9.991   8.413   5.722  0.8380  0.3641 -0.1967
  617MOL0    Cl83204  10.075   8.419   5.874 -0.2035  0.4421  0.2196
  617MOL0     C83205   9.048   7.902   6.103  0.4900  0.5381 -1.0261
  617MOL0     C83206   8.934   7.826   6.158 -0.9448 -0.2733  0.6732
  617MOL0     O83207   8.527   7.916   6.176  0.9508 -0.5246 -0.0705
  617MOL0     C83208   8.335   7.716   6.153  0.2459  0.0029 -0.3957
  617MOL0     C83209   8.251   7.604   6.148  1.1955 -0.4656  0.4606
  617MOL0     N83210   7.699   7.558   6.236  0.6386  0.5167  0.2719
  617MOL0     N83211   7.590   7.520   6.288  0.2638  0.0342 -0.4054
  617MOL0     C83212   6.608   7.142   6.957 -0.5643 -0.5835  0.5673
  617MOL0     C83213   6.476   7.104   6.980 -0.4476  0.2353 -0.4613
  617MOL0     C83214   6.042   6.971   6.991  0.3911 -0.6011  0.3157
  617MOL0     C83215   5.954   6.956   7.101  1.2142 -0.7166  0.6125
  617MOL0     C83216   5.811   6.951   7.089 -0.8137  0.1844  0.5823
  617MOL0     C83217   5.761   6.947   6.964  0.1434 -0.1360  0.2880
  617MOL0     O83218   5.628   6.923   6.933  0.3680  0.5689 -0.3098
  617MOL0     C83219   5.535   6.927   7.045  0.4735  0.6442  0.1385
  617MOL0     C83220   5.390   6.917   6.985  0.0424 -0.4954  0.0859
  617MOL0     C83221   5.282   6.914   7.098 -0.4680 -0.5574 -0.0385
  617MOL0     C83222   5.158   6.851   7.044 -0.1256  0.9621 -0.0334
  617MOL0     C83223   5.065   6.858   7.157 -0.5653  1.1194 -0.2729
  617MOL0     C83224   4.972   6.846   7.236  0.1447  0.3407  0.9723
  617MOL0     C83225   5.840   6.968   6.853  0.0084  0.0565  0.4839
  617MOL0     C83226   5.979   6.983   6.864  0.4237 -0.1100 -0.4123
  617MOL0     C83227   6.052   6.996   6.730  0.0675  0.0347 -0.9783
  617MOL0     H83228   6.423   6.949   6.681 -1.5434  4.2961 -3.2097
  617MOL0     H83229   6.647   7.024   6.639 -0.2698 -3.3459  0.3543
  617MOL0     H83230   6.858   6.955   6.731  0.4005 -0.1806 -2.8565
  617MOL0     H83231   6.868   7.114   6.647  1.2054  2.9378  1.5022
  617MOL0     H83232   7.073   7.025   6.862  2.0915  0.0084 -0.2876
  617MOL0     H83233   7.048   7.186   6.814  0.4164 -0.2224 -0.7061
  617MOL0     H83234   7.092   7.158   6.586  0.1396 -0.1438 -1.4113
  617MOL0     H83235   7.127   6.974   6.604  0.2056  0.6447 -2.0243
  617MOL0     H83236   7.279   7.211   6.708 -0.6088 -0.6493 -0.4249
  617MOL0     H83237   7.300   7.045   6.764 -1.8328  0.9668  1.8229
  617MOL0     H83238   7.464   7.085   6.607  2.1321  0.7654 -2.3651
  617MOL0     H83239   7.366   6.966   6.531 -0.7312 -0.1769  0.6977
  617MOL0     H83240   7.380   7.084   6.349  1.4778 -2.2614  2.7184
  617MOL0     H83241   7.236   7.180   6.424  0.1193 -0.9954  2.8982
  617MOL0     H83242   7.511   7.275   6.448  1.1971  0.3340 -2.5231
  617MOL0     H83243   7.349   7.360   6.481 -0.2910 -1.7598  1.9032
  617MOL0     H83244   7.417   7.278   6.180  1.8617  2.1457 -1.1252
  617MOL0     H83245   7.345   7.420   6.247 -0.8074 -1.0383  0.1587
  617MOL0     H83246   7.653   7.260   6.101 -0.4334 -0.6812  0.5452
  617MOL0     H83247   7.829   7.518   5.967 -0.7942  1.7745 -0.2501
  617MOL0     H83248   7.934   7.538   6.096 -0.3394  0.1103 -0.4186
  617MOL0     H83249   7.976   7.292   6.125 -3.3839  1.4277  2.2460
  617MOL0     H83250   7.847   7.258   5.999 -0.1815  2.2175 -4.4286
  617MOL0     H83251   7.992   7.343   5.826  0.0936  0.4356  0.3861
  617MOL0     H83252   8.065   7.218   5.930 -0.5553  0.2852 -1.0183
  617MOL0     H83253   8.111   7.509   5.943 -0.9510 -1.9586  2.5083
  617MOL0     H83254   8.225   7.396   5.854  0.1645 -0.3308 -0.7670
  617MOL0     H83255   8.471   7.361   6.054  0.1839 -0.9930  2.2333
  617MOL0     H83256   8.627   7.546   6.083 -0.2292  0.1240  3.0246
  617MOL0     H83257   8.688   8.021   6.021  1.1304  1.3146 -0.9734
  617MOL0     H83258   8.882   8.146   5.954  1.2311 -0.4763 -1.5283
  617MOL0     H83259   9.234   7.920   5.907 -0.2632 -0.1863 -4.1249
  617MOL0     H83260   9.250   8.058   5.814  4.7855 -3.5276 -0.7511
  617MOL0     H83261   9.356   8.189   6.009 -2.0775 -0.1643 -2.9657
  617MOL0     H83262   9.369   8.026   6.081 -1.3091  0.8010  0.5681
  617MOL0     H83263   9.531   7.960   5.915 -1.5492 -0.7456  2.1785
  617MOL0     H83264   9.460   8.086   5.799 -0.3356  0.2701 -0.0630
  617MOL0     H83265   9.667   8.122   6.002  0.3406 -0.0670 -0.3260
  617MOL0     H83266   9.564   8.258   5.960  1.3701  0.8801 -1.5672
  617MOL0     H83267   9.626   8.245   5.719 -1.1161  0.4429  0.1971
  617MOL0     H83268   9.718   8.098   5.745  1.7204  0.7690 -0.5424
  617MOL0     H83269   9.790   8.358   5.887 -1.8631  0.9517 -0.7713
  617MOL0     H83270   9.871   8.203   5.908 -4.7355 -1.8584  3.2800
  617MOL0     H83271   9.824   8.288   5.636  2.9021 -2.5579 -2.3201
  617MOL0     H83272   9.960   8.203   5.690 -0.1053 -0.8617 -0.8517
  617MOL0     H83273  10.068   8.409   5.645  0.5891 -2.0633 -0.3876
  617MOL0     H83274   9.926   8.501   5.713 -0.5286 -0.7862 -2.5760
  617MOL0     H83275   9.149   7.865   6.117 -0.7477 -2.9929 -0.5091
  617MOL0     H83276   8.947   7.738   6.220 -0.7148 -0.0305  0.9742
  617MOL0     H83277   8.290   7.813   6.174 -1.0076  0.0888 -3.0209
  617MOL0     H83278   8.145   7.623   6.164  1.2611 -1.1241  1.8561
  617MOL0     H83279   6.667   7.194   7.032  1.4582  0.6856 -1.7584
  617MOL0     H83280   6.431   7.140   7.072  0.2661  0.6287 -0.2591
  617MOL0     H83281   6.013   6.955   7.193 -0.1569 -1.7018  1.5269
  617MOL0     H83282   5.752   6.943   7.180 -3.0971 -1.9478 -0.9448
  617MOL0     H83283   5.546   7.022   7.097 -0.0596  2.0691 -2.2196
  617MOL0     H83284   5.549   6.840   7.110 -0.4411  0.8809  0.6815
  617MOL0     H83285   5.396   6.825   6.925  2.4141 -0.9126  0.8462
  617MOL0     H83286   5.373   6.997   6.913  0.9212  0.2882  0.7375
  617MOL0     H83287   5.254   7.014   7.132  2.1551  0.4675 -0.5873
  617MOL0     H83288   5.331   6.859   7.179 -0.3024  0.9094  0.8890
  617MOL0     H83289   5.113   6.913   6.966 -1.4141 -0.2236 -0.2774
  617MOL0     H83290   5.165   6.752   6.998 -2.7244  1.3326 -1.3996
  617MOL0     H83291   4.890   6.824   7.301 -0.0228 -1.8074  0.1103
  617MOL0     H83292   5.797   6.966   6.754 -1.2602  3.0881  0.8712
  617MOL0     H83293   6.128   7.076   6.732 -2.5867  2.8417  3.5156
  617MOL0     H83294   6.101   6.904   6.697  1.8174  1.7501 -3.6026
  617MOL0     H83295   5.983   7.030   6.652  1.7747 -0.8551 -2.9952
  618MOL0     O83296   4.513   5.361  11.095  0.1701  0.3978  0.4056
  618MOL0     C83297   4.547   5.352  11.213  0.5436  0.0920  0.3671
  618MOL0     O83298   4.667   5.395  11.268 -0.1175  0.6845  0.7588
  618MOL0     C83299   4.750   5.473  11.199 -0.0363  0.0795 -0.0837
  618MOL0     C83300   4.880   5.440  11.213  0.4799  0.3460 -0.1736
  618MOL0     C83301   4.975   5.525  11.158 -0.3582  0.8132 -0.2456
  618MOL0     C83302   4.949   5.636  11.082 -0.2750  0.3246 -0.1219
  618MOL0     O83303   5.054   5.707  11.034 -0.0052 -0.4839 -0.6197
  618MOL0     C83304   5.029   5.779  10.907  0.5860  0.1134  0.6002
  618MOL0     C83305   5.152   5.851  10.848 -0.7769  0.0422  0.1733
  618MOL0     C83306   5.260   5.749  10.820  0.8328 -0.5409  0.3124
  618MOL0     C83307   5.390   5.825  10.783  0.5091 -0.4194  0.1409
  618MOL0     C83308   5.461   5.898  10.897  0.5750 -0.1000  0.5318
  618MOL0     C83309   5.576   5.981  10.845  0.0665  0.4034  0.3572
  618MOL0     C83310   5.697   5.886  10.822  0.2062  0.5193  0.0095
  618MOL0     C83311   5.804   5.961  10.746  0.3044  0.3483  0.1589
  618MOL0     N83312   5.919   5.886  10.708 -0.4255  0.4554 -0.7467
  618MOL0     C83313   6.046   5.927  10.696  0.4257 -0.2306 -0.5362
  618MOL0     C83314   6.121   5.821  10.670 -0.6619  0.3600 -0.0360
  618MOL0     C83315   6.268   5.810  10.625  0.0034 -0.5563  0.7749
  618MOL0     C83316   6.351   5.702  10.690  1.0058 -0.4588 -0.6409
  618MOL0     C83317   6.500   5.711  10.637 -0.4309 -0.7510 -1.4923
  618MOL0     C83318   6.580   5.604  10.701 -0.4708 -0.0955 -0.0783
  618MOL0     O83319   6.714   5.603  10.644  0.1888 -0.9057  0.0440
  618MOL0     C83320   6.808   5.527  10.710 -0.2637  0.0079 -0.4663
  618MOL0     C83321   6.937   5.527  10.661 -0.3742  1.1013  1.5053
  618MOL0     C83322   7.039   5.447  10.714 -0.3954  0.4842  0.4921
  618MOL0     C83323   7.012   5.352  10.812  1.0090  0.5479 -0.2912
  618MOL0     C83324   7.117   5.266  10.855 -1.0754  0.4000 -0.6160
  618MOL0     O83325   7.239   5.273  10.789 -0.4624 -0.3824 -0.0152
  618MOL0     C83326   7.324   5.162  10.801  0.3530 -0.3728 -0.4763
  618MOL0     C83327   7.433   5.171  10.888  0.2531  0.3437 -0.5429
  618MOL0     C83328   7.522   5.060  10.906 -0.3334 -0.2027  0.5277
  618MOL0     C83329   7.496   4.935  10.838 -0.0851 -0.4412 -0.7848
  618MOL0     O83330   7.585   4.830  10.844  0.4347 -0.2573 -0.6448
  618MOL0     C83331   7.657   4.799  10.725 -0.1482 -0.7033  0.3157
  618MOL0     C83332   7.764   4.692  10.747  0.6786  0.1211  0.3604
  618MOL0     C83333   7.900   4.740  10.691 -0.2732 -0.2568  0.0829
  618MOL0     C83334   7.992   4.619  10.652  0.2544 -0.2481 -0.0831
  618MOL0     C83335   8.136   4.656  10.630  0.6966  0.7541 -0.8794
  618MOL0     C83336   8.216   4.545  10.575 -0.2041  0.7427  0.3125
  618MOL0     C83337   8.362   4.585  10.546 -0.4464 -0.1667 -0.3116
  618MOL0     C83338   8.429   4.482  10.466 -0.1659  0.3477 -0.3848
  618MOL0    Cl83339   8.591   4.532  10.444  0.1498 -0.1641 -0.1364
  618MOL0     C83340   7.380   4.928  10.756 -0.0120 -0.2530 -0.5900
  618MOL0     C83341   7.290   5.033  10.745  0.0032 -0.0888  1.3093
  618MOL0     O83342   7.089   5.167  10.929  0.5791 -0.9493  0.3835
  618MOL0     C83343   6.889   5.362  10.875  0.8479  0.8045 -0.1427
  618MOL0     C83344   6.781   5.445  10.824  0.0980  0.3084  0.2063
  618MOL0     N83345   6.024   5.712  10.668 -0.7127  0.5027 -0.4964
  618MOL0     N83346   5.915   5.748  10.700  1.1502 -0.0027  1.3294
  618MOL0     C83347   4.808   5.666  11.071 -0.0301 -0.3376  1.3928
  618MOL0     C83348   4.714   5.587  11.134 -0.3586 -0.2256  1.0073
  618MOL0     C83349   4.450   5.290  11.310  0.1256 -0.0149  0.2034
  618MOL0     C83350   4.504   5.230  11.432  1.4514 -0.4512 -0.0663
  618MOL0     C83351   4.422   5.156  11.515  1.1994  0.4833 -0.0881
  618MOL0     C83352   4.281   5.149  11.491  0.5028  0.0059  1.2470
  618MOL0     O83353   4.188   5.084  11.573 -0.1046  0.7349  0.2462
  618MOL0     C83354   4.224   4.956  11.630 -0.3450  0.2767  0.5735
  618MOL0     C83355   4.252   4.841  11.528 -0.3197  0.2705  0.2986
  618MOL0     C83356   4.409   4.829  11.481 -0.3183  0.6880  0.2646
  618MOL0     C83357   4.451   4.684  11.450  0.7497 -0.1989 -0.2818
  618MOL0     C83358   4.363   4.632  11.338 -0.0060  0.7650 -0.1905
  618MOL0     C83359   4.290   4.582  11.257 -0.1155  0.2563  0.2655
  618MOL0     C83360   4.227   5.225  11.389 -0.6445 -0.6937  0.2928
  618MOL0     C83361   4.309   5.288  11.299 -0.2549  0.0474 -0.5590
  618MOL0     C83362   4.239   5.356  11.186 -0.4676  0.1645 -0.3271
  618MOL0     H83363   4.902   5.360  11.283 -0.9719 -0.9748 -1.1761
  618MOL0     H83364   5.079   5.499  11.167 -0.6235 -0.2570 -0.1647
  618MOL0     H83365   4.993   5.711  10.830 -0.4435  2.5619 -1.2238
  618MOL0     H83366   4.944   5.847  10.922 -1.5578 -2.5332  1.1371
  618MOL0     H83367   5.194   5.927  10.914  1.3692  1.1703 -2.3448
  618MOL0     H83368   5.114   5.906  10.762 -0.1493  1.4390  0.7564
  618MOL0     H83369   5.228   5.693  10.732 -0.9927  1.5431 -0.4563
  618MOL0     H83370   5.269   5.682  10.906 -0.5076  0.9591  1.6920
  618MOL0     H83371   5.468   5.753  10.756  2.6207  1.3010  1.2820
  618MOL0     H83372   5.371   5.895  10.702  1.1156 -2.2588 -1.6606
  618MOL0     H83373   5.387   5.975  10.923 -1.2681 -1.0299 -1.6369
  618MOL0     H83374   5.491   5.836  10.981 -2.5385 -0.8109  1.2626
  618MOL0     H83375   5.553   6.035  10.753 -1.4593  1.0345  1.0747
  618MOL0     H83376   5.608   6.054  10.920  0.8045 -1.2610  1.7382
  618MOL0     H83377   5.676   5.801  10.756 -0.6647  1.1544 -0.5464
  618MOL0     H83378   5.727   5.855  10.923  1.1515  2.1098  0.2477
  618MOL0     H83379   5.752   5.988  10.653  0.9078 -1.7522 -0.8580
  618MOL0     H83380   5.830   6.050  10.804 -0.6296 -0.2388  1.5327
  618MOL0     H83381   6.080   6.030  10.698  1.5880 -0.6042  1.6633
  618MOL0     H83382   6.273   5.793  10.517  1.4609 -1.7470  0.9913
  618MOL0     H83383   6.315   5.908  10.635  1.1741 -0.7782 -1.8392
  618MOL0     H83384   6.338   5.714  10.798 -2.2206 -1.6513 -0.7734
  618MOL0     H83385   6.299   5.608  10.666  1.6880 -0.8702 -0.5544
  618MOL0     H83386   6.543   5.810  10.655 -0.0374 -0.9641 -1.2209
  618MOL0     H83387   6.501   5.690  10.530  0.4564 -1.8375 -1.2897
  618MOL0     H83388   6.538   5.509  10.668 -0.1824 -0.6423  1.0747
  618MOL0     H83389   6.581   5.619  10.810  1.5104 -0.3966 -0.0264
  618MOL0     H83390   6.972   5.592  10.581  1.7000  1.0173  2.2678
  618MOL0     H83391   7.133   5.464  10.663 -1.4121  1.3951 -1.1914
  618MOL0     H83392   7.446   5.265  10.941 -2.8010  2.7904 -3.6882
  618MOL0     H83393   7.604   5.062  10.977  2.8839 -3.5092 -2.6597
  618MOL0     H83394   7.584   4.773  10.648 -1.5378 -0.5733  1.5433
  618MOL0     H83395   7.704   4.894  10.700 -3.4970  1.9011  2.8848
  618MOL0     H83396   7.771   4.665  10.852  1.9346 -0.9518  0.0275
  618MOL0     H83397   7.734   4.601  10.694 -0.2475  0.6356 -0.0202
  618MOL0     H83398   7.897   4.807  10.604  1.9771  0.4847  0.4958
  618MOL0     H83399   7.954   4.793  10.770  2.2817 -2.1279 -0.2724
  618MOL0     H83400   7.947   4.571  10.564 -1.1567 -0.5542  0.7765
  618MOL0     H83401   7.995   4.543  10.730 -0.0861  1.1081  1.3158
  618MOL0     H83402   8.184   4.694  10.720 -0.1092  1.5909 -0.7857
  618MOL0     H83403   8.140   4.737  10.556  0.7230  0.0728 -1.6429
  618MOL0     H83404   8.210   4.456  10.639  0.0866  0.6638  0.2334
  618MOL0     H83405   8.167   4.512  10.483  1.8395 -3.7384  0.5473
  618MOL0     H83406   8.423   4.603  10.635 -0.4376  0.4328 -0.4376
  618MOL0     H83407   8.338   4.670  10.481 -1.3590  0.9165  1.3490
  618MOL0     H83408   8.429   4.388  10.521  0.1384 -1.4311 -3.2405
  618MOL0     H83409   8.376   4.475  10.371 -2.2285  1.9615  0.5453
  618MOL0     H83410   7.348   4.831  10.719 -1.1988 -0.5171  1.0044
  618MOL0     H83411   7.196   5.022  10.691  1.0742 -2.2050 -0.2602
  618MOL0     H83412   6.867   5.284  10.947  0.7513 -0.1963 -1.2360
  618MOL0     H83413   6.684   5.433  10.872 -0.0500 -0.5866 -0.3102
  618MOL0     H83414   4.767   5.747  11.013  0.8849 -0.9439 -0.1453
  618MOL0     H83415   4.611   5.619  11.142 -0.6367 -0.9354  0.4104
  618MOL0     H83416   4.608   5.235  11.462  0.8104 -1.7434  2.6957
  618MOL0     H83417   4.461   5.092  11.594 -0.3119 -4.1452 -2.6682
  618MOL0     H83418   4.140   4.912  11.685  0.1191 -1.5614 -0.1118
  618MOL0     H83419   4.296   4.962  11.712 -1.1109  0.1379  1.2665
  618MOL0     H83420   4.176   4.846  11.450 -0.7516  0.3227  0.7176
  618MOL0     H83421   4.235   4.745  11.577  0.3654 -0.7312 -1.3447
  618MOL0     H83422   4.474   4.858  11.564  0.1397 -2.7356  1.2476
  618MOL0     H83423   4.419   4.897  11.395 -0.6517  2.1529  1.3516
  618MOL0     H83424   4.554   4.674  11.416  1.1862  1.5688  0.4605
  618MOL0     H83425   4.424   4.624  11.537  0.0682 -0.7238 -0.8327
  618MOL0     H83426   4.228   4.538  11.182  3.2748  0.4653 -2.9127
  618MOL0     H83427   4.119   5.226  11.382 -0.5613  0.2509 -2.0721
  618MOL0     H83428   4.135   5.368  11.218  0.6344 -0.4411  4.3065
  618MOL0     H83429   4.283   5.456  11.181  0.3787  0.1271  3.3387
  618MOL0     H83430   4.260   5.303  11.093  0.3381  0.4871 -0.3367
  619MOL0     O83431   7.533   9.445   9.279 -0.5543  0.1829  0.7315
  619MOL0     C83432   7.517   9.329   9.228 -0.1993 -0.5522 -0.7296
  619MOL0     O83433   7.619   9.234   9.196  0.8796  0.0214 -0.2401
  619MOL0     C83434   7.747   9.258   9.230 -0.3327  0.5259 -0.0295
  619MOL0     C83435   7.831   9.152   9.275  1.0009  0.1936 -0.1571
  619MOL0     C83436   7.958   9.177   9.316  0.7116 -0.7472 -0.2633
  619MOL0     C83437   8.004   9.307   9.315  0.0581 -0.4094 -0.5343
  619MOL0     O83438   8.123   9.330   9.375 -0.1636  0.0167  0.1039
  619MOL0     C83439   8.242   9.275   9.312 -0.5241  0.3690 -1.0084
  619MOL0     C83440   8.359   9.363   9.378  0.2367  0.5607 -0.5147
  619MOL0     C83441   8.497   9.321   9.329 -0.7526  0.4836  0.1662
  619MOL0     C83442   8.613   9.398   9.385 -0.1391 -0.6751  0.0607
  619MOL0     C83443   8.741   9.356   9.306  0.0752 -0.1167  0.0899
  619MOL0     C83444   8.850   9.457   9.317  0.4456 -0.3103 -0.4859
  619MOL0     C83445   8.978   9.397   9.258 -0.1631  0.6209 -0.1044
  619MOL0     C83446   9.084   9.503   9.257 -0.3584 -0.6360  0.5201
  619MOL0     N83447   9.209   9.471   9.189 -0.3898  0.7047  1.0125
  619MOL0     C83448   9.265   9.540   9.084  0.0692 -0.2448 -0.6906
  619MOL0     C83449   9.394   9.501   9.068 -0.7621 -0.4401 -0.4633
  619MOL0     C83450   9.498   9.533   8.968  0.1755  0.1807 -0.9272
  619MOL0     C83451   9.628   9.575   9.024 -0.2513 -0.1170  0.8824
  619MOL0     C83452   9.730   9.624   8.911  0.4660 -0.3177 -0.1876
  619MOL0     C83453   9.873   9.625   8.955  1.0046  0.2419 -1.1321
  619MOL0     O83454   9.956   9.666   8.848  0.0194 -0.8067  0.5970
  619MOL0     C83455  10.069   9.728   8.869 -0.3725 -1.2346  0.6544
  619MOL0     C83456  10.125   9.746   8.990 -0.4331  0.1456  0.2076
  619MOL0     C83457  10.250   9.814   9.009 -0.1058  0.4194 -0.3176
  619MOL0     C83458  10.314   9.880   8.903 -0.0193 -0.5146 -0.0716
  619MOL0     C83459  10.437   9.962   8.927  0.1453  0.0968 -0.1216
  619MOL0     O83460  10.484   9.959   9.056  0.5721 -0.6252  0.4853
  619MOL0     C83461  10.598  10.019   9.095 -0.1341  0.0913 -0.8113
  619MOL0     C83462  10.603  10.049   9.234 -0.3166 -0.5130 -0.1466
  619MOL0     C83463  10.717  10.109   9.290 -0.5386 -0.0130  0.8216
  619MOL0     C83464  10.818  10.163   9.199 -0.2647  0.3649 -1.4232
  619MOL0     O83465  10.927  10.240   9.237  0.3568  0.2407 -0.2136
  619MOL0     C83466  10.941  10.290   9.377 -0.2213  0.0537  0.3026
  619MOL0     C83467  11.068  10.375   9.401 -0.5526 -0.8976 -0.1661
  619MOL0     C83468  11.178  10.360   9.295  0.2526 -0.9216  0.1392
  619MOL0     C83469  11.158  10.422   9.166  0.3441 -0.0959  0.5698
  619MOL0     C83470  11.278  10.449   9.076  0.6846 -0.5182 -1.1027
  619MOL0     C83471  11.318  10.316   9.015 -0.0264  0.4455 -0.8698
  619MOL0     C83472  11.424  10.341   8.903 -1.0828 -0.3449  0.5749
  619MOL0     C83473  11.347  10.341   8.776  0.4656 -0.1071 -0.0353
  619MOL0    Cl83474  11.356  10.183   8.711 -0.0865 -0.4665  0.0182
  619MOL0     C83475  10.819  10.124   9.066  0.3104 -0.1696  1.0570
  619MOL0     C83476  10.702  10.058   9.015  0.1450  0.2964  0.3213
  619MOL0     O83477  10.492  10.002   8.825 -0.0705 -0.4264  0.6761
  619MOL0     C83478  10.251   9.867   8.771 -0.8503  0.6507 -1.0200
  619MOL0     C83479  10.130   9.786   8.760  0.2348 -0.2834 -0.4216
  619MOL0     N83480   9.414   9.396   9.156 -0.4110  0.7396  0.4111
  619MOL0     N83481   9.309   9.384   9.224  0.6660  0.5788  0.1275
  619MOL0     C83482   7.933   9.407   9.255  0.0925 -0.5144  0.0165
  619MOL0     C83483   7.805   9.385   9.206 -0.0768 -0.8139 -0.1260
  619MOL0     C83484   7.375   9.298   9.213 -0.8174 -0.2791  0.5313
  619MOL0     C83485   7.299   9.389   9.140  0.1484  0.5185  0.2264
  619MOL0     C83486   7.172   9.347   9.102  0.1517  0.5965  0.0240
  619MOL0     C83487   7.118   9.215   9.134  0.4932 -0.0877 -0.6954
  619MOL0     O83488   6.990   9.168   9.094  0.6024 -0.0891 -0.5855
  619MOL0     C83489   7.000   9.055   9.012  0.6418 -0.0743  1.0600
  619MOL0     C83490   7.057   9.095   8.868  0.1367 -0.5871  0.1072
  619MOL0     C83491   7.047   8.976   8.775  0.2326  0.1738  0.9341
  619MOL0     C83492   7.071   8.993   8.620 -0.1345 -0.1427  0.0637
  619MOL0     C83493   7.013   9.120   8.578 -0.1644  0.5235  0.2061
  619MOL0     C83494   6.956   9.214   8.534 -0.0512 -0.3017 -0.2032
  619MOL0     C83495   7.201   9.132   9.208  0.1986  0.1587  0.0486
  619MOL0     C83496   7.328   9.165   9.246  0.2056 -0.6705 -0.8441
  619MOL0     C83497   7.412   9.062   9.320  0.3052 -0.3486 -0.4183
  619MOL0     H83498   7.797   9.049   9.280  0.6504  0.3197  0.1014
  619MOL0     H83499   8.015   9.103   9.371 -1.8347 -2.1661  0.6422
  619MOL0     H83500   8.246   9.168   9.335 -2.8584 -0.3781 -3.5842
  619MOL0     H83501   8.238   9.296   9.205  1.8032  2.5638 -0.7338
  619MOL0     H83502   8.345   9.349   9.486 -0.7287  1.0913 -0.5591
  619MOL0     H83503   8.346   9.466   9.344  1.5585  0.7040 -0.6301
  619MOL0     H83504   8.494   9.320   9.219  0.3588 -2.0871  0.1051
  619MOL0     H83505   8.522   9.219   9.358  0.4630  0.9385  0.7618
  619MOL0     H83506   8.590   9.500   9.353 -1.7096 -1.2062 -0.5641
  619MOL0     H83507   8.621   9.400   9.494  1.0476  2.7717  0.0601
  619MOL0     H83508   8.772   9.257   9.340  1.3696 -0.1629 -1.1283
  619MOL0     H83509   8.713   9.349   9.201 -1.0023  1.2335  0.2500
  619MOL0     H83510   8.820   9.545   9.258 -0.2975 -0.7175 -0.7344
  619MOL0     H83511   8.861   9.480   9.423  0.4663  1.6580 -0.8767
  619MOL0     H83512   8.958   9.362   9.157  2.9285 -1.3683 -0.1622
  619MOL0     H83513   9.006   9.308   9.314 -2.4043 -0.6197 -0.8482
  619MOL0     H83514   9.039   9.590   9.211 -1.6297 -0.7598  1.4687
  619MOL0     H83515   9.122   9.517   9.359  1.3503  5.3934 -0.5414
  619MOL0     H83516   9.216   9.619   9.027  0.8555  0.6930 -0.1121
  619MOL0     H83517   9.524   9.445   8.909 -1.9042 -1.0365 -0.1141
  619MOL0     H83518   9.456   9.605   8.897  0.2387 -0.1327 -1.2848
  619MOL0     H83519   9.600   9.656   9.092 -0.4277 -0.6551  1.4523
  619MOL0     H83520   9.671   9.490   9.077  0.0121 -1.9537 -2.0386
  619MOL0     H83521   9.711   9.731   8.899  1.9366  0.2198  1.8315
  619MOL0     H83522   9.724   9.572   8.814 -1.5817  0.2759 -0.4273
  619MOL0     H83523   9.909   9.524   8.976  1.3780  0.5206 -0.4254
  619MOL0     H83524   9.884   9.672   9.053  0.1335 -1.4895 -0.1533
  619MOL0     H83525  10.083   9.697   9.077  2.0038  0.2178  1.5112
  619MOL0     H83526  10.296   9.823   9.107  0.5841  1.4931 -0.7240
  619MOL0     H83527  10.521  10.025   9.301 -0.1297  0.3405  0.4042
  619MOL0     H83528  10.732  10.120   9.397  1.2076  2.1334  0.4363
  619MOL0     H83529  10.855  10.347   9.414 -0.4601 -0.9924  1.4450
  619MOL0     H83530  10.946  10.198   9.436  2.8417 -0.8342 -1.1676
  619MOL0     H83531  11.035  10.479   9.408 -0.8148 -0.9666 -0.3728
  619MOL0     H83532  11.102  10.342   9.500 -0.2377  0.8991  0.3602
  619MOL0     H83533  11.266  10.414   9.332  0.3262  1.4841 -3.0880
  619MOL0     H83534  11.199  10.253   9.295 -0.2883 -1.2422  4.8290
  619MOL0     H83535  11.120  10.518   9.202  1.6329 -0.7587  4.0367
  619MOL0     H83536  11.085  10.368   9.105 -0.2243 -2.7656  3.4097
  619MOL0     H83537  11.367  10.481   9.130  1.5444 -1.7747 -1.7266
  619MOL0     H83538  11.246  10.521   8.999  0.6772  0.8905  0.1727
  619MOL0     H83539  11.370  10.270   9.099  2.6305  2.8247 -1.0489
  619MOL0     H83540  11.227  10.264   8.982 -1.1727  2.2004 -0.6402
  619MOL0     H83541  11.502  10.265   8.898  0.8446  1.6005 -1.0004
  619MOL0     H83542  11.467  10.440   8.921 -1.1348 -0.3535  0.7461
  619MOL0     H83543  11.244  10.374   8.790  0.2811 -0.9468  0.6956
  619MOL0     H83544  11.399  10.401   8.701  1.5877 -1.5145 -0.4380
  619MOL0     H83545  10.889  10.161   8.992  0.6061 -0.3137  1.2655
  619MOL0     H83546  10.705  10.026   8.912  0.3261 -0.0999  0.4450
  619MOL0     H83547  10.291   9.911   8.681  2.6869 -1.3386 -0.5824
  619MOL0     H83548  10.082   9.776   8.663  2.2740 -2.6604 -1.2625
  619MOL0     H83549   7.965   9.511   9.251  1.2808 -0.8760 -0.3055
  619MOL0     H83550   7.754   9.465   9.154 -3.7902 -3.2763 -0.6373
  619MOL0     H83551   7.350   9.483   9.119  2.7319 -0.1954  2.5707
  619MOL0     H83552   7.120   9.422   9.044 -1.0976  1.6380  2.3601
  619MOL0     H83553   6.900   9.013   8.994  0.4656  0.7267  0.0720
  619MOL0     H83554   7.057   8.972   9.053 -1.7887 -2.0905  0.5947
  619MOL0     H83555   7.161   9.123   8.885  0.2626  0.5817 -2.2473
  619MOL0     H83556   7.010   9.185   8.829  2.0839  1.5544  2.3757
  619MOL0     H83557   6.942   8.946   8.772 -0.0907  1.3073 -2.5077
  619MOL0     H83558   7.087   8.881   8.812 -0.8855 -1.3932 -1.5820
  619MOL0     H83559   7.179   8.992   8.606 -0.0252 -0.2692  0.8536
  619MOL0     H83560   7.029   8.907   8.568  0.9448 -2.7553  3.1964
  619MOL0     H83561   6.911   9.303   8.495  2.3263  0.1966 -2.0815
  619MOL0     H83562   7.161   9.036   9.239  2.1287 -0.5705  0.4414
  619MOL0     H83563   7.475   9.007   9.249  2.2385  2.0180 -0.6673
  619MOL0     H83564   7.490   9.112   9.378  0.6748  3.8171 -4.0051
  619MOL0     H83565   7.352   8.988   9.373 -0.5637  0.2391 -0.5613
  620MOL0     O83566   4.620   0.297   4.125  0.3451 -0.0389 -0.3656
  620MOL0     C83567   4.629   0.400   4.195 -0.3315 -0.6110  0.6314
  620MOL0     O83568   4.723   0.495   4.179  0.4608 -0.3717 -0.4592
  620MOL0     C83569   4.819   0.492   4.084 -0.6385  0.2936  0.0675
  620MOL0     C83570   4.843   0.606   3.999  0.2538 -0.2919  0.4943
  620MOL0     C83571   4.951   0.623   3.924 -0.3216 -0.8864 -0.9430
  620MOL0     C83572   5.052   0.517   3.911 -0.2126 -0.3506  0.2727
  620MOL0     O83573   5.165   0.535   3.841  0.4328 -0.3886  0.5249
  620MOL0     C83574   5.279   0.445   3.856 -0.3125 -0.2834  0.0905
  620MOL0     C83575   5.397   0.501   3.777 -0.2624 -0.6502 -0.3236
  620MOL0     C83576   5.518   0.412   3.781  0.2303 -0.0787  0.9209
  620MOL0     C83577   5.636   0.502   3.759 -0.1227 -0.5379 -0.5059
  620MOL0     C83578   5.765   0.424   3.753 -0.4835 -0.1833 -0.5274
  620MOL0     C83579   5.865   0.489   3.658  0.5030  0.7682 -0.3006
  620MOL0     C83580   6.002   0.411   3.668 -0.2180  0.8304 -0.3386
  620MOL0     C83581   6.074   0.432   3.804  0.4628  0.1073  0.3363
  620MOL0     N83582   6.208   0.381   3.793  0.0715  0.1442 -0.3749
  620MOL0     C83583   6.261   0.276   3.716 -0.2329 -0.2460  0.3274
  620MOL0     C83584   6.397   0.293   3.716  0.6972 -0.2947 -0.1473
  620MOL0     C83585   6.492   0.193   3.652 -0.3154  0.3127 -0.3848
  620MOL0     C83586   6.543   0.259   3.517  1.0627 -1.0412  0.8143
  620MOL0     C83587   6.629   0.391   3.537  0.2621 -0.0652 -1.5508
  620MOL0     C83588   6.727   0.379   3.662 -0.4683  0.0150  0.6100
  620MOL0     O83589   6.823   0.277   3.648 -0.6450  0.3688 -0.0866
  620MOL0     C83590   6.952   0.295   3.599 -0.2906  0.8563  0.5067
  620MOL0     C83591   7.030   0.179   3.583  0.7423 -0.1693 -0.2693
  620MOL0     C83592   7.163   0.194   3.541  0.1637  0.1142  0.5233
  620MOL0     C83593   7.222   0.314   3.493 -0.8112  0.4047  0.0383
  620MOL0     C83594   7.365   0.313   3.449  0.3530 -0.5162 -0.0028
  620MOL0     O83595   7.430   0.195   3.455  0.8558 -0.6542 -1.0291
  620MOL0     C83596   7.557   0.196   3.414 -0.2099  0.0097  0.0441
  620MOL0     C83597   7.598   0.101   3.316  0.6442  0.1925  0.4828
  620MOL0     C83598   7.732   0.091   3.286 -0.0573 -0.0892  0.5706
  620MOL0     C83599   7.824   0.159   3.359 -0.0435 -0.9671  0.0573
  620MOL0     O83600   7.953   0.121   3.333 -0.3894 -0.3422 -0.2905
  620MOL0     C83601   8.024   0.080   3.450 -0.2893 -0.1890 -0.0613
  620MOL0     C83602   8.148   0.169   3.457 -0.0691  0.5630 -0.0288
  620MOL0     C83603   8.212   0.153   3.589  0.3735  0.3302  0.1157
  620MOL0     C83604   8.349   0.224   3.599  0.6275  0.2289 -0.9919
  620MOL0     C83605   8.418   0.200   3.737 -0.4652 -0.7229  0.2257
  620MOL0     C83606   8.566   0.258   3.743 -0.0048  0.4053  0.1492
  620MOL0     C83607   8.614   0.282   3.877 -0.1437 -0.1794  0.0435
  620MOL0     C83608   8.770   0.290   3.902  0.9255 -0.3839  0.0532
  620MOL0    Cl83609   8.845   0.409   3.799  0.0914  0.0530  0.4488
  620MOL0     C83610   7.787   0.253   3.456  0.2322 -0.3217  0.4452
  620MOL0     C83611   7.656   0.276   3.478  0.2850 -1.2397 -0.0196
  620MOL0     O83612   7.411   0.423   3.424  0.7304 -0.2375 -0.2128
  620MOL0     C83613   7.142   0.425   3.504 -0.3522 -0.6072 -0.0491
  620MOL0     C83614   7.012   0.417   3.560 -0.4508 -0.4161 -0.8897
  620MOL0     N83615   6.427   0.403   3.793 -1.0454 -0.3621 -0.3029
  620MOL0     N83616   6.318   0.449   3.839 -0.0776  0.3214 -0.2004
  620MOL0     C83617   5.022   0.402   3.987  1.4970  0.4510  0.9834
  620MOL0     C83618   4.911   0.385   4.068 -0.0714  0.3996 -0.4291
  620MOL0     C83619   4.535   0.434   4.309  0.7950  0.6783 -0.1704
  620MOL0     C83620   4.409   0.355   4.306 -0.8724  0.4809  0.1267
  620MOL0     C83621   4.322   0.364   4.415  0.4548 -0.2139  0.3455
  620MOL0     C83622   4.352   0.459   4.511 -0.3634  0.5338 -0.5797
  620MOL0     O83623   4.263   0.483   4.616  0.5265 -0.0011 -0.0055
  620MOL0     C83624   4.274   0.420   4.746 -0.1651 -0.2232 -0.8691
  620MOL0     C83625   4.182   0.311   4.758 -0.3957  0.4412 -0.7465
  620MOL0     C83626   4.047   0.359   4.808  0.9220 -0.1886 -0.5192
  620MOL0     C83627   3.947   0.240   4.823 -1.0116 -0.8014  0.2780
  620MOL0     C83628   3.833   0.297   4.895  0.1231  0.3965 -0.8656
  620MOL0     C83629   3.723   0.324   4.946 -0.1532  0.1601 -0.0614
  620MOL0     C83630   4.471   0.530   4.518  0.6339 -0.2946  0.0082
  620MOL0     C83631   4.569   0.510   4.427  0.9918 -0.7541 -0.0662
  620MOL0     C83632   4.697   0.586   4.448 -0.6814 -0.0840  0.0797
  620MOL0     H83633   4.773   0.688   4.006 -1.2410 -1.2431 -2.0203
  620MOL0     H83634   4.969   0.721   3.882  0.7473  0.0247  1.4193
  620MOL0     H83635   5.302   0.438   3.963 -0.3186 -0.4897  0.0776
  620MOL0     H83636   5.259   0.343   3.824 -1.7261 -0.0094  0.0187
  620MOL0     H83637   5.422   0.596   3.824  2.3240 -1.4553  0.0988
  620MOL0     H83638   5.381   0.502   3.668  1.6280 -2.4305 -0.6710
  620MOL0     H83639   5.512   0.339   3.700  1.1345  1.8116 -0.9565
  620MOL0     H83640   5.533   0.361   3.876  0.6243 -0.4901  0.6432
  620MOL0     H83641   5.617   0.551   3.663 -0.0288  0.3968 -0.0644
  620MOL0     H83642   5.639   0.571   3.845  2.4348 -2.7949  1.4082
  620MOL0     H83643   5.800   0.411   3.855  0.1793 -4.1567 -1.1041
  620MOL0     H83644   5.740   0.320   3.730 -4.8339  1.0449 -2.4124
  620MOL0     H83645   5.826   0.475   3.556 -0.1304 -1.3505  0.1614
  620MOL0     H83646   5.868   0.596   3.679 -3.1837  0.7045  1.3845
  620MOL0     H83647   6.067   0.450   3.589 -0.0828 -0.3868 -0.8549
  620MOL0     H83648   5.984   0.303   3.664 -0.5564  0.8909 -4.1393
  620MOL0     H83649   6.081   0.541   3.812  1.0910  0.1861 -0.9587
  620MOL0     H83650   6.014   0.385   3.883 -0.1604 -0.0829 -0.2440
  620MOL0     H83651   6.203   0.204   3.661 -0.6362  2.8391 -3.7808
  620MOL0     H83652   6.574   0.158   3.715  0.5638  0.8523 -1.1964
  620MOL0     H83653   6.431   0.105   3.631  0.9528 -0.2563 -1.8572
  620MOL0     H83654   6.606   0.187   3.462  2.1336 -0.2359  0.9582
  620MOL0     H83655   6.463   0.285   3.447  0.5614 -0.2455  1.6726
  620MOL0     H83656   6.561   0.469   3.572  0.0577 -1.2116  0.8274
  620MOL0     H83657   6.677   0.426   3.445  0.7009  1.1182 -0.8979
  620MOL0     H83658   6.667   0.363   3.752 -1.7607 -0.1607 -0.2562
  620MOL0     H83659   6.776   0.477   3.659 -1.1301  0.3266 -1.3115
  620MOL0     H83660   6.985   0.086   3.615  0.4597 -0.6794 -2.0677
  620MOL0     H83661   7.227   0.106   3.538 -1.9678 -1.4863 -1.8389
  620MOL0     H83662   7.526   0.031   3.274  1.2112  0.4230 -0.9498
  620MOL0     H83663   7.757   0.010   3.219 -1.8087  1.2434 -1.8777
  620MOL0     H83664   7.971   0.091   3.545  0.4904  0.1476  0.3391
  620MOL0     H83665   8.050  -0.024   3.427  0.4770  0.3455 -1.7656
  620MOL0     H83666   8.215   0.138   3.377 -1.0268 -3.6257  0.5702
  620MOL0     H83667   8.121   0.275   3.451 -2.6472  0.0651  1.1539
  620MOL0     H83668   8.141   0.188   3.665 -0.3394  0.5442 -0.6336
  620MOL0     H83669   8.211   0.046   3.612 -2.1770 -0.0985 -1.6172
  620MOL0     H83670   8.333   0.331   3.582  2.1014  0.5931 -0.2856
  620MOL0     H83671   8.412   0.178   3.522  0.1719  0.1603 -1.3221
  620MOL0     H83672   8.427   0.093   3.754  0.9152 -0.2223  3.3312
  620MOL0     H83673   8.364   0.233   3.826 -0.1643  1.4626 -0.3221
  620MOL0     H83674   8.624   0.183   3.688  0.9489  2.0755 -1.1978
  620MOL0     H83675   8.591   0.343   3.679 -2.1061  1.8013  1.1046
  620MOL0     H83676   8.574   0.197   3.933 -4.0168  1.2071 -0.2944
  620MOL0     H83677   8.570   0.378   3.906  1.6328  0.0855  2.0723
  620MOL0     H83678   8.792   0.306   4.008 -1.0966 -0.2321  0.4955
  620MOL0     H83679   8.819   0.194   3.880  2.5406  0.1903  0.9674
  620MOL0     H83680   7.861   0.300   3.521  1.2200 -1.7094  0.3685
  620MOL0     H83681   7.629   0.355   3.549  2.6557  1.0493 -1.5184
  620MOL0     H83682   7.170   0.524   3.469 -0.4974  0.3499  2.3362
  620MOL0     H83683   6.955   0.508   3.552  1.0051  0.6187  0.1244
  620MOL0     H83684   5.088   0.315   3.992  0.2054 -0.7293 -0.9034
  620MOL0     H83685   4.885   0.299   4.128 -2.9097  1.6994  0.3767
  620MOL0     H83686   4.373   0.276   4.240 -1.1000  2.8666 -2.8062
  620MOL0     H83687   4.234   0.305   4.437 -0.6338  1.7183  1.4406
  620MOL0     H83688   4.269   0.489   4.831  2.9589 -1.1557  0.1968
  620MOL0     H83689   4.373   0.375   4.753  0.1709  0.7324  1.6788
  620MOL0     H83690   4.212   0.231   4.827  2.8894  1.3181 -0.9849
  620MOL0     H83691   4.169   0.263   4.660 -0.8399 -2.8255  0.7668
  620MOL0     H83692   4.005   0.438   4.745 -1.4478  3.2253  4.6658
  620MOL0     H83693   4.056   0.401   4.909 -0.3110  0.4090 -0.6446
  620MOL0     H83694   3.912   0.204   4.726  0.7036  0.4217 -0.8695
  620MOL0     H83695   3.995   0.159   4.879  0.8495  0.6071  0.8374
  620MOL0     H83696   3.627   0.327   4.993  0.1566  0.8971  0.5595
  620MOL0     H83697   4.488   0.585   4.609  2.6163 -0.4791 -0.2065
  620MOL0     H83698   4.779   0.513   4.452 -1.0252 -0.4169  2.4802
  620MOL0     H83699   4.711   0.655   4.365  2.4646 -2.3620 -1.4830
  620MOL0     H83700   4.686   0.635   4.545  2.1199 -2.0602  1.5469
  621MOL0     O83701   5.278   3.028   7.113 -0.5995 -0.2379 -0.6056
  621MOL0     C83702   5.308   3.104   7.018 -0.4632  0.3282 -0.0317
  621MOL0     O83703   5.436   3.155   6.985 -0.1720 -0.2150 -0.6830
  621MOL0     C83704   5.564   3.100   7.015  0.5708 -0.1884  0.2928
  621MOL0     C83705   5.676   3.190   7.020  0.0723  0.3515 -0.2936
  621MOL0     C83706   5.799   3.155   7.076 -0.6116 -0.3143  0.6015
  621MOL0     C83707   5.821   3.019   7.105  0.6713  0.1420  0.6624
  621MOL0     O83708   5.949   2.981   7.143 -0.4122 -0.1478 -0.5451
  621MOL0     C83709   5.989   2.849   7.148  0.1135  0.5189  0.7685
  621MOL0     C83710   6.147   2.860   7.135  0.2079 -0.3263 -0.4403
  621MOL0     C83711   6.212   2.738   7.206 -0.4063  0.1483  0.1965
  621MOL0     C83712   6.150   2.614   7.168  0.3665 -0.3656  0.8002
  621MOL0     C83713   6.211   2.492   7.202  0.2815  0.2346 -1.0048
  621MOL0     C83714   6.124   2.371   7.190 -0.3270 -0.1473  0.4411
  621MOL0     C83715   6.213   2.254   7.207  0.6238  0.0697 -1.1637
  621MOL0     C83716   6.131   2.124   7.211 -0.4105  0.8358  0.8874
  621MOL0     N83717   6.050   2.114   7.082 -0.9765  0.7527 -0.1472
  621MOL0     C83718   6.092   2.102   6.954 -0.0976 -0.9807 -0.0001
  621MOL0     C83719   5.973   2.085   6.888 -0.2359  0.0195  0.0896
  621MOL0     C83720   5.958   2.057   6.743  0.1674 -0.5113  0.3084
  621MOL0     C83721   5.907   1.914   6.713  0.0518 -0.7157  0.3401
  621MOL0     C83722   5.991   1.800   6.767 -0.6878 -0.1399  0.3134
  621MOL0     C83723   6.083   1.736   6.667 -1.1707  0.8580 -0.1290
  621MOL0     O83724   6.153   1.844   6.602 -0.1109 -0.4371  0.3370
  621MOL0     C83725   6.286   1.849   6.602 -0.0634 -0.9457 -0.0958
  621MOL0     C83726   6.360   1.973   6.594  0.0659  0.4109  0.5077
  621MOL0     C83727   6.497   1.980   6.598  0.3391  0.0165 -0.9863
  621MOL0     C83728   6.572   1.864   6.610 -1.0727  0.2306 -0.8109
  621MOL0     C83729   6.722   1.871   6.628 -0.3810  0.2761  0.4865
  621MOL0     O83730   6.793   1.991   6.657  0.1541  0.9923 -0.2092
  621MOL0     C83731   6.924   1.997   6.686  0.6298  0.1022  0.3426
  621MOL0     C83732   6.971   2.125   6.708  0.4680 -0.7432  0.2392
  621MOL0     C83733   7.112   2.153   6.712 -0.1728 -0.5191 -0.2706
  621MOL0     C83734   7.199   2.047   6.722 -0.5990  0.1850  0.7489
  621MOL0     O83735   7.332   2.068   6.725  0.0526 -0.5621 -0.9440
  621MOL0     C83736   7.401   1.983   6.818  0.2820  0.3507  0.9029
  621MOL0     C83737   7.519   2.070   6.875  0.3235 -0.0386  0.2895
  621MOL0     C83738   7.468   2.176   6.980 -0.8638  0.3325  1.3025
  621MOL0     C83739   7.449   2.314   6.912 -0.8137  0.1518 -0.0837
  621MOL0     C83740   7.372   2.405   7.003  0.1644  0.4844  0.0840
  621MOL0     C83741   7.318   2.538   6.940 -0.4055 -0.4046  0.0496
  621MOL0     C83742   7.219   2.607   7.027  0.3615 -0.1171  0.3112
  621MOL0     C83743   7.199   2.755   6.971  1.0341  0.6899  0.1137
  621MOL0    Cl83744   7.092   2.858   7.079  0.4332 -0.3748 -0.1774
  621MOL0     C83745   7.145   1.913   6.716  0.3379  0.0673 -0.3475
  621MOL0     C83746   7.010   1.893   6.696  0.1881  0.2172  0.1320
  621MOL0     O83747   6.778   1.763   6.613 -0.0242 -0.5048  0.1762
  621MOL0     C83748   6.509   1.740   6.609 -0.4471  0.9178 -0.5105
  621MOL0     C83749   6.365   1.731   6.603  0.0611  0.0294 -0.1754
  621MOL0     N83750   5.869   2.107   6.971  0.5802 -0.0541 -0.6487
  621MOL0     N83751   5.911   2.115   7.086  0.2886 -0.2058 -0.7524
  621MOL0     C83752   5.715   2.923   7.082  1.3323  0.6079  0.1172
  621MOL0     C83753   5.586   2.965   7.039  0.9991 -0.1461 -0.7337
  621MOL0     C83754   5.200   3.139   6.918  0.0079  0.9798 -0.5298
  621MOL0     C83755   5.242   3.201   6.801  0.6133 -0.1273  0.1325
  621MOL0     C83756   5.152   3.230   6.692  0.3239  0.7347 -0.4731
  621MOL0     C83757   5.022   3.192   6.703 -0.8932  0.7121 -0.2768
  621MOL0     O83758   4.943   3.201   6.593 -0.2488 -0.0199 -0.0145
  621MOL0     C83759   4.807   3.261   6.614  0.2372  0.1812  0.2048
  621MOL0     C83760   4.780   3.394   6.541 -0.6463  0.1287 -0.4636
  621MOL0     C83761   4.790   3.371   6.386 -0.8763  0.0861  0.6634
  621MOL0     C83762   4.880   3.481   6.322 -0.3797  0.4595 -0.4107
  621MOL0     C83763   4.815   3.611   6.316  0.2347  0.1109 -0.1521
  621MOL0     C83764   4.742   3.708   6.331  0.0178  0.3360 -0.0604
  621MOL0     C83765   4.976   3.119   6.811 -0.2892 -0.3523 -0.1921
  621MOL0     C83766   5.057   3.096   6.921 -0.0367  0.3959  0.5148
  621MOL0     C83767   4.987   3.035   7.036 -0.0434 -0.5300  0.7989
  621MOL0     H83768   5.640   3.292   7.005  0.9732  0.8244  0.5984
  621MOL0     H83769   5.864   3.234   7.112 -2.5958  1.1397  1.1780
  621MOL0     H83770   5.967   2.813   7.249 -1.9016  0.1191  0.2305
  621MOL0     H83771   5.945   2.786   7.071  0.5799  0.7679  0.2978
  621MOL0     H83772   6.181   2.951   7.186 -1.3493  0.1045 -0.1264
  621MOL0     H83773   6.179   2.869   7.031 -1.4027  2.0206 -0.8049
  621MOL0     H83774   6.207   2.746   7.315  1.0409  0.7119  0.2427
  621MOL0     H83775   6.315   2.730   7.171 -0.6459 -0.9440 -0.3106
  621MOL0     H83776   6.051   2.606   7.213 -0.4866  1.4837 -0.6385
  621MOL0     H83777   6.118   2.605   7.064 -3.4488 -0.6202  1.8549
  621MOL0     H83778   6.296   2.475   7.136  1.2271 -0.4516  0.3292
  621MOL0     H83779   6.249   2.520   7.301 -2.0993  4.0129 -0.9534
  621MOL0     H83780   6.048   2.376   7.268 -0.2470 -1.4169  0.6270
  621MOL0     H83781   6.075   2.379   7.093 -0.5562  2.2196  0.7148
  621MOL0     H83782   6.264   2.266   7.304 -0.1548 -0.6480 -0.6581
  621MOL0     H83783   6.295   2.246   7.135  2.2791  1.2309  0.4498
  621MOL0     H83784   6.199   2.038   7.223 -2.1516 -0.4267  2.2150
  621MOL0     H83785   6.053   2.118   7.287 -1.1189  2.6518  0.3323
  621MOL0     H83786   6.195   2.094   6.919 -0.0366 -0.0880 -0.0536
  621MOL0     H83787   5.892   2.124   6.687  0.3269 -1.1489 -0.6677
  621MOL0     H83788   6.053   2.064   6.689  0.3460 -1.5807  0.4592
  621MOL0     H83789   5.805   1.904   6.751 -0.2863 -0.8494 -0.5701
  621MOL0     H83790   5.902   1.891   6.606  0.9867  0.6535 -0.0266
  621MOL0     H83791   5.923   1.734   6.822  1.7658 -1.4034  2.0054
  621MOL0     H83792   6.060   1.845   6.839  0.5071  1.2101 -1.6041
  621MOL0     H83793   6.027   1.687   6.586  0.7977  0.2869 -1.2129
  621MOL0     H83794   6.156   1.665   6.709 -1.4470  0.1092 -0.8883
  621MOL0     H83795   6.296   2.061   6.584 -1.2437 -0.3758  1.5740
  621MOL0     H83796   6.552   2.072   6.584 -0.7364  1.0881  1.2725
  621MOL0     H83797   6.896   2.204   6.705  0.8138 -0.4462 -1.0712
  621MOL0     H83798   7.149   2.255   6.714 -2.4653  0.3896 -0.9038
  621MOL0     H83799   7.331   1.950   6.895  0.2788  0.8931  1.1401
  621MOL0     H83800   7.444   1.895   6.769  1.8727  2.3327 -1.5099
  621MOL0     H83801   7.591   2.002   6.922 -1.0816 -0.6563  1.6514
  621MOL0     H83802   7.582   2.114   6.797 -1.0442 -0.5845 -1.1907
  621MOL0     H83803   7.374   2.137   7.017 -1.0628 -1.1920 -0.6425
  621MOL0     H83804   7.537   2.179   7.064  2.7402 -0.3918 -1.3655
  621MOL0     H83805   7.396   2.303   6.817 -2.9417 -0.4544  1.1154
  621MOL0     H83806   7.539   2.365   6.877 -1.6253  1.3320 -0.5201
  621MOL0     H83807   7.440   2.429   7.085  1.8018  1.0375 -1.3445
  621MOL0     H83808   7.280   2.356   7.034  0.5741  0.8516  1.9742
  621MOL0     H83809   7.412   2.595   6.931 -1.1156  0.9491  0.8298
  621MOL0     H83810   7.273   2.527   6.841 -0.1041 -1.3003  0.0050
  621MOL0     H83811   7.264   2.608   7.127  0.4537  0.4641  0.2673
  621MOL0     H83812   7.131   2.542   7.024  1.7689 -2.1547  0.8757
  621MOL0     H83813   7.293   2.810   6.973  0.7371  1.1952  0.3759
  621MOL0     H83814   7.160   2.759   6.869  0.1223 -0.9488  0.3583
  621MOL0     H83815   7.208   1.826   6.704 -1.4320 -1.1231 -1.5983
  621MOL0     H83816   6.987   1.787   6.689  0.8310  0.1674 -1.8636
  621MOL0     H83817   6.563   1.646   6.612 -1.7733  0.1002 -1.2451
  621MOL0     H83818   6.322   1.632   6.601  2.2512 -0.9886 -2.7025
  621MOL0     H83819   5.725   2.816   7.098 -1.9234  0.2230  0.1878
  621MOL0     H83820   5.507   2.893   7.021 -2.5335  2.5138  2.5377
  621MOL0     H83821   5.344   3.237   6.790  0.9161 -0.6707  1.0933
  621MOL0     H83822   5.169   3.295   6.608 -0.7001  3.8558  1.5763
  621MOL0     H83823   4.787   3.274   6.721  0.4606  3.3252 -0.0270
  621MOL0     H83824   4.735   3.194   6.567  3.0181 -3.0666  0.1543
  621MOL0     H83825   4.861   3.461   6.572 -0.7599 -0.9205  2.4381
  621MOL0     H83826   4.689   3.446   6.573 -0.6293  0.8031 -1.4706
  621MOL0     H83827   4.690   3.375   6.344 -0.7732  0.0926  0.4163
  621MOL0     H83828   4.843   3.278   6.364  1.1235  1.5316 -1.0674
  621MOL0     H83829   4.969   3.492   6.384 -0.6588 -1.0330  0.2762
  621MOL0     H83830   4.913   3.457   6.220 -0.2911  0.8216 -0.4699
  621MOL0     H83831   4.696   3.799   6.366  0.8416  0.0503  1.9180
  621MOL0     H83832   4.877   3.074   6.813 -0.0135 -1.1013 -1.8850
  621MOL0     H83833   5.042   2.960   7.094 -2.6339 -2.0022  1.5581
  621MOL0     H83834   4.962   3.116   7.105 -0.8322 -0.0408 -0.0410
  621MOL0     H83835   4.893   2.990   7.003  1.2747 -0.5823 -3.5250
  622MOL0     O83836   1.617   9.937   5.382  0.4852 -0.6790 -0.7415
  622MOL0     C83837   1.514   9.989   5.436 -0.3146 -0.5526  0.0473
  622MOL0     O83838   1.514  10.035   5.566  0.3658 -0.5454 -0.5923
  622MOL0     C83839   1.630  10.020   5.636  0.3214 -0.1252 -0.5499
  622MOL0     C83840   1.691  10.129   5.703 -0.0670 -0.6570 -0.4429
  622MOL0     C83841   1.808  10.110   5.786 -0.8363  0.1717  0.8204
  622MOL0     C83842   1.857   9.981   5.805  0.1436 -0.4358  0.2108
  622MOL0     O83843   1.960   9.958   5.895 -0.0268  0.0072 -0.0333
  622MOL0     C83844   2.047   9.850   5.875  0.6115 -1.0428  0.0704
  622MOL0     C83845   2.161   9.872   5.968  0.0574 -0.0075 -0.7968
  622MOL0     C83846   2.241   9.999   5.927  0.0063  0.7046 -0.1851
  622MOL0     C83847   2.366  10.012   6.005 -0.2522  0.8590  0.7385
  622MOL0     C83848   2.485   9.943   5.935  0.3596 -0.3052 -0.2360
  622MOL0     C83849   2.617   9.964   6.002 -0.9695 -0.7762  0.2185
  622MOL0     C83850   2.733   9.878   5.937 -0.8534 -0.0496 -0.7201
  622MOL0     C83851   2.735   9.736   5.997  0.2272  0.3895 -0.4680
  622MOL0     N83852   2.838   9.729   6.105 -0.2461  0.5021  0.2214
  622MOL0     C83853   2.975   9.714   6.077  0.5245 -0.0850 -0.2504
  622MOL0     C83854   3.034   9.698   6.200 -0.0756  0.3891  0.9067
  622MOL0     C83855   3.181   9.680   6.229 -0.5745  0.3827  0.9622
  622MOL0     C83856   3.270   9.751   6.131 -0.0127 -0.3893  0.2343
  622MOL0     C83857   3.417   9.783   6.164 -0.5850  0.6231  1.0900
  622MOL0     C83858   3.502   9.658   6.189  0.2117  0.1133 -0.4808
  622MOL0     O83859   3.506   9.581   6.064 -0.1649 -0.1653 -0.0437
  622MOL0     C83860   3.634   9.520   6.041  0.3838  0.9900  0.2683
  622MOL0     C83861   3.694   9.430   6.128 -0.2058  0.9028 -0.6468
  622MOL0     C83862   3.823   9.382   6.111  0.4134 -0.1236  0.3950
  622MOL0     C83863   3.884   9.407   5.985 -0.3545  0.2543  0.2960
  622MOL0     C83864   4.019   9.347   5.964  1.0752  0.4357 -0.8830
  622MOL0     O83865   4.064   9.358   5.833  0.0060  0.2452  0.0590
  622MOL0     C83866   4.185   9.303   5.803 -0.0635 -0.2824 -0.5236
  622MOL0     C83867   4.304   9.377   5.821 -0.0873 -0.2109  0.0087
  622MOL0     C83868   4.425   9.320   5.784  0.3471 -0.1374 -0.0490
  622MOL0     C83869   4.425   9.185   5.740 -0.4966  0.0234 -0.1675
  622MOL0     O83870   4.545   9.134   5.736 -0.8453  0.5520  0.2101
  622MOL0     C83871   4.565   9.020   5.647  0.3548 -0.3481  0.7714
  622MOL0     C83872   4.712   9.015   5.601  0.1122 -0.4552 -0.0824
  622MOL0     C83873   4.732   8.929   5.474  0.8438  0.0530  1.5001
  622MOL0     C83874   4.881   8.887   5.469  0.5988  0.5906 -0.1914
  622MOL0     C83875   4.983   8.999   5.451  0.3929  0.9614 -0.3537
  622MOL0     C83876   5.119   8.945   5.480 -0.5312  0.3041 -0.5813
  622MOL0     C83877   5.214   9.058   5.482 -0.5227 -1.1567  0.7980
  622MOL0     C83878   5.231   9.137   5.356 -0.2475  0.2170  0.5281
  622MOL0    Cl83879   5.381   9.239   5.371  0.3610  0.3346  0.1766
  622MOL0     C83880   4.308   9.110   5.730 -0.4599 -0.3884  0.2055
  622MOL0     C83881   4.186   9.172   5.759  1.1797 -0.3016 -0.1635
  622MOL0     O83882   4.075   9.294   6.064  0.3047  0.4932 -0.0140
  622MOL0     C83883   3.825   9.502   5.900  0.1871  0.9683 -0.5496
  622MOL0     C83884   3.701   9.559   5.929 -0.2305 -0.0370  0.1121
  622MOL0     N83885   2.934   9.695   6.297  0.4079  0.3863 -0.3281
  622MOL0     N83886   2.819   9.715   6.241 -0.3917 -0.5943 -0.2148
  622MOL0     C83887   1.795   9.867   5.743  0.4055 -1.1577  0.5889
  622MOL0     C83888   1.678   9.894   5.667  0.5817  0.4380  0.0094
  622MOL0     C83889   1.391   9.999   5.358  0.4325 -0.6954 -0.0129
  622MOL0     C83890   1.269   9.993   5.425 -0.0986  0.4631 -0.6810
  622MOL0     C83891   1.144   9.991   5.361  0.3652 -0.9570 -0.7254
  622MOL0     C83892   1.138  10.008   5.224  0.2955  0.2614 -0.0465
  622MOL0     O83893   1.029  10.028   5.143 -0.0643 -0.1178 -0.4541
  622MOL0     C83894   0.902   9.974   5.191 -0.5437  0.3714  0.3049
  622MOL0     C83895   0.800   9.980   5.081 -0.4567 -0.5596 -0.0613
  622MOL0     C83896   0.829   9.885   4.965 -0.2822 -0.2806 -0.4986
  622MOL0     C83897   0.696   9.876   4.880  0.0874  0.4997  0.0232
  622MOL0     C83898   0.675   9.994   4.801 -0.1778  0.1132 -0.4904
  622MOL0     C83899   0.637  10.078   4.728  0.6772 -0.0432 -0.0504
  622MOL0     C83900   1.256  10.030   5.154  0.3132  0.2843  0.0594
  622MOL0     C83901   1.381  10.016   5.217  0.0573  0.2951 -0.1839
  622MOL0     C83902   1.504  10.033   5.140  0.9226 -0.2415  0.5969
  622MOL0     H83903   1.648  10.227   5.684 -3.7451 -1.9296  0.6184
  622MOL0     H83904   1.853  10.192   5.841 -1.1131  1.3701 -0.6698
  622MOL0     H83905   2.005   9.752   5.901 -0.6345 -1.0023 -1.6544
  622MOL0     H83906   2.080   9.857   5.771  0.7901  1.7213  0.2297
  622MOL0     H83907   2.231   9.788   5.962 -0.3994 -0.3078 -2.1170
  622MOL0     H83908   2.114   9.881   6.066  0.0463 -0.0593 -0.7979
  622MOL0     H83909   2.193  10.095   5.951  3.2331  2.2163  0.8583
  622MOL0     H83910   2.257   9.996   5.819  1.2784 -0.4797  0.0115
  622MOL0     H83911   2.395  10.117   6.010  0.9187  0.6633 -0.9061
  622MOL0     H83912   2.349   9.971   6.105  0.1144 -3.6178 -0.7835
  622MOL0     H83913   2.463   9.837   5.918 -0.5032 -0.2711  0.5710
  622MOL0     H83914   2.497   9.988   5.836  1.6026  1.9380  0.8671
  622MOL0     H83915   2.640  10.070   5.995 -0.4474 -0.8738  0.4416
  622MOL0     H83916   2.600   9.943   6.108 -0.9138 -0.1122  0.3609
  622MOL0     H83917   2.833   9.917   5.958 -1.9834  1.9943  1.3501
  622MOL0     H83918   2.725   9.872   5.828  0.4347 -1.8286 -0.7600
  622MOL0     H83919   2.634   9.724   6.039  1.9621 -0.9789  3.9737
  622MOL0     H83920   2.751   9.671   5.910 -0.9320  0.5286 -0.8035
  622MOL0     H83921   3.020   9.704   5.979 -2.9693 -2.7335 -1.8078
  622MOL0     H83922   3.191   9.728   6.326 -0.3612  0.2073  1.0288
  622MOL0     H83923   3.198   9.572   6.226  0.8384  0.5719  1.3184
  622MOL0     H83924   3.265   9.700   6.035 -1.1280  1.0240 -0.4908
  622MOL0     H83925   3.226   9.850   6.114 -0.1653 -0.5790 -0.5006
  622MOL0     H83926   3.420   9.858   6.244 -1.3961  1.8477  0.0104
  622MOL0     H83927   3.462   9.820   6.072  0.0312 -2.2455  0.1409
  622MOL0     H83928   3.462   9.600   6.273  2.8414 -0.2896  0.6084
  622MOL0     H83929   3.605   9.688   6.210  0.6585 -1.2820 -0.5444
  622MOL0     H83930   3.643   9.414   6.222  0.3261  2.7921  0.0181
  622MOL0     H83931   3.880   9.316   6.175  2.7560  0.6888 -0.7476
  622MOL0     H83932   4.302   9.481   5.852  0.9603  0.3945 -1.7885
  622MOL0     H83933   4.519   9.371   5.797 -0.4982  1.3911  0.3219
  622MOL0     H83934   4.551   8.923   5.695  0.2086 -0.8410 -0.2503
  622MOL0     H83935   4.504   9.038   5.558  0.8253  0.5681  0.6195
  622MOL0     H83936   4.754   9.114   5.583  3.4756 -2.0267 -1.8496
  622MOL0     H83937   4.770   8.967   5.679  1.7733 -0.4168 -1.2452
  622MOL0     H83938   4.671   8.838   5.469  1.8620 -0.6186 -2.6306
  622MOL0     H83939   4.702   8.985   5.385  2.0697 -1.7999 -0.1780
  622MOL0     H83940   4.900   8.811   5.393  2.2093 -0.9948  1.6925
  622MOL0     H83941   4.889   8.842   5.568 -3.8594 -0.6005 -0.1362
  622MOL0     H83942   4.948   9.080   5.515 -3.1018  0.7996 -1.8553
  622MOL0     H83943   4.987   9.023   5.344  0.1895 -2.5109 -1.2749
  622MOL0     H83944   5.111   8.900   5.580 -0.1899  2.3306  0.4078
  622MOL0     H83945   5.155   8.867   5.412 -0.4179  1.6009 -2.0468
  622MOL0     H83946   5.315   9.029   5.515 -0.0989  0.5954  1.1696
  622MOL0     H83947   5.185   9.135   5.555  1.6432 -0.4431  0.9832
  622MOL0     H83948   5.256   9.066   5.277 -1.1624  1.2347 -0.7192
  622MOL0     H83949   5.139   9.191   5.332 -1.0393 -0.2397  2.3413
  622MOL0     H83950   4.307   9.007   5.696  0.0365 -0.2764 -0.1659
  622MOL0     H83951   4.091   9.119   5.757  0.7358  0.2020  2.7932
  622MOL0     H83952   3.871   9.545   5.812 -0.7245  2.4970 -0.3244
  622MOL0     H83953   3.650   9.621   5.856 -0.3062  0.1697  0.3421
  622MOL0     H83954   1.834   9.767   5.761  0.1508 -1.0701  1.7339
  622MOL0     H83955   1.632   9.813   5.610  2.4609  0.5928 -1.8506
  622MOL0     H83956   1.266   9.990   5.533 -0.3110  1.4647 -0.6567
  622MOL0     H83957   1.057   9.971   5.422  1.5324 -0.4711  1.1750
  622MOL0     H83958   0.882  10.043   5.274 -0.3613 -0.3381  0.9469
  622MOL0     H83959   0.909   9.868   5.217 -2.6269 -0.5788 -2.5147
  622MOL0     H83960   0.785  10.084   5.052 -2.6948 -0.7483  0.1895
  622MOL0     H83961   0.711   9.937   5.130  0.1314  0.5144  2.0784
  622MOL0     H83962   0.865   9.789   5.004 -0.3830  0.8333  2.5546
  622MOL0     H83963   0.903   9.920   4.892  0.6876  2.5437  1.6692
  622MOL0     H83964   0.702   9.786   4.818  2.5379  1.5467 -1.4006
  622MOL0     H83965   0.616   9.852   4.950  1.0844 -4.3624 -0.1747
  622MOL0     H83966   0.572  10.147   4.677 -0.1156 -1.4095 -0.9542
  622MOL0     H83967   1.226  10.063   5.054 -1.2299  3.4910  1.4324
  622MOL0     H83968   1.575  10.102   5.187  1.6547 -0.2477 -0.4777
  622MOL0     H83969   1.538   9.930   5.127 -1.5504 -1.2828  1.8509
  622MOL0     H83970   1.478  10.081   5.045  0.2638 -0.8861  0.4425
  623MOL0     O83971  10.879   4.289   9.218  0.8107  0.0838 -0.9836
  623MOL0     C83972  10.883   4.405   9.173 -0.4015 -0.9434  0.1680
  623MOL0     O83973  10.939   4.515   9.229  0.2267 -0.1273 -0.3974
  623MOL0     C83974  10.967   4.499   9.365 -0.1283  1.0365 -0.2005
  623MOL0     C83975  10.868   4.465   9.457  0.2825  0.3091  1.0179
  623MOL0     C83976  10.891   4.445   9.588 -0.1157 -0.8143 -0.0184
  623MOL0     C83977  11.010   4.478   9.644 -0.0105 -0.5682 -0.2211
  623MOL0     O83978  11.026   4.441   9.776 -0.3249  0.9352 -0.5524
  623MOL0     C83979  11.153   4.413   9.823 -0.3036 -0.2908 -0.0108
  623MOL0     C83980  11.148   4.327   9.955  1.4230  0.1578  1.6163
  623MOL0     C83981  11.299   4.327   9.988 -0.0622  0.6293 -1.0709
  623MOL0     C83982  11.338   4.248  10.109 -0.0059  0.5052 -0.3611
  623MOL0     C83983  11.481   4.250  10.142  0.6994 -0.0030 -1.0146
  623MOL0     C83984  11.503   4.175  10.274 -0.2156  0.6268 -0.4598
  623MOL0     C83985  11.656   4.191  10.309 -1.5189  0.0914  0.1948
  623MOL0     C83986  11.689   4.124  10.441 -0.4038 -0.0456 -0.1980
  623MOL0     N83987  11.823   4.162  10.491  0.6383  0.3290  0.5224
  623MOL0     C83988  11.934   4.110  10.444 -0.3830  0.5964 -0.4349
  623MOL0     C83989  12.013   4.112  10.557 -0.3672 -0.4277  0.7839
  623MOL0     C83990  12.151   4.064  10.570 -0.2654 -0.8553 -0.0191
  623MOL0     C83991  12.255   4.177  10.586 -0.6539 -0.4926 -0.7602
  623MOL0     C83992  12.293   4.221  10.734 -0.8736  0.0122  0.4236
  623MOL0     C83993  12.445   4.243  10.755 -0.3738 -0.0961  0.0703
  623MOL0     O83994  12.533   4.130  10.742  0.0652  0.1828  0.1794
  623MOL0     C83995  12.666   4.130  10.777 -0.4546 -0.5422  0.7775
  623MOL0     C83996  12.736   4.010  10.792  0.3555  0.2457  0.0132
  623MOL0     C83997  12.870   4.012  10.825 -0.3573  0.1485 -0.9474
  623MOL0     C83998  12.944   4.131  10.848 -0.6956  0.2233  0.1525
  623MOL0     C83999  13.084   4.126  10.871  0.6362 -0.0997 -0.1087
  623MOL0     O84000  13.140   4.247  10.903  0.3993  0.3116 -0.2014
  623MOL0     C84001  13.271   4.261  10.949 -0.0216 -0.0762 -0.1676
  623MOL0     C84002  13.358   4.167  11.006 -0.8567  0.7264 -0.5166
  623MOL0     C84003  13.491   4.198  11.053  1.0813 -0.3050  0.8576
  623MOL0     C84004  13.534   4.337  11.049  0.2812  1.2710  0.0601
  623MOL0     O84005  13.641   4.376  11.114 -0.0132 -0.3119  0.1058
  623MOL0     C84006  13.756   4.398  11.030 -0.2983  0.2373 -0.2276
  623MOL0     C84007  13.872   4.361  11.119 -0.0604  0.0666  0.0438
  623MOL0     C84008  13.859   4.211  11.161 -0.1681  0.3281  0.6613
  623MOL0     C84009  13.961   4.181  11.264  0.4830  0.9355  0.1247
  623MOL0     C84010  13.932   4.053  11.339  0.2028  0.1076  0.2561
  623MOL0     C84011  14.065   4.017  11.425 -0.4174 -0.0482 -0.1871
  623MOL0     C84012  14.109   4.119  11.533 -0.4198 -0.1841 -0.0543
  623MOL0     C84013  14.239   4.079  11.611 -0.1478  0.1603  0.6579
  623MOL0    Cl84014  14.385   4.028  11.503  0.8793 -0.3547  0.1243
  623MOL0     C84015  13.446   4.429  10.982 -0.5868  0.0317 -0.1755
  623MOL0     C84016  13.315   4.392  10.930 -0.9379  0.5809  0.4326
  623MOL0     O84017  13.142   4.018  10.861  0.0448 -0.3357 -1.1780
  623MOL0     C84018  12.867   4.253  10.843 -0.7945  0.1659  1.4694
  623MOL0     C84019  12.732   4.248  10.808  0.4169  0.4509  0.3214
  623MOL0     N84020  11.949   4.193  10.647 -0.3134 -0.0940 -0.1340
  623MOL0     N84021  11.833   4.224  10.604  0.3404 -0.3143  0.3358
  623MOL0     C84022  11.110   4.526   9.553 -0.2186  0.6916  0.7105
  623MOL0     C84023  11.087   4.537   9.418 -0.3975 -0.0478  0.2875
  623MOL0     C84024  10.804   4.438   9.052 -0.6352 -1.1823 -0.5350
  623MOL0     C84025  10.742   4.566   9.040 -0.2213  0.5779  0.1497
  623MOL0     C84026  10.670   4.599   8.926 -0.3701  0.5902 -0.1342
  623MOL0     C84027  10.672   4.517   8.814  0.3283  0.3916 -0.3078
  623MOL0     O84028  10.608   4.539   8.701  0.8049  0.0880 -0.8140
  623MOL0     C84029  10.520   4.651   8.681  0.0596  0.2398  0.4549
  623MOL0     C84030  10.591   4.789   8.661  0.5354  0.0543 -0.3974
  623MOL0     C84031  10.504   4.892   8.594  0.0046  0.4687 -0.6165
  623MOL0     C84032  10.591   5.014   8.586 -0.1486 -0.2246  0.1190
  623MOL0     C84033  10.641   5.018   8.442  1.1303 -0.7118  0.8349
  623MOL0     C84034  10.677   5.034   8.325 -0.3899  0.6568  0.0159
  623MOL0     C84035  10.746   4.399   8.821  0.2414 -0.6240  0.0171
  623MOL0     C84036  10.804   4.364   8.938 -0.3683  0.2244  1.4583
  623MOL0     C84037  10.892   4.233   8.926 -0.1892  0.0226 -1.1962
  623MOL0     H84038  10.765   4.446   9.428  1.4378 -3.0428 -1.6225
  623MOL0     H84039  10.813   4.410   9.655 -0.1230  1.2353  1.1109
  623MOL0     H84040  11.214   4.361   9.749 -1.2460 -2.2958  0.5685
  623MOL0     H84041  11.212   4.505   9.835  0.6004 -1.0232  1.4655
  623MOL0     H84042  11.114   4.226   9.931 -1.9184  1.0811  2.0378
  623MOL0     H84043  11.082   4.370  10.030 -0.1037  1.0382 -0.1331
  623MOL0     H84044  11.334   4.430  10.000  0.1601  0.7064 -2.2281
  623MOL0     H84045  11.356   4.291   9.902  3.2339  0.6514  0.9640
  623MOL0     H84046  11.273   4.274  10.193  0.7500 -0.7174  0.6435
  623MOL0     H84047  11.313   4.142  10.094  0.6198 -0.1291  2.4821
  623MOL0     H84048  11.535   4.199  10.062  2.6173  1.0135 -0.4403
  623MOL0     H84049  11.518   4.353  10.150 -0.5728  0.3588  1.0580
  623MOL0     H84050  11.441   4.211  10.357  0.1315 -1.2596  0.6710
  623MOL0     H84051  11.471   4.071  10.263 -1.7638  0.6939  2.5145
  623MOL0     H84052  11.685   4.297  10.307 -0.7969 -0.0979  0.3602
  623MOL0     H84053  11.718   4.148  10.230  0.9833  1.4825  1.3094
  623MOL0     H84054  11.622   4.152  10.523  1.0378  1.1769  0.6143
  623MOL0     H84055  11.698   4.017  10.420  4.3297  0.4034 -1.6610
  623MOL0     H84056  11.949   4.066  10.346  0.4172  2.0888 -1.0236
  623MOL0     H84057  12.150   4.001  10.659  0.0493  0.8041  1.2099
  623MOL0     H84058  12.169   4.012  10.476 -0.3516 -1.1606  0.1346
  623MOL0     H84059  12.339   4.126  10.538 -0.3215 -0.8559  0.1821
  623MOL0     H84060  12.221   4.266  10.532 -0.6316  0.6117  0.9822
  623MOL0     H84061  12.268   4.150  10.814  1.4843 -2.1083 -0.5863
  623MOL0     H84062  12.237   4.312  10.758  0.3649  0.8491  0.2494
  623MOL0     H84063  12.456   4.264  10.862 -0.4286 -1.7750  0.4224
  623MOL0     H84064  12.483   4.321  10.688 -4.1139 -0.2240 -2.5178
  623MOL0     H84065  12.693   3.917  10.757 -0.6069 -0.0882  2.0082
  623MOL0     H84066  12.925   3.919  10.836 -1.2272 -0.2483  0.3504
  623MOL0     H84067  13.324   4.064  11.015  1.0212  0.1791  1.1083
  623MOL0     H84068  13.558   4.132  11.107  1.8076  0.0197  0.3793
  623MOL0     H84069  13.745   4.334  10.942  1.0117  2.0764 -1.8370
  623MOL0     H84070  13.761   4.499  10.989  1.3709 -0.0493 -0.8307
  623MOL0     H84071  13.972   4.380  11.078  0.9834 -4.8917 -0.3527
  623MOL0     H84072  13.860   4.426  11.206  0.4545 -1.7790  1.5500
  623MOL0     H84073  13.760   4.191  11.203 -1.8688 -1.1306 -3.5526
  623MOL0     H84074  13.870   4.145  11.075 -1.0696 -1.8422  2.1115
  623MOL0     H84075  13.947   4.256  11.343 -1.1893  0.7867  0.0095
  623MOL0     H84076  14.059   4.177  11.217  1.5107 -3.6840  2.0879
  623MOL0     H84077  13.900   3.972  11.271  1.6292 -1.3089  1.2087
  623MOL0     H84078  13.848   4.064  11.408  0.8052  0.4123  0.9425
  623MOL0     H84079  14.043   3.925  11.480 -1.1784 -0.3411 -0.9704
  623MOL0     H84080  14.142   3.986  11.354  0.3069 -1.0442  0.9924
  623MOL0     H84081  14.029   4.114  11.608  1.0485  3.7410  1.9984
  623MOL0     H84082  14.123   4.223  11.503  2.3335 -0.7581 -1.0262
  623MOL0     H84083  14.275   4.167  11.664  1.0589  0.9131 -1.3187
  623MOL0     H84084  14.223   3.993  11.677 -0.4762 -0.7203 -0.5269
  623MOL0     H84085  13.486   4.530  10.975  0.0669 -0.1287  1.0265
  623MOL0     H84086  13.260   4.471  10.879  1.5898  0.8816 -2.0628
  623MOL0     H84087  12.920   4.344  10.869 -1.1168  0.3161  1.6110
  623MOL0     H84088  12.680   4.343  10.801  3.3767  2.5095  3.1843
  623MOL0     H84089  11.210   4.550   9.590  0.7612  0.5289 -1.6234
  623MOL0     H84090  11.160   4.568   9.345 -0.0398 -0.4610  0.4653
  623MOL0     H84091  10.724   4.620   9.133 -1.4701 -1.6301  1.2612
  623MOL0     H84092  10.609   4.689   8.919 -2.0162 -0.1860  2.5965
  623MOL0     H84093  10.445   4.664   8.760  0.4790  2.9617  0.4978
  623MOL0     H84094  10.468   4.625   8.588 -1.9035 -0.2582  1.6240
  623MOL0     H84095  10.690   4.776   8.616  1.0541  3.1090 -0.3099
  623MOL0     H84096  10.595   4.830   8.762  0.4506 -1.4253  0.2315
  623MOL0     H84097  10.415   4.915   8.653  1.5725  0.1639  2.0177
  623MOL0     H84098  10.479   4.840   8.501 -2.0571 -0.5123  0.4183
  623MOL0     H84099  10.535   5.108   8.595 -0.2294  0.1513 -3.1410
  623MOL0     H84100  10.678   5.016   8.652  1.6155  0.7315 -2.1119
  623MOL0     H84101  10.714   5.051   8.226 -0.3731  1.1692  0.1079
  623MOL0     H84102  10.743   4.335   8.733 -0.3065 -0.7987  0.1597
  623MOL0     H84103  10.985   4.230   8.983 -0.4098 -2.5393 -0.8484
  623MOL0     H84104  10.830   4.146   8.952 -0.5639  0.6719  0.1815
  623MOL0     H84105  10.926   4.228   8.822 -1.8737 -0.6422 -1.7565
  624MOL0     O84106   4.612   2.973   2.358 -0.2483 -0.8469 -0.5318
  624MOL0     C84107   4.585   2.873   2.418  0.1470  0.2801  0.3126
  624MOL0     O84108   4.678   2.807   2.481 -0.3367  0.2912 -0.8259
  624MOL0     C84109   4.808   2.836   2.525 -0.7284  0.2529 -0.0161
  624MOL0     C84110   4.888   2.727   2.552 -0.2127 -0.0409 -0.0704
  624MOL0     C84111   5.023   2.742   2.588 -0.2190 -0.2894  0.4010
  624MOL0     C84112   5.082   2.861   2.578  0.6638 -0.4892 -1.3770
  624MOL0     O84113   5.217   2.886   2.591  0.2261 -1.0217  0.8273
  624MOL0     C84114   5.310   2.772   2.605 -0.7645 -0.3385  0.0870
  624MOL0     C84115   5.434   2.855   2.639  0.2977  0.6221  0.5179
  624MOL0     C84116   5.561   2.776   2.677  0.9625 -0.2554 -0.3644
  624MOL0     C84117   5.688   2.869   2.704 -0.1358  0.1885 -0.8615
  624MOL0     C84118   5.727   2.970   2.599  0.1812 -0.3259  0.1059
  624MOL0     C84119   5.736   2.901   2.461  0.1141 -0.2571 -0.2030
  624MOL0     C84120   5.725   2.999   2.343  0.3807  0.2392  0.3018
  624MOL0     C84121   5.822   3.111   2.320  0.2387 -0.1238 -0.3938
  624MOL0     N84122   5.770   3.195   2.211  0.4716  0.7395  0.4352
  624MOL0     C84123   5.698   3.313   2.218 -0.0573 -0.2014 -0.2225
  624MOL0     C84124   5.681   3.365   2.092 -0.2060 -1.1260  0.7868
  624MOL0     C84125   5.619   3.501   2.061  0.7187  0.1015 -0.2981
  624MOL0     C84126   5.466   3.500   2.026 -0.5586 -0.0776  0.0725
  624MOL0     C84127   5.438   3.652   1.992  0.4379  0.1289 -0.4686
  624MOL0     C84128   5.300   3.679   1.939 -0.1219  1.0151 -0.3208
  624MOL0     O84129   5.281   3.589   1.825  0.1023 -0.5384  0.4579
  624MOL0     C84130   5.147   3.579   1.777  0.0788  0.1935  0.2007
  624MOL0     C84131   5.019   3.641   1.821 -0.3091 -0.0528 -0.1311
  624MOL0     C84132   4.904   3.609   1.755 -0.0424 -0.1778 -1.1701
  624MOL0     C84133   4.897   3.514   1.646 -0.2733 -1.1518  0.2541
  624MOL0     C84134   4.768   3.462   1.597  0.5924  0.5777 -0.0808
  624MOL0     O84135   4.652   3.496   1.671 -0.2178 -0.3624  0.8449
  624MOL0     C84136   4.528   3.476   1.621 -0.4930  0.2695  0.4727
  624MOL0     C84137   4.497   3.516   1.487 -0.7372  0.1549 -0.7018
  624MOL0     C84138   4.367   3.504   1.444 -0.1204 -0.3457 -0.0371
  624MOL0     C84139   4.264   3.474   1.532 -0.0770 -0.1297  0.9795
  624MOL0     O84140   4.136   3.485   1.493  0.1856 -0.2491 -0.1100
  624MOL0     C84141   4.036   3.520   1.594 -0.0992  0.2245 -0.0134
  624MOL0     C84142   3.900   3.579   1.529 -0.8140  0.2618 -0.3102
  624MOL0     C84143   3.928   3.692   1.426  0.2538  0.6542 -0.1004
  624MOL0     C84144   3.795   3.730   1.354  0.0258  0.4233  0.2451
  624MOL0     C84145   3.736   3.619   1.276 -0.2767 -0.2691 -0.0775
  624MOL0     C84146   3.609   3.668   1.205  0.1887  0.0586 -0.1409
  624MOL0     C84147   3.612   3.620   1.058 -0.0997 -0.3903  0.0425
  624MOL0     C84148   3.493   3.678   0.986 -0.0134 -0.4225 -0.4490
  624MOL0    Cl84149   3.511   3.857   0.981  0.2406  0.1695  0.1969
  624MOL0     C84150   4.297   3.422   1.654  0.1660 -0.5255  0.0887
  624MOL0     C84151   4.428   3.424   1.697  0.6533  0.4179 -0.0107
  624MOL0     O84152   4.769   3.402   1.484 -0.4719 -0.0351 -0.2596
  624MOL0     C84153   5.014   3.459   1.600 -1.2551 -0.2126  0.0368
  624MOL0     C84154   5.135   3.496   1.666  0.2055 -0.4995 -1.2001
  624MOL0     N84155   5.730   3.281   2.007 -0.6291 -0.3485  0.5605
  624MOL0     N84156   5.783   3.179   2.073 -1.0250  0.2365  0.1457
  624MOL0     C84157   5.005   2.976   2.547  0.1022 -0.0590  0.2154
  624MOL0     C84158   4.868   2.965   2.529  0.1004 -0.0317 -0.2520
  624MOL0     C84159   4.450   2.804   2.413  0.0520 -0.3123  0.6728
  624MOL0     C84160   4.437   2.673   2.464 -0.3621 -0.1457  0.2829
  624MOL0     C84161   4.322   2.599   2.446  0.2097 -0.0467  0.5741
  624MOL0     C84162   4.216   2.660   2.381 -0.4331 -0.2471 -0.5107
  624MOL0     O84163   4.101   2.599   2.350  1.3843  0.0057  0.6455
  624MOL0     C84164   4.070   2.479   2.422 -0.3661 -0.6996 -0.3937
  624MOL0     C84165   3.924   2.441   2.402 -0.2402  0.2606 -0.3187
  624MOL0     C84166   3.876   2.325   2.475  0.4951 -0.0484 -0.2515
  624MOL0     C84167   3.734   2.295   2.438 -0.7072  0.1493  0.0661
  624MOL0     C84168   3.742   2.226   2.304  1.0135  0.2614  0.0860
  624MOL0     C84169   3.736   2.179   2.189  0.0921  0.1893  0.3113
  624MOL0     C84170   4.228   2.785   2.322 -0.1133 -0.7272 -0.2765
  624MOL0     C84171   4.341   2.862   2.348  0.8068  0.2058  0.0781
  624MOL0     C84172   4.334   3.005   2.303 -0.9373  0.5580 -0.2826
  624MOL0     H84173   4.840   2.631   2.539 -4.1977  1.6095  0.8654
  624MOL0     H84174   5.083   2.655   2.612 -2.4188 -1.5048  1.7872
  624MOL0     H84175   5.282   2.703   2.684  1.1690  0.6774  1.7502
  624MOL0     H84176   5.319   2.725   2.506 -0.6127  0.7187 -0.4246
  624MOL0     H84177   5.405   2.911   2.728  2.8324  1.0940  1.1422
  624MOL0     H84178   5.445   2.925   2.556 -2.2510  1.8134  1.0978
  624MOL0     H84179   5.570   2.697   2.602  0.2173 -0.6510 -0.0491
  624MOL0     H84180   5.541   2.719   2.768  1.0685 -0.7181 -0.6273
  624MOL0     H84181   5.671   2.918   2.801 -2.6420 -2.1674  0.0187
  624MOL0     H84182   5.780   2.810   2.715  1.2391  2.5065  1.0390
  624MOL0     H84183   5.656   3.053   2.592  0.5449  0.0066  0.3352
  624MOL0     H84184   5.821   3.017   2.630  0.8219 -2.5219  1.7001
  624MOL0     H84185   5.839   2.866   2.461  0.1051 -0.3079  0.9372
  624MOL0     H84186   5.681   2.807   2.456  1.1136 -0.9978  1.6595
  624MOL0     H84187   5.627   3.048   2.336  1.1295  1.6023 -1.4381
  624MOL0     H84188   5.727   2.942   2.250  0.0848  2.0618 -0.8634
  624MOL0     H84189   5.833   3.166   2.414 -2.1518 -3.3018  1.9747
  624MOL0     H84190   5.913   3.061   2.283 -0.7273 -0.9908 -1.6821
  624MOL0     H84191   5.681   3.362   2.314 -2.3823 -0.4904 -0.4211
  624MOL0     H84192   5.641   3.572   2.141  0.5845 -0.2829  0.0900
  624MOL0     H84193   5.661   3.542   1.970  0.2061 -2.5334 -1.8398
  624MOL0     H84194   5.440   3.430   1.946  0.4390 -0.0877 -0.2619
  624MOL0     H84195   5.406   3.476   2.114 -2.2399 -1.4592 -1.3709
  624MOL0     H84196   5.506   3.682   1.911  1.2305  0.3846  0.2811
  624MOL0     H84197   5.464   3.705   2.084  2.4449 -0.6909 -0.5299
  624MOL0     H84198   5.300   3.785   1.911  1.1085  0.4898 -2.5424
  624MOL0     H84199   5.231   3.637   2.012  2.8172 -0.6893  1.6587
  624MOL0     H84200   5.036   3.711   1.903  0.6153 -0.4917  0.0710
  624MOL0     H84201   4.810   3.650   1.790 -0.7947 -0.4494 -2.7730
  624MOL0     H84202   4.578   3.541   1.420 -0.1976  0.4635  0.0563
  624MOL0     H84203   4.350   3.543   1.344 -0.5445  0.9530  0.5211
  624MOL0     H84204   4.005   3.432   1.651  0.9441  0.2086  0.5634
  624MOL0     H84205   4.078   3.596   1.660 -1.1604 -0.5420  1.6260
  624MOL0     H84206   3.855   3.495   1.476 -0.2399  0.1480 -0.6228
  624MOL0     H84207   3.834   3.614   1.609  1.0730  1.0467  0.9828
  624MOL0     H84208   3.954   3.782   1.481 -0.1359  0.4966  0.3451
  624MOL0     H84209   4.004   3.661   1.353 -0.3162  1.5145 -1.0780
  624MOL0     H84210   3.826   3.809   1.285  1.0101  0.6129  0.8785
  624MOL0     H84211   3.719   3.769   1.422  0.7069 -0.1447  1.3663
  624MOL0     H84212   3.707   3.547   1.352 -0.9835  0.8865  0.7840
  624MOL0     H84213   3.814   3.585   1.207  0.4703  0.7078  0.2588
  624MOL0     H84214   3.518   3.636   1.256  0.6921  1.3781  1.7345
  624MOL0     H84215   3.593   3.776   1.216 -0.4500 -0.0941  0.5462
  624MOL0     H84216   3.614   3.511   1.045  0.1152 -0.3555 -0.1985
  624MOL0     H84217   3.706   3.652   1.013 -0.4881 -0.2595 -0.6778
  624MOL0     H84218   3.487   3.641   0.883  0.0203  1.5968 -1.2153
  624MOL0     H84219   3.396   3.649   1.029 -1.0501  1.4024 -1.3888
  624MOL0     H84220   4.224   3.383   1.725  1.2483 -3.6328 -0.3305
  624MOL0     H84221   4.459   3.374   1.788 -2.2727 -0.0638  0.8258
  624MOL0     H84222   5.019   3.383   1.522  0.7935 -2.5448  2.2444
  624MOL0     H84223   5.223   3.439   1.637  0.3968  0.3949 -2.4560
  624MOL0     H84224   5.060   3.069   2.540  0.1601  0.1046  2.3223
  624MOL0     H84225   4.818   3.059   2.504 -0.0542 -0.5526 -1.9938
  624MOL0     H84226   4.519   2.616   2.507 -0.6108 -0.5457  0.2252
  624MOL0     H84227   4.321   2.496   2.481  2.1349 -1.2381 -2.5145
  624MOL0     H84228   4.080   2.505   2.528 -1.2976  1.5567 -0.8085
  624MOL0     H84229   4.140   2.404   2.385  0.7766  0.5099 -0.7311
  624MOL0     H84230   3.911   2.425   2.295  1.3658  1.6580 -0.7766
  624MOL0     H84231   3.862   2.525   2.437  0.2341  0.1942  0.7084
  624MOL0     H84232   3.875   2.351   2.581  0.7225 -3.9575  0.8774
  624MOL0     H84233   3.942   2.238   2.465 -1.0889 -1.6553  2.2930
  624MOL0     H84234   3.689   2.236   2.519 -0.6028 -0.5926 -0.4027
  624MOL0     H84235   3.674   2.386   2.436 -1.3425 -0.2715 -1.4117
  624MOL0     H84236   3.721   2.145   2.088  1.1992 -0.1108  0.2306
  624MOL0     H84237   4.149   2.830   2.264  0.8338  0.4085 -0.7082
  624MOL0     H84238   4.415   3.018   2.232  2.5830 -2.9397  2.6141
  624MOL0     H84239   4.236   3.029   2.260 -1.2151  1.5924  0.8425
  624MOL0     H84240   4.355   3.074   2.386 -1.9447 -0.9927  1.3499
  625MOL0     O84241   2.633   1.715   8.854 -0.5057  1.0946 -0.0072
  625MOL0     C84242   2.682   1.802   8.787  0.1610 -0.3418  0.9225
  625MOL0     O84243   2.770   1.892   8.832  0.1648  0.6421 -0.5029
  625MOL0     C84244   2.795   1.912   8.965  0.6169 -0.4641 -0.2805
  625MOL0     C84245   2.863   1.811   9.043 -0.0364 -0.4348  0.6958
  625MOL0     C84246   2.887   1.827   9.171 -0.5090  0.4294  0.2106
  625MOL0     C84247   2.832   1.940   9.243  0.4833  0.8926 -0.2033
  625MOL0     O84248   2.846   1.952   9.381 -0.2971  0.3900  0.7859
  625MOL0     C84249   2.954   1.881   9.448  0.0152  0.0591  0.4726
  625MOL0     C84250   2.966   1.921   9.595  1.0023 -0.0661  0.3018
  625MOL0     C84251   3.079   1.851   9.666  0.1692  0.3507  0.5540
  625MOL0     C84252   3.226   1.882   9.636 -0.4543  0.2012 -0.2536
  625MOL0     C84253   3.316   1.776   9.721 -0.6767  0.6891  0.8553
  625MOL0     C84254   3.469   1.797   9.722  0.8367 -0.3473 -0.8340
  625MOL0     C84255   3.523   1.762   9.578  1.0272  0.3899 -0.0124
  625MOL0     C84256   3.671   1.806   9.562 -0.1697 -0.2455  0.8539
  625MOL0     N84257   3.771   1.774   9.667 -0.8910  0.1851 -0.6618
  625MOL0     C84258   3.815   1.650   9.705  0.0830  0.0072 -0.0654
  625MOL0     C84259   3.895   1.671   9.809  0.0549  0.0694 -0.1283
  625MOL0     C84260   3.970   1.561   9.879 -0.2333 -0.7366  0.0570
  625MOL0     C84261   4.106   1.566   9.810 -0.6323  0.5066 -0.6616
  625MOL0     C84262   4.200   1.659   9.882 -0.3673  0.2260 -0.9227
  625MOL0     C84263   4.352   1.647   9.841  0.8096  0.1568  0.5918
  625MOL0     O84264   4.434   1.727   9.930  0.1752  0.4746  0.2307
  625MOL0     C84265   4.572   1.721   9.905  0.0664 -0.7285  0.3028
  625MOL0     C84266   4.642   1.641   9.815 -0.3381 -0.2825 -0.2730
  625MOL0     C84267   4.780   1.623   9.818  0.3235 -0.7054  0.1158
  625MOL0     C84268   4.863   1.688   9.906  0.5327  0.1109 -0.0750
  625MOL0     C84269   5.006   1.660   9.906 -0.3320 -0.2977 -1.3246
  625MOL0     O84270   5.048   1.581   9.801 -0.3883 -0.5982  0.2448
  625MOL0     C84271   5.187   1.569   9.789 -0.1723  0.4446 -0.3340
  625MOL0     C84272   5.259   1.454   9.840 -0.3511 -0.1076 -0.1217
  625MOL0     C84273   5.399   1.446   9.821  0.0754 -1.4612  0.2354
  625MOL0     C84274   5.469   1.553   9.766 -1.1853 -0.2479  0.1965
  625MOL0     O84275   5.602   1.546   9.748  0.7670  0.2630  0.7360
  625MOL0     C84276   5.687   1.441   9.808  0.8575 -0.2155 -0.1582
  625MOL0     C84277   5.830   1.503   9.833  0.1481 -0.9538 -0.0922
  625MOL0     C84278   5.913   1.523   9.709 -0.0417  0.1424 -0.8999
  625MOL0     C84279   6.020   1.414   9.706 -0.4969  0.6606  0.1578
  625MOL0     C84280   6.125   1.431   9.592  0.0126  0.1504  0.2236
  625MOL0     C84281   6.236   1.328   9.600  0.2217 -0.7578 -0.4621
  625MOL0     C84282   6.351   1.346   9.493 -0.5586  0.5575 -0.5346
  625MOL0     C84283   6.420   1.488   9.488 -0.8429  0.1530 -0.3186
  625MOL0    Cl84284   6.547   1.494   9.615  0.0068  0.3546  0.6192
  625MOL0     C84285   5.397   1.664   9.715 -0.0843 -0.4475  0.7817
  625MOL0     C84286   5.255   1.671   9.722 -0.7394 -0.7364  0.0621
  625MOL0     O84287   5.078   1.710   9.991  0.0796 -0.0800  0.3450
  625MOL0     C84288   4.794   1.790   9.977  0.2106 -0.2229 -0.1989
  625MOL0     C84289   4.652   1.804   9.985  1.2636 -0.1385  0.0150
  625MOL0     N84290   3.899   1.808   9.835 -0.6399  0.3528 -0.1734
  625MOL0     N84291   3.823   1.865   9.761 -0.5511 -0.0800 -0.2644
  625MOL0     C84292   2.760   2.038   9.168 -1.1418  0.1467  0.9749
  625MOL0     C84293   2.753   2.027   9.027 -0.6739  0.6526 -1.3324
  625MOL0     C84294   2.642   1.817   8.651  0.6254  0.3063  0.1349
  625MOL0     C84295   2.745   1.812   8.554  0.2995  0.6177  0.8596
  625MOL0     C84296   2.703   1.817   8.416  0.0104 -0.0411 -0.0562
  625MOL0     C84297   2.568   1.815   8.383  0.3701  0.1409 -0.0446
  625MOL0     O84298   2.543   1.809   8.245  0.3386  0.5000  0.2142
  625MOL0     C84299   2.422   1.740   8.212  0.0612  1.2415  0.8192
  625MOL0     C84300   2.396   1.709   8.063 -0.7844 -0.3944  0.2815
  625MOL0     C84301   2.485   1.597   8.029 -0.4072  0.3997  0.5701
  625MOL0     C84302   2.452   1.460   8.086 -0.3452  0.8203  0.0208
  625MOL0     C84303   2.316   1.408   8.078 -0.0251  0.5311 -0.6542
  625MOL0     C84304   2.205   1.360   8.088 -0.0303  0.1305 -0.0949
  625MOL0     C84305   2.467   1.813   8.482  1.1523 -1.3917  0.4776
  625MOL0     C84306   2.500   1.813   8.618  0.0075 -0.0113 -0.6956
  625MOL0     C84307   2.389   1.831   8.718 -0.4724 -0.1282 -0.2186
  625MOL0     H84308   2.901   1.721   8.996  0.7618  0.2784 -0.0434
  625MOL0     H84309   2.950   1.744   9.200 -2.7376 -2.8847 -3.4686
  625MOL0     H84310   2.947   1.772   9.443  0.7907 -0.1492  2.5074
  625MOL0     H84311   3.044   1.907   9.391 -0.6615 -1.0314 -1.1341
  625MOL0     H84312   2.876   1.889   9.647  0.1133  0.8499 -0.6346
  625MOL0     H84313   2.968   2.029   9.609  0.3873 -0.1269  0.8771
  625MOL0     H84314   3.070   1.745   9.643 -2.2026  0.4781  0.5858
  625MOL0     H84315   3.063   1.871   9.773  2.7090  0.4399  0.9753
  625MOL0     H84316   3.246   1.874   9.529 -0.8274  0.6718 -0.3640
  625MOL0     H84317   3.249   1.987   9.659 -0.2251 -0.1709  1.3497
  625MOL0     H84318   3.280   1.765   9.823 -0.8007 -0.8551  0.6660
  625MOL0     H84319   3.292   1.680   9.674 -0.8024  0.8038  0.6816
  625MOL0     H84320   3.494   1.899   9.753  1.4626 -0.1761 -1.8204
  625MOL0     H84321   3.507   1.721   9.792 -1.1491  0.3536  1.0948
  625MOL0     H84322   3.468   1.815   9.499  0.2651  1.5474  1.2551
  625MOL0     H84323   3.498   1.659   9.554 -0.4452  0.7764 -0.2552
  625MOL0     H84324   3.713   1.779   9.465 -1.5161  0.5247  0.0182
  625MOL0     H84325   3.665   1.916   9.563  2.7753  0.0864 -1.9197
  625MOL0     H84326   3.796   1.554   9.659 -1.1609  0.5031 -0.6566
  625MOL0     H84327   3.989   1.579   9.986  0.4221  0.4835 -0.2390
  625MOL0     H84328   3.912   1.469   9.866 -0.3597 -0.5971 -0.3546
  625MOL0     H84329   4.152   1.468   9.823 -4.7835 -1.3965  2.1805
  625MOL0     H84330   4.101   1.594   9.704 -1.1101  0.9531 -0.5279
  625MOL0     H84331   4.186   1.643   9.989 -0.2735  2.5034 -0.5031
  625MOL0     H84332   4.169   1.762   9.862  0.6418  1.0356  1.2823
  625MOL0     H84333   4.364   1.673   9.736  1.9690  0.2432  0.7306
  625MOL0     H84334   4.372   1.539   9.844  2.8555  0.4890  0.6442
  625MOL0     H84335   4.587   1.584   9.741 -0.9447  0.9901 -0.8342
  625MOL0     H84336   4.821   1.545   9.754 -1.1184  0.2946 -2.1620
  625MOL0     H84337   5.215   1.374   9.899 -0.8402  0.2879  0.0578
  625MOL0     H84338   5.451   1.357   9.857  0.8899  0.2626  3.8122
  625MOL0     H84339   5.645   1.414   9.906 -0.5770 -3.5035 -1.5446
  625MOL0     H84340   5.687   1.343   9.759  1.3324 -1.3885  2.0483
  625MOL0     H84341   5.811   1.599   9.882 -2.3843 -0.6699 -1.4313
  625MOL0     H84342   5.886   1.438   9.901  0.0551  0.5029  1.4343
  625MOL0     H84343   5.855   1.518   9.616  2.6626 -1.3974 -2.6644
  625MOL0     H84344   5.959   1.622   9.715 -0.8499  0.4829 -0.2090
  625MOL0     H84345   5.963   1.320   9.707 -1.0698  0.9592  2.8628
  625MOL0     H84346   6.080   1.407   9.797  1.6023  1.0393 -1.1366
  625MOL0     H84347   6.150   1.537   9.594 -3.4604  1.0981  1.4011
  625MOL0     H84348   6.072   1.413   9.498  0.0602  0.8316  0.0633
  625MOL0     H84349   6.287   1.345   9.696  1.3957  0.1829 -1.2261
  625MOL0     H84350   6.181   1.234   9.610 -0.1960 -0.2763  2.8592
  625MOL0     H84351   6.306   1.323   9.395 -0.0141 -1.5392 -0.3450
  625MOL0     H84352   6.430   1.271   9.500  0.8773  1.9265 -1.3335
  625MOL0     H84353   6.462   1.492   9.388  2.1631 -0.0724  0.8301
  625MOL0     H84354   6.360   1.579   9.497  0.7557  1.2499 -0.4327
  625MOL0     H84355   5.459   1.740   9.667  2.0426 -3.1782 -1.1007
  625MOL0     H84356   5.202   1.753   9.676 -0.6572 -0.1284  1.0335
  625MOL0     H84357   4.856   1.848  10.044  1.1880 -0.3607 -0.9552
  625MOL0     H84358   4.603   1.885  10.037 -1.7402 -1.1315 -1.0622
  625MOL0     H84359   2.726   2.129   9.217 -2.2229  0.1823  0.2065
  625MOL0     H84360   2.693   2.102   8.976 -0.4613  1.2632 -0.7102
  625MOL0     H84361   2.849   1.799   8.580  0.1723 -1.6673  0.4031
  625MOL0     H84362   2.769   1.825   8.330  2.6397  1.3870  1.9399
  625MOL0     H84363   2.338   1.802   8.245 -3.3406 -3.0793  1.1785
  625MOL0     H84364   2.419   1.645   8.266 -0.5369 -0.8431 -2.5799
  625MOL0     H84365   2.420   1.792   7.995 -1.2244 -2.1446 -2.1646
  625MOL0     H84366   2.293   1.683   8.038 -0.7970 -0.7559  0.7084
  625MOL0     H84367   2.590   1.623   8.045  0.6245 -0.7517 -3.1438
  625MOL0     H84368   2.480   1.568   7.923  0.3197  0.6788  0.4531
  625MOL0     H84369   2.522   1.386   8.046 -0.5218  0.0342  1.1264
  625MOL0     H84370   2.484   1.458   8.190 -0.3701 -0.9812  0.0128
  625MOL0     H84371   2.105   1.324   8.096  1.0337 -2.7755  1.4340
  625MOL0     H84372   2.360   1.802   8.467  0.9083 -0.6067  1.5008
  625MOL0     H84373   2.383   1.744   8.784  1.5556  1.4802  2.3221
  625MOL0     H84374   2.403   1.913   8.789  1.7814  0.0956 -0.8632
  625MOL0     H84375   2.303   1.866   8.660  0.2621  0.5171 -0.9444
  626MOL0     O84376   3.787   7.207   1.940 -0.0668  0.7696 -0.0161
  626MOL0     C84377   3.793   7.196   2.057 -0.0558  0.1625  0.5038
  626MOL0     O84378   3.909   7.221   2.137  0.2637 -0.2592  0.4195
  626MOL0     C84379   4.010   7.298   2.081 -0.0443  0.8006  0.2809
  626MOL0     C84380   4.141   7.246   2.105  0.3329  0.1296  0.4245
  626MOL0     C84381   4.256   7.301   2.049  0.0188  0.1596  0.2000
  626MOL0     C84382   4.238   7.425   1.979 -0.7226  0.2583 -0.2070
  626MOL0     O84383   4.343   7.493   1.917  0.1216 -0.0580 -0.2983
  626MOL0     C84384   4.463   7.508   1.997 -0.0572  0.3701  0.8306
  626MOL0     C84385   4.575   7.577   1.930 -0.4348 -0.0282 -0.0050
  626MOL0     C84386   4.599   7.519   1.785  0.9417  1.2915  0.6821
  626MOL0     C84387   4.734   7.573   1.749 -0.6706  0.1763 -0.3804
  626MOL0     C84388   4.767   7.524   1.604  0.2884  0.2693  0.0919
  626MOL0     C84389   4.913   7.557   1.573 -0.8424 -0.3185  0.0505
  626MOL0     C84390   4.953   7.714   1.548  0.5980 -0.0048 -0.4495
  626MOL0     C84391   5.075   7.735   1.462  0.6594  0.1700  0.6215
  626MOL0     N84392   5.108   7.874   1.440  0.4785  0.1600 -0.0513
  626MOL0     C84393   5.117   7.973   1.535 -0.2967  0.4629 -0.5542
  626MOL0     C84394   5.136   8.094   1.478  0.5048  0.1962 -1.1013
  626MOL0     C84395   5.147   8.229   1.544  0.8026  0.5506 -0.2815
  626MOL0     C84396   5.277   8.253   1.613  0.2022  1.0181  0.6541
  626MOL0     C84397   5.379   8.277   1.500 -0.1540  0.4832 -0.5065
  626MOL0     C84398   5.504   8.328   1.556  0.4082  0.0898  0.3440
  626MOL0     O84399   5.573   8.385   1.447 -0.0250  0.3365 -0.4878
  626MOL0     C84400   5.702   8.413   1.478 -0.0238 -0.2844  1.0707
  626MOL0     C84401   5.785   8.450   1.367 -0.1735 -0.9462  0.1770
  626MOL0     C84402   5.913   8.499   1.383 -0.0943  0.2387  0.4169
  626MOL0     C84403   5.981   8.494   1.504  0.1758 -0.1991  0.0490
  626MOL0     C84404   6.126   8.535   1.525  0.2655 -0.9343 -0.6119
  626MOL0     O84405   6.172   8.524   1.654  0.3246 -0.0651  0.0129
  626MOL0     C84406   6.293   8.573   1.692 -0.3276  0.3610 -0.7787
  626MOL0     C84407   6.385   8.659   1.620  0.1336  0.5804  0.0873
  626MOL0     C84408   6.502   8.713   1.669  0.0935  0.9352 -1.1334
  626MOL0     C84409   6.540   8.684   1.806 -1.0632 -0.9891  0.9189
  626MOL0     O84410   6.667   8.723   1.842  0.1903 -0.0195  0.1080
  626MOL0     C84411   6.769   8.740   1.747  0.5508 -0.9000 -0.4948
  626MOL0     C84412   6.901   8.740   1.811 -0.4798 -0.1445  0.0914
  626MOL0     C84413   7.020   8.748   1.710 -0.7514  0.0610  0.3462
  626MOL0     C84414   7.160   8.732   1.785  0.3745  0.8896 -0.2302
  626MOL0     C84415   7.270   8.736   1.677 -0.3400 -0.0767 -0.5861
  626MOL0     C84416   7.405   8.693   1.734 -0.7915  0.6488  0.2225
  626MOL0     C84417   7.521   8.689   1.639 -0.2517  0.0902 -0.4454
  626MOL0     C84418   7.644   8.620   1.692 -0.1648 -0.2116 -0.0167
  626MOL0    Cl84419   7.681   8.691   1.852  0.3431  0.0083 -0.1980
  626MOL0     C84420   6.460   8.599   1.881  0.1681 -1.8149 -0.2568
  626MOL0     C84421   6.337   8.549   1.827  0.5402 -0.8428  0.3274
  626MOL0     O84422   6.184   8.576   1.432  0.5979  0.5018 -0.7314
  626MOL0     C84423   5.910   8.452   1.615 -0.2095  0.7702  0.4372
  626MOL0     C84424   5.772   8.412   1.605 -0.6901  0.2097 -0.9998
  626MOL0     N84425   5.142   8.070   1.348  0.9013  0.1908 -0.1175
  626MOL0     N84426   5.122   7.944   1.326  0.3038  0.2969  0.3098
  626MOL0     C84427   4.115   7.478   1.957 -0.7759 -0.8390  0.1117
  626MOL0     C84428   4.006   7.412   2.006  0.6422 -0.2897  0.0840
  626MOL0     C84429   3.668   7.155   2.131  0.2468 -0.3801  0.0346
  626MOL0     C84430   3.663   7.180   2.258  0.4270  0.2046 -0.7300
  626MOL0     C84431   3.545   7.168   2.324  0.1442  0.2663 -0.5473
  626MOL0     C84432   3.439   7.109   2.272  0.7008 -0.2718 -0.7896
  626MOL0     O84433   3.322   7.071   2.337  0.1995 -0.0498 -0.3110
  626MOL0     C84434   3.339   7.024   2.474  0.1867  0.0773 -0.2255
  626MOL0     C84435   3.220   6.951   2.519 -0.9855 -0.4560 -0.2347
  626MOL0     C84436   3.213   6.811   2.459  0.1488 -0.4899  0.3159
  626MOL0     C84437   3.088   6.751   2.524 -0.6183  1.1119 -0.0440
  626MOL0     C84438   2.960   6.823   2.499  0.1918  0.8249  0.2317
  626MOL0     C84439   2.847   6.856   2.468  0.2724  0.2315 -0.3094
  626MOL0     C84440   3.436   7.080   2.136  0.2440 -0.0554  0.1870
  626MOL0     C84441   3.553   7.097   2.063 -0.0074  0.7254  0.0769
  626MOL0     C84442   3.536   7.068   1.914  0.5771 -0.4325  0.2120
  626MOL0     H84443   4.152   7.150   2.155 -0.4890  0.8506  2.0629
  626MOL0     H84444   4.340   7.233   2.056 -0.9955 -0.9403  2.9650
  626MOL0     H84445   4.437   7.559   2.090 -0.5950  1.8822 -0.1298
  626MOL0     H84446   4.507   7.409   2.013 -0.7212 -0.4450 -1.9064
  626MOL0     H84447   4.664   7.567   1.992 -0.1902  0.3719 -0.2839
  626MOL0     H84448   4.548   7.682   1.917  1.2011  0.3142 -0.8868
  626MOL0     H84449   4.523   7.552   1.714  1.6288 -2.2587 -1.9302
  626MOL0     H84450   4.598   7.411   1.801 -0.7240  1.3777  1.2885
  626MOL0     H84451   4.734   7.682   1.749 -0.9210  0.2113 -2.3381
  626MOL0     H84452   4.811   7.554   1.825 -0.4880  2.6359  0.1461
  626MOL0     H84453   4.763   7.415   1.608 -0.8034  0.3212  1.2541
  626MOL0     H84454   4.700   7.559   1.525  0.4025 -1.4833 -0.8327
  626MOL0     H84455   4.965   7.533   1.666 -0.3705  0.5328  0.0211
  626MOL0     H84456   4.960   7.492   1.498  0.5417  1.3179 -0.5694
  626MOL0     H84457   4.958   7.772   1.641 -0.4283 -1.2754  0.4381
  626MOL0     H84458   4.864   7.755   1.501  1.1433  1.4601 -0.2617
  626MOL0     H84459   5.161   7.682   1.503  0.1918 -0.8526  0.3317
  626MOL0     H84460   5.056   7.691   1.363  1.5425  0.7152  0.2020
  626MOL0     H84461   5.097   7.970   1.642 -5.8180  0.6792 -1.2611
  626MOL0     H84462   5.114   8.308   1.476 -1.9971 -1.5901 -1.6051
  626MOL0     H84463   5.070   8.225   1.622  0.8268 -0.8046 -0.3043
  626MOL0     H84464   5.264   8.335   1.684  0.3065  0.5675  1.2013
  626MOL0     H84465   5.302   8.167   1.676 -3.0336 -0.1563  0.5321
  626MOL0     H84466   5.345   8.355   1.430 -2.2327 -1.1375 -1.4364
  626MOL0     H84467   5.388   8.182   1.446 -3.0591  1.2504 -2.5808
  626MOL0     H84468   5.560   8.251   1.610  0.4292  1.3583  2.2461
  626MOL0     H84469   5.465   8.403   1.626 -1.7221 -0.7467  0.1339
  626MOL0     H84470   5.741   8.445   1.268  0.4524  2.9662 -0.4733
  626MOL0     H84471   5.955   8.534   1.289 -5.1301  1.8216 -1.6385
  626MOL0     H84472   6.366   8.703   1.523  1.3208  3.0851  0.8990
  626MOL0     H84473   6.567   8.769   1.602  2.7421 -0.1344  0.4132
  626MOL0     H84474   6.765   8.662   1.671  0.2414  0.8341 -2.3684
  626MOL0     H84475   6.750   8.838   1.700 -2.1051 -1.6541 -1.1619
  626MOL0     H84476   6.910   8.838   1.859 -4.0881  0.7629 -0.8004
  626MOL0     H84477   6.897   8.650   1.872 -2.4650 -1.4830 -1.8656
  626MOL0     H84478   7.004   8.659   1.648  0.3405 -0.1733  0.3740
  626MOL0     H84479   7.013   8.846   1.663 -0.8021 -1.0477 -2.0926
  626MOL0     H84480   7.162   8.632   1.830  0.7312  1.1283  0.2967
  626MOL0     H84481   7.169   8.808   1.863 -2.2150 -1.0807  2.1940
  626MOL0     H84482   7.277   8.839   1.640 -1.4592  0.9611  1.8730
  626MOL0     H84483   7.236   8.667   1.599 -3.2485  1.3174 -0.6680
  626MOL0     H84484   7.439   8.756   1.817  0.3243  0.3621 -0.0080
  626MOL0     H84485   7.389   8.600   1.789  0.3936  2.3529  3.7770
  626MOL0     H84486   7.555   8.789   1.611  0.1625 -0.2537 -1.1874
  626MOL0     H84487   7.500   8.645   1.541 -1.5774  1.0035 -0.6028
  626MOL0     H84488   7.630   8.512   1.698  0.0587 -0.3543 -1.5194
  626MOL0     H84489   7.730   8.619   1.625  0.8476 -0.2771  1.2563
  626MOL0     H84490   6.496   8.575   1.980 -1.1076  1.4658  1.1183
  626MOL0     H84491   6.274   8.482   1.883  2.4153 -2.2976  0.8053
  626MOL0     H84492   5.963   8.441   1.709  0.4202 -0.1292 -0.0125
  626MOL0     H84493   5.728   8.382   1.700  2.7667  0.8674  0.9654
  626MOL0     H84494   4.109   7.564   1.891 -1.5658 -1.3725 -0.5423
  626MOL0     H84495   3.908   7.457   1.998  0.8203  0.0215 -0.3822
  626MOL0     H84496   3.739   7.236   2.312  2.8213 -3.5879  0.1808
  626MOL0     H84497   3.553   7.195   2.429 -1.9423 -0.8320 -0.0555
  626MOL0     H84498   3.361   7.111   2.537  0.5473 -0.2108  0.0549
  626MOL0     H84499   3.428   6.960   2.473 -0.5217 -0.9497  0.2358
  626MOL0     H84500   3.140   7.020   2.491  1.8634  3.2901  0.0213
  626MOL0     H84501   3.230   6.943   2.627  0.0901 -1.5157 -0.3826
  626MOL0     H84502   3.303   6.752   2.477 -0.4553 -2.0157 -1.3328
  626MOL0     H84503   3.197   6.815   2.351  3.1216  0.9229 -0.1881
  626MOL0     H84504   3.074   6.648   2.487  0.2742  0.6502  0.8591
  626MOL0     H84505   3.101   6.725   2.630 -1.6292  4.0346  0.8839
  626MOL0     H84506   2.750   6.898   2.451 -0.2312 -1.0294 -0.6823
  626MOL0     H84507   3.348   7.036   2.091  0.7534  0.3218 -1.2113
  626MOL0     H84508   3.440   7.016   1.909  1.5259 -2.1524 -1.3748
  626MOL0     H84509   3.539   7.139   1.830  0.6538 -1.9943 -1.1534
  626MOL0     H84510   3.613   6.998   1.881  1.3762 -1.0946  3.1707
  627MOL0     O84511   7.888  10.754  11.161 -0.2795  0.8452 -0.4854
  627MOL0     C84512   7.773  10.726  11.128  0.0450  0.2175 -0.3057
  627MOL0     O84513   7.729  10.670  11.008 -0.7355 -0.9250 -0.6343
  627MOL0     C84514   7.819  10.634  10.919  0.2817 -0.1569  0.8513
  627MOL0     C84515   7.898  10.526  10.958  1.1161  0.7054  0.5927
  627MOL0     C84516   7.992  10.483  10.858  0.2407  0.6269 -0.5632
  627MOL0     C84517   8.016  10.552  10.737  0.1217  0.5307 -0.8374
  627MOL0     O84518   8.111  10.514  10.645 -0.3923  0.1592  0.1360
  627MOL0     C84519   8.243  10.487  10.699 -0.1923  0.7380 -0.1857
  627MOL0     C84520   8.334  10.467  10.581 -0.7125 -0.6398  1.3050
  627MOL0     C84521   8.490  10.456  10.600 -0.9744  0.5612  0.9070
  627MOL0     C84522   8.560  10.557  10.699 -0.3984  0.8101  0.8861
  627MOL0     C84523   8.717  10.572  10.672  0.0884  0.2675 -0.5101
  627MOL0     C84524   8.796  10.437  10.702  0.3882 -0.5932  0.6783
  627MOL0     C84525   8.787  10.394  10.852  0.0706  0.4955 -0.3217
  627MOL0     C84526   8.854  10.255  10.865  0.0192 -0.1032 -0.4802
  627MOL0     N84527   8.997  10.251  10.830 -0.1983 -0.0527 -0.0050
  627MOL0     C84528   9.102  10.262  10.916 -1.4588  0.1106 -0.7934
  627MOL0     C84529   9.216  10.214  10.849  0.6396  0.6157 -0.1437
  627MOL0     C84530   9.352  10.179  10.911 -0.3325  0.1807  0.0479
  627MOL0     C84531   9.469  10.275  10.871  0.3736  0.0032  1.4951
  627MOL0     C84532   9.596  10.212  10.922 -0.5226 -0.0374  0.1547
  627MOL0     C84533   9.723  10.292  10.893  0.0011 -1.0613 -0.1296
  627MOL0     O84534   9.810  10.217  10.815 -0.1035 -0.1267 -0.1122
  627MOL0     C84535   9.943  10.266  10.818  0.4774  0.3170  0.7933
  627MOL0     C84536  10.004  10.375  10.885  0.4883 -0.0250  1.0171
  627MOL0     C84537  10.135  10.405  10.869 -0.3194 -0.1934 -0.7164
  627MOL0     C84538  10.219  10.333  10.783 -0.4896  0.5255 -0.4495
  627MOL0     C84539  10.366  10.381  10.776  0.0230  0.6339  0.7510
  627MOL0     O84540  10.426  10.352  10.666  0.3751  0.3455 -0.3024
  627MOL0     C84541  10.552  10.364  10.637  0.4452 -0.1467  0.4346
  627MOL0     C84542  10.575  10.359  10.497 -0.0015 -0.1282  0.0941
  627MOL0     C84543  10.700  10.371  10.441  0.1859  0.0310  0.0575
  627MOL0     C84544  10.816  10.385  10.523  0.4551 -0.2965 -0.5238
  627MOL0     O84545  10.944  10.402  10.473  0.4646  0.1830 -0.8216
  627MOL0     C84546  10.968  10.503  10.377 -0.5690  0.5299  0.6055
  627MOL0     C84547  11.123  10.522  10.382  0.0758 -0.4308 -0.2169
  627MOL0     C84548  11.166  10.592  10.516 -0.0836  0.6664  0.5068
  627MOL0     C84549  11.123  10.732  10.516 -0.7282  0.6644  0.1534
  627MOL0     C84550  11.209  10.827  10.607  1.0810 -0.1986  0.5213
  627MOL0     C84551  11.147  10.961  10.587  0.8280 -0.6573  0.1087
  627MOL0     C84552  11.227  11.089  10.625 -0.7681  0.4040  0.9064
  627MOL0     C84553  11.291  11.100  10.768 -0.7884 -0.0778 -0.2546
  627MOL0    Cl84554  11.156  11.102  10.880  0.1347  0.3637 -0.1980
  627MOL0     C84555  10.793  10.393  10.661  0.1340 -0.0477 -0.2026
  627MOL0     C84556  10.664  10.384  10.713 -1.5206  0.3947 -0.6816
  627MOL0     O84557  10.418  10.434  10.875 -1.0015 -0.3349 -0.0252
  627MOL0     C84558  10.160  10.216  10.727 -0.4412  0.1300  0.5331
  627MOL0     C84559  10.031  10.184  10.746 -0.2773 -0.0514  1.0137
  627MOL0     N84560   9.175  10.184  10.723 -0.3923 -1.2884 -0.6213
  627MOL0     N84561   9.043  10.198  10.712  0.2635 -0.0218  0.2128
  627MOL0     C84562   7.932  10.655  10.703 -0.3971 -0.4287 -0.0146
  627MOL0     C84563   7.831  10.695  10.792  0.3655  1.1991 -0.0838
  627MOL0     C84564   7.665  10.748  11.235 -0.8486 -0.1908  0.1494
  627MOL0     C84565   7.539  10.773  11.193  0.2145  0.5108 -0.8831
  627MOL0     C84566   7.434  10.778  11.290 -0.2132  0.5462  0.2939
  627MOL0     C84567   7.444  10.741  11.423 -0.1666 -0.2807 -0.1715
  627MOL0     O84568   7.351  10.730  11.525 -0.1047  0.0144  0.6217
  627MOL0     C84569   7.211  10.759  11.496 -0.2717 -0.0194  0.2517
  627MOL0     C84570   7.142  10.722  11.625 -0.1205 -0.5549  0.0814
  627MOL0     C84571   7.131  10.570  11.655  0.3186 -0.2000 -0.4670
  627MOL0     C84572   6.987  10.534  11.680 -0.2162 -0.4075 -0.9295
  627MOL0     C84573   6.918  10.530  11.554 -0.3865 -0.1465 -0.6007
  627MOL0     C84574   6.848  10.525  11.456  0.0584 -0.0048  0.5713
  627MOL0     C84575   7.574  10.700  11.458  0.1198 -0.5527 -0.8775
  627MOL0     C84576   7.682  10.694  11.368  0.0983  0.3771  0.0684
  627MOL0     C84577   7.811  10.617  11.407  0.2992 -0.5311  0.4155
  627MOL0     H84578   7.880  10.478  11.054 -0.4093 -1.4313 -0.6876
  627MOL0     H84579   8.042  10.388  10.875 -1.9772 -0.7538 -1.3199
  627MOL0     H84580   8.286  10.558  10.771  3.3233 -2.3790  1.1569
  627MOL0     H84581   8.232  10.398  10.761  0.1942  1.4548  0.9647
  627MOL0     H84582   8.320  10.552  10.513 -1.7278 -1.1149  0.9018
  627MOL0     H84583   8.298  10.382  10.524 -1.4078  1.7812 -2.2091
  627MOL0     H84584   8.538  10.467  10.502 -0.1672  1.6515  1.4052
  627MOL0     H84585   8.524  10.356  10.629 -2.8765 -0.8482 -1.3491
  627MOL0     H84586   8.511  10.653  10.683 -0.8745  0.7988  2.2169
  627MOL0     H84587   8.532  10.525  10.799 -1.0726  0.5585  0.6272
  627MOL0     H84588   8.732  10.601  10.567 -1.2016  0.4772 -0.6590
  627MOL0     H84589   8.771  10.646  10.731 -0.1250  1.9143 -2.2829
  627MOL0     H84590   8.748  10.361  10.639 -0.4500 -1.4651  2.3032
  627MOL0     H84591   8.899  10.456  10.670 -0.4116 -1.1156 -2.6083
  627MOL0     H84592   8.685  10.383  10.889 -0.3048  1.2830 -1.0609
  627MOL0     H84593   8.839  10.472  10.908  0.9176 -1.7204  2.1448
  627MOL0     H84594   8.838  10.232  10.970  2.4947  0.5409  0.1153
  627MOL0     H84595   8.805  10.186  10.796  0.4093 -0.3151 -0.5501
  627MOL0     H84596   9.090  10.295  11.018  1.1222  0.1790 -0.4351
  627MOL0     H84597   9.331  10.186  11.018  1.6562  0.9664  0.4382
  627MOL0     H84598   9.387  10.077  10.892  2.5358  1.3200 -1.3966
  627MOL0     H84599   9.473  10.298  10.765  1.8764 -1.2735  1.2319
  627MOL0     H84600   9.449  10.367  10.927 -3.2164 -0.1759  0.7205
  627MOL0     H84601   9.607  10.112  10.880  1.2195 -0.4732  1.5102
  627MOL0     H84602   9.593  10.198  11.031 -1.0710 -1.3089 -0.0044
  627MOL0     H84603   9.776  10.317  10.985  0.3945  0.7984 -0.8152
  627MOL0     H84604   9.700  10.389  10.848  0.0814 -1.0575 -0.1631
  627MOL0     H84605   9.938  10.431  10.949  0.4881 -1.6848  2.5309
  627MOL0     H84606  10.178  10.488  10.925  1.8936 -0.7757 -1.4661
  627MOL0     H84607  10.487  10.366  10.434 -2.4811  0.1918  3.2691
  627MOL0     H84608  10.723  10.388  10.336  0.8940 -1.1379  0.0173
  627MOL0     H84609  10.937  10.468  10.279  1.4463 -0.2496  0.2053
  627MOL0     H84610  10.919  10.601  10.383  3.2913  2.6786  0.2722
  627MOL0     H84611  11.168  10.423  10.379 -2.0517 -1.4472 -1.6293
  627MOL0     H84612  11.143  10.586  10.296 -3.2118  0.4590 -0.4925
  627MOL0     H84613  11.116  10.546  10.601  0.9107  1.4191  1.5199
  627MOL0     H84614  11.275  10.579  10.510  0.1298  2.4766 -0.3270
  627MOL0     H84615  11.023  10.739  10.560 -1.0198  0.8698 -0.5253
  627MOL0     H84616  11.111  10.768  10.413 -2.6077  1.0197  0.4647
  627MOL0     H84617  11.315  10.826  10.582  1.4383  0.0700  1.9333
  627MOL0     H84618  11.194  10.802  10.712  1.3724  0.8842  0.8291
  627MOL0     H84619  11.124  10.984  10.482  1.5943  2.0157  0.4383
  627MOL0     H84620  11.048  10.976  10.629 -1.3961 -0.3474 -4.5708
  627MOL0     H84621  11.167  11.177  10.599 -0.8454  0.3313  0.8346
  627MOL0     H84622  11.309  11.086  10.552  0.1217 -0.9828  1.9144
  627MOL0     H84623  11.359  11.017  10.791 -1.2732 -0.3141  0.3766
  627MOL0     H84624  11.345  11.195  10.774  2.3911 -1.8037  4.5695
  627MOL0     H84625  10.874  10.404  10.733 -0.8566  0.8851  0.8066
  627MOL0     H84626  10.646  10.374  10.820  0.4616  0.9004 -0.2738
  627MOL0     H84627  10.228  10.151  10.672  1.4438  1.7857  0.8096
  627MOL0     H84628   9.995  10.092  10.702  1.0394 -1.0806  2.0369
  627MOL0     H84629   7.949  10.702  10.607  0.0321  0.2102  0.3666
  627MOL0     H84630   7.771  10.779  10.758  0.0788  0.7736 -0.6587
  627MOL0     H84631   7.504  10.775  11.090 -2.1107  0.8342 -0.1574
  627MOL0     H84632   7.331  10.786  11.256 -0.4286  1.7907  1.2003
  627MOL0     H84633   7.165  10.700  11.416  1.1065  0.4250 -0.9076
  627MOL0     H84634   7.189  10.863  11.470  0.5794  0.0299 -0.3025
  627MOL0     H84635   7.045  10.773  11.621 -0.9660 -2.0906  0.1509
  627MOL0     H84636   7.194  10.769  11.709  1.3488 -0.0075 -1.0847
  627MOL0     H84637   7.180  10.563  11.752  2.7419  1.6442 -1.4489
  627MOL0     H84638   7.184  10.510  11.580 -0.6227 -0.7892 -0.6760
  627MOL0     H84639   6.985  10.432  11.720 -0.5972 -0.2961 -0.6569
  627MOL0     H84640   6.944  10.601  11.754  0.3004 -2.0041  0.9233
  627MOL0     H84641   6.794  10.535  11.364  0.8124  0.2335  0.1419
  627MOL0     H84642   7.578  10.656  11.557 -2.2686  2.3280  0.6574
  627MOL0     H84643   7.793  10.566  11.501  2.5528 -0.2447  1.0626
  627MOL0     H84644   7.844  10.549  11.328  2.8418  1.4377 -0.3570
  627MOL0     H84645   7.888  10.691  11.432  0.2515 -0.5967  0.7494
  628MOL0     O84646   8.519   1.217   3.750  0.0983 -0.1789 -0.0198
  628MOL0     C84647   8.446   1.136   3.809 -0.1633  0.8239 -0.4358
  628MOL0     O84648   8.497   1.035   3.887  0.4330 -0.0605  0.0204
  628MOL0     C84649   8.637   1.022   3.900  0.3035  0.6850 -0.6671
  628MOL0     C84650   8.705   1.034   4.021  0.2326 -0.2151  0.1406
  628MOL0     C84651   8.837   1.019   4.035  0.1630  0.5363 -0.0206
  628MOL0     C84652   8.914   0.968   3.925  0.0734  0.4972  0.2818
  628MOL0     O84653   9.045   0.933   3.941 -0.5917 -0.4191  0.3730
  628MOL0     C84654   9.132   1.021   4.012 -1.1040 -0.2891  0.2386
  628MOL0     C84655   9.286   1.007   3.987  1.0300  0.5842 -0.5015
  628MOL0     C84656   9.314   0.988   3.839  1.4380  0.3542 -0.0198
  628MOL0     C84657   9.452   1.031   3.786  0.6135 -0.0729  0.3691
  628MOL0     C84658   9.461   0.994   3.641 -0.8309  0.1494  0.0392
  628MOL0     C84659   9.596   1.025   3.580  1.1606  1.1895 -0.3601
  628MOL0     C84660   9.604   0.988   3.426  0.2596 -0.6611 -0.1652
  628MOL0     C84661   9.719   1.073   3.364 -0.4439  0.7089 -1.1321
  628MOL0     N84662   9.801   1.003   3.258  0.5101 -0.4722  1.8588
  628MOL0     C84663   9.752   0.921   3.153  0.2220 -0.4714  0.4335
  628MOL0     C84664   9.860   0.878   3.084 -0.0040 -0.5784 -0.1026
  628MOL0     C84665   9.860   0.773   2.980 -0.2883  0.0959 -0.2557
  628MOL0     C84666   9.973   0.674   3.009  0.2112  0.4053  1.1681
  628MOL0     C84667   9.938   0.551   2.931  0.0331 -0.1375 -0.5088
  628MOL0     C84668  10.050   0.460   2.919 -0.7693 -0.0301  0.9043
  628MOL0     O84669  10.131   0.509   2.805 -0.6188  0.0545 -0.6623
  628MOL0     C84670  10.262   0.463   2.819 -0.7759 -0.1054 -0.0832
  628MOL0     C84671  10.349   0.501   2.926 -0.1592  0.0775 -0.0676
  628MOL0     C84672  10.482   0.450   2.926 -0.2667  0.9032 -0.0892
  628MOL0     C84673  10.535   0.385   2.814  0.3130 -0.3459 -0.2369
  628MOL0     C84674  10.677   0.346   2.812 -0.3282  0.7470 -0.1872
  628MOL0     O84675  10.700   0.287   2.691  0.0686 -0.1575  0.8127
  628MOL0     C84676  10.829   0.236   2.679 -0.2032 -1.1526  0.4303
  628MOL0     C84677  10.929   0.317   2.614  0.9730 -0.3078 -0.1834
  628MOL0     C84678  11.053   0.261   2.586 -0.1615 -0.6046 -0.4348
  628MOL0     C84679  11.084   0.129   2.621 -1.1934 -1.1635 -0.7084
  628MOL0     O84680  11.211   0.078   2.607  0.1421  0.1834 -0.2203
  628MOL0     C84681  11.320   0.176   2.637  0.1876 -0.2590  0.0032
  628MOL0     C84682  11.391   0.121   2.765 -0.2338  0.5865  0.0328
  628MOL0     C84683  11.455  -0.009   2.731  0.6020 -0.3166 -0.6214
  628MOL0     C84684  11.603   0.006   2.693 -0.7532  0.0649  0.5457
  628MOL0     C84685  11.648  -0.144   2.681 -0.6680  0.1659  0.1206
  628MOL0     C84686  11.778  -0.168   2.610 -0.5043 -0.0352  0.4777
  628MOL0     C84687  11.818  -0.309   2.619 -0.6726  1.3041  0.1728
  628MOL0     C84688  11.960  -0.334   2.580  0.9256 -0.5947 -0.0750
  628MOL0    Cl84689  12.066  -0.273   2.711 -0.0111  0.0180  0.2221
  628MOL0     C84690  10.994   0.057   2.700 -0.7608  0.2318  0.8791
  628MOL0     C84691  10.865   0.109   2.721 -0.3792 -0.3654 -1.1486
  628MOL0     O84692  10.759   0.369   2.899  0.1573  0.8774 -0.1352
  628MOL0     C84693  10.446   0.346   2.713 -0.2384 -0.0970 -0.1598
  628MOL0     C84694  10.310   0.374   2.722 -0.5142  0.9397  0.3177
  628MOL0     N84695   9.970   0.942   3.137  0.4579 -0.4461 -0.7100
  628MOL0     N84696   9.935   1.020   3.235  1.2792  0.7395  0.5290
  628MOL0     C84697   8.855   0.941   3.804  0.8604 -1.0206 -0.1177
  628MOL0     C84698   8.715   0.966   3.800  0.4173 -0.5957 -0.4081
  628MOL0     C84699   8.300   1.136   3.796 -0.0414 -0.7351  0.1823
  628MOL0     C84700   8.237   1.011   3.802 -0.0326  0.1278 -0.0605
  628MOL0     C84701   8.104   0.990   3.802 -0.2906  0.2463 -0.0930
  628MOL0     C84702   8.019   1.102   3.790  0.8710 -0.0856 -1.0991
  628MOL0     O84703   7.883   1.098   3.777  0.0096 -0.5104 -0.1873
  628MOL0     C84704   7.825   0.998   3.860  0.4921 -0.4058 -0.8321
  628MOL0     C84705   7.671   1.021   3.881  0.6731 -0.4923  0.3168
  628MOL0     C84706   7.567   0.981   3.772 -0.6298  0.1870 -0.5872
  628MOL0     C84707   7.418   0.993   3.824  0.0090  0.6521 -0.0049
  628MOL0     C84708   7.334   0.924   3.726  0.7334 -0.5301  0.9951
  628MOL0     C84709   7.258   0.864   3.647  0.2494 -0.0146  0.1562
  628MOL0     C84710   8.070   1.234   3.778  0.6107  0.7982  0.1242
  628MOL0     C84711   8.213   1.246   3.771 -0.2959  0.1504 -0.1362
  628MOL0     C84712   8.266   1.378   3.744 -0.9159  0.0941 -0.2781
  628MOL0     H84713   8.641   1.078   4.098 -1.9603 -0.4192 -1.4666
  628MOL0     H84714   8.877   1.048   4.132 -2.2997  0.9360  0.9405
  628MOL0     H84715   9.110   1.124   3.984 -0.9457 -0.6602 -1.3617
  628MOL0     H84716   9.118   1.002   4.119 -0.6757  0.5458  0.4513
  628MOL0     H84717   9.319   0.926   4.052  1.6028  1.5082  0.3938
  628MOL0     H84718   9.327   1.105   4.015  0.4188  0.3216  1.4628
  628MOL0     H84719   9.246   1.050   3.780  2.1503  0.2707 -0.9552
  628MOL0     H84720   9.304   0.883   3.810  2.9673 -0.3729  1.8644
  628MOL0     H84721   9.459   1.140   3.791 -1.3192  0.0856  0.1794
  628MOL0     H84722   9.536   1.000   3.848  0.5335  0.3940  0.7199
  628MOL0     H84723   9.438   0.888   3.625  0.1941  0.1715 -1.8955
  628MOL0     H84724   9.381   1.032   3.577 -0.9529 -2.5324 -1.5734
  628MOL0     H84725   9.622   1.129   3.603 -0.4670  2.0262 -2.0569
  628MOL0     H84726   9.665   0.962   3.637 -3.4362 -1.4800  2.9454
  628MOL0     H84727   9.509   1.000   3.373 -0.3330 -2.4821  0.4248
  628MOL0     H84728   9.625   0.881   3.414  0.4322 -0.8156  1.2874
  628MOL0     H84729   9.679   1.173   3.346 -1.6819  0.1611 -1.6047
  628MOL0     H84730   9.790   1.077   3.446 -0.6364 -1.3531 -0.8046
  628MOL0     H84731   9.655   0.872   3.142 -0.4067 -0.0666  3.3363
  628MOL0     H84732   9.760   0.729   2.974 -0.1022 -0.4077  0.3283
  628MOL0     H84733   9.873   0.821   2.882  1.4453  0.5646  0.1647
  628MOL0     H84734  10.065   0.719   2.972 -0.6812  1.6164  0.3288
  628MOL0     H84735   9.962   0.657   3.117 -1.7738 -2.7909  0.5906
  628MOL0     H84736   9.896   0.574   2.832 -5.1069 -1.8487  0.9523
  628MOL0     H84737   9.856   0.501   2.983  1.6226 -0.9551  1.3369
  628MOL0     H84738  10.020   0.359   2.889 -2.6080  1.3774 -2.6261
  628MOL0     H84739  10.112   0.449   3.009  1.8968 -0.8824 -0.9014
  628MOL0     H84740  10.315   0.555   3.013  0.5794  1.8437 -0.8261
  628MOL0     H84741  10.546   0.483   3.007  1.0383  0.1777 -0.7907
  628MOL0     H84742  10.902   0.420   2.593  1.7937  0.5303  2.4115
  628MOL0     H84743  11.124   0.328   2.538 -0.7313 -0.0469 -0.5063
  628MOL0     H84744  11.386   0.193   2.552  0.2719 -1.5393 -0.1989
  628MOL0     H84745  11.284   0.275   2.669  2.3943 -0.1678  2.5692
  628MOL0     H84746  11.462   0.195   2.802  0.2242  0.8766 -1.3412
  628MOL0     H84747  11.320   0.111   2.847  0.9778 -0.8921  0.9621
  628MOL0     H84748  11.446  -0.077   2.816  0.7658  1.2966  0.7399
  628MOL0     H84749  11.403  -0.053   2.645  0.2001  1.0593 -1.1071
  628MOL0     H84750  11.655   0.073   2.762  0.5269  1.3487 -1.5427
  628MOL0     H84751  11.606   0.051   2.593 -5.7374 -2.6985 -1.1794
  628MOL0     H84752  11.564  -0.192   2.629 -0.3614  0.4495 -0.6558
  628MOL0     H84753  11.652  -0.187   2.781  3.1838  2.2169  1.0243
  628MOL0     H84754  11.760  -0.157   2.503 -3.0689  1.8084  1.0110
  628MOL0     H84755  11.862  -0.111   2.651  0.4367 -0.8884 -0.2085
  628MOL0     H84756  11.752  -0.368   2.554  1.1950  0.5025 -1.0771
  628MOL0     H84757  11.797  -0.334   2.723 -0.4807 -1.4907 -0.3622
  628MOL0     H84758  11.987  -0.439   2.571  0.0152 -0.7768 -0.8605
  628MOL0     H84759  11.968  -0.290   2.480 -1.6811  1.3401  0.4523
  628MOL0     H84760  11.031  -0.040   2.731  3.2402  1.3172  0.1763
  628MOL0     H84761  10.796   0.052   2.781 -0.0087 -0.4379 -0.7861
  628MOL0     H84762  10.481   0.281   2.634  0.9691 -1.2132  1.2448
  628MOL0     H84763  10.234   0.336   2.653 -0.7563  0.6048  0.7677
  628MOL0     H84764   8.908   0.896   3.721  0.6337 -0.2569 -0.6861
  628MOL0     H84765   8.663   0.947   3.706  0.8634  1.2774 -1.0653
  628MOL0     H84766   8.287   0.914   3.801 -1.0867 -0.5150  2.3995
  628MOL0     H84767   8.069   0.889   3.820  0.3335  0.1420  0.6215
  628MOL0     H84768   7.861   1.010   3.963  0.0712  0.0086 -0.7292
  628MOL0     H84769   7.852   0.898   3.824 -1.8780 -0.2645 -3.3127
  628MOL0     H84770   7.653   1.127   3.901  0.2971 -0.1699 -1.6065
  628MOL0     H84771   7.626   0.969   3.966 -1.9828  2.2174  0.7209
  628MOL0     H84772   7.589   0.878   3.742 -3.8268  0.2536 -3.9410
  628MOL0     H84773   7.586   1.039   3.681  1.3024 -0.7230 -0.8083
  628MOL0     H84774   7.410   0.946   3.923 -0.1913  0.3862 -0.1481
  628MOL0     H84775   7.390   1.098   3.833 -0.7107  0.3832  1.1713
  628MOL0     H84776   7.197   0.818   3.572  0.4655  0.7820 -0.5213
  628MOL0     H84777   8.004   1.320   3.772 -2.2982 -1.0449  2.8899
  628MOL0     H84778   8.337   1.383   3.660  2.0712  0.7907  2.1149
  628MOL0     H84779   8.186   1.451   3.733 -0.9555 -0.0892 -1.3469
  628MOL0     H84780   8.326   1.410   3.830  1.3083  0.3060 -1.8075
  629MOL0     O84781   1.770   7.861   7.607 -0.0474  0.5740 -0.3365
  629MOL0     C84782   1.701   7.956   7.635 -0.3312 -0.3782 -1.0628
  629MOL0     O84783   1.745   8.082   7.649  0.4494  0.4969 -0.3125
  629MOL0     C84784   1.872   8.121   7.622 -0.6123  0.2235 -0.5013
  629MOL0     C84785   1.931   8.093   7.496  0.2070  0.5555  0.3510
  629MOL0     C84786   2.060   8.143   7.482 -0.1716  0.2358  0.1748
  629MOL0     C84787   2.132   8.220   7.579  0.6663 -0.1588 -0.5386
  629MOL0     O84788   2.259   8.279   7.558 -0.2542  0.5498  0.5865
  629MOL0     C84789   2.365   8.200   7.605 -0.1179 -0.1400 -0.0306
  629MOL0     C84790   2.489   8.287   7.641  0.2253  1.0782  0.5282
  629MOL0     C84791   2.458   8.367   7.765  0.6440  0.6045 -0.1935
  629MOL0     C84792   2.503   8.288   7.896  0.1635 -1.3956 -0.7687
  629MOL0     C84793   2.476   8.368   8.028  0.6525 -0.0505 -0.9190
  629MOL0     C84794   2.323   8.371   8.059 -0.1631 -0.0751 -0.7583
  629MOL0     C84795   2.296   8.483   8.162  0.3062  0.7150 -0.5728
  629MOL0     C84796   2.147   8.489   8.210  0.0854  0.6289  0.1878
  629MOL0     N84797   2.088   8.376   8.276  0.1859  0.0342 -0.4315
  629MOL0     C84798   2.027   8.271   8.216  0.3453  0.2580 -0.9967
  629MOL0     C84799   1.971   8.203   8.313  0.6457  0.3401  0.2626
  629MOL0     C84800   1.921   8.059   8.303 -0.4384 -0.3282  0.2950
  629MOL0     C84801   2.045   7.968   8.297  0.2303 -0.1153 -0.0855
  629MOL0     C84802   2.142   7.963   8.430  0.1660  0.2750  0.3071
  629MOL0     C84803   2.230   7.836   8.420 -0.8502 -0.3804  0.8168
  629MOL0     O84804   2.293   7.842   8.288 -0.2432 -0.7502  0.5978
  629MOL0     C84805   2.394   7.935   8.258 -0.4033  0.2665 -1.5862
  629MOL0     C84806   2.463   8.011   8.348 -0.0308  0.9491 -0.2318
  629MOL0     C84807   2.582   8.072   8.301  0.0090 -0.0187 -0.7586
  629MOL0     C84808   2.626   8.062   8.169  0.7320  0.4669 -0.3840
  629MOL0     C84809   2.761   8.115   8.138 -0.6501 -0.1627  0.4271
  629MOL0     O84810   2.828   8.067   8.032  1.3735  0.4999 -0.2489
  629MOL0     C84811   2.951   8.113   7.994  0.6339 -0.9276  0.0826
  629MOL0     C84812   3.057   8.025   8.006  0.3471 -0.4111 -0.5601
  629MOL0     C84813   3.181   8.075   7.964  0.0128 -0.0198  0.2053
  629MOL0     C84814   3.206   8.209   7.928  0.3925  0.0324  0.7826
  629MOL0     O84815   3.341   8.252   7.911  0.6470  0.5793 -0.4853
  629MOL0     C84816   3.374   8.379   7.848 -0.2985  0.4505 -0.2713
  629MOL0     C84817   3.514   8.371   7.779 -0.5698  0.0470  0.0190
  629MOL0     C84818   3.634   8.312   7.862 -0.9617 -0.5768 -0.5155
  629MOL0     C84819   3.757   8.349   7.780 -0.3076  0.3414  0.1878
  629MOL0     C84820   3.893   8.322   7.844  0.3351  0.5564  0.5983
  629MOL0     C84821   3.990   8.430   7.780  0.1683  0.2523 -0.3397
  629MOL0     C84822   4.133   8.391   7.804 -0.0157 -0.5228  0.0525
  629MOL0     C84823   4.225   8.507   7.778  0.1214 -1.3345  0.3973
  629MOL0    Cl84824   4.224   8.634   7.905  0.2992 -0.8292 -0.3568
  629MOL0     C84825   3.091   8.300   7.933 -0.3232  0.4437 -0.2000
  629MOL0     C84826   2.961   8.241   7.947  0.3805 -0.4019 -0.2168
  629MOL0     O84827   2.809   8.204   8.211  0.7122 -1.0263 -0.2268
  629MOL0     C84828   2.544   8.007   8.078  0.1885  1.1339  0.5909
  629MOL0     C84829   2.426   7.936   8.124 -0.4563  0.1460 -0.2368
  629MOL0     N84830   1.998   8.266   8.435  0.9573 -0.3774 -0.1762
  629MOL0     N84831   2.059   8.373   8.412 -0.1298  0.5226  0.8995
  629MOL0     C84832   2.074   8.245   7.705 -0.3933 -0.3304 -0.3808
  629MOL0     C84833   1.943   8.196   7.723  0.8953 -0.7017 -0.4679
  629MOL0     C84834   1.557   7.950   7.644  0.0849  0.6274  0.9392
  629MOL0     C84835   1.483   8.048   7.701  0.3953 -0.2038  0.0333
  629MOL0     C84836   1.343   8.039   7.723 -0.5348 -0.1562 -0.7461
  629MOL0     C84837   1.280   7.928   7.672 -0.7575  0.7127 -0.8863
  629MOL0     O84838   1.145   7.912   7.692 -0.6659 -0.3889  0.2043
  629MOL0     C84839   1.100   7.821   7.787  0.2498  0.2181  0.0520
  629MOL0     C84840   0.948   7.815   7.787  1.2359  0.3860  0.1400
  629MOL0     C84841   0.870   7.939   7.834 -0.0071  0.3794 -0.3038
  629MOL0     C84842   0.837   8.018   7.712 -0.0652  0.1108  0.6096
  629MOL0     C84843   0.767   8.137   7.754 -0.1567 -0.0279  0.4846
  629MOL0     C84844   0.687   8.224   7.792  0.2515 -0.2658  0.1761
  629MOL0     C84845   1.349   7.833   7.604  0.5597  0.7634 -0.2031
  629MOL0     C84846   1.490   7.841   7.585 -0.0065  0.1786 -0.2200
  629MOL0     C84847   1.544   7.725   7.509 -0.1110 -0.5465 -1.2529
  629MOL0     H84848   1.887   8.035   7.414  3.6067 -2.0455  0.1438
  629MOL0     H84849   2.103   8.133   7.383 -1.5802 -0.7707 -0.3638
  629MOL0     H84850   2.327   8.145   7.692  1.1211 -2.0464 -0.6189
  629MOL0     H84851   2.384   8.124   7.528 -3.0725 -1.3710  0.2870
  629MOL0     H84852   2.512   8.345   7.551  2.5788 -2.4327 -1.3849
  629MOL0     H84853   2.579   8.229   7.664 -0.9493 -2.0380 -1.8515
  629MOL0     H84854   2.350   8.387   7.766 -0.3631 -3.8441  0.8334
  629MOL0     H84855   2.507   8.465   7.768 -1.5812  1.7580  1.4583
  629MOL0     H84856   2.447   8.194   7.897 -0.6474 -0.9356 -1.3868
  629MOL0     H84857   2.608   8.258   7.887  0.6140 -0.0680 -0.2732
  629MOL0     H84858   2.535   8.326   8.109 -0.8290 -2.0526 -0.7950
  629MOL0     H84859   2.510   8.471   8.012  0.4784  0.2157  0.3532
  629MOL0     H84860   2.259   8.370   7.971 -0.3893 -0.6057 -0.5921
  629MOL0     H84861   2.306   8.280   8.118 -0.3855  0.3353 -0.1734
  629MOL0     H84862   2.323   8.584   8.128  0.6876  1.0281  0.6355
  629MOL0     H84863   2.365   8.462   8.244  0.1196 -2.6225 -1.1174
  629MOL0     H84864   2.141   8.564   8.289  1.4234 -0.2374  1.1684
  629MOL0     H84865   2.083   8.514   8.126 -1.0806  0.5249  1.0179
  629MOL0     H84866   2.023   8.249   8.109  0.2936  2.0760 -1.4022
  629MOL0     H84867   1.845   8.039   8.380 -1.9014  2.0432 -0.4066
  629MOL0     H84868   1.860   8.056   8.212 -0.0177  2.2618 -0.1473
  629MOL0     H84869   2.023   7.867   8.261  0.8241  0.0585 -0.9814
  629MOL0     H84870   2.101   7.998   8.207  3.1098 -4.8230 -0.1917
  629MOL0     H84871   2.076   7.968   8.516 -1.9689  1.2416 -1.2923
  629MOL0     H84872   2.204   8.052   8.419  1.5616 -0.8814 -2.1953
  629MOL0     H84873   2.184   7.737   8.426  0.7376 -1.3969 -1.9017
  629MOL0     H84874   2.311   7.849   8.493  0.5949  0.2468 -0.8247
  629MOL0     H84875   2.439   8.010   8.454 -0.6608 -2.6414 -0.2856
  629MOL0     H84876   2.647   8.132   8.364  1.0142 -1.5575 -0.2833
  629MOL0     H84877   3.023   7.930   8.046  0.1993 -0.0706  0.1395
  629MOL0     H84878   3.269   8.011   7.964  0.4693  0.5322 -1.5982
  629MOL0     H84879   3.304   8.390   7.765 -0.4163  0.0710 -0.2203
  629MOL0     H84880   3.355   8.444   7.935 -2.4262 -1.5762  0.8731
  629MOL0     H84881   3.515   8.306   7.691 -2.0084 -0.8399  0.6353
  629MOL0     H84882   3.536   8.473   7.745 -2.3003  0.4718  0.0665
  629MOL0     H84883   3.635   8.363   7.959 -1.6245 -0.5499 -0.5155
  629MOL0     H84884   3.634   8.204   7.878 -0.1314 -0.5480 -0.3116
  629MOL0     H84885   3.751   8.456   7.758  1.3618  0.0672 -1.8395
  629MOL0     H84886   3.733   8.300   7.685 -2.9642  1.0524  0.4097
  629MOL0     H84887   3.915   8.215   7.833  1.5395  0.4649  3.0992
  629MOL0     H84888   3.884   8.339   7.952 -0.0133  0.2399  0.6207
  629MOL0     H84889   3.982   8.438   7.671  3.1700 -0.9039 -0.7326
  629MOL0     H84890   3.979   8.527   7.830 -3.0907 -0.7983  1.2531
  629MOL0     H84891   4.155   8.311   7.734 -1.1599 -3.9243  3.2429
  629MOL0     H84892   4.147   8.361   7.908  1.0323 -0.2114  0.0128
  629MOL0     H84893   4.328   8.475   7.765  1.7579  3.8699 -2.0446
  629MOL0     H84894   4.195   8.555   7.685  1.4887  0.2590  0.7255
  629MOL0     H84895   3.094   8.407   7.914 -0.0889  0.0322 -2.8778
  629MOL0     H84896   2.867   8.295   7.951  0.0750 -0.9634  2.9433
  629MOL0     H84897   2.572   8.003   7.974 -1.4401  0.9674  0.1218
  629MOL0     H84898   2.365   7.876   8.058 -0.3640 -1.1262  0.8131
  629MOL0     H84899   2.123   8.282   7.794  1.1230  1.1596 -1.7573
  629MOL0     H84900   1.888   8.213   7.815  0.3856 -0.5986 -0.7884
  629MOL0     H84901   1.525   8.138   7.745 -1.1287  0.7467 -0.3876
  629MOL0     H84902   1.279   8.116   7.764 -1.0003 -0.4244 -0.9580
  629MOL0     H84903   1.126   7.837   7.892 -1.2106 -1.8218  0.7955
  629MOL0     H84904   1.138   7.725   7.751 -1.5156 -0.4252 -0.2051
  629MOL0     H84905   0.910   7.728   7.843  2.2169 -1.5164 -1.9723
  629MOL0     H84906   0.910   7.802   7.685  2.0929 -1.7840  0.0355
  629MOL0     H84907   0.946   7.991   7.893  1.7919 -2.8917  0.4938
  629MOL0     H84908   0.787   7.895   7.890  1.4190 -2.9208 -0.5236
  629MOL0     H84909   0.931   8.059   7.676  0.3888  1.6586  3.2868
  629MOL0     H84910   0.780   7.961   7.638  2.9439 -0.6458 -1.3056
  629MOL0     H84911   0.622   8.294   7.840  2.7878  1.4988  1.2880
  629MOL0     H84912   1.301   7.744   7.564  0.2582  1.1250 -0.6558
  629MOL0     H84913   1.616   7.663   7.564 -0.2162  0.3948 -0.0212
  629MOL0     H84914   1.467   7.664   7.461 -0.4527  1.6722 -3.7725
  629MOL0     H84915   1.601   7.772   7.427  1.9320 -0.0830  0.3460
  630MOL0     O84916   9.592   3.816   8.635  0.1867  0.0080 -0.6427
  630MOL0     C84917   9.587   3.809   8.510  0.0194  0.2097 -0.2526
  630MOL0     O84918   9.691   3.784   8.427  0.2395  0.0370 -0.1423
  630MOL0     C84919   9.811   3.729   8.470  0.4086 -0.9803 -0.5499
  630MOL0     C84920   9.850   3.603   8.423 -0.1639  0.3197  0.2876
  630MOL0     C84921   9.953   3.549   8.490  0.1031  0.4082  0.3608
  630MOL0     C84922  10.030   3.619   8.587  0.0438  0.4113  0.2686
  630MOL0     O84923  10.136   3.564   8.660  0.2813 -0.6012 -0.2668
  630MOL0     C84924  10.254   3.532   8.597  0.0025 -0.1536 -0.2420
  630MOL0     C84925  10.265   3.385   8.559  0.0858 -0.0930  0.1820
  630MOL0     C84926  10.331   3.368   8.417 -0.1456 -1.1885  0.0014
  630MOL0     C84927  10.224   3.370   8.307  0.0713  0.3335 -0.9004
  630MOL0     C84928  10.312   3.355   8.182 -0.0872  0.2448 -0.3944
  630MOL0     C84929  10.304   3.215   8.116 -1.0117  1.0209  0.2223
  630MOL0     C84930  10.364   3.211   7.975  1.2520  0.3029  0.7277
  630MOL0     C84931  10.519   3.245   7.969  0.1157 -0.3227  0.4327
  630MOL0     N84932  10.567   3.233   7.835  0.4688  1.4583 -0.2515
  630MOL0     C84933  10.586   3.115   7.775  1.0844  0.0204  0.0662
  630MOL0     C84934  10.623   3.145   7.651 -0.8162 -1.1364  0.9198
  630MOL0     C84935  10.665   3.042   7.558 -0.1828  0.1301  0.2321
  630MOL0     C84936  10.555   3.002   7.461 -0.1261 -0.0396  0.3896
  630MOL0     C84937  10.530   3.105   7.348 -0.2386  0.0148  0.3229
  630MOL0     C84938  10.572   3.063   7.203 -0.2559  0.3442  0.1088
  630MOL0     O84939  10.496   2.940   7.166  0.1581 -0.1453  0.3314
  630MOL0     C84940  10.539   2.860   7.057 -0.0821  0.2116 -0.7741
  630MOL0     C84941  10.469   2.738   7.031 -0.1446 -0.3814 -0.3305
  630MOL0     C84942  10.510   2.644   6.942  0.1179  0.2677 -0.7360
  630MOL0     C84943  10.628   2.665   6.860  0.0255 -0.7867 -0.1205
  630MOL0     C84944  10.681   2.568   6.768 -0.0341 -0.0838  0.2415
  630MOL0     O84945  10.740   2.615   6.652 -0.1871  0.3636 -0.3209
  630MOL0     C84946  10.817   2.536   6.578 -0.7336  0.1114 -0.0979
  630MOL0     C84947  10.784   2.523   6.441 -1.0300  1.0301  0.6232
  630MOL0     C84948  10.867   2.446   6.360 -0.6927 -0.1945 -0.4983
  630MOL0     C84949  10.993   2.388   6.404  0.3545 -0.1327 -0.2939
  630MOL0     O84950  11.072   2.328   6.306 -0.4415 -0.2783  0.2628
  630MOL0     C84951  11.213   2.293   6.339 -0.0714  0.2495  0.2272
  630MOL0     C84952  11.276   2.274   6.205 -0.9224 -0.4311 -0.1078
  630MOL0     C84953  11.427   2.264   6.215 -0.1161  0.1759  0.2694
  630MOL0     C84954  11.493   2.219   6.079  0.1480 -0.4674  0.4084
  630MOL0     C84955  11.633   2.166   6.089 -0.5993  0.3982 -0.3623
  630MOL0     C84956  11.731   2.275   6.148  1.5610 -0.2105 -0.6147
  630MOL0     C84957  11.869   2.215   6.153 -0.4251  0.3276 -0.1231
  630MOL0     C84958  11.977   2.297   6.222  0.1375  0.0334 -0.8860
  630MOL0    Cl84959  12.133   2.217   6.191 -0.0895 -0.1915  0.2073
  630MOL0     C84960  11.022   2.391   6.544 -0.0112 -0.6048  0.2173
  630MOL0     C84961  10.928   2.465   6.631 -0.6034  0.4316  0.0816
  630MOL0     O84962  10.657   2.453   6.797 -0.8465 -0.5084 -0.0835
  630MOL0     C84963  10.685   2.794   6.878  0.2068  0.7036 -0.3628
  630MOL0     C84964  10.644   2.889   6.968 -0.0667  0.7319  0.7569
  630MOL0     N84965  10.634   3.283   7.633 -1.2773 -0.9303 -0.3711
  630MOL0     N84966  10.591   3.333   7.749  0.0903  0.1442  0.1232
  630MOL0     C84967   9.994   3.748   8.621  0.6800  0.3764  0.2099
  630MOL0     C84968   9.882   3.806   8.558 -0.8704  0.1313  0.6870
  630MOL0     C84969   9.453   3.818   8.449  0.6951  0.6116  0.4572
  630MOL0     C84970   9.446   3.848   8.314 -1.1068 -0.5475  0.4588
  630MOL0     C84971   9.329   3.871   8.244 -0.4935  0.1807 -0.1117
  630MOL0     C84972   9.209   3.846   8.317  0.2582  0.1782  1.3570
  630MOL0     O84973   9.091   3.882   8.254 -0.1592 -0.0268  0.1694
  630MOL0     C84974   9.035   4.005   8.314 -0.1759 -0.7984  0.8132
  630MOL0     C84975   8.921   4.054   8.220 -0.1804 -0.6546 -0.8157
  630MOL0     C84976   8.809   3.953   8.244  0.2645  0.5879 -0.2983
  630MOL0     C84977   8.671   4.011   8.214 -0.3521 -0.2424 -0.1309
  630MOL0     C84978   8.627   4.091   8.323 -0.1087  0.0789  0.2732
  630MOL0     C84979   8.592   4.142   8.420  0.7798 -0.7548 -0.4019
  630MOL0     C84980   9.219   3.802   8.448  0.4425  0.6609 -0.4760
  630MOL0     C84981   9.340   3.786   8.515 -0.3400  2.0174  0.3074
  630MOL0     C84982   9.325   3.724   8.660  0.3152 -0.0933  0.3693
  630MOL0     H84983   9.789   3.538   8.361 -0.5207  0.2050  0.7517
  630MOL0     H84984   9.976   3.447   8.460 -0.5400  0.1700  0.6558
  630MOL0     H84985  10.274   3.599   8.513  3.3926 -1.2467 -0.4751
  630MOL0     H84986  10.340   3.560   8.658 -0.5657 -0.0249  0.5122
  630MOL0     H84987  10.167   3.337   8.556 -0.2631  0.6350 -0.7314
  630MOL0     H84988  10.325   3.331   8.633  0.7090  0.8882  0.4134
  630MOL0     H84989  10.394   3.280   8.426  1.3601  0.0864  3.1471
  630MOL0     H84990  10.406   3.447   8.407 -3.4090  2.2345 -0.1259
  630MOL0     H84991  10.151   3.290   8.321  1.1442 -0.4177  0.7465
  630MOL0     H84992  10.172   3.466   8.307 -0.2461  0.1856  0.4917
  630MOL0     H84993  10.270   3.440   8.129  1.2751  2.0614  1.3049
  630MOL0     H84994  10.415   3.386   8.200 -0.2192  0.9534 -0.8447
  630MOL0     H84995  10.358   3.141   8.176 -1.4301  0.5872  0.0655
  630MOL0     H84996  10.198   3.188   8.111 -1.5679  3.1307 -0.4305
  630MOL0     H84997  10.310   3.283   7.913 -1.4327 -3.1329 -1.2719
  630MOL0     H84998  10.345   3.117   7.923  0.0878  0.6757  0.4568
  630MOL0     H84999  10.522   3.350   7.999 -1.3220 -0.3630  0.8220
  630MOL0     H85000  10.576   3.186   8.041 -2.6570 -0.8403  2.3569
  630MOL0     H85001  10.566   3.016   7.816 -0.3609  0.1612 -0.2609
  630MOL0     H85002  10.750   3.075   7.498 -0.5358  1.9288  0.6511
  630MOL0     H85003  10.683   2.945   7.606 -0.8457 -1.7790 -3.0924
  630MOL0     H85004  10.578   2.902   7.424  5.0776  0.7921  0.6536
  630MOL0     H85005  10.467   2.983   7.523  0.9425  0.8441  2.2556
  630MOL0     H85006  10.590   3.193   7.372 -1.6590  0.9282  0.6619
  630MOL0     H85007  10.424   3.132   7.358  0.2468  1.4268  2.1035
  630MOL0     H85008  10.680   3.053   7.189 -0.0892  0.5261  1.2165
  630MOL0     H85009  10.538   3.150   7.145 -1.5066  0.5003  1.0438
  630MOL0     H85010  10.375   2.714   7.079 -3.1863  4.2448 -3.1737
  630MOL0     H85011  10.461   2.548   6.934  0.2373  0.3239 -2.6681
  630MOL0     H85012  10.693   2.573   6.410 -0.7843 -0.5270 -3.0675
  630MOL0     H85013  10.838   2.429   6.257  0.7808 -2.3900 -0.6192
  630MOL0     H85014  11.259   2.378   6.392  0.9097 -0.5110  0.6238
  630MOL0     H85015  11.217   2.202   6.400 -0.1243  0.0887 -0.0094
  630MOL0     H85016  11.226   2.190   6.156 -0.8258  0.0120 -0.9796
  630MOL0     H85017  11.257   2.362   6.142  0.5384 -0.1395 -0.1577
  630MOL0     H85018  11.464   2.365   6.233 -0.2332  0.4016 -0.6779
  630MOL0     H85019  11.448   2.190   6.292  0.6899  0.0937 -0.0138
  630MOL0     H85020  11.497   2.307   6.014 -0.2469 -0.9028 -0.2129
  630MOL0     H85021  11.434   2.142   6.029  1.6248  0.5631 -3.2497
  630MOL0     H85022  11.662   2.137   5.988  1.8344  0.7746  0.1605
  630MOL0     H85023  11.639   2.080   6.157  0.6772  0.2593 -0.6273
  630MOL0     H85024  11.719   2.360   6.081 -4.8086  0.5839  0.8240
  630MOL0     H85025  11.704   2.312   6.247 -2.8183  2.4660 -2.5107
  630MOL0     H85026  11.891   2.186   6.050 -2.9134  1.9031 -1.1664
  630MOL0     H85027  11.853   2.119   6.203 -3.8573 -0.9251 -3.2256
  630MOL0     H85028  11.980   2.403   6.195 -1.4813 -0.1429 -1.8931
  630MOL0     H85029  11.957   2.300   6.330 -0.6633 -0.3967 -1.0153
  630MOL0     H85030  11.113   2.341   6.578  0.7425  0.3916 -0.2933
  630MOL0     H85031  10.942   2.469   6.739  0.5430  0.4254 -0.0604
  630MOL0     H85032  10.778   2.814   6.825  0.5698 -1.9914 -0.8565
  630MOL0     H85033  10.701   2.981   6.978  2.3676 -0.4217 -1.4004
  630MOL0     H85034  10.054   3.790   8.701  1.2586  0.4439 -0.2509
  630MOL0     H85035   9.852   3.907   8.587  0.9534  0.9098 -0.0212
  630MOL0     H85036   9.535   3.870   8.256 -0.6016  0.4562  1.5738
  630MOL0     H85037   9.321   3.911   8.143 -1.3865 -2.0719 -0.9924
  630MOL0     H85038   9.112   4.082   8.301 -0.3332 -0.2313  2.9465
  630MOL0     H85039   9.003   4.001   8.418  0.1040 -1.0883  0.8870
  630MOL0     H85040   8.950   4.060   8.114 -0.5028  1.0158 -0.8297
  630MOL0     H85041   8.884   4.152   8.250  0.4736 -0.9066  0.9312
  630MOL0     H85042   8.801   3.931   8.351 -2.6825  2.2256 -0.0722
  630MOL0     H85043   8.822   3.868   8.177 -0.3964  0.8466 -0.7674
  630MOL0     H85044   8.680   4.067   8.120 -3.9731  2.8504  1.1188
  630MOL0     H85045   8.591   3.937   8.202 -3.0536  2.5050 -0.3440
  630MOL0     H85046   8.564   4.200   8.506  0.3259 -2.0786  0.3769
  630MOL0     H85047   9.121   3.788   8.493  0.1597  1.8403 -0.6811
  630MOL0     H85048   9.411   3.662   8.684  0.4158  1.1950  4.0536
  630MOL0     H85049   9.327   3.794   8.745 -2.0893  0.3263  0.1738
  630MOL0     H85050   9.232   3.667   8.672 -1.0715  0.7302 -4.4294
  631MOL0     O85051   0.963   8.714   3.566 -0.0893 -0.5966  0.4691
  631MOL0     C85052   0.903   8.773   3.662 -0.9781  1.1585 -0.0272
  631MOL0     O85053   0.850   8.900   3.669  0.2636  0.3307  0.2001
  631MOL0     C85054   0.884   8.991   3.574  0.1670 -0.8188 -0.1513
  631MOL0     C85055   0.812   9.117   3.586 -0.7223  0.0881  0.4830
  631MOL0     C85056   0.828   9.217   3.492 -0.5018  0.4141 -0.2985
  631MOL0     C85057   0.930   9.200   3.394 -0.5152 -0.7290  0.6256
  631MOL0     O85058   0.949   9.303   3.296 -0.1143 -0.5894 -0.5857
  631MOL0     C85059   1.029   9.413   3.337  0.5043 -1.0604  0.5360
  631MOL0     C85060   1.129   9.445   3.228  1.0758  0.1649 -0.8543
  631MOL0     C85061   1.219   9.322   3.193 -0.6141 -0.4723  0.3850
  631MOL0     C85062   1.303   9.270   3.311 -0.9407  0.0565 -0.4342
  631MOL0     C85063   1.401   9.155   3.279 -0.2331 -0.4759 -0.1568
  631MOL0     C85064   1.517   9.185   3.177  0.0927 -0.9490 -0.0930
  631MOL0     C85065   1.620   9.080   3.187  0.0737  0.5437  0.8276
  631MOL0     C85066   1.712   9.095   3.064 -0.2222  0.5414  0.0959
  631MOL0     N85067   1.778   9.222   3.060  0.4783 -0.1610  0.5376
  631MOL0     C85068   1.757   9.325   2.974  0.7344 -0.0490 -0.3720
  631MOL0     C85069   1.864   9.413   2.990 -1.0662 -0.4174 -0.4484
  631MOL0     C85070   1.888   9.542   2.926 -0.4680 -0.5341 -0.1774
  631MOL0     C85071   2.012   9.566   2.840 -0.2132 -0.1038  0.1777
  631MOL0     C85072   2.120   9.643   2.910  0.7683  0.0574 -0.0472
  631MOL0     C85073   2.250   9.635   2.832  0.9064  0.3382 -0.6982
  631MOL0     O85074   2.316   9.743   2.900 -0.1331  0.1174  0.2398
  631MOL0     C85075   2.451   9.746   2.894  0.3975  0.1302  0.1234
  631MOL0     C85076   2.537   9.646   2.847 -0.1617 -0.3555 -0.4021
  631MOL0     C85077   2.678   9.653   2.860 -0.0535 -0.1188  0.4653
  631MOL0     C85078   2.733   9.762   2.929 -0.0896 -0.3830 -0.9463
  631MOL0     C85079   2.872   9.769   2.963 -0.5983  0.3606  0.3187
  631MOL0     O85080   2.937   9.648   2.970 -0.0659 -0.4983  1.1944
  631MOL0     C85081   3.067   9.644   2.994 -0.4695 -0.6382 -0.1063
  631MOL0     C85082   3.138   9.736   3.067  0.7364  0.1590  0.8204
  631MOL0     C85083   3.281   9.744   3.055  0.7635  0.4403 -1.0513
  631MOL0     C85084   3.347   9.653   2.978 -0.4952  0.2517  0.3228
  631MOL0     O85085   3.484   9.654   2.966 -0.5390  0.1234  0.2857
  631MOL0     C85086   3.570   9.753   3.014 -0.1526  0.0137  0.3571
  631MOL0     C85087   3.711   9.692   3.029  0.1702  0.7239  0.0009
  631MOL0     C85088   3.702   9.554   3.106 -0.8443  0.0934  0.0079
  631MOL0     C85089   3.840   9.523   3.162  0.2174  0.7165  0.2763
  631MOL0     C85090   3.843   9.408   3.254 -0.0685  0.5074 -0.0758
  631MOL0     C85091   3.788   9.284   3.193  0.7196  0.5037  0.6580
  631MOL0     C85092   3.839   9.159   3.249  0.3077  0.1393  0.2492
  631MOL0     C85093   3.954   9.105   3.174 -0.2409 -1.0040  0.0245
  631MOL0    Cl85094   3.936   9.066   3.009 -0.2418 -0.1310 -0.1965
  631MOL0     C85095   3.281   9.553   2.909  0.7007 -0.2447 -0.1861
  631MOL0     C85096   3.142   9.552   2.925  0.0818  0.8000 -0.0544
  631MOL0     O85097   2.916   9.883   2.983 -0.3498  0.3505 -0.2942
  631MOL0     C85098   2.647   9.858   2.973 -0.6027  0.1997 -0.3852
  631MOL0     C85099   2.510   9.856   2.946 -0.0329  0.4768 -0.1440
  631MOL0     N85100   1.945   9.360   3.088 -0.4545  0.1661  0.1694
  631MOL0     N85101   1.891   9.254   3.133 -0.3073  0.6207  0.0387
  631MOL0     C85102   1.004   9.084   3.391  0.2862 -0.4711  0.5437
  631MOL0     C85103   0.987   8.984   3.475 -0.4166  0.1472 -0.7061
  631MOL0     C85104   0.885   8.690   3.779 -1.0221 -0.4142 -0.5587
  631MOL0     C85105   0.985   8.595   3.815  0.7109 -0.6698  0.0215
  631MOL0     C85106   0.965   8.507   3.920  0.7082 -0.2134  0.4140
  631MOL0     C85107   0.845   8.517   4.003 -0.0234  0.5248  0.8231
  631MOL0     O85108   0.826   8.444   4.117  0.3919 -0.2295  0.4132
  631MOL0     C85109   0.887   8.317   4.127 -0.5276  0.5199  0.7610
  631MOL0     C85110   0.842   8.251   4.260  0.2523  0.1751  1.1473
  631MOL0     C85111   0.932   8.127   4.302  0.1883 -0.0865 -0.3499
  631MOL0     C85112   0.927   7.996   4.213 -0.4620 -0.4089 -0.2924
  631MOL0     C85113   1.017   8.015   4.095 -0.1981 -0.3166  0.2776
  631MOL0     C85114   1.109   8.040   4.021  0.3671  0.8378  0.4385
  631MOL0     C85115   0.749   8.601   3.967  0.1369 -0.3153 -0.0240
  631MOL0     C85116   0.764   8.689   3.857  0.3376 -0.5367 -0.4061
  631MOL0     C85117   0.648   8.780   3.834  0.3846 -0.7932  0.4889
  631MOL0     H85118   0.731   9.120   3.659 -0.5079 -1.0865  0.7956
  631MOL0     H85119   0.764   9.304   3.499 -1.3373 -0.1998  0.0365
  631MOL0     H85120   0.968   9.504   3.330  1.1287 -0.7522 -1.9936
  631MOL0     H85121   1.064   9.411   3.441  0.0913  6.9850  1.4733
  631MOL0     H85122   1.194   9.524   3.266  2.9053 -0.8850 -1.6456
  631MOL0     H85123   1.079   9.491   3.142 -0.1237  1.1945  0.3550
  631MOL0     H85124   1.297   9.355   3.124  1.3039  1.0820  3.0873
  631MOL0     H85125   1.159   9.241   3.152  0.9251 -0.6211 -1.7642
  631MOL0     H85126   1.362   9.353   3.351 -0.9936  0.1171 -0.4812
  631MOL0     H85127   1.234   9.233   3.388  0.0151  0.4940  0.6540
  631MOL0     H85128   1.439   9.134   3.379 -1.6487  1.8139  0.9521
  631MOL0     H85129   1.344   9.078   3.225 -0.8259 -0.0536 -0.1460
  631MOL0     H85130   1.477   9.206   3.077  0.5454 -0.6989 -0.2268
  631MOL0     H85131   1.572   9.274   3.210 -1.9283  1.0072 -1.6158
  631MOL0     H85132   1.571   8.984   3.167  1.2196  0.1296 -0.1665
  631MOL0     H85133   1.678   9.075   3.279  0.4653 -0.8409  0.5295
  631MOL0     H85134   1.794   9.024   3.064  1.8830  2.7644 -2.4917
  631MOL0     H85135   1.653   9.080   2.973 -0.4572  2.2327 -0.0668
  631MOL0     H85136   1.664   9.321   2.918  1.3447 -0.7757 -1.3481
  631MOL0     H85137   1.802   9.568   2.863 -2.2665 -3.7661  0.6881
  631MOL0     H85138   1.876   9.618   3.003 -1.9361  0.3948 -1.2446
  631MOL0     H85139   2.050   9.465   2.824  0.8416  0.6839 -3.3247
  631MOL0     H85140   1.996   9.618   2.744  0.3163  0.8482  0.5833
  631MOL0     H85141   2.144   9.594   3.005  1.2203 -0.0237 -0.2009
  631MOL0     H85142   2.091   9.745   2.935  1.4307 -0.2221  2.1023
  631MOL0     H85143   2.238   9.651   2.724 -0.3358  1.6907 -0.3823
  631MOL0     H85144   2.292   9.535   2.845 -3.0838 -1.7154 -1.7695
  631MOL0     H85145   2.504   9.548   2.813  0.3537 -0.2029 -1.3624
  631MOL0     H85146   2.744   9.569   2.838 -0.9768 -0.9906  0.9330
  631MOL0     H85147   3.092   9.806   3.136  0.0853  1.5955 -1.0132
  631MOL0     H85148   3.339   9.820   3.105 -1.1792  1.6415 -0.5258
  631MOL0     H85149   3.587   9.833   2.941 -0.6728 -0.8537 -0.7483
  631MOL0     H85150   3.539   9.796   3.110 -2.9930 -2.3378  0.6430
  631MOL0     H85151   3.754   9.687   2.929  0.9553  0.3468  0.3491
  631MOL0     H85152   3.776   9.762   3.082  0.1210  0.9685 -0.2557
  631MOL0     H85153   3.634   9.556   3.191  1.5001  1.9681  2.0161
  631MOL0     H85154   3.679   9.474   3.035  4.4761 -1.7317 -0.1328
  631MOL0     H85155   3.868   9.604   3.229  3.0829 -1.9544  2.6161
  631MOL0     H85156   3.917   9.513   3.084 -1.1565  3.7886 -1.6810
  631MOL0     H85157   3.775   9.446   3.330  0.8303  2.7702 -0.3338
  631MOL0     H85158   3.945   9.403   3.292 -0.3095  0.5588  0.5919
  631MOL0     H85159   3.679   9.290   3.201  0.6700  0.2667  0.1608
  631MOL0     H85160   3.825   9.295   3.090 -0.7588  0.5992  0.1220
  631MOL0     H85161   3.765   9.078   3.246  1.4676 -0.9559 -0.1298
  631MOL0     H85162   3.857   9.172   3.356  1.4443  1.4879 -0.0782
  631MOL0     H85163   4.034   9.179   3.185 -0.7348 -0.5276  0.4481
  631MOL0     H85164   4.002   9.019   3.223  3.4796  0.2357 -1.0915
  631MOL0     H85165   3.333   9.471   2.861 -1.3094 -1.6776 -0.0212
  631MOL0     H85166   3.097   9.466   2.876  0.0853 -0.4706  2.0195
  631MOL0     H85167   2.694   9.940   3.026  1.0541 -1.5370  0.9468
  631MOL0     H85168   2.449   9.939   2.979 -3.6533 -2.4082  1.1376
  631MOL0     H85169   1.082   9.083   3.316 -0.4624  3.5169 -0.5543
  631MOL0     H85170   1.055   8.900   3.467  1.2370  1.4967 -1.2976
  631MOL0     H85171   1.078   8.588   3.759  1.3240  1.0654  0.7662
  631MOL0     H85172   1.037   8.436   3.958 -1.2334 -0.7721  3.3709
  631MOL0     H85173   0.993   8.337   4.113 -0.2335 -0.9126  0.7781
  631MOL0     H85174   0.862   8.254   4.040  1.5517  0.3448  0.2458
  631MOL0     H85175   0.736   8.226   4.251 -0.4939  3.4689 -0.6842
  631MOL0     H85176   0.839   8.332   4.333  0.1374 -0.4861  1.8995
  631MOL0     H85177   0.910   8.100   4.405 -0.9334  2.4524  0.1571
  631MOL0     H85178   1.035   8.165   4.308 -0.5567  2.5348 -1.9634
  631MOL0     H85179   0.968   7.908   4.263 -0.5998  0.5393  1.6063
  631MOL0     H85180   0.825   7.979   4.176  0.4540  0.1715 -3.3099
  631MOL0     H85181   1.186   8.050   3.947  0.7754 -0.0289  0.7363
  631MOL0     H85182   0.656   8.600   4.023  1.4528 -0.4799  2.2720
  631MOL0     H85183   0.668   8.884   3.858  1.0116 -1.4368  3.0634
  631MOL0     H85184   0.613   8.769   3.731  0.5760 -1.1364  0.4584
  631MOL0     H85185   0.566   8.760   3.904 -0.9152  2.2137 -0.0585
  632MOL0     O85186   7.357   9.390   8.168  0.6183  1.5443  0.1221
  632MOL0     C85187   7.316   9.305   8.091  0.5381 -1.0617 -1.0782
  632MOL0     O85188   7.395   9.255   7.998 -0.3577  0.0183 -0.7106
  632MOL0     C85189   7.529   9.290   7.992 -0.0172  0.1669  0.6034
  632MOL0     C85190   7.622   9.199   8.029 -0.0465 -0.1680  0.4317
  632MOL0     C85191   7.759   9.224   8.022  0.0246 -0.2660  0.0143
  632MOL0     C85192   7.805   9.348   7.978 -0.0112  0.5095 -0.2631
  632MOL0     O85193   7.948   9.358   7.974 -0.4361 -0.4989 -0.6185
  632MOL0     C85194   8.011   9.490   7.984 -0.4196  0.0989  0.0022
  632MOL0     C85195   8.156   9.486   7.934 -1.2151 -0.3153  0.1757
  632MOL0     C85196   8.229   9.626   7.928 -0.3010  0.3623 -0.2388
  632MOL0     C85197   8.242   9.697   8.066 -0.3298  0.4343 -0.4052
  632MOL0     C85198   8.368   9.786   8.065  0.5760 -0.3197  0.4254
  632MOL0     C85199   8.349   9.905   7.958 -0.1241  0.5816 -0.0440
  632MOL0     C85200   8.450  10.020   7.988  0.0978 -0.0211 -0.0319
  632MOL0     C85201   8.594   9.968   7.999  0.4662 -0.2333 -0.7002
  632MOL0     N85202   8.627   9.926   7.865  0.6415 -0.2204 -0.2967
  632MOL0     C85203   8.672  10.015   7.778  0.6076 -0.5838 -0.3704
  632MOL0     C85204   8.698   9.944   7.665 -0.0150 -0.5073  0.5619
  632MOL0     C85205   8.760   9.992   7.536  0.7498 -0.8331  0.8516
  632MOL0     C85206   8.915   9.994   7.536  0.9572  0.0516 -0.0105
  632MOL0     C85207   8.967   9.844   7.543 -0.2807 -0.0391 -0.5350
  632MOL0     C85208   9.118   9.849   7.532  0.1816  0.0029 -0.0642
  632MOL0     O85209   9.167   9.909   7.408 -0.3477  0.5726 -0.3261
  632MOL0     C85210   9.297   9.891   7.380 -0.7630  0.4915  0.5228
  632MOL0     C85211   9.395   9.827   7.458 -0.5308  0.1946  0.6866
  632MOL0     C85212   9.526   9.802   7.412 -0.4171 -0.1796 -0.0147
  632MOL0     C85213   9.569   9.850   7.286  1.0037 -0.2499 -0.4116
  632MOL0     C85214   9.694   9.820   7.225  0.1094  0.4505  0.0766
  632MOL0     O85215   9.703   9.816   7.089  0.1494 -0.4886  0.0669
  632MOL0     C85216   9.833   9.795   7.043 -0.6218 -0.9275  0.1018
  632MOL0     C85217   9.866   9.688   6.964  0.4776  1.7816 -0.2589
  632MOL0     C85218   9.994   9.669   6.915  0.1835 -0.7797 -0.6022
  632MOL0     C85219  10.097   9.768   6.934  0.0909 -0.5346  0.2899
  632MOL0     O85220  10.227   9.763   6.899  0.1364 -0.5129 -0.4394
  632MOL0     C85221  10.258   9.681   6.789  0.8342 -0.7089 -1.2026
  632MOL0     C85222  10.396   9.707   6.732  0.0468  0.0433 -0.0123
  632MOL0     C85223  10.416   9.605   6.626  0.5681  0.1084  0.0184
  632MOL0     C85224  10.555   9.614   6.551 -0.3503 -0.1169  0.5634
  632MOL0     C85225  10.574   9.749   6.480 -0.2604  0.8650  0.3621
  632MOL0     C85226  10.679   9.745   6.368  0.4120  0.6217 -0.0168
  632MOL0     C85227  10.704   9.606   6.296 -1.3331 -0.5412 -0.7021
  632MOL0     C85228  10.773   9.629   6.162  0.0487 -0.2841 -0.8379
  632MOL0    Cl85229  10.946   9.649   6.165 -0.0352 -0.1588 -0.1460
  632MOL0     C85230  10.063   9.879   7.011  0.5302 -0.2220  0.2698
  632MOL0     C85231   9.926   9.904   7.053  0.2156  0.2965 -0.0843
  632MOL0     O85232   9.778   9.775   7.306 -0.0879 -0.3790  0.0336
  632MOL0     C85233   9.475   9.913   7.209 -0.7388  0.3747  0.7664
  632MOL0     C85234   9.335   9.924   7.250 -0.2168 -0.7621 -0.1834
  632MOL0     N85235   8.671   9.812   7.694 -0.6421 -0.6838  1.2755
  632MOL0     N85236   8.625   9.796   7.813 -0.0606 -0.0517  0.2554
  632MOL0     C85237   7.714   9.450   7.940 -0.5823  0.8793 -0.2318
  632MOL0     C85238   7.575   9.420   7.947  0.4786 -1.0652 -0.7186
  632MOL0     C85239   7.170   9.285   8.080 -0.4421  0.3606 -0.4392
  632MOL0     C85240   7.119   9.152   8.075 -0.4532  1.2347 -0.7398
  632MOL0     C85241   6.982   9.138   8.093 -0.3349 -0.1616 -0.6612
  632MOL0     C85242   6.898   9.249   8.108  0.8341  1.2995  0.4461
  632MOL0     O85243   6.763   9.237   8.140  0.0771 -0.1120  0.6701
  632MOL0     C85244   6.680   9.123   8.090 -1.0667  0.2142  0.1500
  632MOL0     C85245   6.536   9.145   8.124 -0.1774  0.1833 -1.0779
  632MOL0     C85246   6.514   9.169   8.283  0.0637  1.0427 -0.0408
  632MOL0     C85247   6.392   9.086   8.345 -0.1802  0.1202  0.0807
  632MOL0     C85248   6.272   9.126   8.286  0.2996  0.1862  0.0524
  632MOL0     C85249   6.164   9.166   8.246  0.0045  0.8419 -0.0781
  632MOL0     C85250   6.945   9.375   8.083 -0.3673  0.9721  0.0144
  632MOL0     C85251   7.080   9.394   8.082 -0.3812 -0.1714  0.2828
  632MOL0     C85252   7.112   9.544   8.090 -0.3240 -0.8463  0.3434
  632MOL0     H85253   7.586   9.106   8.071  0.3386 -1.1791 -1.3576
  632MOL0     H85254   7.833   9.150   8.050 -1.3643 -2.2041 -1.1640
  632MOL0     H85255   7.962   9.567   7.925 -2.0518  0.7265  2.0459
  632MOL0     H85256   7.997   9.524   8.087 -1.7063  3.4626 -1.1541
  632MOL0     H85257   8.160   9.443   7.834  0.7538 -1.8253  0.8327
  632MOL0     H85258   8.219   9.418   7.992  0.7944  2.8251  1.9652
  632MOL0     H85259   8.174   9.684   7.854  3.5688  1.3797 -2.5782
  632MOL0     H85260   8.332   9.609   7.897  0.1775  1.7962  0.5101
  632MOL0     H85261   8.153   9.754   8.095 -3.4756 -2.3446 -3.7148
  632MOL0     H85262   8.249   9.609   8.131 -0.3781 -1.2007 -2.5086
  632MOL0     H85263   8.378   9.821   8.169 -0.5365  0.5557  0.2477
  632MOL0     H85264   8.451   9.722   8.032 -1.1221 -1.3280 -2.1187
  632MOL0     H85265   8.365   9.868   7.856  1.2244 -0.8175  0.6388
  632MOL0     H85266   8.248   9.945   7.953 -2.2197 -4.2045 -2.6612
  632MOL0     H85267   8.427  10.052   8.090 -1.0949 -2.7113  0.6288
  632MOL0     H85268   8.447  10.108   7.922  1.7876  1.0104  1.1865
  632MOL0     H85269   8.658  10.053   8.024 -2.6618  2.0814  0.0334
  632MOL0     H85270   8.604   9.894   8.079  1.6265  0.4912 -0.1483
  632MOL0     H85271   8.686  10.122   7.791 -0.6609 -0.5870  1.4843
  632MOL0     H85272   8.719   9.922   7.463  4.0086 -3.3356  1.1810
  632MOL0     H85273   8.727  10.094   7.515  0.6150 -1.5278 -2.9213
  632MOL0     H85274   8.929  10.030   7.434  0.4714  1.5709  0.4400
  632MOL0     H85275   8.959  10.065   7.607 -1.3253  0.9573  0.5949
  632MOL0     H85276   8.920   9.782   7.466 -1.8786 -0.6275  0.8417
  632MOL0     H85277   8.937   9.791   7.634 -1.2685  0.7311 -0.3999
  632MOL0     H85278   9.156   9.747   7.539  1.1538  0.4671  3.3281
  632MOL0     H85279   9.172   9.893   7.616  1.1654 -2.3989  0.6165
  632MOL0     H85280   9.381   9.811   7.565  0.4396 -1.0835  0.6390
  632MOL0     H85281   9.596   9.753   7.479  1.6375  2.4041 -0.1080
  632MOL0     H85282   9.784   9.622   6.937  2.9301 -2.3478  1.3905
  632MOL0     H85283  10.018   9.580   6.856  3.6398 -2.1123  2.4475
  632MOL0     H85284  10.251   9.578   6.825 -3.8573 -0.3594 -0.5287
  632MOL0     H85285  10.179   9.700   6.716  1.7388  1.3964 -1.7096
  632MOL0     H85286  10.392   9.800   6.673  1.9738  0.7232  0.8570
  632MOL0     H85287  10.474   9.703   6.808 -2.7636  0.7615  3.2009
  632MOL0     H85288  10.407   9.505   6.668  2.1650  0.9602  2.6298
  632MOL0     H85289  10.332   9.607   6.556 -0.5182 -0.2877  1.2622
  632MOL0     H85290  10.549   9.534   6.478 -0.4929  1.5299 -1.3059
  632MOL0     H85291  10.636   9.605   6.624 -1.0598  1.5364  1.6315
  632MOL0     H85292  10.594   9.819   6.561  1.5451  0.4503  0.3025
  632MOL0     H85293  10.480   9.770   6.428  0.7977  0.4800 -1.8281
  632MOL0     H85294  10.656   9.826   6.298 -0.9498 -0.7052 -1.1559
  632MOL0     H85295  10.774   9.768   6.418 -0.3889 -3.5912  4.2408
  632MOL0     H85296  10.607   9.560   6.275 -0.3488 -3.2154  0.1983
  632MOL0     H85297  10.754   9.537   6.364 -0.4735 -0.7233 -1.5033
  632MOL0     H85298  10.752   9.538   6.104 -1.5005 -0.9958  0.7659
  632MOL0     H85299  10.731   9.718   6.115 -1.4068  0.5224  1.7730
  632MOL0     H85300  10.132   9.959   7.035 -1.1760  1.4153  0.0319
  632MOL0     H85301   9.893   9.986   7.115 -3.6447 -1.9940  1.2750
  632MOL0     H85302   9.518   9.956   7.119  0.1135  0.0464  1.0038
  632MOL0     H85303   9.272   9.972   7.176  1.3245  2.4034  0.3672
  632MOL0     H85304   7.746   9.552   7.922  3.8372  0.5263  3.8088
  632MOL0     H85305   7.505   9.502   7.934  0.4917 -0.4957  2.1086
  632MOL0     H85306   7.190   9.070   8.074 -2.2221 -0.4509  1.0911
  632MOL0     H85307   6.949   9.034   8.088  1.5350 -0.7186 -3.5722
  632MOL0     H85308   6.712   9.026   8.129  0.5243  0.6197 -0.0560
  632MOL0     H85309   6.686   9.126   7.980  1.1605  2.9994  0.2113
  632MOL0     H85310   6.482   9.056   8.092 -1.2986  0.3928  0.1693
  632MOL0     H85311   6.492   9.235   8.080 -1.2956  1.4096  2.2272
  632MOL0     H85312   6.513   9.277   8.304 -2.3759  1.2758 -1.0510
  632MOL0     H85313   6.603   9.121   8.323 -0.6208  1.2049  1.7581
  632MOL0     H85314   6.404   8.978   8.340 -0.6197  0.0434  0.5650
  632MOL0     H85315   6.390   9.102   8.453  1.0094 -1.1313  0.3064
  632MOL0     H85316   6.071   9.199   8.204 -0.5657 -0.3926  0.1765
  632MOL0     H85317   6.874   9.457   8.074 -0.4830  0.9641  0.7875
  632MOL0     H85318   7.043   9.601   8.028  2.0691  0.2614 -1.4656
  632MOL0     H85319   7.104   9.577   8.194 -1.6084 -1.0742  0.3341
  632MOL0     H85320   7.213   9.574   8.059 -0.5452 -1.2246 -0.8020
  633MOL0     O85321   3.087   0.253   7.766  0.5620  0.6796 -0.5330
  633MOL0     C85322   3.177   0.329   7.716 -0.5302 -0.2756  0.8815
  633MOL0     O85323   3.167   0.391   7.598  0.5907 -0.4357  0.4627
  633MOL0     C85324   3.047   0.386   7.522 -0.0882  0.1372 -0.1180
  633MOL0     C85325   2.998   0.261   7.474  0.0544  0.1732 -0.8190
  633MOL0     C85326   2.879   0.260   7.408  0.4958  0.4647  0.4681
  633MOL0     C85327   2.805   0.372   7.386  0.4987 -0.4917  0.0195
  633MOL0     O85328   2.684   0.352   7.327 -0.0096  0.2654 -0.1941
  633MOL0     C85329   2.574   0.407   7.394 -0.2204 -0.2186  0.1951
  633MOL0     C85330   2.468   0.432   7.293  0.1085  0.5313  1.0441
  633MOL0     C85331   2.404   0.305   7.245  0.4088 -0.0413  0.4693
  633MOL0     C85332   2.278   0.338   7.155 -0.0601 -0.0500  0.1183
  633MOL0     C85333   2.204   0.217   7.112 -0.0224 -0.1291 -0.1840
  633MOL0     C85334   2.082   0.265   7.038  0.5335  0.8260 -0.2654
  633MOL0     C85335   1.966   0.165   7.018 -1.1722 -0.1370 -0.0701
  633MOL0     C85336   1.881   0.159   7.148  0.0146  1.0088 -0.1391
  633MOL0     N85337   1.808   0.284   7.185  0.1207  0.2078  0.7878
  633MOL0     C85338   1.686   0.320   7.140 -0.2665 -0.2474 -0.1569
  633MOL0     C85339   1.672   0.442   7.184  0.1403  1.0012  1.5221
  633MOL0     C85340   1.546   0.521   7.169  0.1416 -0.4036  0.3134
  633MOL0     C85341   1.530   0.566   7.026 -0.5973  1.2947  0.4909
  633MOL0     C85342   1.547   0.716   6.997 -0.7729  0.0652 -0.2381
  633MOL0     C85343   1.683   0.768   7.069 -0.0676 -0.1758  0.1418
  633MOL0     O85344   1.790   0.719   6.982 -0.2550  0.3544 -0.5831
  633MOL0     C85345   1.917   0.750   7.016  0.0980  0.3152 -0.1046
  633MOL0     C85346   2.010   0.724   6.910  0.1163  0.5412 -0.6514
  633MOL0     C85347   2.147   0.731   6.940 -1.0987  0.8026  0.6361
  633MOL0     C85348   2.192   0.749   7.067 -0.1775  0.0872  0.2837
  633MOL0     C85349   2.343   0.738   7.099  0.2483 -0.3157  0.0424
  633MOL0     O85350   2.427   0.704   7.001 -0.1192 -0.6744  0.3109
  633MOL0     C85351   2.561   0.716   7.024  0.5334  0.1995  0.8369
  633MOL0     C85352   2.635   0.600   6.999  1.6030 -0.2965  0.0518
  633MOL0     C85353   2.776   0.604   7.000 -0.3131 -1.3104  0.6012
  633MOL0     C85354   2.845   0.728   7.045 -0.1172 -0.0786  0.9128
  633MOL0     O85355   2.983   0.721   7.046 -0.4747 -0.0766  0.6053
  633MOL0     C85356   3.061   0.766   7.157 -0.1403  0.0903  0.3957
  633MOL0     C85357   3.151   0.629   7.189  0.0865  0.1050  0.9849
  633MOL0     C85358   3.284   0.651   7.249  0.2061 -0.7140 -0.5711
  633MOL0     C85359   3.383   0.726   7.155  0.7667 -0.0930 -0.3073
  633MOL0     C85360   3.516   0.751   7.222 -0.8563  0.2942 -0.3305
  633MOL0     C85361   3.607   0.850   7.152  0.2101 -0.3500 -0.5567
  633MOL0     C85362   3.742   0.856   7.217 -0.3916 -0.6022  0.0024
  633MOL0     C85363   3.839   0.896   7.108 -0.9540 -0.1330  0.4959
  633MOL0    Cl85364   3.796   1.054   7.039  0.0769  0.0138  0.2807
  633MOL0     C85365   2.765   0.837   7.085  0.3092 -0.6804 -0.9488
  633MOL0     C85366   2.624   0.832   7.070  0.1548  0.3219 -0.3712
  633MOL0     O85367   2.375   0.748   7.218  0.0909 -0.1910  0.9230
  633MOL0     C85368   2.104   0.786   7.162  0.2882 -1.1769  1.0323
  633MOL0     C85369   1.964   0.782   7.142  0.7383 -0.0095 -0.1029
  633MOL0     N85370   1.777   0.474   7.263 -0.7646  0.4152 -0.0415
  633MOL0     N85371   1.860   0.373   7.266  0.0911 -0.5717  0.9638
  633MOL0     C85372   2.852   0.499   7.435 -1.0945  0.5795  0.4515
  633MOL0     C85373   2.974   0.505   7.502 -0.2289 -0.0394 -0.0352
  633MOL0     C85374   3.310   0.344   7.787 -0.1494 -0.2557 -0.5148
  633MOL0     C85375   3.408   0.423   7.720 -0.7305 -1.0502  0.4495
  633MOL0     C85376   3.529   0.459   7.780  0.2129  0.1462  0.0779
  633MOL0     C85377   3.558   0.420   7.909 -0.1880  0.7486 -0.1056
  633MOL0     O85378   3.669   0.460   7.981 -0.2097 -0.6779 -0.5623
  633MOL0     C85379   3.757   0.566   7.944  1.0196  0.7543  0.6565
  633MOL0     C85380   3.845   0.598   8.060 -0.7062 -0.1051 -0.0887
  633MOL0     C85381   3.982   0.657   8.020  0.6799  0.7920 -0.9644
  633MOL0     C85382   4.038   0.739   8.130 -0.8907 -0.7437  0.1421
  633MOL0     C85383   3.974   0.875   8.149  0.4370  0.5587  0.2693
  633MOL0     C85384   3.930   0.985   8.160 -1.3534 -0.8912 -0.1838
  633MOL0     C85385   3.471   0.336   7.970  0.6938  0.2776 -0.2024
  633MOL0     C85386   3.350   0.289   7.916 -0.3169 -0.0722  0.4373
  633MOL0     C85387   3.284   0.165   7.980  0.2008  0.1648  0.4329
  633MOL0     H85388   3.054   0.169   7.488 -0.0115  0.1097 -0.9701
  633MOL0     H85389   2.836   0.164   7.384 -0.2678  0.5091  1.5605
  633MOL0     H85390   2.540   0.357   7.485  3.2319  0.9656  2.3124
  633MOL0     H85391   2.600   0.506   7.432  1.4746 -0.6534  0.2572
  633MOL0     H85392   2.526   0.470   7.209  1.4717 -1.0972  1.2078
  633MOL0     H85393   2.398   0.506   7.334 -0.2502  1.3947 -1.0027
  633MOL0     H85394   2.367   0.242   7.326 -1.6426  2.0871  1.3077
  633MOL0     H85395   2.483   0.248   7.195  1.9745  1.1005  1.5285
  633MOL0     H85396   2.205   0.402   7.205  1.0431  1.0974  0.3069
  633MOL0     H85397   2.316   0.390   7.066 -1.8158  1.8125  0.3836
  633MOL0     H85398   2.256   0.141   7.052  1.3422 -1.4797  2.5112
  633MOL0     H85399   2.169   0.156   7.196  0.7351 -1.5328 -0.8455
  633MOL0     H85400   2.034   0.351   7.086 -0.2402  0.3080 -0.0926
  633MOL0     H85401   2.118   0.295   6.939  0.4252  0.0025 -0.5617
  633MOL0     H85402   2.007   0.065   7.007  0.3599  0.3238  1.1155
  633MOL0     H85403   1.904   0.186   6.929 -2.5851  2.8335  1.4560
  633MOL0     H85404   1.812   0.077   7.127 -1.4405  2.1472 -0.0425
  633MOL0     H85405   1.952   0.129   7.226 -1.6664 -1.9399  0.4081
  633MOL0     H85406   1.628   0.258   7.072 -1.5410 -1.5339  2.0279
  633MOL0     H85407   1.461   0.461   7.205  2.1175 -1.8543  2.9098
  633MOL0     H85408   1.548   0.608   7.235 -1.7163  0.4295 -0.6617
  633MOL0     H85409   1.598   0.509   6.962 -0.5124  0.9656  0.8672
  633MOL0     H85410   1.427   0.540   7.000 -0.8114 -0.7980  3.0411
  633MOL0     H85411   1.452   0.765   7.021 -1.9880 -1.2286 -2.0542
  633MOL0     H85412   1.557   0.718   6.888  5.1558 -2.5743 -0.1199
  633MOL0     H85413   1.690   0.736   7.173  0.3914  2.1028  0.8697
  633MOL0     H85414   1.678   0.877   7.081 -0.8222 -0.4815  3.8042
  633MOL0     H85415   1.973   0.714   6.808  0.1621 -0.6210 -0.5707
  633MOL0     H85416   2.221   0.721   6.862  1.3389  0.3763  2.8727
  633MOL0     H85417   2.588   0.508   6.966  2.6822 -0.2942 -1.6289
  633MOL0     H85418   2.829   0.511   6.980 -0.9501 -1.1714 -2.2061
  633MOL0     H85419   3.120   0.852   7.125 -1.5738  0.6464 -0.8783
  633MOL0     H85420   3.001   0.799   7.242  1.0400  0.1377  1.2344
  633MOL0     H85421   3.105   0.564   7.263 -0.6948  0.0006  0.4199
  633MOL0     H85422   3.169   0.570   7.099  0.6824  0.9716  0.5200
  633MOL0     H85423   3.268   0.709   7.341  0.3356 -2.5464  0.6675
  633MOL0     H85424   3.312   0.551   7.284  0.0774 -0.6735 -0.3476
  633MOL0     H85425   3.340   0.825   7.136  1.4965 -0.0255 -1.7892
  633MOL0     H85426   3.384   0.677   7.057  0.2302 -4.5584  1.6426
  633MOL0     H85427   3.569   0.655   7.214  0.7998  1.1092  0.5122
  633MOL0     H85428   3.508   0.765   7.330 -1.3585  1.0457 -0.4636
  633MOL0     H85429   3.610   0.827   7.045 -0.8793  0.5636 -0.8164
  633MOL0     H85430   3.570   0.953   7.157 -0.7734 -0.6934 -0.5485
  633MOL0     H85431   3.773   0.758   7.254  2.7646  0.6374  0.9753
  633MOL0     H85432   3.754   0.933   7.293 -1.1522 -0.6474  0.1736
  633MOL0     H85433   3.941   0.889   7.145 -0.4908 -0.9154 -0.8683
  633MOL0     H85434   3.836   0.833   7.019  0.2418 -4.0697  3.0066
  633MOL0     H85435   2.803   0.927   7.132  1.5272 -2.7563  2.3226
  633MOL0     H85436   2.554   0.914   7.086 -0.0224  0.6409 -2.4909
  633MOL0     H85437   2.147   0.810   7.259  0.1369  0.4423  0.7259
  633MOL0     H85438   1.896   0.790   7.226  2.9202  0.6616  1.6952
  633MOL0     H85439   2.789   0.586   7.419 -2.2491 -0.5689 -1.6058
  633MOL0     H85440   3.006   0.601   7.539 -2.4598  0.0134  2.0485
  633MOL0     H85441   3.392   0.469   7.623  0.2146 -0.3486  0.6034
  633MOL0     H85442   3.595   0.528   7.728  0.9983  0.6731  1.6905
  633MOL0     H85443   3.714   0.659   7.908 -3.0750 -1.0874  0.2220
  633MOL0     H85444   3.808   0.514   7.862 -0.4974 -0.4429  0.4294
  633MOL0     H85445   3.861   0.505   8.114 -2.1314 -2.4280 -3.3216
  633MOL0     H85446   3.788   0.670   8.119  0.0188  0.3570  0.0525
  633MOL0     H85447   3.978   0.716   7.928  1.3150  4.3834  1.1130
  633MOL0     H85448   4.049   0.571   8.009  1.4550  1.3798 -0.8541
  633MOL0     H85449   4.021   0.688   8.225 -1.7446  0.3891  0.6196
  633MOL0     H85450   4.144   0.765   8.117 -1.1607  1.8467  2.3768
  633MOL0     H85451   3.896   1.085   8.174 -0.5903 -0.4779 -1.1770
  633MOL0     H85452   3.502   0.306   8.070  1.6710  0.5282 -0.4194
  633MOL0     H85453   3.301   0.087   7.905  0.9322  1.6970 -1.0532
  633MOL0     H85454   3.347   0.143   8.066  1.7082  0.8370 -0.4600
  633MOL0     H85455   3.182   0.203   7.984  0.0482 -0.2645  0.6697
  634MOL0     O85456   6.625   4.845   2.926 -0.1766  0.4731  0.5213
  634MOL0     C85457   6.566   4.923   2.995 -0.2907  0.2118  0.7010
  634MOL0     O85458   6.623   5.021   3.069 -0.2276 -0.4231 -0.4610
  634MOL0     C85459   6.755   5.011   3.091 -0.0112  1.1927  1.1213
  634MOL0     C85460   6.839   5.065   3.001  0.1124 -0.6092  0.8761
  634MOL0     C85461   6.975   5.061   3.022  0.2464  0.2672  0.1418
  634MOL0     C85462   7.035   5.004   3.133  0.5284 -0.3692  0.2615
  634MOL0     O85463   7.179   4.998   3.138 -0.1005 -0.8482  0.3844
  634MOL0     C85464   7.245   4.906   3.222  0.2251 -0.3580 -0.0454
  634MOL0     C85465   7.395   4.900   3.180 -0.0262 -0.1701  0.5745
  634MOL0     C85466   7.475   5.022   3.238 -1.2688 -0.2706 -0.0759
  634MOL0     C85467   7.616   5.022   3.177 -0.0655  0.4410 -0.0915
  634MOL0     C85468   7.687   5.151   3.185 -0.3501 -0.3713  0.4931
  634MOL0     C85469   7.757   5.159   3.313  0.0960 -0.4348 -0.0781
  634MOL0     C85470   7.845   5.290   3.320 -1.2948  0.5857 -0.1713
  634MOL0     C85471   7.930   5.311   3.449  0.0021  0.4805 -0.0406
  634MOL0     N85472   7.989   5.440   3.463  0.0644  0.2845  0.0263
  634MOL0     C85473   7.911   5.546   3.486 -0.0906  0.4517 -0.6877
  634MOL0     C85474   7.998   5.653   3.474 -0.0425  0.3691  0.4059
  634MOL0     C85475   7.959   5.799   3.497 -0.9763  0.0584  0.3507
  634MOL0     C85476   7.838   5.825   3.590 -0.0961  0.3369  0.1569
  634MOL0     C85477   7.709   5.826   3.502  0.2714 -0.0822 -0.1456
  634MOL0     C85478   7.576   5.814   3.574  0.2675 -0.0415  0.0335
  634MOL0     O85479   7.469   5.799   3.479 -0.5682  0.3116 -0.5059
  634MOL0     C85480   7.347   5.781   3.526  0.5997  0.3816 -0.6006
  634MOL0     C85481   7.249   5.753   3.429  0.4418  0.8256 -0.6291
  634MOL0     C85482   7.117   5.738   3.473  0.3286  1.0131 -0.4836
  634MOL0     C85483   7.074   5.747   3.606  0.2262 -0.3121 -0.0337
  634MOL0     C85484   6.933   5.724   3.645 -1.1669 -0.5091  0.5773
  634MOL0     O85485   6.858   5.696   3.544  0.3069  0.8798  0.5283
  634MOL0     C85486   6.724   5.690   3.549  0.0368 -0.2065  0.2700
  634MOL0     C85487   6.668   5.592   3.477  0.8320 -0.6535  0.0731
  634MOL0     C85488   6.530   5.583   3.460  0.3392  0.5153  0.6154
  634MOL0     C85489   6.440   5.662   3.525  1.1086  0.0728 -0.6134
  634MOL0     O85490   6.301   5.653   3.514  0.3560  0.2282 -1.4329
  634MOL0     C85491   6.254   5.522   3.490  0.0120  0.7579  0.1319
  634MOL0     C85492   6.104   5.518   3.484 -0.2561  0.0617 -0.0360
  634MOL0     C85493   6.037   5.537   3.622 -0.8753 -0.0058  0.4221
  634MOL0     C85494   5.895   5.549   3.605 -0.2063  1.1190 -0.7478
  634MOL0     C85495   5.829   5.548   3.739 -0.1246 -0.1803 -0.3611
  634MOL0     C85496   5.685   5.526   3.739 -0.0372  0.0316  0.8233
  634MOL0     C85497   5.634   5.541   3.884 -1.2184  0.4863  0.5319
  634MOL0     C85498   5.480   5.534   3.894 -0.6095  0.0860  0.3076
  634MOL0    Cl85499   5.419   5.364   3.874  0.0822 -0.5030 -0.0094
  634MOL0     C85500   6.491   5.764   3.606 -0.0219 -0.4246 -0.4063
  634MOL0     C85501   6.633   5.779   3.613 -0.0195 -0.1371 -0.0229
  634MOL0     O85502   6.893   5.764   3.752  0.1254 -0.1752  0.3434
  634MOL0     C85503   7.168   5.780   3.701  0.5095  0.1118  0.7019
  634MOL0     C85504   7.304   5.775   3.660 -0.6127 -1.5222  0.4209
  634MOL0     N85505   8.127   5.602   3.463 -0.3983  0.7200 -0.0677
  634MOL0     N85506   8.118   5.472   3.453 -0.6396  0.6956 -0.3227
  634MOL0     C85507   6.946   4.944   3.222 -0.4852  0.3113  0.2854
  634MOL0     C85508   6.806   4.950   3.199 -0.0109 -0.6461 -0.6781
  634MOL0     C85509   6.424   4.908   3.009 -0.0771 -0.6516 -0.5335
  634MOL0     C85510   6.371   4.810   3.096 -0.4618  1.1667  0.3453
  634MOL0     C85511   6.234   4.782   3.110  0.6087  0.2147  0.1152
  634MOL0     C85512   6.151   4.848   3.025  0.0395  0.2610  0.5135
  634MOL0     O85513   6.017   4.825   3.039 -0.2138  0.4184  0.9161
  634MOL0     C85514   5.947   4.879   3.152 -0.2898 -1.7122 -0.8532
  634MOL0     C85515   5.798   4.882   3.132 -0.8395  0.1304 -0.1536
  634MOL0     C85516   5.767   4.999   3.044  0.1579 -0.0082 -0.9642
  634MOL0     C85517   5.623   5.010   2.985  0.4252 -0.2231  0.8973
  634MOL0     C85518   5.578   4.891   2.914 -0.8577  0.8472 -0.7961
  634MOL0     C85519   5.543   4.798   2.851  0.4964  0.0210 -0.0568
  634MOL0     C85520   6.199   4.960   2.951  0.4778  0.3459  0.1973
  634MOL0     C85521   6.332   4.986   2.934  0.4495  0.0124 -0.9984
  634MOL0     C85522   6.376   5.086   2.829  0.1189 -0.0921  0.0761
  634MOL0     H85523   6.793   5.112   2.915  0.9649  1.0281  1.2713
  634MOL0     H85524   7.043   5.115   2.957  3.6306 -0.6695  2.6511
  634MOL0     H85525   7.236   4.936   3.327 -0.5174 -0.3923 -0.0953
  634MOL0     H85526   7.195   4.808   3.221 -1.6596  0.5119  1.9257
  634MOL0     H85527   7.411   4.894   3.072 -1.6993  1.1481  0.2213
  634MOL0     H85528   7.434   4.805   3.220 -3.3465 -3.4505 -3.1692
  634MOL0     H85529   7.476   5.031   3.347 -0.4973  0.3832 -0.1277
  634MOL0     H85530   7.427   5.115   3.203 -2.4168 -1.0624 -0.6767
  634MOL0     H85531   7.678   4.937   3.204  3.0936  2.0704 -1.5759
  634MOL0     H85532   7.603   5.021   3.068  2.6029 -0.2487 -0.4640
  634MOL0     H85533   7.756   5.166   3.102 -1.0143 -0.1667 -0.0317
  634MOL0     H85534   7.621   5.238   3.171  1.5854  0.9090 -1.2607
  634MOL0     H85535   7.676   5.171   3.385  0.3694  0.9207  0.0192
  634MOL0     H85536   7.814   5.068   3.334 -1.2170 -0.9086  1.6942
  634MOL0     H85537   7.784   5.379   3.303 -2.4529 -0.1233  0.1633
  634MOL0     H85538   7.921   5.278   3.242 -2.6628 -1.3662 -1.2863
  634MOL0     H85539   7.866   5.286   3.534 -1.4906  2.4254 -0.5173
  634MOL0     H85540   8.015   5.243   3.455  1.1109  1.8793  0.7661
  634MOL0     H85541   7.807   5.557   3.515  0.8320  1.4684  2.6435
  634MOL0     H85542   8.053   5.841   3.536 -2.2834  3.5025  0.1336
  634MOL0     H85543   7.941   5.849   3.402 -0.9219 -0.9800 -0.2241
  634MOL0     H85544   7.833   5.752   3.671 -3.1531 -0.2325 -0.4046
  634MOL0     H85545   7.852   5.922   3.639  1.9562 -0.3430  1.0165
  634MOL0     H85546   7.711   5.741   3.434 -2.2858  0.4331 -0.9610
  634MOL0     H85547   7.712   5.919   3.444  1.4866  1.8095  2.6746
  634MOL0     H85548   7.568   5.906   3.633 -0.9547  1.7952 -2.7816
  634MOL0     H85549   7.570   5.724   3.637 -2.2555  1.8047  2.6813
  634MOL0     H85550   7.259   5.761   3.321 -1.6567 -2.2311 -1.1905
  634MOL0     H85551   7.041   5.725   3.397 -2.1948 -2.1768  2.2424
  634MOL0     H85552   6.724   5.528   3.410  1.7691  1.9370 -1.7375
  634MOL0     H85553   6.493   5.505   3.394  1.8550 -0.5390  0.9287
  634MOL0     H85554   6.280   5.489   3.389 -2.3199  1.0528 -0.6291
  634MOL0     H85555   6.297   5.449   3.559  3.1461  0.9021 -1.4613
  634MOL0     H85556   6.071   5.592   3.411 -2.4057 -1.0805 -0.2959
  634MOL0     H85557   6.074   5.419   3.447  1.8577 -0.6229 -0.1064
  634MOL0     H85558   6.059   5.456   3.691 -0.8823 -0.3998 -0.0267
  634MOL0     H85559   6.082   5.628   3.662 -0.4639 -0.9059  2.0914
  634MOL0     H85560   5.857   5.457   3.559  3.2649 -1.2507  0.7498
  634MOL0     H85561   5.866   5.629   3.536 -2.8503  0.4637 -0.5175
  634MOL0     H85562   5.852   5.643   3.788  1.8505 -0.3251 -0.9093
  634MOL0     H85563   5.870   5.469   3.802 -0.9010 -1.4532 -1.3888
  634MOL0     H85564   5.637   5.596   3.670 -1.3706 -2.2597 -0.7088
  634MOL0     H85565   5.669   5.428   3.694 -0.3957 -0.6773  2.4512
  634MOL0     H85566   5.651   5.638   3.932  2.0383 -0.8058  2.3539
  634MOL0     H85567   5.674   5.477   3.963 -1.3933 -1.1461 -0.6457
  634MOL0     H85568   5.465   5.571   3.996  3.5704  0.8771  0.8187
  634MOL0     H85569   5.431   5.600   3.822  2.0717  0.4765 -1.2702
  634MOL0     H85570   6.415   5.830   3.647 -2.2178 -2.5426 -0.8596
  634MOL0     H85571   6.672   5.858   3.677  1.8976 -2.0166  1.2820
  634MOL0     H85572   7.133   5.802   3.801 -0.3674  4.7621 -0.4035
  634MOL0     H85573   7.375   5.798   3.740  2.3503  0.6083 -2.5416
  634MOL0     H85574   6.983   4.885   3.306  2.1217 -2.0521 -2.3142
  634MOL0     H85575   6.730   4.898   3.257  1.0571 -0.9409  0.5041
  634MOL0     H85576   6.447   4.752   3.147  0.4939 -0.3512 -2.5870
  634MOL0     H85577   6.201   4.699   3.171  2.4708  0.0017  0.9194
  634MOL0     H85578   5.987   4.980   3.163 -1.0934 -1.5543  1.1071
  634MOL0     H85579   5.959   4.833   3.251 -0.3352  1.3072  0.6825
  634MOL0     H85580   5.760   4.898   3.233  0.2450 -0.2442  0.3265
  634MOL0     H85581   5.760   4.785   3.098  1.4731 -1.2450  0.9448
  634MOL0     H85582   5.847   5.012   2.972  1.2248  0.1550  0.2111
  634MOL0     H85583   5.779   5.079   3.118 -0.3113 -2.9207  2.6182
  634MOL0     H85584   5.537   5.025   3.051 -2.9779 -3.6586 -2.1864
  634MOL0     H85585   5.622   5.081   2.901  3.4600 -1.3927 -0.2606
  634MOL0     H85586   5.507   4.706   2.810  1.9219 -0.0248 -1.2671
  634MOL0     H85587   6.122   5.010   2.893 -0.6869 -0.8326  0.6989
  634MOL0     H85588   6.485   5.088   2.821  0.1259 -1.2945 -0.2928
  634MOL0     H85589   6.338   5.053   2.733 -2.4596 -0.7369  1.2372
  634MOL0     H85590   6.344   5.188   2.855  0.6596  0.5185 -1.5316
  635MOL0     O85591   5.739   9.101   2.893 -0.4792  0.4861  0.4702
  635MOL0     C85592   5.659   9.073   2.803  0.8230 -0.4284 -0.1899
  635MOL0     O85593   5.703   9.029   2.683 -0.0701  0.3482 -0.8503
  635MOL0     C85594   5.837   9.032   2.656  0.2913 -0.5959  1.2987
  635MOL0     C85595   5.910   9.151   2.650 -0.3515 -0.1262  0.3346
  635MOL0     C85596   6.042   9.155   2.601  0.1410  0.7338  0.1817
  635MOL0     C85597   6.104   9.033   2.553  1.0936  0.0534 -0.5942
  635MOL0     O85598   6.232   9.028   2.497  1.4126  0.1811 -0.6741
  635MOL0     C85599   6.282   9.149   2.443 -0.2481  0.0296 -0.4563
  635MOL0     C85600   6.387   9.109   2.342 -0.2928 -0.2111 -0.0102
  635MOL0     C85601   6.486   9.221   2.304  0.4781 -0.6574 -0.4075
  635MOL0     C85602   6.597   9.155   2.226 -0.6387 -0.1112  1.1952
  635MOL0     C85603   6.727   9.244   2.215  0.5718  0.9795 -0.6022
  635MOL0     C85604   6.695   9.354   2.112 -0.1233  0.7012 -0.5610
  635MOL0     C85605   6.819   9.440   2.089 -0.3032 -0.5420  0.2476
  635MOL0     C85606   6.792   9.592   2.073  0.2344 -0.1239  0.1898
  635MOL0     N85607   6.912   9.669   2.023 -0.3890 -0.1478  0.6066
  635MOL0     C85608   6.945   9.673   1.892  0.9345 -0.6875  0.4302
  635MOL0     C85609   7.067   9.726   1.878 -0.5009  0.0189  0.3249
  635MOL0     C85610   7.147   9.725   1.755  0.1372 -0.4820  0.0322
  635MOL0     C85611   7.295   9.775   1.773  0.4174  0.2721 -0.0713
  635MOL0     C85612   7.394   9.661   1.792 -0.5547 -0.1955  0.0380
  635MOL0     C85613   7.364   9.565   1.912  0.0687  0.4679  0.5944
  635MOL0     O85614   7.474   9.479   1.944  0.1214 -0.0607 -0.3846
  635MOL0     C85615   7.580   9.531   2.013 -0.4097  0.9516 -0.3497
  635MOL0     C85616   7.684   9.428   2.041 -0.5228  0.4391  0.0249
  635MOL0     C85617   7.818   9.468   2.046 -0.6977 -0.3249 -0.5031
  635MOL0     C85618   7.851   9.605   2.070  0.0007  0.2663  0.6817
  635MOL0     C85619   7.993   9.648   2.091  0.8316 -0.6914  0.2233
  635MOL0     O85620   8.100   9.562   2.065  0.2271  0.0718  0.2574
  635MOL0     C85621   8.228   9.612   2.083  0.7158  0.4459  0.0482
  635MOL0     C85622   8.321   9.511   2.115 -0.5335  0.2051  0.2994
  635MOL0     C85623   8.461   9.543   2.116 -0.3411 -0.3243  0.2047
  635MOL0     C85624   8.505   9.671   2.081  0.3462  0.1364 -0.6812
  635MOL0     O85625   8.635   9.693   2.091 -0.2518  0.5684  0.0991
  635MOL0     C85626   8.711   9.628   1.991  0.5975 -0.0021  0.0661
  635MOL0     C85627   8.840   9.715   1.961 -0.8072  0.2112  0.0449
  635MOL0     C85628   8.814   9.864   1.929  0.2682  0.1722 -1.4079
  635MOL0     C85629   8.942   9.939   1.903  0.4036  0.1045  0.4239
  635MOL0     C85630   8.909  10.095   1.895 -0.5623 -0.0422  0.2898
  635MOL0     C85631   9.011  10.164   1.805 -0.3161  0.5116  0.3641
  635MOL0     C85632   9.001  10.310   1.838 -0.0869 -0.1498 -0.2355
  635MOL0     C85633   9.088  10.397   1.744 -0.2529 -0.5658  0.0448
  635MOL0    Cl85634   9.024  10.396   1.582 -0.3762 -0.1757 -0.3112
  635MOL0     C85635   8.406   9.772   2.060 -0.0895 -0.3595 -0.5925
  635MOL0     C85636   8.266   9.746   2.059  0.2828  0.7186  0.3641
  635MOL0     O85637   8.000   9.763   2.139 -0.6155 -0.3554  0.5745
  635MOL0     C85638   7.749   9.700   2.079 -0.5195 -0.4156  0.3328
  635MOL0     C85639   7.617   9.668   2.041 -0.9598  0.5979  1.3861
  635MOL0     N85640   7.109   9.757   2.003 -0.6643 -0.3036  0.0306
  635MOL0     N85641   7.021   9.723   2.085  0.7537 -0.6536  1.0064
  635MOL0     C85642   6.032   8.906   2.552 -0.4328 -0.3502 -0.2873
  635MOL0     C85643   5.899   8.908   2.603  0.0486 -0.3532 -0.5778
  635MOL0     C85644   5.514   9.066   2.837  0.8726 -0.1781  0.7490
  635MOL0     C85645   5.476   9.061   2.974 -0.4979 -0.2533  0.2633
  635MOL0     C85646   5.347   9.052   3.020 -0.4555  0.8103 -0.1020
  635MOL0     C85647   5.243   9.040   2.929  0.4701 -0.1869  0.0097
  635MOL0     O85648   5.111   9.001   2.949 -0.1763 -0.3545  0.0540
  635MOL0     C85649   5.099   8.909   3.056 -0.0248  0.2304  0.2297
  635MOL0     C85650   5.030   8.980   3.168  0.7617  0.4102 -1.4570
  635MOL0     C85651   4.892   9.044   3.124 -0.7676  0.3491 -0.2725
  635MOL0     C85652   4.794   8.950   3.070 -0.1619  0.2728 -0.6429
  635MOL0     C85653   4.755   8.829   3.157  0.3545  0.0087 -0.7250
  635MOL0     C85654   4.754   8.727   3.232  0.4881  0.8097  0.6554
  635MOL0     C85655   5.276   9.046   2.792 -0.4194  0.5937  0.8990
  635MOL0     C85656   5.408   9.063   2.748 -0.4992  1.2858  0.2508
  635MOL0     C85657   5.426   9.057   2.600  0.4310 -0.5560  0.9863
  635MOL0     H85658   5.866   9.238   2.696  2.2201  1.0673  0.7066
  635MOL0     H85659   6.101   9.246   2.607 -0.3433  1.1003 -0.4688
  635MOL0     H85660   6.208   9.210   2.391 -0.7820 -0.1592  0.0557
  635MOL0     H85661   6.321   9.201   2.531 -1.3758  0.4622 -0.1851
  635MOL0     H85662   6.338   9.059   2.258  0.8788 -0.7691 -0.3866
  635MOL0     H85663   6.444   9.024   2.381  1.1622  1.5778  2.0392
  635MOL0     H85664   6.525   9.259   2.399  2.9424 -2.8564 -0.4304
  635MOL0     H85665   6.442   9.303   2.245 -0.2366 -1.0802 -0.4766
  635MOL0     H85666   6.615   9.059   2.274 -0.8306  0.6691  2.9096
  635MOL0     H85667   6.560   9.127   2.127  1.0729  0.3136  0.3925
  635MOL0     H85668   6.744   9.291   2.312 -2.6352  0.6480  0.2327
  635MOL0     H85669   6.815   9.194   2.175 -1.4021 -2.8023 -0.7544
  635MOL0     H85670   6.669   9.313   2.014 -3.0672  0.0519  0.3694
  635MOL0     H85671   6.609   9.415   2.142 -0.4393 -0.5984  1.3720
  635MOL0     H85672   6.875   9.408   2.001 -1.1541 -1.2229 -0.0670
  635MOL0     H85673   6.888   9.427   2.173 -0.7682  0.5470  0.8157
  635MOL0     H85674   6.708   9.599   2.002 -0.0817 -0.0206  0.5695
  635MOL0     H85675   6.743   9.640   2.159 -1.4927  0.8172 -1.2454
  635MOL0     H85676   6.889   9.626   1.812  2.2076 -0.1456 -0.8136
  635MOL0     H85677   7.154   9.622   1.717 -3.5596 -1.3580  1.3608
  635MOL0     H85678   7.103   9.787   1.678  0.0894 -3.1974 -2.2958
  635MOL0     H85679   7.327   9.825   1.681  3.1537 -1.1089  0.0089
  635MOL0     H85680   7.313   9.836   1.862  3.9647 -1.9120  0.9364
  635MOL0     H85681   7.497   9.697   1.801  0.7523 -3.8369  1.0906
  635MOL0     H85682   7.392   9.601   1.701 -1.4314 -1.7633  1.0495
  635MOL0     H85683   7.276   9.513   1.874  1.4178  0.0076 -2.1625
  635MOL0     H85684   7.333   9.623   2.000 -0.6603  1.0601 -0.0370
  635MOL0     H85685   7.668   9.321   2.033 -1.3470  0.5029  0.7075
  635MOL0     H85686   7.891   9.388   2.044  0.7907  0.8835  1.7213
  635MOL0     H85687   8.287   9.409   2.134 -0.5851  0.1597 -0.0287
  635MOL0     H85688   8.529   9.460   2.133 -0.3609 -0.0134  1.9837
  635MOL0     H85689   8.737   9.527   2.026  2.6822 -0.1230 -1.6602
  635MOL0     H85690   8.660   9.618   1.894  2.5164 -1.5310 -0.8418
  635MOL0     H85691   8.897   9.719   2.054  0.3359 -1.6806 -0.5113
  635MOL0     H85692   8.910   9.675   1.886 -1.2704 -1.8271  0.6550
  635MOL0     H85693   8.766   9.861   1.830 -1.5681 -1.8659 -0.5493
  635MOL0     H85694   8.761   9.911   2.013 -0.4490 -3.2268  0.2262
  635MOL0     H85695   8.991   9.900   1.813 -0.7298 -0.2066 -0.0697
  635MOL0     H85696   9.003   9.917   1.992 -0.1260  1.5847  1.1971
  635MOL0     H85697   8.906  10.132   1.998 -3.4186 -0.5981  0.4922
  635MOL0     H85698   8.812  10.118   1.850 -0.1650  0.4437 -0.3214
  635MOL0     H85699   9.106  10.123   1.839  0.7808  1.0271 -1.8694
  635MOL0     H85700   8.985  10.139   1.702 -0.1385 -1.9237  0.8657
  635MOL0     H85701   9.027  10.340   1.941 -1.3169 -0.6404  0.2337
  635MOL0     H85702   8.900  10.350   1.834  1.0515  3.0769 -0.1887
  635MOL0     H85703   9.095  10.494   1.795  0.6358 -0.6143  0.0402
  635MOL0     H85704   9.189  10.356   1.733 -0.2103 -1.8481  3.6996
  635MOL0     H85705   8.434   9.872   2.031 -0.1585 -0.4934 -1.1343
  635MOL0     H85706   8.201   9.825   2.022  1.0031  1.5528  0.8378
  635MOL0     H85707   7.764   9.807   2.088  2.7371 -0.5052 -2.1840
  635MOL0     H85708   7.548   9.748   2.016 -0.9772 -0.0670 -0.8997
  635MOL0     H85709   6.072   8.814   2.513 -1.8420 -0.3839 -1.7797
  635MOL0     H85710   5.838   8.820   2.589 -0.0879 -0.2737 -0.4786
  635MOL0     H85711   5.545   9.052   3.058 -0.8280  0.2310  0.5901
  635MOL0     H85712   5.327   9.038   3.126 -3.9699  1.9234 -0.4747
  635MOL0     H85713   5.194   8.864   3.086 -0.3385 -1.8968 -1.6953
  635MOL0     H85714   5.051   8.825   3.005  1.4984  0.2588 -1.3542
  635MOL0     H85715   5.095   9.057   3.210 -1.5550  0.6280  2.1062
  635MOL0     H85716   5.020   8.907   3.248 -1.2873 -0.3268 -2.3058
  635MOL0     H85717   4.902   9.123   3.049 -1.1503  0.5817 -0.0843
  635MOL0     H85718   4.850   9.081   3.218  0.4080  0.9744  0.0258
  635MOL0     H85719   4.710   9.019   3.062  1.4004  2.5098  0.8949
  635MOL0     H85720   4.821   8.925   2.967  1.1636 -3.2701  0.3891
  635MOL0     H85721   4.761   8.641   3.296 -0.3111  0.3023  0.0782
  635MOL0     H85722   5.192   9.052   2.723  1.1601  0.0313 -1.1652
  635MOL0     H85723   5.495   9.138   2.573  0.1083  0.6859  3.6317
  635MOL0     H85724   5.478   8.967   2.565  1.3590 -0.0616  1.0612
  635MOL0     H85725   5.332   9.080   2.548  0.1981  2.1271  2.4206
  636MOL0     O85726   1.594  10.863  11.142 -0.8011  0.2311  0.1523
  636MOL0     C85727   1.630  10.754  11.166 -0.3347 -0.2153  0.2487
  636MOL0     O85728   1.750  10.714  11.223 -0.1356 -0.4420 -0.8906
  636MOL0     C85729   1.815  10.811  11.296  0.5135 -1.0924  0.0082
  636MOL0     C85730   1.754  10.905  11.380  0.0980  1.1927 -0.0227
  636MOL0     C85731   1.824  10.997  11.448 -0.8784  0.0067 -0.4876
  636MOL0     C85732   1.965  10.992  11.461  0.6155 -0.2131 -0.1426
  636MOL0     O85733   2.053  11.073  11.525  0.5770  0.0049  0.5153
  636MOL0     C85734   2.003  11.153  11.626  0.6958  0.8197 -0.1179
  636MOL0     C85735   2.116  11.218  11.705  0.3449 -0.6500 -1.2496
  636MOL0     C85736   2.152  11.345  11.626 -0.0239 -0.8187  0.0405
  636MOL0     C85737   2.267  11.416  11.705 -0.1049 -0.5568  0.7941
  636MOL0     C85738   2.399  11.333  11.718  1.0662  0.6304  0.3848
  636MOL0     C85739   2.521  11.420  11.747 -0.4833 -0.8208  0.9127
  636MOL0     C85740   2.637  11.337  11.778  0.0173  0.6638 -0.5986
  636MOL0     C85741   2.771  11.420  11.748 -0.0935  0.4060  0.6220
  636MOL0     N85742   2.881  11.344  11.804 -0.4022  0.3534  0.3822
  636MOL0     C85743   2.921  11.306  11.932 -0.6996  0.2679  0.7395
  636MOL0     C85744   3.032  11.223  11.924  0.4497 -0.6030 -0.4347
  636MOL0     C85745   3.104  11.161  12.037 -0.2148  0.2560 -0.2319
  636MOL0     C85746   3.250  11.202  12.042  0.1920 -0.0754  0.1240
  636MOL0     C85747   3.329  11.131  11.932 -0.4233 -0.0660 -0.2685
  636MOL0     C85748   3.471  11.111  11.985 -0.1980  0.6078 -0.1877
  636MOL0     O85749   3.542  11.226  12.022  0.1544 -0.0370  0.7455
  636MOL0     C85750   3.669  11.204  12.075 -0.6884  0.0656  0.2925
  636MOL0     C85751   3.735  11.081  12.071  0.6246 -0.7195  0.1178
  636MOL0     C85752   3.872  11.065  12.100 -0.4591  0.2899 -0.9055
  636MOL0     C85753   3.951  11.178  12.124  0.3145 -1.3461 -1.3179
  636MOL0     C85754   4.094  11.164  12.146 -0.6887 -0.4642  1.0503
  636MOL0     O85755   4.157  11.287  12.170  0.1236  0.6542 -0.6532
  636MOL0     C85756   4.297  11.301  12.155  0.2199  0.4100  0.2276
  636MOL0     C85757   4.382  11.256  12.046 -0.2695  0.4080 -0.2055
  636MOL0     C85758   4.515  11.262  12.055 -0.0772  0.4461  0.0956
  636MOL0     C85759   4.575  11.318  12.168  0.1038  0.1564  0.2734
  636MOL0     O85760   4.708  11.341  12.162  0.0819 -0.3484  0.5959
  636MOL0     C85761   4.775  11.390  12.045  0.3713  0.4403 -0.6476
  636MOL0     C85762   4.916  11.419  12.070  0.0458  0.2161 -0.3413
  636MOL0     C85763   5.017  11.305  12.065  0.1783  0.1842 -0.4832
  636MOL0     C85764   5.068  11.278  11.923  0.8047 -0.3385  0.0551
  636MOL0     C85765   5.144  11.140  11.911  0.8639 -0.2579 -0.4348
  636MOL0     C85766   5.098  11.061  11.782 -0.2640 -0.6374  0.2316
  636MOL0     C85767   4.949  11.016  11.768  0.2456 -0.3940  0.0471
  636MOL0     C85768   4.918  10.908  11.871  0.0781 -0.0038  0.1271
  636MOL0    Cl85769   4.760  10.831  11.841  0.0300 -0.1695 -0.0794
  636MOL0     C85770   4.489  11.369  12.270  0.4867 -0.5634 -0.4096
  636MOL0     C85771   4.352  11.368  12.255  0.5793 -0.8008 -0.4299
  636MOL0     O85772   4.155  11.059  12.120 -0.4063 -0.2557  0.1307
  636MOL0     C85773   3.880  11.305  12.141 -0.1396 -0.1312  0.4732
  636MOL0     C85774   3.744  11.315  12.113  0.3186 -0.1519  0.4396
  636MOL0     N85775   3.052  11.214  11.783 -0.1842 -0.4281  0.9563
  636MOL0     N85776   2.964  11.286  11.715 -0.4660 -0.0461 -0.2394
  636MOL0     C85777   2.025  10.887  11.388  0.8168  0.3185 -1.0961
  636MOL0     C85778   1.951  10.803  11.302  1.0430 -0.1839 -0.1754
  636MOL0     C85779   1.549  10.629  11.127  1.4547 -0.4391  0.5545
  636MOL0     C85780   1.594  10.501  11.178 -0.2123 -0.4482 -0.0084
  636MOL0     C85781   1.516  10.383  11.172 -0.4232  0.0760 -0.1794
  636MOL0     C85782   1.400  10.377  11.096  0.0234  0.0368 -0.5514
  636MOL0     O85783   1.330  10.259  11.075  0.9429 -0.0612  0.4069
  636MOL0     C85784   1.252  10.238  10.952  0.6926  0.3387 -0.4993
  636MOL0     C85785   1.178  10.100  10.945  0.5672  0.2132 -0.0796
  636MOL0     C85786   1.062  10.113  11.042 -0.3847  0.8090  0.1862
  636MOL0     C85787   0.976   9.985  11.031  0.4010  0.1198  0.2206
  636MOL0     C85788   0.886   9.975  10.912  0.2311  0.6145  0.6008
  636MOL0     C85789   0.811   9.956  10.820  0.5756  0.8113 -0.4558
  636MOL0     C85790   1.350  10.497  11.042 -0.0111 -0.4297  0.6547
  636MOL0     C85791   1.431  10.619  11.051  0.5799  0.4323  0.2386
  636MOL0     C85792   1.400  10.738  10.955 -0.1384  0.3640  0.1334
  636MOL0     H85793   1.648  10.926  11.387  0.1065  3.4144 -3.6153
  636MOL0     H85794   1.770  11.084  11.484 -0.0491 -0.3313  1.7207
  636MOL0     H85795   1.949  11.239  11.585 -0.9231  0.5678  1.3569
  636MOL0     H85796   1.940  11.088  11.687  3.9883 -1.1237  1.4795
  636MOL0     H85797   2.204  11.154  11.717  1.8224  1.2131 -1.7103
  636MOL0     H85798   2.077  11.236  11.806  1.5684 -0.7311 -0.7342
  636MOL0     H85799   2.065  11.411  11.632  1.1394  0.6088  2.6942
  636MOL0     H85800   2.175  11.317  11.522 -1.0769 -1.2483 -0.0927
  636MOL0     H85801   2.298  11.503  11.646  1.6662 -1.0359  0.9754
  636MOL0     H85802   2.232  11.444  11.805  1.9750 -0.3181  1.4971
  636MOL0     H85803   2.387  11.256  11.794  0.1076 -1.4478 -1.7512
  636MOL0     H85804   2.407  11.286  11.620 -0.5206  2.3492 -0.6370
  636MOL0     H85805   2.547  11.479  11.659 -0.9127 -2.0426 -0.0627
  636MOL0     H85806   2.504  11.488  11.831 -1.5591  1.6116 -1.1576
  636MOL0     H85807   2.646  11.259  11.703 -3.1461  1.3015 -1.8180
  636MOL0     H85808   2.639  11.294  11.878  3.3487 -2.4033 -1.7703
  636MOL0     H85809   2.775  11.433  11.639 -2.6331  0.6315  0.4943
  636MOL0     H85810   2.754  11.523  11.780 -2.7805  0.0058  0.6782
  636MOL0     H85811   2.872  11.325  12.027  1.4552  0.1053  1.9695
  636MOL0     H85812   3.051  11.185  12.130 -0.2288 -3.9707  1.0571
  636MOL0     H85813   3.100  11.053  12.027 -0.7786  0.3543 -1.2193
  636MOL0     H85814   3.247  11.308  12.014 -1.2391 -0.8278 -3.0343
  636MOL0     H85815   3.298  11.185  12.139  0.7508  0.6143 -0.0230
  636MOL0     H85816   3.330  11.189  11.839 -0.3420  0.9811  0.3656
  636MOL0     H85817   3.293  11.030  11.909 -2.1417  0.3997  0.2416
  636MOL0     H85818   3.522  11.067  11.899  0.5747 -4.8605  2.6179
  636MOL0     H85819   3.457  11.035  12.063  0.5102 -0.5060 -1.1240
  636MOL0     H85820   3.684  10.991  12.041  0.6141 -1.5517  2.4823
  636MOL0     H85821   3.918  10.967  12.093  0.7297  0.7566  0.1253
  636MOL0     H85822   4.326  11.210  11.965  0.2591  2.1381 -1.6146
  636MOL0     H85823   4.572  11.226  11.970 -1.0876  0.1045 -0.4543
  636MOL0     H85824   4.769  11.318  11.963 -1.6536  0.7045 -0.7832
  636MOL0     H85825   4.718  11.478  12.015 -3.5872 -0.8415  2.1930
  636MOL0     H85826   4.944  11.501  12.004  0.4187  0.9995  0.7618
  636MOL0     H85827   4.921  11.458  12.172 -2.9383 -0.3892  0.1367
  636MOL0     H85828   5.095  11.341  12.132 -2.0054  1.9387  1.3087
  636MOL0     H85829   4.956  11.222  12.103 -1.7582  1.6609 -0.1790
  636MOL0     H85830   5.141  11.357  11.908  0.1687 -0.0120 -1.5719
  636MOL0     H85831   4.986  11.282  11.850  0.4802  0.9963  0.4668
  636MOL0     H85832   5.122  11.072  11.993  1.0202 -0.1132 -0.2733
  636MOL0     H85833   5.251  11.156  11.921  0.5192  1.6647  0.8189
  636MOL0     H85834   5.119  11.136  11.705 -0.3051 -0.4514  0.4006
  636MOL0     H85835   5.159  10.971  11.772  0.6286 -0.2018  1.4927
  636MOL0     H85836   4.926  10.973  11.670  3.4954 -0.1519 -0.9443
  636MOL0     H85837   4.891  11.107  11.786  0.3403 -0.1988 -0.6166
  636MOL0     H85838   4.989  10.825  11.874  0.6243  0.3886 -1.3219
  636MOL0     H85839   4.927  10.948  11.973 -0.4978 -2.0069  1.0045
  636MOL0     H85840   4.537  11.432  12.345 -1.2408 -0.3434  0.5527
  636MOL0     H85841   4.283  11.415  12.325  0.8005  0.7911 -1.2312
  636MOL0     H85842   3.922  11.398  12.178  1.7897 -0.6687 -0.2543
  636MOL0     H85843   3.686  11.407  12.116 -0.5305 -0.5707 -1.5722
  636MOL0     H85844   2.133  10.874  11.387  1.0504  1.8167  0.2695
  636MOL0     H85845   2.005  10.724  11.250  1.3181 -1.1057  1.4229
  636MOL0     H85846   1.688  10.488  11.231  0.2370 -1.4608 -1.0117
  636MOL0     H85847   1.551  10.291  11.218 -1.0955 -0.1818 -0.1696
  636MOL0     H85848   1.317  10.231  10.864  1.4911 -2.3312  0.2027
  636MOL0     H85849   1.173  10.312  10.937 -1.8797 -2.5188 -2.3868
  636MOL0     H85850   1.250  10.023  10.976  0.2165 -0.9727 -2.0300
  636MOL0     H85851   1.148  10.069  10.844  1.2391  2.8026 -1.1323
  636MOL0     H85852   1.002  10.199  11.011  2.6228  2.7151 -0.7516
  636MOL0     H85853   1.102  10.117  11.144  1.8898 -1.3919 -0.5337
  636MOL0     H85854   1.047   9.902  11.039 -1.1873 -1.3773 -0.5000
  636MOL0     H85855   0.911   9.976  11.118 -0.0416  1.5944  0.0684
  636MOL0     H85856   0.735   9.938  10.747  0.7507 -2.0318 -0.0690
  636MOL0     H85857   1.255  10.504  10.991 -0.1109  2.2311  1.0559
  636MOL0     H85858   1.496  10.758  10.908 -1.2360 -1.5810 -3.2444
  636MOL0     H85859   1.322  10.722  10.880  0.8589 -0.9983 -0.6426
  636MOL0     H85860   1.392  10.828  11.017  3.3017  1.8543 -1.3985
  637MOL0     O85861  11.020   9.386   1.620 -0.4079  0.7989  0.4990
  637MOL0     C85862  11.134   9.414   1.658  0.0287 -1.1551  0.2849
  637MOL0     O85863  11.249   9.371   1.598 -0.3273  0.4212 -0.5909
  637MOL0     C85864  11.237   9.295   1.485  0.4111  0.8692  0.4452
  637MOL0     C85865  11.200   9.343   1.358  0.0325 -0.9613  0.1332
  637MOL0     C85866  11.191   9.258   1.253 -0.1689  0.7569  0.1734
  637MOL0     C85867  11.211   9.115   1.271  0.8209 -0.9168 -0.1085
  637MOL0     O85868  11.200   9.025   1.175  0.3741  0.4301  0.5533
  637MOL0     C85869  11.112   9.042   1.064  0.4095  0.1639  0.2652
  637MOL0     C85870  11.151   8.925   0.974 -0.2445 -1.0054 -0.4863
  637MOL0     C85871  11.059   8.914   0.853 -0.5724  0.5897 -0.6923
  637MOL0     C85872  11.077   8.771   0.783  0.6096 -0.0326  0.0162
  637MOL0     C85873  11.019   8.751   0.641  0.2151 -0.2907 -0.1340
  637MOL0     C85874  11.093   8.639   0.567  0.3982  0.2988  0.3099
  637MOL0     C85875  11.028   8.632   0.431 -0.2629 -0.4099 -1.1959
  637MOL0     C85876  11.037   8.758   0.336  0.4961 -0.1261 -0.2267
  637MOL0     N85877  11.177   8.776   0.317  0.1423  0.4355  0.6614
  637MOL0     C85878  11.257   8.852   0.394 -0.5892  0.2062  0.3457
  637MOL0     C85879  11.379   8.807   0.359  0.1714  0.9166  0.0984
  637MOL0     C85880  11.516   8.838   0.420  0.1019 -1.0400  0.2043
  637MOL0     C85881  11.505   8.864   0.574 -0.2777 -0.6707  0.1178
  637MOL0     C85882  11.513   9.013   0.607  0.1053 -0.0655 -0.0785
  637MOL0     C85883  11.546   9.032   0.752 -0.8879  0.5137 -0.2568
  637MOL0     O85884  11.474   9.149   0.794 -0.0936 -0.0307  0.5623
  637MOL0     C85885  11.499   9.200   0.913 -0.7659  0.4394  0.1703
  637MOL0     C85886  11.598   9.149   1.004  0.7312 -0.1249 -0.3667
  637MOL0     C85887  11.620   9.228   1.116 -1.3298 -0.4462  0.3254
  637MOL0     C85888  11.546   9.343   1.151  0.5547  0.3054 -0.6402
  637MOL0     C85889  11.569   9.427   1.280 -0.0719 -0.7763  0.1727
  637MOL0     O85890  11.523   9.558   1.283 -0.1924 -0.6062  0.4116
  637MOL0     C85891  11.529   9.632   1.400  0.4238 -0.8782  0.3078
  637MOL0     C85892  11.427   9.727   1.418 -1.1976  0.1977  0.1911
  637MOL0     C85893  11.440   9.829   1.513  0.6826 -0.7930  0.0215
  637MOL0     C85894  11.550   9.833   1.597 -0.7183 -0.1027 -0.1856
  637MOL0     O85895  11.560   9.946   1.689 -0.5802  1.0190  0.3070
  637MOL0     C85896  11.666   9.962   1.788  1.0006  0.3735  0.0599
  637MOL0     C85897  11.699  10.100   1.829  0.1717  0.6059 -0.7157
  637MOL0     C85898  11.574  10.179   1.871 -0.0707 -0.0262  0.5300
  637MOL0     C85899  11.601  10.321   1.938  0.6789 -0.4971  0.3763
  637MOL0     C85900  11.675  10.304   2.074  0.0605 -0.5766 -0.0185
  637MOL0     C85901  11.683  10.445   2.155 -0.3706  0.3297  0.3266
  637MOL0     C85902  11.549  10.475   2.218  0.6078  0.1449  0.4522
  637MOL0     C85903  11.485  10.369   2.301  0.2913  0.1566 -0.2907
  637MOL0    Cl85904  11.606  10.311   2.426  0.0868 -0.6559 -0.1836
  637MOL0     C85905  11.646   9.729   1.580 -0.2101 -0.1698 -0.5699
  637MOL0     C85906  11.640   9.631   1.482  0.0267  0.4061 -0.7342
  637MOL0     O85907  11.622   9.362   1.375  0.4150  0.5899  0.7734
  637MOL0     C85908  11.461   9.386   1.052  0.4113 -0.0612 -0.3443
  637MOL0     C85909  11.428   9.321   0.931  0.0598  0.1962 -0.0406
  637MOL0     N85910  11.370   8.710   0.249  0.1595  0.5599 -0.7935
  637MOL0     N85911  11.244   8.689   0.234  0.0630  0.5792  0.1064
  637MOL0     C85912  11.241   9.068   1.393 -0.0799  0.3088 -0.2392
  637MOL0     C85913  11.261   9.157   1.496  0.7682  1.2917  0.4534
  637MOL0     C85914  11.142   9.518   1.758 -0.0246 -0.8454 -0.1857
  637MOL0     C85915  11.237   9.620   1.741  0.3673  0.4914  0.0291
  637MOL0     C85916  11.254   9.726   1.827 -0.8665 -0.3247  0.2920
  637MOL0     C85917  11.165   9.733   1.932 -0.1837  0.2965  0.2804
  637MOL0     O85918  11.154   9.844   2.012 -0.1985  0.3741 -0.2965
  637MOL0     C85919  11.267   9.917   2.064  0.1367  0.3750 -0.3052
  637MOL0     C85920  11.378   9.832   2.134 -0.8092 -0.0673 -0.6238
  637MOL0     C85921  11.313   9.757   2.259 -0.0189  0.1370 -0.0088
  637MOL0     C85922  11.410   9.654   2.305 -0.5701  0.6410  0.2310
  637MOL0     C85923  11.386   9.597   2.435 -0.2946 -0.0664  0.0050
  637MOL0     C85924  11.350   9.543   2.538 -0.3460 -0.3217  0.2841
  637MOL0     C85925  11.064   9.640   1.951 -0.4727  0.2995 -0.2951
  637MOL0     C85926  11.055   9.533   1.868 -0.0399 -0.4272 -0.8552
  637MOL0     C85927  10.944   9.434   1.899  0.4734  0.6408  0.1406
  637MOL0     H85928  11.163   9.445   1.362  1.0614 -0.5828  0.2917
  637MOL0     H85929  11.179   9.290   1.150 -0.4594 -2.4432 -0.9079
  637MOL0     H85930  11.008   9.024   1.094  0.7191 -1.9890  0.2444
  637MOL0     H85931  11.115   9.135   1.007  0.8051  0.5048  0.8241
  637MOL0     H85932  11.166   8.827   1.022 -1.8666 -0.4721  1.2132
  637MOL0     H85933  11.254   8.938   0.936  0.7953 -1.2438  2.0770
  637MOL0     H85934  11.073   8.996   0.782 -3.7909  2.0863  0.1835
  637MOL0     H85935  10.957   8.918   0.893 -1.0104 -1.1081 -1.5342
  637MOL0     H85936  11.187   8.771   0.779  0.6829  0.0776  1.3262
  637MOL0     H85937  11.045   8.696   0.856  1.6034 -0.7267 -0.2374
  637MOL0     H85938  10.910   8.738   0.648  0.2543 -1.9438 -1.8127
  637MOL0     H85939  11.045   8.850   0.603  3.5464 -1.0063  0.0058
  637MOL0     H85940  11.198   8.671   0.569  0.3146  0.5926  2.3020
  637MOL0     H85941  11.095   8.539   0.611 -3.8534  0.7474  1.9606
  637MOL0     H85942  10.920   8.615   0.438 -0.3583  0.8269  2.3957
  637MOL0     H85943  11.083   8.555   0.377  0.9949 -1.7766  1.7825
  637MOL0     H85944  10.972   8.735   0.251 -1.5196 -1.3991  1.5508
  637MOL0     H85945  11.000   8.849   0.382 -0.3050 -0.6666  0.2110
  637MOL0     H85946  11.234   8.922   0.474  1.6977  0.0120  1.2654
  637MOL0     H85947  11.595   8.766   0.397  2.4061  2.5945 -5.4159
  637MOL0     H85948  11.556   8.927   0.371  2.0884 -0.4951  2.5954
  637MOL0     H85949  11.406   8.832   0.607 -0.5117  1.7810  2.0324
  637MOL0     H85950  11.580   8.802   0.625  0.9568  1.4504  1.0083
  637MOL0     H85951  11.420   9.066   0.588  0.7263  1.1946  0.2389
  637MOL0     H85952  11.586   9.062   0.541  0.5229 -2.5121 -1.5496
  637MOL0     H85953  11.651   9.038   0.783 -1.9229 -0.1834  4.0193
  637MOL0     H85954  11.510   8.949   0.815 -0.5050 -0.7623 -1.6539
  637MOL0     H85955  11.650   9.055   0.989  1.3599  0.2314 -0.4282
  637MOL0     H85956  11.695   9.188   1.184 -0.0346  3.1333  1.2374
  637MOL0     H85957  11.342   9.715   1.351 -0.1329 -2.1605 -0.8223
  637MOL0     H85958  11.359   9.901   1.521  1.3418 -0.2117  2.2719
  637MOL0     H85959  11.642   9.900   1.874 -1.5499  0.2776 -0.6480
  637MOL0     H85960  11.763   9.925   1.754 -1.1263 -2.4906 -3.6443
  637MOL0     H85961  11.763  10.090   1.917 -0.7819  0.8343  0.0093
  637MOL0     H85962  11.757  10.152   1.751  3.8342 -0.7832  0.8285
  637MOL0     H85963  11.527  10.195   1.774  0.5036  0.8409  0.3830
  637MOL0     H85964  11.502  10.129   1.936 -3.2617  2.0480 -1.1414
  637MOL0     H85965  11.501  10.363   1.956  0.1667 -0.6143 -1.8910
  637MOL0     H85966  11.656  10.385   1.869  2.2487 -0.0744  1.9487
  637MOL0     H85967  11.776  10.273   2.045  0.1515 -0.5954  0.3143
  637MOL0     H85968  11.625  10.221   2.125 -0.2984 -0.2303  0.1999
  637MOL0     H85969  11.760  10.426   2.230  1.9399 -2.7434 -2.5552
  637MOL0     H85970  11.722  10.524   2.091 -2.6743  0.4822 -0.9899
  637MOL0     H85971  11.478  10.506   2.142  2.0782  0.7133 -0.7431
  637MOL0     H85972  11.562  10.558   2.288 -2.6035 -1.0030  2.6290
  637MOL0     H85973  11.399  10.420   2.345 -0.1178  0.2949 -1.2287
  637MOL0     H85974  11.435  10.290   2.245  0.1977  0.4304 -0.5975
  637MOL0     H85975  11.733   9.725   1.645  0.0215  1.3123 -0.7637
  637MOL0     H85976  11.718   9.559   1.458 -1.3869 -2.6114  2.6954
  637MOL0     H85977  11.416   9.483   1.068 -1.8741 -0.6579 -2.5356
  637MOL0     H85978  11.363   9.374   0.863  0.1411  3.8014  2.4292
  637MOL0     H85979  11.255   8.961   1.403 -0.5097  0.2100 -0.6451
  637MOL0     H85980  11.292   9.112   1.590 -1.9002 -0.2170  0.7404
  637MOL0     H85981  11.296   9.613   1.650  1.2712 -1.3111  0.7155
  637MOL0     H85982  11.328   9.800   1.799  0.8212 -2.2492 -0.5742
  637MOL0     H85983  11.236   9.988   2.141  2.8236 -0.0254  1.2384
  637MOL0     H85984  11.310   9.979   1.986  0.7490  0.6238  0.2227
  637MOL0     H85985  11.455   9.901   2.169 -2.7023  2.4362 -1.1408
  637MOL0     H85986  11.433   9.764   2.069 -1.2391  1.8670 -3.1448
  637MOL0     H85987  11.220   9.703   2.239  0.0682  0.6201 -1.9117
  637MOL0     H85988  11.284   9.832   2.334 -1.9131  0.3296 -0.8835
  637MOL0     H85989  11.427   9.566   2.242  0.7058 -0.5292  2.0668
  637MOL0     H85990  11.512   9.693   2.314  0.7107 -2.2735 -0.5339
  637MOL0     H85991  11.322   9.500   2.632 -1.6486  2.1276  1.1199
  637MOL0     H85992  11.014   9.640   2.047 -1.2480 -1.7363 -0.6441
  637MOL0     H85993  10.976   9.331   1.878  0.0020  0.3520  0.8193
  637MOL0     H85994  10.898   9.443   1.997  0.9324 -2.8303  0.7994
  637MOL0     H85995  10.868   9.454   1.823  1.6800 -1.2387 -1.7059
  638MOL0     O85996   0.663   4.023   1.531 -0.1373 -0.1552 -0.0290
  638MOL0     C85997   0.710   3.960   1.430  1.1884 -0.8970 -0.2637
  638MOL0     O85998   0.831   3.904   1.417 -0.7460  0.0023  0.5917
  638MOL0     C85999   0.866   3.831   1.528 -0.2928  0.0370  0.6015
  638MOL0     C86000   0.823   3.697   1.535  0.5467 -0.7453  0.4103
  638MOL0     C86001   0.878   3.618   1.641 -0.0683 -0.3514 -0.1269
  638MOL0     C86002   0.976   3.666   1.730 -0.1274  0.3350 -0.3915
  638MOL0     O86003   1.029   3.591   1.840 -1.0521 -0.8466  0.3087
  638MOL0     C86004   1.078   3.460   1.818 -0.2799  0.0294 -0.5046
  638MOL0     C86005   1.202   3.422   1.905  0.8119 -0.5344  0.0036
  638MOL0     C86006   1.319   3.515   1.875  0.6103 -0.1425  0.2622
  638MOL0     C86007   1.414   3.503   1.996  0.7529  1.0607 -0.2617
  638MOL0     C86008   1.553   3.563   1.980 -0.1763 -0.4781 -0.3672
  638MOL0     C86009   1.555   3.715   1.969  0.6446 -0.7726 -0.7039
  638MOL0     C86010   1.681   3.787   2.017  0.9928  1.0904 -0.5654
  638MOL0     C86011   1.805   3.721   1.972 -0.3335 -0.4502  0.6097
  638MOL0     N86012   1.832   3.722   1.828  0.6133 -0.1489 -0.6608
  638MOL0     C86013   1.874   3.822   1.756 -0.3797 -0.3121 -0.3272
  638MOL0     C86014   1.866   3.777   1.629  0.2025  0.1896 -0.1706
  638MOL0     C86015   1.901   3.869   1.516 -0.1432 -0.7050  0.5338
  638MOL0     C86016   2.054   3.850   1.479 -0.1628  0.1556  0.3218
  638MOL0     C86017   2.084   3.697   1.459  0.5302  0.4874 -0.3758
  638MOL0     C86018   2.192   3.667   1.360  0.9136 -0.0733 -0.0983
  638MOL0     O86019   2.315   3.728   1.406  0.7446 -0.2621 -0.1668
  638MOL0     C86020   2.425   3.730   1.323  0.5621  1.2416  0.6053
  638MOL0     C86021   2.519   3.831   1.334  0.7261 -0.4229  0.1929
  638MOL0     C86022   2.621   3.843   1.239 -0.0732 -0.8375 -0.7333
  638MOL0     C86023   2.643   3.756   1.135  0.1278  0.4279  0.6367
  638MOL0     C86024   2.754   3.774   1.043  0.9513 -1.0632  0.3594
  638MOL0     O86025   2.814   3.659   1.009 -0.6031 -0.1208 -0.5520
  638MOL0     C86026   2.930   3.646   0.933 -0.9416  0.3456  0.1766
  638MOL0     C86027   3.028   3.747   0.922 -0.6513  0.1251  0.1799
  638MOL0     C86028   3.150   3.720   0.855 -0.3199  0.4726 -0.0253
  638MOL0     C86029   3.173   3.592   0.810  0.2896 -0.2085  0.7442
  638MOL0     O86030   3.293   3.569   0.751 -0.4245  0.6614  0.2694
  638MOL0     C86031   3.321   3.615   0.620  0.4604  0.1067  0.6996
  638MOL0     C86032   3.470   3.628   0.593  0.1312  0.0453 -0.3055
  638MOL0     C86033   3.491   3.680   0.448 -0.0556  0.5188 -0.0688
  638MOL0     C86034   3.461   3.568   0.349  0.4154  0.6542 -0.2508
  638MOL0     C86035   3.491   3.591   0.203  0.5096 -0.3418 -0.0415
  638MOL0     C86036   3.637   3.567   0.164  0.6688 -0.1702  0.2153
  638MOL0     C86037   3.696   3.419   0.163  0.1309 -1.0099  0.3615
  638MOL0     C86038   3.839   3.430   0.106 -0.8056 -0.4530  0.8320
  638MOL0    Cl86039   3.952   3.567   0.172 -0.2022  0.2697 -0.6693
  638MOL0     C86040   3.069   3.495   0.810  0.5862  0.4754  0.3949
  638MOL0     C86041   2.953   3.524   0.877 -0.2158 -1.2229  0.2719
  638MOL0     O86042   2.783   3.886   1.005 -0.6638 -0.3658 -0.1023
  638MOL0     C86043   2.552   3.647   1.130 -0.0460 -0.1364  0.2347
  638MOL0     C86044   2.450   3.635   1.221 -0.5694 -0.0425  0.5462
  638MOL0     N86045   1.817   3.652   1.627 -0.6989  0.3699 -0.5972
  638MOL0     N86046   1.804   3.615   1.748 -0.3592 -0.2692  0.5625
  638MOL0     C86047   1.003   3.806   1.727 -0.4589 -0.3172 -0.5817
  638MOL0     C86048   0.943   3.888   1.634  0.4445  0.7816 -0.3018
  638MOL0     C86049   0.629   3.968   1.303 -0.0691 -0.2340 -0.4278
  638MOL0     C86050   0.699   3.950   1.192  0.1974 -0.8425  0.1352
  638MOL0     C86051   0.640   3.960   1.069 -0.7565 -0.3099  0.5786
  638MOL0     C86052   0.509   4.006   1.052  0.0675 -0.6310  0.0139
  638MOL0     O86053   0.439   4.027   0.939  0.3574 -0.3916  0.3727
  638MOL0     C86054   0.434   4.172   0.908  0.3708 -0.1509  0.7933
  638MOL0     C86055   0.444   4.213   0.774 -0.2231  0.8839 -0.0793
  638MOL0     C86056   0.310   4.189   0.702  0.2802  0.1309 -0.5061
  638MOL0     C86057   0.319   4.234   0.557 -0.2960 -0.1000  0.9372
  638MOL0     C86058   0.187   4.235   0.502  0.5159 -0.3783 -0.5032
  638MOL0     C86059   0.075   4.276   0.464  0.2879  1.1045 -0.3487
  638MOL0     C86060   0.446   4.040   1.177 -0.1459 -0.3129  0.8322
  638MOL0     C86061   0.493   4.000   1.296  0.7616 -0.0912  0.4558
  638MOL0     C86062   0.397   4.021   1.416  0.3081  0.0298  0.5626
  638MOL0     H86063   0.759   3.654   1.459 -1.4175 -0.7391  1.9743
  638MOL0     H86064   0.836   3.517   1.640 -3.7521  1.0047 -2.1897
  638MOL0     H86065   1.000   3.385   1.835  0.7890 -1.0076 -0.0016
  638MOL0     H86066   1.102   3.452   1.712  2.6295 -0.2962  0.1134
  638MOL0     H86067   1.228   3.319   1.880 -0.5017 -0.8536 -0.1379
  638MOL0     H86068   1.166   3.417   2.008  2.4968  2.2420  0.8325
  638MOL0     H86069   1.279   3.616   1.861  1.1680  0.0533  0.0670
  638MOL0     H86070   1.374   3.481   1.787  1.2243 -2.1924  1.3597
  638MOL0     H86071   1.357   3.537   2.083 -0.2211  0.7838 -0.7769
  638MOL0     H86072   1.431   3.395   2.000 -1.1083  0.7800  1.7552
  638MOL0     H86073   1.615   3.524   2.062  1.9954  1.1215 -1.1534
  638MOL0     H86074   1.597   3.532   1.885  3.5219  1.6646  0.4459
  638MOL0     H86075   1.547   3.743   1.864  2.3314 -1.4196 -1.0446
  638MOL0     H86076   1.473   3.765   2.020  1.6302  0.4176 -0.2334
  638MOL0     H86077   1.682   3.783   2.127  3.6865  1.0029 -0.5262
  638MOL0     H86078   1.682   3.895   2.001  1.2354  1.6841  2.7734
  638MOL0     H86079   1.893   3.758   2.024 -0.0414 -1.5525  0.9224
  638MOL0     H86080   1.790   3.616   1.995 -2.1680 -0.4723 -0.4687
  638MOL0     H86081   1.906   3.920   1.789  3.2694 -1.7007  0.8046
  638MOL0     H86082   1.844   3.849   1.425 -1.0439 -0.5915  1.0608
  638MOL0     H86083   1.890   3.972   1.553  1.7292 -1.1744  2.5769
  638MOL0     H86084   2.072   3.916   1.393  1.4643 -0.8039 -0.1223
  638MOL0     H86085   2.122   3.884   1.558  1.1434  3.0181 -1.8285
  638MOL0     H86086   1.998   3.643   1.418 -0.9821  1.0188  1.8878
  638MOL0     H86087   2.102   3.666   1.563  1.7762  3.2646  0.3200
  638MOL0     H86088   2.159   3.714   1.267 -1.7478 -2.3152 -0.4181
  638MOL0     H86089   2.197   3.558   1.354  2.6137 -0.0887  0.9165
  638MOL0     H86090   2.507   3.909   1.409 -1.1686  0.6882 -1.1743
  638MOL0     H86091   2.690   3.925   1.254 -3.0043  1.7495 -0.5396
  638MOL0     H86092   3.022   3.841   0.976  0.2473 -0.9504  2.2313
  638MOL0     H86093   3.234   3.786   0.839  1.2646 -0.9855  1.7142
  638MOL0     H86094   3.276   3.547   0.547 -0.2764  2.3786 -1.0658
  638MOL0     H86095   3.286   3.718   0.610 -2.4550 -0.9135 -0.6254
  638MOL0     H86096   3.510   3.700   0.665 -2.7901 -1.0902  2.7515
  638MOL0     H86097   3.511   3.528   0.613  0.5445  0.0483 -1.1022
  638MOL0     H86098   3.444   3.775   0.419  5.3840  3.1642 -1.6183
  638MOL0     H86099   3.599   3.690   0.435  0.3735  1.7707  3.4126
  638MOL0     H86100   3.354   3.545   0.353  0.4333  0.4868 -0.6628
  638MOL0     H86101   3.519   3.481   0.382  1.1374  0.7995 -1.0886
  638MOL0     H86102   3.456   3.693   0.187 -0.2976 -0.4925  0.6978
  638MOL0     H86103   3.434   3.513   0.152  1.7320 -1.6936  0.5774
  638MOL0     H86104   3.649   3.605   0.063 -0.8420  0.1176  0.1217
  638MOL0     H86105   3.698   3.631   0.230 -0.2039  1.4343 -0.4830
  638MOL0     H86106   3.629   3.362   0.098 -0.9068 -0.6324  1.0881
  638MOL0     H86107   3.693   3.387   0.267  0.2686  3.8599  2.1231
  638MOL0     H86108   3.891   3.333   0.110 -1.8164 -1.0218  0.6526
  638MOL0     H86109   3.833   3.449  -0.001  1.4688 -2.2428  0.2899
  638MOL0     H86110   3.086   3.401   0.758 -0.3806  0.3289  0.3185
  638MOL0     H86111   2.873   3.451   0.879 -1.5055 -0.2891 -4.2109
  638MOL0     H86112   2.563   3.571   1.053 -2.4464  0.8400 -1.2013
  638MOL0     H86113   2.371   3.563   1.201 -2.5078  2.0769  0.2507
  638MOL0     H86114   1.060   3.847   1.810 -0.0159  2.6976 -2.2339
  638MOL0     H86115   0.965   3.994   1.628 -1.6338  1.1923 -3.1558
  638MOL0     H86116   0.802   3.917   1.200  0.4108  0.0447  1.2923
  638MOL0     H86117   0.700   3.952   0.980  2.2147  1.3316  2.2620
  638MOL0     H86118   0.515   4.220   0.963 -0.8593  0.3168  2.2767
  638MOL0     H86119   0.350   4.225   0.954  0.0150 -1.2497  1.4444
  638MOL0     H86120   0.524   4.152   0.731 -0.0709 -2.1629  4.0084
  638MOL0     H86121   0.466   4.321   0.773  0.2693  0.8698  2.4600
  638MOL0     H86122   0.236   4.247   0.758  2.0353  2.2563 -0.2383
  638MOL0     H86123   0.282   4.084   0.704 -0.9356  0.4471  0.1810
  638MOL0     H86124   0.370   4.330   0.552  1.0278 -0.8278 -2.1903
  638MOL0     H86125   0.382   4.154   0.515 -0.2947 -0.2564  1.2369
  638MOL0     H86126  -0.006   4.322   0.411  1.9979  2.8066 -1.5927
  638MOL0     H86127   0.348   4.084   1.161 -0.5174 -1.2310  0.5653
  638MOL0     H86128   0.412   4.125   1.444  1.7723  1.1133 -3.4653
  638MOL0     H86129   0.295   4.012   1.378  1.1229 -2.6743 -1.3464
  638MOL0     H86130   0.404   3.946   1.495 -0.7756  2.6679  3.3589
  639MOL0     O86131   6.139   2.628   1.083  0.0121  0.3481  0.7109
  639MOL0     C86132   6.095   2.591   1.188 -0.0708 -0.4711  0.0699
  639MOL0     O86133   6.172   2.583   1.296 -0.1720  0.0153 -0.1145
  639MOL0     C86134   6.293   2.649   1.293 -0.7802  0.0741  0.0679
  639MOL0     C86135   6.411   2.569   1.312  0.0340  0.7427  0.5276
  639MOL0     C86136   6.533   2.635   1.313 -0.4244  0.4974  0.2219
  639MOL0     C86137   6.550   2.772   1.314 -0.1554 -0.4868  0.2012
  639MOL0     O86138   6.673   2.829   1.313  0.0388  0.1793  0.1856
  639MOL0     C86139   6.775   2.754   1.372 -0.0498  0.0397 -0.6781
  639MOL0     C86140   6.891   2.849   1.386 -0.9346 -1.0912  0.1209
  639MOL0     C86141   6.989   2.802   1.490 -0.1089 -0.3768 -0.4888
  639MOL0     C86142   7.119   2.895   1.485 -0.1636 -0.1127 -0.8055
  639MOL0     C86143   7.229   2.839   1.573 -0.2658  0.0271 -0.6337
  639MOL0     C86144   7.353   2.926   1.581 -0.1470 -0.6113  0.1606
  639MOL0     C86145   7.459   2.905   1.682  0.2775 -0.2132 -0.4272
  639MOL0     C86146   7.431   2.983   1.811 -0.3894 -0.7572 -0.8126
  639MOL0     N86147   7.520   2.946   1.919  0.0247 -0.0848  0.1458
  639MOL0     C86148   7.591   3.037   1.994 -0.7384 -0.8313  0.6118
  639MOL0     C86149   7.667   2.949   2.073  0.2733 -0.0238 -0.4372
  639MOL0     C86150   7.716   2.989   2.207 -0.1564 -0.1670 -0.0954
  639MOL0     C86151   7.869   2.967   2.227  0.1148 -0.3287  0.5357
  639MOL0     C86152   7.942   3.021   2.105 -0.3907 -0.1928 -0.4608
  639MOL0     C86153   8.091   3.039   2.137 -0.1950  0.0317  0.3923
  639MOL0     O86154   8.143   2.919   2.201 -0.4081  0.4597  0.9548
  639MOL0     C86155   8.274   2.920   2.215 -0.4458  0.2692  1.4494
  639MOL0     C86156   8.359   2.908   2.106 -0.2505 -0.7950 -0.3366
  639MOL0     C86157   8.488   2.914   2.139 -0.0181 -0.4649  0.3888
  639MOL0     C86158   8.539   2.915   2.266  0.2516  0.3149 -0.0179
  639MOL0     C86159   8.686   2.924   2.284 -0.2075  0.4627 -0.6972
  639MOL0     O86160   8.754   2.884   2.175  0.1602 -0.1473 -0.4809
  639MOL0     C86161   8.887   2.915   2.168 -0.4234  1.1177 -0.3096
  639MOL0     C86162   8.956   2.808   2.102  0.5689 -0.5101 -0.2711
  639MOL0     C86163   9.093   2.824   2.084 -0.3109 -0.0754  0.1384
  639MOL0     C86164   9.159   2.938   2.131 -0.0959  0.0650  0.3769
  639MOL0     O86165   9.293   2.956   2.137 -0.1818 -0.7039  0.6245
  639MOL0     C86166   9.375   2.840   2.121  0.6816  0.1592  0.9092
  639MOL0     C86167   9.520   2.894   2.117 -0.2224 -0.1274 -0.1991
  639MOL0     C86168   9.618   2.805   2.044 -0.5063 -0.1906 -0.4697
  639MOL0     C86169   9.759   2.858   2.073 -1.0400 -0.1695 -0.1203
  639MOL0     C86170   9.883   2.760   2.070  0.5415  0.1712 -0.1511
  639MOL0     C86171  10.015   2.832   2.114 -1.4019 -0.5712  0.2721
  639MOL0     C86172  10.078   2.934   2.013 -0.3913  0.1753 -0.1431
  639MOL0     C86173  10.207   3.006   2.082  0.1921  0.4179  0.0509
  639MOL0    Cl86174  10.166   3.157   2.166  0.1027 -0.4032 -0.3401
  639MOL0     C86175   9.091   3.040   2.195  0.6637  0.7030 -0.3434
  639MOL0     C86176   8.952   3.028   2.210  0.6370 -0.4878  0.0521
  639MOL0     O86177   8.731   2.953   2.395  0.2785 -0.1584  0.4241
  639MOL0     C86178   8.442   2.904   2.372 -0.1563 -0.2105  0.0043
  639MOL0     C86179   8.311   2.921   2.349 -0.2387  0.0142 -0.9013
  639MOL0     N86180   7.657   2.818   2.024 -0.2223  0.5156  0.1048
  639MOL0     N86181   7.562   2.818   1.938 -0.4089 -0.2494  0.3004
  639MOL0     C86182   6.432   2.842   1.310  0.6839  0.1916 -0.8421
  639MOL0     C86183   6.301   2.790   1.298 -1.1109  0.3890  0.5189
  639MOL0     C86184   5.956   2.533   1.194 -0.0099 -0.7209 -0.6185
  639MOL0     C86185   5.913   2.486   1.318  0.0602 -0.2813  0.8568
  639MOL0     C86186   5.778   2.447   1.335  0.5138  0.0595  0.0881
  639MOL0     C86187   5.687   2.438   1.227  1.3344 -0.2992  0.5068
  639MOL0     O86188   5.570   2.364   1.247  0.0281 -0.1168 -0.8427
  639MOL0     C86189   5.473   2.317   1.151  0.5308 -0.4923 -0.0078
  639MOL0     C86190   5.342   2.389   1.150  0.4240 -0.2380 -0.1121
  639MOL0     C86191   5.246   2.361   1.266  0.7053 -0.2754  0.4533
  639MOL0     C86192   5.137   2.262   1.220  0.2820 -0.2747 -0.0417
  639MOL0     C86193   5.053   2.230   1.334  0.8064 -0.4519  0.1127
  639MOL0     C86194   4.996   2.202   1.441  0.6263 -1.2355  0.4544
  639MOL0     C86195   5.734   2.476   1.100  0.0243  0.4912  0.2509
  639MOL0     C86196   5.864   2.528   1.086  0.5214  1.0873  0.1278
  639MOL0     C86197   5.883   2.593   0.953  1.6944  0.0162 -0.2856
  639MOL0     H86198   6.402   2.461   1.306 -4.9167  0.8806  0.8048
  639MOL0     H86199   6.623   2.574   1.312 -0.9456 -0.2873  0.1930
  639MOL0     H86200   6.739   2.726   1.472 -0.1454  0.3963 -0.6128
  639MOL0     H86201   6.804   2.670   1.309  2.7755  0.7969 -0.5010
  639MOL0     H86202   6.858   2.951   1.409  1.0958 -0.0156 -1.4120
  639MOL0     H86203   6.936   2.852   1.287 -0.2461 -1.2547  0.4251
  639MOL0     H86204   7.015   2.700   1.460 -2.6394 -1.0481 -0.5820
  639MOL0     H86205   6.944   2.799   1.589 -0.7609 -3.8594 -0.7648
  639MOL0     H86206   7.154   2.909   1.383  0.9651 -1.1825 -0.5900
  639MOL0     H86207   7.106   2.998   1.520  1.7268 -0.2565  0.4996
  639MOL0     H86208   7.195   2.817   1.675  0.9272 -0.2408 -0.2828
  639MOL0     H86209   7.266   2.747   1.528  1.0400  0.1941  0.0663
  639MOL0     H86210   7.401   2.920   1.483 -1.5533 -0.2177 -0.5757
  639MOL0     H86211   7.319   3.030   1.587  0.3170 -0.3546 -1.3376
  639MOL0     H86212   7.558   2.926   1.639 -0.8286  2.0427 -2.1285
  639MOL0     H86213   7.463   2.799   1.706  0.2830  0.0795  0.9121
  639MOL0     H86214   7.441   3.091   1.800 -1.5295 -0.7886 -2.6750
  639MOL0     H86215   7.329   2.963   1.846 -0.3880 -1.0408 -0.9664
  639MOL0     H86216   7.574   3.143   2.008 -0.4247 -1.0330  2.8353
  639MOL0     H86217   7.690   3.092   2.232  2.3305  0.9080 -1.6316
  639MOL0     H86218   7.669   2.918   2.276  1.3218  0.1373  1.2860
  639MOL0     H86219   7.902   3.023   2.315  0.1780  1.0664 -0.3375
  639MOL0     H86220   7.903   2.863   2.226  1.7511  0.1731  0.3038
  639MOL0     H86221   7.914   3.124   2.084 -0.2728 -0.5054 -2.2797
  639MOL0     H86222   7.931   2.968   2.010 -0.4924 -0.6093 -0.2199
  639MOL0     H86223   8.100   3.130   2.197 -2.8579  1.7145 -1.5494
  639MOL0     H86224   8.141   3.061   2.043 -0.5779  2.6849  0.7445
  639MOL0     H86225   8.332   2.920   2.002  0.1329  0.4563 -0.3117
  639MOL0     H86226   8.564   2.912   2.062 -0.0885 -0.9722  0.3277
  639MOL0     H86227   8.905   2.720   2.066  0.0361 -1.0023  1.5937
  639MOL0     H86228   9.150   2.749   2.031  0.2929  0.3154  0.2204
  639MOL0     H86229   9.363   2.763   2.197 -0.7954  1.2387  1.8218
  639MOL0     H86230   9.355   2.809   2.018  2.1125  2.2337 -0.0814
  639MOL0     H86231   9.525   2.987   2.060  1.2372 -1.3404 -2.1611
  639MOL0     H86232   9.545   2.913   2.222 -1.1863  0.1537 -0.0057
  639MOL0     H86233   9.600   2.703   2.081 -0.5799  0.2392  0.7238
  639MOL0     H86234   9.595   2.808   1.937 -0.0327 -0.9576 -0.6053
  639MOL0     H86235   9.753   2.901   2.173  2.9929  3.8623 -1.2916
  639MOL0     H86236   9.790   2.941   2.010 -1.5245  0.2944  0.2495
  639MOL0     H86237   9.893   2.719   1.969  1.1183 -0.6269  0.2160
  639MOL0     H86238   9.874   2.679   2.143  2.8333  1.0094  1.1742
  639MOL0     H86239  10.007   2.873   2.215 -0.1916 -0.4792  0.3402
  639MOL0     H86240  10.094   2.758   2.129 -0.8145 -0.0377 -0.1387
  639MOL0     H86241  10.007   3.012   1.989  1.1362  1.5543 -0.3627
  639MOL0     H86242  10.106   2.875   1.925 -0.6108  0.8223 -0.6493
  639MOL0     H86243  10.256   2.929   2.142  1.4969  1.4699  0.3892
  639MOL0     H86244  10.281   3.019   2.002  1.7177 -0.0693  1.3247
  639MOL0     H86245   9.147   3.129   2.224  4.0851 -0.7787 -1.8382
  639MOL0     H86246   8.890   3.106   2.253  0.4156 -1.1253  0.9316
  639MOL0     H86247   8.490   2.891   2.468 -1.4312  3.7305  1.3589
  639MOL0     H86248   8.241   2.919   2.431 -1.0874 -1.6429 -1.6374
  639MOL0     H86249   6.437   2.949   1.289  0.1983  0.8016  1.7491
  639MOL0     H86250   6.213   2.846   1.268 -0.1751  1.1351 -0.9659
  639MOL0     H86251   5.972   2.476   1.409  1.7553 -0.7232 -0.2459
  639MOL0     H86252   5.758   2.413   1.436  3.0174 -0.4057  0.4907
  639MOL0     H86253   5.448   2.214   1.176 -3.5038  0.5895  1.0524
  639MOL0     H86254   5.508   2.324   1.047 -0.2280  1.8239 -0.1688
  639MOL0     H86255   5.299   2.380   1.050  0.0285  3.2057 -0.3723
  639MOL0     H86256   5.360   2.496   1.162  4.6434 -0.8554  0.7226
  639MOL0     H86257   5.206   2.454   1.307 -1.3839 -0.0727 -1.8592
  639MOL0     H86258   5.302   2.317   1.349 -2.2130 -3.1737  1.1001
  639MOL0     H86259   5.071   2.301   1.141  1.5950  2.6085  0.1387
  639MOL0     H86260   5.179   2.165   1.192 -0.1156  0.4320 -3.6393
  639MOL0     H86261   4.951   2.177   1.535  1.8768 -2.8735  0.6621
  639MOL0     H86262   5.666   2.464   1.016  1.0004  0.7441 -0.6063
  639MOL0     H86263   5.791   2.603   0.893  0.5738 -1.4313  1.0796
  639MOL0     H86264   5.908   2.694   0.986  0.5592  0.4063 -0.5719
  639MOL0     H86265   5.968   2.558   0.894  1.7316  0.9135 -0.7799
  640MOL0     O86266   0.317   1.496   2.304 -0.5209  0.5752  0.2367
  640MOL0     C86267   0.336   1.607   2.352  0.5802 -0.0888  0.4455
  640MOL0     O86268   0.402   1.706   2.281  0.9945  0.3425  0.7553
  640MOL0     C86269   0.481   1.684   2.168  0.8080  0.1027  0.4562
  640MOL0     C86270   0.562   1.785   2.136  0.9531 -1.0273 -0.8418
  640MOL0     C86271   0.652   1.773   2.033 -0.3186  0.2518  0.1272
  640MOL0     C86272   0.661   1.660   1.950 -0.0955 -1.2061  0.4428
  640MOL0     O86273   0.750   1.667   1.838  0.3254 -0.2012 -0.6616
  640MOL0     C86274   0.784   1.537   1.772  0.4033  0.0732 -0.9395
  640MOL0     C86275   0.903   1.566   1.691 -0.7555 -0.1194 -0.2858
  640MOL0     C86276   0.860   1.674   1.593 -0.3088 -0.8303  0.2067
  640MOL0     C86277   0.955   1.680   1.470  0.3971 -1.0199  0.3885
  640MOL0     C86278   0.911   1.761   1.347  0.9188  0.7049  0.0244
  640MOL0     C86279   0.869   1.905   1.389  0.3604  0.0776  0.3975
  640MOL0     C86280   0.842   1.985   1.265  0.3793 -0.8458 -0.2478
  640MOL0     C86281   0.877   2.137   1.283  0.2370  0.0674  0.8635
  640MOL0     N86282   0.800   2.193   1.393 -0.2612  1.0496 -1.1074
  640MOL0     C86283   0.858   2.268   1.498  0.2028  0.5266  0.7992
  640MOL0     C86284   0.741   2.320   1.559  0.5326 -0.6656 -0.0157
  640MOL0     C86285   0.740   2.411   1.687 -0.1460 -0.0566 -0.2272
  640MOL0     C86286   0.675   2.546   1.658  0.3169 -0.8920 -0.2053
  640MOL0     C86287   0.523   2.534   1.682 -0.2810  0.5646  0.3782
  640MOL0     C86288   0.442   2.658   1.640 -0.5480  0.0705  0.2787
  640MOL0     O86289   0.471   2.683   1.502  0.7588  0.0899 -0.4339
  640MOL0     C86290   0.418   2.803   1.446 -0.6611  0.8852  0.4186
  640MOL0     C86291   0.480   2.856   1.333  0.0525 -0.3329 -0.8335
  640MOL0     C86292   0.426   2.962   1.256 -0.2875  0.1116  0.2759
  640MOL0     C86293   0.305   3.009   1.301 -0.9571  0.0458  0.5080
  640MOL0     C86294   0.230   3.112   1.237  0.2939 -0.8311 -0.1986
  640MOL0     O86295   0.097   3.107   1.230 -0.0968  0.2145  0.3626
  640MOL0     C86296   0.050   3.193   1.134  0.8630 -0.1514  0.1857
  640MOL0     C86297   0.062   3.329   1.155  0.0772 -0.4098 -0.5284
  640MOL0     C86298  -0.001   3.424   1.082  0.6635 -0.0223  0.6532
  640MOL0     C86299  -0.074   3.387   0.963  0.0378  0.7027  0.1667
  640MOL0     O86300  -0.126   3.477   0.874  0.3847  0.3435 -0.7003
  640MOL0     C86301  -0.126   3.618   0.903 -0.0483  0.4163 -0.0850
  640MOL0     C86302  -0.232   3.693   0.821  0.2679 -0.4859  0.4536
  640MOL0     C86303  -0.205   3.680   0.675  0.5110  0.3751 -0.1588
  640MOL0     C86304  -0.269   3.790   0.594 -0.7977  0.6181 -0.3080
  640MOL0     C86305  -0.207   3.925   0.609 -1.0411  0.0482  0.3627
  640MOL0     C86306  -0.228   4.025   0.492 -0.5820  0.0500 -0.9469
  640MOL0     C86307  -0.374   4.055   0.468 -0.7137 -0.5628 -0.0282
  640MOL0     C86308  -0.391   4.164   0.368 -0.5777  0.6066 -1.3056
  640MOL0    Cl86309  -0.351   4.103   0.211  0.2699  0.0579 -0.5473
  640MOL0     C86310  -0.078   3.244   0.930  0.0607 -0.8104  0.3107
  640MOL0     C86311  -0.022   3.148   1.017  0.0292 -0.3024 -0.7507
  640MOL0     O86312   0.297   3.200   1.196 -0.2456 -0.5295 -0.0599
  640MOL0     C86313   0.247   2.965   1.416 -0.3253  0.0155 -0.1120
  640MOL0     C86314   0.294   2.864   1.491  0.1426  0.4159  0.3504
  640MOL0     N86315   0.630   2.276   1.492 -0.0285 -0.2682 -0.5580
  640MOL0     N86316   0.666   2.198   1.399 -0.1594 -0.5675  0.3726
  640MOL0     C86317   0.576   1.558   1.968  0.3008 -0.2366 -0.0349
  640MOL0     C86318   0.489   1.568   2.078 -0.3142  0.4849 -0.0087
  640MOL0     C86319   0.253   1.636   2.467 -0.0534 -0.2758  0.7518
  640MOL0     C86320   0.119   1.593   2.472 -0.1034 -0.3104  0.1190
  640MOL0     C86321   0.032   1.634   2.576 -0.1821 -0.4672 -0.4349
  640MOL0     C86322   0.087   1.725   2.673  0.0164 -0.3437  0.3220
  640MOL0     O86323   0.005   1.752   2.780  0.0030 -0.6124 -0.4331
  640MOL0     C86324   0.040   1.849   2.879  1.0895 -0.8486 -0.1936
  640MOL0     C86325  -0.044   1.973   2.880  0.4071  0.6225  1.1727
  640MOL0     C86326  -0.199   1.952   2.877 -0.2221 -0.0885 -0.0534
  640MOL0     C86327  -0.248   1.872   2.999  0.7250 -0.0647  0.7688
  640MOL0     C86328  -0.386   1.906   3.038 -0.4654 -1.1152 -0.2208
  640MOL0     C86329  -0.496   1.927   3.066  0.3936 -0.2582  0.5838
  640MOL0     C86330   0.219   1.770   2.656  0.4207  0.1611 -0.0671
  640MOL0     C86331   0.297   1.725   2.558 -1.0911 -0.1273  0.6093
  640MOL0     C86332   0.446   1.752   2.564  0.1269 -0.6296  0.2092
  640MOL0     H86333   0.568   1.880   2.187 -1.3535 -0.9396 -0.6525
  640MOL0     H86334   0.719   1.859   2.029 -1.6794  1.3394  0.1635
  640MOL0     H86335   0.821   1.460   1.841  0.9839  0.0158 -1.3053
  640MOL0     H86336   0.708   1.491   1.709  1.0927 -0.4333 -1.4222
  640MOL0     H86337   0.952   1.483   1.638  0.7491  0.8290 -0.4481
  640MOL0     H86338   0.975   1.613   1.758 -0.7469  0.9200 -0.9971
  640MOL0     H86339   0.871   1.770   1.644 -1.6712  1.8048 -3.9398
  640MOL0     H86340   0.757   1.658   1.560  0.4662 -1.4028 -2.0912
  640MOL0     H86341   1.057   1.697   1.505  1.3702  0.8152 -2.9385
  640MOL0     H86342   0.960   1.575   1.439  2.8070 -1.3276  1.5478
  640MOL0     H86343   0.993   1.754   1.275 -0.0055 -1.0692 -0.9302
  640MOL0     H86344   0.842   1.709   1.280  2.9375 -3.3922  0.8389
  640MOL0     H86345   0.773   1.889   1.439  0.3059 -0.7915  0.0469
  640MOL0     H86346   0.949   1.952   1.447  2.0235 -1.4120 -0.5527
  640MOL0     H86347   0.745   1.979   1.214 -0.1265 -2.2480  0.8138
  640MOL0     H86348   0.918   1.964   1.189  0.1939  3.8929 -2.0993
  640MOL0     H86349   0.985   2.145   1.296  0.5803 -2.0714 -0.1979
  640MOL0     H86350   0.847   2.177   1.186 -0.1402 -0.2072  0.8642
  640MOL0     H86351   0.955   2.278   1.543  0.4330 -1.0537  0.7005
  640MOL0     H86352   0.684   2.357   1.764 -2.3787  0.4987 -1.3767
  640MOL0     H86353   0.843   2.421   1.723 -0.2667 -0.8828  0.3867
  640MOL0     H86354   0.716   2.620   1.728  0.0921  1.8536 -2.7901
  640MOL0     H86355   0.705   2.585   1.561  1.2187 -0.1407  0.3541
  640MOL0     H86356   0.506   2.507   1.786  0.7511 -2.1747 -0.0612
  640MOL0     H86357   0.484   2.451   1.621  2.1573  1.4656 -2.6961
  640MOL0     H86358   0.473   2.742   1.703 -0.6239  2.0528 -2.1235
  640MOL0     H86359   0.340   2.626   1.664  0.5697 -1.8479  2.8849
  640MOL0     H86360   0.572   2.807   1.301 -0.0303 -1.1930  0.1819
  640MOL0     H86361   0.469   3.005   1.166  4.0589 -1.0630  1.5651
  640MOL0     H86362   0.108   3.373   1.243 -2.3445  0.7928  0.2393
  640MOL0     H86363   0.008   3.531   1.098 -1.0012  0.6082 -2.0397
  640MOL0     H86364  -0.152   3.653   1.003  0.1474  1.4584 -0.3931
  640MOL0     H86365  -0.026   3.655   0.880 -0.5743  1.9281 -0.0663
  640MOL0     H86366  -0.332   3.667   0.856 -0.7389  2.5320  0.0478
  640MOL0     H86367  -0.219   3.797   0.852  0.4559 -1.2892  3.3832
  640MOL0     H86368  -0.099   3.660   0.657  0.2873 -0.1559 -0.9397
  640MOL0     H86369  -0.256   3.587   0.647  1.4108  0.2223 -1.3718
  640MOL0     H86370  -0.375   3.802   0.619 -0.5474  3.4265 -0.2578
  640MOL0     H86371  -0.264   3.744   0.495  4.9508  0.9037 -0.4678
  640MOL0     H86372  -0.099   3.908   0.616 -1.2984 -2.6031 -0.8264
  640MOL0     H86373  -0.249   3.971   0.699 -3.8770  1.4923 -1.5533
  640MOL0     H86374  -0.179   4.119   0.519  0.1646 -0.6793  0.3755
  640MOL0     H86375  -0.168   3.994   0.406  0.8239  1.9678 -0.7274
  640MOL0     H86376  -0.419   4.091   0.561  0.1841 -0.4852  0.3832
  640MOL0     H86377  -0.433   3.967   0.440  1.4183 -2.7591  1.9050
  640MOL0     H86378  -0.493   4.204   0.369 -0.1037  2.5015 -5.6471
  640MOL0     H86379  -0.322   4.241   0.402 -0.9228  1.2311 -1.9806
  640MOL0     H86380  -0.129   3.204   0.843  1.8474 -2.2234 -0.1243
  640MOL0     H86381  -0.037   3.045   0.986  1.9272 -0.0374 -2.8375
  640MOL0     H86382   0.159   3.019   1.452 -0.2120 -0.4462  0.8812
  640MOL0     H86383   0.227   2.832   1.570 -0.3924  0.8485  0.0785
  640MOL0     H86384   0.578   1.463   1.915  0.3991  1.0471 -2.4810
  640MOL0     H86385   0.423   1.482   2.088 -0.0607  0.2898  0.0069
  640MOL0     H86386   0.083   1.545   2.382 -0.1766  2.4769 -1.4617
  640MOL0     H86387  -0.073   1.611   2.590 -1.0285  3.1167  0.1160
  640MOL0     H86388   0.141   1.888   2.864  0.5414 -0.2944 -3.0146
  640MOL0     H86389   0.022   1.815   2.981  0.2566  0.3112  0.0654
  640MOL0     H86390  -0.027   2.036   2.792 -2.0949  1.6950  1.3824
  640MOL0     H86391   0.001   2.040   2.953  3.4867  0.1964 -0.1896
  640MOL0     H86392  -0.243   1.901   2.790 -0.5524 -0.6772  0.4516
  640MOL0     H86393  -0.240   2.053   2.879 -1.6499 -0.6229  3.0260
  640MOL0     H86394  -0.243   1.767   2.968  0.4808  0.7027 -2.1054
  640MOL0     H86395  -0.189   1.892   3.090  3.0268 -1.6991 -0.2522
  640MOL0     H86396  -0.595   1.958   3.093  1.2187  1.0214  2.3480
  640MOL0     H86397   0.266   1.844   2.719  1.7727  1.5883 -2.6053
  640MOL0     H86398   0.471   1.810   2.653  0.1399  1.8519 -1.3401
  640MOL0     H86399   0.503   1.658   2.567 -1.6863 -1.7974 -0.5461
  640MOL0     H86400   0.493   1.813   2.486  2.0977 -1.4075  0.7065
  641MOL0     O86401   0.955   6.866   8.004  0.0694 -0.4226 -0.0367
  641MOL0     C86402   0.912   6.942   7.917 -0.2347 -0.3980 -0.0575
  641MOL0     O86403   0.954   6.939   7.785 -0.3165 -0.4285 -0.6541
  641MOL0     C86404   1.021   6.827   7.733  0.3208  0.2269  0.6017
  641MOL0     C86405   1.077   6.835   7.602 -0.0757  0.1789  0.3704
  641MOL0     C86406   1.135   6.712   7.548 -0.0792 -0.0788 -0.1659
  641MOL0     C86407   1.143   6.589   7.610  0.4014  0.4350 -0.4054
  641MOL0     O86408   1.203   6.477   7.565 -0.3210 -0.0769  0.0256
  641MOL0     C86409   1.241   6.461   7.425  0.1559  0.3172 -0.1362
  641MOL0     C86410   1.130   6.453   7.320 -0.8330  0.4854 -0.7224
  641MOL0     C86411   1.189   6.459   7.181 -0.3343  0.2738  0.1798
  641MOL0     C86412   1.073   6.487   7.086 -0.4613  0.4154  0.0626
  641MOL0     C86413   1.122   6.500   6.940  0.0925 -0.0687  0.5288
  641MOL0     C86414   1.111   6.651   6.904  0.1583 -0.4976 -0.5995
  641MOL0     C86415   0.976   6.711   6.882  0.0608  0.0049  0.6006
  641MOL0     C86416   0.994   6.867   6.867  0.1658 -0.6826  0.5119
  641MOL0     N86417   0.993   6.917   6.733  0.4350  0.1711  0.3549
  641MOL0     C86418   1.070   7.020   6.692  0.4445  0.0043  0.0452
  641MOL0     C86419   1.036   7.037   6.564 -0.6153 -0.1470  0.6753
  641MOL0     C86420   1.092   7.146   6.473 -0.0012 -0.2150 -0.0157
  641MOL0     C86421   1.133   7.103   6.333  1.0872 -0.9350 -0.2339
  641MOL0     C86422   1.218   7.214   6.261  0.4588  0.1736 -0.1025
  641MOL0     C86423   1.374   7.188   6.255  0.7353 -0.7245 -0.3321
  641MOL0     O86424   1.423   7.147   6.384 -0.6358  0.1067 -0.3188
  641MOL0     C86425   1.558   7.161   6.419  0.4654 -0.4238  0.1008
  641MOL0     C86426   1.601   7.173   6.549  0.0605 -0.0998 -0.1383
  641MOL0     C86427   1.732   7.215   6.576 -0.7830  0.6524 -0.2615
  641MOL0     C86428   1.830   7.228   6.475 -0.1908 -0.5370  1.1964
  641MOL0     C86429   1.967   7.281   6.511 -0.0429  0.6946 -0.8029
  641MOL0     O86430   2.038   7.325   6.407  0.0642 -0.3263 -0.3382
  641MOL0     C86431   2.163   7.378   6.435 -0.3521  0.4185 -0.1118
  641MOL0     C86432   2.260   7.312   6.523 -0.2317 -0.1422 -0.4966
  641MOL0     C86433   2.382   7.375   6.541 -0.3199  0.9895 -0.2224
  641MOL0     C86434   2.418   7.493   6.469 -0.2837 -0.1871  0.0866
  641MOL0     O86435   2.543   7.539   6.490  0.2882 -0.1349 -0.1291
  641MOL0     C86436   2.595   7.638   6.400  0.0024 -0.9859  0.3526
  641MOL0     C86437   2.724   7.695   6.451  0.5357 -0.2927 -0.3145
  641MOL0     C86438   2.842   7.603   6.444 -0.3737  0.3465 -0.2845
  641MOL0     C86439   2.949   7.648   6.540 -0.3208  0.4097 -1.2365
  641MOL0     C86440   3.066   7.550   6.570 -0.7940 -0.7845  1.1052
  641MOL0     C86441   3.126   7.574   6.696  0.2623  0.2277  0.7730
  641MOL0     C86442   3.250   7.485   6.729 -0.7070 -0.7660 -0.2475
  641MOL0     C86443   3.230   7.332   6.719 -0.0749  0.5782  1.2306
  641MOL0    Cl86444   3.373   7.240   6.759  0.1273  0.1982 -0.4033
  641MOL0     C86445   2.328   7.549   6.378 -1.0013  0.2879  1.2466
  641MOL0     C86446   2.205   7.486   6.363 -0.3800 -0.4365  0.9713
  641MOL0     O86447   1.999   7.272   6.633  1.3465 -1.0095  0.4231
  641MOL0     C86448   1.791   7.208   6.341 -0.1501  0.5460 -0.0150
  641MOL0     C86449   1.654   7.177   6.321  0.8064 -0.3763  1.1870
  641MOL0     N86450   0.952   6.937   6.536 -0.1702  0.2933 -0.2396
  641MOL0     N86451   0.920   6.868   6.632  1.5225 -0.2286  0.3710
  641MOL0     C86452   1.081   6.589   7.738  0.0380 -0.2302  0.6257
  641MOL0     C86453   1.019   6.701   7.791 -0.6775 -1.0249  0.2726
  641MOL0     C86454   0.812   7.038   7.956  0.0913 -0.6660 -0.3426
  641MOL0     C86455   0.837   7.175   7.933  1.2787  0.3929 -0.0543
  641MOL0     C86456   0.734   7.270   7.964 -0.0301  0.7005  0.3237
  641MOL0     C86457   0.617   7.239   8.026  0.2245  0.1312 -0.5913
  641MOL0     O86458   0.539   7.345   8.059 -0.4843 -0.0680 -0.4186
  641MOL0     C86459   0.408   7.303   8.119 -1.0134  0.3924  0.5442
  641MOL0     C86460   0.311   7.426   8.138 -0.8450  0.5215  0.7418
  641MOL0     C86461   0.309   7.515   8.011  0.1727 -0.7483 -0.5213
  641MOL0     C86462   0.273   7.458   7.877  0.1299 -0.2890 -0.1021
  641MOL0     C86463   0.245   7.561   7.774 -0.0549  0.3180  0.8937
  641MOL0     C86464   0.238   7.653   7.691 -0.2311  0.4889 -0.2851
  641MOL0     C86465   0.598   7.104   8.062 -0.6076 -0.0719  0.1096
  641MOL0     C86466   0.693   7.004   8.023  0.5375  0.4257  0.6875
  641MOL0     C86467   0.660   6.860   8.059 -0.4496  1.2648  0.0509
  641MOL0     H86468   1.072   6.916   7.530  1.8428  0.2845  0.2978
  641MOL0     H86469   1.169   6.712   7.445 -1.0190  1.5934 -0.5045
  641MOL0     H86470   1.327   6.524   7.400  0.8133 -1.5616 -3.1427
  641MOL0     H86471   1.288   6.361   7.425  0.2624  0.3633  0.2096
  641MOL0     H86472   1.049   6.526   7.328 -1.9975 -0.7435 -0.7618
  641MOL0     H86473   1.073   6.359   7.324 -3.4162  1.9844  0.3555
  641MOL0     H86474   1.241   6.367   7.150 -1.2939 -0.7514  1.5113
  641MOL0     H86475   1.265   6.536   7.169 -1.1932  1.2498  0.9233
  641MOL0     H86476   1.005   6.401   7.087 -0.2206  0.2081  1.8706
  641MOL0     H86477   1.016   6.576   7.113 -1.4172  1.6320 -4.8707
  641MOL0     H86478   1.224   6.461   6.937  0.3465  0.6360 -1.5234
  641MOL0     H86479   1.057   6.443   6.873 -1.5695 -0.4229  2.3233
  641MOL0     H86480   1.169   6.705   6.980  3.6760 -1.1512 -2.5536
  641MOL0     H86481   1.177   6.652   6.816  2.3330  1.4422  0.9231
  641MOL0     H86482   0.907   6.688   6.964  1.6255 -1.7451  1.5225
  641MOL0     H86483   0.933   6.672   6.789  2.3962  1.0835 -1.0223
  641MOL0     H86484   0.914   6.921   6.917  0.4929  0.7098 -0.3971
  641MOL0     H86485   1.088   6.901   6.910  0.4698  0.8191 -1.2256
  641MOL0     H86486   1.137   7.077   6.755 -1.1534  3.1255 -0.8628
  641MOL0     H86487   1.020   7.228   6.463 -0.9766 -1.2252 -1.6201
  641MOL0     H86488   1.176   7.191   6.528 -0.1441  0.3616 -0.2600
  641MOL0     H86489   1.191   7.011   6.342 -0.3348 -1.6285  3.1199
  641MOL0     H86490   1.041   7.084   6.276  0.1322 -0.8907  1.2516
  641MOL0     H86491   1.194   7.314   6.299 -1.5543 -0.6749  0.9860
  641MOL0     H86492   1.183   7.222   6.158 -1.4344  1.4388  0.5757
  641MOL0     H86493   1.420   7.278   6.215  0.1846 -0.3336 -0.0967
  641MOL0     H86494   1.393   7.106   6.185  1.4449 -0.5733 -0.3263
  641MOL0     H86495   1.533   7.176   6.634  0.0695 -0.7443 -0.0969
  641MOL0     H86496   1.763   7.241   6.676 -0.2253 -0.7818 -0.0448
  641MOL0     H86497   2.245   7.212   6.562 -0.5344 -0.4619 -1.4246
  641MOL0     H86498   2.460   7.338   6.606  1.1846  0.5059 -2.1995
  641MOL0     H86499   2.599   7.599   6.298 -2.7436 -1.2908  0.2898
  641MOL0     H86500   2.535   7.729   6.395  2.6102  0.7703 -2.3302
  641MOL0     H86501   2.757   7.777   6.386 -1.2034 -0.3457 -1.3187
  641MOL0     H86502   2.715   7.730   6.554  3.4684  0.6268 -0.2704
  641MOL0     H86503   2.801   7.505   6.471 -1.6255  1.0619  0.5359
  641MOL0     H86504   2.887   7.593   6.344 -1.5568  2.1605 -1.0677
  641MOL0     H86505   2.899   7.660   6.637 -1.3096 -2.1964 -1.3452
  641MOL0     H86506   2.986   7.747   6.511 -1.5477  0.8884 -1.2010
  641MOL0     H86507   3.140   7.572   6.492 -1.0763  0.8356  1.2501
  641MOL0     H86508   3.012   7.456   6.583 -0.5050 -0.8378  1.9561
  641MOL0     H86509   3.160   7.677   6.702  2.6361 -0.5076  1.2483
  641MOL0     H86510   3.053   7.557   6.776  0.2773 -0.0355  0.7320
  641MOL0     H86511   3.289   7.499   6.831  0.8118  1.8926 -1.0958
  641MOL0     H86512   3.329   7.518   6.661 -1.0448  1.0301  0.1646
  641MOL0     H86513   3.148   7.304   6.785 -3.3366  1.0102 -2.2993
  641MOL0     H86514   3.199   7.296   6.621 -0.9455  1.7542  1.0559
  641MOL0     H86515   2.348   7.643   6.329 -3.2666  1.3160  2.1467
  641MOL0     H86516   2.150   7.525   6.277  0.6637  0.3142  0.6210
  641MOL0     H86517   1.858   7.229   6.258 -0.6369 -4.5676 -2.0670
  641MOL0     H86518   1.632   7.172   6.214 -0.5706  1.3269  1.3445
  641MOL0     H86519   1.091   6.500   7.799  4.2119  0.9547  2.0111
  641MOL0     H86520   0.965   6.685   7.884 -1.5123 -0.2661 -0.0563
  641MOL0     H86521   0.922   7.207   7.874  1.8773 -1.4625 -0.2756
  641MOL0     H86522   0.754   7.373   7.938  1.0609  0.7250  1.1924
  641MOL0     H86523   0.416   7.256   8.217  1.1271  2.2675  1.3777
  641MOL0     H86524   0.360   7.234   8.049 -0.0280 -0.1453  0.3750
  641MOL0     H86525   0.344   7.486   8.223  1.6050  0.1613  0.1356
  641MOL0     H86526   0.211   7.389   8.161 -0.9118  0.8268  0.9425
  641MOL0     H86527   0.404   7.569   8.001 -0.8654  1.2282 -0.1738
  641MOL0     H86528   0.242   7.598   8.033  0.8063 -0.8228  2.0334
  641MOL0     H86529   0.361   7.405   7.841 -0.1446 -1.1065  0.3839
  641MOL0     H86530   0.186   7.391   7.875  0.2941 -0.4877 -1.0072
  641MOL0     H86531   0.225   7.735   7.622 -1.1742 -0.0141 -0.7202
  641MOL0     H86532   0.514   7.071   8.122  0.5902 -2.9680  0.3842
  641MOL0     H86533   0.561   6.845   8.104 -0.3743  0.4445 -0.0513
  641MOL0     H86534   0.659   6.791   7.975 -0.6668 -0.7730  1.6396
  641MOL0     H86535   0.739   6.811   8.116  1.6455  1.6007 -2.4132
  642MOL0     O86536  10.830   9.552   0.499  0.3671  0.2901  0.2486
  642MOL0     C86537  10.770   9.561   0.392  0.5076 -1.1727 -0.0508
  642MOL0     O86538  10.838   9.599   0.277  0.1510 -1.0867  1.0156
  642MOL0     C86539  10.955   9.674   0.302  1.0613  1.7096  0.8738
  642MOL0     C86540  11.065   9.622   0.253  0.6403 -0.0631  0.3271
  642MOL0     C86541  11.190   9.689   0.276  0.0808  0.4218 -0.2141
  642MOL0     C86542  11.200   9.805   0.347 -0.3853 -0.5381  0.7757
  642MOL0     O86543  11.331   9.848   0.350 -0.2965  0.2692  0.7683
  642MOL0     C86544  11.352   9.981   0.389 -0.0643  0.1457  0.5348
  642MOL0     C86545  11.491  10.012   0.328 -0.2661  0.0564  0.4102
  642MOL0     C86546  11.521  10.160   0.338  0.2922  0.9604  0.2343
  642MOL0     C86547  11.662  10.186   0.298  1.0845  0.8719  0.0298
  642MOL0     C86548  11.779  10.132   0.379  0.1044 -0.6144 -1.3640
  642MOL0     C86549  11.919  10.182   0.330 -0.4584  0.7612  0.3445
  642MOL0     C86550  12.047  10.110   0.380  0.1401 -0.1497 -1.9440
  642MOL0     C86551  12.070  10.136   0.526  0.0595  0.5071  0.3933
  642MOL0     N86552  12.213  10.129   0.561 -0.0137  0.5489  0.4648
  642MOL0     C86553  12.272  10.214   0.642 -0.3556  0.8516 -0.4758
  642MOL0     C86554  12.392  10.160   0.671  0.7139 -0.5347  1.2185
  642MOL0     C86555  12.506  10.233   0.744 -0.7011 -0.2934 -0.0039
  642MOL0     C86556  12.530  10.174   0.882  0.1008 -0.0257 -0.5413
  642MOL0     C86557  12.404  10.172   0.971  0.2412 -1.1085  0.1935
  642MOL0     C86558  12.433  10.114   1.113 -0.4566 -0.0968  0.1254
  642MOL0     O86559  12.466  10.215   1.206  0.1859 -0.1687 -0.1037
  642MOL0     C86560  12.599  10.246   1.208  0.7848  0.3211  0.0018
  642MOL0     C86561  12.629  10.381   1.184 -0.9178 -0.2755 -0.2648
  642MOL0     C86562  12.769  10.420   1.194 -0.2616 -0.1060  0.7178
  642MOL0     C86563  12.868  10.320   1.230 -1.0471 -0.2861  0.4429
  642MOL0     C86564  13.004  10.364   1.260  0.0807  0.1634 -0.5488
  642MOL0     O86565  13.105  10.283   1.236  0.4842  0.9213  0.2131
  642MOL0     C86566  13.228  10.328   1.287  0.1243 -0.0058  0.1369
  642MOL0     C86567  13.267  10.294   1.411 -0.1453  0.1560 -0.7690
  642MOL0     C86568  13.377  10.347   1.479  0.1894  0.5437 -0.0559
  642MOL0     C86569  13.465  10.427   1.409  1.4561  0.7391 -0.2134
  642MOL0     O86570  13.574  10.456   1.482  0.2544 -0.6080 -0.1042
  642MOL0     C86571  13.687  10.480   1.401  0.4241  0.4456 -0.1868
  642MOL0     C86572  13.813  10.515   1.481 -0.5880  0.3840 -0.1816
  642MOL0     C86573  13.870  10.393   1.544 -0.3157  0.1664  0.8918
  642MOL0     C86574  13.802  10.344   1.674 -0.8471 -0.2718  0.2660
  642MOL0     C86575  13.873  10.221   1.725 -0.3887 -0.4350 -0.2733
  642MOL0     C86576  13.853  10.181   1.872 -0.0853 -0.0689 -0.3056
  642MOL0     C86577  13.930  10.255   1.976 -0.1504 -0.1714  0.4681
  642MOL0     C86578  14.052  10.170   2.002 -0.1928  0.3508 -0.0493
  642MOL0    Cl86579  14.142  10.232   2.152  0.6892  0.5898 -0.4306
  642MOL0     C86580  13.433  10.464   1.281  0.2862  0.0379  0.6719
  642MOL0     C86581  13.321  10.409   1.218  1.2954  1.8386 -0.2301
  642MOL0     O86582  13.010  10.467   1.316  0.7300  0.5995 -0.2349
  642MOL0     C86583  12.834  10.189   1.257  0.5072  0.4463  0.6587
  642MOL0     C86584  12.700  10.151   1.248  0.3166 -1.3034  0.1365
  642MOL0     N86585  12.393  10.039   0.615 -0.0547  0.3287  0.0981
  642MOL0     N86586  12.290  10.019   0.536  0.5946 -1.2390 -0.5255
  642MOL0     C86587  11.083   9.854   0.411 -0.1690  0.2645  0.2124
  642MOL0     C86588  10.957   9.792   0.373  0.5001  0.6514 -0.6976
  642MOL0     C86589  10.633   9.492   0.384 -0.2536  0.1563 -0.3796
  642MOL0     C86590  10.577   9.431   0.498  0.4329  0.6018  0.3680
  642MOL0     C86591  10.451   9.362   0.492 -0.3913 -0.8720  0.8496
  642MOL0     C86592  10.385   9.365   0.368  0.3359  0.2876 -0.1447
  642MOL0     O86593  10.269   9.298   0.366 -0.1493 -0.1932  0.3271
  642MOL0     C86594  10.231   9.225   0.248  0.8763 -0.2243  0.3172
  642MOL0     C86595  10.177   9.088   0.292 -0.2639  0.3117 -0.3528
  642MOL0     C86596  10.114   9.006   0.175  0.2180  0.1991 -0.6907
  642MOL0     C86597  10.120   8.865   0.210 -0.6244  0.5983  0.3257
  642MOL0     C86598  10.261   8.818   0.196 -0.0463  0.7073 -0.3705
  642MOL0     C86599  10.364   8.764   0.190 -0.3291 -0.2245  0.1877
  642MOL0     C86600  10.437   9.432   0.256 -0.5202  0.0704  0.2311
  642MOL0     C86601  10.556   9.503   0.268 -0.0175 -0.1191  0.4172
  642MOL0     C86602  10.586   9.596   0.152 -0.4691 -0.6533  0.8787
  642MOL0     H86603  11.066   9.530   0.196  0.9693  0.6124 -0.7968
  642MOL0     H86604  11.275   9.640   0.229  1.7628  1.8838  1.1363
  642MOL0     H86605  11.267  10.043   0.360  0.2199 -0.3210 -1.4538
  642MOL0     H86606  11.363   9.986   0.498 -0.3970 -0.5906  0.6126
  642MOL0     H86607  11.485   9.973   0.226  1.4507 -0.3620  0.4370
  642MOL0     H86608  11.576   9.960   0.374  0.1195  0.4679  0.1752
  642MOL0     H86609  11.512  10.192   0.442  2.0917 -1.6525  1.3002
  642MOL0     H86610  11.457  10.209   0.263  0.3873  0.5696 -0.1041
  642MOL0     H86611  11.668  10.128   0.205 -0.8660  0.5106  0.0808
  642MOL0     H86612  11.672  10.293   0.276  3.1650  0.8527  0.6705
  642MOL0     H86613  11.760  10.162   0.482 -1.3525  0.5978 -1.9562
  642MOL0     H86614  11.773  10.023   0.373 -3.7821 -0.5460 -1.1390
  642MOL0     H86615  11.917  10.174   0.221 -1.1418  1.4197  0.2962
  642MOL0     H86616  11.929  10.289   0.352  2.3657  1.0176 -1.7307
  642MOL0     H86617  12.131  10.148   0.320 -0.0195 -1.6839 -3.2119
  642MOL0     H86618  12.043  10.001   0.368 -1.2793 -0.3460 -0.1597
  642MOL0     H86619  12.030  10.233   0.557 -2.3320 -0.6100  1.0166
  642MOL0     H86620  12.019  10.062   0.588  2.6424 -0.7853  1.1529
  642MOL0     H86621  12.230  10.299   0.696  0.2815  0.2241  1.0504
  642MOL0     H86622  12.597  10.229   0.684  2.4647  1.4018  4.2265
  642MOL0     H86623  12.486  10.338   0.765  0.5175  0.1697 -1.0434
  642MOL0     H86624  12.560  10.072   0.860  1.1929  0.5855 -2.0956
  642MOL0     H86625  12.611  10.227   0.933 -2.4837  3.3851  0.4006
  642MOL0     H86626  12.325  10.111   0.926 -1.5170  0.0818  1.5770
  642MOL0     H86627  12.366  10.273   0.989  1.3619 -1.1784  3.7565
  642MOL0     H86628  12.514  10.041   1.096 -2.4988 -2.4257 -0.2355
  642MOL0     H86629  12.349  10.055   1.150 -0.1048 -1.1969 -0.7649
  642MOL0     H86630  12.540  10.440   1.165 -1.8611 -0.9694  1.7550
  642MOL0     H86631  12.792  10.523   1.171 -1.6991  0.4404  1.6112
  642MOL0     H86632  13.186  10.247   1.467  1.6165 -2.2600 -0.0793
  642MOL0     H86633  13.390  10.336   1.586  1.6137  4.0154  0.2608
  642MOL0     H86634  13.698  10.398   1.331 -3.5438  0.2128 -0.7317
  642MOL0     H86635  13.664  10.564   1.335  0.2245  2.4943  2.3071
  642MOL0     H86636  13.881  10.559   1.407  2.5545 -3.4818  0.0692
  642MOL0     H86637  13.795  10.594   1.554  3.3344  0.2583  1.1388
  642MOL0     H86638  13.875  10.316   1.467  0.7706  0.8446  0.2599
  642MOL0     H86639  13.973  10.417   1.570  1.2664 -3.4883 -1.2606
  642MOL0     H86640  13.696  10.330   1.651 -1.1579  3.0024 -0.8024
  642MOL0     H86641  13.805  10.422   1.751  1.2908 -0.7891  0.7762
  642MOL0     H86642  13.979  10.251   1.725 -1.0828  2.4311 -1.8804
  642MOL0     H86643  13.861  10.135   1.659  0.6544  0.6895 -2.0126
  642MOL0     H86644  13.746  10.199   1.888  0.2280  1.7017  0.0045
  642MOL0     H86645  13.872  10.074   1.878  2.7641  0.2353 -2.0335
  642MOL0     H86646  13.878  10.249   2.072 -2.2282  1.5306 -0.4828
  642MOL0     H86647  13.957  10.358   1.948  1.1976 -0.7115 -0.3287
  642MOL0     H86648  14.041  10.063   2.023  4.3705 -0.0852  1.2315
  642MOL0     H86649  14.122  10.172   1.918 -0.8023 -1.2231 -0.6361
  642MOL0     H86650  13.488  10.535   1.219 -1.6284  0.8069 -0.2285
  642MOL0     H86651  13.284  10.427   1.117 -0.3018  1.8964  0.3413
  642MOL0     H86652  12.903  10.117   1.299  1.5655  1.7848  1.2877
  642MOL0     H86653  12.670  10.051   1.277 -2.4701 -0.3963  0.6400
  642MOL0     H86654  11.076   9.949   0.464  0.0629  1.4872 -1.8209
  642MOL0     H86655  10.869   9.840   0.415  2.1802  2.2054  1.2431
  642MOL0     H86656  10.626   9.425   0.595  2.9458 -4.5344 -0.8918
  642MOL0     H86657  10.410   9.322   0.584 -0.0430  0.5327  1.6516
  642MOL0     H86658  10.302   9.205   0.167 -0.9717 -0.5602 -1.2784
  642MOL0     H86659  10.147   9.286   0.213  1.0242 -0.9820 -1.4855
  642MOL0     H86660  10.105   9.091   0.374 -0.0044 -1.5952 -0.0161
  642MOL0     H86661  10.257   9.030   0.338 -2.6968 -4.0647 -1.1308
  642MOL0     H86662  10.161   9.027   0.078 -0.9860 -0.3289 -1.4167
  642MOL0     H86663  10.011   9.039   0.160  0.3631  1.0535  0.0847
  642MOL0     H86664  10.079   8.834   0.306 -1.2991  3.6649  1.1356
  642MOL0     H86665  10.069   8.812   0.129 -2.0106 -1.4831  2.4658
  642MOL0     H86666  10.457   8.710   0.196 -1.7015 -2.6065  1.9436
  642MOL0     H86667  10.378   9.435   0.165 -2.9668 -1.7923  1.6472
  642MOL0     H86668  10.494   9.629   0.102 -0.6091  0.2399  1.7014
  642MOL0     H86669  10.630   9.685   0.199  1.4291 -1.0382 -0.0918
  642MOL0     H86670  10.652   9.555   0.075  1.7603  2.4382  0.9556
  643MOL0     O86671   1.879   8.294   0.354 -0.0607  0.1190  0.1657
  643MOL0     C86672   1.816   8.400   0.341 -0.2660  0.9446  0.2958
  643MOL0     O86673   1.680   8.409   0.336 -0.2979 -0.3625 -0.1839
  643MOL0     C86674   1.584   8.315   0.375  0.6877  0.1365 -0.8836
  643MOL0     C86675   1.609   8.178   0.405  0.0847  1.1991 -0.0094
  643MOL0     C86676   1.506   8.092   0.423  0.1119 -0.1243  1.7771
  643MOL0     C86677   1.371   8.126   0.413 -0.5354 -0.5694  0.2458
  643MOL0     O86678   1.273   8.030   0.413 -0.0862  0.2459 -0.4353
  643MOL0     C86679   1.140   8.074   0.429  0.5965 -0.0446  0.3740
  643MOL0     C86680   1.046   7.961   0.446 -0.5685 -0.0223  0.3142
  643MOL0     C86681   0.914   8.010   0.486 -0.2170  0.2074 -0.7121
  643MOL0     C86682   0.825   7.897   0.521  0.6716 -0.7468  0.6060
  643MOL0     C86683   0.685   7.941   0.567 -0.7160 -0.3222  0.4891
  643MOL0     C86684   0.608   7.827   0.605  0.4289  0.6043 -0.0106
  643MOL0     C86685   0.456   7.867   0.614 -0.3384 -0.0185 -0.0656
  643MOL0     C86686   0.381   7.832   0.490 -0.3720 -0.0328 -0.8464
  643MOL0     N86687   0.427   7.893   0.369  0.1390  0.1745 -0.4541
  643MOL0     C86688   0.445   7.836   0.244  0.3374 -0.7501  1.0007
  643MOL0     C86689   0.483   7.938   0.159  0.0981  0.5498  1.0462
  643MOL0     C86690   0.524   7.918   0.016 -1.7584 -1.1002  0.1208
  643MOL0     C86691   0.646   7.833   0.007 -0.2760 -0.9780 -0.7887
  643MOL0     C86692   0.768   7.901   0.083 -1.0116  0.2854 -0.5514
  643MOL0     C86693   0.905   7.843   0.052  0.1582  1.0871  0.0001
  643MOL0     O86694   0.907   7.702   0.080  0.3361 -0.2553 -1.0387
  643MOL0     C86695   0.967   7.619  -0.013 -0.2165  0.4727 -0.7597
  643MOL0     C86696   0.956   7.617  -0.149 -0.7086  1.0134  0.7074
  643MOL0     C86697   1.027   7.529  -0.229 -0.5213  0.5617  0.2661
  643MOL0     C86698   1.116   7.448  -0.172 -0.0734 -0.3285 -0.6762
  643MOL0     C86699   1.207   7.368  -0.261 -0.2225 -0.0084  0.5621
  643MOL0     O86700   1.178   7.355  -0.392  0.5390  0.5534 -0.2690
  643MOL0     C86701   1.264   7.299  -0.479  0.3256  0.3183 -0.3506
  643MOL0     C86702   1.409   7.292  -0.465 -0.2768  0.2227 -0.6555
  643MOL0     C86703   1.492   7.242  -0.566  1.1480 -0.3979 -0.1149
  643MOL0     C86704   1.439   7.192  -0.683  0.7005 -0.1725  0.4556
  643MOL0     O86705   1.524   7.137  -0.774 -0.7440 -0.9236  0.7661
  643MOL0     C86706   1.475   7.033  -0.848  1.3928  0.6549  0.5179
  643MOL0     C86707   1.585   6.941  -0.896 -0.0333  0.0837  0.0247
  643MOL0     C86708   1.637   6.997  -1.026 -0.3867 -0.1932  1.0692
  643MOL0     C86709   1.769   6.951  -1.065  0.0049  0.9367 -0.2123
  643MOL0     C86710   1.809   7.005  -1.203  0.0171  0.7317 -0.6828
  643MOL0     C86711   1.949   6.956  -1.228 -1.1606  0.5743 -0.3847
  643MOL0     C86712   2.066   7.047  -1.177  0.4564  0.5596  0.1894
  643MOL0     C86713   2.194   7.021  -1.250  0.0360  0.6327 -0.1927
  643MOL0    Cl86714   2.261   6.850  -1.201  0.6109 -0.2623  0.3738
  643MOL0     C86715   1.304   7.201  -0.699 -0.2923 -0.2728 -0.5000
  643MOL0     C86716   1.214   7.251  -0.597  0.2571  0.1332  0.4029
  643MOL0     O86717   1.300   7.318  -0.200 -0.3444 -0.4428  0.6538
  643MOL0     C86718   1.141   7.445  -0.028 -0.0372 -0.5222 -0.0941
  643MOL0     C86719   1.064   7.533   0.050 -1.1155 -0.2978  0.5199
  643MOL0     N86720   0.469   8.051   0.228 -0.2136 -1.1335  0.2669
  643MOL0     N86721   0.420   8.028   0.343 -0.1300  0.4742 -0.0128
  643MOL0     C86722   1.345   8.265   0.409  0.5490  0.1827  0.2544
  643MOL0     C86723   1.446   8.361   0.392  0.0271  0.3732  0.0424
  643MOL0     C86724   1.880   8.535   0.320 -1.3062  0.7033  0.0647
  643MOL0     C86725   1.804   8.652   0.282  0.3101  0.0750  0.1002
  643MOL0     C86726   1.858   8.785   0.256 -0.5563  0.1517 -1.2082
  643MOL0     C86727   2.000   8.804   0.277  0.7018  0.3857  0.1607
  643MOL0     O86728   2.041   8.931   0.285  0.1016 -0.3929 -0.3737
  643MOL0     C86729   2.149   8.969   0.375 -0.1913 -0.1910 -0.0672
  643MOL0     C86730   2.182   9.121   0.372 -0.3243 -0.0967 -0.6372
  643MOL0     C86731   2.069   9.208   0.423 -0.0191  0.8815 -0.1832
  643MOL0     C86732   2.123   9.342   0.456  1.0127 -0.3381  0.3216
  643MOL0     C86733   2.182   9.338   0.589  0.6709  0.1434  0.4246
  643MOL0     C86734   2.242   9.332   0.693  1.0613 -0.1652 -0.2119
  643MOL0     C86735   2.079   8.688   0.305  0.5679  0.7105 -1.0185
  643MOL0     C86736   2.020   8.557   0.327 -0.6627  0.1754  0.5076
  643MOL0     C86737   2.135   8.455   0.353  0.6392 -1.2309  0.0764
  643MOL0     H86738   1.711   8.142   0.399 -0.1428  0.4779  0.3262
  643MOL0     H86739   1.531   7.990   0.450  0.1220 -0.6520 -0.1088
  643MOL0     H86740   1.130   8.142   0.514  0.8974 -2.6594  2.6531
  643MOL0     H86741   1.111   8.128   0.339 -0.8203  1.4361  1.6646
  643MOL0     H86742   1.083   7.909   0.535  0.0840  1.5509  1.0056
  643MOL0     H86743   1.046   7.897   0.357  0.9497 -3.4521  2.5659
  643MOL0     H86744   0.876   8.075   0.407  0.0823  0.4363 -0.6713
  643MOL0     H86745   0.934   8.080   0.568  1.5853  0.0931 -1.0139
  643MOL0     H86746   0.800   7.834   0.435 -3.8993  0.5936  0.7155
  643MOL0     H86747   0.872   7.832   0.596 -0.1274 -1.7530  0.2646
  643MOL0     H86748   0.708   8.006   0.652  0.0407  1.5764 -1.0879
  643MOL0     H86749   0.633   7.997   0.489  1.5914  2.0999  0.5724
  643MOL0     H86750   0.623   7.746   0.533 -0.7958 -0.6776  1.1188
  643MOL0     H86751   0.642   7.791   0.703 -0.8622 -0.3624  0.1080
  643MOL0     H86752   0.439   7.971   0.642 -3.3292 -1.2067  3.3328
  643MOL0     H86753   0.409   7.821   0.701 -0.1831 -0.4790 -0.2176
  643MOL0     H86754   0.407   7.726   0.479 -2.5643 -0.4316 -3.3095
  643MOL0     H86755   0.273   7.838   0.500 -0.2354  0.2358  0.7649
  643MOL0     H86756   0.440   7.736   0.203 -1.8665  0.8278 -3.2608
  643MOL0     H86757   0.453   7.870  -0.053 -2.4775  0.8788 -0.6000
  643MOL0     H86758   0.539   8.022  -0.015  0.4737 -1.1488  0.8705
  643MOL0     H86759   0.618   7.735   0.046 -3.1339 -1.3101 -3.2942
  643MOL0     H86760   0.684   7.823  -0.096  1.9864  1.7737 -0.3528
  643MOL0     H86761   0.743   7.886   0.189 -2.1139  2.0567 -0.5310
  643MOL0     H86762   0.774   8.010   0.077  4.8673  0.3678  0.5080
  643MOL0     H86763   0.980   7.883   0.121  0.0947 -0.1527  0.8283
  643MOL0     H86764   0.942   7.876  -0.045  1.6573 -0.9006 -0.1778
  643MOL0     H86765   0.893   7.700  -0.180  1.8468  1.8896 -2.7316
  643MOL0     H86766   1.021   7.535  -0.337  1.0144  0.4221  0.1476
  643MOL0     H86767   1.454   7.338  -0.377 -0.3313 -1.1890  0.1354
  643MOL0     H86768   1.598   7.250  -0.544  0.3602  0.9423  4.3841
  643MOL0     H86769   1.410   6.976  -0.781 -0.2848  1.4363 -0.3512
  643MOL0     H86770   1.409   7.066  -0.930 -2.0921 -0.4975  2.6498
  643MOL0     H86771   1.665   6.925  -0.824  0.2242 -2.4034 -0.7208
  643MOL0     H86772   1.545   6.842  -0.918 -3.3351  1.1866  0.4006
  643MOL0     H86773   1.563   6.971  -1.102 -0.4695  0.7994  0.7930
  643MOL0     H86774   1.637   7.106  -1.024 -1.8077 -0.1681  1.1787
  643MOL0     H86775   1.768   6.842  -1.067  1.3310  0.5649  4.9773
  643MOL0     H86776   1.836   6.976  -0.982 -1.2507 -0.6849  1.3507
  643MOL0     H86777   1.814   7.114  -1.214  5.7457  0.8680  0.0359
  643MOL0     H86778   1.734   6.961  -1.269 -1.4155 -1.9831  2.4939
  643MOL0     H86779   1.964   6.854  -1.193 -0.7941  0.6278 -0.3857
  643MOL0     H86780   1.960   6.945  -1.336 -0.6875  0.8024 -0.3589
  643MOL0     H86781   2.075   7.046  -1.068 -2.4589 -3.2629  0.6091
  643MOL0     H86782   2.046   7.153  -1.197  3.3005  1.6547  2.2760
  643MOL0     H86783   2.178   7.031  -1.357 -2.3507  3.1004  0.2787
  643MOL0     H86784   2.271   7.097  -1.232  0.6371  0.0647 -0.3017
  643MOL0     H86785   1.265   7.145  -0.783 -4.1109 -0.5477  1.2340
  643MOL0     H86786   1.106   7.245  -0.605  0.1562  0.7319  1.1827
  643MOL0     H86787   1.210   7.378   0.021 -1.2135  1.5213  5.0051
  643MOL0     H86788   1.075   7.534   0.158 -2.6223 -1.5067  0.7222
  643MOL0     H86789   1.240   8.289   0.420  0.5685  0.1424  0.5444
  643MOL0     H86790   1.414   8.464   0.390 -0.5241  0.1970 -0.9299
  643MOL0     H86791   1.697   8.644   0.268  0.5150  1.2556 -2.8167
  643MOL0     H86792   1.810   8.882   0.246 -0.3712  0.3566 -0.2301
  643MOL0     H86793   2.241   8.914   0.356 -1.0005 -2.2025  1.3755
  643MOL0     H86794   2.130   8.939   0.479 -0.8690  1.1986  0.2341
  643MOL0     H86795   2.199   9.143   0.266 -2.6348 -0.6283 -1.1774
  643MOL0     H86796   2.269   9.128   0.439 -0.4668 -3.2873  0.0405
  643MOL0     H86797   2.021   9.166   0.512  1.3332 -0.3185  0.0208
  643MOL0     H86798   1.996   9.222   0.343  1.6616  0.0682 -1.9332
  643MOL0     H86799   2.185   9.373   0.371  0.0174 -0.0545 -0.3087
  643MOL0     H86800   2.040   9.412   0.453 -0.9907 -2.6127 -0.2238
  643MOL0     H86801   2.278   9.342   0.793 -3.0549 -0.7754  1.5233
  643MOL0     H86802   2.186   8.700   0.317  1.0641 -2.0517 -1.9143
  643MOL0     H86803   2.225   8.498   0.306  1.3092 -0.6701  1.7881
  643MOL0     H86804   2.152   8.453   0.461  1.8864 -1.8007 -0.1113
  643MOL0     H86805   2.120   8.355   0.311  0.7258 -1.1862 -0.0607
  644MOL0     O86806   6.824   7.253   7.652 -0.0004  0.3843 -0.4469
  644MOL0     C86807   6.828   7.362   7.704  0.1943  0.4755 -0.6618
  644MOL0     O86808   6.935   7.446   7.721  0.0560 -0.9740  0.1076
  644MOL0     C86809   7.060   7.414   7.671 -0.5437 -0.8589 -0.8020
  644MOL0     C86810   7.069   7.365   7.545 -0.7736  0.6529  0.0984
  644MOL0     C86811   7.198   7.340   7.502 -0.1709  0.5749 -0.5329
  644MOL0     C86812   7.313   7.348   7.585 -0.2762 -0.6996  0.6892
  644MOL0     O86813   7.442   7.331   7.527 -0.4192  0.1192  0.4350
  644MOL0     C86814   7.474   7.389   7.404 -0.0731 -0.5940 -0.5745
  644MOL0     C86815   7.621   7.389   7.376 -0.9191  0.2397  0.2846
  644MOL0     C86816   7.672   7.448   7.243 -0.2980 -0.2387 -0.3842
  644MOL0     C86817   7.831   7.420   7.231  0.6325  0.1607  0.1779
  644MOL0     C86818   7.908   7.506   7.129 -0.0388 -0.4193  0.1977
  644MOL0     C86819   8.059   7.485   7.153 -0.2519 -0.6281 -0.3060
  644MOL0     C86820   8.120   7.495   7.013 -0.3099  0.3669 -0.4903
  644MOL0     C86821   8.129   7.640   6.961 -0.6797  0.3126  0.8108
  644MOL0     N86822   8.226   7.653   6.857 -0.1918  0.2626  0.1395
  644MOL0     C86823   8.215   7.602   6.728 -0.1384  0.2346 -0.7865
  644MOL0     C86824   8.334   7.636   6.672 -1.2946  1.4179  0.9680
  644MOL0     C86825   8.367   7.609   6.527 -0.2963 -0.2111 -0.1988
  644MOL0     C86826   8.492   7.530   6.498  0.2725 -0.6945 -0.0639
  644MOL0     C86827   8.616   7.617   6.496  0.0339  0.1945  0.1334
  644MOL0     C86828   8.740   7.549   6.439 -0.3512  0.6152  0.6118
  644MOL0     O86829   8.777   7.436   6.512 -0.1363  0.5785 -0.3664
  644MOL0     C86830   8.906   7.404   6.529 -0.2737  0.9061 -0.0244
  644MOL0     C86831   9.021   7.464   6.464  0.1140 -0.1874 -0.2154
  644MOL0     C86832   9.152   7.432   6.494 -0.2522 -1.6195 -0.0810
  644MOL0     C86833   9.176   7.332   6.584 -0.4708 -0.2156 -0.0299
  644MOL0     C86834   9.320   7.298   6.608  0.2214  0.4742 -0.7773
  644MOL0     O86835   9.349   7.193   6.696  0.3336 -0.4504  0.7234
  644MOL0     C86836   9.478   7.175   6.741  0.3370  0.9027 -0.2960
  644MOL0     C86837   9.559   7.088   6.666  0.1331  0.5826  0.1119
  644MOL0     C86838   9.684   7.047   6.709  0.4716  0.5362  0.7379
  644MOL0     C86839   9.736   7.092   6.825 -0.0970 -0.3525 -0.2165
  644MOL0     O86840   9.858   7.050   6.857  0.3150  0.1980  0.1007
  644MOL0     C86841   9.932   7.136   6.947  0.3626  0.2047 -0.4389
  644MOL0     C86842  10.078   7.089   6.930 -0.1581 -0.2546  0.4720
  644MOL0     C86843  10.099   6.940   6.976  0.2011 -0.1896  0.1576
  644MOL0     C86844  10.246   6.907   7.012 -0.5383  0.0798  0.5054
  644MOL0     C86845  10.259   6.766   7.065 -0.4482 -0.0943  0.4640
  644MOL0     C86846  10.368   6.749   7.165  0.3052  0.5531 -0.0315
  644MOL0     C86847  10.365   6.602   7.218 -0.7121 -0.7302 -0.0276
  644MOL0     C86848  10.500   6.556   7.284 -0.4437  0.2570  0.1889
  644MOL0    Cl86849  10.499   6.626   7.449 -0.1210  0.3066  0.1942
  644MOL0     C86850   9.661   7.184   6.895 -0.3753 -0.7447 -0.3665
  644MOL0     C86851   9.536   7.224   6.850 -0.0277 -0.7057 -0.1882
  644MOL0     O86852   9.405   7.358   6.542 -0.0670  1.2732 -0.3075
  644MOL0     C86853   9.069   7.271   6.642  0.2976  0.2027 -0.4337
  644MOL0     C86854   8.940   7.307   6.616 -0.2572  0.1488 -0.6472
  644MOL0     N86855   8.411   7.711   6.758 -0.0484 -0.0134 -0.3845
  644MOL0     N86856   8.343   7.714   6.869 -0.1826 -1.3544  0.5341
  644MOL0     C86857   7.294   7.371   7.721 -0.6920 -1.0151  0.1292
  644MOL0     C86858   7.169   7.418   7.763  0.3566 -0.0028  0.2265
  644MOL0     C86859   6.694   7.410   7.745 -0.1150  0.5134  0.1362
  644MOL0     C86860   6.583   7.319   7.776 -0.4089  0.2644  0.1333
  644MOL0     C86861   6.462   7.370   7.820  0.2954  0.1114 -0.5325
  644MOL0     C86862   6.434   7.510   7.814 -0.2501  0.1679  0.9432
  644MOL0     O86863   6.305   7.556   7.837  0.3988 -0.7368 -0.2067
  644MOL0     C86864   6.252   7.659   7.763 -0.3197 -0.2335  0.0937
  644MOL0     C86865   6.103   7.645   7.755  0.1344  0.3194  1.0645
  644MOL0     C86866   6.049   7.766   7.686  0.9111 -0.0696  0.5642
  644MOL0     C86867   5.895   7.772   7.700  0.2577  0.1626 -0.6172
  644MOL0     C86868   5.848   7.903   7.650  0.2592 -0.0159 -0.6027
  644MOL0     C86869   5.813   8.012   7.613  0.2421 -0.4904  0.1121
  644MOL0     C86870   6.540   7.597   7.783 -0.1666 -0.1890 -0.5848
  644MOL0     C86871   6.665   7.550   7.740  0.0158 -0.1758  0.0297
  644MOL0     C86872   6.755   7.663   7.694 -0.3760  0.1904  0.0265
  644MOL0     H86873   6.984   7.350   7.479 -0.5757  1.5120 -0.3632
  644MOL0     H86874   7.208   7.301   7.401  1.5034  0.6326 -0.4210
  644MOL0     H86875   7.420   7.332   7.328 -1.2849 -2.6004  1.6746
  644MOL0     H86876   7.439   7.493   7.393 -0.5004 -0.5757  0.7538
  644MOL0     H86877   7.646   7.283   7.385 -0.5621  0.3653  0.7685
  644MOL0     H86878   7.673   7.434   7.461 -0.6256 -2.4640  1.6123
  644MOL0     H86879   7.657   7.556   7.251  0.6777 -0.1565  0.5343
  644MOL0     H86880   7.627   7.403   7.153  0.0896  0.7143 -1.0721
  644MOL0     H86881   7.863   7.431   7.335  0.0694  1.3589  0.2439
  644MOL0     H86882   7.846   7.318   7.195  2.4849  0.5586 -0.2900
  644MOL0     H86883   7.874   7.479   7.029 -3.2251 -1.3736  1.4022
  644MOL0     H86884   7.889   7.612   7.147  0.3573  0.0781 -2.0645
  644MOL0     H86885   8.102   7.556   7.224  0.7524 -0.4240 -1.0953
  644MOL0     H86886   8.076   7.381   7.183 -2.4661 -1.5426 -1.9312
  644MOL0     H86887   8.068   7.432   6.940 -0.6161  0.0172  0.0180
  644MOL0     H86888   8.223   7.457   7.017 -0.5132 -0.1153  1.4984
  644MOL0     H86889   8.031   7.655   6.914 -0.5928 -1.3522  0.0065
  644MOL0     H86890   8.150   7.703   7.048 -0.3183 -0.6462  1.4434
  644MOL0     H86891   8.133   7.551   6.679 -1.2060  4.2574 -3.8226
  644MOL0     H86892   8.282   7.552   6.488 -1.3580  1.5423 -0.5498
  644MOL0     H86893   8.373   7.701   6.469  2.6223 -0.3823 -0.3070
  644MOL0     H86894   8.499   7.444   6.566 -1.3684 -2.9153 -2.5201
  644MOL0     H86895   8.484   7.484   6.399  0.9847 -3.0599  0.8898
  644MOL0     H86896   8.639   7.657   6.595  0.2394 -0.6094  0.4159
  644MOL0     H86897   8.607   7.703   6.429  0.3661 -0.0503 -0.2282
  644MOL0     H86898   8.826   7.617   6.435  0.2786 -0.2373 -1.6877
  644MOL0     H86899   8.720   7.513   6.338 -1.2030 -2.0387  1.6438
  644MOL0     H86900   9.011   7.536   6.383 -3.1002  0.5932  0.7290
  644MOL0     H86901   9.232   7.482   6.440 -0.2979 -1.2034  0.2305
  644MOL0     H86902   9.529   7.048   6.570  0.2219  1.5649 -0.3345
  644MOL0     H86903   9.740   6.982   6.643 -0.9435  0.9310 -0.9379
  644MOL0     H86904   9.927   7.242   6.922 -3.7286  0.2923  0.0916
  644MOL0     H86905   9.895   7.127   7.050  1.5781  3.1709  0.3620
  644MOL0     H86906  10.117   7.106   6.829  0.6933 -2.1065  0.4499
  644MOL0     H86907  10.137   7.144   7.004 -2.2753 -0.7264  2.6114
  644MOL0     H86908  10.041   6.928   7.068  0.8078  2.0256  0.9116
  644MOL0     H86909  10.054   6.870   6.905 -0.8915  1.9375 -1.3690
  644MOL0     H86910  10.281   6.969   7.094 -0.2479 -0.5044  0.8303
  644MOL0     H86911  10.311   6.914   6.924  5.1860  1.3084  4.2805
  644MOL0     H86912  10.285   6.699   6.983  1.4114  0.9387  0.1478
  644MOL0     H86913  10.169   6.741   7.122  0.3445 -2.5677  0.7505
  644MOL0     H86914  10.467   6.767   7.123  0.0158  5.4488  0.7624
  644MOL0     H86915  10.351   6.813   7.252  0.2167 -2.9314  2.7407
  644MOL0     H86916  10.349   6.539   7.130 -0.5998  0.0813 -0.6376
  644MOL0     H86917  10.276   6.588   7.280  0.5045 -0.8336  1.7840
  644MOL0     H86918  10.504   6.447   7.278  0.3227  0.3541 -1.5768
  644MOL0     H86919  10.581   6.594   7.221 -2.2349  0.5162 -2.1029
  644MOL0     H86920   9.686   7.216   6.996  0.3489 -2.2755 -0.0328
  644MOL0     H86921   9.496   7.307   6.906  2.5677 -0.6081  1.7334
  644MOL0     H86922   9.090   7.194   6.715 -1.0785  0.0346 -0.1817
  644MOL0     H86923   8.858   7.266   6.674  0.9939 -1.1612  0.2852
  644MOL0     H86924   7.375   7.365   7.792 -0.2296  1.7936 -0.0312
  644MOL0     H86925   7.150   7.429   7.869 -2.9775  1.1875 -0.3747
  644MOL0     H86926   6.593   7.211   7.767 -3.4049  0.0530 -2.3741
  644MOL0     H86927   6.390   7.298   7.856  0.2217  1.6298  2.7513
  644MOL0     H86928   6.297   7.656   7.663 -1.5591 -1.3417 -0.4568
  644MOL0     H86929   6.282   7.756   7.804  3.8240 -0.9508 -0.7768
  644MOL0     H86930   6.048   7.641   7.850 -1.0672 -0.1912  0.3671
  644MOL0     H86931   6.084   7.553   7.699 -0.5215  0.6618  0.7192
  644MOL0     H86932   6.080   7.769   7.582  0.7890  0.5754  0.5423
  644MOL0     H86933   6.087   7.857   7.734 -0.9417  1.6274 -1.0527
  644MOL0     H86934   5.858   7.688   7.641  3.6200 -0.0169 -2.7530
  644MOL0     H86935   5.857   7.759   7.802 -0.8490  1.9940 -0.7614
  644MOL0     H86936   5.782   8.111   7.584  2.3790  0.0498 -0.5259
  644MOL0     H86937   6.516   7.703   7.794  2.5515  0.6872 -2.0832
  644MOL0     H86938   6.843   7.688   7.755 -0.0746  2.6606 -1.2824
  644MOL0     H86939   6.803   7.635   7.600  2.8936  1.9768  1.0130
  644MOL0     H86940   6.700   7.752   7.663  0.3580  1.1804  1.4724
  645MOL0     O86941   0.579   9.850   6.533 -0.7628 -0.8100 -0.3233
  645MOL0     C86942   0.507   9.856   6.434  0.5910  0.7150 -0.2398
  645MOL0     O86943   0.552   9.837   6.306 -0.2893 -0.2483 -0.1910
  645MOL0     C86944   0.682   9.810   6.282 -0.6748 -0.1556 -0.9680
  645MOL0     C86945   0.728   9.681   6.314 -0.4814  0.4926  1.0051
  645MOL0     C86946   0.857   9.637   6.281  0.1588  0.0411  0.8994
  645MOL0     C86947   0.941   9.737   6.233 -0.4435 -0.4813  0.0544
  645MOL0     O86948   1.062   9.684   6.190 -0.2172  0.5102  0.1468
  645MOL0     C86949   1.180   9.740   6.246  0.2671 -0.5830 -0.1373
  645MOL0     C86950   1.258   9.643   6.339  0.2127  0.3174  0.0566
  645MOL0     C86951   1.393   9.697   6.380 -0.4190 -0.5266  0.2928
  645MOL0     C86952   1.465   9.603   6.476 -0.5504 -0.1302  0.0116
  645MOL0     C86953   1.588   9.655   6.552 -0.9130  0.4259  0.0461
  645MOL0     C86954   1.652   9.545   6.651  0.6156 -1.1187 -0.1857
  645MOL0     C86955   1.723   9.433   6.571  0.8822  1.1585  0.8333
  645MOL0     C86956   1.853   9.398   6.647  0.7746 -0.8920  0.8615
  645MOL0     N86957   1.955   9.497   6.668  0.8421 -0.8489  0.9083
  645MOL0     C86958   2.047   9.536   6.577 -0.4780  1.0869  0.6994
  645MOL0     C86959   2.129   9.619   6.641 -0.0353  0.2986 -0.4480
  645MOL0     C86960   2.248   9.686   6.581 -0.3568 -0.2926 -0.0069
  645MOL0     C86961   2.375   9.606   6.590 -0.5158  0.6158 -0.0301
  645MOL0     C86962   2.430   9.570   6.725  0.1149 -0.1836 -0.2883
  645MOL0     C86963   2.555   9.471   6.732  0.1224  0.2622  0.2618
  645MOL0     O86964   2.666   9.541   6.691 -0.5440 -0.1216 -0.0975
  645MOL0     C86965   2.783   9.471   6.647  0.4788 -0.3628  0.4864
  645MOL0     C86966   2.778   9.329   6.661 -0.4429  0.4430  0.2320
  645MOL0     C86967   2.890   9.264   6.615  0.5323  0.1818 -0.6851
  645MOL0     C86968   3.002   9.317   6.550  0.0111 -0.2446  0.1928
  645MOL0     C86969   3.108   9.219   6.505 -0.6598 -0.3643 -0.8064
  645MOL0     O86970   3.234   9.269   6.473  0.2667  0.5806 -0.8518
  645MOL0     C86971   3.326   9.193   6.403  0.8207  0.1334  0.0169
  645MOL0     C86972   3.459   9.205   6.441 -0.4428  0.2149 -0.1108
  645MOL0     C86973   3.560   9.131   6.367  0.2867 -0.1734  0.2146
  645MOL0     C86974   3.529   9.056   6.250 -0.4059  0.0556 -0.9489
  645MOL0     O86975   3.622   8.970   6.190 -0.0272  0.6227 -0.0085
  645MOL0     C86976   3.642   8.996   6.051  0.9387 -0.7613 -0.5317
  645MOL0     C86977   3.786   8.954   6.017  0.0654 -0.4556  0.7816
  645MOL0     C86978   3.801   8.944   5.863 -0.2704  0.2336 -0.3795
  645MOL0     C86979   3.938   8.893   5.824 -0.6024  0.0185 -0.1335
  645MOL0     C86980   3.964   8.745   5.835  0.4448  0.1058 -0.1842
  645MOL0     C86981   3.936   8.679   5.701 -0.4397 -0.0366 -0.0930
  645MOL0     C86982   3.968   8.528   5.716  0.0950 -0.0270 -0.0397
  645MOL0     C86983   3.929   8.456   5.587  0.5197 -1.0554  0.5929
  645MOL0    Cl86984   3.987   8.291   5.600  0.0618 -0.5025  0.0916
  645MOL0     C86985   3.390   9.055   6.219 -0.2154 -0.6817  0.2174
  645MOL0     C86986   3.287   9.116   6.288 -0.3817 -0.9213 -0.5859
  645MOL0     O86987   3.085   9.098   6.505 -0.0467  0.2940 -0.2696
  645MOL0     C86988   2.997   9.451   6.519 -0.9118 -0.0356  0.2247
  645MOL0     C86989   2.889   9.525   6.566  0.1879  0.3116  0.1388
  645MOL0     N86990   2.074   9.634   6.767 -0.7490 -0.4727  0.3559
  645MOL0     N86991   1.973   9.562   6.784  0.3238 -0.4753  0.1597
  645MOL0     C86992   0.900   9.873   6.203 -1.3821 -0.4715  0.1878
  645MOL0     C86993   0.766   9.908   6.227 -0.5172  0.5968 -0.4259
  645MOL0     C86994   0.362   9.879   6.453  0.7173  0.3613  1.2294
  645MOL0     C86995   0.317   9.902   6.583 -0.8962 -0.5145  1.1387
  645MOL0     C86996   0.184   9.917   6.610 -0.3851 -0.3540 -0.2972
  645MOL0     C86997   0.087   9.914   6.507 -0.0354 -0.9110 -0.0094
  645MOL0     O86998  -0.055   9.927   6.534 -0.1838  0.6331  0.7849
  645MOL0     C86999  -0.104   9.850   6.651 -0.5298 -0.6261  0.2379
  645MOL0     C87000  -0.261   9.836   6.638  0.5332 -0.2845 -0.2184
  645MOL0     C87001  -0.325   9.976   6.651 -1.2762 -0.0270  0.7822
  645MOL0     C87002  -0.481   9.980   6.636 -0.2240 -0.1672 -0.4643
  645MOL0     C87003  -0.551   9.883   6.726 -0.6866  0.4436  0.2887
  645MOL0     C87004  -0.599   9.799   6.798  0.1959 -0.5649 -0.1098
  645MOL0     C87005   0.127   9.905   6.370  0.3684  0.5259 -0.3377
  645MOL0     C87006   0.260   9.882   6.342 -0.3639  0.9033  0.2397
  645MOL0     C87007   0.291   9.847   6.202 -0.5262  1.2412  0.0124
  645MOL0     H87008   0.655   9.609   6.350  0.6648 -0.4081  1.5876
  645MOL0     H87009   0.885   9.532   6.283  2.5746  0.6066  0.1357
  645MOL0     H87010   1.240   9.783   6.165 -0.6716  1.9277  0.4005
  645MOL0     H87011   1.159   9.827   6.309  1.6019 -0.7930  0.6325
  645MOL0     H87012   1.261   9.543   6.295 -1.9500 -0.3310  1.2687
  645MOL0     H87013   1.191   9.644   6.425 -0.5283  0.0475 -0.5062
  645MOL0     H87014   1.384   9.796   6.428  0.2935 -0.0502 -0.5382
  645MOL0     H87015   1.435   9.706   6.280  1.5543 -1.7643  0.9435
  645MOL0     H87016   1.391   9.576   6.552  0.1928  1.5520  1.4060
  645MOL0     H87017   1.492   9.510   6.424 -0.3666  0.1815 -0.4571
  645MOL0     H87018   1.650   9.688   6.469 -0.3333 -2.0968 -0.6181
  645MOL0     H87019   1.558   9.739   6.615 -1.3216  0.2699  0.0593
  645MOL0     H87020   1.718   9.600   6.718 -4.6770  3.4875  2.0592
  645MOL0     H87021   1.563   9.506   6.702 -0.2053  1.5892  0.5926
  645MOL0     H87022   1.729   9.466   6.467 -2.2282  1.6101  0.7224
  645MOL0     H87023   1.661   9.344   6.582  0.5506  1.2429 -0.2555
  645MOL0     H87024   1.825   9.383   6.752 -1.0208 -1.8093  0.2845
  645MOL0     H87025   1.903   9.311   6.603  1.6745 -0.2957  0.6768
  645MOL0     H87026   2.057   9.502   6.475 -3.0077 -0.3822  0.8728
  645MOL0     H87027   2.224   9.713   6.478  0.8202  3.2041  0.4805
  645MOL0     H87028   2.265   9.784   6.627  1.1250 -0.6404  0.2565
  645MOL0     H87029   2.354   9.515   6.533  0.5405  0.4091 -0.1105
  645MOL0     H87030   2.455   9.664   6.542  0.2145  1.6702  2.3247
  645MOL0     H87031   2.352   9.527   6.788  1.5513  1.3553  2.7409
  645MOL0     H87032   2.460   9.660   6.778  1.9731 -1.0041  0.1206
  645MOL0     H87033   2.534   9.382   6.672  1.3482  0.2309 -0.1506
  645MOL0     H87034   2.571   9.437   6.835  0.3530  4.4240  1.7756
  645MOL0     H87035   2.705   9.262   6.706  0.9430 -2.2811 -1.2563
  645MOL0     H87036   2.873   9.157   6.620  3.5122 -0.3759 -0.9165
  645MOL0     H87037   3.493   9.264   6.525  1.6923 -1.2846  0.1696
  645MOL0     H87038   3.664   9.123   6.398  1.9199  2.8309 -3.5418
  645MOL0     H87039   3.577   8.927   5.996  0.5863  1.1014 -2.5600
  645MOL0     H87040   3.617   9.096   6.015  1.7233 -0.9229 -1.5693
  645MOL0     H87041   3.854   9.031   6.054  2.0413  0.8082 -4.6292
  645MOL0     H87042   3.814   8.860   6.067  4.0397  1.4614  2.5896
  645MOL0     H87043   3.717   8.887   5.823  1.3656 -0.6118 -2.7918
  645MOL0     H87044   3.799   9.048   5.829  1.7035  0.2900 -0.4505
  645MOL0     H87045   4.005   8.950   5.888 -0.8585  0.2202 -0.0448
  645MOL0     H87046   3.954   8.916   5.718 -1.8933 -0.3363 -0.4280
  645MOL0     H87047   3.903   8.704   5.916 -1.2052  3.1194  0.2444
  645MOL0     H87048   4.068   8.732   5.865  0.4211 -0.6714 -0.4149
  645MOL0     H87049   3.834   8.704   5.672  0.3470  0.3751 -2.7098
  645MOL0     H87050   3.995   8.721   5.619  0.3305 -0.9303 -0.0172
  645MOL0     H87051   3.913   8.487   5.802 -2.3497  1.1579 -0.9343
  645MOL0     H87052   4.071   8.508   5.748  0.6390 -0.3867 -1.8853
  645MOL0     H87053   3.820   8.465   5.576  0.6234  2.4735  1.1474
  645MOL0     H87054   3.981   8.501   5.502 -0.1424  0.2818  0.8624
  645MOL0     H87055   3.364   9.005   6.127  0.4124  1.4095 -1.1768
  645MOL0     H87056   3.185   9.110   6.250 -0.7253 -0.1271  0.1764
  645MOL0     H87057   3.059   9.498   6.443 -1.9812  3.1002  1.1517
  645MOL0     H87058   2.870   9.625   6.529 -1.6126  0.9763  2.6120
  645MOL0     H87059   0.967   9.943   6.155 -0.5359 -0.7927  0.8730
  645MOL0     H87060   0.728  10.009   6.212 -1.5886  0.2077 -0.4650
  645MOL0     H87061   0.398   9.905   6.655  1.1025 -0.3780 -0.9885
  645MOL0     H87062   0.144   9.924   6.710 -1.2140  2.1489 -0.7353
  645MOL0     H87063  -0.089   9.899   6.748 -0.0150  1.4549 -0.8294
  645MOL0     H87064  -0.063   9.749   6.660  0.2597 -0.3647 -0.3612
  645MOL0     H87065  -0.294   9.776   6.724  1.1191  0.1173  0.3016
  645MOL0     H87066  -0.281   9.786   6.543  0.1480 -0.6196  0.0383
  645MOL0     H87067  -0.281  10.047   6.580 -0.8257 -2.1334 -1.1611
  645MOL0     H87068  -0.300  10.006   6.753  2.1883 -2.0850  0.6892
  645MOL0     H87069  -0.522  10.077   6.665  1.6503  0.2560  0.9860
  645MOL0     H87070  -0.509   9.959   6.532 -0.0286 -1.6699 -0.2384
  645MOL0     H87071  -0.629   9.729   6.873  2.7628 -1.3418  0.3044
  645MOL0     H87072   0.052   9.908   6.291 -0.1775  2.8573  0.1996
  645MOL0     H87073   0.382   9.896   6.166  0.2610 -1.4994 -2.0280
  645MOL0     H87074   0.309   9.739   6.201  2.0495  1.5992  0.1505
  645MOL0     H87075   0.209   9.858   6.131 -0.5008 -3.1746 -0.9970
  646MOL0     O87076   9.900   1.159   9.748 -0.8176 -0.3716 -0.2364
  646MOL0     C87077   9.885   1.119   9.858  0.0493 -0.8007 -0.6046
  646MOL0     O87078   9.989   1.075   9.936 -0.9114 -0.3614  0.1041
  646MOL0     C87079  10.122   1.092   9.908 -0.4444  0.1658  0.1393
  646MOL0     C87080  10.212   1.080  10.021 -0.0026  0.2180  0.8765
  646MOL0     C87081  10.345   1.097  10.012 -0.3776 -0.2295  0.2352
  646MOL0     C87082  10.408   1.120   9.888 -0.3500  0.1285 -0.6836
  646MOL0     O87083  10.545   1.139   9.873  0.2156  0.5270 -0.7300
  646MOL0     C87084  10.596   1.242   9.954 -0.1807 -0.1829 -0.3605
  646MOL0     C87085  10.747   1.249   9.961 -0.5275 -0.5619 -0.1547
  646MOL0     C87086  10.820   1.109  10.000  0.6747  0.5859  0.4348
  646MOL0     C87087  10.767   1.069  10.147  0.2271  0.5252 -0.5911
  646MOL0     C87088  10.847   0.957  10.223 -0.1883  0.7723 -0.2350
  646MOL0     C87089  10.758   0.895  10.339  0.1680  0.0291 -0.0828
  646MOL0     C87090  10.739   0.998  10.454 -0.2406  0.3948 -0.4081
  646MOL0     C87091  10.644   0.958  10.572 -0.1524  0.4350  0.4258
  646MOL0     N87092  10.694   0.847  10.653  0.4472 -0.0562  0.7270
  646MOL0     C87093  10.679   0.714  10.620 -0.1466 -0.2187 -0.0421
  646MOL0     C87094  10.740   0.643  10.720  0.0037 -0.2765 -0.9129
  646MOL0     C87095  10.741   0.489  10.727 -0.2501 -0.0516  0.1775
  646MOL0     C87096  10.839   0.442  10.610  0.5055  0.9916  0.6155
  646MOL0     C87097  10.985   0.490  10.620  0.0241  0.6399  0.5963
  646MOL0     C87098  11.065   0.444  10.737 -0.3510 -0.6220  0.2375
  646MOL0     O87099  11.034   0.508  10.860  0.0373 -0.4667  0.8149
  646MOL0     C87100  11.114   0.608  10.911  0.5750 -0.0187  0.2154
  646MOL0     C87101  11.168   0.715  10.833  0.7680  0.3308 -0.0796
  646MOL0     C87102  11.259   0.807  10.889  0.3157 -0.3205  0.1477
  646MOL0     C87103  11.302   0.793  11.027 -0.4726  0.5775 -0.2721
  646MOL0     C87104  11.415   0.876  11.083  0.1661 -0.2085 -0.3262
  646MOL0     O87105  11.455   0.986  11.018  0.2116 -0.4677 -0.2921
  646MOL0     C87106  11.557   1.064  11.069  0.8080  0.1232 -0.0167
  646MOL0     C87107  11.685   1.023  11.041 -0.3246 -0.0124 -0.4503
  646MOL0     C87108  11.795   1.093  11.090  0.0615  0.5698 -0.0857
  646MOL0     C87109  11.779   1.221  11.150  0.0890 -0.0372 -0.2857
  646MOL0     O87110  11.874   1.303  11.203 -0.7672 -0.6081 -1.0981
  646MOL0     C87111  12.007   1.262  11.177  0.6954 -0.1592 -0.9751
  646MOL0     C87112  12.112   1.386  11.187 -0.5751  0.4046  0.3293
  646MOL0     C87113  12.118   1.447  11.323  0.5611 -0.0940  0.8529
  646MOL0     C87114  12.199   1.576  11.320 -0.3086  0.7481 -0.4721
  646MOL0     C87115  12.197   1.641  11.457 -0.7659  0.2504 -0.1093
  646MOL0     C87116  12.271   1.777  11.439  0.1882  0.3841 -1.3029
  646MOL0     C87117  12.283   1.853  11.579 -0.0905  1.1651 -0.3204
  646MOL0     C87118  12.161   1.849  11.682  0.8128 -0.1814  1.0850
  646MOL0    Cl87119  12.180   1.968  11.814  0.4842 -0.3697  0.5354
  646MOL0     C87120  11.645   1.265  11.168  0.2732  0.6800  0.4566
  646MOL0     C87121  11.535   1.188  11.131  0.2032  0.8059 -0.0177
  646MOL0     O87122  11.453   0.851  11.198 -0.4665 -0.0097  0.4712
  646MOL0     C87123  11.257   0.685  11.106  0.3576 -0.2345  0.5773
  646MOL0     C87124  11.147   0.603  11.049 -0.5526 -0.4339 -0.1044
  646MOL0     N87125  10.783   0.736  10.823  0.1075  0.1461  0.4834
  646MOL0     N87126  10.759   0.854  10.769  1.0009 -0.2978  0.0430
  646MOL0     C87127  10.327   1.116   9.773  0.4334  0.2938 -0.5197
  646MOL0     C87128  10.185   1.112   9.783 -0.2575 -0.7660  0.0916
  646MOL0     C87129   9.747   1.097   9.906  0.6688 -0.8895  0.2734
  646MOL0     C87130   9.733   1.104  10.045  0.3843  0.1268 -0.3585
  646MOL0     C87131   9.616   1.068  10.101  0.7443  0.2801 -0.2930
  646MOL0     C87132   9.500   1.048  10.024 -0.3283  0.3509  0.2287
  646MOL0     O87133   9.388   1.023  10.094 -0.8880 -0.1979  0.6942
  646MOL0     C87134   9.278   0.983  10.012  0.0088  0.8804  1.0686
  646MOL0     C87135   9.157   0.926  10.090 -0.1646 -0.5654 -0.1514
  646MOL0     C87136   9.120   1.029  10.200 -0.0209  0.0640  1.2881
  646MOL0     C87137   8.994   0.983  10.268 -0.1001  0.5393  0.1513
  646MOL0     C87138   8.873   1.019  10.195  0.6037  0.1638 -0.0379
  646MOL0     C87139   8.769   1.054  10.141 -0.2601  1.2782  0.4391
  646MOL0     C87140   9.509   1.050   9.882  0.0707 -0.5966  0.8312
  646MOL0     C87141   9.631   1.071   9.820 -0.4880  0.0131  0.4028
  646MOL0     C87142   9.631   1.053   9.671  0.1516  0.8359 -0.1263
  646MOL0     H87143  10.172   1.070  10.122  2.8519 -2.2677  1.9036
  646MOL0     H87144  10.393   1.097  10.109 -0.7592  0.9494  0.4375
  646MOL0     H87145  10.562   1.339   9.917 -3.5925 -1.3955 -0.7934
  646MOL0     H87146  10.567   1.219  10.057  2.2363 -2.0823 -0.0000
  646MOL0     H87147  10.785   1.314  10.041 -0.2579  0.1454 -0.8425
  646MOL0     H87148  10.793   1.280   9.867  1.0482 -1.3395  0.3254
  646MOL0     H87149  10.928   1.124   9.990  0.7297  1.8199  2.3647
  646MOL0     H87150  10.794   1.035   9.923  3.5580 -0.3243  0.2341
  646MOL0     H87151  10.764   1.157  10.213 -0.3859 -0.8776  1.3400
  646MOL0     H87152  10.663   1.036  10.136  0.6844 -0.0231 -4.2273
  646MOL0     H87153  10.868   0.883  10.146  0.0746  0.2066  0.3719
  646MOL0     H87154  10.946   0.985  10.259  0.0764  1.6396 -1.5772
  646MOL0     H87155  10.658   0.864  10.306  0.6818 -3.2595  1.0313
  646MOL0     H87156  10.805   0.812  10.393 -1.5100 -0.3505  0.8766
  646MOL0     H87157  10.702   1.091  10.409 -0.3668 -0.9010 -3.1836
  646MOL0     H87158  10.835   0.993  10.505 -0.4036 -0.0431 -0.1416
  646MOL0     H87159  10.625   1.045  10.635 -0.4265 -0.4207  1.5577
  646MOL0     H87160  10.548   0.930  10.526 -0.3695 -1.1841  1.7694
  646MOL0     H87161  10.639   0.663  10.533  2.2608  0.2043 -1.4677
  646MOL0     H87162  10.778   0.459  10.826 -1.9587 -2.6289  0.1147
  646MOL0     H87163  10.644   0.443  10.707 -1.2682  1.7056  0.8302
  646MOL0     H87164  10.836   0.332  10.607  2.3365  0.9481 -0.8990
  646MOL0     H87165  10.793   0.477  10.518 -0.0243 -1.6420 -0.2180
  646MOL0     H87166  10.998   0.597  10.606  1.6942  0.2002 -1.9140
  646MOL0     H87167  11.038   0.446  10.534  1.7179 -0.4490  2.1253
  646MOL0     H87168  11.172   0.463  10.721 -0.3411  0.9922  1.7621
  646MOL0     H87169  11.052   0.336  10.745 -1.9220 -0.3577  1.7468
  646MOL0     H87170  11.127   0.728  10.733 -3.2222  2.1414  1.5917
  646MOL0     H87171  11.315   0.885  10.840  1.3393  1.4948  3.8238
  646MOL0     H87172  11.685   0.926  10.992 -0.8776 -2.4931  3.9855
  646MOL0     H87173  11.898   1.061  11.075 -0.9875 -1.6771 -3.7830
  646MOL0     H87174  12.038   1.180  11.243 -2.1010 -1.9553 -1.6847
  646MOL0     H87175  12.008   1.230  11.072 -0.9400 -0.5391 -0.9105
  646MOL0     H87176  12.207   1.358  11.139 -1.5413 -1.8394 -0.4532
  646MOL0     H87177  12.067   1.461  11.121 -1.8393 -0.8974 -0.3661
  646MOL0     H87178  12.018   1.470  11.359  1.1313  2.0812  1.1804
  646MOL0     H87179  12.169   1.378  11.392  0.5494 -1.0620 -0.0802
  646MOL0     H87180  12.161   1.643  11.243  0.2251 -1.1410 -2.4767
  646MOL0     H87181  12.300   1.555  11.284 -0.2699  1.0013 -0.5127
  646MOL0     H87182  12.253   1.578  11.527 -0.2051  1.5656  0.6451
  646MOL0     H87183  12.099   1.661  11.502  0.5424  1.9261  2.1671
  646MOL0     H87184  12.376   1.776  11.407 -0.0621  0.0180 -2.1596
  646MOL0     H87185  12.207   1.838  11.375 -0.5404 -0.4436 -1.3812
  646MOL0     H87186  12.303   1.958  11.556 -2.3813  2.1797  1.8423
  646MOL0     H87187  12.371   1.819  11.634  1.0783  1.7288 -1.8041
  646MOL0     H87188  12.071   1.857  11.620  1.3300 -3.1118 -0.2472
  646MOL0     H87189  12.160   1.753  11.735 -3.6584 -0.3594  1.0549
  646MOL0     H87190  11.623   1.358  11.220 -0.1349  1.7782 -1.6092
  646MOL0     H87191  11.438   1.231  11.150  0.5293  1.6019 -0.1218
  646MOL0     H87192  11.290   0.675  11.209 -1.0130  2.0354  1.3048
  646MOL0     H87193  11.110   0.528  11.118 -0.7701  0.1860  0.4594
  646MOL0     H87194  10.378   1.120   9.677 -0.8133  1.3629 -1.1929
  646MOL0     H87195  10.142   1.115   9.683  1.4234  3.7532 -0.7237
  646MOL0     H87196   9.811   1.133  10.115 -0.0927  0.0381  0.2144
  646MOL0     H87197   9.624   1.081  10.208  1.0792  2.5059 -0.5421
  646MOL0     H87198   9.308   0.904   9.942 -2.4842 -2.0076  3.0003
  646MOL0     H87199   9.250   1.076   9.960  1.4740  1.0644  0.5493
  646MOL0     H87200   9.184   0.828  10.131 -0.4236 -0.7594 -0.4376
  646MOL0     H87201   9.079   0.903  10.017  1.3561 -1.8718 -1.4487
  646MOL0     H87202   9.120   1.132  10.164 -3.5796 -0.3195 -0.1645
  646MOL0     H87203   9.210   1.021  10.262  0.1732 -0.8399  0.9059
  646MOL0     H87204   9.003   0.875  10.278  1.7176  0.5487 -0.9384
  646MOL0     H87205   8.978   1.028  10.366 -0.7651  1.4036 -0.3371
  646MOL0     H87206   8.679   1.085  10.091  1.0563  0.9861 -2.2926
  646MOL0     H87207   9.421   1.024   9.824 -0.5377 -3.3208  2.7726
  646MOL0     H87208   9.628   1.146   9.614  0.9916  0.8378 -0.1731
  646MOL0     H87209   9.720   0.993   9.648 -1.5134 -2.0618  0.4912
  646MOL0     H87210   9.548   0.990   9.638  0.8711 -0.3723  0.3219
  647MOL0     O87211   3.575  11.291   2.830 -0.5291 -0.2141 -0.0518
  647MOL0     C87212   3.631  11.361   2.742 -0.0631  0.7523 -0.5402
  647MOL0     O87213   3.624  11.341   2.605 -0.0378 -0.2625  0.5318
  647MOL0     C87214   3.508  11.295   2.545  0.3345  0.0157 -0.2086
  647MOL0     C87215   3.519  11.200   2.441 -0.3531  0.9224 -0.2201
  647MOL0     C87216   3.402  11.152   2.384 -1.1582 -0.7580 -0.3504
  647MOL0     C87217   3.277  11.194   2.430 -0.5246 -0.3089 -0.4841
  647MOL0     O87218   3.173  11.125   2.378 -0.3404  0.6365  1.0415
  647MOL0     C87219   3.041  11.177   2.375  0.0374  0.0540  0.5875
  647MOL0     C87220   2.959  11.134   2.500 -0.1334  0.4948 -0.0991
  647MOL0     C87221   2.813  11.117   2.487 -0.3733 -0.2832 -0.2437
  647MOL0     C87222   2.770  11.011   2.382  0.3201  0.6879 -0.5637
  647MOL0     C87223   2.621  10.963   2.374 -0.3992 -0.0556  0.6674
  647MOL0     C87224   2.520  11.081   2.382  0.5532 -0.1985 -0.4564
  647MOL0     C87225   2.380  11.038   2.362  0.7207 -0.6456 -0.5906
  647MOL0     C87226   2.280  11.153   2.348 -0.2840 -0.0401  0.0903
  647MOL0     N87227   2.142  11.112   2.357  0.7290 -0.2520 -1.1156
  647MOL0     C87228   2.081  11.029   2.263 -0.4383  0.7767 -1.0326
  647MOL0     C87229   1.955  11.010   2.294  0.2619  0.5305 -0.1519
  647MOL0     C87230   1.855  10.933   2.211  0.2799  0.8224 -0.3462
  647MOL0     C87231   1.745  11.022   2.142 -0.3861  0.9057 -0.5970
  647MOL0     C87232   1.804  11.120   2.044  0.0708  0.7376  0.4052
  647MOL0     C87233   1.704  11.240   2.049 -0.1612 -0.1631  1.5690
  647MOL0     O87234   1.741  11.357   1.963 -0.2171  0.7878  0.1236
  647MOL0     C87235   1.866  11.402   1.992 -0.1190  0.2505  0.2922
  647MOL0     C87236   1.882  11.467   2.112  0.1854 -0.5079 -0.0717
  647MOL0     C87237   2.016  11.501   2.142  0.4783 -0.1451 -0.9144
  647MOL0     C87238   2.126  11.473   2.057 -0.1582  1.0301 -0.6446
  647MOL0     C87239   2.269  11.510   2.098  0.4149 -1.2479 -0.0490
  647MOL0     O87240   2.284  11.604   2.207 -0.3180 -0.1737 -0.0241
  647MOL0     C87241   2.398  11.602   2.277 -0.4780 -0.1734  0.0342
  647MOL0     C87242   2.485  11.488   2.287  0.2723  0.1611  0.0459
  647MOL0     C87243   2.609  11.492   2.357  0.6883  0.0975  0.7583
  647MOL0     C87244   2.660  11.616   2.404 -0.1960  0.8039 -0.4770
  647MOL0     O87245   2.796  11.614   2.446 -0.2122 -0.0120  0.0904
  647MOL0     C87246   2.860  11.747   2.427 -0.6198 -0.1081 -0.7479
  647MOL0     C87247   3.009  11.726   2.448 -1.1105  0.3854 -0.4069
  647MOL0     C87248   3.041  11.651   2.580 -0.3410 -0.7551 -0.0431
  647MOL0     C87249   3.191  11.666   2.610 -0.5618 -0.5552 -0.0442
  647MOL0     C87250   3.240  11.643   2.754  0.2527  0.0183 -0.2488
  647MOL0     C87251   3.178  11.755   2.842  0.5545  0.1234  1.5736
  647MOL0     C87252   3.239  11.758   2.980  0.5488  0.1313 -0.8868
  647MOL0     C87253   3.177  11.875   3.061  0.7776 -0.0342  0.3339
  647MOL0    Cl87254   2.996  11.871   3.078 -0.2911  0.0396  0.3475
  647MOL0     C87255   2.577  11.722   2.386  0.0365 -0.8845 -0.0890
  647MOL0     C87256   2.454  11.723   2.329 -0.1170 -0.0615 -0.1073
  647MOL0     O87257   2.357  11.462   2.034  0.1762  0.2559 -0.9621
  647MOL0     C87258   2.100  11.403   1.938  0.7208 -0.7411 -0.0532
  647MOL0     C87259   1.970  11.377   1.899 -0.3146 -0.5118  0.4058
  647MOL0     N87260   1.935  11.078   2.414 -0.0726  0.6188  0.0802
  647MOL0     N87261   2.046  11.140   2.450  0.1031 -0.0603 -0.6892
  647MOL0     C87262   3.260  11.277   2.541 -0.3502 -1.0449 -0.1593
  647MOL0     C87263   3.380  11.333   2.598 -0.2129  0.3446  0.1614
  647MOL0     C87264   3.722  11.472   2.786  0.4720  1.2237  0.8448
  647MOL0     C87265   3.842  11.483   2.701 -0.0771  0.4809  0.5302
  647MOL0     C87266   3.943  11.571   2.727 -0.2918 -0.3600 -0.6781
  647MOL0     C87267   3.932  11.649   2.838  0.0573 -1.0688 -0.3752
  647MOL0     O87268   4.029  11.748   2.863 -0.5277  0.5766 -0.1956
  647MOL0     C87269   4.119  11.789   2.758  0.0237 -0.6312 -0.3461
  647MOL0     C87270   4.186  11.926   2.800  0.2556  0.1254  0.1049
  647MOL0     C87271   4.315  11.947   2.726 -0.5838  0.2530 -1.2241
  647MOL0     C87272   4.378  12.085   2.761  0.3874 -0.0387 -0.3424
  647MOL0     C87273   4.520  12.093   2.714  0.3389  0.1067 -0.8691
  647MOL0     C87274   4.626  12.127   2.662 -0.0699 -0.9030  0.1635
  647MOL0     C87275   3.816  11.631   2.920  0.0571  0.4167  0.0876
  647MOL0     C87276   3.701  11.558   2.889  1.2414 -0.3819  0.7424
  647MOL0     C87277   3.574  11.566   2.972  0.1324 -0.9316 -0.3057
  647MOL0     H87278   3.610  11.149   2.413 -2.6801 -3.1967 -1.1163
  647MOL0     H87279   3.405  11.076   2.306  1.1221  0.8216 -1.9217
  647MOL0     H87280   3.045  11.286   2.371  0.2138  0.0427  0.4130
  647MOL0     H87281   2.985  11.156   2.283 -3.5943  1.0738  2.3866
  647MOL0     H87282   2.978  11.201   2.584 -0.1167 -1.1861  1.3061
  647MOL0     H87283   2.996  11.032   2.518 -3.3048 -0.7809 -0.0733
  647MOL0     H87284   2.774  11.215   2.458  1.7162  0.2683 -1.4095
  647MOL0     H87285   2.768  11.098   2.584  1.6165 -0.6240  0.6709
  647MOL0     H87286   2.788  11.056   2.284  2.0734  2.1052  0.3583
  647MOL0     H87287   2.835  10.923   2.381  0.7479  0.9254  1.5946
  647MOL0     H87288   2.605  10.919   2.275  0.3030 -0.0879  0.5612
  647MOL0     H87289   2.597  10.900   2.459 -0.8014  1.4151  1.6820
  647MOL0     H87290   2.522  11.126   2.482 -1.4857 -0.0555 -0.4525
  647MOL0     H87291   2.537  11.152   2.300  0.4484 -1.5725 -1.7046
  647MOL0     H87292   2.358  10.977   2.449 -0.5035  0.9636  0.2740
  647MOL0     H87293   2.375  10.984   2.267  0.1011 -1.6813  0.0210
  647MOL0     H87294   2.316  11.230   2.417 -1.1858 -0.2503  0.8224
  647MOL0     H87295   2.287  11.197   2.248 -2.9589 -1.6583 -0.9353
  647MOL0     H87296   2.135  10.987   2.178 -0.5146  0.9831 -1.1834
  647MOL0     H87297   1.907  10.877   2.134  2.4003 -1.3630  2.4379
  647MOL0     H87298   1.815  10.859   2.281  0.3397  1.3498  0.2591
  647MOL0     H87299   1.678  10.964   2.078 -1.5650 -0.6767  1.9009
  647MOL0     H87300   1.687  11.068   2.223 -0.5368 -1.6865  0.8858
  647MOL0     H87301   1.812  11.079   1.943 -1.9550 -2.3976  1.3645
  647MOL0     H87302   1.907  11.145   2.070  0.5475 -1.3232  0.6639
  647MOL0     H87303   1.688  11.263   2.155  1.4079 -0.2724  1.8501
  647MOL0     H87304   1.607  11.206   2.010  1.1516 -1.4723 -0.7930
  647MOL0     H87305   1.798  11.473   2.181  2.0034  1.3939  2.1549
  647MOL0     H87306   2.045  11.544   2.238  0.3286 -0.5038 -0.7080
  647MOL0     H87307   2.444  11.393   2.253 -0.3344 -1.3710  4.4908
  647MOL0     H87308   2.658  11.395   2.362  0.0060 -0.3516 -0.7517
  647MOL0     H87309   2.843  11.779   2.323 -0.0522  0.3657 -0.6940
  647MOL0     H87310   2.835  11.825   2.499  3.2328 -1.3524  2.2542
  647MOL0     H87311   3.051  11.676   2.361 -0.7057 -0.7750  0.4302
  647MOL0     H87312   3.049  11.827   2.449 -2.1062  0.8289  1.8474
  647MOL0     H87313   2.980  11.696   2.659  0.4192  1.8388 -0.8248
  647MOL0     H87314   3.027  11.543   2.582 -0.6633 -0.7024  2.1696
  647MOL0     H87315   3.227  11.765   2.582 -0.7559 -0.4112  0.2167
  647MOL0     H87316   3.253  11.605   2.543 -0.6898 -0.7899  0.0473
  647MOL0     H87317   3.348  11.651   2.767  0.4145 -0.1648 -1.4496
  647MOL0     H87318   3.200  11.548   2.791 -1.0863  0.0299 -1.5729
  647MOL0     H87319   3.212  11.847   2.794  0.7425 -0.1860  1.1096
  647MOL0     H87320   3.070  11.741   2.836  0.6674 -0.2564  0.2171
  647MOL0     H87321   3.348  11.762   2.971  0.6940  1.0317  0.8046
  647MOL0     H87322   3.212  11.668   3.037  1.3352  0.9701  0.8955
  647MOL0     H87323   3.214  11.876   3.164 -3.8101 -0.8406  2.2259
  647MOL0     H87324   3.199  11.969   3.009 -3.1630  0.9176  0.0444
  647MOL0     H87325   2.615  11.817   2.423  0.3350 -1.9347  2.4713
  647MOL0     H87326   2.395  11.814   2.324  0.3501  0.1849 -1.6783
  647MOL0     H87327   2.180  11.373   1.872  0.8294 -1.1266  0.2524
  647MOL0     H87328   1.960  11.327   1.803 -1.2288  1.2790 -0.4850
  647MOL0     H87329   3.161  11.288   2.583 -0.1591 -1.3883  0.3874
  647MOL0     H87330   3.375  11.395   2.687  1.9185 -0.7197  1.1283
  647MOL0     H87331   3.863  11.424   2.612  3.7182 -0.5075  1.8730
  647MOL0     H87332   4.034  11.559   2.670  0.6441 -1.1206  0.9165
  647MOL0     H87333   4.075  11.808   2.660  1.0861  1.8667 -0.4057
  647MOL0     H87334   4.191  11.709   2.738  1.8206  0.8007  0.1778
  647MOL0     H87335   4.202  11.910   2.907  1.3261 -0.1177 -0.0780
  647MOL0     H87336   4.119  12.009   2.778 -0.6797 -0.8623 -0.9241
  647MOL0     H87337   4.297  11.955   2.618 -1.3145  2.3330 -0.9932
  647MOL0     H87338   4.376  11.858   2.741 -2.9434 -1.5136 -1.5378
  647MOL0     H87339   4.317  12.164   2.716 -3.1004 -0.3033  3.3465
  647MOL0     H87340   4.386  12.101   2.868 -0.1924  2.8067 -0.6588
  647MOL0     H87341   4.718  12.148   2.612 -0.9099  0.1875 -0.9964
  647MOL0     H87342   3.817  11.696   3.007 -1.5464  0.0621  0.4042
  647MOL0     H87343   3.596  11.509   3.062 -0.5311  0.6318  0.8894
  647MOL0     H87344   3.559  11.670   3.002  0.1677 -0.3729 -2.1116
  647MOL0     H87345   3.492  11.517   2.919  1.1462  0.7843 -3.7495
  648MOL0     O87346   6.336   3.085   7.433 -0.1088 -0.5197  0.7118
  648MOL0     C87347   6.268   3.006   7.496  0.0497 -0.3415  0.0948
  648MOL0     O87348   6.316   2.889   7.543 -0.4525 -0.6523 -0.1401
  648MOL0     C87349   6.452   2.878   7.537 -0.0639 -0.1127  0.4235
  648MOL0     C87350   6.525   2.854   7.411 -0.1111 -0.3989 -0.2384
  648MOL0     C87351   6.660   2.830   7.400 -0.3075 -0.5070  0.7012
  648MOL0     C87352   6.740   2.841   7.519  0.5011 -0.3705  0.0692
  648MOL0     O87353   6.867   2.806   7.510 -1.2511 -0.2795  0.2348
  648MOL0     C87354   6.956   2.859   7.611 -0.6242  0.8857 -0.2043
  648MOL0     C87355   7.100   2.874   7.558 -0.5120  0.2759  0.7995
  648MOL0     C87356   7.103   2.888   7.403  1.0686  0.4249 -0.4695
  648MOL0     C87357   7.245   2.942   7.364 -0.0563 -0.2204 -0.8782
  648MOL0     C87358   7.235   3.098   7.363  0.3030  0.2162 -0.5689
  648MOL0     C87359   7.355   3.170   7.306 -0.7856  0.0140  0.5595
  648MOL0     C87360   7.334   3.332   7.337 -0.0951  0.3143 -0.3679
  648MOL0     C87361   7.414   3.421   7.244 -0.5050 -0.2360  0.1780
  648MOL0     N87362   7.554   3.381   7.235  0.0606 -0.0378  0.4270
  648MOL0     C87363   7.647   3.388   7.342  0.6813  0.2304  0.1494
  648MOL0     C87364   7.760   3.344   7.293  0.2094  0.8461  0.4876
  648MOL0     C87365   7.883   3.325   7.373 -0.4077 -0.8151 -0.4384
  648MOL0     C87366   7.968   3.451   7.370 -0.2032 -1.0123 -0.5784
  648MOL0     C87367   8.099   3.434   7.440  0.0117 -0.4867 -1.4290
  648MOL0     C87368   8.087   3.467   7.583  0.2464 -0.8360  0.2404
  648MOL0     O87369   8.208   3.449   7.647  0.2850 -0.3295  0.0318
  648MOL0     C87370   8.318   3.533   7.622  1.2222 -0.7194  0.3894
  648MOL0     C87371   8.306   3.668   7.558 -0.1274  0.7514  0.6992
  648MOL0     C87372   8.426   3.748   7.564 -0.0992 -0.7902 -0.4130
  648MOL0     C87373   8.545   3.692   7.597  0.0863  0.0230 -0.1319
  648MOL0     C87374   8.669   3.765   7.559 -0.0407 -0.2984  0.0488
  648MOL0     O87375   8.786   3.719   7.622  0.1809 -0.1378  0.6122
  648MOL0     C87376   8.907   3.786   7.637  0.4916  0.1552 -0.3832
  648MOL0     C87377   9.011   3.717   7.678 -0.6049  0.6847  1.1169
  648MOL0     C87378   9.137   3.772   7.690  0.8197  0.6479 -0.6318
  648MOL0     C87379   9.158   3.909   7.661  0.0907  0.3565  0.1892
  648MOL0     O87380   9.285   3.965   7.671 -0.3842  0.2763  0.4249
  648MOL0     C87381   9.409   3.895   7.667 -1.0063  0.6815  0.0775
  648MOL0     C87382   9.504   3.981   7.590 -0.2735 -0.0582 -0.1822
  648MOL0     C87383   9.460   4.009   7.449  0.4628  0.1906 -0.0691
  648MOL0     C87384   9.572   4.010   7.350  0.1355  0.3077  0.4340
  648MOL0     C87385   9.612   4.150   7.295  0.6026 -0.1405 -0.3427
  648MOL0     C87386   9.712   4.149   7.179 -0.0619  0.1620  0.3682
  648MOL0     C87387   9.643   4.104   7.045 -0.4156 -0.4456  0.0746
  648MOL0     C87388   9.588   4.220   6.973 -0.7820  0.2720  0.2767
  648MOL0    Cl87389   9.543   4.185   6.802  0.2568  0.2846  0.2222
  648MOL0     C87390   9.048   3.987   7.634 -0.7631 -0.3578  0.1977
  648MOL0     C87391   8.923   3.927   7.618  0.5880 -0.6883 -0.4298
  648MOL0     O87392   8.662   3.854   7.477  0.3536  0.1172 -1.0311
  648MOL0     C87393   8.547   3.565   7.654 -0.2947 -0.5141  0.0437
  648MOL0     C87394   8.436   3.491   7.671  0.4241 -0.1145 -0.9952
  648MOL0     N87395   7.750   3.317   7.160  0.7791  0.1267  0.0829
  648MOL0     N87396   7.617   3.324   7.129 -1.0684  0.1222  0.1855
  648MOL0     C87397   6.669   2.859   7.642 -0.3656 -0.1264  0.0925
  648MOL0     C87398   6.531   2.876   7.649 -0.1365 -0.5549  0.2174
  648MOL0     C87399   6.118   3.017   7.505  0.0913 -0.7625 -0.7771
  648MOL0     C87400   6.046   2.902   7.531  0.1220  0.0883 -0.4559
  648MOL0     C87401   5.910   2.891   7.522 -0.3828  0.0231 -0.4256
  648MOL0     C87402   5.833   3.005   7.488  0.4230  0.0561 -0.1475
  648MOL0     O87403   5.691   3.006   7.483 -0.1759 -0.0421 -0.0124
  648MOL0     C87404   5.612   3.128   7.489 -0.0919 -0.3725  0.3867
  648MOL0     C87405   5.484   3.105   7.568  0.3294  0.8259 -0.0558
  648MOL0     C87406   5.382   3.223   7.542 -0.1256 -0.4914  0.3038
  648MOL0     C87407   5.276   3.233   7.648 -0.1526 -0.0477 -0.3147
  648MOL0     C87408   5.186   3.124   7.651  0.7513  0.1856  0.0153
  648MOL0     C87409   5.101   3.042   7.652  0.0461  0.9024  0.1533
  648MOL0     C87410   5.905   3.123   7.463  0.0794  0.0702  0.4871
  648MOL0     C87411   6.045   3.137   7.462 -0.5010  1.1952 -0.8962
  648MOL0     C87412   6.102   3.269   7.423 -0.5628  0.0067 -0.7248
  648MOL0     H87413   6.466   2.855   7.320 -2.5872 -2.7212  1.1896
  648MOL0     H87414   6.700   2.805   7.303  2.5466  3.4370  0.6261
  648MOL0     H87415   6.924   2.959   7.642 -1.3670  0.9756 -1.2336
  648MOL0     H87416   6.960   2.793   7.699  0.3921  3.8070  2.1307
  648MOL0     H87417   7.150   2.781   7.585  1.6125  0.5122 -1.8708
  648MOL0     H87418   7.152   2.960   7.601  1.4226 -0.3398 -0.2096
  648MOL0     H87419   7.013   2.943   7.372  0.4538  0.9616  2.0809
  648MOL0     H87420   7.080   2.788   7.365 -2.6381 -0.0975  2.5360
  648MOL0     H87421   7.313   2.906   7.442 -1.6606  1.2804  1.3331
  648MOL0     H87422   7.286   2.911   7.268 -2.8181  0.6676 -2.4681
  648MOL0     H87423   7.145   3.115   7.303 -0.5594  0.1220  0.6505
  648MOL0     H87424   7.194   3.127   7.460  0.7829 -2.2346  0.4475
  648MOL0     H87425   7.442   3.134   7.361  0.0772 -0.2876 -0.9471
  648MOL0     H87426   7.358   3.144   7.200 -0.5895  2.7688 -0.1686
  648MOL0     H87427   7.362   3.352   7.441  1.1198  2.8511 -1.1242
  648MOL0     H87428   7.225   3.345   7.330 -0.5933 -2.1404  1.4382
  648MOL0     H87429   7.373   3.416   7.143  2.2414 -1.0812 -0.9746
  648MOL0     H87430   7.402   3.527   7.269 -0.4040 -0.5172  1.4796
  648MOL0     H87431   7.622   3.414   7.445  2.4247 -0.2652  0.7422
  648MOL0     H87432   7.859   3.312   7.479  3.4637 -0.3188  0.6350
  648MOL0     H87433   7.936   3.234   7.343  1.3141 -0.4076  1.1816
  648MOL0     H87434   7.985   3.483   7.266 -0.3458  1.6189  0.1352
  648MOL0     H87435   7.910   3.532   7.414  1.5875  0.3113 -0.5460
  648MOL0     H87436   8.170   3.506   7.399 -1.9778  1.1483 -2.1732
  648MOL0     H87437   8.145   3.336   7.428  0.1704 -0.8909  1.5541
  648MOL0     H87438   8.025   3.393   7.635 -1.4632  0.0006 -0.5402
  648MOL0     H87439   8.048   3.567   7.606  0.9915 -0.0422 -1.7505
  648MOL0     H87440   8.215   3.717   7.527  0.2501  0.8060 -0.3641
  648MOL0     H87441   8.423   3.847   7.518 -1.8119 -0.3160  0.6140
  648MOL0     H87442   8.999   3.613   7.705  0.6109 -0.2868 -1.6741
  648MOL0     H87443   9.213   3.695   7.701  0.5991  0.6007  0.6898
  648MOL0     H87444   9.445   3.878   7.769 -1.6014  2.7112  0.6694
  648MOL0     H87445   9.394   3.804   7.609 -0.9033  0.6338  0.1255
  648MOL0     H87446   9.510   4.083   7.630  1.3455 -0.1336 -0.1784
  648MOL0     H87447   9.603   3.934   7.588  0.4655  1.4187  0.2680
  648MOL0     H87448   9.383   3.935   7.424  0.6605 -0.3948  0.9939
  648MOL0     H87449   9.407   4.104   7.452 -0.5983  0.0504 -5.1764
  648MOL0     H87450   9.548   3.952   7.260  1.4411  0.4701 -0.0521
  648MOL0     H87451   9.656   3.957   7.397 -0.7826 -0.4920  1.2054
  648MOL0     H87452   9.651   4.200   7.384  1.0191 -0.5806 -0.2706
  648MOL0     H87453   9.527   4.206   7.256  0.8808 -0.7437 -1.8846
  648MOL0     H87454   9.764   4.244   7.171 -0.1929  0.2262  0.2734
  648MOL0     H87455   9.780   4.067   7.205 -1.2176 -1.3158 -0.9936
  648MOL0     H87456   9.566   4.028   7.061 -0.2323 -0.8070 -0.6803
  648MOL0     H87457   9.720   4.058   6.982  0.1315 -0.5487  0.7975
  648MOL0     H87458   9.503   4.269   7.023 -4.7092 -1.2127 -4.1981
  648MOL0     H87459   9.672   4.291   6.968 -1.4827  1.2097  1.1370
  648MOL0     H87460   9.064   4.091   7.607 -6.0350  0.5596 -0.4727
  648MOL0     H87461   8.841   3.993   7.591  0.4068 -1.1444 -1.0299
  648MOL0     H87462   8.643   3.516   7.668 -1.0716 -2.0426  0.2952
  648MOL0     H87463   8.443   3.401   7.732 -1.8685 -0.0587 -0.5704
  648MOL0     H87464   6.720   2.861   7.738 -1.6151  1.2737  0.7706
  648MOL0     H87465   6.483   2.882   7.746 -0.1493 -0.1208  0.1871
  648MOL0     H87466   6.100   2.816   7.569  2.4794  0.8673 -1.8487
  648MOL0     H87467   5.882   2.792   7.557 -1.6729 -0.1029 -1.7220
  648MOL0     H87468   5.594   3.161   7.386  0.4210 -0.8831  0.1230
  648MOL0     H87469   5.659   3.214   7.537 -1.3980  1.7788 -1.9383
  648MOL0     H87470   5.505   3.086   7.674 -1.3002  2.3305  0.5835
  648MOL0     H87471   5.435   3.013   7.536 -0.9794  1.1077  1.0476
  648MOL0     H87472   5.333   3.211   7.445  0.2385 -2.5805  0.3284
  648MOL0     H87473   5.441   3.314   7.535  0.3634 -0.6826  1.5729
  648MOL0     H87474   5.320   3.249   7.747 -1.5080  2.0260  0.0257
  648MOL0     H87475   5.216   3.324   7.639  3.1419  2.1393 -2.7626
  648MOL0     H87476   5.032   2.963   7.671 -1.0546  1.5785 -0.8688
  648MOL0     H87477   5.843   3.208   7.437 -1.3749 -0.7325  1.2350
  648MOL0     H87478   6.112   3.272   7.314 -0.8782  3.7073 -0.7780
  648MOL0     H87479   6.041   3.354   7.454 -1.3617 -0.0004 -2.1832
  648MOL0     H87480   6.201   3.280   7.469 -1.4880 -1.0444  1.6597
  649MOL0     O87481   9.215   5.177   2.698  0.1510  0.3313 -0.2936
  649MOL0     C87482   9.247   5.066   2.656 -0.3835  1.1605 -0.3053
  649MOL0     O87483   9.326   4.979   2.721  0.3044 -0.1668 -0.3800
  649MOL0     C87484   9.413   5.028   2.816  0.2122 -0.3020 -0.3986
  649MOL0     C87485   9.518   5.110   2.776  0.8773 -0.0739  0.0188
  649MOL0     C87486   9.607   5.159   2.869 -0.7658 -0.4698  0.1158
  649MOL0     C87487   9.580   5.140   3.003  0.5088  0.1773  0.4484
  649MOL0     O87488   9.645   5.194   3.103  0.3654  0.3215 -0.0534
  649MOL0     C87489   9.791   5.183   3.104  0.8805 -0.4025  0.3440
  649MOL0     C87490   9.856   5.319   3.062  0.1968  0.1563 -0.4093
  649MOL0     C87491  10.001   5.311   3.076 -0.0762  0.0049  0.6430
  649MOL0     C87492  10.065   5.259   2.952  0.0613  0.0816  0.3942
  649MOL0     C87493  10.204   5.321   2.939  0.6659 -0.2840 -0.1442
  649MOL0     C87494  10.292   5.310   3.066  0.0774  0.2652 -0.4460
  649MOL0     C87495  10.430   5.359   3.042 -0.0626 -0.4945 -0.0958
  649MOL0     C87496  10.519   5.255   2.985 -0.0939  0.3552 -0.0860
  649MOL0     N87497  10.660   5.287   3.025  0.0041 -0.0838 -0.4659
  649MOL0     C87498  10.740   5.400   3.003 -0.1375  0.0352  0.6790
  649MOL0     C87499  10.862   5.373   3.057  0.2237 -0.2290  0.2684
  649MOL0     C87500  10.972   5.466   3.078 -0.0589 -0.6859  0.0740
  649MOL0     C87501  10.941   5.566   3.185  0.6710 -0.3876  1.1047
  649MOL0     C87502  10.940   5.513   3.328 -1.4225  0.1116  0.7090
  649MOL0     C87503  10.940   5.625   3.433 -0.5491  0.3106  0.8476
  649MOL0     O87504  11.042   5.720   3.435 -0.1619  0.0347 -0.4044
  649MOL0     C87505  11.172   5.674   3.456  0.1784 -0.5104  0.2275
  649MOL0     C87506  11.273   5.743   3.394 -0.0538 -0.3874 -0.5435
  649MOL0     C87507  11.404   5.693   3.396  0.1542 -0.7424 -1.1542
  649MOL0     C87508  11.435   5.578   3.460 -0.3760 -0.3919 -0.3932
  649MOL0     C87509  11.575   5.525   3.451  0.1221 -0.0111 -0.5694
  649MOL0     O87510  11.654   5.602   3.368  0.3219  0.4754 -0.3870
  649MOL0     C87511  11.773   5.541   3.320  0.2365  0.7413 -0.1894
  649MOL0     C87512  11.881   5.531   3.407 -0.1146 -0.2622 -0.4109
  649MOL0     C87513  11.989   5.458   3.370  0.1034  0.1363  0.7069
  649MOL0     C87514  11.995   5.388   3.252 -0.1646 -0.6911  0.5280
  649MOL0     O87515  12.109   5.321   3.234 -0.0184 -0.1519 -0.3162
  649MOL0     C87516  12.174   5.314   3.102 -0.2741  0.5942  0.1653
  649MOL0     C87517  12.299   5.229   3.090 -0.8579 -0.5182  0.3923
  649MOL0     C87518  12.425   5.294   3.147  0.2925  0.5885 -0.5704
  649MOL0     C87519  12.495   5.388   3.056 -0.0832  0.7043  0.0636
  649MOL0     C87520  12.637   5.420   3.111 -0.2071 -0.1316 -0.7656
  649MOL0     C87521  12.705   5.521   3.015  0.0016 -0.5091 -0.2097
  649MOL0     C87522  12.841   5.571   3.076  0.3471 -0.0300  1.0664
  649MOL0     C87523  12.922   5.666   2.984  0.2109 -0.4030  0.3218
  649MOL0    Cl87524  12.977   5.570   2.839 -0.0460  0.0045 -0.3715
  649MOL0     C87525  11.886   5.402   3.162  0.4687 -0.1256 -0.0088
  649MOL0     C87526  11.777   5.481   3.195 -1.0373 -1.1148 -0.1941
  649MOL0     O87527  11.622   5.428   3.524 -0.3897 -0.2639 -0.1158
  649MOL0     C87528  11.340   5.514   3.539 -0.6731  0.3110 -0.3461
  649MOL0     C87529  11.204   5.556   3.534 -0.8429 -0.1143 -0.6539
  649MOL0     N87530  10.848   5.243   3.113 -0.4109 -0.1695  0.8836
  649MOL0     N87531  10.726   5.194   3.093 -0.3957  0.4139  0.1481
  649MOL0     C87532   9.464   5.065   3.040 -0.8273 -0.3259  0.0391
  649MOL0     C87533   9.380   5.005   2.952 -0.1884 -0.2097 -0.6258
  649MOL0     C87534   9.195   5.024   2.519 -0.3257 -0.4735 -0.5228
  649MOL0     C87535   9.276   4.943   2.444 -0.6933  0.1680 -0.0102
  649MOL0     C87536   9.249   4.903   2.316 -0.3548  0.2135  0.1267
  649MOL0     C87537   9.124   4.947   2.256 -0.0888  0.2760 -0.0396
  649MOL0     O87538   9.084   4.924   2.130  0.4716 -0.4189  0.0804
  649MOL0     C87539   9.102   4.787   2.094 -0.9537 -0.0925  0.2151
  649MOL0     C87540   9.033   4.755   1.965 -1.2293  1.1858  0.4292
  649MOL0     C87541   8.890   4.724   2.009 -0.6229  0.0298 -0.4373
  649MOL0     C87542   8.809   4.707   1.879  1.0006  0.2271 -0.0129
  649MOL0     C87543   8.662   4.683   1.910 -1.0071 -0.0580  0.0850
  649MOL0     C87544   8.543   4.656   1.921 -0.3565  0.1550 -0.1832
  649MOL0     C87545   9.037   5.025   2.331  0.1045 -0.1010 -0.6325
  649MOL0     C87546   9.068   5.056   2.469  0.3470 -0.2460 -0.4694
  649MOL0     C87547   8.969   5.125   2.554  0.2728 -0.1850  0.4855
  649MOL0     H87548   9.543   5.122   2.671 -0.1042 -1.6167 -0.4268
  649MOL0     H87549   9.692   5.218   2.836 -1.8933  0.5593 -1.0502
  649MOL0     H87550   9.808   5.153   3.208  2.3155  2.4595  1.0433
  649MOL0     H87551   9.828   5.110   3.032  1.8666  0.6644 -0.2692
  649MOL0     H87552   9.833   5.405   3.125  0.8179  1.9604 -2.5260
  649MOL0     H87553   9.824   5.349   2.962 -2.6932 -1.1881  0.0139
  649MOL0     H87554  10.038   5.265   3.168 -1.2852  0.3652  1.3317
  649MOL0     H87555  10.031   5.415   3.092 -0.0916  0.0006  0.7009
  649MOL0     H87556  10.064   5.151   2.966  0.1562  0.1382  0.8522
  649MOL0     H87557  10.017   5.290   2.858  0.2190 -0.4547  0.1321
  649MOL0     H87558  10.255   5.270   2.857  0.0227  0.1899 -0.8550
  649MOL0     H87559  10.187   5.425   2.910 -1.9302 -1.3725 -2.9781
  649MOL0     H87560  10.246   5.374   3.142 -0.1729  2.5611 -2.4016
  649MOL0     H87561  10.304   5.208   3.104  0.9615  0.1532 -0.9850
  649MOL0     H87562  10.471   5.396   3.136  2.5437 -0.6615 -1.1038
  649MOL0     H87563  10.427   5.451   2.983  1.7204 -0.5965 -0.3914
  649MOL0     H87564  10.492   5.158   3.028  0.6759  0.6385  1.0952
  649MOL0     H87565  10.509   5.258   2.876 -1.4177  0.3512  0.0153
  649MOL0     H87566  10.720   5.500   2.967 -0.3596  0.2983  1.4997
  649MOL0     H87567  11.056   5.404   3.110  1.5511  1.3753  0.0758
  649MOL0     H87568  11.000   5.516   2.985  0.0838 -1.5221 -0.3404
  649MOL0     H87569  11.019   5.641   3.168 -1.1835  1.1255 -1.5304
  649MOL0     H87570  10.840   5.606   3.171  2.0883  3.3080  0.1540
  649MOL0     H87571  11.025   5.447   3.346  0.0355  1.8756  0.4979
  649MOL0     H87572  10.852   5.449   3.341 -0.7828 -1.1216 -0.7903
  649MOL0     H87573  10.925   5.608   3.540  1.6889 -0.1307  1.1461
  649MOL0     H87574  10.850   5.685   3.416  0.8337  2.3617  0.4222
  649MOL0     H87575  11.250   5.838   3.347  0.2955 -1.1803 -2.3996
  649MOL0     H87576  11.471   5.768   3.355  0.2660  1.5962  2.8788
  649MOL0     H87577  11.870   5.580   3.503  1.9866 -1.4534  0.5180
  649MOL0     H87578  12.069   5.447   3.442  0.3970 -2.0447  0.1140
  649MOL0     H87579  12.100   5.273   3.034 -0.9696 -1.2850  1.9597
  649MOL0     H87580  12.201   5.410   3.059 -2.6499  0.9278 -0.7097
  649MOL0     H87581  12.287   5.139   3.151  0.6815 -0.1208  1.3351
  649MOL0     H87582  12.318   5.202   2.986 -0.4752 -1.4857  0.7002
  649MOL0     H87583  12.397   5.348   3.238 -1.8957  0.7955 -1.2848
  649MOL0     H87584  12.492   5.208   3.153  1.8786  1.7911 -0.7408
  649MOL0     H87585  12.442   5.483   3.045 -1.9929 -0.5470 -2.6596
  649MOL0     H87586  12.507   5.347   2.955 -1.9065 -1.3733  0.6102
  649MOL0     H87587  12.697   5.328   3.116  1.0232  0.6560 -0.5074
  649MOL0     H87588  12.626   5.450   3.216  2.1925 -3.4597  0.6416
  649MOL0     H87589  12.738   5.483   2.918 -0.6630 -1.6641 -0.0100
  649MOL0     H87590  12.635   5.605   3.008 -3.1238 -2.3864  3.7741
  649MOL0     H87591  12.902   5.481   3.080 -0.2700 -0.5168 -0.3048
  649MOL0     H87592  12.817   5.610   3.176 -3.8382  1.3187 -0.2512
  649MOL0     H87593  12.862   5.752   2.953 -0.2342 -1.3277 -1.4785
  649MOL0     H87594  13.012   5.702   3.036 -0.1576  0.8720  0.1037
  649MOL0     H87595  11.888   5.330   3.081  2.4427  0.3060 -0.4041
  649MOL0     H87596  11.683   5.484   3.140 -1.6187 -2.1372  0.6942
  649MOL0     H87597  11.350   5.431   3.608  2.0944 -0.1323 -1.1463
  649MOL0     H87598  11.131   5.513   3.602  2.0366 -0.1027  2.7052
  649MOL0     H87599   9.438   5.069   3.146  1.8067  1.1336  0.7247
  649MOL0     H87600   9.284   4.957   2.968 -0.9430  0.4932 -2.7695
  649MOL0     H87601   9.363   4.898   2.491 -2.4531 -3.1152  0.4348
  649MOL0     H87602   9.317   4.837   2.263 -2.1756 -3.5666  2.1131
  649MOL0     H87603   9.064   4.714   2.165 -3.3452  2.2605  1.5356
  649MOL0     H87604   9.209   4.770   2.082 -0.7311  1.1321  0.3289
  649MOL0     H87605   9.084   4.676   1.910 -2.9124  0.6290 -0.3782
  649MOL0     H87606   9.026   4.845   1.903 -0.8526  0.7617 -0.2451
  649MOL0     H87607   8.852   4.809   2.066  0.1657  0.2194 -0.1863
  649MOL0     H87608   8.882   4.631   2.067 -1.4416  0.2179 -0.2387
  649MOL0     H87609   8.817   4.793   1.811  1.8285 -0.4260 -0.7635
  649MOL0     H87610   8.843   4.616   1.829  0.8455  0.6073 -0.8333
  649MOL0     H87611   8.440   4.628   1.920 -0.6019  0.9289  0.7561
  649MOL0     H87612   8.945   5.062   2.285 -0.0179  1.6578  0.8973
  649MOL0     H87613   8.963   5.075   2.651  0.6137  1.8881  1.6234
  649MOL0     H87614   9.002   5.228   2.565 -0.3486  0.4218 -2.5819
  649MOL0     H87615   8.871   5.121   2.507 -1.0288 -6.3830  2.6770
  650MOL0     O87616   9.896  10.970   9.715 -0.6440  0.0311  0.0481
  650MOL0     C87617   9.809  10.906   9.777 -0.1113 -0.1695  0.3369
  650MOL0     O87618   9.821  10.777   9.814 -0.3157  0.0958  0.0268
  650MOL0     C87619   9.952  10.733   9.799  0.4225 -0.5182 -0.0686
  650MOL0     C87620  10.036  10.724   9.912  0.9983  0.7566 -1.0558
  650MOL0     C87621  10.174  10.683   9.903 -0.2404  0.5347  0.2253
  650MOL0     C87622  10.224  10.631   9.782  0.2603 -0.2958  0.2422
  650MOL0     O87623  10.348  10.591   9.773 -0.0995 -0.2542  0.3296
  650MOL0     C87624  10.393  10.576   9.636 -0.7665  0.2294  0.0463
  650MOL0     C87625  10.544  10.571   9.629  0.0474  0.8143  0.1066
  650MOL0     C87626  10.614  10.705   9.609  0.4651  0.0470  0.1530
  650MOL0     C87627  10.548  10.828   9.690 -0.4769 -0.1121  0.5528
  650MOL0     C87628  10.652  10.953   9.694  0.9546  0.3554 -0.2912
  650MOL0     C87629  10.681  11.008   9.556  0.5568 -1.3549 -0.3378
  650MOL0     C87630  10.707  11.159   9.556 -0.9548 -0.1294 -0.2820
  650MOL0     C87631  10.830  11.196   9.643 -0.2670  0.5698  0.3048
  650MOL0     N87632  10.958  11.151   9.598 -0.0014  0.2687 -0.7165
  650MOL0     C87633  11.017  11.200   9.485 -0.3034  0.0368  0.4782
  650MOL0     C87634  11.123  11.121   9.465 -0.5132  0.4148 -0.3567
  650MOL0     C87635  11.229  11.134   9.357 -0.3576 -0.4353  0.1876
  650MOL0     C87636  11.369  11.123   9.404 -0.5890  0.8045 -0.1086
  650MOL0     C87637  11.426  11.260   9.458 -0.3074 -0.1652 -0.6930
  650MOL0     C87638  11.572  11.253   9.517 -0.2257 -0.0253 -0.4314
  650MOL0     O87639  11.584  11.173   9.634  0.3682  0.1347  0.4526
  650MOL0     C87640  11.716  11.135   9.665 -0.1667 -0.6144 -0.1756
  650MOL0     C87641  11.742  11.005   9.683 -0.1672  0.3419 -0.3208
  650MOL0     C87642  11.866  10.960   9.739 -0.0134 -0.4273  0.1462
  650MOL0     C87643  11.971  11.047   9.769  0.3979  0.1403  0.1947
  650MOL0     C87644  12.106  10.999   9.820 -0.3984 -0.1681 -0.5726
  650MOL0     O87645  12.128  10.874   9.876  0.4513  0.3570  0.1836
  650MOL0     C87646  12.259  10.825   9.869 -0.0544 -0.2122  0.1836
  650MOL0     C87647  12.328  10.824   9.986  0.1095  0.1287 -0.5644
  650MOL0     C87648  12.462  10.781   9.981 -0.4258 -0.3033  0.0828
  650MOL0     C87649  12.522  10.726   9.865 -0.1941 -0.5777 -1.0202
  650MOL0     O87650  12.652  10.680   9.870 -0.1741  0.2134 -0.0651
  650MOL0     C87651  12.763  10.759   9.917 -0.1036  0.3747  0.6891
  650MOL0     C87652  12.886  10.672   9.948  0.4145  1.1593  0.0484
  650MOL0     C87653  12.971  10.638   9.824 -0.9039 -1.0514  0.5814
  650MOL0     C87654  13.089  10.738   9.815 -0.0869  0.0110  1.1124
  650MOL0     C87655  13.156  10.750   9.677  0.0121 -0.2270  0.4214
  650MOL0     C87656  13.306  10.777   9.684  0.2327  0.0575 -0.0653
  650MOL0     C87657  13.376  10.783   9.540 -0.9236  0.4641  0.4415
  650MOL0     C87658  13.512  10.858   9.527 -0.1785  0.4276 -0.1314
  650MOL0    Cl87659  13.648  10.783   9.616  0.0171 -0.0756 -0.1736
  650MOL0     C87660  12.447  10.741   9.749 -1.0188 -0.3117 -0.8212
  650MOL0     C87661  12.318  10.786   9.749 -0.2908 -0.5890  0.2167
  650MOL0     O87662  12.194  11.081   9.801  0.8912  0.6788  0.1859
  650MOL0     C87663  11.948  11.178   9.740 -1.3138  0.4807  1.3322
  650MOL0     C87664  11.823  11.227   9.703 -0.3672 -0.2710  0.1582
  650MOL0     N87665  11.120  11.023   9.559 -0.7004 -0.4300  0.3160
  650MOL0     N87666  11.026  11.044   9.643  0.1767  0.5548  0.9483
  650MOL0     C87667  10.133  10.641   9.668 -0.6250 -0.2524  0.3857
  650MOL0     C87668  10.003  10.698   9.675  0.5411  0.1280  0.6778
  650MOL0     C87669   9.678  10.971   9.831  0.3122 -0.0196  0.0635
  650MOL0     C87670   9.586  10.889   9.904  0.0595  0.3835  0.4200
  650MOL0     C87671   9.482  10.944   9.965  0.1841 -0.8309  0.2608
  650MOL0     C87672   9.450  11.075   9.956 -0.6399 -0.4723 -0.2875
  650MOL0     O87673   9.348  11.138  10.021 -0.0070  0.3405  0.0566
  650MOL0     C87674   9.218  11.090   9.992  0.7869 -0.8630 -0.7390
  650MOL0     C87675   9.165  11.181   9.882  0.7881  0.7275  0.1754
  650MOL0     C87676   9.104  11.314   9.922 -0.3137  0.9631 -0.6491
  650MOL0     C87677   9.211  11.419   9.900 -0.2768  0.5090  0.0271
  650MOL0     C87678   9.165  11.549   9.935  0.2168  1.0088  0.0568
  650MOL0     C87679   9.119  11.662   9.963 -0.2434 -0.9627  0.3073
  650MOL0     C87680   9.525  11.158   9.874  0.2553  0.9355 -0.6623
  650MOL0     C87681   9.646  11.114   9.812  0.8064  0.2306  0.4198
  650MOL0     C87682   9.714  11.208   9.714 -0.2131 -0.9606  0.1025
  650MOL0     H87683   9.998  10.759  10.008 -3.6359 -2.9612 -1.1343
  650MOL0     H87684  10.245  10.680   9.985  1.4309  0.1783 -1.1531
  650MOL0     H87685  10.354  10.478   9.609  0.8816 -0.5797  0.4248
  650MOL0     H87686  10.357  10.650   9.563 -2.6398 -0.5498  0.1430
  650MOL0     H87687  10.569  10.507   9.543  0.0909  0.0868  0.6517
  650MOL0     H87688  10.583  10.510   9.711 -0.0511 -0.1822 -0.5653
  650MOL0     H87689  10.596  10.724   9.503  0.3973 -1.1583 -0.0665
  650MOL0     H87690  10.720  10.684   9.625  0.4335 -0.1056  0.1658
  650MOL0     H87691  10.449  10.856   9.650 -0.1989 -0.6138 -0.5233
  650MOL0     H87692  10.535  10.790   9.792  0.2281 -0.9731  0.3279
  650MOL0     H87693  10.607  11.032   9.755 -1.1992 -0.4902 -0.6885
  650MOL0     H87694  10.739  10.917   9.750  1.2216 -0.7194 -1.3484
  650MOL0     H87695  10.758  10.952   9.502 -0.5464 -1.1144 -2.2958
  650MOL0     H87696  10.595  10.991   9.490 -0.7679  1.4677  0.4919
  650MOL0     H87697  10.616  11.212   9.585 -0.8453 -0.0590 -0.0663
  650MOL0     H87698  10.734  11.204   9.460  2.0296  2.5603  1.6180
  650MOL0     H87699  10.831  11.306   9.636  1.4026  0.6034  0.5970
  650MOL0     H87700  10.809  11.173   9.748 -1.4166  1.1883  0.2333
  650MOL0     H87701  10.999  11.296   9.437 -0.8820 -0.8490 -1.1554
  650MOL0     H87702  11.207  11.061   9.279 -3.1340 -0.8362  1.2407
  650MOL0     H87703  11.205  11.234   9.321 -2.5007 -0.8901  0.2408
  650MOL0     H87704  11.374  11.051   9.486 -0.8876  0.4157 -0.4290
  650MOL0     H87705  11.431  11.099   9.318  2.2776 -0.9111  2.2339
  650MOL0     H87706  11.360  11.284   9.543 -0.3928 -1.9261 -0.2211
  650MOL0     H87707  11.417  11.343   9.388 -3.1149  0.9029  0.7333
  650MOL0     H87708  11.615  11.349   9.547 -1.9270  0.2267  1.4468
  650MOL0     H87709  11.641  11.213   9.442  0.1568 -3.0104  1.3680
  650MOL0     H87710  11.660  10.935   9.668 -2.4287  2.0431  2.9010
  650MOL0     H87711  11.866  10.852   9.748 -0.3815 -0.5159 -0.7357
  650MOL0     H87712  12.280  10.848  10.081 -1.1109 -3.0431 -0.2655
  650MOL0     H87713  12.515  10.764  10.074  1.6589  1.6648 -0.6536
  650MOL0     H87714  12.790  10.829   9.839 -0.6716 -1.4529 -1.2409
  650MOL0     H87715  12.733  10.812  10.008  2.4058  3.1235  0.0814
  650MOL0     H87716  12.950  10.723  10.020 -3.2421  1.7093  3.2724
  650MOL0     H87717  12.859  10.580  10.001 -0.2161  1.0867 -0.3801
  650MOL0     H87718  13.005  10.535   9.836  2.1311 -0.2622 -0.3929
  650MOL0     H87719  12.915  10.651   9.731 -1.2561 -2.1388  0.6304
  650MOL0     H87720  13.166  10.708   9.887  1.4350  2.1907  0.4790
  650MOL0     H87721  13.069  10.842   9.840 -0.6576  0.9116 -2.5290
  650MOL0     H87722  13.103  10.828   9.621 -1.0358 -0.1013  1.5318
  650MOL0     H87723  13.142  10.656   9.623  0.2290 -0.1634  0.2572
  650MOL0     H87724  13.312  10.882   9.716  1.9567  0.9281 -2.9015
  650MOL0     H87725  13.370  10.714   9.747  2.1576  0.0531 -1.9031
  650MOL0     H87726  13.303  10.829   9.472 -2.0542 -1.4660  0.2853
  650MOL0     H87727  13.386  10.681   9.501  1.9702  0.9189 -0.2886
  650MOL0     H87728  13.550  10.874   9.426 -0.2959  1.5331 -0.0123
  650MOL0     H87729  13.493  10.958   9.568 -0.6259 -0.1275  1.0775
  650MOL0     H87730  12.488  10.706   9.655  0.8468  2.8662 -1.3390
  650MOL0     H87731  12.267  10.805   9.655  1.8127 -0.8115 -1.0308
  650MOL0     H87732  12.026  11.253   9.751  1.3090 -1.6928 -0.8859
  650MOL0     H87733  11.810  11.335   9.700  1.2511 -0.0620 -1.0755
  650MOL0     H87734  10.151  10.608   9.566 -2.2365 -1.9004  0.6012
  650MOL0     H87735   9.932  10.709   9.594  0.7864  2.0732  0.6819
  650MOL0     H87736   9.604  10.785   9.925 -2.4001 -0.1370  0.3257
  650MOL0     H87737   9.420  10.868  10.011 -0.7064  0.3214  1.0371
  650MOL0     H87738   9.154  11.108  10.079  1.0998 -1.5460 -0.3643
  650MOL0     H87739   9.191  10.988   9.964 -3.1415  0.1426 -1.2397
  650MOL0     H87740   9.078  11.122   9.849  3.3881 -3.8497  0.6574
  650MOL0     H87741   9.238  11.198   9.802  2.1716  2.0128  1.6487
  650MOL0     H87742   9.065  11.322  10.024  3.8295  1.9364  1.1153
  650MOL0     H87743   9.022  11.317   9.850 -2.1134 -3.9485  0.8388
  650MOL0     H87744   9.298  11.405   9.964  0.6574 -2.2673 -1.6865
  650MOL0     H87745   9.226  11.416   9.791 -0.6932  1.4658 -0.0681
  650MOL0     H87746   9.088  11.761   9.988  1.4225 -0.9884  2.8633
  650MOL0     H87747   9.501  11.262   9.858  1.8265  1.4978  0.3685
  650MOL0     H87748   9.697  11.180   9.610 -0.4797  0.6728 -0.3304
  650MOL0     H87749   9.669  11.305   9.738 -2.8588 -2.6182  2.3995
  650MOL0     H87750   9.821  11.211   9.735 -0.4347  2.4464  1.4811
  651MOL0     O87751   2.727   8.010   2.690 -0.3268  0.6431 -0.2846
  651MOL0     C87752   2.745   7.990   2.816  0.4023 -0.5259 -0.0343
  651MOL0     O87753   2.858   7.942   2.877 -0.5155 -0.1321  0.0429
  651MOL0     C87754   2.973   7.933   2.812  0.5701 -0.4625  0.7011
  651MOL0     C87755   3.009   8.007   2.701  0.1565 -0.5118 -0.2997
  651MOL0     C87756   3.129   7.984   2.637 -0.1641  0.0281 -0.2238
  651MOL0     C87757   3.220   7.893   2.688  0.4225  0.3505  0.5924
  651MOL0     O87758   3.342   7.884   2.625  1.1714 -0.0698 -0.4906
  651MOL0     C87759   3.436   7.792   2.665 -0.4901 -0.1565 -0.0341
  651MOL0     C87760   3.571   7.860   2.627 -0.1369  0.1237  0.2778
  651MOL0     C87761   3.684   7.830   2.720 -0.3721  0.1903 -0.9481
  651MOL0     C87762   3.808   7.925   2.694 -0.4775  0.2207  0.3024
  651MOL0     C87763   3.934   7.888   2.761  1.0501  0.6373 -0.2024
  651MOL0     C87764   4.048   7.987   2.758 -0.1642 -0.1814 -0.3737
  651MOL0     C87765   4.016   8.112   2.846 -0.7093 -0.9649  0.8963
  651MOL0     C87766   4.028   8.075   2.998  0.1698  0.3051 -0.1170
  651MOL0     N87767   4.012   8.199   3.089 -0.0332  0.0619 -0.1380
  651MOL0     C87768   3.908   8.291   3.067 -0.2485  0.4258  0.4778
  651MOL0     C87769   3.921   8.386   3.154  1.0471  0.9352  1.3561
  651MOL0     C87770   3.831   8.505   3.183 -0.6298  0.5789 -0.3960
  651MOL0     C87771   3.691   8.480   3.132 -0.6293  1.0337  0.1813
  651MOL0     C87772   3.598   8.589   3.181 -0.6608 -0.8126 -1.4364
  651MOL0     C87773   3.471   8.576   3.104 -0.6231 -0.2202 -0.3330
  651MOL0     O87774   3.392   8.693   3.128  0.0506 -0.5598 -0.6427
  651MOL0     C87775   3.271   8.719   3.071  0.2849  0.0609 -0.6067
  651MOL0     C87776   3.198   8.831   3.112  0.2923  0.0419 -0.5242
  651MOL0     C87777   3.079   8.872   3.039 -0.2625 -0.9115 -0.1686
  651MOL0     C87778   3.026   8.800   2.929 -0.8760  0.4107  0.2723
  651MOL0     C87779   2.914   8.833   2.857  0.9791 -0.4448  0.9781
  651MOL0     O87780   2.860   8.747   2.778  0.5435  0.1341 -0.8086
  651MOL0     C87781   2.761   8.785   2.698  0.5050  0.1319 -0.2314
  651MOL0     C87782   2.623   8.754   2.737 -0.6345 -0.9145 -0.0761
  651MOL0     C87783   2.518   8.815   2.662 -0.3987 -0.7948 -0.5039
  651MOL0     C87784   2.541   8.894   2.549  0.2179  0.5135  0.7260
  651MOL0     O87785   2.443   8.960   2.476 -0.0497 -0.1125 -0.0885
  651MOL0     C87786   2.301   8.942   2.516  0.0423 -0.1495 -0.0719
  651MOL0     C87787   2.224   9.001   2.405  1.4060 -0.2139 -0.5526
  651MOL0     C87788   2.067   9.023   2.455  0.2015  0.3119  0.4733
  651MOL0     C87789   1.977   9.002   2.329  0.4471 -0.5084  0.6488
  651MOL0     C87790   1.839   9.068   2.330 -0.0901  1.0618  0.2856
  651MOL0     C87791   1.793   9.061   2.184  0.1911  0.0420 -0.1761
  651MOL0     C87792   1.754   8.919   2.134 -0.1100 -0.6643 -0.1488
  651MOL0     C87793   1.663   8.841   2.232 -0.9479 -0.2219 -0.2172
  651MOL0    Cl87794   1.594   8.712   2.131  0.4263  0.1474  0.2413
  651MOL0     C87795   2.669   8.918   2.518  0.6823 -0.2179  1.1159
  651MOL0     C87796   2.779   8.869   2.586  0.4254 -0.2192  0.2523
  651MOL0     O87797   2.870   8.950   2.872 -0.3793 -0.0843  0.4495
  651MOL0     C87798   3.098   8.687   2.891  0.1285 -0.1640 -0.3037
  651MOL0     C87799   3.218   8.649   2.964 -0.7812 -0.0053  0.1585
  651MOL0     N87800   4.031   8.361   3.228 -0.6825 -0.4690  0.0257
  651MOL0     N87801   4.086   8.253   3.184  0.4649 -0.2268 -0.1066
  651MOL0     C87802   3.181   7.815   2.803 -0.3359 -0.8901  0.4334
  651MOL0     C87803   3.058   7.838   2.861  0.7991 -0.1115  0.1508
  651MOL0     C87804   2.629   8.029   2.903  0.9275  0.0558 -0.7856
  651MOL0     C87805   2.654   8.059   3.043 -0.4103 -0.6024 -0.6757
  651MOL0     C87806   2.565   8.105   3.137  0.3683  0.2232  0.5545
  651MOL0     C87807   2.435   8.117   3.094  0.1757  0.7392 -0.3363
  651MOL0     O87808   2.340   8.180   3.165  0.4848  0.1871 -0.3395
  651MOL0     C87809   2.365   8.234   3.290  0.1486 -0.4020 -0.3022
  651MOL0     C87810   2.234   8.267   3.356  1.2929  0.3924  0.6880
  651MOL0     C87811   2.198   8.415   3.335 -1.1641 -0.3552 -0.0663
  651MOL0     C87812   2.051   8.435   3.369 -0.5096  0.4034  0.3423
  651MOL0     C87813   2.039   8.416   3.509 -0.0880  0.7616  0.3102
  651MOL0     C87814   2.050   8.428   3.625  0.7219 -0.7180 -0.6351
  651MOL0     C87815   2.401   8.089   2.957  0.5102 -0.0168  0.5706
  651MOL0     C87816   2.489   8.034   2.863  0.0708  0.5034  0.1629
  651MOL0     C87817   2.442   8.005   2.730  0.8976 -0.3136  0.2592
  651MOL0     H87818   2.949   8.095   2.678  2.4172  1.9658  2.3682
  651MOL0     H87819   3.159   8.047   2.554 -2.8025  0.9494 -0.5984
  651MOL0     H87820   3.437   7.771   2.772  1.4255  2.2600  0.5142
  651MOL0     H87821   3.426   7.693   2.620  0.3028 -0.1624 -0.2038
  651MOL0     H87822   3.550   7.967   2.631  1.1971  0.4090 -0.1004
  651MOL0     H87823   3.590   7.818   2.527 -1.6103 -1.3229  0.5570
  651MOL0     H87824   3.707   7.725   2.702 -0.4107  0.2551 -1.3868
  651MOL0     H87825   3.657   7.848   2.825  1.1376 -0.0422 -0.5016
  651MOL0     H87826   3.813   7.927   2.585  1.5156  2.2706  0.3680
  651MOL0     H87827   3.778   8.022   2.733 -1.0265  0.7582 -1.3591
  651MOL0     H87828   3.920   7.876   2.869  0.1170  2.2103 -0.1151
  651MOL0     H87829   3.959   7.792   2.715 -0.1238  0.8876 -1.4080
  651MOL0     H87830   4.135   7.936   2.800 -0.0611  0.8955  0.7707
  651MOL0     H87831   4.077   8.015   2.656  0.7855  0.1152 -0.0368
  651MOL0     H87832   3.918   8.152   2.822 -0.3267 -1.2693 -1.4138
  651MOL0     H87833   4.083   8.197   2.827 -0.5200 -1.4596 -0.8985
  651MOL0     H87834   3.940   8.013   3.016 -0.7042  0.7184 -2.5227
  651MOL0     H87835   4.121   8.020   3.010  1.6367  2.6305 -0.2689
  651MOL0     H87836   3.831   8.284   2.991  0.5379  2.0538 -0.5248
  651MOL0     H87837   3.838   8.540   3.286  3.1450 -0.1832 -0.2407
  651MOL0     H87838   3.893   8.584   3.140  0.3749  0.9826  1.6823
  651MOL0     H87839   3.699   8.484   3.023 -2.5617  2.8163  0.0341
  651MOL0     H87840   3.644   8.384   3.155  0.1171  0.6867  0.2792
  651MOL0     H87841   3.635   8.688   3.154 -1.9374  0.6808  1.7147
  651MOL0     H87842   3.584   8.568   3.288  1.1547 -2.8911 -1.5377
  651MOL0     H87843   3.420   8.480   3.116  0.1989 -0.5927  0.3158
  651MOL0     H87844   3.502   8.583   3.000  0.8827  1.7441  0.1737
  651MOL0     H87845   3.229   8.886   3.200 -2.3467  0.0843  0.4472
  651MOL0     H87846   3.020   8.952   3.082  0.6975 -0.0428 -0.4093
  651MOL0     H87847   2.606   8.690   2.823  0.2941 -3.0071 -1.3463
  651MOL0     H87848   2.418   8.799   2.701  0.4631 -2.3863  1.2316
  651MOL0     H87849   2.280   8.836   2.526 -2.4652  0.3717  1.1520
  651MOL0     H87850   2.280   8.987   2.614 -3.4309 -0.7641 -0.3881
  651MOL0     H87851   2.264   9.099   2.377 -0.0381  1.2206  1.9997
  651MOL0     H87852   2.220   8.936   2.318 -0.8051 -1.6947  0.5633
  651MOL0     H87853   2.042   8.948   2.531 -1.8728  1.8373  1.3933
  651MOL0     H87854   2.054   9.122   2.499 -1.8948 -0.4060  1.6225
  651MOL0     H87855   1.968   8.897   2.300 -0.5177 -0.9877  2.5130
  651MOL0     H87856   2.027   9.053   2.246 -1.2533 -2.6929 -1.8849
  651MOL0     H87857   1.841   9.164   2.383  0.5147  0.1140  2.0727
  651MOL0     H87858   1.766   9.015   2.393  0.8104 -1.8945 -0.9932
  651MOL0     H87859   1.698   9.115   2.175 -0.5857 -1.3321 -0.5188
  651MOL0     H87860   1.861   9.111   2.114 -0.3636 -1.5424 -1.9535
  651MOL0     H87861   1.845   8.862   2.117 -0.6953 -1.2741 -1.3842
  651MOL0     H87862   1.703   8.923   2.037  0.5638  1.5331 -0.4660
  651MOL0     H87863   1.717   8.801   2.318 -0.0385  1.0291 -0.1841
  651MOL0     H87864   1.571   8.895   2.259 -1.1115 -0.9549  0.7681
  651MOL0     H87865   2.685   8.990   2.438  0.2923 -1.3303 -0.0040
  651MOL0     H87866   2.884   8.881   2.559  1.2114 -4.3302  0.9162
  651MOL0     H87867   3.071   8.621   2.809 -1.3921 -1.7554  1.3849
  651MOL0     H87868   3.292   8.580   2.924  2.3285  2.1125  1.8112
  651MOL0     H87869   3.243   7.735   2.843 -0.4117 -2.9287 -3.1136
  651MOL0     H87870   3.018   7.777   2.942 -2.5850  0.4879 -0.8856
  651MOL0     H87871   2.758   8.052   3.073 -1.2672 -0.0839  2.9303
  651MOL0     H87872   2.598   8.116   3.240 -0.9134  0.0716  1.0098
  651MOL0     H87873   2.430   8.322   3.289 -1.7120  1.1490  2.5170
  651MOL0     H87874   2.421   8.160   3.349  2.6445  0.6207 -1.2169
  651MOL0     H87875   2.234   8.236   3.461 -2.3768 -2.9961 -0.1023
  651MOL0     H87876   2.153   8.220   3.300  1.1854  0.9466  0.3736
  651MOL0     H87877   2.218   8.433   3.229 -0.0386  0.9100  0.3212
  651MOL0     H87878   2.265   8.487   3.384  0.0589 -0.4082 -1.5892
  651MOL0     H87879   2.020   8.535   3.336  2.3122  0.6897 -1.7269
  651MOL0     H87880   1.980   8.374   3.312  0.1088  3.1493 -3.7750
  651MOL0     H87881   2.062   8.447   3.729  0.0782  3.7639 -1.1722
  651MOL0     H87882   2.302   8.116   2.922  1.2367 -0.8405 -2.3977
  651MOL0     H87883   2.490   7.921   2.679 -2.0562 -1.2521 -1.1832
  651MOL0     H87884   2.338   7.974   2.734  1.2884 -1.6315  0.9632
  651MOL0     H87885   2.448   8.093   2.665 -2.4109  0.3240  0.6567
  652MOL0     O87886   6.507   5.958   5.566 -0.1854  0.9422 -0.2825
  652MOL0     C87887   6.436   5.901   5.483 -0.2543 -0.9589 -0.9645
  652MOL0     O87888   6.470   5.867   5.354  0.0413  0.0726 -0.0571
  652MOL0     C87889   6.591   5.924   5.312  0.0259 -0.0824 -0.7263
  652MOL0     C87890   6.617   6.063   5.299 -0.2048  0.8153 -0.1031
  652MOL0     C87891   6.728   6.114   5.243 -1.0342  0.3663 -0.3450
  652MOL0     C87892   6.831   6.025   5.208 -0.1399  0.6631 -0.0403
  652MOL0     O87893   6.957   6.055   5.155  0.7040  0.4881 -0.8166
  652MOL0     C87894   7.019   6.183   5.193 -0.1004  0.4815  0.3274
  652MOL0     C87895   6.979   6.305   5.110 -0.4228 -0.1590 -0.4315
  652MOL0     C87896   7.077   6.417   5.108 -0.7738  0.8050 -0.0836
  652MOL0     C87897   7.043   6.543   5.029 -0.0124  0.3220 -0.3396
  652MOL0     C87898   7.151   6.656   5.062  0.1274 -0.1884 -0.4656
  652MOL0     C87899   7.111   6.739   5.189  0.2631 -0.3075 -0.1303
  652MOL0     C87900   7.223   6.836   5.241  0.1815  0.4373 -0.1800
  652MOL0     C87901   7.257   6.952   5.151  0.0615 -0.3496 -0.0275
  652MOL0     N87902   7.353   7.045   5.214 -0.6318  0.2657  0.1884
  652MOL0     C87903   7.493   7.056   5.192  0.6432  0.3840 -0.3029
  652MOL0     C87904   7.522   7.175   5.261 -0.6645 -0.3434 -0.7295
  652MOL0     C87905   7.649   7.255   5.267 -0.2762  0.0627 -0.0551
  652MOL0     C87906   7.683   7.326   5.137 -0.6152  0.0737  0.7617
  652MOL0     C87907   7.578   7.422   5.082 -0.3423 -0.4972 -1.1234
  652MOL0     C87908   7.612   7.569   5.123 -0.3889  0.3236 -0.6323
  652MOL0     O87909   7.726   7.610   5.045  0.1221 -0.8207  0.2064
  652MOL0     C87910   7.791   7.719   5.102  0.5975  0.3248 -1.4881
  652MOL0     C87911   7.918   7.721   5.066 -0.2170 -0.2817 -0.9404
  652MOL0     C87912   8.003   7.819   5.124 -0.0401  0.4195 -0.2110
  652MOL0     C87913   7.959   7.912   5.230  0.3872  0.9053 -0.0814
  652MOL0     C87914   8.047   8.013   5.278  0.2245  0.5341  0.6917
  652MOL0     O87915   8.159   8.044   5.198  0.5803  0.1984  0.6845
  652MOL0     C87916   8.277   8.088   5.257  0.4075 -1.6074 -0.6943
  652MOL0     C87917   8.357   8.192   5.189  0.1208 -0.2034 -0.9324
  652MOL0     C87918   8.478   8.225   5.251 -0.5914  0.4695 -0.4495
  652MOL0     C87919   8.524   8.186   5.376  0.4623  0.3139  0.6314
  652MOL0     O87920   8.636   8.238   5.427 -0.1686  0.1983 -0.4402
  652MOL0     C87921   8.687   8.196   5.553 -0.7967  0.1384 -0.1057
  652MOL0     C87922   8.802   8.286   5.576 -1.0744 -1.5805  0.6007
  652MOL0     C87923   8.879   8.260   5.699  0.1755 -0.0711  0.1826
  652MOL0     C87924   9.034   8.271   5.693 -0.3234  0.0248  0.1796
  652MOL0     C87925   9.080   8.415   5.703  0.1420  0.1756 -0.3410
  652MOL0     C87926   9.229   8.435   5.739 -0.2267  0.3414  0.6443
  652MOL0     C87927   9.258   8.575   5.787 -0.0896 -0.3705  0.4999
  652MOL0     C87928   9.393   8.598   5.833 -0.4161 -0.8529  0.7167
  652MOL0    Cl87929   9.438   8.478   5.952 -0.0187 -0.8365 -0.1652
  652MOL0     C87930   8.447   8.083   5.433 -0.0779  0.1583 -1.1865
  652MOL0     C87931   8.324   8.040   5.372 -1.3805 -0.0412 -0.3576
  652MOL0     O87932   8.013   8.058   5.384 -0.3790  0.1514 -0.8241
  652MOL0     C87933   7.818   7.908   5.255 -0.5750 -0.1826  0.0776
  652MOL0     C87934   7.739   7.811   5.195 -0.1516  0.2149  0.1840
  652MOL0     N87935   7.404   7.231   5.316  0.3552  0.9305 -0.6464
  652MOL0     N87936   7.304   7.148   5.288 -0.4612  0.1298 -0.1558
  652MOL0     C87937   6.804   5.887   5.218 -0.3096  0.1500 -0.4474
  652MOL0     C87938   6.684   5.837   5.276  0.4862  0.0613  0.4492
  652MOL0     C87939   6.309   5.853   5.540  0.1308 -0.1172 -0.5827
  652MOL0     C87940   6.185   5.872   5.462  0.1603 -0.2077  0.2702
  652MOL0     C87941   6.062   5.835   5.515 -0.1416  0.4762  0.5879
  652MOL0     C87942   6.050   5.806   5.650 -0.1022  0.3684  0.4056
  652MOL0     O87943   5.926   5.794   5.704  0.5053 -0.0081  0.3558
  652MOL0     C87944   5.912   5.744   5.836  0.4801  0.5640  0.3357
  652MOL0     C87945   5.770   5.769   5.885 -0.0903 -0.2555 -0.0918
  652MOL0     C87946   5.755   5.733   6.030 -0.0642  0.1301  0.2580
  652MOL0     C87947   5.606   5.717   6.070 -1.2790  0.1572  0.4437
  652MOL0     C87948   5.538   5.607   6.002 -0.7482 -0.1535  0.9894
  652MOL0     C87949   5.493   5.516   5.934  0.2888 -0.5666  0.2579
  652MOL0     C87950   6.169   5.782   5.731 -0.2021  0.2476  0.9979
  652MOL0     C87951   6.297   5.801   5.675  0.2402  0.4458  0.3693
  652MOL0     C87952   6.409   5.761   5.764  0.1896 -0.3465 -0.2682
  652MOL0     H87953   6.542   6.135   5.330 -0.4705  0.7705 -0.6243
  652MOL0     H87954   6.725   6.222   5.234 -1.9518  0.6187  2.1917
  652MOL0     H87955   7.015   6.205   5.300  1.5757  1.4439  0.2196
  652MOL0     H87956   7.120   6.165   5.157 -0.0162 -2.5496  1.7248
  652MOL0     H87957   6.890   6.357   5.144 -0.7510 -0.4057 -0.8912
  652MOL0     H87958   6.974   6.276   5.004  2.0072  1.3782 -1.0493
  652MOL0     H87959   7.164   6.385   5.050 -2.8696 -2.3223 -1.7676
  652MOL0     H87960   7.110   6.449   5.208 -1.1185 -0.6005  0.4971
  652MOL0     H87961   7.044   6.524   4.921  1.3437 -0.4693 -0.2124
  652MOL0     H87962   6.940   6.570   5.052  0.3008  2.8613 -1.5801
  652MOL0     H87963   7.250   6.614   5.080  1.7399  3.3144 -0.2264
  652MOL0     H87964   7.171   6.723   4.977  1.6049  0.1452  0.1209
  652MOL0     H87965   7.030   6.806   5.156  1.2361  1.9242  1.7178
  652MOL0     H87966   7.083   6.680   5.276  3.4454 -0.9312  0.5872
  652MOL0     H87967   7.313   6.780   5.266 -0.5424 -0.9632 -0.6016
  652MOL0     H87968   7.177   6.885   5.327 -0.9114  1.3288 -1.2360
  652MOL0     H87969   7.292   6.919   5.054 -0.0712  0.2419 -0.2832
  652MOL0     H87970   7.168   7.014   5.132  1.2995  2.1130  1.5777
  652MOL0     H87971   7.550   6.989   5.129 -1.7645 -3.5796  1.3895
  652MOL0     H87972   7.648   7.330   5.347  1.8259 -0.4673  0.5339
  652MOL0     H87973   7.728   7.182   5.291 -0.3806  0.0285  0.1850
  652MOL0     H87974   7.786   7.361   5.129 -0.2488 -0.7650  1.6124
  652MOL0     H87975   7.689   7.240   5.070 -1.6350  0.9741 -0.5427
  652MOL0     H87976   7.473   7.397   5.096 -1.0857  2.8406  0.2193
  652MOL0     H87977   7.599   7.418   4.975 -0.8487 -1.3218 -1.1934
  652MOL0     H87978   7.620   7.578   5.232 -2.7242 -0.4470 -0.3334
  652MOL0     H87979   7.529   7.632   5.090 -2.1928 -0.0484  2.6983
  652MOL0     H87980   7.966   7.656   4.993  2.2123 -1.4560  1.5140
  652MOL0     H87981   8.106   7.823   5.088 -0.5038  1.4360 -1.5141
  652MOL0     H87982   8.318   8.223   5.092  2.3844  0.2003 -1.7905
  652MOL0     H87983   8.546   8.299   5.210  1.3530 -0.5349  0.7875
  652MOL0     H87984   8.611   8.218   5.628 -0.8794  3.0750 -0.9528
  652MOL0     H87985   8.708   8.088   5.555 -3.5708 -0.5109 -0.7146
  652MOL0     H87986   8.871   8.273   5.492 -0.1285  1.0380  0.8977
  652MOL0     H87987   8.780   8.392   5.565  1.6174 -1.1512 -1.6408
  652MOL0     H87988   8.851   8.334   5.775 -0.4418 -0.3255  0.2041
  652MOL0     H87989   8.856   8.161   5.740  0.7288 -1.2318 -2.1139
  652MOL0     H87990   9.066   8.224   5.600 -1.9158 -1.5783  0.3924
  652MOL0     H87991   9.082   8.202   5.762 -1.8531 -1.1074  0.1829
  652MOL0     H87992   9.024   8.459   5.786 -0.2915 -0.4641 -0.2816
  652MOL0     H87993   9.071   8.466   5.607  5.0207 -0.1491 -1.2006
  652MOL0     H87994   9.256   8.355   5.809  0.6086  0.3657  0.3642
  652MOL0     H87995   9.288   8.435   5.647  0.5841  0.6172  1.1534
  652MOL0     H87996   9.192   8.591   5.873  1.0113  0.3291  1.2450
  652MOL0     H87997   9.229   8.653   5.716 -3.0482 -2.9405 -1.3659
  652MOL0     H87998   9.466   8.585   5.752 -0.7002  3.1961 -0.4171
  652MOL0     H87999   9.403   8.703   5.863  4.8234 -1.8367  3.5986
  652MOL0     H88000   8.481   8.049   5.530 -0.7886 -4.2166 -2.2410
  652MOL0     H88001   8.272   7.960   5.424 -1.7232  0.6833  0.4350
  652MOL0     H88002   7.779   7.965   5.338 -1.5540  2.1424 -1.8714
  652MOL0     H88003   7.638   7.799   5.234 -0.2333  0.6419  0.1135
  652MOL0     H88004   6.870   5.814   5.173 -0.5099 -0.8941  0.8761
  652MOL0     H88005   6.668   5.731   5.287  0.0981  0.2591  2.0864
  652MOL0     H88006   6.195   5.931   5.371 -0.7580  1.6421  1.3290
  652MOL0     H88007   5.975   5.836   5.450 -0.5401 -1.6348  1.0210
  652MOL0     H88008   5.980   5.788   5.910  1.2415 -2.1238  1.3413
  652MOL0     H88009   5.935   5.637   5.838 -0.7584  0.2991  1.9365
  652MOL0     H88010   5.694   5.734   5.814 -1.3039  2.2784 -0.1540
  652MOL0     H88011   5.745   5.875   5.876 -0.4273 -0.3296 -0.0397
  652MOL0     H88012   5.800   5.811   6.093 -1.4525  0.3961  0.9448
  652MOL0     H88013   5.798   5.636   6.058 -3.9487 -2.1655 -0.9533
  652MOL0     H88014   5.594   5.699   6.177 -0.9483 -0.5280  0.3747
  652MOL0     H88015   5.549   5.810   6.062 -0.1980  0.7381 -0.7552
  652MOL0     H88016   5.456   5.443   5.864  0.4388 -0.0857 -0.3319
  652MOL0     H88017   6.168   5.739   5.831  0.1773 -4.8111 -0.8673
  652MOL0     H88018   6.451   5.846   5.819  0.8540 -0.9746  0.2144
  652MOL0     H88019   6.384   5.682   5.835 -1.4037 -1.2472 -1.7283
  652MOL0     H88020   6.498   5.736   5.705 -0.6052 -1.2431 -1.1375
  653MOL0     O88021   2.897   8.575   3.822 -0.1021  1.0028 -0.0490
  653MOL0     C88022   2.782   8.563   3.854  0.5679 -0.6001  0.3253
  653MOL0     O88023   2.682   8.499   3.781 -0.0847  0.3092 -0.1884
  653MOL0     C88024   2.713   8.460   3.649  0.9367  0.0329 -1.1520
  653MOL0     C88025   2.616   8.499   3.553  0.7732  0.0838 -0.1610
  653MOL0     C88026   2.628   8.468   3.417  1.3148 -0.0156 -0.5532
  653MOL0     C88027   2.740   8.384   3.375  0.2842  0.4242 -0.0491
  653MOL0     O88028   2.771   8.333   3.252  0.1801  0.4345 -0.2673
  653MOL0     C88029   2.751   8.422   3.133 -0.3887 -0.2146 -0.2920
  653MOL0     C88030   2.839   8.374   3.016  1.0525 -0.8980  0.2595
  653MOL0     C88031   2.973   8.317   3.062  0.3718  0.5688  0.1300
  653MOL0     C88032   3.055   8.307   2.938 -0.5076 -0.1399  0.6523
  653MOL0     C88033   3.203   8.285   2.973  0.5338 -0.8676  0.9737
  653MOL0     C88034   3.225   8.147   3.039 -0.0969 -0.2114  0.3065
  653MOL0     C88035   3.373   8.139   3.081  0.1828 -0.4180 -1.3288
  653MOL0     C88036   3.456   8.056   2.981 -0.7765 -0.0902 -0.1062
  653MOL0     N88037   3.519   8.140   2.880 -0.0895 -0.6409  1.0710
  653MOL0     C88038   3.470   8.177   2.751 -0.3333 -0.5672  0.4568
  653MOL0     C88039   3.565   8.263   2.702 -0.9020  0.2052 -0.2229
  653MOL0     C88040   3.587   8.324   2.559  0.0402  0.1500 -0.1826
  653MOL0     C88041   3.680   8.223   2.484 -0.6331 -0.1336 -0.4712
  653MOL0     C88042   3.708   8.272   2.338  0.2756 -0.9143 -0.1363
  653MOL0     C88043   3.766   8.145   2.257  0.4558 -0.5765 -0.3168
  653MOL0     O88044   3.905   8.113   2.279 -0.0048  0.2126 -0.2233
  653MOL0     C88045   3.994   8.190   2.214 -0.3490  0.1216 -0.8168
  653MOL0     C88046   3.972   8.279   2.109  0.2608 -0.5000 -0.3466
  653MOL0     C88047   4.076   8.339   2.050 -0.1049 -0.9165 -0.6394
  653MOL0     C88048   4.208   8.337   2.094  0.4565 -0.2605 -0.6721
  653MOL0     C88049   4.307   8.416   2.026  0.2998  0.0519 -0.4430
  653MOL0     O88050   4.307   8.427   1.886  0.7867 -0.1723 -0.1731
  653MOL0     C88051   4.413   8.489   1.831 -0.1461 -0.8080  0.0612
  653MOL0     C88052   4.435   8.625   1.859 -0.2592  1.7058 -0.1788
  653MOL0     C88053   4.561   8.688   1.817  0.2375 -0.1346  0.2271
  653MOL0     C88054   4.657   8.617   1.743 -0.3027 -0.1614 -0.4530
  653MOL0     O88055   4.778   8.678   1.716 -0.0623 -0.2160  0.2001
  653MOL0     C88056   4.879   8.619   1.627 -0.0522 -0.4037  0.0012
  653MOL0     C88057   4.995   8.713   1.603 -0.8199 -0.6007 -0.3225
  653MOL0     C88058   5.079   8.741   1.734 -0.0478 -0.0672  0.2565
  653MOL0     C88059   5.163   8.615   1.767  0.4114 -0.3791  0.0849
  653MOL0     C88060   5.260   8.632   1.888  0.3757 -0.0835  0.4183
  653MOL0     C88061   5.347   8.509   1.910 -0.3911  0.9957 -0.6490
  653MOL0     C88062   5.441   8.522   2.042  0.3275  0.1564 -0.1200
  653MOL0     C88063   5.507   8.387   2.088 -0.1777 -0.8441 -0.8366
  653MOL0    Cl88064   5.581   8.317   1.937 -0.4987  0.1925 -0.3542
  653MOL0     C88065   4.620   8.489   1.704  0.1062  0.1490  0.5586
  653MOL0     C88066   4.510   8.425   1.760  0.1266 -0.3374  0.3693
  653MOL0     O88067   4.405   8.456   2.091 -0.6417 -0.2814 -0.3460
  653MOL0     C88068   4.233   8.252   2.202 -0.9502  0.4979 -0.4238
  653MOL0     C88069   4.123   8.178   2.260  0.6331 -0.4515  0.2366
  653MOL0     N88070   3.668   8.278   2.806  0.0231  0.0205 -0.4667
  653MOL0     N88071   3.627   8.216   2.912 -0.5519  0.9223 -0.4595
  653MOL0     C88072   2.839   8.347   3.468 -0.0687  0.4200  0.7646
  653MOL0     C88073   2.823   8.379   3.604  0.6350  0.0497  0.5569
  653MOL0     C88074   2.753   8.628   3.983  0.5990  0.1759  0.0702
  653MOL0     C88075   2.615   8.636   4.015  0.3877  0.3567 -0.1711
  653MOL0     C88076   2.581   8.698   4.140  0.2982 -0.7977  0.5190
  653MOL0     C88077   2.674   8.731   4.238 -0.0083 -0.5383  0.2186
  653MOL0     O88078   2.635   8.789   4.357  0.0459 -0.1830  0.1088
  653MOL0     C88079   2.505   8.847   4.387 -0.1722 -0.2894 -0.0194
  653MOL0     C88080   2.507   8.888   4.534  0.6496 -0.2772 -0.6291
  653MOL0     C88081   2.563   8.773   4.621  0.1209 -0.0446 -0.0945
  653MOL0     C88082   2.567   8.830   4.770 -0.4271  0.9192  0.3763
  653MOL0     C88083   2.596   8.727   4.868  0.8236 -0.1234  0.6113
  653MOL0     C88084   2.618   8.644   4.951  0.1178  0.2904 -0.3211
  653MOL0     C88085   2.806   8.705   4.217 -0.2010 -0.9333 -0.7686
  653MOL0     C88086   2.848   8.663   4.086  0.6305  0.9232 -0.4552
  653MOL0     C88087   2.997   8.633   4.067  0.8276 -0.5894  0.2694
  653MOL0     H88088   2.532   8.551   3.600 -0.0878 -2.4638  1.3073
  653MOL0     H88089   2.562   8.517   3.347  1.7374  0.9167 -0.3054
  653MOL0     H88090   2.646   8.436   3.105 -0.0819 -2.3970 -2.8334
  653MOL0     H88091   2.790   8.523   3.149  0.4691 -0.4773 -0.6984
  653MOL0     H88092   2.848   8.469   2.962  0.9790  1.2140  3.6094
  653MOL0     H88093   2.780   8.309   2.952 -1.6262  0.9749  0.6726
  653MOL0     H88094   2.956   8.218   3.107 -1.6641  0.6235 -0.4550
  653MOL0     H88095   3.022   8.387   3.130  1.3281 -0.8456  0.9769
  653MOL0     H88096   3.019   8.220   2.882 -2.1344 -0.1797  1.6978
  653MOL0     H88097   3.043   8.388   2.865 -1.8855 -2.0401 -1.3915
  653MOL0     H88098   3.254   8.291   2.876 -1.8417  1.4565 -0.2766
  653MOL0     H88099   3.232   8.366   3.040 -0.5456  1.1620 -0.8708
  653MOL0     H88100   3.182   8.141   3.140  0.6043  0.3031  0.6426
  653MOL0     H88101   3.204   8.063   2.972  3.7985 -0.6397 -0.6235
  653MOL0     H88102   3.381   8.096   3.182  0.0468  0.6145 -0.8742
  653MOL0     H88103   3.419   8.238   3.089  0.2764 -0.3452 -2.5723
  653MOL0     H88104   3.527   8.002   3.044 -1.1279  1.3528  1.6079
  653MOL0     H88105   3.398   7.981   2.926  0.4633 -1.2466  0.1135
  653MOL0     H88106   3.379   8.139   2.706  0.9838  0.2662 -3.2846
  653MOL0     H88107   3.496   8.339   2.500  1.4394 -1.0406 -2.8070
  653MOL0     H88108   3.636   8.422   2.568 -1.1596  1.0897 -2.9214
  653MOL0     H88109   3.775   8.216   2.538 -0.5322 -1.1494 -0.7543
  653MOL0     H88110   3.656   8.116   2.479  1.0005 -0.4837 -2.0529
  653MOL0     H88111   3.783   8.351   2.336 -1.0839  0.5585  2.3239
  653MOL0     H88112   3.620   8.308   2.285  1.7957  1.3053 -1.3099
  653MOL0     H88113   3.751   8.165   2.151  2.0293 -0.4515 -0.5375
  653MOL0     H88114   3.712   8.054   2.282 -0.4828 -0.2812 -1.1901
  653MOL0     H88115   3.874   8.306   2.070 -0.4724  0.5724  1.9976
  653MOL0     H88116   4.052   8.394   1.959 -1.1996 -1.3922 -0.6546
  653MOL0     H88117   4.365   8.665   1.931  0.4528  0.3968  1.3203
  653MOL0     H88118   4.574   8.796   1.823 -2.4886  0.3109 -0.6596
  653MOL0     H88119   4.910   8.527   1.679  2.7615  1.7674  2.5348
  653MOL0     H88120   4.830   8.594   1.533 -0.7063  1.2986 -0.1583
  653MOL0     H88121   5.066   8.679   1.527  1.8447  0.5670  1.4974
  653MOL0     H88122   4.957   8.806   1.560 -1.7341 -2.4454 -3.9320
  653MOL0     H88123   5.143   8.830   1.731  0.2918 -0.0468  3.7769
  653MOL0     H88124   5.008   8.749   1.817 -1.4577 -2.7468 -0.5512
  653MOL0     H88125   5.239   8.600   1.689 -1.7376  0.5799 -2.3343
  653MOL0     H88126   5.109   8.521   1.779  1.6255 -1.0767  0.3091
  653MOL0     H88127   5.204   8.637   1.981  2.9680  0.9230  2.0196
  653MOL0     H88128   5.303   8.731   1.872 -1.2862  0.7781  1.0908
  653MOL0     H88129   5.286   8.419   1.909 -1.4636  1.6527  1.4238
  653MOL0     H88130   5.419   8.511   1.827  0.1814  2.2441 -0.1451
  653MOL0     H88131   5.375   8.555   2.123 -0.2211 -1.3739  0.0783
  653MOL0     H88132   5.518   8.598   2.025 -0.7138  0.5717 -4.0393
  653MOL0     H88133   5.583   8.403   2.166 -1.8039  0.9468  0.4895
  653MOL0     H88134   5.430   8.324   2.132 -0.3686  0.1410  0.2913
  653MOL0     H88135   4.683   8.433   1.635 -0.7107 -1.9301  1.3977
  653MOL0     H88136   4.493   8.318   1.751 -0.2622 -0.1677 -1.2165
  653MOL0     H88137   4.330   8.231   2.247  1.5679  2.2031 -4.4483
  653MOL0     H88138   4.146   8.108   2.339 -2.7365 -2.2170 -0.1596
  653MOL0     H88139   2.927   8.293   3.433  0.7351  3.2099 -1.9120
  653MOL0     H88140   2.900   8.348   3.674  3.3331 -1.5767 -2.8305
  653MOL0     H88141   2.542   8.606   3.940  1.0993 -3.7497  0.5522
  653MOL0     H88142   2.480   8.727   4.167  0.6087 -0.6632  1.5839
  653MOL0     H88143   2.424   8.773   4.381 -3.3129  2.7529  1.3270
  653MOL0     H88144   2.472   8.930   4.324 -0.4306  1.0422  1.7755
  653MOL0     H88145   2.406   8.918   4.563  0.6521 -0.5187 -0.3720
  653MOL0     H88146   2.561   8.983   4.542 -1.2082  0.6598  2.8000
  653MOL0     H88147   2.666   8.746   4.594 -0.6351 -3.7309  0.2103
  653MOL0     H88148   2.509   8.678   4.616  1.5455 -1.1078  2.3774
  653MOL0     H88149   2.642   8.908   4.782 -0.9376  1.4146  0.3706
  653MOL0     H88150   2.470   8.875   4.791 -0.1007  1.8535 -0.0789
  653MOL0     H88151   2.635   8.577   5.033 -3.9855 -0.1774  0.3572
  653MOL0     H88152   2.873   8.706   4.302  1.2895  0.6505 -1.8827
  653MOL0     H88153   3.042   8.650   4.165 -0.2765  2.1248  0.3880
  653MOL0     H88154   3.009   8.528   4.039  0.2700 -1.0178  1.5327
  653MOL0     H88155   3.030   8.705   3.992 -0.4541  0.3429  0.5603
  654MOL0     O88156   6.959  11.366   7.268  0.6244  0.6442  0.3546
  654MOL0     C88157   6.909  11.468   7.219 -0.5344  0.0955  0.0202
  654MOL0     O88158   6.974  11.571   7.167  0.1805 -0.3904 -0.2902
  654MOL0     C88159   7.103  11.548   7.148 -0.0596 -0.3294  0.5627
  654MOL0     C88160   7.145  11.529   7.012 -0.7067  0.1754 -0.5777
  654MOL0     C88161   7.285  11.513   6.988  0.9292 -0.0785 -1.1003
  654MOL0     C88162   7.371  11.512   7.102  0.0016  0.7350 -0.5697
  654MOL0     O88163   7.501  11.486   7.061 -0.4431  0.5586 -0.0920
  654MOL0     C88164   7.601  11.495   7.162  0.3163  0.2603 -0.2574
  654MOL0     C88165   7.738  11.488   7.099 -0.2928  0.8011 -0.6058
  654MOL0     C88166   7.854  11.546   7.193 -0.4098  0.3843 -0.3311
  654MOL0     C88167   7.899  11.460   7.306 -1.0777  0.1564 -0.8883
  654MOL0     C88168   7.978  11.529   7.414  0.0748  0.3424 -0.8040
  654MOL0     C88169   8.125  11.557   7.366 -0.0999 -0.5405  0.6855
  654MOL0     C88170   8.194  11.654   7.465  0.8633  0.1628  0.1380
  654MOL0     C88171   8.331  11.696   7.417 -0.2148  0.2208  0.0447
  654MOL0     N88172   8.425  11.584   7.416  0.0931 -0.5560 -0.5628
  654MOL0     C88173   8.481  11.529   7.300  0.1901  0.6442  1.1273
  654MOL0     C88174   8.544  11.422   7.345 -0.8850 -0.0364  0.0656
  654MOL0     C88175   8.633  11.323   7.268  0.4806  0.1025 -0.2841
  654MOL0     C88176   8.766  11.384   7.212 -0.0107  0.2701 -0.0345
  654MOL0     C88177   8.845  11.269   7.151 -0.8994  1.7669  0.0337
  654MOL0     C88178   8.999  11.296   7.129 -0.2507 -0.0734  0.4258
  654MOL0     O88179   9.055  11.175   7.087  0.0416  1.0358 -0.7789
  654MOL0     C88180   9.188  11.183   7.042  0.3824 -0.1809 -0.0613
  654MOL0     C88181   9.240  11.074   6.983  0.7710 -0.0737  0.1623
  654MOL0     C88182   9.373  11.064   6.939 -0.1887  0.5561  0.2966
  654MOL0     C88183   9.462  11.164   6.971 -0.0573 -0.3705  1.1717
  654MOL0     C88184   9.602  11.163   6.929  0.5114 -0.2499  0.9067
  654MOL0     O88185   9.670  11.275   6.939  0.0976 -0.2351 -0.2470
  654MOL0     C88186   9.805  11.289   6.908  0.9475 -0.5846 -0.0777
  654MOL0     C88187   9.868  11.396   6.971  0.5332  0.0666 -0.0631
  654MOL0     C88188  10.008  11.409   6.967  0.2608 -0.5052 -0.2973
  654MOL0     C88189  10.085  11.323   6.901  0.2788  0.0545  0.4382
  654MOL0     O88190  10.220  11.340   6.911 -1.2197 -0.6737 -0.1354
  654MOL0     C88191  10.313  11.235   6.871  0.7053 -0.3669 -0.5632
  654MOL0     C88192  10.459  11.269   6.906 -0.9414  0.2485  0.0780
  654MOL0     C88193  10.571  11.164   6.870 -0.2379 -0.0696  0.1430
  654MOL0     C88194  10.579  11.149   6.714  0.2284  0.5571 -0.2679
  654MOL0     C88195  10.698  11.065   6.671  0.5642 -0.2153 -0.5780
  654MOL0     C88196  10.837  11.120   6.692  0.7932  0.6208  0.6941
  654MOL0     C88197  10.940  11.034   6.616  0.2864 -0.0317 -0.7464
  654MOL0     C88198  11.077  11.100   6.619 -0.1446 -0.1579  0.4082
  654MOL0    Cl88199  11.178  11.060   6.765  0.0711  0.4297  0.0187
  654MOL0     C88200  10.022  11.223   6.826 -0.4300  0.2398  0.4747
  654MOL0     C88201   9.888  11.208   6.821 -0.6408 -0.1222  0.2343
  654MOL0     O88202   9.641  11.071   6.861  0.9011  0.4871 -0.3817
  654MOL0     C88203   9.411  11.284   7.033 -0.3419  0.0598  0.1609
  654MOL0     C88204   9.274  11.294   7.069 -0.6667 -0.2593 -0.2945
  654MOL0     N88205   8.538  11.417   7.480 -0.0417 -0.4798  0.1131
  654MOL0     N88206   8.481  11.523   7.528  1.0539  0.8929  0.6500
  654MOL0     C88207   7.325  11.520   7.242 -0.9851  0.2976  0.0362
  654MOL0     C88208   7.187  11.542   7.257 -0.4032 -0.3476  0.4266
  654MOL0     C88209   6.761  11.470   7.199  0.3863 -0.6744 -0.2419
  654MOL0     C88210   6.696  11.343   7.199  0.5345  0.1354  0.6107
  654MOL0     C88211   6.559  11.338   7.189  0.1635  0.2820  0.3005
  654MOL0     C88212   6.482  11.447   7.160  1.4739  0.5697 -0.4785
  654MOL0     O88213   6.347  11.448   7.141  0.1570 -0.1748 -0.1526
  654MOL0     C88214   6.276  11.322   7.153 -0.3441 -0.1532  0.9346
  654MOL0     C88215   6.308  11.238   7.023 -0.8637 -0.5255  0.0834
  654MOL0     C88216   6.239  11.302   6.900 -0.4896  0.4755 -0.6269
  654MOL0     C88217   6.278  11.225   6.769  0.3564 -0.2504 -0.8271
  654MOL0     C88218   6.420  11.218   6.742 -0.3975  0.3400  0.4564
  654MOL0     C88219   6.529  11.178   6.704  0.2299 -0.4343  0.4723
  654MOL0     C88220   6.546  11.565   7.151 -0.1943 -0.2155 -0.4382
  654MOL0     C88221   6.679  11.589   7.181 -0.7497 -0.5876  0.2559
  654MOL0     C88222   6.745  11.725   7.157  0.7811  0.5820 -0.1305
  654MOL0     H88223   7.083  11.512   6.924  1.2172 -1.8037 -1.6516
  654MOL0     H88224   7.325  11.500   6.888 -0.7195  0.8764 -1.9431
  654MOL0     H88225   7.588  11.583   7.227 -0.3317 -0.9209  1.2735
  654MOL0     H88226   7.593  11.412   7.233 -0.1881  0.2433 -0.3290
  654MOL0     H88227   7.729  11.546   7.006  0.2105  0.2958 -0.9768
  654MOL0     H88228   7.776  11.387   7.076  1.6493  0.5560  2.9505
  654MOL0     H88229   7.828  11.645   7.233 -0.2368 -0.0231  0.8251
  654MOL0     H88230   7.937  11.574   7.127 -0.5224  1.4371 -0.0504
  654MOL0     H88231   7.812  11.416   7.357 -0.3811 -0.6383 -0.3656
  654MOL0     H88232   7.958  11.376   7.267 -0.8734 -0.3029  0.3544
  654MOL0     H88233   7.928  11.626   7.424 -1.4962 -0.3116 -1.8971
  654MOL0     H88234   7.970  11.466   7.503 -0.4510  2.8613  1.0342
  654MOL0     H88235   8.193  11.472   7.353  1.3779  0.6312  0.3603
  654MOL0     H88236   8.116  11.610   7.270  0.8044  2.3059  2.0700
  654MOL0     H88237   8.209  11.621   7.568 -2.0369  2.0043  1.3051
  654MOL0     H88238   8.129  11.742   7.479 -1.3665 -1.5000  0.8259
  654MOL0     H88239   8.322  11.726   7.313 -0.9169  1.2514  0.3893
  654MOL0     H88240   8.365  11.772   7.488  2.6505  0.1344 -1.0997
  654MOL0     H88241   8.454  11.569   7.203 -4.0193 -2.1524  0.8919
  654MOL0     H88242   8.660  11.240   7.334 -3.8374 -3.4550 -2.4950
  654MOL0     H88243   8.571  11.283   7.188 -1.6025  1.4154  0.5881
  654MOL0     H88244   8.753  11.448   7.124 -3.8797 -1.9182 -1.3104
  654MOL0     H88245   8.826  11.444   7.280  1.6677 -0.5379 -0.7370
  654MOL0     H88246   8.798  11.248   7.055  4.3308  0.8907 -2.6819
  654MOL0     H88247   8.835  11.184   7.219 -0.1336  0.8300 -1.0112
  654MOL0     H88248   9.043  11.346   7.216 -2.7937  1.7588  0.7679
  654MOL0     H88249   9.005  11.359   7.040  1.2767 -1.5070 -0.5568
  654MOL0     H88250   9.177  10.991   6.952  0.8501 -0.3831  0.8085
  654MOL0     H88251   9.403  10.967   6.899 -1.0320  0.2731  0.3444
  654MOL0     H88252   9.811  11.473   7.021  1.2079  0.9023 -0.5545
  654MOL0     H88253  10.055  11.485   7.029  0.1597 -1.4334  0.9678
  654MOL0     H88254  10.288  11.143   6.924  2.5867  0.6739  2.4083
  654MOL0     H88255  10.317  11.226   6.762 -1.6182  0.6408 -0.7960
  654MOL0     H88256  10.485  11.363   6.858  2.7060  0.4226  2.0104
  654MOL0     H88257  10.473  11.291   7.012 -1.8216 -1.2898  0.5492
  654MOL0     H88258  10.667  11.204   6.902  0.3755  0.9347 -2.6824
  654MOL0     H88259  10.545  11.076   6.930 -0.4429  0.6923  1.1987
  654MOL0     H88260  10.590  11.248   6.669 -0.6633  0.8246  0.0665
  654MOL0     H88261  10.487  11.109   6.669 -0.8459  1.8679  0.6725
  654MOL0     H88262  10.680  11.035   6.567  2.1645 -0.9443 -0.6748
  654MOL0     H88263  10.688  10.975   6.733  0.6770 -2.1626 -3.2055
  654MOL0     H88264  10.843  11.218   6.643  0.9455 -0.1171 -0.8143
  654MOL0     H88265  10.868  11.124   6.797  2.4283  2.7082  0.2000
  654MOL0     H88266  10.909  11.020   6.512 -1.3585 -2.4494 -0.0178
  654MOL0     H88267  10.949  10.933   6.657  0.1879  0.2335 -0.0626
  654MOL0     H88268  11.140  11.056   6.540 -1.0843 -1.5417  0.3996
  654MOL0     H88269  11.081  11.207   6.597 -0.9689 -0.3743 -0.8808
  654MOL0     H88270  10.094  11.164   6.769  0.4992  0.7733  1.0599
  654MOL0     H88271   9.845  11.140   6.749  1.6158  0.5747 -1.9354
  654MOL0     H88272   9.474  11.369   7.058  0.1049 -1.1856  3.8246
  654MOL0     H88273   9.252  11.392   7.109  0.4776 -0.2577  0.3685
  654MOL0     H88274   7.382  11.483   7.326 -1.6140 -2.5413 -0.6795
  654MOL0     H88275   7.150  11.547   7.359  1.1729 -0.8399  1.0635
  654MOL0     H88276   6.766  11.261   7.212  2.3877  1.8887  2.1291
  654MOL0     H88277   6.514  11.239   7.186 -1.1781  0.8796 -2.7847
  654MOL0     H88278   6.169  11.345   7.154  0.3469  4.7089 -2.5711
  654MOL0     H88279   6.302  11.278   7.249 -2.0408  2.3338  2.6532
  654MOL0     H88280   6.265  11.138   7.018  0.8136 -1.2519 -0.3475
  654MOL0     H88281   6.417  11.229   7.018 -0.4778  1.8252  2.0492
  654MOL0     H88282   6.285  11.400   6.883 -1.1543  0.5283 -2.3400
  654MOL0     H88283   6.131  11.311   6.912 -0.7052 -1.5772 -0.5558
  654MOL0     H88284   6.248  11.121   6.784 -0.4304  0.3120  2.4687
  654MOL0     H88285   6.234  11.276   6.683 -2.0795  0.0860  0.5082
  654MOL0     H88286   6.624  11.130   6.688 -0.8361 -1.4583 -5.0657
  654MOL0     H88287   6.494  11.658   7.132 -0.9234 -0.6059 -0.3737
  654MOL0     H88288   6.682  11.814   7.148  0.5931  0.3834 -0.7805
  654MOL0     H88289   6.813  11.747   7.240  0.2639  1.9658 -0.0391
  654MOL0     H88290   6.809  11.716   7.069  0.0255  0.6092 -0.6904
  655MOL0     O88291   2.156   5.763   2.482 -0.4558 -0.2812 -0.0128
  655MOL0     C88292   2.080   5.808   2.566  0.3571 -0.3963 -0.2021
  655MOL0     O88293   2.120   5.863   2.684 -0.0971  0.3493  0.1256
  655MOL0     C88294   2.252   5.898   2.707  0.5032  1.1168  0.4269
  655MOL0     C88295   2.297   6.022   2.656 -0.2783  0.4917 -0.1279
  655MOL0     C88296   2.433   6.057   2.673 -0.0633  0.1528 -0.1692
  655MOL0     C88297   2.519   5.967   2.737 -0.2209  0.4084  0.2120
  655MOL0     O88298   2.647   6.007   2.757  0.0783 -0.2177  0.1926
  655MOL0     C88299   2.728   5.953   2.855 -0.5401  0.2298  0.3605
  655MOL0     C88300   2.831   6.057   2.886 -0.5960 -0.0527  0.1980
  655MOL0     C88301   2.862   6.068   3.040  0.2661  0.1593  1.1477
  655MOL0     C88302   2.954   6.199   3.056  0.6502  0.2001 -0.4130
  655MOL0     C88303   2.987   6.211   3.204 -0.8872 -0.5276 -0.5651
  655MOL0     C88304   3.063   6.339   3.230  1.1238 -0.1903  0.5594
  655MOL0     C88305   3.067   6.382   3.379 -0.5603 -0.6514 -0.5243
  655MOL0     C88306   2.954   6.475   3.428  0.3168  0.1592  0.0948
  655MOL0     N88307   2.966   6.617   3.394  0.1879  0.5468  0.5221
  655MOL0     C88308   3.053   6.705   3.454  0.7679 -0.1579 -0.6834
  655MOL0     C88309   3.019   6.820   3.397 -0.0865 -0.1830  0.5443
  655MOL0     C88310   3.069   6.955   3.440  0.1405  0.0732 -0.1986
  655MOL0     C88311   3.084   6.983   3.594  0.2895  0.2159  0.1450
  655MOL0     C88312   2.951   6.959   3.679  0.0650  0.5138  0.5887
  655MOL0     C88313   2.805   6.994   3.626 -0.5247  0.0938 -0.3641
  655MOL0     O88314   2.783   7.133   3.613  0.1069  0.1648  1.2166
  655MOL0     C88315   2.649   7.187   3.621 -0.1375 -0.2292  0.1391
  655MOL0     C88316   2.640   7.325   3.625  0.3970  0.5469  0.6359
  655MOL0     C88317   2.517   7.385   3.637  0.2414 -0.2719  0.2177
  655MOL0     C88318   2.398   7.308   3.650 -0.2169 -0.6376  0.2419
  655MOL0     C88319   2.272   7.374   3.673 -0.0628  0.6185 -0.3332
  655MOL0     O88320   2.270   7.507   3.657 -0.0634 -0.0190  0.3925
  655MOL0     C88321   2.167   7.581   3.711  0.2434  0.2638  0.4835
  655MOL0     C88322   2.199   7.661   3.821 -0.1491 -0.4317  1.3254
  655MOL0     C88323   2.099   7.739   3.877  0.0560  1.5481 -0.2831
  655MOL0     C88324   1.971   7.745   3.815  1.1447  0.0448 -0.0769
  655MOL0     O88325   1.862   7.808   3.871 -0.1652 -1.3015 -0.3955
  655MOL0     C88326   1.883   7.907   3.977 -0.7618 -0.3210 -0.3673
  655MOL0     C88327   1.762   7.993   3.990 -0.2139 -0.2602 -0.3275
  655MOL0     C88328   1.670   7.918   4.088  0.4739 -0.2436 -0.2041
  655MOL0     C88329   1.539   8.000   4.084  0.2871 -0.4922 -0.5841
  655MOL0     C88330   1.424   7.956   4.170 -0.4929 -0.5742  0.0792
  655MOL0     C88331   1.454   7.950   4.313  0.2855 -0.0894  0.0617
  655MOL0     C88332   1.333   7.980   4.387  0.9851 -0.3140 -0.4580
  655MOL0     C88333   1.362   7.980   4.537  0.6779  0.3689 -0.4500
  655MOL0    Cl88334   1.419   8.150   4.569  0.4662  0.2163  0.2791
  655MOL0     C88335   1.946   7.668   3.698  0.4490 -0.0484  0.0250
  655MOL0     C88336   2.039   7.581   3.655  0.2986 -0.2996 -0.1393
  655MOL0     O88337   2.167   7.308   3.700  0.0726  0.6602 -0.3711
  655MOL0     C88338   2.409   7.171   3.640  0.4941 -0.2873 -0.9632
  655MOL0     C88339   2.533   7.110   3.617 -0.9884  0.7033  0.2482
  655MOL0     N88340   2.910   6.805   3.308  0.1545 -0.9096 -0.9342
  655MOL0     N88341   2.888   6.681   3.301  0.3553  0.0567 -0.4805
  655MOL0     C88342   2.474   5.842   2.773  0.2442 -0.0007 -0.0672
  655MOL0     C88343   2.337   5.808   2.758  0.1708 -0.6718  0.7573
  655MOL0     C88344   1.927   5.800   2.548 -0.7247  1.1104 -0.2790
  655MOL0     C88345   1.883   5.752   2.428 -0.5323 -0.6669 -0.0847
  655MOL0     C88346   1.748   5.747   2.405  0.2858  0.3517 -0.0217
  655MOL0     C88347   1.647   5.778   2.495 -0.2870 -0.4106 -0.4451
  655MOL0     O88348   1.512   5.764   2.466 -0.0599  0.2052  0.2487
  655MOL0     C88349   1.415   5.761   2.567 -0.1325 -0.3115  0.4284
  655MOL0     C88350   1.274   5.734   2.516 -0.7150  0.2698  0.3561
  655MOL0     C88351   1.174   5.757   2.632  0.1159  0.3934 -0.0625
  655MOL0     C88352   1.148   5.632   2.719 -0.1679 -0.2028 -0.2660
  655MOL0     C88353   1.046   5.653   2.812  0.0778  0.4999  0.3560
  655MOL0     C88354   0.961   5.675   2.898  0.3238  0.1924  0.0444
  655MOL0     C88355   1.694   5.818   2.623 -0.4445  0.3693  0.3242
  655MOL0     C88356   1.835   5.837   2.648  1.0916  0.1996  0.5303
  655MOL0     C88357   1.868   5.874   2.784  0.2840 -0.8197  0.2886
  655MOL0     H88358   2.228   6.091   2.608  2.5084  2.2984 -1.8467
  655MOL0     H88359   2.466   6.158   2.651 -1.0990  0.4780 -0.2914
  655MOL0     H88360   2.675   5.932   2.948  0.8286  2.3823  1.7209
  655MOL0     H88361   2.790   5.870   2.820  0.1379  1.5917 -1.9190
  655MOL0     H88362   2.791   6.151   2.847 -1.6721 -1.8968 -3.7581
  655MOL0     H88363   2.925   6.038   2.833  0.5818 -1.2229  2.5799
  655MOL0     H88364   2.912   5.980   3.081 -0.1785 -1.1777 -1.0334
  655MOL0     H88365   2.770   6.084   3.097 -0.1562  1.2364  0.1838
  655MOL0     H88366   3.045   6.178   2.999 -0.1391 -0.1189 -1.6163
  655MOL0     H88367   2.908   6.288   3.012 -2.2278 -1.3291 -0.7468
  655MOL0     H88368   2.890   6.208   3.256 -0.1764  1.6975  1.0638
  655MOL0     H88369   3.055   6.138   3.247  0.9733  2.1633  1.4125
  655MOL0     H88370   3.161   6.320   3.187 -0.1422  1.3501 -3.4165
  655MOL0     H88371   3.018   6.423   3.177  2.2927  3.0019  4.2164
  655MOL0     H88372   3.166   6.428   3.383  0.5118 -2.6243 -2.2197
  655MOL0     H88373   3.075   6.301   3.453 -0.0408  0.5313  0.7572
  655MOL0     H88374   2.857   6.443   3.388 -0.6016  0.1675  2.1840
  655MOL0     H88375   2.952   6.463   3.537 -0.6922 -0.7798 -0.0102
  655MOL0     H88376   3.131   6.698   3.530 -0.0725 -0.3513  0.1768
  655MOL0     H88377   3.169   6.969   3.397  0.9245 -1.1164  1.0994
  655MOL0     H88378   2.999   7.034   3.412 -0.3043 -0.2160  0.0866
  655MOL0     H88379   3.170   6.921   3.622  1.8327  1.9143 -0.5400
  655MOL0     H88380   3.119   7.086   3.610 -0.4569  0.1847  2.2635
  655MOL0     H88381   2.959   7.019   3.770 -1.5543 -2.3920  2.7878
  655MOL0     H88382   2.964   6.853   3.705 -1.4860  0.1864  0.1113
  655MOL0     H88383   2.728   6.943   3.683  0.7373 -0.9180  0.5013
  655MOL0     H88384   2.796   6.948   3.528 -1.2010  1.6894 -1.0933
  655MOL0     H88385   2.741   7.364   3.629  0.4168  0.4200  3.0725
  655MOL0     H88386   2.526   7.492   3.654 -0.5602  0.6851 -4.1781
  655MOL0     H88387   2.299   7.654   3.863  0.9982 -3.0791 -1.4424
  655MOL0     H88388   2.110   7.796   3.969  3.3449 -0.0576  0.4554
  655MOL0     H88389   1.897   7.855   4.072 -0.0176 -1.0706 -0.8731
  655MOL0     H88390   1.973   7.968   3.969 -0.7017 -0.6319 -2.7030
  655MOL0     H88391   1.787   8.095   4.021  0.2933 -0.8585  1.3469
  655MOL0     H88392   1.723   8.014   3.890 -1.3967  0.2514  0.2188
  655MOL0     H88393   1.650   7.818   4.048 -0.5005  0.6718 -2.1490
  655MOL0     H88394   1.706   7.924   4.191 -2.7020  1.4908  0.9400
  655MOL0     H88395   1.492   8.005   3.985 -0.6633  0.6432 -0.1013
  655MOL0     H88396   1.565   8.105   4.100 -0.3964  0.0158 -2.4689
  655MOL0     H88397   1.388   7.859   4.134 -2.3680  0.0996  0.0145
  655MOL0     H88398   1.341   8.027   4.158 -0.7278 -0.7246  0.7341
  655MOL0     H88399   1.490   7.847   4.328 -1.0684 -1.0149 -2.4834
  655MOL0     H88400   1.531   8.022   4.340 -1.7633  3.1959 -2.2166
  655MOL0     H88401   1.257   7.906   4.359  0.5459  0.1418 -0.4748
  655MOL0     H88402   1.297   8.080   4.364  1.6460  0.0286 -0.0363
  655MOL0     H88403   1.272   7.968   4.598  0.4258 -0.9864 -1.0371
  655MOL0     H88404   1.436   7.909   4.576  1.5360  1.9344  0.9033
  655MOL0     H88405   1.866   7.670   3.625  1.1197 -0.2854 -0.7305
  655MOL0     H88406   2.016   7.525   3.565 -0.8751  0.4009 -0.2939
  655MOL0     H88407   2.322   7.108   3.657 -0.8713  2.2157  2.8741
  655MOL0     H88408   2.539   7.002   3.621  0.1762  0.6830 -1.2707
  655MOL0     H88409   2.546   5.769   2.808  1.5976 -0.7906 -4.0403
  655MOL0     H88410   2.298   5.711   2.786 -0.8305 -0.6730 -0.5379
  655MOL0     H88411   1.956   5.734   2.350  1.7534 -1.9874  2.2240
  655MOL0     H88412   1.703   5.727   2.308  2.6710 -1.6651 -0.8230
  655MOL0     H88413   1.407   5.857   2.619 -0.9131  0.7198 -1.4842
  655MOL0     H88414   1.438   5.693   2.650  0.6098 -1.0957 -0.4079
  655MOL0     H88415   1.259   5.630   2.484  0.9327 -0.5600  2.0806
  655MOL0     H88416   1.266   5.805   2.433 -1.7801  0.0311  0.2396
  655MOL0     H88417   1.083   5.783   2.577 -1.8283  0.6677  3.0354
  655MOL0     H88418   1.197   5.849   2.685  0.1877 -0.6251  1.7626
  655MOL0     H88419   1.115   5.546   2.661 -2.1317 -0.8923  1.7494
  655MOL0     H88420   1.247   5.613   2.761  0.1494 -0.3012 -1.0364
  655MOL0     H88421   0.890   5.705   2.973  1.5207  2.1734  0.4491
  655MOL0     H88422   1.629   5.838   2.708 -0.6094 -1.2956  0.6199
  655MOL0     H88423   1.926   5.793   2.828  0.7690 -0.5828  0.0948
  655MOL0     H88424   1.921   5.970   2.776 -0.2666 -0.6964 -3.6535
  655MOL0     H88425   1.775   5.880   2.842 -0.3280 -0.9435 -0.6667
  656MOL0     O88426   3.917   2.964   1.735  0.0146 -0.1300 -0.3982
  656MOL0     C88427   3.934   2.888   1.835  0.3365  0.1054  0.0637
  656MOL0     O88428   4.025   2.914   1.933 -1.1165 -0.7017 -0.3442
  656MOL0     C88429   4.114   3.022   1.930  0.5263 -0.4032 -0.7786
  656MOL0     C88430   4.248   2.986   1.958 -0.1068  0.0675 -0.0516
  656MOL0     C88431   4.353   3.075   1.977  0.6834 -0.2058 -0.8329
  656MOL0     C88432   4.327   3.217   1.986  0.4182  0.2793 -0.2263
  656MOL0     O88433   4.418   3.311   2.007  0.2684 -0.3523  0.0723
  656MOL0     C88434   4.503   3.288   2.115 -0.1590  0.4066 -0.9252
  656MOL0     C88435   4.636   3.355   2.086  0.0685  0.6347  0.4974
  656MOL0     C88436   4.692   3.278   1.960 -0.6421  0.4356 -0.6325
  656MOL0     C88437   4.841   3.290   1.959 -0.1817 -0.2907  0.1836
  656MOL0     C88438   4.889   3.191   1.856  0.1258  0.0893 -0.7416
  656MOL0     C88439   5.039   3.180   1.853 -0.8953 -0.4048  0.8913
  656MOL0     C88440   5.085   3.048   1.790 -0.2409  0.1330 -0.2849
  656MOL0     C88441   5.110   3.060   1.636 -0.1295 -0.4753  0.9842
  656MOL0     N88442   5.252   3.111   1.614 -0.0431  0.6175 -0.7160
  656MOL0     C88443   5.342   3.136   1.711 -0.4258 -1.6179 -0.1089
  656MOL0     C88444   5.448   3.202   1.650  0.7770 -0.9983  0.1273
  656MOL0     C88445   5.582   3.220   1.719  0.4718  0.3250 -0.1290
  656MOL0     C88446   5.700   3.214   1.618 -0.4711 -0.0144 -0.6614
  656MOL0     C88447   5.840   3.245   1.693 -0.9006  0.0755  0.3778
  656MOL0     C88448   5.880   3.382   1.744 -0.2079  0.1260 -1.4591
  656MOL0     O88449   5.892   3.470   1.628 -0.7118  0.2608 -0.2201
  656MOL0     C88450   6.017   3.499   1.576  0.4175 -0.1586 -1.2828
  656MOL0     C88451   6.042   3.626   1.513  0.3228  0.6454 -0.1348
  656MOL0     C88452   6.165   3.662   1.469  0.0317  0.4076 -0.2780
  656MOL0     C88453   6.274   3.575   1.495 -0.0801  0.5293  0.2201
  656MOL0     C88454   6.410   3.627   1.469 -0.3240 -0.5560  0.0237
  656MOL0     O88455   6.428   3.757   1.456  0.3896 -0.3598  0.1603
  656MOL0     C88456   6.557   3.803   1.463  0.5140  0.0463 -0.4179
  656MOL0     C88457   6.658   3.783   1.365  0.7095 -0.6517  0.0582
  656MOL0     C88458   6.789   3.817   1.389  0.2687  0.2075  0.1988
  656MOL0     C88459   6.837   3.891   1.498  0.5104 -0.1039 -1.0031
  656MOL0     O88460   6.970   3.929   1.496 -0.3885 -0.6537 -0.1106
  656MOL0     C88461   7.025   3.990   1.613 -0.2764  0.4462  0.3081
  656MOL0     C88462   7.177   3.999   1.601  0.0643  0.8888  0.0131
  656MOL0     C88463   7.231   4.075   1.732  0.2807  0.4164  0.0060
  656MOL0     C88464   7.360   4.018   1.768 -0.8197  0.3190  0.4979
  656MOL0     C88465   7.455   4.111   1.839  0.6429  0.2355  0.3558
  656MOL0     C88466   7.599   4.060   1.869  0.6971  0.2362  0.2758
  656MOL0     C88467   7.599   3.927   1.945 -0.1394  0.2255  0.1299
  656MOL0     C88468   7.737   3.889   2.001  0.7880 -0.3124 -0.5163
  656MOL0    Cl88469   7.720   3.720   2.056 -0.3276 -0.1387  0.5125
  656MOL0     C88470   6.745   3.908   1.598  0.1083  0.4183  0.8814
  656MOL0     C88471   6.605   3.866   1.584 -0.9244 -0.3238  0.0315
  656MOL0     O88472   6.495   3.544   1.465 -0.0172 -0.0668  0.6902
  656MOL0     C88473   6.256   3.449   1.555  0.2731  0.1195 -0.3191
  656MOL0     C88474   6.124   3.413   1.588 -0.7087 -0.1701  0.2931
  656MOL0     N88475   5.420   3.216   1.512  0.3672 -0.1196 -0.6497
  656MOL0     N88476   5.299   3.163   1.499  0.0575  0.3519 -0.4910
  656MOL0     C88477   4.192   3.245   1.968  0.1103 -0.0506 -1.1407
  656MOL0     C88478   4.088   3.156   1.939  0.8815  0.3440  0.9149
  656MOL0     C88479   3.843   2.763   1.835 -0.0250 -0.2502 -0.4566
  656MOL0     C88480   3.752   2.750   1.723 -0.7439 -0.3474 -0.1365
  656MOL0     C88481   3.671   2.629   1.716 -0.2476 -0.0272  0.5320
  656MOL0     C88482   3.693   2.527   1.807  0.6516  0.4934  0.5133
  656MOL0     O88483   3.622   2.418   1.803  0.7500  0.7117  0.6425
  656MOL0     C88484   3.672   2.314   1.715 -0.5131  0.3555  0.0949
  656MOL0     C88485   3.556   2.226   1.699 -0.5414 -0.0972  0.0315
  656MOL0     C88486   3.482   2.190   1.833 -0.7501  0.2836  0.1022
  656MOL0     C88487   3.401   2.066   1.831  0.3492  0.9858 -0.4536
  656MOL0     C88488   3.475   1.942   1.804  0.4642  0.2040 -0.3907
  656MOL0     C88489   3.549   1.851   1.794  0.5591  0.2888 -0.0541
  656MOL0     C88490   3.787   2.546   1.908 -0.1118  0.5572 -0.4931
  656MOL0     C88491   3.860   2.662   1.936  1.5047  0.1188 -0.1920
  656MOL0     C88492   3.956   2.671   2.054  0.1337  0.3804  0.2751
  656MOL0     H88493   4.291   2.887   1.961  2.8851  1.2943  2.3250
  656MOL0     H88494   4.455   3.049   2.002  0.0606  0.8335  3.6314
  656MOL0     H88495   4.460   3.330   2.207  0.7332 -2.4693  0.9444
  656MOL0     H88496   4.509   3.180   2.132 -0.6282  0.3982 -0.7805
  656MOL0     H88497   4.703   3.333   2.169 -0.0199 -0.0867  0.3790
  656MOL0     H88498   4.632   3.464   2.072 -0.4350  0.7957  1.7522
  656MOL0     H88499   4.659   3.314   1.862  1.4876 -1.7821 -2.2669
  656MOL0     H88500   4.662   3.173   1.964  0.2359  0.1335 -1.7254
  656MOL0     H88501   4.864   3.392   1.927 -2.1174  1.4731  3.7507
  656MOL0     H88502   4.891   3.266   2.053  2.4500  0.7236 -0.8741
  656MOL0     H88503   4.843   3.094   1.878  0.0210 -0.0415 -1.5020
  656MOL0     H88504   4.844   3.223   1.762 -0.4480  4.2596  0.7713
  656MOL0     H88505   5.082   3.267   1.802 -0.5245 -1.0333  0.1155
  656MOL0     H88506   5.081   3.190   1.954 -1.7553 -0.4357  1.2583
  656MOL0     H88507   5.001   2.979   1.801 -1.4741  1.7137  0.6810
  656MOL0     H88508   5.166   2.996   1.842 -1.1329 -2.3289 -1.2435
  656MOL0     H88509   5.092   2.960   1.595  2.2668 -0.8168  0.6439
  656MOL0     H88510   5.034   3.129   1.600  1.9292  0.8075 -1.1936
  656MOL0     H88511   5.342   3.095   1.812  1.4047 -1.0801  0.1413
  656MOL0     H88512   5.589   3.303   1.789  1.0352  0.2942 -0.1477
  656MOL0     H88513   5.591   3.125   1.772  0.9861  1.8334  2.6710
  656MOL0     H88514   5.700   3.116   1.568  1.6772 -1.0532  1.1863
  656MOL0     H88515   5.683   3.291   1.542  2.6895  3.4434  1.8127
  656MOL0     H88516   5.921   3.223   1.623 -0.8064 -1.9948  1.0692
  656MOL0     H88517   5.845   3.166   1.768 -1.0684 -0.5802 -0.2802
  656MOL0     H88518   5.969   3.372   1.807 -1.7439  0.1749  0.8454
  656MOL0     H88519   5.805   3.425   1.811  1.7225 -2.2810  2.5922
  656MOL0     H88520   5.974   3.709   1.497 -1.3232 -0.5363  0.4615
  656MOL0     H88521   6.175   3.755   1.415 -0.6644 -0.0119 -1.1584
  656MOL0     H88522   6.641   3.725   1.275  1.6353 -0.2505 -0.3841
  656MOL0     H88523   6.865   3.789   1.316  0.3000 -1.6460  0.9003
  656MOL0     H88524   6.972   4.085   1.623 -3.7920 -1.1329 -1.2858
  656MOL0     H88525   6.996   3.949   1.711 -0.7108  0.5982  0.2460
  656MOL0     H88526   7.225   3.901   1.599 -0.1020  0.7778  0.8129
  656MOL0     H88527   7.211   4.058   1.517  1.6429 -0.7429 -0.5491
  656MOL0     H88528   7.235   4.182   1.713 -2.0128  0.0213 -3.8543
  656MOL0     H88529   7.156   4.061   1.810 -0.8124  1.7075 -0.7856
  656MOL0     H88530   7.405   3.959   1.688 -0.4638  2.0447 -0.6315
  656MOL0     H88531   7.326   3.947   1.844 -1.5100  2.5241  2.3619
  656MOL0     H88532   7.409   4.154   1.928 -0.5770  0.7855 -0.5204
  656MOL0     H88533   7.454   4.193   1.767  1.6970 -0.6155 -0.6737
  656MOL0     H88534   7.640   4.044   1.769  0.9594  0.5588  0.3301
  656MOL0     H88535   7.660   4.135   1.919  0.7297  1.5579 -1.6125
  656MOL0     H88536   7.574   3.857   1.865 -1.5966  0.7095  0.1376
  656MOL0     H88537   7.511   3.928   2.010 -0.8840 -1.7259 -0.7547
  656MOL0     H88538   7.824   3.879   1.935  1.4394 -0.8768  0.4152
  656MOL0     H88539   7.770   3.956   2.080 -0.0842  0.5484 -0.8531
  656MOL0     H88540   6.773   3.959   1.690  1.1552  1.8483 -0.1805
  656MOL0     H88541   6.536   3.885   1.665 -0.5017 -0.6241  0.4643
  656MOL0     H88542   6.344   3.388   1.571 -0.8799 -0.9336  2.5592
  656MOL0     H88543   6.109   3.316   1.634 -0.4335 -0.0185  0.7042
  656MOL0     H88544   4.160   3.349   1.979 -0.5733 -0.4676  1.4877
  656MOL0     H88545   3.993   3.196   1.906  0.2427  0.2183  2.5148
  656MOL0     H88546   3.744   2.820   1.641  0.1178 -1.1171 -0.9126
  656MOL0     H88547   3.598   2.619   1.637  1.2554  4.1524 -1.6642
  656MOL0     H88548   3.751   2.271   1.777 -0.4898  0.8901  0.4492
  656MOL0     H88549   3.718   2.354   1.624  3.9030 -1.8853  1.0770
  656MOL0     H88550   3.579   2.129   1.654  0.2617 -1.1109  2.4777
  656MOL0     H88551   3.483   2.276   1.635  1.7089  1.5463 -1.3978
  656MOL0     H88552   3.419   2.274   1.863  0.7803  1.3423  0.4477
  656MOL0     H88553   3.558   2.172   1.908  0.1346  0.5847 -0.7032
  656MOL0     H88554   3.344   2.040   1.920 -0.4581  0.8418 -1.0086
  656MOL0     H88555   3.322   2.074   1.756 -0.3594  0.1385  0.1861
  656MOL0     H88556   3.616   1.767   1.784  2.4620  1.9894 -3.2643
  656MOL0     H88557   3.804   2.452   1.960 -0.9173  0.4800 -0.3587
  656MOL0     H88558   3.933   2.587   2.120  0.2859  0.1830  0.0802
  656MOL0     H88559   4.056   2.668   2.008 -1.1730 -0.1604 -2.7620
  656MOL0     H88560   3.957   2.767   2.107  2.3344 -0.0807  1.1999
  657MOL0     O88561   3.167   9.833   6.691  0.3596 -0.0246 -0.5988
  657MOL0     C88562   3.193   9.802   6.812  1.0384 -0.6820 -0.0670
  657MOL0     O88563   3.282   9.713   6.851 -0.7527 -0.4017  0.3302
  657MOL0     C88564   3.370   9.680   6.756  0.6471  0.1145 -0.0594
  657MOL0     C88565   3.496   9.722   6.774 -0.1361 -0.0799 -0.4429
  657MOL0     C88566   3.598   9.691   6.677  0.0021 -0.0836  0.6850
  657MOL0     C88567   3.562   9.629   6.552 -0.7248  0.2252 -0.0465
  657MOL0     O88568   3.645   9.589   6.449  0.5782 -0.1340  0.3158
  657MOL0     C88569   3.782   9.614   6.450 -0.3155  0.4433  0.3972
  657MOL0     C88570   3.851   9.498   6.529 -0.5633  0.1579 -0.5296
  657MOL0     C88571   3.990   9.471   6.469  0.9224 -0.1862 -1.1172
  657MOL0     C88572   4.025   9.326   6.491 -0.0269 -0.0530  0.8223
  657MOL0     C88573   4.174   9.293   6.485  0.5702  0.0047 -0.5272
  657MOL0     C88574   4.235   9.314   6.349  0.4667  0.5030  0.0391
  657MOL0     C88575   4.372   9.242   6.335  0.2943 -0.1841  0.3282
  657MOL0     C88576   4.414   9.288   6.198  0.0133 -1.2064  0.2306
  657MOL0     N88577   4.556   9.303   6.189  0.5876  0.0543 -0.3618
  657MOL0     C88578   4.616   9.251   6.084  0.5668  0.3392 -0.3299
  657MOL0     C88579   4.741   9.306   6.089 -0.9608  0.3501  0.9889
  657MOL0     C88580   4.851   9.298   5.980 -0.2760  0.0464 -0.1004
  657MOL0     C88581   4.895   9.146   5.954  0.9147 -1.0123 -0.2223
  657MOL0     C88582   4.995   9.128   5.836  0.3724  0.3028  0.6075
  657MOL0     C88583   5.140   9.126   5.882  0.1215  0.3695 -0.2914
  657MOL0     O88584   5.171   9.258   5.937 -0.4095 -1.1040 -0.2878
  657MOL0     C88585   5.273   9.341   5.896 -0.5324  0.3164  0.2025
  657MOL0     C88586   5.375   9.302   5.807 -0.1390 -0.7333  0.3410
  657MOL0     C88587   5.462   9.397   5.753  0.4731 -0.1033  0.3305
  657MOL0     C88588   5.441   9.533   5.789  0.2029 -0.8914 -0.2881
  657MOL0     C88589   5.524   9.653   5.719  0.4270  1.2313  1.1952
  657MOL0     O88590   5.482   9.784   5.738 -1.2570  0.5226 -0.3804
  657MOL0     C88591   5.550   9.894   5.676 -0.9968  0.9862  0.6232
  657MOL0     C88592   5.642   9.882   5.570 -0.4308 -0.2613 -0.4822
  657MOL0     C88593   5.693  10.002   5.505 -0.2206 -0.4132  0.3992
  657MOL0     C88594   5.679  10.124   5.576  0.5508  0.3242  0.6771
  657MOL0     O88595   5.727  10.246   5.531  0.0141 -0.0787 -0.2466
  657MOL0     C88596   5.841  10.247   5.442  0.2400 -0.4020 -0.5569
  657MOL0     C88597   5.888  10.393   5.425 -0.3451 -0.0861 -0.0004
  657MOL0     C88598   5.985  10.428   5.305  0.4103 -0.6218 -0.5060
  657MOL0     C88599   6.112  10.348   5.308  0.2534  0.9609  0.3471
  657MOL0     C88600   6.195  10.372   5.188 -0.2293 -0.6094 -0.3360
  657MOL0     C88601   6.284  10.502   5.199  0.7240  0.8672 -0.5817
  657MOL0     C88602   6.344  10.518   5.056 -0.4368 -0.2000  0.0128
  657MOL0     C88603   6.420  10.648   5.040 -0.0110  0.7461 -0.0496
  657MOL0    Cl88604   6.559  10.650   5.164  0.3053 -0.0192 -0.0095
  657MOL0     C88605   5.593  10.131   5.680 -0.9418 -0.0376  0.6621
  657MOL0     C88606   5.534  10.016   5.733  1.0224 -0.0781  0.9046
  657MOL0     O88607   5.638   9.619   5.669  0.8524 -0.1380 -0.2338
  657MOL0     C88608   5.350   9.572   5.885  0.8498 -0.0191 -0.0119
  657MOL0     C88609   5.261   9.477   5.936  0.2083  1.2213  0.8729
  657MOL0     N88610   4.750   9.393   6.198  0.2370 -0.6649  0.4070
  657MOL0     N88611   4.638   9.377   6.260 -0.7739  0.7689 -0.2689
  657MOL0     C88612   3.426   9.584   6.546  0.1702 -0.5667  0.5899
  657MOL0     C88613   3.334   9.612   6.640 -0.5359 -0.7056 -0.6679
  657MOL0     C88614   3.107   9.854   6.924 -0.1598 -0.1413  0.1509
  657MOL0     C88615   3.168   9.950   7.011  0.0037  0.3161 -0.6371
  657MOL0     C88616   3.091   9.985   7.123 -0.7080 -0.3523  0.2887
  657MOL0     C88617   2.969   9.934   7.149  0.3260  0.4199 -0.3780
  657MOL0     O88618   2.904   9.959   7.267  1.4684  0.7494  0.2277
  657MOL0     C88619   2.796  10.051   7.273 -0.5742  0.4911  0.3231
  657MOL0     C88620   2.709  10.027   7.392  0.1585 -0.3144 -0.4327
  657MOL0     C88621   2.571  10.091   7.383  0.8840 -0.1031  0.2126
  657MOL0     C88622   2.479  10.074   7.512 -0.7460  0.3819 -0.3751
  657MOL0     C88623   2.349  10.141   7.494  0.1956  0.3255 -0.2153
  657MOL0     C88624   2.233  10.178   7.474 -0.1594  0.6992 -0.6893
  657MOL0     C88625   2.913   9.841   7.069 -0.1944 -0.3725  0.7979
  657MOL0     C88626   2.977   9.811   6.950  0.3911 -0.0745 -0.3265
  657MOL0     C88627   2.908   9.707   6.863 -0.0955  0.2698 -0.2448
  657MOL0     H88628   3.522   9.781   6.861  0.0019 -3.2794  1.8510
  657MOL0     H88629   3.698   9.727   6.697  0.3654 -1.9034  2.5561
  657MOL0     H88630   3.817   9.599   6.347 -1.0361 -3.1312  0.5399
  657MOL0     H88631   3.811   9.713   6.488  0.1601  0.3672  0.2392
  657MOL0     H88632   3.794   9.405   6.519  0.5810 -0.4096 -2.2583
  657MOL0     H88633   3.851   9.520   6.636  0.1311  0.2865 -0.5546
  657MOL0     H88634   4.063   9.535   6.520  0.8737 -0.1490 -1.0924
  657MOL0     H88635   4.006   9.504   6.366  3.1507  0.9529 -0.4794
  657MOL0     H88636   3.990   9.314   6.594  1.5305  0.1674  1.4103
  657MOL0     H88637   3.969   9.256   6.428 -1.2489  0.9691  0.7402
  657MOL0     H88638   4.226   9.354   6.560 -0.1695 -0.2167  0.1658
  657MOL0     H88639   4.188   9.191   6.520 -3.0349  0.7048  3.8928
  657MOL0     H88640   4.172   9.268   6.272  2.6712  0.9665 -2.1795
  657MOL0     H88641   4.245   9.420   6.323 -0.7674  0.2070 -1.8598
  657MOL0     H88642   4.368   9.133   6.326  1.0547 -0.2586  0.7941
  657MOL0     H88643   4.440   9.274   6.414  0.6207  4.0056 -1.3996
  657MOL0     H88644   4.381   9.212   6.127 -4.5718  0.2079  0.5398
  657MOL0     H88645   4.366   9.382   6.171  0.3344 -0.3049  2.5837
  657MOL0     H88646   4.581   9.175   6.015  4.0114 -0.7636 -1.0363
  657MOL0     H88647   4.803   9.350   5.896  0.0656  0.3019 -0.1367
  657MOL0     H88648   4.933   9.366   6.005 -2.3654  2.9924 -0.6261
  657MOL0     H88649   4.939   9.104   6.045  2.4573  2.9558  1.0413
  657MOL0     H88650   4.800   9.094   5.934  0.1007 -0.2282  1.3863
  657MOL0     H88651   4.974   9.199   5.756 -0.3135 -1.4327 -0.8237
  657MOL0     H88652   4.974   9.032   5.788  1.6431  1.7263 -3.1884
  657MOL0     H88653   5.205   9.105   5.797  4.3943  0.9088  2.4892
  657MOL0     H88654   5.140   9.039   5.949 -3.7509 -0.8973 -1.6423
  657MOL0     H88655   5.386   9.196   5.784 -0.5166 -0.5727 -0.6118
  657MOL0     H88656   5.539   9.373   5.681  0.7453  3.3598 -0.7094
  657MOL0     H88657   5.667   9.787   5.524 -2.0013 -0.4723 -0.9683
  657MOL0     H88658   5.746   9.983   5.412 -0.9163  0.3646 -0.1749
  657MOL0     H88659   5.919  10.180   5.477  0.4239 -0.9875 -2.0219
  657MOL0     H88660   5.806  10.211   5.344 -0.1600 -2.4289  0.2765
  657MOL0     H88661   5.797  10.453   5.411 -0.3936  0.0703  0.9650
  657MOL0     H88662   5.932  10.429   5.518 -0.9580  3.8643 -1.0494
  657MOL0     H88663   5.932  10.419   5.210  2.9791 -0.7103 -2.0292
  657MOL0     H88664   6.005  10.536   5.311 -1.5306 -0.0632 -2.7147
  657MOL0     H88665   6.077  10.244   5.299 -2.9747  1.9070  0.7015
  657MOL0     H88666   6.162  10.377   5.401 -0.7814  0.2635  1.1539
  657MOL0     H88667   6.132  10.381   5.098 -1.0843 -1.1635  0.1924
  657MOL0     H88668   6.250  10.279   5.172  1.6329  0.2964  0.5008
  657MOL0     H88669   6.237  10.597   5.227 -0.4939  0.0321  0.2526
  657MOL0     H88670   6.366  10.493   5.270  0.9097  1.9104 -0.6439
  657MOL0     H88671   6.263  10.519   4.983 -1.4667 -1.0409  1.1021
  657MOL0     H88672   6.412  10.436   5.030 -2.7895 -2.9050  1.7973
  657MOL0     H88673   6.462  10.659   4.939  1.0419 -0.9144  0.1772
  657MOL0     H88674   6.351  10.725   5.075 -0.5446 -0.5683  1.9649
  657MOL0     H88675   5.573  10.227   5.727 -1.0148 -1.0075  2.7130
  657MOL0     H88676   5.481  10.035   5.826 -0.9912 -1.9769  0.2286
  657MOL0     H88677   5.340   9.677   5.909 -2.1886 -0.3220  0.4417
  657MOL0     H88678   5.179   9.503   6.002 -2.1867  1.2076 -1.9185
  657MOL0     H88679   3.403   9.521   6.461  3.0534 -1.5318  0.3960
  657MOL0     H88680   3.229   9.584   6.635 -1.5755  2.8067 -2.5216
  657MOL0     H88681   3.269   9.986   6.997  0.3721  0.0692  1.1291
  657MOL0     H88682   3.133  10.059   7.190  0.0037  0.0365 -0.5625
  657MOL0     H88683   2.739  10.049   7.179 -0.5425  1.6804  0.2591
  657MOL0     H88684   2.841  10.151   7.280 -0.0789  0.4886 -1.9683
  657MOL0     H88685   2.757  10.072   7.480 -0.7015  0.1476 -0.1875
  657MOL0     H88686   2.697   9.919   7.403  1.1724 -0.7080 -2.5729
  657MOL0     H88687   2.522  10.054   7.293 -0.9159  1.6606  0.3952
  657MOL0     H88688   2.578  10.200   7.373  0.1775 -0.1853 -1.4498
  657MOL0     H88689   2.454   9.971   7.537 -2.0957  1.2450  2.1119
  657MOL0     H88690   2.536  10.103   7.600 -0.3678 -0.1835 -0.4246
  657MOL0     H88691   2.137  10.214   7.444 -0.7945 -0.4198 -0.0760
  657MOL0     H88692   2.822   9.787   7.089 -0.7182 -0.6714 -1.9678
  657MOL0     H88693   2.845   9.760   6.791 -2.4162  0.2067  1.6197
  657MOL0     H88694   2.988   9.651   6.814  1.4089  1.6193  0.5711
  657MOL0     H88695   2.848   9.635   6.920  1.0691 -0.9458 -0.4988
  658MOL0     O88696   3.420   8.479   0.992  0.3588 -0.6774  0.0621
  658MOL0     C88697   3.470   8.399   1.075  0.7499 -0.0052  0.1857
  658MOL0     O88698   3.590   8.341   1.067  0.1343 -0.2333 -0.2893
  658MOL0     C88699   3.673   8.372   0.967  0.6979  0.1880  0.0392
  658MOL0     C88700   3.689   8.279   0.863 -0.4397  0.7428 -0.5874
  658MOL0     C88701   3.780   8.306   0.761 -0.0993  0.1549 -1.1776
  658MOL0     C88702   3.854   8.428   0.759 -0.5637 -0.3897  0.5982
  658MOL0     O88703   3.922   8.467   0.646 -0.0493 -0.4668 -0.6830
  658MOL0     C88704   4.043   8.555   0.656 -0.8868  0.0395 -0.0464
  658MOL0     C88705   4.074   8.604   0.518 -0.5422  0.3194  0.3364
  658MOL0     C88706   4.202   8.680   0.498  0.0653 -1.1746  0.0727
  658MOL0     C88707   4.236   8.704   0.350  0.1261 -0.2966 -0.0805
  658MOL0     C88708   4.368   8.785   0.342  0.0231  0.5010  0.3850
  658MOL0     C88709   4.371   8.916   0.425 -0.4084  0.4983 -0.3716
  658MOL0     C88710   4.276   9.018   0.365 -0.1164  1.2742 -0.2226
  658MOL0     C88711   4.222   9.120   0.471  0.2373  0.5033 -0.4066
  658MOL0     N88712   4.340   9.194   0.516 -0.3794 -0.1246 -0.0730
  658MOL0     C88713   4.397   9.300   0.443 -0.4574 -0.7272  0.2313
  658MOL0     C88714   4.483   9.359   0.524  0.3326 -0.2712  0.3989
  658MOL0     C88715   4.568   9.486   0.496 -0.4984  1.0134  0.6580
  658MOL0     C88716   4.716   9.465   0.512  0.4810  0.6412  0.3568
  658MOL0     C88717   4.781   9.584   0.441  0.6942 -0.0655  0.2338
  658MOL0     C88718   4.824   9.699   0.534 -0.6305  0.4191  1.5576
  658MOL0     O88719   4.857   9.817   0.460  0.5781 -0.1504 -0.0522
  658MOL0     C88720   4.987   9.860   0.452  0.4845 -0.5334  0.4906
  658MOL0     C88721   5.019   9.998   0.416  0.1163 -0.5797  0.4976
  658MOL0     C88722   5.142  10.047   0.421 -0.3702  0.0711 -0.6098
  658MOL0     C88723   5.255   9.968   0.454 -0.0323  0.5321 -0.4560
  658MOL0     C88724   5.395  10.014   0.452 -0.1316 -0.6480 -0.6533
  658MOL0     O88725   5.414  10.150   0.437 -0.2432  1.0661  0.2888
  658MOL0     C88726   5.538  10.210   0.447  0.1396 -0.0176  0.1491
  658MOL0     C88727   5.555  10.336   0.377 -1.3800  0.1575 -0.3648
  658MOL0     C88728   5.671  10.400   0.388 -0.4094 -0.1542  0.5867
  658MOL0     C88729   5.782  10.350   0.452 -0.4025 -0.1765 -0.1970
  658MOL0     O88730   5.892  10.437   0.462  0.6226  0.1429 -0.2340
  658MOL0     C88731   6.016  10.371   0.457  0.4756  0.8602  0.1214
  658MOL0     C88732   6.115  10.472   0.404  0.1554 -0.2491  0.5725
  658MOL0     C88733   6.133  10.601   0.501  0.2987 -0.0444  0.6474
  658MOL0     C88734   6.143  10.726   0.410 -0.2699 -0.1209 -0.3732
  658MOL0     C88735   6.140  10.851   0.504  0.6455 -0.7861  0.0402
  658MOL0     C88736   6.075  10.969   0.433 -0.0872  0.0300  0.2857
  658MOL0     C88737   6.048  11.081   0.532  0.7734 -0.3884  0.1145
  658MOL0     C88738   6.001  11.202   0.456 -0.4943  0.0328  0.1400
  658MOL0    Cl88739   5.975  11.334   0.564 -0.0523 -0.1999  0.3022
  658MOL0     C88740   5.767  10.236   0.527  0.0266 -0.1366  0.1913
  658MOL0     C88741   5.649  10.163   0.517  0.1149  0.3023  0.5583
  658MOL0     O88742   5.484   9.935   0.451 -0.2919  0.1429 -0.3570
  658MOL0     C88743   5.234   9.835   0.488 -0.2758 -0.7987  1.2361
  658MOL0     C88744   5.101   9.779   0.473 -0.8144 -0.0453  0.3297
  658MOL0     N88745   4.469   9.291   0.649 -0.7365 -0.1586 -0.7046
  658MOL0     N88746   4.404   9.189   0.639 -0.3187  0.1099 -0.4772
  658MOL0     C88747   3.843   8.510   0.874  0.1417 -0.4467  0.0243
  658MOL0     C88748   3.753   8.479   0.977  0.1421  0.5095  1.0046
  658MOL0     C88749   3.399   8.356   1.192 -0.7846  0.2766 -1.1293
  658MOL0     C88750   3.467   8.290   1.300 -0.1382 -0.7810  0.9571
  658MOL0     C88751   3.403   8.224   1.393  0.2199  0.7995 -1.3577
  658MOL0     C88752   3.262   8.235   1.410  0.2740 -1.1227  0.0064
  658MOL0     O88753   3.183   8.205   1.525 -0.3102  0.0326 -0.0142
  658MOL0     C88754   3.242   8.103   1.608  0.3198  0.3676  0.0720
  658MOL0     C88755   3.234   7.961   1.543  0.0752 -0.2110 -0.2926
  658MOL0     C88756   3.310   7.850   1.614  0.3829 -0.0240  0.2598
  658MOL0     C88757   3.300   7.844   1.770 -0.1016 -0.0642 -0.4233
  658MOL0     C88758   3.177   7.788   1.822 -0.2823 -0.3016 -0.0176
  658MOL0     C88759   3.067   7.746   1.849  0.6912  0.2964 -0.8704
  658MOL0     C88760   3.191   8.308   1.312 -0.6878  0.2204 -0.5286
  658MOL0     C88761   3.252   8.350   1.199 -0.4255 -0.0435 -0.7554
  658MOL0     C88762   3.155   8.405   1.097  0.1536 -0.1599  1.6731
  658MOL0     H88763   3.636   8.186   0.877  1.3242  0.0146  1.8421
  658MOL0     H88764   3.795   8.230   0.685  2.1889 -0.1748 -0.4536
  658MOL0     H88765   4.025   8.639   0.724 -1.3838 -0.8665  0.9693
  658MOL0     H88766   4.122   8.499   0.705 -0.3635  1.4186  0.7532
  658MOL0     H88767   3.982   8.656   0.493 -0.2062  0.0046 -1.7091
  658MOL0     H88768   4.081   8.514   0.456 -1.9649 -1.6928  2.8796
  658MOL0     H88769   4.282   8.633   0.557  0.1849 -2.4155 -1.0381
  658MOL0     H88770   4.175   8.775   0.546 -0.1483 -0.7081 -0.9459
  658MOL0     H88771   4.247   8.609   0.296 -0.2636 -0.0369 -0.6286
  658MOL0     H88772   4.149   8.762   0.317  0.3437  1.9285  2.8362
  658MOL0     H88773   4.459   8.730   0.364  0.0864  0.5897  0.3427
  658MOL0     H88774   4.378   8.813   0.236  0.0577 -1.0556 -0.0491
  658MOL0     H88775   4.355   8.892   0.531  0.7439  0.7496 -0.1256
  658MOL0     H88776   4.467   8.967   0.429  0.0375 -0.3688  0.1609
  658MOL0     H88777   4.193   8.961   0.321 -0.8644  1.4653  0.9010
  658MOL0     H88778   4.323   9.078   0.287  2.9530 -0.4225  0.1706
  658MOL0     H88779   4.138   9.181   0.436 -1.8446 -2.0014 -0.0830
  658MOL0     H88780   4.188   9.055   0.552  1.9412 -1.9242 -1.5037
  658MOL0     H88781   4.367   9.332   0.343  2.8840  0.0983 -0.6129
  658MOL0     H88782   4.542   9.508   0.392  0.5123  1.3238  0.4583
  658MOL0     H88783   4.534   9.566   0.562 -2.7125 -0.3458  1.2926
  658MOL0     H88784   4.752   9.466   0.615  2.5372  1.2526 -0.3192
  658MOL0     H88785   4.752   9.374   0.461 -1.5785  0.1033 -0.2217
  658MOL0     H88786   4.715   9.622   0.364  0.3363 -1.3304 -0.1109
  658MOL0     H88787   4.872   9.544   0.395 -0.1306  2.2540 -3.8603
  658MOL0     H88788   4.903   9.660   0.599 -0.7220 -0.9430  0.8765
  658MOL0     H88789   4.744   9.730   0.602  0.0444  1.1416  2.0437
  658MOL0     H88790   4.937  10.054   0.372 -0.2938 -1.7597 -0.3074
  658MOL0     H88791   5.161  10.152   0.400  1.0787 -0.1373 -0.4290
  658MOL0     H88792   5.467  10.370   0.322 -1.7396 -1.2650 -0.7089
  658MOL0     H88793   5.673  10.497   0.339 -3.0942 -0.3357  0.0066
  658MOL0     H88794   6.044  10.330   0.555  2.7237 -2.1673 -1.6332
  658MOL0     H88795   6.003  10.291   0.384 -1.6813  0.7090  0.6041
  658MOL0     H88796   6.210  10.422   0.381 -0.9406 -1.6880 -1.0235
  658MOL0     H88797   6.068  10.506   0.311 -0.8805  2.1261  1.8791
  658MOL0     H88798   6.046  10.607   0.567 -1.0596  0.4319 -1.1161
  658MOL0     H88799   6.228  10.590   0.554  1.4421  2.8533 -0.6237
  658MOL0     H88800   6.051  10.720   0.350 -0.4550 -3.5525  0.0587
  658MOL0     H88801   6.232  10.731   0.347  0.4890  0.7816  0.7256
  658MOL0     H88802   6.242  10.885   0.527  0.3551  0.5465 -0.5512
  658MOL0     H88803   6.091  10.833   0.600 -2.9136 -0.9065 -1.6174
  658MOL0     H88804   6.150  11.002   0.361 -0.4169  2.3209  0.9171
  658MOL0     H88805   5.983  10.938   0.382  1.1383 -3.7278  0.0630
  658MOL0     H88806   6.138  11.105   0.589  0.2360  0.9040  0.4465
  658MOL0     H88807   5.973  11.061   0.608  0.7910  1.7815  0.7569
  658MOL0     H88808   6.068  11.233   0.375  0.3227  2.3060  1.5838
  658MOL0     H88809   5.903  11.180   0.413  0.4649 -0.4868 -1.8916
  658MOL0     H88810   5.844  10.199   0.593  2.3264  0.4732 -2.0075
  658MOL0     H88811   5.636  10.069   0.570 -0.9933 -0.3737 -0.8397
  658MOL0     H88812   5.314   9.769   0.520  0.0808 -0.0291  1.9851
  658MOL0     H88813   5.085   9.671   0.469  2.9703 -0.6991 -1.7863
  658MOL0     H88814   3.887   8.606   0.896  1.5264 -1.4355  1.8843
  658MOL0     H88815   3.732   8.541   1.063 -2.0690  0.9298  0.2177
  658MOL0     H88816   3.575   8.289   1.314 -0.0066  1.1159  0.4004
  658MOL0     H88817   3.451   8.172   1.475 -2.4652  1.7490  0.9860
  658MOL0     H88818   3.184   8.099   1.701  0.4489 -2.2354  0.1026
  658MOL0     H88819   3.349   8.122   1.625  0.6657  1.2065 -2.5569
  658MOL0     H88820   3.266   7.955   1.439  0.8944 -1.1077 -0.0073
  658MOL0     H88821   3.126   7.942   1.545  0.5030 -3.6024 -2.3129
  658MOL0     H88822   3.414   7.870   1.587  0.2247 -1.9949 -2.2396
  658MOL0     H88823   3.271   7.754   1.577  0.6160 -0.9815  2.3288
  658MOL0     H88824   3.382   7.779   1.802  1.8017  2.3361 -0.1580
  658MOL0     H88825   3.325   7.942   1.812 -1.4753  0.2702 -0.3235
  658MOL0     H88826   2.982   7.694   1.890 -0.3814  2.2649 -0.4577
  658MOL0     H88827   3.083   8.308   1.321 -0.6026  2.1984  1.1149
  658MOL0     H88828   3.191   8.505   1.069 -0.2914 -0.3421  0.3502
  658MOL0     H88829   3.150   8.339   1.010 -1.8086 -0.0213  1.6240
  658MOL0     H88830   3.055   8.411   1.141 -0.2245  0.8146  0.7333
  659MOL0     O88831   3.281   5.940   8.292  0.0221 -0.8153 -0.1845
  659MOL0     C88832   3.234   6.045   8.262  0.2176 -0.1434  0.0256
  659MOL0     O88833   3.304   6.159   8.228  0.0822 -0.5145  0.0105
  659MOL0     C88834   3.436   6.141   8.206 -0.2915 -0.2080 -1.0060
  659MOL0     C88835   3.475   6.068   8.096 -0.5942  0.4894  0.2149
  659MOL0     C88836   3.614   6.058   8.062  0.0106 -0.4076  0.8046
  659MOL0     C88837   3.706   6.121   8.145 -0.0945  0.5376 -1.2600
  659MOL0     O88838   3.841   6.105   8.117 -0.6742  0.3337 -0.4389
  659MOL0     C88839   3.947   6.133   8.218 -0.6175  0.8027 -0.0973
  659MOL0     C88840   4.080   6.104   8.156 -0.5313  0.3217  0.3977
  659MOL0     C88841   4.192   6.097   8.260 -0.1015  0.9110  0.0841
  659MOL0     C88842   4.324   6.090   8.185  0.3951 -0.2258 -0.3151
  659MOL0     C88843   4.440   6.044   8.273  0.1013  0.4574 -1.1646
  659MOL0     C88844   4.586   6.054   8.199 -0.6026 -0.0867 -0.9143
  659MOL0     C88845   4.702   6.013   8.290 -0.3646  0.6360  0.5032
  659MOL0     C88846   4.827   6.057   8.223 -0.1352 -1.1117  0.6069
  659MOL0     N88847   4.949   5.999   8.286  0.6843 -0.4634  0.0933
  659MOL0     C88848   5.004   5.881   8.247 -0.1306 -0.0120  0.5067
  659MOL0     C88849   5.094   5.847   8.349 -0.1824  0.3174 -0.3836
  659MOL0     C88850   5.185   5.726   8.371  0.9694  0.1423 -0.0868
  659MOL0     C88851   5.330   5.766   8.337  0.3820 -0.4197  0.1431
  659MOL0     C88852   5.403   5.840   8.456 -0.9347 -0.4958 -0.4604
  659MOL0     C88853   5.553   5.826   8.441 -0.0934  0.0209 -0.1975
  659MOL0     O88854   5.631   5.908   8.522 -0.2859 -1.5408 -0.5900
  659MOL0     C88855   5.768   5.913   8.512  0.1868 -0.4764  0.6774
  659MOL0     C88856   5.824   6.033   8.555  0.0477  0.1669 -0.4595
  659MOL0     C88857   5.954   6.060   8.533 -0.6982  1.2764  0.4653
  659MOL0     C88858   6.034   5.958   8.463 -0.0888 -0.9877 -0.0898
  659MOL0     C88859   6.172   5.992   8.442  0.1373 -0.1550  0.1562
  659MOL0     O88860   6.241   6.075   8.532  0.4727  0.7431 -0.0495
  659MOL0     C88861   6.373   6.116   8.501 -0.2010 -0.5222  0.4494
  659MOL0     C88862   6.394   6.205   8.393 -0.5902 -0.1203  0.8334
  659MOL0     C88863   6.525   6.241   8.349 -0.4858 -0.3546 -1.0982
  659MOL0     C88864   6.632   6.187   8.423  0.0997  0.2385  0.0667
  659MOL0     O88865   6.762   6.207   8.397 -0.3611 -0.3479 -0.2842
  659MOL0     C88866   6.796   6.323   8.317 -0.0844 -0.0365  0.2328
  659MOL0     C88867   6.950   6.355   8.320  0.3497 -0.4697  0.5243
  659MOL0     C88868   7.043   6.240   8.272 -0.1409  0.2840  0.1072
  659MOL0     C88869   7.059   6.132   8.376  0.3159  1.0009  0.0110
  659MOL0     C88870   7.159   6.026   8.320 -0.3290  0.0141 -0.5094
  659MOL0     C88871   7.184   5.929   8.436  0.9673 -0.5790  0.0374
  659MOL0     C88872   7.280   5.810   8.399 -0.3018 -0.6230  0.6440
  659MOL0     C88873   7.310   5.713   8.512 -0.0662  0.1025  0.1648
  659MOL0    Cl88874   7.172   5.599   8.544  0.3930 -0.0669  0.2589
  659MOL0     C88875   6.617   6.106   8.533 -0.3069  0.7227  0.9836
  659MOL0     C88876   6.487   6.075   8.567  0.5685  0.3800  0.2278
  659MOL0     O88877   6.225   5.938   8.350  0.1462  0.5772 -0.1859
  659MOL0     C88878   5.973   5.845   8.410  0.0070 -0.1079 -0.3055
  659MOL0     C88879   5.841   5.819   8.430  0.4814  0.6813 -0.5233
  659MOL0     N88880   5.105   5.963   8.434 -0.6441 -0.7710  0.4200
  659MOL0     N88881   5.020   6.057   8.393 -0.8868 -0.0348 -0.0955
  659MOL0     C88882   3.658   6.179   8.264  0.7557  0.5136 -0.6978
  659MOL0     C88883   3.524   6.196   8.297 -0.3212  0.3064  0.3963
  659MOL0     C88884   3.084   6.060   8.257  0.5482 -0.9408 -0.0454
  659MOL0     C88885   3.027   6.156   8.159  0.6925  0.3491 -0.0266
  659MOL0     C88886   2.886   6.154   8.156  0.3019  0.1299  0.6413
  659MOL0     C88887   2.803   6.065   8.231  0.0779 -1.4488  0.6995
  659MOL0     O88888   2.670   6.081   8.204  0.1003  0.3414  0.0218
  659MOL0     C88889   2.580   5.979   8.235 -0.5042 -1.1480 -0.2592
  659MOL0     C88890   2.456   6.014   8.156 -0.3990 -0.3092 -0.3457
  659MOL0     C88891   2.334   5.931   8.187 -0.4072  0.5500  0.0726
  659MOL0     C88892   2.326   5.789   8.105 -0.0242 -0.3506  0.2953
  659MOL0     C88893   2.267   5.814   7.969 -0.8398  0.6047 -0.0582
  659MOL0     C88894   2.227   5.846   7.854 -0.2212  0.2262 -1.0093
  659MOL0     C88895   2.860   5.976   8.312 -0.2021  0.4134 -0.8851
  659MOL0     C88896   2.999   5.967   8.328 -0.2535  0.5598  0.0266
  659MOL0     C88897   3.055   5.855   8.414  0.4521 -0.1480  0.4183
  659MOL0     H88898   3.396   6.025   8.036 -1.4641 -0.7472  2.1543
  659MOL0     H88899   3.647   6.010   7.971 -1.1170  0.7302 -0.2472
  659MOL0     H88900   3.943   6.240   8.239 -0.9181  1.0604 -1.3815
  659MOL0     H88901   3.929   6.066   8.303  0.5366  1.1042  0.3993
  659MOL0     H88902   4.100   6.184   8.084  3.1974 -0.4753  0.3844
  659MOL0     H88903   4.077   6.008   8.105 -1.9356  1.6250 -2.1964
  659MOL0     H88904   4.192   6.004   8.318  2.4546 -0.7873 -2.3475
  659MOL0     H88905   4.183   6.176   8.334  4.7360 -0.7977  2.9743
  659MOL0     H88906   4.320   6.027   8.095 -3.6158 -0.9852  0.2176
  659MOL0     H88907   4.342   6.191   8.148  3.0077 -0.7034 -0.5562
  659MOL0     H88908   4.439   6.091   8.372 -2.0552  0.1585 -1.0128
  659MOL0     H88909   4.426   5.938   8.297 -1.1652  0.5669 -1.3548
  659MOL0     H88910   4.575   5.988   8.113 -1.0671  1.5739 -2.1764
  659MOL0     H88911   4.601   6.161   8.178  0.0598  0.0308  0.0898
  659MOL0     H88912   4.702   5.904   8.302  1.2178  0.6645  1.0796
  659MOL0     H88913   4.701   6.066   8.386  2.2460  4.6075 -1.3815
  659MOL0     H88914   4.817   6.038   8.116 -2.3843 -0.1763  0.5917
  659MOL0     H88915   4.829   6.166   8.232  0.7448 -1.1544  0.9533
  659MOL0     H88916   4.968   5.808   8.176  0.9311 -0.0923  0.0428
  659MOL0     H88917   5.186   5.692   8.475  0.9988  0.6780  0.0873
  659MOL0     H88918   5.163   5.641   8.305  0.5618  1.7889 -2.1873
  659MOL0     H88919   5.381   5.670   8.323  0.4217 -0.2902 -0.6918
  659MOL0     H88920   5.342   5.821   8.243  1.4142  0.1092  0.5710
  659MOL0     H88921   5.381   5.797   8.554  1.4983  0.6445  0.6882
  659MOL0     H88922   5.385   5.947   8.447  0.2503 -0.3458 -1.4130
  659MOL0     H88923   5.576   5.838   8.334  0.3286 -0.4069 -0.1568
  659MOL0     H88924   5.571   5.719   8.460  1.7458 -0.1414 -2.4134
  659MOL0     H88925   5.772   6.117   8.602  0.5232  0.4537 -0.4350
  659MOL0     H88926   5.997   6.151   8.575  3.2222 -0.6510  1.1037
  659MOL0     H88927   6.306   6.231   8.335 -0.5660 -0.9887  0.3795
  659MOL0     H88928   6.537   6.315   8.271  1.5850  1.9468  1.2053
  659MOL0     H88929   6.766   6.306   8.213  1.6705 -0.0070 -0.3153
  659MOL0     H88930   6.746   6.411   8.361  0.3047  1.2938 -1.8448
  659MOL0     H88931   6.960   6.440   8.252  0.6135  0.3368  1.5566
  659MOL0     H88932   6.970   6.389   8.422  2.4185  1.2335 -0.3729
  659MOL0     H88933   6.997   6.197   8.183  1.8043 -1.2502 -0.2343
  659MOL0     H88934   7.142   6.279   8.245  0.0531  1.0937  1.8395
  659MOL0     H88935   6.960   6.087   8.387 -0.2331  1.8021 -1.4260
  659MOL0     H88936   7.091   6.170   8.473 -1.6009 -0.3413  1.2438
  659MOL0     H88937   7.249   6.087   8.311  1.0369 -0.6758  4.8215
  659MOL0     H88938   7.136   5.981   8.223  1.3154  0.0174 -0.9369
  659MOL0     H88939   7.229   5.969   8.528  1.3324 -3.0787  1.0108
  659MOL0     H88940   7.089   5.881   8.460  0.3491  0.9485  0.8394
  659MOL0     H88941   7.375   5.860   8.380  0.5913 -2.0707  1.1313
  659MOL0     H88942   7.247   5.752   8.312  3.1815 -3.5024  1.0180
  659MOL0     H88943   7.396   5.653   8.483  1.5010  1.1268  2.4042
  659MOL0     H88944   7.339   5.772   8.600 -0.4447  1.5670 -0.6654
  659MOL0     H88945   6.704   6.058   8.577 -0.2678 -1.4463 -1.2653
  659MOL0     H88946   6.469   6.005   8.648 -2.2982  0.8792  0.1208
  659MOL0     H88947   6.039   5.772   8.364  0.4224  0.1628 -0.1424
  659MOL0     H88948   5.798   5.735   8.377  3.0701 -1.8775  1.1375
  659MOL0     H88949   3.732   6.222   8.331  1.2822  0.1886 -1.0652
  659MOL0     H88950   3.486   6.243   8.387  1.7247  0.9753  0.9556
  659MOL0     H88951   3.082   6.226   8.097 -1.0195  1.1651 -0.6739
  659MOL0     H88952   2.821   6.212   8.091 -0.9683  0.4377  2.1360
  659MOL0     H88953   2.560   5.976   8.342 -1.3971  1.3884 -0.2870
  659MOL0     H88954   2.612   5.876   8.213 -3.0165 -2.7786  2.8829
  659MOL0     H88955   2.487   6.008   8.051  1.4979  2.5923 -0.0760
  659MOL0     H88956   2.429   6.118   8.181 -0.4528 -0.1459 -1.0563
  659MOL0     H88957   2.245   5.991   8.164 -0.3137  0.0151 -1.8417
  659MOL0     H88958   2.336   5.908   8.294 -0.0482  2.3850  0.5009
  659MOL0     H88959   2.422   5.741   8.087  0.0995  0.2775 -0.7887
  659MOL0     H88960   2.262   5.719   8.159  2.0441 -1.2562  1.6785
  659MOL0     H88961   2.196   5.876   7.756 -1.5482  0.5527 -0.5157
  659MOL0     H88962   2.806   5.896   8.360  1.9751 -0.8899 -0.4480
  659MOL0     H88963   3.103   5.780   8.350 -3.4389 -1.3340 -1.3812
  659MOL0     H88964   3.139   5.887   8.477  1.3463  2.0644 -1.7524
  659MOL0     H88965   2.979   5.793   8.463  3.8568 -3.1414  2.4612
  660MOL0     O88966   8.443   0.965   0.135 -0.5877 -0.2417 -0.0904
  660MOL0     C88967   8.488   0.857   0.090 -0.0396 -0.9931 -0.1900
  660MOL0     O88968   8.609   0.808   0.124  0.3216 -0.8451  0.4546
  660MOL0     C88969   8.695   0.882   0.203 -0.0748  0.5216  0.8901
  660MOL0     C88970   8.803   0.956   0.142  1.1027 -0.3072 -1.3055
  660MOL0     C88971   8.898   1.016   0.229 -0.9355  0.2105 -0.1217
  660MOL0     C88972   8.892   0.994   0.369 -0.5077  0.0022  0.9345
  660MOL0     O88973   9.009   1.031   0.439  0.1921  0.5729 -0.5525
  660MOL0     C88974   9.126   0.955   0.407  0.8176 -0.0690 -0.3435
  660MOL0     C88975   9.244   1.053   0.368  0.2558  0.3600  0.0282
  660MOL0     C88976   9.289   1.163   0.472  0.2368 -0.9253 -0.2687
  660MOL0     C88977   9.182   1.268   0.482  0.3998 -0.7718 -0.3987
  660MOL0     C88978   9.239   1.406   0.499  0.3458  0.0803 -0.6017
  660MOL0     C88979   9.139   1.509   0.537 -0.2092 -0.4768 -0.2288
  660MOL0     C88980   9.190   1.658   0.553  0.2734  0.6006 -0.4020
  660MOL0     C88981   9.081   1.758   0.537  0.1645 -0.4957  0.6186
  660MOL0     N88982   9.047   1.783   0.394 -0.3609 -0.0933 -0.2948
  660MOL0     C88983   8.981   1.894   0.354 -0.2477  0.0632 -0.2980
  660MOL0     C88984   9.025   1.916   0.227 -0.2776 -0.1338 -0.3762
  660MOL0     C88985   8.964   2.009   0.136  0.9789  0.2115  1.1125
  660MOL0     C88986   9.020   2.139   0.166 -0.3837  0.0089 -0.8481
  660MOL0     C88987   8.958   2.244   0.076 -0.0468  0.1068  0.1623
  660MOL0     C88988   9.034   2.381   0.082 -1.1863  0.0955 -0.3855
  660MOL0     O88989   9.046   2.421   0.218 -0.3067  0.4932  0.5070
  660MOL0     C88990   9.143   2.517   0.254  1.0775 -0.2987  0.8206
  660MOL0     C88991   9.219   2.578   0.153 -0.7171  0.4561  0.1073
  660MOL0     C88992   9.338   2.639   0.198  0.7704 -0.6388 -0.6655
  660MOL0     C88993   9.373   2.641   0.335  0.0782 -0.3933  0.1076
  660MOL0     C88994   9.488   2.714   0.393 -1.0271 -0.3763  0.3426
  660MOL0     O88995   9.505   2.733   0.528  0.1332 -0.9011  0.7079
  660MOL0     C88996   9.591   2.816   0.596  0.2441 -0.4047  0.7198
  660MOL0     C88997   9.623   2.948   0.542  0.4807 -0.2864  0.4021
  660MOL0     C88998   9.712   3.035   0.610 -0.1114 -0.2624  0.5510
  660MOL0     C88999   9.777   2.999   0.726  0.0080  0.0797 -0.9470
  660MOL0     O89000   9.866   3.085   0.787  0.0488 -0.2910  0.2486
  660MOL0     C89001   9.986   3.033   0.838 -0.5582 -0.2931 -0.7242
  660MOL0     C89002  10.070   3.167   0.856  0.2427  0.0077  0.5271
  660MOL0     C89003  10.205   3.146   0.914 -0.6225  0.3217 -0.9051
  660MOL0     C89004  10.309   3.113   0.808 -0.1735 -0.0004  0.5784
  660MOL0     C89005  10.431   3.050   0.867 -0.0409 -0.1436  0.0260
  660MOL0     C89006  10.497   3.143   0.986  0.2349 -0.0697 -0.4171
  660MOL0     C89007  10.548   3.285   0.927  0.6606 -0.2609  0.5792
  660MOL0     C89008  10.526   3.399   1.023  0.9895 -0.2229  0.7578
  660MOL0    Cl89009  10.619   3.358   1.165  0.0280 -0.5561  0.4565
  660MOL0     C89010   9.748   2.869   0.775 -1.5292 -0.3401 -0.2163
  660MOL0     C89011   9.656   2.778   0.715  1.1056 -1.0144 -0.8464
  660MOL0     O89012   9.554   2.773   0.304 -0.1208 -1.0747 -0.4973
  660MOL0     C89013   9.292   2.575   0.425  0.0648 -0.2850 -0.0246
  660MOL0     C89014   9.182   2.511   0.388  0.8575  0.1505  0.2306
  660MOL0     N89015   9.106   1.822   0.183  0.0240  0.7523 -0.3552
  660MOL0     N89016   9.124   1.742   0.282 -0.5084 -1.1376 -0.2359
  660MOL0     C89017   8.781   0.923   0.425 -0.6774 -0.5530  0.1863
  660MOL0     C89018   8.689   0.864   0.341  0.0999 -0.4963 -0.0270
  660MOL0     C89019   8.408   0.776  -0.001  0.0491 -0.4223  0.4007
  660MOL0     C89020   8.436   0.640  -0.003 -0.2385  0.2158  0.7124
  660MOL0     C89021   8.372   0.566  -0.101  1.3460  0.0728 -0.3040
  660MOL0     C89022   8.274   0.618  -0.184  0.7057 -0.0379  0.6840
  660MOL0     O89023   8.213   0.551  -0.291  0.0060 -0.6696 -0.4580
  660MOL0     C89024   8.231   0.408  -0.302  0.5800  0.8190 -0.6242
  660MOL0     C89025   8.101   0.348  -0.352 -0.0964  0.1669  0.6407
  660MOL0     C89026   8.076   0.362  -0.506 -0.1586 -0.8133  0.4952
  660MOL0     C89027   7.956   0.288  -0.573 -0.0828 -0.8172  0.7855
  660MOL0     C89028   7.986   0.147  -0.588 -0.1627  0.8250 -0.3142
  660MOL0     C89029   7.998   0.023  -0.613  1.0268  0.6864  0.0012
  660MOL0     C89030   8.241   0.751  -0.167 -0.4266  0.6046 -0.1518
  660MOL0     C89031   8.301   0.828  -0.071  0.2534  0.8055 -0.3381
  660MOL0     C89032   8.261   0.976  -0.071  1.2705 -0.1516  0.3717
  660MOL0     H89033   8.814   0.986   0.039  3.4922  2.2612 -0.4428
  660MOL0     H89034   8.979   1.082   0.200  0.6270 -0.9283  1.4213
  660MOL0     H89035   9.154   0.898   0.496 -0.3549  0.5820  0.4743
  660MOL0     H89036   9.105   0.885   0.326 -1.5833  1.4967 -1.1899
  660MOL0     H89037   9.223   1.099   0.270 -1.8401 -3.3500 -1.4946
  660MOL0     H89038   9.332   0.988   0.361 -0.9014 -1.4646  1.3918
  660MOL0     H89039   9.387   1.208   0.456 -0.5619  2.4109  2.9134
  660MOL0     H89040   9.315   1.132   0.574  0.1312 -1.3052 -0.3561
  660MOL0     H89041   9.124   1.276   0.390 -0.5776 -0.7906  0.1995
  660MOL0     H89042   9.111   1.246   0.562  1.5264 -0.6120  0.6789
  660MOL0     H89043   9.319   1.404   0.573 -0.0103 -4.5604 -0.0698
  660MOL0     H89044   9.282   1.437   0.403 -0.7140 -1.1992 -1.5286
  660MOL0     H89045   9.056   1.509   0.466 -0.3910 -1.7169 -0.0385
  660MOL0     H89046   9.091   1.485   0.632 -2.2523  1.2722 -0.7239
  660MOL0     H89047   9.264   1.679   0.476  1.3400  1.6295  0.8600
  660MOL0     H89048   9.246   1.672   0.646 -1.1563 -2.7840  1.1297
  660MOL0     H89049   8.991   1.735   0.595 -1.3618  3.4982  0.1813
  660MOL0     H89050   9.123   1.850   0.577 -1.2621  0.3993  0.1138
  660MOL0     H89051   8.904   1.955   0.401  0.2183 -0.3865  1.1235
  660MOL0     H89052   8.990   1.975   0.035 -0.4865 -0.9444  1.0838
  660MOL0     H89053   8.856   2.010   0.152  0.7882 -1.8938  0.2990
  660MOL0     H89054   9.004   2.166   0.271  3.5581 -0.0343 -0.0759
  660MOL0     H89055   9.126   2.119   0.149 -0.8444 -2.8182 -0.8310
  660MOL0     H89056   8.854   2.259   0.107 -0.5924  1.1127 -1.9800
  660MOL0     H89057   8.970   2.220  -0.030  0.4349  1.8261 -0.2070
  660MOL0     H89058   8.981   2.452   0.017 -1.4156 -1.6503 -2.2133
  660MOL0     H89059   9.133   2.356   0.042 -0.6722 -0.9814  1.4685
  660MOL0     H89060   9.183   2.591   0.052 -1.0792  1.2447  0.3317
  660MOL0     H89061   9.388   2.685   0.114  0.3984  0.3368 -0.3610
  660MOL0     H89062   9.570   2.986   0.456 -2.5610 -1.9053  1.3848
  660MOL0     H89063   9.733   3.138   0.583 -0.1508 -0.3632  0.1320
  660MOL0     H89064   9.975   2.976   0.931  1.1816 -0.0792 -0.3584
  660MOL0     H89065  10.037   2.970   0.765 -1.8067 -1.4840 -0.6109
  660MOL0     H89066  10.075   3.217   0.758 -0.6855 -0.0011  0.4630
  660MOL0     H89067  10.014   3.235   0.920  2.1052  0.0450  2.1974
  660MOL0     H89068  10.233   3.238   0.968  0.4214 -0.9475  0.8178
  660MOL0     H89069  10.203   3.068   0.990  3.1300 -1.3837 -2.3078
  660MOL0     H89070  10.328   3.205   0.751 -3.7663  1.3834  1.3627
  660MOL0     H89071  10.268   3.040   0.738  3.2774 -3.3481  1.6962
  660MOL0     H89072  10.512   3.041   0.794 -0.5887  2.3227 -0.9934
  660MOL0     H89073  10.420   2.948   0.904  1.7697 -0.3974 -0.0377
  660MOL0     H89074  10.426   3.168   1.065 -0.5990  0.5190 -1.3268
  660MOL0     H89075  10.578   3.090   1.035 -2.5214 -3.8592  0.4538
  660MOL0     H89076  10.502   3.307   0.831  2.1805 -3.0547 -0.9231
  660MOL0     H89077  10.657   3.289   0.912  0.5165  0.2763 -0.3418
  660MOL0     H89078  10.548   3.497   0.980  0.0132 -0.8118 -1.2117
  660MOL0     H89079  10.419   3.410   1.046  0.3940 -2.0855 -0.8553
  660MOL0     H89080   9.794   2.835   0.867 -0.3438  0.5236 -0.4734
  660MOL0     H89081   9.617   2.691   0.766 -0.7615  0.4354  0.3777
  660MOL0     H89082   9.328   2.576   0.527  0.3164 -0.2182 -0.1149
  660MOL0     H89083   9.125   2.448   0.454 -0.6740  0.1032 -1.0723
  660MOL0     H89084   8.771   0.922   0.533  0.6987  2.0198  0.4213
  660MOL0     H89085   8.607   0.807   0.382  1.0592 -1.6306  0.3935
  660MOL0     H89086   8.506   0.596   0.066  1.0971 -1.2898 -1.4671
  660MOL0     H89087   8.404   0.463  -0.113  1.1733 -0.6418  3.7492
  660MOL0     H89088   8.242   0.361  -0.204 -1.7967  2.0722  0.3348
  660MOL0     H89089   8.307   0.385  -0.377  0.0115 -0.6813 -0.7843
  660MOL0     H89090   8.017   0.393  -0.298 -2.2934 -1.6024 -1.0803
  660MOL0     H89091   8.098   0.241  -0.330  2.9477 -0.4711 -1.4160
  660MOL0     H89092   8.164   0.325  -0.559  0.6442  1.8919 -0.2311
  660MOL0     H89093   8.051   0.468  -0.518 -1.0627 -1.0762 -0.0656
  660MOL0     H89094   7.866   0.301  -0.513 -1.2573 -1.0320 -0.8716
  660MOL0     H89095   7.932   0.333  -0.670 -0.8503 -1.3263  0.7371
  660MOL0     H89096   8.022  -0.079  -0.634  0.6673 -0.3585  3.9575
  660MOL0     H89097   8.173   0.794  -0.239  0.0276 -0.6816 -1.3926
  660MOL0     H89098   8.238   1.014   0.030  4.8788  0.9147  0.9311
  660MOL0     H89099   8.343   1.030  -0.119  1.2350 -1.0699 -0.7630
  660MOL0     H89100   8.180   0.997  -0.141  2.6978  2.5600 -0.6285
  661MOL0     O89101   8.320   7.604   7.899  0.0535 -0.4012 -0.0469
  661MOL0     C89102   8.336   7.561   8.012 -0.7370 -0.8058 -0.1396
  661MOL0     O89103   8.453   7.526   8.067 -0.0562 -0.5151  0.4266
  661MOL0     C89104   8.581   7.542   8.023 -0.0663  0.4162  0.2406
  661MOL0     C89105   8.681   7.509   8.121 -0.1505  0.1860 -1.0398
  661MOL0     C89106   8.813   7.532   8.087 -0.3900  0.6876 -0.1345
  661MOL0     C89107   8.846   7.586   7.966  0.2291  0.5599  0.0144
  661MOL0     O89108   8.981   7.619   7.948  0.2818  0.0738  0.8655
  661MOL0     C89109   9.041   7.628   7.818  0.7829 -0.2137  0.4681
  661MOL0     C89110   9.157   7.537   7.801 -0.2511  0.5171  0.5963
  661MOL0     C89111   9.261   7.542   7.919  0.3660 -1.1470  0.4815
  661MOL0     C89112   9.402   7.505   7.873 -0.2131 -0.3045 -0.5933
  661MOL0     C89113   9.472   7.607   7.782  0.7931  0.8498 -0.3140
  661MOL0     C89114   9.591   7.540   7.731 -0.7276 -0.0143 -0.2342
  661MOL0     C89115   9.717   7.564   7.808  0.0426  0.3503 -0.6163
  661MOL0     C89116   9.752   7.719   7.829  0.5668 -0.0722  0.0192
  661MOL0     N89117   9.892   7.760   7.813 -0.7799  1.3119  0.0797
  661MOL0     C89118   9.954   7.783   7.687  0.2844  0.2199  0.1551
  661MOL0     C89119  10.076   7.832   7.726  0.2205  0.6483  0.1268
  661MOL0     C89120  10.188   7.858   7.634  0.0092 -0.0995 -1.1442
  661MOL0     C89121  10.223   7.734   7.543  0.0397 -0.4408  0.2462
  661MOL0     C89122  10.358   7.768   7.461  0.3846 -0.1079 -0.0114
  661MOL0     C89123  10.482   7.774   7.551  0.2075  0.8129 -0.6294
  661MOL0     O89124  10.504   7.642   7.597  0.2722 -0.5389  0.4627
  661MOL0     C89125  10.622   7.581   7.554  0.8901 -0.1634 -0.0702
  661MOL0     C89126  10.631   7.557   7.420  0.1977  0.0670  0.3588
  661MOL0     C89127  10.751   7.513   7.368 -0.1260  0.7627  0.4736
  661MOL0     C89128  10.857   7.483   7.452 -0.6208  0.1164  0.8771
  661MOL0     C89129  10.980   7.429   7.393 -0.5794 -0.0440  0.4834
  661MOL0     O89130  11.077   7.383   7.478 -0.0807 -0.1268 -0.9944
  661MOL0     C89131  11.203   7.344   7.432 -0.0908 -0.1639  0.0303
  661MOL0     C89132  11.207   7.240   7.344  1.1188  0.1657  0.6212
  661MOL0     C89133  11.328   7.201   7.286 -0.5088  0.1576 -0.6737
  661MOL0     C89134  11.449   7.266   7.316 -0.8152  0.2295  0.8826
  661MOL0     O89135  11.566   7.196   7.260 -0.4571  0.0719 -0.5919
  661MOL0     C89136  11.639   7.281   7.178  0.7478 -0.4085  0.1618
  661MOL0     C89137  11.745   7.350   7.259  0.4720 -1.3719  0.2330
  661MOL0     C89138  11.872   7.413   7.188 -0.8344  0.2539 -0.0384
  661MOL0     C89139  11.943   7.493   7.302 -0.3451  0.6457 -0.4578
  661MOL0     C89140  12.058   7.577   7.243 -0.8495 -0.2560 -0.2304
  661MOL0     C89141  12.169   7.617   7.348 -0.0743 -0.2279  0.1967
  661MOL0     C89142  12.261   7.726   7.295  0.3721  0.5226 -0.3390
  661MOL0     C89143  12.371   7.750   7.399 -0.1601 -0.0232 -0.0451
  661MOL0    Cl89144  12.519   7.813   7.320  0.5703 -0.1802 -0.0969
  661MOL0     C89145  11.441   7.372   7.406  1.1720  0.9447  0.1468
  661MOL0     C89146  11.323   7.411   7.462 -0.1939  0.5829  0.6789
  661MOL0     O89147  10.992   7.443   7.272 -0.8406 -0.6077  0.0207
  661MOL0     C89148  10.845   7.504   7.593 -0.8574  1.1507  1.1883
  661MOL0     C89149  10.723   7.550   7.644 -0.5634  0.0209  0.3333
  661MOL0     N89150  10.095   7.812   7.865  0.7543  0.1301 -0.2324
  661MOL0     N89151   9.984   7.763   7.913  0.6967  0.5270  0.6720
  661MOL0     C89152   8.750   7.618   7.867  0.2661  0.4526 -0.4199
  661MOL0     C89153   8.620   7.594   7.894  0.1056  1.1781 -0.3163
  661MOL0     C89154   8.223   7.538   8.104 -0.3275  1.1024  0.7561
  661MOL0     C89155   8.243   7.498   8.234 -0.3452 -0.0828 -0.5758
  661MOL0     C89156   8.131   7.466   8.322  0.0141  0.7896 -0.3095
  661MOL0     C89157   7.998   7.471   8.274 -0.3866  0.0920  0.5575
  661MOL0     O89158   7.904   7.432   8.367  1.1540 -0.5993  0.0896
  661MOL0     C89159   7.833   7.546   8.426  0.3223 -0.5933  0.1363
  661MOL0     C89160   7.714   7.581   8.338 -0.3903 -1.2461  0.1058
  661MOL0     C89161   7.609   7.660   8.407  0.8563  0.3387 -0.0074
  661MOL0     C89162   7.516   7.595   8.511  0.0333 -0.2952 -0.5448
  661MOL0     C89163   7.465   7.469   8.472  0.2251  0.1141 -0.0566
  661MOL0     C89164   7.399   7.377   8.429 -0.3113 -0.0723 -0.2389
  661MOL0     C89165   7.980   7.505   8.145 -0.6368  0.4354 -0.1044
  661MOL0     C89166   8.085   7.538   8.062 -0.3981  0.1351  0.5382
  661MOL0     C89167   8.044   7.587   7.918 -0.4195 -0.0550 -1.1307
  661MOL0     H89168   8.668   7.462   8.218  2.3760  2.8194  0.7346
  661MOL0     H89169   8.887   7.513   8.164  1.4223 -0.9898 -2.1486
  661MOL0     H89170   8.975   7.629   7.731  1.3111 -0.3234  0.0638
  661MOL0     H89171   9.087   7.728   7.812 -1.5000  0.8227 -1.1967
  661MOL0     H89172   9.204   7.560   7.705  0.2385  2.8694  1.3543
  661MOL0     H89173   9.118   7.434   7.796 -1.0728  0.7800  1.2782
  661MOL0     H89174   9.225   7.481   8.002 -1.2596 -0.1484  0.5581
  661MOL0     H89175   9.252   7.644   7.957  1.6745 -0.3211 -1.2595
  661MOL0     H89176   9.454   7.483   7.967 -0.9277 -0.4375 -0.2272
  661MOL0     H89177   9.395   7.408   7.822  0.0504 -1.0873  0.7946
  661MOL0     H89178   9.407   7.652   7.707  0.6317  0.6949 -0.2681
  661MOL0     H89179   9.498   7.687   7.852  1.4619  0.4620 -0.1153
  661MOL0     H89180   9.580   7.437   7.697  0.4423 -0.2587  0.0821
  661MOL0     H89181   9.607   7.599   7.640 -0.0978 -1.4302 -1.0702
  661MOL0     H89182   9.801   7.519   7.752  1.8948  0.8040  1.6523
  661MOL0     H89183   9.704   7.517   7.905 -0.7339  1.3687 -0.2085
  661MOL0     H89184   9.690   7.776   7.759  2.0168 -0.6149 -1.8083
  661MOL0     H89185   9.728   7.748   7.931  0.5608  0.6628 -0.1890
  661MOL0     H89186   9.927   7.769   7.583  1.9721  1.4321 -0.4928
  661MOL0     H89187  10.153   7.938   7.569 -4.0654  0.0442  0.9006
  661MOL0     H89188  10.275   7.883   7.696  0.5574 -2.7901 -0.6765
  661MOL0     H89189  10.244   7.641   7.595  1.3578 -0.3123 -0.0232
  661MOL0     H89190  10.141   7.728   7.471 -0.7178 -1.6369  1.1799
  661MOL0     H89191  10.347   7.863   7.408  1.5007 -1.7123 -3.3852
  661MOL0     H89192  10.377   7.692   7.386 -0.9145  1.0793 -1.6250
  661MOL0     H89193  10.470   7.838   7.640 -1.7384 -1.8440  1.1608
  661MOL0     H89194  10.566   7.808   7.490  2.2063 -1.5686  0.6122
  661MOL0     H89195  10.545   7.575   7.357 -1.7646  2.5534  3.4602
  661MOL0     H89196  10.753   7.496   7.261  0.8107  1.6550  0.3364
  661MOL0     H89197  11.112   7.192   7.324 -0.3668  2.8913  0.7060
  661MOL0     H89198  11.337   7.126   7.209  0.4965  2.9581 -3.4874
  661MOL0     H89199  11.702   7.219   7.113  4.4646  2.2010  0.9357
  661MOL0     H89200  11.586   7.354   7.116  2.6703  0.2446 -0.7992
  661MOL0     H89201  11.701   7.436   7.310  0.2048 -1.7888  0.7119
  661MOL0     H89202  11.775   7.283   7.339 -0.6623 -0.6249  1.3160
  661MOL0     H89203  11.942   7.336   7.155  0.8140  0.6166  2.3231
  661MOL0     H89204  11.844   7.480   7.106 -2.8029  0.5106  0.7840
  661MOL0     H89205  11.989   7.427   7.376 -2.8420 -1.8134 -0.9103
  661MOL0     H89206  11.884   7.571   7.350  0.0603  0.5236  0.2489
  661MOL0     H89207  12.014   7.667   7.200 -2.1750 -0.7752 -0.0058
  661MOL0     H89208  12.106   7.526   7.159 -0.9121 -0.7486  0.0287
  661MOL0     H89209  12.117   7.643   7.441 -3.0996  0.0375 -1.4457
  661MOL0     H89210  12.230   7.527   7.363  2.3517  1.5319  1.5869
  661MOL0     H89211  12.197   7.813   7.280  0.2901  0.2817 -1.4555
  661MOL0     H89212  12.297   7.704   7.194 -1.1600  4.0323 -1.8173
  661MOL0     H89213  12.339   7.815   7.480  2.4525  1.3398 -0.0003
  661MOL0     H89214  12.396   7.662   7.459  0.1425  0.1972  0.1509
  661MOL0     H89215  11.539   7.412   7.428  1.0049  1.9183 -0.8350
  661MOL0     H89216  11.316   7.495   7.530 -1.1599  2.0863 -1.1732
  661MOL0     H89217  10.937   7.485   7.647 -0.6631 -1.1141  0.1737
  661MOL0     H89218  10.718   7.558   7.753  0.2465 -1.6484  0.5300
  661MOL0     H89219   8.761   7.661   7.768 -0.6082 -3.4428 -2.4138
  661MOL0     H89220   8.551   7.608   7.812 -1.0118 -3.6516 -0.4961
  661MOL0     H89221   8.342   7.507   8.278 -1.1706  1.0501  1.1575
  661MOL0     H89222   8.144   7.418   8.418 -2.8164  1.8967  0.7497
  661MOL0     H89223   7.907   7.626   8.438 -1.2908  1.1594 -0.9582
  661MOL0     H89224   7.799   7.520   8.526 -0.5338 -1.0547 -0.2667
  661MOL0     H89225   7.663   7.491   8.301 -3.0162  0.9902 -2.1411
  661MOL0     H89226   7.759   7.637   8.256  1.1091 -1.5095  0.7062
  661MOL0     H89227   7.549   7.696   8.322 -0.7085 -0.8464  0.5427
  661MOL0     H89228   7.635   7.758   8.445  0.4421  0.9074 -1.1210
  661MOL0     H89229   7.564   7.588   8.609 -2.1024 -0.7604  0.5166
  661MOL0     H89230   7.442   7.673   8.527 -0.3656  0.0467 -3.5031
  661MOL0     H89231   7.346   7.293   8.389 -2.4838  0.2855  1.7035
  661MOL0     H89232   7.881   7.492   8.105  0.3945  1.2317 -3.1749
  661MOL0     H89233   8.081   7.507   7.853 -0.3107 -1.5269  0.6794
  661MOL0     H89234   7.935   7.598   7.915 -0.4943  0.9782  1.7775
  661MOL0     H89235   8.086   7.686   7.899 -2.2467  0.3146 -3.7669
  662MOL0     O89236   2.500   6.792   8.917 -0.1041  0.1267 -0.5592
  662MOL0     C89237   2.389   6.854   8.912 -0.6735 -0.3876 -0.4297
  662MOL0     O89238   2.367   6.979   8.852 -0.2817  0.5442  0.5531
  662MOL0     C89239   2.480   7.043   8.811  0.0001 -0.2750  0.2766
  662MOL0     C89240   2.506   7.054   8.674 -0.3550  1.3363  0.5072
  662MOL0     C89241   2.617   7.128   8.619 -0.0833  0.6133 -0.7951
  662MOL0     C89242   2.694   7.197   8.709 -0.3581 -0.1881 -0.5618
  662MOL0     O89243   2.803   7.265   8.664  0.1543  0.5893  0.3654
  662MOL0     C89244   2.890   7.338   8.746 -0.1230 -0.6662  0.1649
  662MOL0     C89245   2.992   7.421   8.676 -0.1814  0.1583 -0.2147
  662MOL0     C89246   3.131   7.434   8.741 -0.0008  0.1888  1.0946
  662MOL0     C89247   3.228   7.518   8.659 -0.4745 -0.3688  0.7437
  662MOL0     C89248   3.376   7.514   8.715  0.5888 -0.2872 -0.2949
  662MOL0     C89249   3.459   7.628   8.647  0.3127  0.4098 -0.7952
  662MOL0     C89250   3.608   7.634   8.694 -0.0909 -0.6947  0.6545
  662MOL0     C89251   3.693   7.725   8.592 -0.0021  0.0975 -0.1190
  662MOL0     N89252   3.655   7.868   8.614  0.2156  0.2907  0.6525
  662MOL0     C89253   3.642   7.958   8.510 -0.2222 -0.8171 -0.8075
  662MOL0     C89254   3.643   8.081   8.565  0.2383  0.3242  0.0261
  662MOL0     C89255   3.627   8.214   8.492 -0.3155  1.2020  0.2119
  662MOL0     C89256   3.597   8.193   8.348 -0.6676  0.9487  1.4163
  662MOL0     C89257   3.593   8.316   8.269 -0.7961  0.3553  0.3094
  662MOL0     C89258   3.733   8.388   8.251  0.0091  0.0570  0.2329
  662MOL0     O89259   3.741   8.490   8.351  0.3746 -0.3257  0.5854
  662MOL0     C89260   3.860   8.555   8.375 -0.2328 -0.0793  0.2811
  662MOL0     C89261   3.952   8.568   8.267  0.0582 -0.4958  0.8699
  662MOL0     C89262   4.082   8.619   8.293 -0.5895  0.6090  0.9613
  662MOL0     C89263   4.115   8.685   8.406  0.3385 -0.8866  0.3636
  662MOL0     C89264   4.241   8.759   8.418 -0.0896  1.1049  0.0915
  662MOL0     O89265   4.336   8.727   8.319 -0.1279  0.4008 -0.6746
  662MOL0     C89266   4.460   8.787   8.315  0.3188 -0.0444 -0.3806
  662MOL0     C89267   4.491   8.921   8.301  0.9047  0.0814 -0.1578
  662MOL0     C89268   4.622   8.974   8.289  0.4521 -0.3439  0.2758
  662MOL0     C89269   4.727   8.882   8.297 -0.7830 -0.1294 -0.2902
  662MOL0     O89270   4.850   8.935   8.306 -0.3144  0.0416 -0.5924
  662MOL0     C89271   4.974   8.851   8.306 -0.2342 -0.1078  0.2042
  662MOL0     C89272   5.094   8.942   8.321  0.9972  0.4190 -0.1400
  662MOL0     C89273   5.227   8.866   8.299 -0.3641  1.0651  0.5774
  662MOL0     C89274   5.338   8.957   8.238 -0.0434  0.3103 -0.2072
  662MOL0     C89275   5.474   8.900   8.271 -0.4485 -0.1587 -0.4334
  662MOL0     C89276   5.577   8.998   8.217 -0.0545  1.2665  0.2879
  662MOL0     C89277   5.718   8.951   8.245 -0.3544 -0.3088  0.1469
  662MOL0     C89278   5.825   9.059   8.233  0.1126 -0.3788 -0.0277
  662MOL0    Cl89279   5.822   9.179   8.362  0.1678 -0.0734 -0.1798
  662MOL0     C89280   4.699   8.744   8.299  0.8522 -0.0500 -0.0907
  662MOL0     C89281   4.566   8.699   8.314  0.1134 -0.3356  0.7849
  662MOL0     O89282   4.253   8.846   8.501  0.8447  0.1356  0.1800
  662MOL0     C89283   4.017   8.676   8.508 -0.2798  0.4016 -1.1967
  662MOL0     C89284   3.894   8.613   8.495 -0.4278 -0.5376 -0.1225
  662MOL0     N89285   3.641   8.059   8.704  0.4539 -0.9363 -0.4069
  662MOL0     N89286   3.635   7.928   8.731 -0.2087 -0.7000  0.1630
  662MOL0     C89287   2.660   7.201   8.846  0.0595 -0.3023 -0.1038
  662MOL0     C89288   2.553   7.126   8.898 -0.6626  0.4938 -0.8471
  662MOL0     C89289   2.271   6.795   8.992  0.0401  0.0181 -0.1874
  662MOL0     C89290   2.183   6.888   9.053 -0.7234  0.3488  0.4743
  662MOL0     C89291   2.069   6.848   9.126 -0.1884 -0.6704 -0.0969
  662MOL0     C89292   2.035   6.711   9.138 -0.1738  0.0509 -0.1459
  662MOL0     O89293   1.924   6.673   9.214 -0.9048 -0.0590 -0.5719
  662MOL0     C89294   1.821   6.643   9.123 -0.2152 -0.6252 -0.4204
  662MOL0     C89295   1.703   6.577   9.191  0.5654 -0.5242 -0.0787
  662MOL0     C89296   1.700   6.423   9.194  0.6475  0.4033  1.1395
  662MOL0     C89297   1.821   6.360   9.254 -0.3295  0.2686  0.2294
  662MOL0     C89298   1.925   6.314   9.166  0.2622  1.0413 -0.2498
  662MOL0     C89299   2.007   6.289   9.075  0.0312 -0.6753 -0.6936
  662MOL0     C89300   2.122   6.622   9.083  0.1793 -0.0385 -0.2621
  662MOL0     C89301   2.236   6.658   9.008 -0.1783  0.3914  0.0244
  662MOL0     C89302   2.308   6.541   8.944  0.4653  0.0406 -0.1076
  662MOL0     H89303   2.442   6.999   8.604  2.4547  0.4303 -1.5144
  662MOL0     H89304   2.647   7.126   8.515 -1.5160  0.6514 -1.2208
  662MOL0     H89305   2.837   7.405   8.814  1.0276  0.5975 -0.1622
  662MOL0     H89306   2.955   7.269   8.801  2.4321  0.0642 -1.7559
  662MOL0     H89307   2.955   7.523   8.674 -0.5105  0.0565  0.4872
  662MOL0     H89308   2.993   7.381   8.574 -2.6951 -2.2586  0.5671
  662MOL0     H89309   3.182   7.337   8.743 -0.4806 -0.5405 -4.5770
  662MOL0     H89310   3.124   7.475   8.842 -0.1641 -3.1766  2.5932
  662MOL0     H89311   3.247   7.477   8.559  1.2055  0.4140  0.7015
  662MOL0     H89312   3.194   7.622   8.670  1.8817  0.4509  0.8796
  662MOL0     H89313   3.374   7.535   8.823 -2.8214 -0.2083 -0.2362
  662MOL0     H89314   3.417   7.415   8.695  5.0139  0.9211  1.6519
  662MOL0     H89315   3.447   7.610   8.539 -2.8166 -0.4358 -0.3949
  662MOL0     H89316   3.424   7.731   8.659 -1.6081 -0.0022 -2.2129
  662MOL0     H89317   3.648   7.533   8.696  1.3576 -0.1417  3.1078
  662MOL0     H89318   3.616   7.681   8.792 -0.9414  0.9937 -0.0248
  662MOL0     H89319   3.801   7.714   8.598  0.5001  2.9463 -1.8800
  662MOL0     H89320   3.672   7.709   8.486 -1.1041  3.2197 -0.4684
  662MOL0     H89321   3.621   7.938   8.405 -3.6585  3.0261 -1.1100
  662MOL0     H89322   3.544   8.267   8.540 -0.4866  0.1965  1.0572
  662MOL0     H89323   3.723   8.264   8.509  0.9747 -1.6712  2.1655
  662MOL0     H89324   3.687   8.144   8.311  0.0994  2.9490  0.4630
  662MOL0     H89325   3.513   8.125   8.332  0.9636 -0.7285 -0.4337
  662MOL0     H89326   3.514   8.382   8.307 -0.5839  0.2906  0.8623
  662MOL0     H89327   3.572   8.291   8.164  3.2626 -0.4412 -0.4504
  662MOL0     H89328   3.730   8.431   8.150 -0.2014 -2.4354 -0.8938
  662MOL0     H89329   3.818   8.319   8.252  0.1780  0.1482 -2.0615
  662MOL0     H89330   3.951   8.526   8.167  1.0485  0.7499  0.3056
  662MOL0     H89331   4.147   8.624   8.206  0.0396  1.5668  1.4734
  662MOL0     H89332   4.407   8.989   8.310  0.6228 -0.2762 -0.0766
  662MOL0     H89333   4.643   9.080   8.295  0.4619 -0.1711 -2.0422
  662MOL0     H89334   4.969   8.776   8.386  0.2808 -0.3438  0.0213
  662MOL0     H89335   4.987   8.795   8.213  2.3743 -0.1955  0.5599
  662MOL0     H89336   5.087   9.012   8.237 -1.3301 -0.3699 -0.6625
  662MOL0     H89337   5.085   8.985   8.421  0.1920 -2.1285  0.9766
  662MOL0     H89338   5.259   8.819   8.392  0.9634 -2.5647 -1.4993
  662MOL0     H89339   5.212   8.778   8.236 -0.3802  1.4625  0.0197
  662MOL0     H89340   5.333   9.051   8.294 -2.3323 -0.6851  1.4468
  662MOL0     H89341   5.330   8.976   8.131  2.3594 -1.0456 -0.7072
  662MOL0     H89342   5.484   8.803   8.221  1.9681 -0.5858  0.6833
  662MOL0     H89343   5.497   8.892   8.378  1.4645 -2.8617 -0.9457
  662MOL0     H89344   5.569   9.005   8.108 -0.0632 -1.1817  0.0673
  662MOL0     H89345   5.569   9.098   8.261 -1.4523  1.3529 -0.1228
  662MOL0     H89346   5.737   8.857   8.191  1.6424 -0.8952  1.7792
  662MOL0     H89347   5.730   8.931   8.351 -1.1390  0.6053  0.4212
  662MOL0     H89348   5.924   9.013   8.244  0.4588  0.6577  1.5034
  662MOL0     H89349   5.809   9.105   8.136 -0.2910 -0.6714 -0.0993
  662MOL0     H89350   4.777   8.669   8.290  3.7521  2.9214 -2.1388
  662MOL0     H89351   4.541   8.595   8.334  0.4201 -0.3302  1.2102
  662MOL0     H89352   4.031   8.729   8.602  1.7667  0.5378 -1.5335
  662MOL0     H89353   3.827   8.609   8.581  0.4184  1.2414  0.6725
  662MOL0     H89354   2.721   7.260   8.914  0.5165 -1.2216  0.2952
  662MOL0     H89355   2.522   7.133   9.001 -0.6854  1.7178 -0.9231
  662MOL0     H89356   2.194   6.993   9.026  1.8424 -0.4511 -2.0815
  662MOL0     H89357   2.006   6.932   9.155  0.4469 -0.1325 -0.2356
  662MOL0     H89358   1.854   6.567   9.051 -2.9522 -3.4579  1.0952
  662MOL0     H89359   1.786   6.741   9.087 -4.6313 -0.6576  2.9504
  662MOL0     H89360   1.612   6.610   9.140 -0.4711 -1.6785  0.9656
  662MOL0     H89361   1.680   6.612   9.292 -0.1482  3.5210 -1.4667
  662MOL0     H89362   1.680   6.391   9.091  2.2464  1.0334  0.6088
  662MOL0     H89363   1.606   6.388   9.237 -2.4836  1.5927 -3.8759
  662MOL0     H89364   1.876   6.426   9.322  1.4050 -2.0174  1.1812
  662MOL0     H89365   1.791   6.277   9.319 -0.5613 -1.1363 -1.6015
  662MOL0     H89366   2.055   6.268   8.981  2.9686 -0.8219  0.7080
  662MOL0     H89367   2.111   6.520   9.117  0.3491  0.3909  1.1633
  662MOL0     H89368   2.258   6.445   8.956 -2.2245  1.4088  0.2560
  662MOL0     H89369   2.312   6.566   8.838 -1.3860 -2.2177 -0.7951
  662MOL0     H89370   2.412   6.528   8.976  0.5073 -2.7771 -1.1115
  663MOL0     O89371   5.642   9.707  11.014 -0.4340 -0.1760 -0.4505
  663MOL0     C89372   5.633   9.780  10.914  0.4799 -0.6653 -0.1363
  663MOL0     O89373   5.691   9.900  10.891 -0.4959  0.4961 -0.5875
  663MOL0     C89374   5.797   9.949  10.964  0.4556  0.3654 -0.0548
  663MOL0     C89375   5.853  10.077  10.944 -0.3587  0.7507 -0.2687
  663MOL0     C89376   5.958  10.138  11.015 -0.2688  1.4634  0.5630
  663MOL0     C89377   6.023  10.061  11.115  0.2427 -0.3720 -0.9413
  663MOL0     O89378   6.133  10.112  11.177 -0.2528  0.2995 -0.1243
  663MOL0     C89379   6.153  10.257  11.192  0.1658  1.6311  0.0906
  663MOL0     C89380   6.276  10.271  11.277 -0.6527  0.4275 -0.1571
  663MOL0     C89381   6.293  10.413  11.317 -0.1315  0.3154 -0.3416
  663MOL0     C89382   6.384  10.435  11.440  0.2848  0.1752  0.0629
  663MOL0     C89383   6.444  10.579  11.437 -0.7850  0.2437  0.0758
  663MOL0     C89384   6.509  10.616  11.573 -0.0868 -0.2559  0.6945
  663MOL0     C89385   6.573  10.754  11.582 -0.3946  0.3421  0.1299
  663MOL0     C89386   6.621  10.765  11.728 -0.3070 -0.2704  0.2592
  663MOL0     N89387   6.675  10.910  11.749 -0.6089 -0.4379  0.4086
  663MOL0     C89388   6.789  10.962  11.680  0.3018 -0.9436  0.6003
  663MOL0     C89389   6.784  11.097  11.709  1.0230  0.3302  0.3421
  663MOL0     C89390   6.868  11.203  11.648  0.3361  0.3078 -0.3158
  663MOL0     C89391   7.012  11.175  11.677 -0.4795 -0.3921 -0.0128
  663MOL0     C89392   7.060  11.157  11.817  0.4477 -0.2399 -0.5118
  663MOL0     C89393   7.212  11.147  11.822  0.5991 -0.4958 -0.4766
  663MOL0     O89394   7.267  11.025  11.780  0.6219 -0.2278 -0.0726
  663MOL0     C89395   7.400  11.017  11.752  0.9057 -0.1866 -0.1765
  663MOL0     C89396   7.488  11.020  11.861  0.6108 -0.5648  0.9309
  663MOL0     C89397   7.625  11.021  11.830  1.0280 -0.1159  0.2287
  663MOL0     C89398   7.679  11.015  11.699 -0.8994 -0.2707 -0.1035
  663MOL0     C89399   7.823  11.017  11.682 -1.0616  0.0480 -0.0284
  663MOL0     O89400   7.862  11.053  11.556 -0.4842 -0.7039 -0.0836
  663MOL0     C89401   7.995  11.031  11.526 -0.7293  0.0412  0.2574
  663MOL0     C89402   8.019  10.948  11.428 -0.5893  0.5099  0.7305
  663MOL0     C89403   8.150  10.921  11.389 -0.0021 -0.7511  0.9472
  663MOL0     C89404   8.264  10.971  11.458 -0.1115 -1.0226  0.2325
  663MOL0     O89405   8.385  10.923  11.413 -0.9626  0.3894  0.1418
  663MOL0     C89406   8.490  10.899  11.510 -0.1329  0.1615 -1.0036
  663MOL0     C89407   8.592  10.790  11.459  0.3635  0.5619 -0.1368
  663MOL0     C89408   8.729  10.805  11.516  0.6988  0.0369 -0.5628
  663MOL0     C89409   8.840  10.819  11.413 -0.1131  0.1868  0.0284
  663MOL0     C89410   8.968  10.859  11.482 -0.3832 -0.5547  0.1542
  663MOL0     C89411   9.037  10.738  11.556  0.0958  0.5456 -0.5281
  663MOL0     C89412   9.183  10.762  11.592 -1.0209 -0.2139 -0.0497
  663MOL0     C89413   9.243  10.627  11.644 -0.7598 -0.3818  0.3555
  663MOL0    Cl89414   9.404  10.650  11.704 -0.2063 -0.0719  0.3868
  663MOL0     C89415   8.239  11.080  11.555  0.1805  0.5503  0.7345
  663MOL0     C89416   8.098  11.112  11.579 -1.3360  0.1998  0.1482
  663MOL0     O89417   7.895  10.980  11.782 -0.2503  0.5276 -0.0872
  663MOL0     C89418   7.591  11.001  11.594  0.3558  1.1793  0.1085
  663MOL0     C89419   7.449  10.993  11.622 -0.4178 -0.5737 -0.3371
  663MOL0     N89420   6.678  11.126  11.803  0.1936  0.1351  0.2735
  663MOL0     N89421   6.608  11.015  11.813 -0.8315 -0.4481  0.2032
  663MOL0     C89422   5.984   9.928  11.132 -0.0121 -0.6931  0.3067
  663MOL0     C89423   5.869   9.878  11.065  0.0594  0.6380 -0.0981
  663MOL0     C89424   5.540   9.740  10.804 -0.4556 -0.3722 -0.4687
  663MOL0     C89425   5.557   9.797  10.669 -0.0599 -0.4123 -1.2916
  663MOL0     C89426   5.477   9.773  10.563 -0.0742  1.0672  0.7639
  663MOL0     C89427   5.375   9.681  10.575 -0.2112  0.6282 -0.1552
  663MOL0     O89428   5.296   9.644  10.469 -0.6942 -0.8530  0.3373
  663MOL0     C89429   5.224   9.750  10.405  0.2591  0.0051  0.2432
  663MOL0     C89430   5.101   9.690  10.330 -0.1233  0.8110  0.6060
  663MOL0     C89431   5.026   9.589  10.413 -0.6269  0.7962 -0.7680
  663MOL0     C89432   4.908   9.533  10.345 -0.0298  0.7416  0.6746
  663MOL0     C89433   4.846   9.424  10.419 -0.1863 -0.1514 -0.1520
  663MOL0     C89434   4.811   9.337  10.493  0.4491  0.1801 -0.0524
  663MOL0     C89435   5.358   9.622  10.700 -0.0685  0.0266 -0.3052
  663MOL0     C89436   5.435   9.650  10.807 -0.4281 -0.4123 -0.5604
  663MOL0     C89437   5.410   9.548  10.912 -0.3799 -0.2129  0.0003
  663MOL0     H89438   5.806  10.135  10.864  0.5130  1.3708 -0.3478
  663MOL0     H89439   5.993  10.235  10.981  0.7693  0.8827 -0.0868
  663MOL0     H89440   6.149  10.299  11.091  3.4630  4.1419  0.8450
  663MOL0     H89441   6.069  10.300  11.248 -1.6555 -0.7208 -0.6485
  663MOL0     H89442   6.362  10.220  11.231 -0.0771  0.1078  1.2207
  663MOL0     H89443   6.265  10.219  11.372  2.4473  3.0399  1.8248
  663MOL0     H89444   6.193  10.454  11.336 -0.1500  0.2733 -0.3481
  663MOL0     H89445   6.329  10.472  11.232 -0.1231 -0.9111 -1.2154
  663MOL0     H89446   6.336  10.400  11.532 -2.1508 -0.2029 -1.2621
  663MOL0     H89447   6.467  10.368  11.417 -0.2302 -0.2828 -0.5104
  663MOL0     H89448   6.520  10.599  11.361  2.9302  2.6204  3.9420
  663MOL0     H89449   6.365  10.655  11.426 -0.4926  0.2876 -2.1885
  663MOL0     H89450   6.431  10.611  11.650 -2.1891 -0.5335 -1.3642
  663MOL0     H89451   6.587  10.542  11.596  0.5586  0.3054  0.3529
  663MOL0     H89452   6.506  10.833  11.547  1.1019  1.5562 -0.1132
  663MOL0     H89453   6.651  10.756  11.506 -1.2133 -1.3412 -0.8211
  663MOL0     H89454   6.534  10.757  11.794 -0.8491  2.6706  0.0068
  663MOL0     H89455   6.685  10.680  11.754  0.0120  0.4880  2.0993
  663MOL0     H89456   6.853  10.906  11.612 -0.6068  0.6929 -1.7363
  663MOL0     H89457   6.839  11.195  11.542 -0.0698 -1.7001 -0.1057
  663MOL0     H89458   6.841  11.304  11.678 -0.1129 -0.5548  2.4227
  663MOL0     H89459   7.027  11.079  11.628 -1.4429 -1.1569  1.1319
  663MOL0     H89460   7.072  11.248  11.622  1.3344 -1.0283  1.0619
  663MOL0     H89461   7.028  11.062  11.860  3.6677 -2.1741 -2.0017
  663MOL0     H89462   7.033  11.243  11.878  0.5705 -1.5689  1.5174
  663MOL0     H89463   7.252  11.159  11.923  3.0510  2.3242 -1.6626
  663MOL0     H89464   7.254  11.226  11.760  5.5780 -0.8761  1.9555
  663MOL0     H89465   7.455  11.028  11.964 -1.5370  5.0280  0.1271
  663MOL0     H89466   7.701  11.013  11.907  2.0466 -2.6754 -0.9385
  663MOL0     H89467   7.945  10.896  11.368  1.4752  1.5649 -3.0737
  663MOL0     H89468   8.154  10.832  11.327 -4.6186 -0.7248  0.2756
  663MOL0     H89469   8.538  10.996  11.527 -0.3733 -0.4615  5.3883
  663MOL0     H89470   8.442  10.861  11.600  0.0938 -0.9250 -1.3281
  663MOL0     H89471   8.549  10.692  11.484 -2.9729  0.5152 -4.6667
  663MOL0     H89472   8.603  10.792  11.350 -1.5314 -3.5591 -0.5988
  663MOL0     H89473   8.733  10.895  11.578  1.4303 -0.6275  0.3820
  663MOL0     H89474   8.750  10.722  11.584  1.5980  1.0504  0.4421
  663MOL0     H89475   8.806  10.883  11.330  1.8224 -0.9931 -1.7771
  663MOL0     H89476   8.861  10.725  11.361 -0.7643 -1.3772  2.4594
  663MOL0     H89477   8.962  10.951  11.542  3.4759 -0.0845  0.0661
  663MOL0     H89478   9.038  10.882  11.402 -1.8102 -1.5097 -1.4431
  663MOL0     H89479   8.979  10.721  11.648  0.8640  2.1489  0.3033
  663MOL0     H89480   9.025  10.648  11.496 -1.2109  0.1955  0.2180
  663MOL0     H89481   9.191  10.848  11.659  0.2385  0.0500 -0.4985
  663MOL0     H89482   9.246  10.792  11.508 -1.0847  0.6863  0.2126
  663MOL0     H89483   9.176  10.593  11.724 -1.4660  1.2068  0.4890
  663MOL0     H89484   9.236  10.553  11.564 -1.0553  0.4671 -0.4149
  663MOL0     H89485   8.328  11.122  11.599  0.9917 -0.7739  0.4082
  663MOL0     H89486   8.076  11.183  11.658 -0.0024 -1.1616  1.8302
  663MOL0     H89487   7.621  11.000  11.489 -1.0130 -0.2106 -0.3063
  663MOL0     H89488   7.372  10.992  11.546 -2.1570  1.9843  1.2326
  663MOL0     H89489   6.041   9.870  11.204  0.4417 -1.0373 -0.3200
  663MOL0     H89490   5.844   9.776  11.092  1.8256  0.5656  1.4454
  663MOL0     H89491   5.644   9.860  10.656  2.7332 -3.1044  2.2468
  663MOL0     H89492   5.501   9.800  10.461  0.4840 -2.7405 -0.2706
  663MOL0     H89493   5.285   9.796  10.326 -1.6267  1.1314 -0.6312
  663MOL0     H89494   5.189   9.823  10.478 -0.0742  1.1339 -1.0139
  663MOL0     H89495   5.153   9.645  10.245  2.3242  0.7055  2.0565
  663MOL0     H89496   5.020   9.754  10.296 -0.0326  0.5307 -0.1487
  663MOL0     H89497   4.982   9.631  10.504 -0.0570 -1.5393  0.6847
  663MOL0     H89498   5.089   9.505  10.445 -1.9044 -0.2978 -1.0451
  663MOL0     H89499   4.829   9.606  10.325 -0.3253 -0.1720 -1.8297
  663MOL0     H89500   4.939   9.510  10.243 -1.1397 -3.0095  1.0358
  663MOL0     H89501   4.792   9.258  10.563 -0.7684  1.6394  1.3470
  663MOL0     H89502   5.279   9.548  10.707  0.3778 -0.3344  1.1605
  663MOL0     H89503   5.474   9.461  10.891 -0.6639  0.0120 -2.0101
  663MOL0     H89504   5.429   9.591  11.011  0.4057  1.1285 -0.7020
  663MOL0     H89505   5.306   9.514  10.910 -0.6169  0.4794 -2.1995
  664MOL0     O89506   5.374   5.835   4.897 -0.0996  0.3935  0.0687
  664MOL0     C89507   5.331   5.790   5.004 -0.1699  1.2223  0.7927
  664MOL0     O89508   5.391   5.690   5.076 -0.5202  0.2050 -0.9690
  664MOL0     C89509   5.496   5.622   5.017 -0.1777  0.0608  0.3319
  664MOL0     C89510   5.610   5.617   5.098 -0.2876 -0.0680 -0.4938
  664MOL0     C89511   5.723   5.566   5.057  0.3629 -0.4382  0.1925
  664MOL0     C89512   5.733   5.508   4.927 -0.3210  0.1131  0.5727
  664MOL0     O89513   5.842   5.450   4.877 -1.7030 -0.1596 -0.4446
  664MOL0     C89514   5.963   5.522   4.882 -0.1205 -0.3911 -0.5273
  664MOL0     C89515   6.070   5.445   4.809 -0.3981  0.4700  0.0660
  664MOL0     C89516   6.195   5.526   4.781  0.1828 -0.3637 -0.0672
  664MOL0     C89517   6.307   5.505   4.882 -0.1349 -0.3969  0.5218
  664MOL0     C89518   6.438   5.576   4.834 -0.4295 -0.1657 -0.2935
  664MOL0     C89519   6.527   5.594   4.952 -0.3656  0.4506 -0.2437
  664MOL0     C89520   6.657   5.667   4.947 -0.9203  0.0910  0.6267
  664MOL0     C89521   6.747   5.610   4.829  0.3400  0.3518 -1.0366
  664MOL0     N89522   6.871   5.685   4.812 -0.1030  0.5476 -0.7171
  664MOL0     C89523   6.902   5.759   4.708  1.0354 -0.9581  0.4642
  664MOL0     C89524   7.018   5.824   4.745 -0.6405 -0.1770  0.1865
  664MOL0     C89525   7.107   5.922   4.669  0.0738  0.3916  0.5192
  664MOL0     C89526   7.039   6.034   4.584  0.1097  0.4276 -0.0978
  664MOL0     C89527   7.008   6.154   4.677  0.4424 -0.2611  0.1578
  664MOL0     C89528   6.879   6.137   4.757  0.5390  0.4558 -0.5602
  664MOL0     O89529   6.774   6.107   4.668  0.4214 -0.0127 -0.1206
  664MOL0     C89530   6.645   6.092   4.734  0.1058  0.1195  0.4900
  664MOL0     C89531   6.625   6.078   4.874  0.2213  0.0667  0.3318
  664MOL0     C89532   6.502   6.061   4.928 -0.3766 -0.2339  0.3436
  664MOL0     C89533   6.383   6.065   4.843  0.2885  0.6961  0.2257
  664MOL0     C89534   6.251   6.049   4.902 -0.0166 -0.7942 -0.5364
  664MOL0     O89535   6.240   6.017   5.026 -0.2171  0.6660 -1.1864
  664MOL0     C89536   6.112   5.987   5.071  0.4903 -0.3300 -0.0190
  664MOL0     C89537   6.018   6.086   5.094  0.0861  0.3964  0.6988
  664MOL0     C89538   5.893   6.065   5.144 -0.3597  0.9173 -0.6480
  664MOL0     C89539   5.851   5.929   5.176  0.8731  0.2628 -0.0812
  664MOL0     O89540   5.731   5.903   5.237  0.4688 -0.1235 -0.2264
  664MOL0     C89541   5.618   5.995   5.240 -0.6221 -0.4465  0.1943
  664MOL0     C89542   5.509   5.932   5.328  0.2477 -0.9422  0.2270
  664MOL0     C89543   5.403   6.026   5.378 -0.2237 -1.0544 -0.0272
  664MOL0     C89544   5.290   5.947   5.453  0.6624  0.0400 -0.2174
  664MOL0     C89545   5.191   6.044   5.518  0.0667  0.0203  0.6965
  664MOL0     C89546   5.103   5.982   5.636 -0.5580  0.6928 -1.1936
  664MOL0     C89547   4.976   6.061   5.673 -0.2906  0.4359  0.4693
  664MOL0     C89548   4.932   6.042   5.817 -0.1656  0.4521 -0.3972
  664MOL0    Cl89549   4.895   5.869   5.821 -0.2955 -0.0958  0.0336
  664MOL0     C89550   5.948   5.822   5.149  0.2638  0.5139  0.1651
  664MOL0     C89551   6.074   5.853   5.093 -0.5152 -0.1841  0.0638
  664MOL0     O89552   6.160   6.073   4.826 -0.1536  0.4490  0.1635
  664MOL0     C89553   6.405   6.076   4.701  0.8825  0.4490  0.1164
  664MOL0     C89554   6.527   6.086   4.648  0.0153 -0.1297  0.1827
  664MOL0     N89555   7.049   5.785   4.869 -0.5331  0.0707 -0.4275
  664MOL0     N89556   6.969   5.695   4.909 -0.1668  0.1804  0.7432
  664MOL0     C89557   5.619   5.503   4.845  0.4659 -0.2821 -0.2873
  664MOL0     C89558   5.502   5.565   4.885  0.6787  0.7382 -0.4413
  664MOL0     C89559   5.217   5.866   5.061  0.3323  0.4651  0.3654
  664MOL0     C89560   5.199   5.997   5.023  1.4736 -0.9426  0.9610
  664MOL0     C89561   5.083   6.073   5.074 -0.6339  0.2719 -0.9519
  664MOL0     C89562   4.993   6.008   5.156 -0.4617  0.8482  0.1253
  664MOL0     O89563   4.875   6.057   5.202  0.1144  0.6319 -0.3874
  664MOL0     C89564   4.842   6.197   5.196  0.0015 -0.4402 -0.4179
  664MOL0     C89565   4.875   6.264   5.337  0.2561  0.1975  0.5618
  664MOL0     C89566   4.806   6.402   5.344  0.0726  0.8046  0.5875
  664MOL0     C89567   4.688   6.392   5.426 -0.5193  0.6079 -0.1293
  664MOL0     C89568   4.640   6.529   5.463  0.5446  1.1103 -0.1057
  664MOL0     C89569   4.608   6.630   5.502  0.1352  0.2176 -0.1586
  664MOL0     C89570   5.009   5.881   5.190 -0.9862 -0.2248 -0.1164
  664MOL0     C89571   5.118   5.805   5.146 -0.2942 -0.3697 -0.7100
  664MOL0     C89572   5.096   5.661   5.157  0.1158  0.9663 -0.1544
  664MOL0     H89573   5.613   5.665   5.195 -0.7932  0.5327 -0.7641
  664MOL0     H89574   5.805   5.575   5.127  1.1326  0.0418 -0.7406
  664MOL0     H89575   5.943   5.617   4.832 -1.5681 -0.1651  0.4218
  664MOL0     H89576   5.989   5.557   4.982  1.1350  1.0365 -1.3119
  664MOL0     H89577   6.029   5.417   4.712  0.3861  0.1150 -0.1746
  664MOL0     H89578   6.098   5.352   4.860 -0.0031 -1.4454 -3.3350
  664MOL0     H89579   6.170   5.633   4.775  0.1766 -0.4425 -2.0062
  664MOL0     H89580   6.233   5.495   4.684 -1.2567 -0.7733 -0.5282
  664MOL0     H89581   6.267   5.539   4.977 -0.0900 -0.0154  0.4056
  664MOL0     H89582   6.321   5.398   4.898 -1.5122 -0.4517  1.5169
  664MOL0     H89583   6.490   5.530   4.750  0.4008  2.0839 -1.0775
  664MOL0     H89584   6.416   5.680   4.807 -0.6735 -0.2061 -0.2554
  664MOL0     H89585   6.471   5.648   5.029  0.6126 -0.1828  0.9254
  664MOL0     H89586   6.547   5.494   4.991 -1.9294  0.4690  0.6852
  664MOL0     H89587   6.709   5.660   5.043 -2.7846  2.8522  1.9861
  664MOL0     H89588   6.646   5.776   4.943 -0.5126  0.1030 -0.5881
  664MOL0     H89589   6.773   5.506   4.854 -1.5742  0.0878  0.0307
  664MOL0     H89590   6.696   5.621   4.733 -1.9313  2.8970  0.3245
  664MOL0     H89591   6.854   5.755   4.611 -0.5385 -0.7968  1.1996
  664MOL0     H89592   7.181   5.962   4.738 -0.4929 -0.9826  1.9874
  664MOL0     H89593   7.153   5.854   4.597 -1.5257 -3.6782  2.9629
  664MOL0     H89594   7.117   6.069   4.515  2.0668  0.2593  1.9057
  664MOL0     H89595   6.948   6.007   4.530  0.0343  1.1221 -0.3274
  664MOL0     H89596   6.990   6.243   4.616 -1.6252  0.5793  1.8554
  664MOL0     H89597   7.093   6.166   4.744  0.0056 -1.9352  1.0793
  664MOL0     H89598   6.873   6.230   4.813  2.3672 -1.0332  2.3358
  664MOL0     H89599   6.881   6.052   4.827 -0.9983  1.8222  1.2310
  664MOL0     H89600   6.711   6.078   4.940  1.4453 -0.6572 -1.2057
  664MOL0     H89601   6.503   6.049   5.035 -0.1441 -3.2978  0.0771
  664MOL0     H89602   6.038   6.186   5.057  0.9140 -0.0220 -0.0280
  664MOL0     H89603   5.823   6.148   5.156 -2.9435 -1.3082  0.8564
  664MOL0     H89604   5.645   6.094   5.279 -1.5294  0.2766 -0.9554
  664MOL0     H89605   5.575   5.998   5.139 -3.0488 -2.5259  1.0567
  664MOL0     H89606   5.457   5.861   5.265  1.5313 -0.1255 -1.8612
  664MOL0     H89607   5.553   5.876   5.412  0.2998 -0.2160  0.6972
  664MOL0     H89608   5.450   6.093   5.451 -3.5373 -0.1383  1.4583
  664MOL0     H89609   5.363   6.076   5.290  3.0715  1.4347 -0.2964
  664MOL0     H89610   5.343   5.902   5.538 -3.2763 -3.1706  0.8448
  664MOL0     H89611   5.227   5.871   5.408  1.3546 -0.1301 -0.9195
  664MOL0     H89612   5.131   6.084   5.436  1.8597  0.6362 -0.3884
  664MOL0     H89613   5.254   6.127   5.551  1.4638 -0.5181 -0.5156
  664MOL0     H89614   5.085   5.875   5.617  0.5447  0.6737 -2.2283
  664MOL0     H89615   5.161   5.981   5.729 -0.6754  3.4379 -1.0314
  664MOL0     H89616   4.893   6.030   5.609  0.0436  0.8275 -0.1610
  664MOL0     H89617   5.003   6.166   5.659 -0.3386  0.8185  2.8162
  664MOL0     H89618   5.013   6.062   5.888  0.3113 -0.8819 -0.5238
  664MOL0     H89619   4.846   6.101   5.850 -0.8441  0.0255 -1.3561
  664MOL0     H89620   5.925   5.716   5.155 -0.5416  0.6433 -0.4784
  664MOL0     H89621   6.147   5.774   5.080 -0.7353 -0.5325  0.8896
  664MOL0     H89622   6.322   6.072   4.631 -0.4735  1.0943  1.6395
  664MOL0     H89623   6.529   6.097   4.540 -0.1820 -3.5011 -0.2955
  664MOL0     H89624   5.616   5.467   4.742  1.0203  3.9763 -1.9817
  664MOL0     H89625   5.422   5.551   4.813 -1.0729 -1.8325  1.7842
  664MOL0     H89626   5.267   6.050   4.956 -1.3024  1.5832 -0.0483
  664MOL0     H89627   5.062   6.173   5.036 -1.6218  0.9340  1.1906
  664MOL0     H89628   4.732   6.197   5.198 -0.0812  2.1353 -0.7328
  664MOL0     H89629   4.887   6.245   5.109 -0.5569  1.2443  0.1737
  664MOL0     H89630   4.983   6.274   5.351  0.2357 -1.4944  2.3424
  664MOL0     H89631   4.843   6.200   5.420  1.4209  1.9527  2.4698
  664MOL0     H89632   4.787   6.444   5.245 -2.8677  4.0796  2.3444
  664MOL0     H89633   4.869   6.475   5.396 -1.2534  1.4779  1.2926
  664MOL0     H89634   4.608   6.351   5.362 -1.0685  2.4020 -0.6522
  664MOL0     H89635   4.703   6.335   5.518  1.0007  0.1728 -0.6143
  664MOL0     H89636   4.562   6.718   5.542 -3.0558 -1.3229 -0.1651
  664MOL0     H89637   4.944   5.830   5.260  0.4441  0.6874  1.9898
  664MOL0     H89638   5.184   5.611   5.116  0.0380  0.5598  0.1708
  664MOL0     H89639   5.074   5.636   5.261 -2.1626  0.0317 -0.8046
  664MOL0     H89640   5.011   5.619   5.103  1.1429 -1.7718  0.2119
  665MOL0     O89641   9.268   3.688   1.326  0.8427 -0.4538 -0.3241
  665MOL0     C89642   9.219   3.708   1.436 -0.4595 -0.2360 -0.8360
  665MOL0     O89643   9.297   3.724   1.550  0.1841 -0.3034 -0.2204
  665MOL0     C89644   9.441   3.706   1.542 -0.7201  0.5139 -0.0455
  665MOL0     C89645   9.499   3.583   1.569 -1.0240  0.2300  0.0851
  665MOL0     C89646   9.636   3.568   1.571  0.1490 -0.1487  0.6316
  665MOL0     C89647   9.717   3.667   1.527 -0.9151 -0.6517  0.0865
  665MOL0     O89648   9.855   3.659   1.502 -0.2967 -0.9497 -0.7401
  665MOL0     C89649   9.929   3.531   1.504  0.8575 -0.6513  0.6498
  665MOL0     C89650  10.077   3.549   1.502 -1.2932 -0.0485  0.2766
  665MOL0     C89651  10.108   3.598   1.360 -1.3384 -0.5616 -0.2709
  665MOL0     C89652  10.255   3.611   1.334 -1.2395 -0.1159  0.0338
  665MOL0     C89653  10.278   3.693   1.200 -0.5923  0.6044 -0.2643
  665MOL0     C89654  10.424   3.738   1.192  0.4912  0.4484 -0.1104
  665MOL0     C89655  10.454   3.803   1.056 -0.6410  0.3740 -1.2580
  665MOL0     C89656  10.604   3.845   1.045 -0.5401 -0.7776  0.2666
  665MOL0     N89657  10.650   3.881   0.911 -0.1989 -0.3237  0.5740
  665MOL0     C89658  10.576   3.926   0.798  0.2651 -0.2170  0.1338
  665MOL0     C89659  10.661   3.955   0.691 -0.3101  0.3387 -0.4997
  665MOL0     C89660  10.639   3.999   0.545 -0.5738  0.0452  0.3862
  665MOL0     C89661  10.626   4.151   0.549  0.6872 -0.4111  0.5308
  665MOL0     C89662  10.581   4.213   0.418 -0.6489 -0.1526 -0.4108
  665MOL0     C89663  10.433   4.248   0.420 -0.0451 -0.7790  0.2939
  665MOL0     O89664  10.351   4.131   0.426 -0.2769  0.1190  0.6597
  665MOL0     C89665  10.339   4.044   0.322 -0.0540  0.1634  0.6547
  665MOL0     C89666  10.407   4.055   0.198  0.0216 -0.0272 -0.6920
  665MOL0     C89667  10.397   3.957   0.100 -0.1833  0.1174 -0.4345
  665MOL0     C89668  10.333   3.836   0.135  0.8405  0.6961  0.5083
  665MOL0     C89669  10.319   3.727   0.030 -0.6773 -0.9735  0.6161
  665MOL0     O89670  10.276   3.602   0.079 -0.0578 -0.2219 -0.0711
  665MOL0     C89671  10.244   3.502  -0.013  0.2732  0.2068 -0.3275
  665MOL0     C89672  10.321   3.447  -0.116 -0.0287  0.1078 -0.6623
  665MOL0     C89673  10.274   3.336  -0.186  0.2153  0.0094  0.0177
  665MOL0     C89674  10.148   3.286  -0.167 -0.2745  0.3305 -0.1733
  665MOL0     O89675  10.115   3.175  -0.230 -0.1515  0.6604 -0.1243
  665MOL0     C89676   9.979   3.145  -0.253  0.9333  0.0037  0.4754
  665MOL0     C89677   9.977   3.033  -0.351  0.4092 -0.5257  0.7315
  665MOL0     C89678  10.021   3.083  -0.494 -0.7684 -0.8218  0.9646
  665MOL0     C89679  10.006   2.978  -0.604  0.5789  0.8112 -0.2016
  665MOL0     C89680   9.995   3.033  -0.737 -0.2424 -0.5951 -1.8103
  665MOL0     C89681  10.131   3.085  -0.792 -1.0507  0.2338  0.6170
  665MOL0     C89682  10.117   3.162  -0.930  0.1611 -0.5538  0.3245
  665MOL0     C89683  10.247   3.240  -0.973  0.7411  0.2338  0.9218
  665MOL0    Cl89684  10.235   3.326  -1.134  0.0902 -0.0169  0.0286
  665MOL0     C89685  10.073   3.344  -0.066  0.2096 -0.4244  0.4524
  665MOL0     C89686  10.120   3.447   0.005  0.5583  0.3972 -0.3372
  665MOL0     O89687  10.330   3.756  -0.095 -0.0295  0.4803 -0.6465
  665MOL0     C89688  10.269   3.822   0.262 -0.3400 -0.8694  0.8755
  665MOL0     C89689  10.287   3.924   0.353 -0.4397  0.0435  0.4176
  665MOL0     N89690  10.789   3.920   0.746 -0.0832 -0.8418  0.1635
  665MOL0     N89691  10.780   3.895   0.870 -0.4546 -0.1859  0.7292
  665MOL0     C89692   9.658   3.794   1.503 -0.3448  0.8022  0.0582
  665MOL0     C89693   9.522   3.811   1.513  0.6774  0.1983 -0.3032
  665MOL0     C89694   9.078   3.696   1.449  0.5949 -0.6893  0.8426
  665MOL0     C89695   8.993   3.738   1.345 -0.6920  1.4329 -0.3054
  665MOL0     C89696   8.847   3.731   1.345 -0.8391 -1.2150  0.9576
  665MOL0     C89697   8.788   3.679   1.456  0.5093 -0.0462  0.6745
  665MOL0     O89698   8.650   3.670   1.460  0.1041 -0.0985  0.4339
  665MOL0     C89699   8.600   3.566   1.375  0.1618  0.3515  0.1357
  665MOL0     C89700   8.461   3.529   1.418  1.1839 -0.2277  0.3543
  665MOL0     C89701   8.348   3.637   1.401 -0.8007  0.2543 -0.0183
  665MOL0     C89702   8.198   3.597   1.434 -0.5625  0.3324  0.9398
  665MOL0     C89703   8.136   3.540   1.310 -0.2464 -0.7887  0.1630
  665MOL0     C89704   8.092   3.510   1.199 -0.0593  1.2658 -0.0685
  665MOL0     C89705   8.860   3.651   1.568 -0.2476 -0.4424  0.2911
  665MOL0     C89706   9.006   3.655   1.569 -0.3121 -0.1891 -0.2254
  665MOL0     C89707   9.069   3.612   1.707 -0.4875 -0.3899  0.8588
  665MOL0     H89708   9.438   3.499   1.602  0.7758 -0.9577  0.4997
  665MOL0     H89709   9.679   3.470   1.589 -0.1025 -0.6537 -1.2933
  665MOL0     H89710   9.909   3.472   1.594  0.4116 -2.3380 -0.5060
  665MOL0     H89711   9.894   3.468   1.421  0.2161  0.7177 -0.1606
  665MOL0     H89712  10.128   3.455   1.528  0.8589 -0.3748 -4.0342
  665MOL0     H89713  10.099   3.624   1.578 -3.6968  1.0660 -0.0479
  665MOL0     H89714  10.063   3.697   1.349 -1.7725 -0.9202 -1.9619
  665MOL0     H89715  10.064   3.537   1.281  0.4308  1.0549 -2.6378
  665MOL0     H89716  10.306   3.664   1.416 -1.4340 -0.5083  0.4126
  665MOL0     H89717  10.300   3.513   1.312 -1.0452  0.3135 -1.6016
  665MOL0     H89718  10.254   3.632   1.112  0.9138  0.5915 -0.6909
  665MOL0     H89719  10.207   3.776   1.191 -0.3262  0.6772 -2.0830
  665MOL0     H89720  10.439   3.806   1.276  1.6300 -1.1315  1.0295
  665MOL0     H89721  10.492   3.654   1.209 -0.5040 -0.2079  0.7862
  665MOL0     H89722  10.393   3.893   1.039  2.4601  3.2759  1.4239
  665MOL0     H89723  10.424   3.728   0.982 -0.3364  0.2382 -1.2426
  665MOL0     H89724  10.623   3.938   1.100  0.5196  0.4253 -2.0186
  665MOL0     H89725  10.674   3.772   1.087  0.2977  0.4754  1.1324
  665MOL0     H89726  10.470   3.945   0.803  0.5151  2.3302 -1.9208
  665MOL0     H89727  10.730   3.970   0.492 -1.3184  0.6742 -1.3070
  665MOL0     H89728  10.553   3.954   0.495 -0.9634  1.1247  0.0553
  665MOL0     H89729  10.557   4.187   0.626  0.1892  0.7996 -0.4463
  665MOL0     H89730  10.724   4.191   0.578  0.0999  1.0386  0.6084
  665MOL0     H89731  10.616   4.152   0.334  2.9511 -0.5857  1.2029
  665MOL0     H89732  10.644   4.301   0.405  0.1392 -0.7374 -0.6272
  665MOL0     H89733  10.400   4.304   0.333  0.7114 -1.8359 -0.7080
  665MOL0     H89734  10.394   4.309   0.502  0.2965  0.2448 -0.2968
  665MOL0     H89735  10.435   4.155   0.169 -2.2822  0.6069 -0.9206
  665MOL0     H89736  10.446   3.980   0.006  0.1493  2.3325  0.2122
  665MOL0     H89737  10.417   3.496  -0.132  0.0837  0.0594 -0.1537
  665MOL0     H89738  10.342   3.299  -0.262  1.0434 -0.1251  0.8085
  665MOL0     H89739   9.926   3.103  -0.167 -0.1522 -0.8458 -0.5724
  665MOL0     H89740   9.930   3.231  -0.300 -2.0439 -3.1289 -2.7084
  665MOL0     H89741  10.048   2.959  -0.312  3.2325  0.9982 -1.1163
  665MOL0     H89742   9.875   2.995  -0.357  0.0860  0.3485  0.5097
  665MOL0     H89743   9.979   3.178  -0.527 -1.5232 -1.6130 -0.5058
  665MOL0     H89744  10.129   3.100  -0.496  0.0403 -4.0937 -4.4064
  665MOL0     H89745   9.910   2.928  -0.588  0.4599 -0.0553 -3.1566
  665MOL0     H89746  10.087   2.906  -0.594  0.7512  1.0836  0.4637
  665MOL0     H89747   9.926   3.118  -0.738 -0.4436 -0.6849  0.2643
  665MOL0     H89748   9.942   2.968  -0.808 -3.9491 -1.8492  1.6846
  665MOL0     H89749  10.177   3.150  -0.717  2.4404 -1.9840  0.6451
  665MOL0     H89750  10.204   3.005  -0.812  0.3752  1.9036 -1.2717
  665MOL0     H89751  10.048   3.247  -0.930  1.6167  0.6818 -1.2181
  665MOL0     H89752  10.095   3.085  -1.004  3.5819 -0.9739 -0.4011
  665MOL0     H89753  10.269   3.302  -0.886  2.0679  2.1709 -0.6988
  665MOL0     H89754  10.320   3.160  -0.990  0.5415  0.7710 -4.2178
  665MOL0     H89755   9.972   3.309  -0.046 -0.1968 -1.7228 -3.2029
  665MOL0     H89756  10.054   3.493   0.077 -0.4887 -0.4027 -0.7678
  665MOL0     H89757  10.220   3.732   0.295  1.0913 -1.9924  0.0832
  665MOL0     H89758  10.240   3.914   0.450 -0.5847  0.4874  0.3946
  665MOL0     H89759   9.724   3.869   1.460 -1.9405  1.3465 -1.5474
  665MOL0     H89760   9.473   3.899   1.472 -1.9039 -0.8270  0.3863
  665MOL0     H89761   9.037   3.782   1.256  1.0142  1.1991  0.3890
  665MOL0     H89762   8.786   3.763   1.261 -1.1659  2.4169  2.4235
  665MOL0     H89763   8.671   3.483   1.383 -0.1580 -0.1624 -1.9653
  665MOL0     H89764   8.601   3.599   1.271  2.8579  0.7629  0.2030
  665MOL0     H89765   8.461   3.502   1.524  1.3809  2.7956  1.2150
  665MOL0     H89766   8.433   3.443   1.358  0.4008  1.0403 -1.1734
  665MOL0     H89767   8.351   3.681   1.301  2.2050 -1.0425 -0.6110
  665MOL0     H89768   8.377   3.721   1.464 -0.1075  0.6757 -0.8860
  665MOL0     H89769   8.189   3.524   1.514 -1.6283  0.1402  0.6721
  665MOL0     H89770   8.151   3.690   1.466  0.2301  0.2297  2.4491
  665MOL0     H89771   8.052   3.477   1.105  0.4005  2.0358 -0.5510
  665MOL0     H89772   8.815   3.608   1.657  1.0241 -0.6673  0.8358
  665MOL0     H89773   9.167   3.567   1.690 -0.7217 -0.3670 -0.7179
  665MOL0     H89774   9.075   3.695   1.778  0.6565  0.5676 -0.3103
  665MOL0     H89775   9.004   3.531   1.742 -1.1282 -0.4035 -0.2883
  666MOL0     O89776   8.818   8.961   7.498  0.0841 -0.2391  0.1929
  666MOL0     C89777   8.882   8.864   7.464  0.2697 -0.0287 -0.7129
  666MOL0     O89778   8.827   8.742   7.425  0.1057  0.6262 -0.3265
  666MOL0     C89779   8.685   8.722   7.432 -0.0436  0.0675 -0.4488
  666MOL0     C89780   8.622   8.621   7.518 -0.4425  0.0861 -0.1287
  666MOL0     C89781   8.491   8.592   7.498 -0.3372  0.6379 -0.0842
  666MOL0     C89782   8.410   8.657   7.404 -0.3042  0.0769 -0.1190
  666MOL0     O89783   8.277   8.621   7.413  0.4005  0.0919 -0.6942
  666MOL0     C89784   8.190   8.732   7.375 -0.6080  0.2333 -0.4485
  666MOL0     C89785   8.047   8.708   7.425 -0.9223 -0.0150 -0.3391
  666MOL0     C89786   7.972   8.830   7.398  0.6064 -0.2701 -0.2995
  666MOL0     C89787   7.820   8.801   7.416 -0.0065 -0.1802 -0.1031
  666MOL0     C89788   7.734   8.934   7.415  0.0152 -1.0403  0.1821
  666MOL0     C89789   7.764   9.034   7.522  0.8686 -0.0653  0.6672
  666MOL0     C89790   7.680   9.163   7.517 -0.2107  0.3717 -0.1120
  666MOL0     C89791   7.705   9.274   7.629  0.0382  0.4242 -0.6660
  666MOL0     N89792   7.830   9.342   7.614  0.4656  0.9333 -0.3577
  666MOL0     C89793   7.842   9.470   7.585 -0.9350 -0.0083  0.6191
  666MOL0     C89794   7.976   9.486   7.585  0.1190 -0.0897  0.6415
  666MOL0     C89795   8.045   9.624   7.572 -0.0211 -0.4353 -0.2034
  666MOL0     C89796   8.192   9.590   7.545  0.1428 -0.0262  0.1012
  666MOL0     C89797   8.258   9.717   7.498  0.7292  0.0748 -0.3514
  666MOL0     C89798   8.407   9.691   7.465  0.8968 -1.2604  0.2804
  666MOL0     O89799   8.427   9.794   7.366  0.6074  0.4651  0.4153
  666MOL0     C89800   8.542   9.784   7.289  0.5396  0.0355 -0.0102
  666MOL0     C89801   8.642   9.688   7.316 -1.4858  0.6990 -0.2662
  666MOL0     C89802   8.774   9.698   7.270  0.2793 -0.6891 -0.0194
  666MOL0     C89803   8.807   9.811   7.195 -0.5303 -0.2620  0.2083
  666MOL0     C89804   8.935   9.819   7.128  0.5008 -0.7527 -0.0411
  666MOL0     O89805   9.005   9.704   7.122  0.5152  0.4719 -0.0124
  666MOL0     C89806   9.089   9.697   7.012 -0.3539  0.9889 -0.6968
  666MOL0     C89807   9.221   9.681   7.046  0.3564  0.3103  0.6910
  666MOL0     C89808   9.316   9.674   6.939 -0.1487 -0.5922  0.5078
  666MOL0     C89809   9.282   9.654   6.808 -0.3289  0.5976  0.2679
  666MOL0     O89810   9.375   9.641   6.704  0.2447 -0.2832  0.1434
  666MOL0     C89811   9.506   9.672   6.726 -0.6454  0.0106 -1.0013
  666MOL0     C89812   9.584   9.653   6.590  0.2190  0.7010 -0.3097
  666MOL0     C89813   9.737   9.667   6.621  1.1229 -0.4258 -0.5885
  666MOL0     C89814   9.804   9.667   6.484 -0.0968  0.5406  0.2578
  666MOL0     C89815   9.953   9.662   6.478 -0.9224 -0.1234  0.1227
  666MOL0     C89816  10.000   9.637   6.328  0.3224  0.1189  0.1693
  666MOL0     C89817  10.149   9.638   6.325  1.1781  0.4948 -0.8071
  666MOL0     C89818  10.190   9.578   6.196 -0.6215  0.3977  0.8030
  666MOL0    Cl89819  10.369   9.552   6.192  0.4371 -0.3371 -0.0198
  666MOL0     C89820   9.153   9.670   6.774  0.3470  0.2189  0.2657
  666MOL0     C89821   9.055   9.689   6.874  0.5250  0.5361  0.3326
  666MOL0     O89822   8.975   9.922   7.069  0.3951 -0.3477  0.0727
  666MOL0     C89823   8.706   9.907   7.160 -0.4063 -0.8044  0.1334
  666MOL0     C89824   8.575   9.894   7.206 -0.2121  0.0040 -1.2374
  666MOL0     N89825   8.040   9.372   7.619  0.2733 -0.2835 -0.2256
  666MOL0     N89826   7.950   9.277   7.632  0.1272  0.7866  0.9826
  666MOL0     C89827   8.470   8.746   7.320  0.1012 -0.4333  0.3253
  666MOL0     C89828   8.609   8.772   7.327  0.1585  0.4975  0.0319
  666MOL0     C89829   9.032   8.876   7.456  0.4720  0.2680 -0.8657
  666MOL0     C89830   9.105   8.767   7.510 -0.3067 -0.1356 -1.2088
  666MOL0     C89831   9.235   8.788   7.538 -0.6491  0.0083 -0.3768
  666MOL0     C89832   9.293   8.915   7.525  0.1844 -0.3197  0.6378
  666MOL0     O89833   9.423   8.914   7.563 -0.0370  0.1390  0.4994
  666MOL0     C89834   9.515   8.985   7.477  0.6532 -0.8924 -0.8299
  666MOL0     C89835   9.531   8.905   7.342 -0.5192  0.6795 -0.1332
  666MOL0     C89836   9.655   8.939   7.261 -0.0257  0.3653  0.2519
  666MOL0     C89837   9.673   8.849   7.141  0.3924  0.5094  0.5439
  666MOL0     C89838   9.809   8.859   7.096 -0.1029 -1.2169  0.2505
  666MOL0     C89839   9.927   8.860   7.057  0.2226 -0.5143 -0.0830
  666MOL0     C89840   9.226   9.022   7.461  0.2204  0.1161 -0.2290
  666MOL0     C89841   9.095   9.002   7.430  0.4790  0.6552 -0.0050
  666MOL0     C89842   9.026   9.114   7.365  0.9275 -0.8803  0.0932
  666MOL0     H89843   8.690   8.557   7.574  1.6435  1.1779 -1.3154
  666MOL0     H89844   8.435   8.517   7.552 -0.1768  1.6896  1.5985
  666MOL0     H89845   8.223   8.822   7.428  0.2373  0.7860 -1.8648
  666MOL0     H89846   8.192   8.730   7.266  0.0056 -2.1657 -0.4616
  666MOL0     H89847   8.042   8.678   7.530 -0.8002  1.2286  0.0401
  666MOL0     H89848   8.018   8.625   7.360  0.9326 -0.8310 -0.1732
  666MOL0     H89849   7.990   8.857   7.293  2.4904 -0.2906 -0.0113
  666MOL0     H89850   7.994   8.906   7.473 -0.3411  2.3847 -2.5256
  666MOL0     H89851   7.791   8.734   7.334  1.7219  0.8579 -1.6325
  666MOL0     H89852   7.800   8.763   7.517  1.2419 -0.3588  0.0905
  666MOL0     H89853   7.766   8.992   7.328 -1.6325 -2.2327 -1.2968
  666MOL0     H89854   7.627   8.912   7.418 -0.3106  0.4051  0.1787
  666MOL0     H89855   7.751   8.988   7.621 -2.7939 -0.0012  0.3457
  666MOL0     H89856   7.866   9.070   7.506  0.4435 -0.1165 -2.8883
  666MOL0     H89857   7.574   9.145   7.502 -0.2501  0.8155 -0.3924
  666MOL0     H89858   7.712   9.207   7.422  0.4027 -1.6454 -0.8946
  666MOL0     H89859   7.622   9.346   7.625  0.0385  0.4088 -0.9900
  666MOL0     H89860   7.695   9.241   7.733  1.8101  1.2323 -0.2021
  666MOL0     H89861   7.764   9.545   7.581 -0.5466  0.3891  0.4524
  666MOL0     H89862   7.994   9.681   7.494  1.3613 -0.4404 -1.1516
  666MOL0     H89863   8.038   9.680   7.665  1.8437  1.3652 -1.0676
  666MOL0     H89864   8.248   9.573   7.637  2.3313  2.1277 -0.7351
  666MOL0     H89865   8.200   9.508   7.472  2.5021 -1.5823  1.9562
  666MOL0     H89866   8.253   9.790   7.579  0.3887  0.1234 -0.4187
  666MOL0     H89867   8.209   9.760   7.411  2.5502 -0.0988 -1.5190
  666MOL0     H89868   8.422   9.589   7.427  2.5873  0.1236 -3.3077
  666MOL0     H89869   8.470   9.714   7.551  2.8228  2.5508 -1.8506
  666MOL0     H89870   8.620   9.612   7.390  0.5990  1.0257  0.7625
  666MOL0     H89871   8.852   9.626   7.296  0.9980  0.4277  1.0083
  666MOL0     H89872   9.260   9.689   7.147  0.9514  0.0456  0.4893
  666MOL0     H89873   9.421   9.680   6.967 -0.5317  2.4534  1.7555
  666MOL0     H89874   9.516   9.765   6.783  0.4243 -0.2723 -0.7192
  666MOL0     H89875   9.562   9.600   6.787  2.3697  1.0309 -2.3782
  666MOL0     H89876   9.566   9.555   6.545 -1.3660  0.5137  0.6375
  666MOL0     H89877   9.556   9.732   6.520 -1.8113  0.6921  0.4353
  666MOL0     H89878   9.758   9.763   6.670  0.6320  0.2208 -1.6141
  666MOL0     H89879   9.778   9.595   6.692 -0.4561  1.3058  2.3262
  666MOL0     H89880   9.769   9.755   6.429  2.0430 -0.1347 -2.3954
  666MOL0     H89881   9.765   9.584   6.424 -0.9907  1.9708 -1.2146
  666MOL0     H89882   9.996   9.582   6.540  0.5156  1.7485  1.6711
  666MOL0     H89883   9.995   9.758   6.511  1.5994 -2.3510  4.3176
  666MOL0     H89884   9.953   9.547   6.286  0.3730 -0.7852  1.9718
  666MOL0     H89885   9.970   9.720   6.264  0.6410 -1.5072 -2.2369
  666MOL0     H89886  10.188   9.575   6.405  1.0090  1.7787  0.3130
  666MOL0     H89887  10.172   9.743   6.345  1.3203 -0.0407  2.2522
  666MOL0     H89888  10.135   9.486   6.178  0.5778 -0.7957  2.8670
  666MOL0     H89889  10.166   9.640   6.109 -0.7681  1.9471  1.9028
  666MOL0     H89890   9.130   9.664   6.668 -2.9708  1.7755  0.7589
  666MOL0     H89891   8.950   9.678   6.850  0.1478 -0.7699  2.3344
  666MOL0     H89892   8.729   9.991   7.095  1.9563 -0.3428  1.4593
  666MOL0     H89893   8.507   9.979   7.200 -2.8693 -2.0780 -2.5754
  666MOL0     H89894   8.406   8.793   7.247 -0.9100  2.2085  2.7230
  666MOL0     H89895   8.656   8.843   7.260 -0.1584  1.0051  0.3441
  666MOL0     H89896   9.071   8.664   7.511  0.5281 -0.4194 -0.9535
  666MOL0     H89897   9.287   8.704   7.582 -0.1532 -0.2988 -1.5091
  666MOL0     H89898   9.609   8.999   7.531 -1.6330  2.3157  2.8106
  666MOL0     H89899   9.486   9.089   7.461  0.0279 -0.8862  0.2556
  666MOL0     H89900   9.443   8.921   7.280 -0.4879  0.0754 -0.3398
  666MOL0     H89901   9.545   8.801   7.373 -4.0900 -0.0581 -0.5158
  666MOL0     H89902   9.742   8.920   7.324  2.3974  3.7912 -1.7507
  666MOL0     H89903   9.652   9.046   7.239  1.4992  1.7524  5.4197
  666MOL0     H89904   9.656   8.747   7.178 -0.5480  1.5448  3.2036
  666MOL0     H89905   9.606   8.869   7.056 -1.1713  1.0966  1.8713
  666MOL0     H89906  10.028   8.861   7.022  0.8021 -0.9173  1.4858
  666MOL0     H89907   9.265   9.124   7.461 -0.2860  0.3249  0.7110
  666MOL0     H89908   8.968   9.069   7.283 -1.6244  2.4770 -0.1442
  666MOL0     H89909   8.949   9.171   7.418  0.9167 -0.0046 -0.8287
  666MOL0     H89910   9.100   9.173   7.311  1.3824 -0.4910  1.1280
  667MOL0     O89911   2.458   2.976   1.226 -0.2188 -0.5516 -0.9091
  667MOL0     C89912   2.468   2.868   1.270  0.3293  0.5643 -0.4729
  667MOL0     O89913   2.575   2.817   1.328 -0.2207 -0.1351 -0.4190
  667MOL0     C89914   2.686   2.906   1.312  0.3985  0.8778  0.5223
  667MOL0     C89915   2.772   2.898   1.190  0.0697 -0.3532 -1.0936
  667MOL0     C89916   2.880   2.984   1.173 -0.1753  0.0844  0.2991
  667MOL0     C89917   2.899   3.087   1.257  0.2550  0.5942 -0.2936
  667MOL0     O89918   2.992   3.177   1.217 -0.2851  0.4564 -0.2241
  667MOL0     C89919   3.015   3.305   1.295  0.0615 -0.3684 -0.1672
  667MOL0     C89920   2.924   3.419   1.258  0.7932 -0.9205  0.0025
  667MOL0     C89921   2.956   3.556   1.326  0.2929 -0.3857 -0.3097
  667MOL0     C89922   3.085   3.614   1.275  0.7389  0.9489  0.7211
  667MOL0     C89923   3.121   3.752   1.342  0.0743 -0.8846 -0.5435
  667MOL0     C89924   3.011   3.861   1.326  0.3942  0.3399 -0.0396
  667MOL0     C89925   3.060   3.978   1.408 -0.7528  0.3658 -1.0048
  667MOL0     C89926   2.946   4.084   1.431 -0.7061 -0.6337 -1.4020
  667MOL0     N89927   3.001   4.202   1.491  0.7796  0.2487  0.0157
  667MOL0     C89928   3.089   4.292   1.437  0.1900  0.4637  0.0783
  667MOL0     C89929   3.087   4.399   1.521  0.1042  0.4742 -0.1539
  667MOL0     C89930   3.152   4.531   1.516  0.3042  0.7922 -0.1196
  667MOL0     C89931   3.250   4.541   1.626  0.2216  0.2503  0.5905
  667MOL0     C89932   3.358   4.657   1.602 -0.0989  0.6642 -0.2941
  667MOL0     C89933   3.479   4.623   1.684  0.4034 -0.8390  0.0624
  667MOL0     O89934   3.584   4.707   1.649 -0.1211  0.1161  0.0298
  667MOL0     C89935   3.711   4.677   1.698 -0.7845 -0.0891  0.5613
  667MOL0     C89936   3.736   4.585   1.806 -0.2512 -0.7996 -0.2357
  667MOL0     C89937   3.864   4.566   1.849  0.3664  0.8417 -0.2627
  667MOL0     C89938   3.975   4.611   1.774 -0.0360  0.7624 -0.5633
  667MOL0     C89939   4.109   4.559   1.799 -0.3418 -0.2241  0.1553
  667MOL0     O89940   4.196   4.577   1.690 -0.7805 -0.8446 -0.1605
  667MOL0     C89941   4.326   4.542   1.706 -0.1480 -0.0310  0.4054
  667MOL0     C89942   4.410   4.571   1.816  0.1980  0.7327 -0.1237
  667MOL0     C89943   4.547   4.542   1.806 -0.4977  0.3141  0.6690
  667MOL0     C89944   4.606   4.489   1.687 -0.3019 -0.4823  0.4468
  667MOL0     O89945   4.736   4.473   1.677  0.4344  0.3583  0.2168
  667MOL0     C89946   4.813   4.458   1.798 -0.1351  0.3521 -0.0929
  667MOL0     C89947   4.954   4.407   1.757  0.2159 -0.2110  0.4063
  667MOL0     C89948   5.003   4.473   1.626  0.8126  0.4943  0.6965
  667MOL0     C89949   5.148   4.456   1.598 -0.1703  0.0232  0.8171
  667MOL0     C89950   5.186   4.551   1.479 -1.0001  0.1255  0.2399
  667MOL0     C89951   5.329   4.547   1.426  0.1459  0.4092 -0.1714
  667MOL0     C89952   5.343   4.626   1.294 -0.0955 -0.4277  0.5612
  667MOL0     C89953   5.493   4.657   1.267  0.0631 -0.1323  0.7004
  667MOL0    Cl89954   5.499   4.785   1.129  0.1582  0.1396 -0.1462
  667MOL0     C89955   4.518   4.463   1.578 -0.7405 -0.1107  0.8088
  667MOL0     C89956   4.381   4.479   1.588  0.8394  0.8356  0.8928
  667MOL0     O89957   4.139   4.514   1.912  0.3190 -1.4068  0.1245
  667MOL0     C89958   3.946   4.701   1.670 -0.9479 -0.2927 -0.2516
  667MOL0     C89959   3.816   4.741   1.636 -0.4509 -0.3579  0.7148
  667MOL0     N89960   3.015   4.364   1.628 -0.2562  0.3513  0.1590
  667MOL0     N89961   2.951   4.254   1.604 -0.4449  0.4918  0.4334
  667MOL0     C89962   2.822   3.094   1.377  0.4020  0.2501 -0.8805
  667MOL0     C89963   2.716   3.008   1.409 -0.4236  0.1655  0.0849
  667MOL0     C89964   2.346   2.783   1.282 -0.1031  0.2470 -0.7829
  667MOL0     C89965   2.368   2.649   1.331 -0.0293  0.1229 -0.0474
  667MOL0     C89966   2.263   2.557   1.364  0.0472  0.3736 -0.1921
  667MOL0     C89967   2.131   2.590   1.331  0.2577  0.7214  0.9120
  667MOL0     O89968   2.035   2.494   1.343 -0.1447  0.4154 -0.4003
  667MOL0     C89969   1.903   2.540   1.391  0.3404 -0.3266  0.7019
  667MOL0     C89970   1.788   2.472   1.315  0.1015  0.7731  0.2525
  667MOL0     C89971   1.794   2.318   1.352  0.5752  0.3948  0.6929
  667MOL0     C89972   1.660   2.238   1.302 -0.4288 -0.1934  0.4825
  667MOL0     C89973   1.663   2.094   1.318  0.5019 -1.0290  0.6071
  667MOL0     C89974   1.662   1.972   1.333  0.2173  1.2152 -0.3113
  667MOL0     C89975   2.114   2.718   1.275  0.1055  1.0538  0.3304
  667MOL0     C89976   2.215   2.816   1.260  0.9236  0.4244 -0.4545
  667MOL0     C89977   2.176   2.947   1.208 -0.1045  0.3255 -0.3778
  667MOL0     H89978   2.766   2.812   1.125  1.2754 -2.0747  0.9249
  667MOL0     H89979   2.942   2.979   1.083 -1.1480 -0.2269 -0.3638
  667MOL0     H89980   3.024   3.290   1.403  1.3586 -2.0923 -0.4742
  667MOL0     H89981   3.113   3.336   1.257  1.4275  1.0332  3.9720
  667MOL0     H89982   2.818   3.395   1.269  0.2218  0.7080 -1.6646
  667MOL0     H89983   2.946   3.424   1.151 -0.0757 -2.5892 -0.2992
  667MOL0     H89984   2.957   3.554   1.436 -1.1554 -0.0328 -0.2677
  667MOL0     H89985   2.881   3.630   1.297 -1.2053 -0.7472  2.3074
  667MOL0     H89986   3.159   3.536   1.293 -1.8538 -2.3924 -1.7138
  667MOL0     H89987   3.086   3.624   1.166  2.7598  3.1651  0.8621
  667MOL0     H89988   3.136   3.732   1.449  0.9958 -0.6519 -0.6249
  667MOL0     H89989   3.214   3.793   1.302  1.4686 -3.0764  0.2458
  667MOL0     H89990   2.991   3.896   1.224 -2.2041  0.4332  0.4453
  667MOL0     H89991   2.922   3.834   1.384  0.2558 -0.1401 -0.4661
  667MOL0     H89992   3.137   4.031   1.352 -0.3358  2.0597  1.0163
  667MOL0     H89993   3.107   3.946   1.501  2.3932 -0.5772 -2.7804
  667MOL0     H89994   2.899   4.098   1.333  0.7191  2.6996 -1.7509
  667MOL0     H89995   2.872   4.041   1.499  2.1363 -0.2474  2.2259
  667MOL0     H89996   3.136   4.283   1.340  1.0952  2.1476  0.3354
  667MOL0     H89997   3.198   4.530   1.417  3.7929 -1.3733  1.3488
  667MOL0     H89998   3.072   4.603   1.537 -2.3406 -2.1455  0.5913
  667MOL0     H89999   3.192   4.547   1.718  1.1348 -3.3178  1.5650
  667MOL0     H90000   3.307   4.447   1.630  1.3499  0.8257 -0.9069
  667MOL0     H90001   3.320   4.754   1.637 -3.1077 -0.7283  0.6174
  667MOL0     H90002   3.380   4.669   1.496 -1.2743  2.2766 -0.3907
  667MOL0     H90003   3.505   4.518   1.667 -2.5203 -1.7545  0.7033
  667MOL0     H90004   3.460   4.637   1.791  1.1897 -0.4639  0.1605
  667MOL0     H90005   3.647   4.542   1.851 -0.1180  1.3168  2.2367
  667MOL0     H90006   3.876   4.506   1.939  1.2688 -0.3814 -1.1515
  667MOL0     H90007   4.373   4.629   1.900  1.0395  2.3324 -0.8155
  667MOL0     H90008   4.604   4.576   1.892 -3.0204  2.3253  1.6706
  667MOL0     H90009   4.818   4.547   1.862  0.0097  1.2576 -1.3130
  667MOL0     H90010   4.784   4.371   1.858  1.5716 -1.5114 -1.8407
  667MOL0     H90011   5.023   4.433   1.838  0.1486 -0.4805  0.5499
  667MOL0     H90012   4.940   4.299   1.752  0.3901 -0.2844  1.4198
  667MOL0     H90013   4.948   4.431   1.541  1.5118 -1.8722  1.3278
  667MOL0     H90014   4.986   4.580   1.642  1.2383  0.3168  2.5375
  667MOL0     H90015   5.175   4.352   1.576 -2.0060 -0.9346  2.6908
  667MOL0     H90016   5.203   4.485   1.688  1.8104  0.2199 -0.3977
  667MOL0     H90017   5.181   4.656   1.508  0.8118 -0.1295  1.7083
  667MOL0     H90018   5.114   4.535   1.398  1.4342  0.5254 -2.1591
  667MOL0     H90019   5.400   4.572   1.506  2.9112 -4.4052 -0.7691
  667MOL0     H90020   5.351   4.443   1.403 -0.8139  0.0725  0.4158
  667MOL0     H90021   5.280   4.715   1.291 -2.3464 -1.9531  0.7003
  667MOL0     H90022   5.305   4.570   1.208 -0.1576 -1.6294  1.3464
  667MOL0     H90023   5.545   4.693   1.356 -1.4174 -3.1160  2.9641
  667MOL0     H90024   5.540   4.564   1.235  0.1734 -0.2593  1.2160
  667MOL0     H90025   4.541   4.432   1.476 -3.1842 -1.3605  0.5573
  667MOL0     H90026   4.312   4.461   1.506  1.1253  1.5226  0.5005
  667MOL0     H90027   4.025   4.740   1.606 -2.0632  0.5438 -1.1509
  667MOL0     H90028   3.792   4.811   1.556 -0.9295  5.5414  5.3097
  667MOL0     H90029   2.841   3.170   1.452 -0.1630  0.5761 -1.0642
  667MOL0     H90030   2.651   3.022   1.495  1.8158 -0.0616  1.9047
  667MOL0     H90031   2.471   2.614   1.335 -0.7257 -1.9526  2.2354
  667MOL0     H90032   2.288   2.459   1.403 -0.2650  0.7833  1.0696
  667MOL0     H90033   1.893   2.648   1.381 -1.8023 -0.4541  0.9624
  667MOL0     H90034   1.896   2.522   1.499 -3.3463  2.0551  1.0519
  667MOL0     H90035   1.797   2.490   1.207  0.0452  2.8954  0.5567
  667MOL0     H90036   1.698   2.522   1.354 -2.5223 -3.0378 -0.4011
  667MOL0     H90037   1.811   2.296   1.458  1.3750 -3.3528 -0.0928
  667MOL0     H90038   1.879   2.266   1.308 -0.5944  0.1976 -1.4820
  667MOL0     H90039   1.575   2.273   1.361 -0.7494 -0.1409 -0.0032
  667MOL0     H90040   1.636   2.276   1.202  2.3937 -0.7565 -0.4880
  667MOL0     H90041   1.680   1.871   1.365  2.0235  0.9796 -1.8751
  667MOL0     H90042   2.013   2.738   1.240 -0.1908 -0.2151  0.4152
  667MOL0     H90043   2.237   2.978   1.123  1.7920  2.0635  1.5276
  667MOL0     H90044   2.070   2.932   1.184 -0.0957 -1.7002  0.6558
  667MOL0     H90045   2.195   3.020   1.286  0.6040  0.4910 -0.6936
  668MOL0     O90046   1.447   3.285   7.175  0.7413  0.0140 -0.3778
  668MOL0     C90047   1.416   3.400   7.208  0.4761 -0.0860  0.0175
  668MOL0     O90048   1.499   3.479   7.277  0.3268  0.6083  0.0077
  668MOL0     C90049   1.608   3.417   7.336 -0.0098 -0.4366  0.3390
  668MOL0     C90050   1.599   3.345   7.453  0.1561 -0.4271 -0.3816
  668MOL0     C90051   1.719   3.313   7.522  0.3122 -0.2607 -0.1707
  668MOL0     C90052   1.846   3.350   7.472 -0.5511  0.3018 -0.2138
  668MOL0     O90053   1.966   3.313   7.527  0.6361 -0.0701 -0.7040
  668MOL0     C90054   1.965   3.228   7.639 -0.3588 -0.1148  0.2698
  668MOL0     C90055   2.100   3.168   7.645  0.1567  0.8444 -0.1940
  668MOL0     C90056   2.156   3.078   7.524 -0.8565 -0.5965 -0.2706
  668MOL0     C90057   2.288   3.012   7.580  0.5422 -0.2067  0.5981
  668MOL0     C90058   2.361   2.955   7.459 -0.3179  0.3455 -0.6206
  668MOL0     C90059   2.478   2.858   7.487  0.0037 -0.0834  0.1306
  668MOL0     C90060   2.564   2.916   7.606 -0.3306 -0.1729 -0.2216
  668MOL0     C90061   2.698   2.836   7.627 -0.3758 -0.2688  0.4242
  668MOL0     N90062   2.802   2.876   7.526 -0.5704 -0.0747 -0.5122
  668MOL0     C90063   2.842   2.812   7.412  0.2192  0.4839  0.8279
  668MOL0     C90064   2.930   2.904   7.359 -0.7326  0.9607  0.1745
  668MOL0     C90065   3.022   2.877   7.245  0.0230 -0.5460  1.2175
  668MOL0     C90066   3.128   2.773   7.278  0.4206  0.1783 -0.1168
  668MOL0     C90067   3.210   2.812   7.393  0.6587  0.2022 -0.1189
  668MOL0     C90068   3.327   2.714   7.424 -0.1616  0.0249  0.6756
  668MOL0     O90069   3.424   2.728   7.318 -0.1223 -0.7653  0.3405
  668MOL0     C90070   3.560   2.705   7.340  0.2915 -0.0246 -0.1132
  668MOL0     C90071   3.640   2.683   7.221  0.5717  0.7037 -0.0122
  668MOL0     C90072   3.776   2.657   7.222 -0.2287  0.7352 -0.2277
  668MOL0     C90073   3.841   2.657   7.345 -0.5453  1.1813 -0.0688
  668MOL0     C90074   3.990   2.652   7.344  0.1412  0.0083 -1.4188
  668MOL0     O90075   4.047   2.626   7.465 -0.5515 -0.1908 -0.6511
  668MOL0     C90076   4.175   2.583   7.466  0.4505 -0.2257  0.2643
  668MOL0     C90077   4.273   2.684   7.474  0.2108 -0.3217 -0.8857
  668MOL0     C90078   4.407   2.660   7.458 -0.3108 -0.0674 -1.0430
  668MOL0     C90079   4.450   2.529   7.448  0.7034  0.5657 -0.2231
  668MOL0     O90080   4.583   2.493   7.432 -0.1302 -0.6877  0.0470
  668MOL0     C90081   4.626   2.352   7.430  1.0142  0.8534  0.0390
  668MOL0     C90082   4.783   2.351   7.445 -0.2790 -0.5693  0.0579
  668MOL0     C90083   4.835   2.398   7.583 -0.0050  0.0284 -0.0948
  668MOL0     C90084   4.976   2.378   7.603 -0.8094  1.2355  0.9078
  668MOL0     C90085   5.041   2.470   7.701  0.3134 -0.6209 -0.8763
  668MOL0     C90086   5.185   2.493   7.650 -0.0335  0.6197 -0.4612
  668MOL0     C90087   5.273   2.541   7.766 -0.8186 -0.2728  0.3576
  668MOL0     C90088   5.225   2.679   7.812 -1.1067 -0.0265  0.6679
  668MOL0    Cl90089   5.348   2.755   7.916 -0.0839 -0.0725  0.5594
  668MOL0     C90090   4.352   2.428   7.460  0.7296 -0.5676  1.0924
  668MOL0     C90091   4.216   2.451   7.471 -0.3444 -0.7112 -0.3861
  668MOL0     O90092   4.051   2.672   7.242 -0.0032  0.2033  0.9289
  668MOL0     C90093   3.763   2.665   7.462 -0.1280 -0.4351  0.2553
  668MOL0     C90094   3.628   2.691   7.463  0.3762  0.8901  0.6314
  668MOL0     N90095   2.929   3.018   7.439 -0.3735  0.1935  0.0990
  668MOL0     N90096   2.856   2.999   7.539 -0.1647 -1.4100  0.1578
  668MOL0     C90097   1.847   3.426   7.355 -0.0826  0.7124  0.7997
  668MOL0     C90098   1.732   3.447   7.282 -0.9171 -0.7441  0.1102
  668MOL0     C90099   1.297   3.474   7.154 -0.7022 -0.3084  1.2536
  668MOL0     C90100   1.305   3.609   7.138  0.4087 -0.2210 -0.9046
  668MOL0     C90101   1.201   3.673   7.063 -0.0475 -0.5141  0.0048
  668MOL0     C90102   1.081   3.603   7.017  0.1194  0.0805  0.5406
  668MOL0     O90103   0.963   3.651   6.959  0.5273  0.6689 -0.5483
  668MOL0     C90104   0.957   3.788   6.940  0.9626 -0.0364 -0.7058
  668MOL0     C90105   0.848   3.818   6.837 -0.7071  0.5081 -0.0410
  668MOL0     C90106   0.705   3.788   6.891  0.5554  0.1219  1.0935
  668MOL0     C90107   0.586   3.850   6.817 -0.4429 -0.1680 -0.3476
  668MOL0     C90108   0.460   3.814   6.880 -0.0077  0.1570  0.2937
  668MOL0     C90109   0.346   3.815   6.915 -0.6967  0.0677 -0.3893
  668MOL0     C90110   1.080   3.467   7.048 -0.1246  0.0279  0.3715
  668MOL0     C90111   1.186   3.401   7.117 -0.1858 -0.5747  0.1923
  668MOL0     C90112   1.158   3.257   7.145  0.4078  0.5309 -0.0703
  668MOL0     H90113   1.501   3.313   7.487  0.7537 -2.0663 -0.1055
  668MOL0     H90114   1.698   3.264   7.617  3.1701  0.3944  0.8904
  668MOL0     H90115   1.943   3.277   7.734  0.8227  2.2706 -0.6019
  668MOL0     H90116   1.899   3.144   7.614  1.3211 -1.2076 -0.7444
  668MOL0     H90117   2.096   3.106   7.735  0.8460  2.1970  0.7964
  668MOL0     H90118   2.162   3.255   7.667 -2.1383  2.8788 -1.2690
  668MOL0     H90119   2.175   3.141   7.436 -0.1590 -1.5511 -0.8126
  668MOL0     H90120   2.085   3.006   7.483  1.8956 -2.7325 -1.5721
  668MOL0     H90121   2.345   3.079   7.646  0.4582  0.2259  0.2317
  668MOL0     H90122   2.265   2.923   7.639 -0.9389  0.4309  1.0240
  668MOL0     H90123   2.292   2.911   7.386 -1.9218  3.1831 -0.9716
  668MOL0     H90124   2.409   3.043   7.414  1.6599  1.1081  2.6858
  668MOL0     H90125   2.429   2.766   7.519  0.2532  0.6451  2.8404
  668MOL0     H90126   2.531   2.846   7.392 -0.1518  0.8011 -0.0787
  668MOL0     H90127   2.505   2.901   7.697 -0.2542 -1.3064 -0.3556
  668MOL0     H90128   2.583   3.019   7.575  2.1134 -0.9999 -1.7256
  668MOL0     H90129   2.745   2.860   7.723  2.6565 -3.3369 -0.0969
  668MOL0     H90130   2.670   2.731   7.627 -2.0528  0.1429  1.2025
  668MOL0     H90131   2.828   2.711   7.372 -2.8498  1.6215 -1.3987
  668MOL0     H90132   2.969   2.832   7.161  2.2345 -2.2163  0.6347
  668MOL0     H90133   3.067   2.973   7.219 -1.0378  0.2396  2.1643
  668MOL0     H90134   3.072   2.679   7.283 -4.1166  2.5967 -0.2651
  668MOL0     H90135   3.206   2.770   7.202  0.6197 -2.2040  0.0883
  668MOL0     H90136   3.156   2.812   7.488  0.2813 -1.0476 -0.3096
  668MOL0     H90137   3.268   2.904   7.382  1.1153 -0.1171 -0.4129
  668MOL0     H90138   3.293   2.610   7.427 -0.3406  0.0961  1.0699
  668MOL0     H90139   3.358   2.726   7.528 -1.2726 -2.0580  1.3033
  668MOL0     H90140   3.596   2.682   7.122 -1.1777 -1.1916  0.7105
  668MOL0     H90141   3.832   2.635   7.131 -2.1652 -0.9968 -1.0730
  668MOL0     H90142   4.239   2.787   7.481  1.8994  0.1571  1.6485
  668MOL0     H90143   4.481   2.737   7.442 -1.6189  1.0986 -1.7431
  668MOL0     H90144   4.589   2.295   7.515 -0.6747  0.4230 -0.9519
  668MOL0     H90145   4.598   2.296   7.341 -0.6181 -0.9213  1.5947
  668MOL0     H90146   4.818   2.247   7.442 -2.2083 -1.3954  2.1974
  668MOL0     H90147   4.828   2.413   7.368 -0.5430 -2.0317 -1.3273
  668MOL0     H90148   4.794   2.499   7.593 -3.1895 -1.2305  0.8055
  668MOL0     H90149   4.789   2.352   7.670 -0.7281  2.4596  0.9001
  668MOL0     H90150   5.029   2.388   7.508 -1.6623  2.4945  0.5350
  668MOL0     H90151   4.990   2.278   7.646 -2.2904  0.7083  0.2205
  668MOL0     H90152   5.041   2.428   7.802  1.1047 -0.1288 -0.6588
  668MOL0     H90153   4.998   2.571   7.700  1.7538  0.0814 -3.4740
  668MOL0     H90154   5.217   2.396   7.611 -0.4032  1.1094 -2.0603
  668MOL0     H90155   5.187   2.559   7.563 -0.4807 -0.1393 -1.0700
  668MOL0     H90156   5.374   2.556   7.728 -0.9957 -0.4989 -0.2251
  668MOL0     H90157   5.287   2.469   7.846 -0.9119 -2.8179 -1.7598
  668MOL0     H90158   5.193   2.733   7.722 -0.5394 -0.0332  0.4583
  668MOL0     H90159   5.136   2.664   7.874 -1.3948 -3.8642 -0.4694
  668MOL0     H90160   4.376   2.322   7.455 -0.8998 -0.9173 -0.6080
  668MOL0     H90161   4.145   2.370   7.476 -1.4247  0.2638  2.1789
  668MOL0     H90162   3.816   2.662   7.557  3.9095  0.5640 -1.7382
  668MOL0     H90163   3.579   2.707   7.559 -0.3999 -0.8658  0.5740
  668MOL0     H90164   1.947   3.439   7.315 -0.4296 -1.2343 -0.8781
  668MOL0     H90165   1.751   3.506   7.193  1.5657  0.7401  1.5350
  668MOL0     H90166   1.387   3.663   7.184  0.5083 -2.6427  2.0975
  668MOL0     H90167   1.212   3.780   7.050  1.6226 -0.7176 -0.5705
  668MOL0     H90168   1.050   3.838   6.911 -0.6092  5.4328  2.2636
  668MOL0     H90169   0.925   3.834   7.034 -0.9645 -0.0039 -1.3364
  668MOL0     H90170   0.865   3.757   6.748  3.4366  1.8018 -0.3578
  668MOL0     H90171   0.854   3.921   6.800 -4.9108  0.9857  0.1629
  668MOL0     H90172   0.703   3.827   6.993 -0.1343  1.2530  0.6650
  668MOL0     H90173   0.687   3.681   6.888 -2.2028  0.5425  0.3351
  668MOL0     H90174   0.594   3.958   6.830  0.0369  0.1798 -2.9112
  668MOL0     H90175   0.591   3.820   6.712  0.2172 -0.8201 -0.1405
  668MOL0     H90176   0.246   3.818   6.953 -1.0288 -3.7716 -0.6082
  668MOL0     H90177   0.994   3.411   7.012  1.7858 -3.4649  0.8985
  668MOL0     H90178   1.052   3.231   7.148  0.5981 -0.4007 -1.0556
  668MOL0     H90179   1.198   3.189   7.070 -3.2178 -0.3816 -1.4022
  668MOL0     H90180   1.193   3.235   7.247 -0.1334  1.2001  0.2738
  669MOL0     O90181  10.230   5.043   3.412 -0.1340 -0.0749 -0.6953
  669MOL0     C90182  10.251   4.981   3.515 -0.1010  0.8925 -0.6099
  669MOL0     O90183  10.367   4.966   3.579  0.2680 -0.0983 -0.2909
  669MOL0     C90184  10.491   5.008   3.524  0.1347  0.3731  0.1357
  669MOL0     C90185  10.608   4.941   3.578  0.3873  0.1759 -0.0319
  669MOL0     C90186  10.736   4.991   3.560  0.1642 -0.3837  0.6087
  669MOL0     C90187  10.758   5.096   3.479 -0.6799  0.4901 -0.1887
  669MOL0     O90188  10.888   5.143   3.452  0.7747 -0.9686 -0.3957
  669MOL0     C90189  10.994   5.062   3.491  0.3480  0.2398  0.2009
  669MOL0     C90190  11.124   5.134   3.451  0.2681 -0.0117  0.0318
  669MOL0     C90191  11.144   5.155   3.303 -0.7734 -0.7089  0.4756
  669MOL0     C90192  11.276   5.220   3.274  0.5772  0.2400 -0.2712
  669MOL0     C90193  11.382   5.119   3.293  0.0451 -0.0942  0.2090
  669MOL0     C90194  11.517   5.169   3.235  0.5433  1.0831  0.2013
  669MOL0     C90195  11.626   5.052   3.218 -1.0067  0.7342  0.3462
  669MOL0     C90196  11.747   5.086   3.131  0.3184  0.3252  1.0220
  669MOL0     N90197  11.833   4.966   3.119  0.0916  0.3584  0.6910
  669MOL0     C90198  11.962   4.961   3.157 -0.6068 -0.6704 -0.3705
  669MOL0     C90199  12.006   4.840   3.119  0.4801 -1.1472 -0.7163
  669MOL0     C90200  12.141   4.784   3.149 -0.0487  0.6077 -0.1485
  669MOL0     C90201  12.248   4.821   3.052  0.1130  0.2934  0.0729
  669MOL0     C90202  12.389   4.811   3.106  0.9759  0.3620  0.3373
  669MOL0     C90203  12.495   4.859   3.019 -0.5680 -0.5782  0.8188
  669MOL0     O90204  12.614   4.855   3.091  0.8032  0.7921 -0.0966
  669MOL0     C90205  12.715   4.949   3.075 -0.3612 -0.6186 -0.2435
  669MOL0     C90206  12.805   4.944   3.184  0.3325  0.7004  0.5998
  669MOL0     C90207  12.918   5.031   3.179  0.8280  0.1519  0.6611
  669MOL0     C90208  12.962   5.091   3.054 -0.1807 -0.4896 -0.1283
  669MOL0     C90209  13.092   5.172   3.047  0.3027  0.4441  0.5318
  669MOL0     O90210  13.139   5.210   3.169  0.5615 -0.1193  1.1964
  669MOL0     C90211  13.256   5.274   3.180 -0.5293  0.6416 -0.3232
  669MOL0     C90212  13.274   5.408   3.140 -0.2748 -0.3250  0.5526
  669MOL0     C90213  13.394   5.469   3.154  0.2351  0.7024 -0.1499
  669MOL0     C90214  13.504   5.387   3.206 -0.2869 -1.0525  0.1148
  669MOL0     O90215  13.638   5.426   3.228  0.7181  0.0467  0.5058
  669MOL0     C90216  13.681   5.552   3.171 -0.1647  0.2106  0.3223
  669MOL0     C90217  13.830   5.562   3.190  0.2776  0.0446  0.4683
  669MOL0     C90218  13.879   5.569   3.342 -0.5763  1.1662  0.9795
  669MOL0     C90219  13.904   5.707   3.400  0.2814  0.0985  0.7719
  669MOL0     C90220  14.012   5.779   3.321  0.4190  0.6181  0.1663
  669MOL0     C90221  14.111   5.865   3.395 -0.4208  0.3637  0.1394
  669MOL0     C90222  14.049   5.997   3.430  0.1449 -0.2524 -0.7624
  669MOL0     C90223  14.150   6.080   3.516 -0.0541  0.5731  0.3846
  669MOL0    Cl90224  14.086   6.246   3.548 -0.0920 -0.1078  0.6612
  669MOL0     C90225  13.485   5.257   3.238 -0.4805  0.1480  0.0081
  669MOL0     C90226  13.359   5.203   3.234 -0.0587 -0.1803  0.0284
  669MOL0     O90227  13.152   5.175   2.942  0.3257 -0.4017 -0.2157
  669MOL0     C90228  12.867   5.083   2.950 -0.0789 -0.7972 -0.1500
  669MOL0     C90229  12.746   5.015   2.959 -0.6821  0.5757 -0.1933
  669MOL0     N90230  11.900   4.766   3.078  0.2535 -0.9152  0.5885
  669MOL0     N90231  11.794   4.844   3.074  0.4427 -0.2112  0.5109
  669MOL0     C90232  10.645   5.161   3.425 -0.0453 -0.4647  0.5056
  669MOL0     C90233  10.512   5.128   3.454 -0.6785  0.8827  0.1392
  669MOL0     C90234  10.129   4.908   3.570 -0.0508  0.1477  0.6897
  669MOL0     C90235  10.148   4.790   3.643  0.2734 -0.1132 -0.1514
  669MOL0     C90236  10.044   4.708   3.685 -0.6794 -0.2898  0.4143
  669MOL0     C90237   9.916   4.752   3.664 -0.3295  0.1945 -0.4890
  669MOL0     O90238   9.803   4.681   3.699 -0.7106 -0.1175 -0.3041
  669MOL0     C90239   9.812   4.582   3.805  0.3828  0.7484  0.5319
  669MOL0     C90240   9.686   4.572   3.895  0.2025  1.3053  0.0032
  669MOL0     C90241   9.565   4.524   3.820  0.0334 -0.6157 -0.0477
  669MOL0     C90242   9.436   4.584   3.863  0.2567  0.5540 -0.4049
  669MOL0     C90243   9.330   4.517   3.806  0.9926  0.2236 -0.6309
  669MOL0     C90244   9.232   4.447   3.771  0.1824  0.3458  0.4410
  669MOL0     C90245   9.895   4.875   3.599  0.2958 -0.6447  0.8559
  669MOL0     C90246   9.998   4.956   3.557 -0.3821  0.1166  0.7392
  669MOL0     C90247   9.970   5.094   3.512  0.4611 -0.7264  0.0137
  669MOL0     H90248  10.601   4.854   3.644 -0.1863  0.7040  0.6135
  669MOL0     H90249  10.823   4.936   3.597 -0.0631 -2.3563 -1.5486
  669MOL0     H90250  10.992   5.046   3.599 -0.4353 -0.7309  0.0547
  669MOL0     H90251  10.975   4.970   3.435  1.9352  1.2273 -2.1214
  669MOL0     H90252  11.207   5.072   3.486  0.5790 -0.0742 -0.8036
  669MOL0     H90253  11.122   5.224   3.512 -0.9337 -0.4071  0.6197
  669MOL0     H90254  11.069   5.227   3.265  0.5838  1.0571  1.0062
  669MOL0     H90255  11.142   5.064   3.243 -0.8060 -2.0979  2.5072
  669MOL0     H90256  11.273   5.246   3.168  0.9979  1.2339 -0.0434
  669MOL0     H90257  11.283   5.316   3.326 -1.3587  0.8170 -0.9887
  669MOL0     H90258  11.404   5.099   3.398 -0.9819 -0.5303  0.3504
  669MOL0     H90259  11.352   5.022   3.252 -0.1888  0.1907 -0.2998
  669MOL0     H90260  11.502   5.204   3.132  3.6521  0.4576 -0.5840
  669MOL0     H90261  11.558   5.248   3.298 -1.1635 -0.0801  2.9460
  669MOL0     H90262  11.572   4.968   3.173  0.0081 -0.6178  1.5583
  669MOL0     H90263  11.646   5.026   3.322 -2.1786  0.3036  0.4801
  669MOL0     H90264  11.699   5.110   3.036 -2.0407  0.3043  2.1390
  669MOL0     H90265  11.815   5.162   3.170 -0.0057  0.2567  1.7420
  669MOL0     H90266  12.019   5.047   3.191 -0.8590 -0.9463  0.8169
  669MOL0     H90267  12.181   4.809   3.247 -3.3596  2.4614  0.9022
  669MOL0     H90268  12.129   4.675   3.147  0.9534  0.4919 -1.6709
  669MOL0     H90269  12.236   4.753   2.967 -2.4036  0.2700  0.3841
  669MOL0     H90270  12.230   4.926   3.026 -0.7243  0.0003 -0.5437
  669MOL0     H90271  12.424   4.711   3.135 -0.5423 -1.0957 -2.3534
  669MOL0     H90272  12.399   4.865   3.200 -3.7892  0.5318  1.0046
  669MOL0     H90273  12.457   4.957   2.988  0.1561 -1.3675 -3.2249
  669MOL0     H90274  12.502   4.799   2.928  1.0578  1.2798 -0.3635
  669MOL0     H90275  12.784   4.878   3.268  0.6870 -0.6558 -0.3387
  669MOL0     H90276  12.973   5.048   3.271 -0.0844  1.1159  1.0529
  669MOL0     H90277  13.200   5.465   3.085  3.8124  1.1616 -4.0778
  669MOL0     H90278  13.403   5.571   3.120 -2.7487  0.6938 -1.2276
  669MOL0     H90279  13.664   5.562   3.063  1.9405 -2.2088 -0.3432
  669MOL0     H90280  13.640   5.639   3.222  1.6193 -0.2757  2.7663
  669MOL0     H90281  13.889   5.483   3.141 -0.8443 -0.1323 -0.6466
  669MOL0     H90282  13.859   5.650   3.133 -1.8361  2.3761  2.7741
  669MOL0     H90283  13.807   5.535   3.416 -1.4936  2.8946  0.9265
  669MOL0     H90284  13.971   5.510   3.354  0.1080  2.4851  2.7155
  669MOL0     H90285  13.948   5.684   3.498  1.7609 -0.6999 -0.0469
  669MOL0     H90286  13.807   5.759   3.395 -0.4302 -0.8702  2.9976
  669MOL0     H90287  13.969   5.847   3.248  2.2746  2.2015  0.4806
  669MOL0     H90288  14.071   5.708   3.262  0.3933 -0.1356  1.0203
  669MOL0     H90289  14.144   5.817   3.488 -0.9027  1.0106  0.6585
  669MOL0     H90290  14.206   5.888   3.345  0.0274  0.5188  1.0305
  669MOL0     H90291  13.955   5.982   3.483  0.3237  0.9570 -0.0587
  669MOL0     H90292  14.035   6.057   3.340  2.3766 -0.5900 -1.3855
  669MOL0     H90293  14.172   6.036   3.614 -0.4072  1.1212  0.7138
  669MOL0     H90294  14.243   6.088   3.459 -0.4942  1.6453 -0.1995
  669MOL0     H90295  13.560   5.189   3.277 -0.1454  0.0336 -0.8189
  669MOL0     H90296  13.338   5.102   3.266 -1.8766 -0.3017 -1.4177
  669MOL0     H90297  12.887   5.141   2.860 -0.3381  2.1618  1.5797
  669MOL0     H90298  12.685   5.011   2.870  2.8228  0.3719 -2.8126
  669MOL0     H90299  10.658   5.253   3.369  3.1463 -1.6654 -0.9507
  669MOL0     H90300  10.433   5.197   3.426 -0.5410  0.9408 -0.1085
  669MOL0     H90301  10.249   4.751   3.649 -0.5700 -2.2293  1.9435
  669MOL0     H90302  10.064   4.618   3.743 -0.0114  0.4629  1.3732
  669MOL0     H90303   9.890   4.609   3.877 -0.0205 -1.3760  1.8567
  669MOL0     H90304   9.834   4.481   3.771  2.7586  1.4377 -0.2304
  669MOL0     H90305   9.669   4.674   3.930 -0.5763  1.3170 -0.3921
  669MOL0     H90306   9.701   4.502   3.978 -0.7686 -0.0338 -0.9040
  669MOL0     H90307   9.551   4.416   3.805  1.6454 -0.9247  0.3996
  669MOL0     H90308   9.584   4.561   3.719  3.6280  1.6940  1.2722
  669MOL0     H90309   9.422   4.569   3.970  0.0594  0.6682 -0.4155
  669MOL0     H90310   9.435   4.690   3.837 -1.8430  0.9468  1.0312
  669MOL0     H90311   9.144   4.397   3.736 -0.2335  1.2824  0.1047
  669MOL0     H90312   9.791   4.908   3.596  0.7616  0.8452  0.5183
  669MOL0     H90313   9.984   5.115   3.406  2.7974  0.2519  0.4375
  669MOL0     H90314   9.869   5.129   3.534  0.4138 -0.7016 -0.2470
  669MOL0     H90315  10.026   5.165   3.574  0.3074 -1.5073  1.0811
  670MOL0     O90316   3.263   9.138   7.651  0.4497 -0.0423  0.2990
  670MOL0     C90317   3.198   9.180   7.548  0.3126 -0.7680 -0.4361
  670MOL0     O90318   3.248   9.202   7.424  0.5273 -0.1615  0.5456
  670MOL0     C90319   3.371   9.163   7.386  0.4794  0.0802  0.7124
  670MOL0     C90320   3.485   9.173   7.465 -0.0305 -0.0293 -0.1430
  670MOL0     C90321   3.610   9.145   7.406 -0.0636 -0.2308 -0.1014
  670MOL0     C90322   3.621   9.079   7.281  0.9212 -0.8070  0.0554
  670MOL0     O90323   3.745   9.037   7.245 -0.8422  0.1180  0.5788
  670MOL0     C90324   3.811   9.061   7.115 -0.4447 -0.0070  0.4198
  670MOL0     C90325   3.871   8.935   7.062  0.5976 -0.7434  0.1241
  670MOL0     C90326   3.969   8.958   6.945 -0.0642 -1.1429 -1.1552
  670MOL0     C90327   4.089   9.063   6.962 -0.2156 -0.1712 -0.3796
  670MOL0     C90328   4.181   9.062   6.836 -0.6388 -0.0796  0.5951
  670MOL0     C90329   4.246   8.930   6.797 -0.0419  0.8903 -0.4332
  670MOL0     C90330   4.361   8.948   6.703 -1.0538 -0.5683 -0.6375
  670MOL0     C90331   4.413   8.814   6.648 -0.1740 -0.2380  0.1901
  670MOL0     N90332   4.530   8.831   6.564  0.7670  0.1528 -0.1822
  670MOL0     C90333   4.578   8.947   6.521  0.0167  0.0201  0.4159
  670MOL0     C90334   4.659   8.909   6.418  0.3749  0.0168  0.6737
  670MOL0     C90335   4.736   9.010   6.331 -0.6140  0.8264  0.0884
  670MOL0     C90336   4.888   9.017   6.367  0.5814  0.4107 -0.2451
  670MOL0     C90337   4.955   8.881   6.332 -0.0205 -0.5580  0.6957
  670MOL0     C90338   5.097   8.891   6.368 -0.8358 -0.0391 -1.1440
  670MOL0     O90339   5.153   8.984   6.288  0.4606 -0.4117 -0.3355
  670MOL0     C90340   5.248   8.949   6.193 -1.1165  0.7072  0.6084
  670MOL0     C90341   5.264   8.822   6.129 -0.3940 -0.4811 -1.1338
  670MOL0     C90342   5.360   8.813   6.027 -0.3768 -0.2802  0.0388
  670MOL0     C90343   5.453   8.912   5.994  0.2780  0.5711  0.2498
  670MOL0     C90344   5.567   8.896   5.892  0.0802  0.3994  0.0075
  670MOL0     O90345   5.659   8.993   5.862 -0.5516 -0.4701 -0.0259
  670MOL0     C90346   5.758   8.982   5.772  0.1950  0.4792  0.2087
  670MOL0     C90347   5.747   9.026   5.638  0.8576 -0.6372  0.0917
  670MOL0     C90348   5.850   9.012   5.551 -0.0071 -0.2463 -0.3536
  670MOL0     C90349   5.968   8.951   5.597  0.2172  0.1827  0.1964
  670MOL0     O90350   6.068   8.936   5.514  0.1040 -0.4369  0.0803
  670MOL0     C90351   6.198   8.965   5.571  0.5741 -0.9379 -0.3939
  670MOL0     C90352   6.290   8.927   5.453 -0.0668  0.3067 -0.1694
  670MOL0     C90353   6.432   8.986   5.468 -0.6608  0.5134 -0.8737
  670MOL0     C90354   6.440   9.125   5.395  0.2830 -0.1563  0.3729
  670MOL0     C90355   6.569   9.192   5.416 -0.5606 -0.4037  0.0702
  670MOL0     C90356   6.686   9.118   5.353 -0.3528  0.6860 -0.3986
  670MOL0     C90357   6.814   9.193   5.373 -0.5023  0.6064 -0.5862
  670MOL0     C90358   6.885   9.162   5.503  0.2589  0.2068 -0.6505
  670MOL0    Cl90359   6.990   9.011   5.475 -0.0409 -0.1377 -0.3914
  670MOL0     C90360   5.986   8.926   5.733  0.1576  0.1592 -0.0891
  670MOL0     C90361   5.885   8.942   5.822  1.2402 -0.5924  0.6611
  670MOL0     O90362   5.558   8.792   5.827 -0.2141  0.1258  0.6782
  670MOL0     C90363   5.437   9.033   6.048 -0.4046 -0.7355 -0.0890
  670MOL0     C90364   5.343   9.049   6.150  0.1637  0.6486 -0.3281
  670MOL0     N90365   4.656   8.774   6.401  0.2322 -0.1052  0.1621
  670MOL0     N90366   4.578   8.725   6.487  0.2681 -0.8246 -0.0560
  670MOL0     C90367   3.500   9.053   7.211 -0.2446 -0.0263  0.0659
  670MOL0     C90368   3.375   9.110   7.253 -0.6581 -0.7457  0.0144
  670MOL0     C90369   3.064   9.233   7.561 -0.2583 -0.7382 -0.2485
  670MOL0     C90370   3.034   9.292   7.684  0.2594 -0.2267  0.3984
  670MOL0     C90371   2.909   9.357   7.702 -0.3944  0.1263 -0.7207
  670MOL0     C90372   2.810   9.347   7.600  0.2085 -0.7399  0.2091
  670MOL0     O90373   2.676   9.385   7.611  0.6180 -0.3715  0.5550
  670MOL0     C90374   2.617   9.425   7.734  0.1787 -0.2330 -0.6437
  670MOL0     C90375   2.470   9.409   7.722 -0.0691 -0.1912 -0.0700
  670MOL0     C90376   2.402   9.486   7.831  0.2854  0.6606  0.6300
  670MOL0     C90377   2.250   9.482   7.811 -0.3038 -0.1306  0.2651
  670MOL0     C90378   2.205   9.577   7.720  0.5029 -0.1679 -0.0775
  670MOL0     C90379   2.174   9.667   7.644  1.0187  1.4860  0.1078
  670MOL0     C90380   2.838   9.273   7.485 -0.5682  0.6154  0.7498
  670MOL0     C90381   2.965   9.220   7.466  0.3324  0.0264 -0.4172
  670MOL0     C90382   2.984   9.128   7.357 -0.3905  0.4503  0.4690
  670MOL0     H90383   3.480   9.214   7.565 -0.8212 -0.2796 -0.0738
  670MOL0     H90384   3.696   9.163   7.469 -2.4752  1.2513  3.0640
  670MOL0     H90385   3.746   9.104   7.039  1.5203  0.7637 -0.9107
  670MOL0     H90386   3.890   9.133   7.138  0.0562 -1.3406  3.3247
  670MOL0     H90387   3.786   8.873   7.033 -1.2611  0.9950  1.6226
  670MOL0     H90388   3.927   8.885   7.142  1.5054 -1.5580 -0.9834
  670MOL0     H90389   3.917   9.007   6.862 -1.5467  1.7729  1.2734
  670MOL0     H90390   3.991   8.858   6.908  1.8361 -1.7998  1.5050
  670MOL0     H90391   4.054   9.167   6.961  2.3251  0.7479 -0.4960
  670MOL0     H90392   4.147   9.040   7.052  2.2334  0.9175 -1.5831
  670MOL0     H90393   4.123   9.118   6.762  0.6580  2.5843  1.4647
  670MOL0     H90394   4.261   9.133   6.856 -1.0124  0.1481  1.3449
  670MOL0     H90395   4.260   8.871   6.888  2.8922  0.8829 -0.7984
  670MOL0     H90396   4.180   8.863   6.741  2.4549 -0.5171 -1.9073
  670MOL0     H90397   4.437   9.003   6.759 -1.1170  0.1917 -1.2821
  670MOL0     H90398   4.328   9.012   6.621  0.8555  0.7758 -0.4082
  670MOL0     H90399   4.433   8.730   6.716 -0.9511  0.0626  0.8051
  670MOL0     H90400   4.340   8.771   6.577 -0.4667  1.2397 -0.4396
  670MOL0     H90401   4.545   9.050   6.533 -0.1260  0.2415 -1.4864
  670MOL0     H90402   4.722   8.988   6.225  2.5484 -2.3772  0.1593
  670MOL0     H90403   4.684   9.103   6.357 -4.1733 -0.5207 -1.6016
  670MOL0     H90404   4.941   9.101   6.321  2.9482 -0.5437  0.5554
  670MOL0     H90405   4.891   9.031   6.475 -2.0195 -0.4241 -0.0174
  670MOL0     H90406   4.950   8.846   6.228  0.1530 -0.1144  0.5342
  670MOL0     H90407   4.914   8.804   6.398 -0.5788 -0.6266  0.2749
  670MOL0     H90408   5.140   8.790   6.363 -0.4891 -0.0036  0.4561
  670MOL0     H90409   5.104   8.909   6.476 -0.1080 -2.2134 -0.7787
  670MOL0     H90410   5.194   8.747   6.165 -2.3838  1.1677 -1.4049
  670MOL0     H90411   5.366   8.713   5.987 -2.3504 -1.9285  3.4262
  670MOL0     H90412   5.648   9.061   5.611  1.0175  0.0714  0.4096
  670MOL0     H90413   5.826   9.030   5.446 -2.1006  0.5045  0.2035
  670MOL0     H90414   6.201   9.074   5.582 -1.7157 -0.7940 -0.8560
  670MOL0     H90415   6.225   8.912   5.663  0.4246 -0.6598 -0.1885
  670MOL0     H90416   6.297   8.818   5.455  0.5320  0.3457  1.5243
  670MOL0     H90417   6.252   8.953   5.353  0.7240 -2.3323 -1.2575
  670MOL0     H90418   6.451   8.999   5.575 -0.9820 -0.7581 -0.6447
  670MOL0     H90419   6.510   8.922   5.425 -0.8447  2.1200 -3.8853
  670MOL0     H90420   6.362   9.195   5.426 -0.1824 -0.5840  0.1888
  670MOL0     H90421   6.422   9.103   5.290 -0.1830  0.7733  0.2521
  670MOL0     H90422   6.577   9.212   5.523  1.4341 -1.0747  0.0838
  670MOL0     H90423   6.564   9.294   5.377 -3.9624 -0.0355  1.1431
  670MOL0     H90424   6.703   9.017   5.389 -0.3094  1.0374  0.5882
  670MOL0     H90425   6.660   9.108   5.247  1.3246  0.6303 -0.8299
  670MOL0     H90426   6.782   9.297   5.384  1.2784  1.1691 -0.3423
  670MOL0     H90427   6.872   9.181   5.281  1.2450 -2.0568  0.7355
  670MOL0     H90428   6.954   9.245   5.517  1.6505 -1.1746  1.0930
  670MOL0     H90429   6.817   9.153   5.588  0.4294  0.4681 -0.4881
  670MOL0     H90430   6.077   8.900   5.784  0.3927 -0.4645 -0.8073
  670MOL0     H90431   5.905   8.918   5.926 -1.4634  0.7750  1.5760
  670MOL0     H90432   5.500   9.114   6.013  1.1386 -1.9203 -0.2004
  670MOL0     H90433   5.339   9.149   6.194  1.9412  1.0771 -1.0741
  670MOL0     H90434   3.512   8.986   7.127  1.6413  0.6883 -0.2880
  670MOL0     H90435   3.279   9.111   7.201 -0.9012  1.1293  0.4351
  670MOL0     H90436   3.108   9.289   7.763 -0.7302 -3.0450  1.3375
  670MOL0     H90437   2.893   9.406   7.798  1.4839 -3.1257  1.4440
  670MOL0     H90438   2.640   9.529   7.759  2.9350 -0.8827 -0.1865
  670MOL0     H90439   2.652   9.363   7.817 -0.9524  1.7934  1.4534
  670MOL0     H90440   2.440   9.305   7.732 -2.3598  0.5018  1.1051
  670MOL0     H90441   2.431   9.457   7.631  0.4495  0.3126 -0.0330
  670MOL0     H90442   2.434   9.590   7.834  1.8389  0.2530 -0.7757
  670MOL0     H90443   2.436   9.454   7.930  2.7716 -0.0678 -0.3847
  670MOL0     H90444   2.234   9.382   7.770 -0.2307 -0.6316  1.4274
  670MOL0     H90445   2.185   9.494   7.898 -0.1002 -0.9023  0.5332
  670MOL0     H90446   2.159   9.747   7.575 -1.3142  0.7355 -0.3441
  670MOL0     H90447   2.766   9.248   7.409  1.7638 -3.7594 -0.3219
  670MOL0     H90448   2.888   9.085   7.327  0.3075 -1.6904  1.1636
  670MOL0     H90449   3.039   9.173   7.274  1.2576 -4.7849 -1.7126
  670MOL0     H90450   3.044   9.045   7.396  0.9230  1.8628  1.6108
  671MOL0     O90451   1.192   6.255   2.565 -0.0792  0.0074 -0.3251
  671MOL0     C90452   1.192   6.177   2.663  1.0781 -0.1555 -0.0141
  671MOL0     O90453   1.294   6.115   2.730  0.9678  0.2719 -0.0831
  671MOL0     C90454   1.421   6.136   2.670  0.0913  0.0254  0.3371
  671MOL0     C90455   1.458   6.108   2.538 -0.1689  0.1024  0.3304
  671MOL0     C90456   1.586   6.128   2.492 -0.4112  0.7879 -1.3244
  671MOL0     C90457   1.675   6.188   2.585  0.7633 -0.6839  0.5774
  671MOL0     O90458   1.793   6.240   2.528  0.4701  0.3583  0.3699
  671MOL0     C90459   1.895   6.293   2.619  0.4472 -0.0577  0.0405
  671MOL0     C90460   2.031   6.321   2.536  0.5756 -0.0022 -0.6176
  671MOL0     C90461   2.144   6.375   2.629  0.4544  0.0880  1.0987
  671MOL0     C90462   2.262   6.410   2.541  0.0415  0.3188 -0.7078
  671MOL0     C90463   2.384   6.439   2.625  0.0024 -0.2030 -0.3882
  671MOL0     C90464   2.505   6.484   2.541  0.3355 -0.5650 -0.6586
  671MOL0     C90465   2.626   6.551   2.618  0.0866  0.5386  0.5248
  671MOL0     C90466   2.712   6.451   2.691 -0.1581 -0.6302 -0.4533
  671MOL0     N90467   2.811   6.369   2.609  0.1518  0.8063 -0.6665
  671MOL0     C90468   2.786   6.258   2.529  0.1173  0.6081 -0.4820
  671MOL0     C90469   2.903   6.231   2.471 -0.2098  0.2912 -0.3484
  671MOL0     C90470   2.905   6.124   2.362  0.6706 -0.2379 -1.0516
  671MOL0     C90471   2.902   5.983   2.426 -1.4272 -0.1827 -0.0066
  671MOL0     C90472   3.045   5.940   2.485  1.1614 -0.5741  0.8312
  671MOL0     C90473   3.135   5.872   2.378  0.3052 -0.6163 -0.7548
  671MOL0     O90474   3.180   5.967   2.279 -0.2471  0.6193  0.0339
  671MOL0     C90475   3.299   6.039   2.300  0.2791 -0.3766 -0.2381
  671MOL0     C90476   3.402   5.985   2.385  0.5070 -0.3193 -0.3478
  671MOL0     C90477   3.526   6.046   2.389 -0.6042 -1.0431  0.6656
  671MOL0     C90478   3.544   6.166   2.335 -0.7676  0.6664 -0.2248
  671MOL0     C90479   3.676   6.231   2.347 -0.6798 -0.2769  0.1309
  671MOL0     O90480   3.700   6.351   2.288  0.6656 -0.2457  0.1344
  671MOL0     C90481   3.829   6.396   2.291  0.2592 -0.1238  0.0069
  671MOL0     C90482   3.893   6.431   2.412  0.4119  0.4322  0.4317
  671MOL0     C90483   4.021   6.494   2.395 -0.0811  0.9709 -0.1073
  671MOL0     C90484   4.071   6.518   2.266 -0.1475 -0.6612  0.2542
  671MOL0     O90485   4.192   6.578   2.267 -0.9228  0.2901 -0.3143
  671MOL0     C90486   4.261   6.636   2.149  0.2387 -0.5993  0.5453
  671MOL0     C90487   4.360   6.747   2.193  0.2675  1.1149  0.6377
  671MOL0     C90488   4.467   6.690   2.286  0.7617 -0.1337  0.7302
  671MOL0     C90489   4.605   6.763   2.250  0.5961  1.1745 -0.4549
  671MOL0     C90490   4.596   6.913   2.266  0.1093 -0.0212 -0.7807
  671MOL0     C90491   4.735   6.975   2.227 -0.2242 -0.1896  0.3055
  671MOL0     C90492   4.715   7.120   2.185  0.1447 -0.3775 -0.5203
  671MOL0     C90493   4.847   7.186   2.159 -0.4477 -0.7923  1.4802
  671MOL0    Cl90494   4.828   7.326   2.059  0.0651  0.4311  0.2841
  671MOL0     C90495   4.004   6.483   2.155 -0.2705  0.0216  0.0668
  671MOL0     C90496   3.885   6.418   2.165 -0.2765 -0.2092  0.3593
  671MOL0     O90497   3.770   6.160   2.398 -0.2382 -0.4939  0.1433
  671MOL0     C90498   3.450   6.223   2.251  0.5975  0.1954  0.7031
  671MOL0     C90499   3.330   6.158   2.232  0.3148 -0.7358 -0.5988
  671MOL0     N90500   3.000   6.321   2.515  0.6913  0.1372 -0.5023
  671MOL0     N90501   2.943   6.401   2.603 -0.4656 -0.2268  0.6286
  671MOL0     C90502   1.632   6.229   2.717 -1.0522 -0.5146  0.4180
  671MOL0     C90503   1.507   6.204   2.754  0.0190  1.1610  1.0568
  671MOL0     C90504   1.058   6.126   2.713 -0.2323 -0.4831  1.3167
  671MOL0     C90505   0.971   6.089   2.616  0.3346  0.2334 -0.1923
  671MOL0     C90506   0.828   6.066   2.641 -0.4315 -0.0247  0.2535
  671MOL0     C90507   0.782   6.059   2.772  0.2617 -0.5729 -0.3458
  671MOL0     O90508   0.653   6.022   2.797  0.4056 -0.3003  0.0703
  671MOL0     C90509   0.600   6.062   2.925 -0.0642 -0.1858  0.6014
  671MOL0     C90510   0.452   6.007   2.943  0.4255 -0.2844  0.8120
  671MOL0     C90511   0.440   5.874   3.019 -0.3137 -0.1824 -0.0577
  671MOL0     C90512   0.300   5.844   3.076 -0.0144 -0.7885 -0.4041
  671MOL0     C90513   0.207   5.809   2.971 -0.2279 -0.7164  0.9050
  671MOL0     C90514   0.134   5.773   2.874  0.1251 -0.2792 -0.7291
  671MOL0     C90515   0.874   6.094   2.876  0.2730  0.4204 -0.0332
  671MOL0     C90516   1.018   6.126   2.843  0.4044 -0.1571 -0.0656
  671MOL0     C90517   1.091   6.177   2.960 -1.0861 -0.0478  0.3738
  671MOL0     H90518   1.394   6.067   2.461  0.2010  0.5910 -0.2400
  671MOL0     H90519   1.626   6.100   2.395  2.5015  0.6785 -0.2067
  671MOL0     H90520   1.863   6.388   2.662  2.3300  0.7075 -0.1248
  671MOL0     H90521   1.919   6.217   2.693 -1.0118 -0.1912  0.3949
  671MOL0     H90522   2.019   6.396   2.457  1.0329 -0.0462 -0.7340
  671MOL0     H90523   2.059   6.228   2.487  0.1574  0.0599 -0.9787
  671MOL0     H90524   2.185   6.304   2.702  0.6775  1.2465  2.1302
  671MOL0     H90525   2.101   6.454   2.691  0.2258  0.4819  0.4462
  671MOL0     H90526   2.277   6.317   2.485  1.6854 -1.0917  1.8994
  671MOL0     H90527   2.242   6.484   2.463 -1.1894 -2.9915 -3.8197
  671MOL0     H90528   2.369   6.506   2.710 -0.7655 -1.8372  0.8198
  671MOL0     H90529   2.412   6.348   2.679  4.0833 -0.9558 -3.2898
  671MOL0     H90530   2.550   6.400   2.486 -0.7143 -0.2356 -2.0776
  671MOL0     H90531   2.463   6.560   2.476  2.4625  2.5242  1.3213
  671MOL0     H90532   2.596   6.631   2.687  1.9531 -0.0059  2.0600
  671MOL0     H90533   2.687   6.601   2.542  0.1969 -0.0641  0.2111
  671MOL0     H90534   2.776   6.506   2.762 -0.2193  0.9795 -1.5971
  671MOL0     H90535   2.654   6.368   2.731  0.5925 -0.3442  1.3544
  671MOL0     H90536   2.689   6.209   2.524 -0.7763  2.0075  1.8119
  671MOL0     H90537   2.817   6.142   2.300  0.9045  2.9122 -0.6107
  671MOL0     H90538   2.995   6.137   2.302  2.6563  0.3242  1.8520
  671MOL0     H90539   2.829   5.992   2.507  0.5838  1.4233  1.7164
  671MOL0     H90540   2.861   5.918   2.348 -2.7124  1.6014 -0.8840
  671MOL0     H90541   3.013   5.858   2.551 -3.9661 -0.1184 -0.6350
  671MOL0     H90542   3.102   6.019   2.535  3.5828 -1.6976 -0.0020
  671MOL0     H90543   3.082   5.789   2.331 -0.3993 -0.4220 -0.3152
  671MOL0     H90544   3.217   5.823   2.430  0.0157 -0.6972 -0.3661
  671MOL0     H90545   3.399   5.895   2.445 -3.0333  0.6659  1.1788
  671MOL0     H90546   3.607   6.009   2.451  0.5394  1.0899  0.5360
  671MOL0     H90547   3.856   6.402   2.510  3.2901  0.2913  1.5587
  671MOL0     H90548   4.090   6.509   2.477 -0.3911 -0.1046  0.3696
  671MOL0     H90549   4.317   6.562   2.092 -0.9899  0.0911 -1.6927
  671MOL0     H90550   4.182   6.678   2.085 -0.4918 -3.0857 -0.2920
  671MOL0     H90551   4.407   6.790   2.104 -0.7362  0.3590 -0.2962
  671MOL0     H90552   4.313   6.831   2.244  0.2571  0.5635  1.5498
  671MOL0     H90553   4.438   6.688   2.391  1.1676 -1.6702  0.8344
  671MOL0     H90554   4.476   6.585   2.257 -0.8395 -0.3372  0.8562
  671MOL0     H90555   4.628   6.743   2.145 -1.6676 -0.2068 -0.7400
  671MOL0     H90556   4.681   6.716   2.314 -0.5286  0.1137  0.1272
  671MOL0     H90557   4.591   6.922   2.375  1.6950 -0.8996 -0.6013
  671MOL0     H90558   4.516   6.962   2.209  0.6376  0.5575 -1.0282
  671MOL0     H90559   4.803   6.968   2.312  0.8123 -3.2952 -0.6535
  671MOL0     H90560   4.773   6.928   2.136 -0.1456  0.8422 -0.2101
  671MOL0     H90561   4.654   7.180   2.252  1.6713  1.1656 -0.4482
  671MOL0     H90562   4.672   7.118   2.084  0.3182  0.9598 -0.6385
  671MOL0     H90563   4.881   7.217   2.258 -0.7639 -2.1617  2.0465
  671MOL0     H90564   4.912   7.118   2.104 -1.8618  0.0853 -1.5004
  671MOL0     H90565   4.043   6.492   2.055  0.2188 -1.0156  0.1460
  671MOL0     H90566   3.845   6.389   2.068 -0.4484 -0.4400  0.4996
  671MOL0     H90567   3.462   6.316   2.197 -2.0015  0.6684  0.7856
  671MOL0     H90568   3.263   6.208   2.163  2.0202  2.2824 -0.2234
  671MOL0     H90569   1.702   6.282   2.781 -0.1557  2.4324 -2.7482
  671MOL0     H90570   1.467   6.224   2.853 -1.0373 -1.1583  1.1755
  671MOL0     H90571   1.001   6.096   2.512 -2.2775 -0.1182 -1.0466
  671MOL0     H90572   0.748   6.053   2.569  0.7589  0.2696 -1.1664
  671MOL0     H90573   0.605   6.170   2.943 -0.9153 -0.3898  2.3232
  671MOL0     H90574   0.652   6.020   3.012 -1.3246  0.3707  1.6671
  671MOL0     H90575   0.396   6.007   2.848  0.0110 -1.4858  1.0332
  671MOL0     H90576   0.405   6.076   3.014  1.7983 -0.9164  2.3955
  671MOL0     H90577   0.518   5.867   3.096  0.4064 -1.5070 -0.8655
  671MOL0     H90578   0.465   5.795   2.948 -4.2415 -0.8739 -0.8844
  671MOL0     H90579   0.315   5.761   3.145  1.5285  0.3488  0.7053
  671MOL0     H90580   0.263   5.935   3.125  1.3223 -0.8602  0.8095
  671MOL0     H90581   0.069   5.745   2.794  0.2919  1.1837 -1.4243
  671MOL0     H90582   0.832   6.089   2.976 -2.6198 -6.2370 -1.0141
  671MOL0     H90583   1.117   6.090   3.020  0.7641 -2.3320 -3.3430
  671MOL0     H90584   1.181   6.232   2.932 -0.8207 -0.3461  0.6378
  671MOL0     H90585   1.026   6.245   3.015 -3.6479 -2.1339  0.1117
  672MOL0     O90586   8.309   4.044   6.237 -0.3067  0.0966 -0.2447
  672MOL0     C90587   8.299   4.166   6.257 -0.3854 -0.1800  0.4064
  672MOL0     O90588   8.404   4.254   6.278  0.3909 -0.3110  0.7333
  672MOL0     C90589   8.538   4.214   6.260 -0.5579 -0.7471  0.2467
  672MOL0     C90590   8.595   4.118   6.176  1.0622 -0.5800  1.0608
  672MOL0     C90591   8.738   4.112   6.159 -0.1596  1.1068 -0.8512
  672MOL0     C90592   8.823   4.195   6.233 -1.2256  0.2965  0.5729
  672MOL0     O90593   8.961   4.200   6.214  0.1585 -0.1391 -0.2367
  672MOL0     C90594   9.034   4.156   6.095 -0.2107  1.0226  0.5699
  672MOL0     C90595   9.188   4.179   6.115  0.1961 -0.7098  0.6812
  672MOL0     C90596   9.218   4.331   6.117  0.1443  0.4743 -0.7571
  672MOL0     C90597   9.239   4.378   6.260  0.3010 -0.8841  0.0426
  672MOL0     C90598   9.371   4.357   6.328 -0.5081  0.5220  0.2025
  672MOL0     C90599   9.410   4.467   6.421  0.7988 -0.6201  0.7304
  672MOL0     C90600   9.532   4.449   6.512 -0.5725  0.1595  0.7077
  672MOL0     C90601   9.657   4.416   6.433  0.0862 -0.2758 -1.2156
  672MOL0     N90602   9.769   4.380   6.529 -0.0191 -0.4612 -0.5319
  672MOL0     C90603   9.792   4.439   6.657  0.8737  0.3820  0.2651
  672MOL0     C90604   9.905   4.377   6.698 -1.1110 -0.0685  0.1212
  672MOL0     C90605   9.977   4.419   6.825  0.1736 -0.3164 -0.1010
  672MOL0     C90606  10.000   4.286   6.907 -0.5476 -0.5801  0.1139
  672MOL0     C90607  10.084   4.329   7.030  0.0015 -0.2912  0.4292
  672MOL0     C90608  10.093   4.213   7.126 -0.4993  0.3631 -1.3960
  672MOL0     O90609  10.152   4.094   7.058  0.1183 -0.2600  0.7618
  672MOL0     C90610  10.291   4.083   7.065 -0.3366 -0.7142 -0.0337
  672MOL0     C90611  10.351   3.959   7.074  0.3449 -0.0541 -0.6996
  672MOL0     C90612  10.492   3.937   7.093  1.1110  0.2573  1.2491
  672MOL0     C90613  10.566   4.050   7.125 -0.1850 -1.0627  0.4717
  672MOL0     C90614  10.712   4.037   7.161 -0.0679  0.4353 -0.1587
  672MOL0     O90615  10.766   3.912   7.119  0.4205 -0.5820 -0.9354
  672MOL0     C90616  10.890   3.885   7.104 -0.4924  0.9056  0.0548
  672MOL0     C90617  10.923   3.784   7.013 -0.9980  0.6034 -0.8424
  672MOL0     C90618  11.057   3.736   6.995 -0.2774 -0.0770  0.1520
  672MOL0     C90619  11.166   3.785   7.062  0.2410 -0.0451  0.7370
  672MOL0     O90620  11.290   3.732   7.040  0.3940  0.1585  0.5533
  672MOL0     C90621  11.359   3.681   7.152  0.0905  0.3005  0.2281
  672MOL0     C90622  11.458   3.577   7.105  0.1861 -1.0853  0.6402
  672MOL0     C90623  11.563   3.558   7.220 -0.6361 -0.5160  0.1161
  672MOL0     C90624  11.673   3.465   7.166 -0.0005  0.1235 -0.7999
  672MOL0     C90625  11.789   3.461   7.271  1.0344 -0.0099 -1.5470
  672MOL0     C90626  11.884   3.343   7.261 -0.2114 -0.1417 -0.3360
  672MOL0     C90627  11.974   3.356   7.135 -0.0945 -0.2251 -0.0032
  672MOL0     C90628  12.102   3.272   7.134  0.9169  0.5618  0.6753
  672MOL0    Cl90629  12.217   3.326   7.253  0.6720 -0.2211  0.1381
  672MOL0     C90630  11.136   3.884   7.153  0.2490  0.2296 -0.2464
  672MOL0     C90631  11.005   3.933   7.174  1.5176 -0.1450 -0.0945
  672MOL0     O90632  10.772   4.131   7.211  0.4555 -0.2135  0.0990
  672MOL0     C90633  10.511   4.170   7.123 -0.2519  0.3952 -0.4858
  672MOL0     C90634  10.380   4.193   7.092  0.8956 -0.0826 -0.1153
  672MOL0     N90635   9.955   4.290   6.599  0.0349  0.7092 -0.0418
  672MOL0     N90636   9.865   4.297   6.504 -0.0311 -0.3791 -0.4374
  672MOL0     C90637   8.766   4.283   6.328  0.2030 -0.0986  0.7280
  672MOL0     C90638   8.625   4.291   6.335  0.2275  0.0664  0.0577
  672MOL0     C90639   8.163   4.236   6.259  0.4593 -0.3315 -0.2740
  672MOL0     C90640   8.150   4.370   6.227  0.2018 -0.0638 -0.2139
  672MOL0     C90641   8.024   4.428   6.212  0.0875 -0.0862 -0.0776
  672MOL0     C90642   7.903   4.358   6.225 -0.2582  0.0794 -0.0333
  672MOL0     O90643   7.776   4.411   6.213  0.1607  0.0988 -0.7166
  672MOL0     C90644   7.774   4.550   6.170  0.5957 -0.8880 -0.4868
  672MOL0     C90645   7.629   4.612   6.153  0.4126  0.6029  0.0962
  672MOL0     C90646   7.550   4.550   6.038  0.1276 -0.3522  0.4127
  672MOL0     C90647   7.392   4.577   6.030 -0.2321  0.1084 -0.8482
  672MOL0     C90648   7.313   4.581   6.156  0.7778  0.8989  0.5055
  672MOL0     C90649   7.249   4.589   6.263  0.1238 -0.1738 -0.4384
  672MOL0     C90650   7.913   4.224   6.254  0.2039  0.6020 -0.1423
  672MOL0     C90651   8.039   4.158   6.278  0.0751  0.2294  0.4932
  672MOL0     C90652   8.034   4.010   6.316  1.0900  0.8531  0.4153
  672MOL0     H90653   8.533   4.053   6.115  2.7319 -2.8039  1.6151
  672MOL0     H90654   8.783   4.047   6.084 -1.8700 -0.9349 -0.2017
  672MOL0     H90655   9.023   4.048   6.082  0.4381  0.4789  3.6709
  672MOL0     H90656   9.002   4.210   6.005 -2.3350 -2.3981 -0.9538
  672MOL0     H90657   9.246   4.130   6.036  1.9546 -2.0189  2.6631
  672MOL0     H90658   9.210   4.130   6.210 -2.3338 -0.7655  1.3188
  672MOL0     H90659   9.136   4.391   6.077 -0.2885  0.1339 -0.4008
  672MOL0     H90660   9.305   4.343   6.052  0.9731  0.3453  0.2919
  672MOL0     H90661   9.241   4.486   6.244  0.8554 -0.5295  2.1660
  672MOL0     H90662   9.154   4.351   6.323  0.3104 -0.9479  0.0279
  672MOL0     H90663   9.367   4.269   6.393 -2.2328  0.9505  0.7186
  672MOL0     H90664   9.440   4.336   6.247 -2.3025  0.3238 -1.3332
  672MOL0     H90665   9.421   4.555   6.356 -1.7605  0.0493  1.0825
  672MOL0     H90666   9.321   4.474   6.486 -3.0473 -7.3800 -2.7796
  672MOL0     H90667   9.509   4.370   6.584  0.4441  0.3183  1.2125
  672MOL0     H90668   9.548   4.543   6.566  2.2037  0.2512 -0.1567
  672MOL0     H90669   9.656   4.334   6.362 -1.8948 -3.1872  1.8743
  672MOL0     H90670   9.684   4.503   6.372  0.0735 -1.0665 -2.3742
  672MOL0     H90671   9.729   4.509   6.711 -0.6039 -0.1932 -0.6575
  672MOL0     H90672  10.076   4.462   6.809  0.0956  0.9540  2.4168
  672MOL0     H90673   9.909   4.489   6.875 -0.3657  0.7545 -2.1996
  672MOL0     H90674   9.902   4.251   6.939 -0.3569 -0.6155  0.6659
  672MOL0     H90675  10.058   4.213   6.850 -0.9991 -1.0651  0.2624
  672MOL0     H90676  10.035   4.411   7.083 -1.6784 -2.3837  2.3268
  672MOL0     H90677  10.184   4.351   6.992  0.1755 -1.0763  0.4202
  672MOL0     H90678   9.993   4.191   7.165 -0.2634  2.9090  0.8953
  672MOL0     H90679  10.156   4.230   7.214  1.0677 -1.5311 -2.0799
  672MOL0     H90680  10.302   3.865   7.051  1.8229 -1.1287  0.3488
  672MOL0     H90681  10.528   3.835   7.094 -2.1105 -1.0753 -1.2162
  672MOL0     H90682  10.837   3.744   6.960 -1.9092  2.4610 -0.8256
  672MOL0     H90683  11.081   3.660   6.922 -1.4991 -0.9190  0.6056
  672MOL0     H90684  11.419   3.758   7.201 -0.7509  0.6618  0.6996
  672MOL0     H90685  11.288   3.639   7.224 -1.0488  3.4915  1.1340
  672MOL0     H90686  11.412   3.485   7.067 -1.5883  1.1717 -3.2890
  672MOL0     H90687  11.507   3.629   7.022  4.1715  1.0129  3.9215
  672MOL0     H90688  11.600   3.659   7.243 -1.7893 -0.2204  0.7389
  672MOL0     H90689  11.506   3.517   7.303 -1.2762 -3.5437 -1.6548
  672MOL0     H90690  11.719   3.496   7.072 -0.7098  0.0532 -1.1721
  672MOL0     H90691  11.621   3.369   7.161 -1.1406  0.5966  0.9390
  672MOL0     H90692  11.753   3.462   7.374  0.4468  0.9424 -1.7543
  672MOL0     H90693  11.863   3.542   7.265  0.1422  0.9981  0.1761
  672MOL0     H90694  11.948   3.352   7.350 -1.8021  0.7480  0.7781
  672MOL0     H90695  11.837   3.244   7.263 -0.8866  0.1724  1.4352
  672MOL0     H90696  11.996   3.459   7.105  0.3064 -0.2535  0.1884
  672MOL0     H90697  11.908   3.325   7.054 -1.2311 -3.2840  1.9059
  672MOL0     H90698  12.063   3.175   7.164  0.7354  0.7211  0.9617
  672MOL0     H90699  12.139   3.268   7.031 -0.8699 -0.9806  0.0541
  672MOL0     H90700  11.225   3.919   7.205  1.1452 -2.2286  0.0131
  672MOL0     H90701  10.994   4.002   7.257  1.3909  0.3925 -0.5480
  672MOL0     H90702  10.570   4.241   7.180 -1.5684 -0.7510  2.4935
  672MOL0     H90703  10.349   4.297   7.098  3.6269  0.9084 -1.4412
  672MOL0     H90704   8.820   4.352   6.393 -0.7155  2.2707 -0.9311
  672MOL0     H90705   8.592   4.345   6.423  0.1705 -1.4608  1.0187
  672MOL0     H90706   8.232   4.430   6.190 -0.8499  1.9295  0.5673
  672MOL0     H90707   8.018   4.531   6.179 -0.3948  0.1978  0.8431
  672MOL0     H90708   7.823   4.567   6.074 -1.3952  1.4487 -1.2037
  672MOL0     H90709   7.822   4.599   6.255 -2.2236 -0.8718  1.2122
  672MOL0     H90710   7.627   4.720   6.137 -0.7239  0.5995  0.1372
  672MOL0     H90711   7.586   4.593   6.251  0.6062  1.0970  0.2768
  672MOL0     H90712   7.569   4.443   6.048  1.9776 -0.0752  0.2969
  672MOL0     H90713   7.592   4.576   5.940 -1.9247 -0.5172 -0.5704
  672MOL0     H90714   7.367   4.667   5.974  1.4228  2.6520  2.1582
  672MOL0     H90715   7.353   4.492   5.973 -1.1615 -0.7032  0.9066
  672MOL0     H90716   7.181   4.605   6.344 -1.5055  1.4336 -2.0342
  672MOL0     H90717   7.823   4.166   6.272  2.2749 -2.3764  1.5384
  672MOL0     H90718   7.930   3.978   6.319  0.9760 -0.1081 -4.7909
  672MOL0     H90719   8.081   3.961   6.230  2.3986  1.3307  0.8245
  672MOL0     H90720   8.093   3.984   6.404  2.0279 -2.6156 -1.0661
  673MOL0     O90721   0.186   8.900   5.480 -1.1036  1.3892  0.3235
  673MOL0     C90722   0.081   8.838   5.493  0.1476 -0.9703 -0.3736
  673MOL0     O90723   0.045   8.768   5.599  0.2784 -0.2063  0.1778
  673MOL0     C90724   0.139   8.750   5.698  0.3736 -0.3659 -0.2910
  673MOL0     C90725   0.275   8.721   5.686 -0.1160  0.0448  0.1647
  673MOL0     C90726   0.365   8.692   5.793  0.4349 -0.1960 -0.5228
  673MOL0     C90727   0.320   8.698   5.924  0.0822  0.6699  0.2088
  673MOL0     O90728   0.400   8.680   6.030  0.5836 -0.1079  0.0906
  673MOL0     C90729   0.546   8.678   6.032 -0.5845  1.3484 -0.1817
  673MOL0     C90730   0.589   8.621   6.163  0.4774  0.5334 -0.3600
  673MOL0     C90731   0.741   8.619   6.175  0.2257 -0.9679 -0.0893
  673MOL0     C90732   0.780   8.546   6.306  0.0490  0.2143 -0.1594
  673MOL0     C90733   0.933   8.530   6.320 -0.1550  0.2106 -0.0819
  673MOL0     C90734   0.978   8.480   6.462  0.8948 -1.1365 -0.0854
  673MOL0     C90735   0.956   8.331   6.481 -0.4156 -1.1520  0.9568
  673MOL0     C90736   1.021   8.245   6.371  0.1704 -0.0747  0.1553
  673MOL0     N90737   1.165   8.263   6.370 -0.5334 -0.2720 -0.0064
  673MOL0     C90738   1.246   8.182   6.438  0.6765  0.6652  0.2124
  673MOL0     C90739   1.372   8.219   6.408 -0.2026 -0.6529 -0.5651
  673MOL0     C90740   1.504   8.151   6.445 -0.4344 -0.9084 -0.4949
  673MOL0     C90741   1.584   8.224   6.547  0.2705 -0.4071  0.9195
  673MOL0     C90742   1.709   8.136   6.583  0.4479  0.5261  0.2734
  673MOL0     C90743   1.796   8.196   6.694 -0.3303 -0.0879 -0.5626
  673MOL0     O90744   1.870   8.308   6.632  0.1413 -0.1012  0.5805
  673MOL0     C90745   2.002   8.292   6.648 -0.3564  0.3380 -0.5933
  673MOL0     C90746   2.051   8.292   6.781 -0.1383  0.9285 -0.4646
  673MOL0     C90747   2.189   8.277   6.804 -0.1378  0.2538 -0.7094
  673MOL0     C90748   2.271   8.296   6.695 -0.1850 -0.2682  0.7099
  673MOL0     C90749   2.420   8.306   6.716  0.1422  0.6551  0.3812
  673MOL0     O90750   2.458   8.341   6.842 -0.2684  0.1956 -0.2275
  673MOL0     C90751   2.599   8.366   6.848  0.3140  0.2658 -0.9676
  673MOL0     C90752   2.666   8.490   6.835  0.6993 -0.1558  0.3803
  673MOL0     C90753   2.802   8.499   6.852 -0.2928  0.0785  0.2451
  673MOL0     C90754   2.875   8.389   6.890  0.5177  0.0201 -0.3947
  673MOL0     O90755   3.002   8.400   6.941  0.2191 -0.4626 -0.7388
  673MOL0     C90756   3.076   8.523   6.930  0.4179 -0.0388  0.0945
  673MOL0     C90757   3.224   8.502   6.961  0.9697 -0.0470 -0.3465
  673MOL0     C90758   3.299   8.497   6.830  0.6211  0.5261  0.1795
  673MOL0     C90759   3.451   8.470   6.849  0.8096 -0.3295 -0.4195
  673MOL0     C90760   3.518   8.456   6.721 -1.0874  0.2794  0.9581
  673MOL0     C90761   3.671   8.467   6.728 -0.0043  0.6097  0.3835
  673MOL0     C90762   3.731   8.391   6.603 -0.8126 -1.0204 -0.4082
  673MOL0     C90763   3.875   8.355   6.645  0.2432 -0.3367  0.5400
  673MOL0    Cl90764   3.990   8.488   6.706 -0.0649  0.1536 -0.1864
  673MOL0     C90765   2.818   8.259   6.890 -0.0995  0.1874 -0.6582
  673MOL0     C90766   2.679   8.249   6.870 -0.4639 -0.3739 -0.6732
  673MOL0     O90767   2.501   8.281   6.630 -0.5317 -0.2791  0.6015
  673MOL0     C90768   2.223   8.294   6.556 -1.1143 -0.2886  1.0762
  673MOL0     C90769   2.086   8.284   6.537 -0.3056  0.3464  0.0681
  673MOL0     N90770   1.353   8.324   6.320  0.1139 -0.3349 -0.1323
  673MOL0     N90771   1.234   8.351   6.297 -0.3965  0.5424  0.5979
  673MOL0     C90772   0.185   8.717   5.936  0.8280 -0.4222 -0.6678
  673MOL0     C90773   0.095   8.745   5.833 -0.1010  0.4019  0.6643
  673MOL0     C90774  -0.011   8.865   5.386  0.4492 -0.5507 -0.2803
  673MOL0     C90775  -0.006   8.986   5.317 -0.2761  0.7385  0.1373
  673MOL0     C90776  -0.087   9.012   5.206  0.3624 -0.5996  0.3397
  673MOL0     C90777  -0.165   8.912   5.156  0.6910 -0.6938 -1.1209
  673MOL0     O90778  -0.245   8.922   5.049  0.6366  0.0212  0.2151
  673MOL0     C90779  -0.230   9.043   4.965  0.4847 -0.2043 -0.5078
  673MOL0     C90780  -0.275   9.002   4.820 -1.0179 -0.3714  0.0171
  673MOL0     C90781  -0.433   9.007   4.807 -0.2980  0.6908  0.5313
  673MOL0     C90782  -0.481   9.154   4.802  0.4638  0.3186 -0.4518
  673MOL0     C90783  -0.603   9.172   4.890  0.4185 -0.1941  0.0573
  673MOL0     C90784  -0.694   9.191   4.963 -0.7779 -0.3266  0.8673
  673MOL0     C90785  -0.167   8.792   5.215 -0.0565  0.6505 -0.3475
  673MOL0     C90786  -0.091   8.770   5.337 -0.0346 -0.2866  0.2505
  673MOL0     C90787  -0.101   8.633   5.403  0.0148  0.4184  0.3259
  673MOL0     H90788   0.317   8.724   5.586  0.0651  0.5699  0.2493
  673MOL0     H90789   0.470   8.668   5.778  0.5382 -0.9702  1.2304
  673MOL0     H90790   0.570   8.608   5.951 -2.8372 -0.2207  0.4078
  673MOL0     H90791   0.587   8.778   6.016 -0.1576  0.9821 -1.5477
  673MOL0     H90792   0.560   8.516   6.163 -1.4713  0.9951 -2.0866
  673MOL0     H90793   0.541   8.674   6.246  1.1355  0.0207  0.3556
  673MOL0     H90794   0.758   8.727   6.184 -0.0074 -0.7468 -1.8795
  673MOL0     H90795   0.807   8.578   6.098  4.3188  1.7460  1.6460
  673MOL0     H90796   0.744   8.598   6.395  0.9847  0.3384  0.1590
  673MOL0     H90797   0.728   8.450   6.305 -2.6178  1.5393  1.8519
  673MOL0     H90798   0.974   8.480   6.232 -0.3406 -1.9451  0.9918
  673MOL0     H90799   0.967   8.634   6.320 -0.2763  0.2516 -0.4698
  673MOL0     H90800   1.084   8.502   6.471  0.8597  0.0581 -2.0724
  673MOL0     H90801   0.925   8.528   6.545  1.0369 -1.6298  0.3025
  673MOL0     H90802   0.848   8.327   6.494 -1.2267  4.9025 -0.9344
  673MOL0     H90803   1.004   8.304   6.576  1.0896  1.7335  1.1372
  673MOL0     H90804   1.000   8.138   6.380 -0.9798 -0.0564 -1.8071
  673MOL0     H90805   0.977   8.272   6.275  1.7708  0.2663 -0.5266
  673MOL0     H90806   1.208   8.093   6.487 -0.7156 -0.4451 -2.6464
  673MOL0     H90807   1.481   8.051   6.483 -1.1800 -0.6970 -0.3692
  673MOL0     H90808   1.571   8.151   6.359  4.9598 -0.6057  3.2617
  673MOL0     H90809   1.625   8.321   6.516 -0.5989 -0.5906 -1.0090
  673MOL0     H90810   1.520   8.254   6.631 -0.1753 -0.5793  0.6445
  673MOL0     H90811   1.774   8.110   6.499  0.8803  2.1396  0.0730
  673MOL0     H90812   1.665   8.040   6.612 -4.6751  1.8822 -1.8299
  673MOL0     H90813   1.863   8.124   6.743  0.0923  1.8470  1.8585
  673MOL0     H90814   1.725   8.227   6.771 -0.4377 -1.9848  0.1640
  673MOL0     H90815   1.998   8.293   6.876 -1.7177 -0.2543 -1.2852
  673MOL0     H90816   2.228   8.271   6.905 -3.2455 -2.0221  0.5110
  673MOL0     H90817   2.617   8.579   6.798 -0.0321 -1.4872 -2.0533
  673MOL0     H90818   2.839   8.600   6.834  1.7372 -1.1351 -3.6604
  673MOL0     H90819   3.062   8.566   6.831 -1.5937  0.6368  0.6173
  673MOL0     H90820   3.033   8.587   7.009 -0.7717  0.1379 -0.6732
  673MOL0     H90821   3.263   8.592   7.009  1.3067 -0.5982  0.4280
  673MOL0     H90822   3.243   8.414   7.023  0.0458  1.1013  1.6336
  673MOL0     H90823   3.252   8.414   6.777 -1.6407  0.2771  2.3821
  673MOL0     H90824   3.300   8.587   6.768  1.8925  1.6876  1.8014
  673MOL0     H90825   3.464   8.382   6.912 -3.3478 -0.9294 -0.1149
  673MOL0     H90826   3.487   8.555   6.907 -0.6472  0.3386 -0.4498
  673MOL0     H90827   3.489   8.543   6.663 -1.6977 -0.5604 -0.0172
  673MOL0     H90828   3.491   8.364   6.668  0.4870  1.8411 -2.9097
  673MOL0     H90829   3.701   8.572   6.739 -2.1356  1.1756  1.1762
  673MOL0     H90830   3.697   8.411   6.819 -0.2620  2.0592  1.3826
  673MOL0     H90831   3.735   8.463   6.521 -0.7679 -1.6301 -0.9475
  673MOL0     H90832   3.673   8.307   6.563 -1.3350 -0.8603  0.0035
  673MOL0     H90833   3.872   8.273   6.718 -2.7932 -0.6852  0.1390
  673MOL0     H90834   3.929   8.323   6.556 -1.5498  2.0338 -1.5555
  673MOL0     H90835   2.873   8.170   6.917 -0.2562  0.1372 -0.5027
  673MOL0     H90836   2.633   8.151   6.879  0.5225 -0.8933 -1.1046
  673MOL0     H90837   2.295   8.313   6.477 -0.6822  0.8448  1.7193
  673MOL0     H90838   2.049   8.259   6.438  5.0085 -2.5225 -1.6109
  673MOL0     H90839   0.139   8.714   6.034 -1.8380 -2.2125 -1.8419
  673MOL0     H90840  -0.011   8.770   5.841 -0.1094  0.4088  0.5292
  673MOL0     H90841   0.061   9.066   5.347  1.2411  0.2091 -1.6234
  673MOL0     H90842  -0.076   9.103   5.148 -1.1444 -1.1280 -0.8323
  673MOL0     H90843  -0.123   9.062   4.961  0.6636 -0.8658  0.6499
  673MOL0     H90844  -0.287   9.130   5.001 -2.4574 -2.7899  1.6560
  673MOL0     H90845  -0.236   8.904   4.790 -0.7511 -0.7815  1.6478
  673MOL0     H90846  -0.224   9.073   4.753  1.4882 -0.0459  2.1039
  673MOL0     H90847  -0.459   8.952   4.897  1.8825 -0.3254  0.6057
  673MOL0     H90848  -0.470   8.948   4.722  0.8982  0.7343 -0.0496
  673MOL0     H90849  -0.404   9.219   4.846 -0.0216  2.3994 -2.4572
  673MOL0     H90850  -0.485   9.192   4.699  1.1963 -1.0510 -1.0059
  673MOL0     H90851  -0.778   9.198   5.029 -2.7636 -0.4384 -1.4948
  673MOL0     H90852  -0.234   8.715   5.177  1.3329  0.1942 -2.0292
  673MOL0     H90853  -0.021   8.561   5.382 -1.4965 -0.4571 -3.0617
  673MOL0     H90854  -0.101   8.627   5.512  0.3036 -1.7488  0.2412
  673MOL0     H90855  -0.188   8.588   5.355  0.4774  0.8228 -0.9395
  674MOL0     O90856   4.531   9.275   7.459 -0.5571 -0.3701  0.0491
  674MOL0     C90857   4.453   9.198   7.413  0.5124 -0.5544  0.3580
  674MOL0     O90858   4.484   9.089   7.341 -0.6343 -0.1093 -0.0617
  674MOL0     C90859   4.614   9.039   7.333 -0.0855 -1.2132 -0.1339
  674MOL0     C90860   4.673   9.032   7.208  0.1896 -0.0340 -1.0685
  674MOL0     C90861   4.799   8.989   7.204 -1.3256 -0.9403 -0.2043
  674MOL0     C90862   4.882   8.961   7.315 -0.5082  0.1703 -0.1752
  674MOL0     O90863   5.007   8.905   7.274 -0.0683 -0.3249 -1.1551
  674MOL0     C90864   5.116   8.913   7.369 -0.1978  0.3123 -0.8623
  674MOL0     C90865   5.175   9.054   7.396  0.4807  0.1194  0.4021
  674MOL0     C90866   5.178   9.141   7.277 -0.1541 -0.1991  0.1021
  674MOL0     C90867   5.288   9.241   7.294 -0.2158 -1.0305 -0.3811
  674MOL0     C90868   5.261   9.345   7.403 -0.0359 -0.0555  0.3593
  674MOL0     C90869   5.132   9.417   7.372  0.3387  0.1318  0.0242
  674MOL0     C90870   5.131   9.557   7.428  0.4334  0.2723 -0.2641
  674MOL0     C90871   5.139   9.563   7.583 -0.5699  0.2084 -0.0411
  674MOL0     N90872   5.163   9.708   7.615 -0.1808  0.1619 -0.3157
  674MOL0     C90873   5.080   9.809   7.642  0.0654  0.8879  0.1702
  674MOL0     C90874   5.155   9.909   7.683  0.4318  0.2091  0.2861
  674MOL0     C90875   5.080  10.034   7.724  0.2392 -0.3533 -0.9115
  674MOL0     C90876   5.183  10.158   7.738 -0.5759  0.2896 -0.0547
  674MOL0     C90877   5.237  10.153   7.885  0.5925 -0.1868 -0.0790
  674MOL0     C90878   5.369  10.231   7.897  0.3571  0.4695  0.2343
  674MOL0     O90879   5.340  10.373   7.881 -0.0464 -0.5765  0.8113
  674MOL0     C90880   5.398  10.467   7.969 -0.3610  0.2333 -0.5389
  674MOL0     C90881   5.324  10.569   8.033  0.3564  0.2810 -0.4820
  674MOL0     C90882   5.391  10.671   8.104 -0.3228 -0.0695  0.9549
  674MOL0     C90883   5.532  10.682   8.102  0.7007  0.0114 -0.1473
  674MOL0     C90884   5.609  10.801   8.152 -0.2562 -0.0514 -0.3131
  674MOL0     O90885   5.750  10.799   8.153  0.4528  0.1677 -0.1411
  674MOL0     C90886   5.822  10.904   8.208 -0.1362 -0.3925 -0.5987
  674MOL0     C90887   5.916  10.975   8.126 -0.4179 -0.2593  0.1893
  674MOL0     C90888   5.975  11.094   8.177  0.4844 -0.4542 -0.1669
  674MOL0     C90889   5.944  11.144   8.304  0.2278 -0.5563  0.1400
  674MOL0     O90890   6.002  11.258   8.363  0.4198  0.1248 -0.0651
  674MOL0     C90891   6.031  11.368   8.281  0.3104 -0.3460  0.4957
  674MOL0     C90892   6.124  11.463   8.369 -0.1244  0.2583  0.8454
  674MOL0     C90893   6.251  11.383   8.405 -0.9241  0.1427 -0.1686
  674MOL0     C90894   6.376  11.448   8.358 -0.1179 -0.9083  0.1551
  674MOL0     C90895   6.510  11.378   8.388 -1.5412  0.2177  0.4871
  674MOL0     C90896   6.544  11.361   8.541  1.1364  0.4659  0.7112
  674MOL0     C90897   6.667  11.262   8.558  0.3012 -0.8913 -0.7258
  674MOL0     C90898   6.687  11.233   8.707  1.2994 -0.3135 -0.4039
  674MOL0    Cl90899   6.545  11.186   8.788  0.2715  0.2398 -0.3929
  674MOL0     C90900   5.849  11.081   8.380  0.1350 -0.5023 -0.2938
  674MOL0     C90901   5.795  10.958   8.336  0.6715  0.3744 -0.9533
  674MOL0     O90902   5.540  10.894   8.199 -0.3648  0.8129  0.0428
  674MOL0     C90903   5.600  10.576   8.054 -0.6099 -0.3813  0.1411
  674MOL0     C90904   5.538  10.469   7.978  0.7109 -0.5162 -0.2792
  674MOL0     N90905   5.289   9.879   7.663  0.2907  0.4327 -0.7680
  674MOL0     N90906   5.291   9.752   7.626  0.1682 -0.5188  0.1291
  674MOL0     C90907   4.822   8.965   7.440 -0.1527  0.0534 -0.4565
  674MOL0     C90908   4.689   9.015   7.451 -0.4050 -0.2975 -0.0483
  674MOL0     C90909   4.310   9.228   7.451  0.3754 -0.5487 -0.6951
  674MOL0     C90910   4.284   9.351   7.521  0.5431 -0.1479  0.3498
  674MOL0     C90911   4.160   9.388   7.552  0.1546 -0.1461 -0.6667
  674MOL0     C90912   4.054   9.311   7.527 -0.0314  0.4697  0.1178
  674MOL0     O90913   3.920   9.344   7.558  0.6398  0.9843  0.6724
  674MOL0     C90914   3.893   9.456   7.639 -0.3362  0.6303 -0.5346
  674MOL0     C90915   3.744   9.475   7.639  0.3013 -0.4554 -0.9802
  674MOL0     C90916   3.712   9.596   7.728 -0.4252 -0.1481  0.1733
  674MOL0     C90917   3.556   9.641   7.730 -0.2943  0.0635  0.2383
  674MOL0     C90918   3.483   9.522   7.789  0.3103 -0.2765  0.1182
  674MOL0     C90919   3.430   9.416   7.839 -0.3831  0.1700  0.4124
  674MOL0     C90920   4.072   9.194   7.460  0.3647 -0.0045  0.4513
  674MOL0     C90921   4.199   9.151   7.419  0.2673  0.0117 -0.6739
  674MOL0     C90922   4.210   9.016   7.368 -0.3091  0.4804 -0.2330
  674MOL0     H90923   4.623   9.054   7.114  1.9195  1.2670 -1.7298
  674MOL0     H90924   4.843   8.987   7.105  2.8298 -0.3675  1.3973
  674MOL0     H90925   5.091   8.868   7.466  2.1246  1.6791  0.4594
  674MOL0     H90926   5.193   8.852   7.321  0.0777  2.5909 -3.5743
  674MOL0     H90927   5.275   9.043   7.438 -0.3063 -2.5669  1.8380
  674MOL0     H90928   5.125   9.116   7.471 -0.4992  0.4876 -0.5294
  674MOL0     H90929   5.086   9.200   7.267  1.6165  2.7282 -0.0039
  674MOL0     H90930   5.196   9.083   7.186  2.0489  1.5842 -0.6841
  674MOL0     H90931   5.377   9.180   7.310  0.5948  0.6507  1.9564
  674MOL0     H90932   5.287   9.286   7.194  2.3185  0.4429  0.1590
  674MOL0     H90933   5.253   9.304   7.504 -0.5404 -2.8302 -0.7194
  674MOL0     H90934   5.341   9.419   7.388 -1.9211  2.1074  0.4071
  674MOL0     H90935   5.106   9.430   7.266 -2.1698 -0.7825  0.4588
  674MOL0     H90936   5.060   9.353   7.424  2.1163 -3.0939 -1.1863
  674MOL0     H90937   5.049   9.624   7.403  0.0704  1.1374  2.8421
  674MOL0     H90938   5.220   9.599   7.380  0.0786 -1.1415 -2.2849
  674MOL0     H90939   5.057   9.513   7.635 -0.0410  0.0857  0.6970
  674MOL0     H90940   5.218   9.499   7.625 -0.9736 -1.7618 -2.1219
  674MOL0     H90941   4.972   9.818   7.641 -0.1358 -1.0992 -0.0810
  674MOL0     H90942   5.009  10.050   7.643  1.5521 -3.8723 -2.9806
  674MOL0     H90943   5.025  10.015   7.817 -0.8177  0.4148 -1.3595
  674MOL0     H90944   5.261  10.134   7.666 -1.1477 -1.0279 -0.2633
  674MOL0     H90945   5.123  10.247   7.715  0.4709  0.4000 -2.7256
  674MOL0     H90946   5.255  10.058   7.935 -0.5330  0.4770  1.6699
  674MOL0     H90947   5.171  10.207   7.953  0.5341  1.6813 -1.5354
  674MOL0     H90948   5.428  10.182   7.819 -2.6705 -1.5702 -0.9939
  674MOL0     H90949   5.409  10.214   7.997  1.4676 -0.9409 -0.4138
  674MOL0     H90950   5.215  10.573   8.031  0.2886  2.2567  2.0852
  674MOL0     H90951   5.327  10.748   8.145  1.4225  2.2255 -0.3782
  674MOL0     H90952   5.940  10.939   8.026 -1.0418  0.2173 -0.1476
  674MOL0     H90953   6.053  11.151   8.128  1.1682 -0.2062  1.1735
  674MOL0     H90954   6.081  11.335   8.190 -2.1103 -1.0662 -0.6629
  674MOL0     H90955   5.939  11.421   8.256  1.0636  0.7512 -0.0049
  674MOL0     H90956   6.162  11.551   8.317  2.8797 -0.0135  2.3629
  674MOL0     H90957   6.067  11.499   8.456 -2.8665 -1.8795  0.1046
  674MOL0     H90958   6.251  11.364   8.512 -1.2809  1.7382  0.1352
  674MOL0     H90959   6.245  11.287   8.352  2.8016 -1.4036  1.7825
  674MOL0     H90960   6.388  11.538   8.419 -2.2965 -1.5018  1.5732
  674MOL0     H90961   6.368  11.464   8.250  0.1012 -0.4227  0.2055
  674MOL0     H90962   6.579  11.453   8.348 -0.0873 -0.8339  0.9394
  674MOL0     H90963   6.512  11.282   8.336 -0.4232  0.2616  0.4305
  674MOL0     H90964   6.557  11.463   8.578  0.8958  1.1899 -1.1121
  674MOL0     H90965   6.456  11.317   8.589  0.3630  1.5744  0.3350
  674MOL0     H90966   6.758  11.309   8.519  0.2587  1.2648  1.5394
  674MOL0     H90967   6.625  11.178   8.502 -3.0450  1.1104 -1.5169
  674MOL0     H90968   6.762  11.153   8.716  1.1890 -0.4581 -0.7434
  674MOL0     H90969   6.725  11.324   8.754 -0.5207 -0.3709  1.2976
  674MOL0     H90970   5.816  11.129   8.471 -3.3345 -0.5905 -1.3633
  674MOL0     H90971   5.732  10.898   8.402  3.6817 -1.9412  0.0253
  674MOL0     H90972   5.707  10.563   8.072 -0.3887 -1.3473 -1.6242
  674MOL0     H90973   5.601  10.392   7.935 -1.3578 -0.6339 -3.3929
  674MOL0     H90974   4.879   8.947   7.530 -2.3885 -2.8399  0.5499
  674MOL0     H90975   4.646   9.021   7.551  2.7837 -1.3630  1.5452
  674MOL0     H90976   4.366   9.417   7.548  0.7466 -0.3138  0.1396
  674MOL0     H90977   4.151   9.490   7.590  0.0958 -0.8863  1.4019
  674MOL0     H90978   3.939   9.544   7.594  1.7033  1.4595  2.7955
  674MOL0     H90979   3.939   9.437   7.736 -0.1159 -0.1701 -0.7873
  674MOL0     H90980   3.685   9.388   7.668 -2.3411  1.0980 -1.4129
  674MOL0     H90981   3.722   9.483   7.532 -1.0491 -1.3378 -0.7836
  674MOL0     H90982   3.777   9.680   7.701 -2.0966  1.5509  1.2035
  674MOL0     H90983   3.741   9.583   7.833  1.1593  0.4431 -0.1531
  674MOL0     H90984   3.542   9.720   7.804 -2.2405  0.5012 -0.5152
  674MOL0     H90985   3.526   9.658   7.626 -0.3254  1.4449  0.4528
  674MOL0     H90986   3.392   9.325   7.880  0.0092  0.2554  0.9883
  674MOL0     H90987   3.984   9.131   7.444  0.0462  0.2195  1.3086
  674MOL0     H90988   4.263   9.012   7.273  2.0528 -1.0876  1.0441
  674MOL0     H90989   4.270   8.957   7.438 -0.2678  2.3342  1.3946
  674MOL0     H90990   4.116   8.962   7.356 -1.1332  2.0163 -0.8966
  675MOL0     O90991   7.722   7.187   5.802  0.1042  0.6582  0.1108
  675MOL0     C90992   7.698   7.132   5.694  0.5758 -0.0664  0.3639
  675MOL0     O90993   7.780   7.125   5.586 -0.6071 -0.5247  0.0170
  675MOL0     C90994   7.913   7.153   5.610 -0.0328 -0.4446  0.1896
  675MOL0     C90995   7.986   7.228   5.512 -0.2564  0.6385  0.2347
  675MOL0     C90996   8.120   7.254   5.510 -0.4838 -0.3087  1.0888
  675MOL0     C90997   8.194   7.201   5.622  0.7453 -0.3217  0.3177
  675MOL0     O90998   8.323   7.242   5.644  0.3797  0.2129  0.3015
  675MOL0     C90999   8.392   7.309   5.540 -0.7151  0.0257  0.5042
  675MOL0     C91000   8.532   7.323   5.594  0.9292  0.4310 -0.3563
  675MOL0     C91001   8.559   7.433   5.694 -0.8083  0.4376  0.9086
  675MOL0     C91002   8.692   7.401   5.777  0.5410  0.2415  0.3261
  675MOL0     C91003   8.787   7.519   5.808  0.1214  0.9049 -0.0121
  675MOL0     C91004   8.929   7.485   5.850 -0.1437 -0.1628  0.0709
  675MOL0     C91005   8.928   7.440   6.000 -0.8272 -0.3137 -0.3534
  675MOL0     C91006   9.049   7.369   6.040  0.1500  0.0490 -0.8387
  675MOL0     N91007   9.156   7.451   6.088  0.5433 -0.0543 -0.4879
  675MOL0     C91008   9.284   7.456   6.033 -0.0265 -0.1590 -0.4488
  675MOL0     C91009   9.353   7.544   6.114 -0.0990  0.3149 -0.5093
  675MOL0     C91010   9.494   7.601   6.114 -0.1012 -0.5360  0.1985
  675MOL0     C91011   9.598   7.497   6.144 -0.4455  0.3468  0.3138
  675MOL0     C91012   9.629   7.402   6.021 -0.4433  0.0141 -0.3549
  675MOL0     C91013   9.751   7.309   6.033  0.0085 -0.0515 -0.3712
  675MOL0     O91014   9.871   7.389   6.016  0.5666 -0.7363 -0.6210
  675MOL0     C91015   9.972   7.364   6.102 -0.4651  0.0318 -0.2642
  675MOL0     C91016  10.042   7.244   6.098 -0.0628 -0.4233 -0.2458
  675MOL0     C91017  10.151   7.219   6.187  0.0107 -0.6246  1.0053
  675MOL0     C91018  10.193   7.318   6.279 -0.8856  0.2223 -0.4310
  675MOL0     C91019  10.307   7.292   6.378  0.3604 -0.6232 -0.0492
  675MOL0     O91020  10.320   7.390   6.471 -0.2554  0.4383 -0.0363
  675MOL0     C91021  10.434   7.417   6.543 -0.9846 -0.5092 -0.5088
  675MOL0     C91022  10.459   7.545   6.599  0.8660 -0.3096 -0.0142
  675MOL0     C91023  10.590   7.578   6.652 -0.0611 -1.3283 -0.5390
  675MOL0     C91024  10.688   7.480   6.666 -0.7105  0.0661  0.0012
  675MOL0     O91025  10.806   7.518   6.722  0.4855  0.7447 -0.0461
  675MOL0     C91026  10.912   7.568   6.645  0.1408 -0.1192  0.2212
  675MOL0     C91027  10.985   7.473   6.557 -0.0158  0.4969  0.7252
  675MOL0     C91028  11.121   7.516   6.510 -1.1523  0.2447 -0.5974
  675MOL0     C91029  11.166   7.391   6.428 -0.0791  0.8074 -0.3715
  675MOL0     C91030  11.251   7.441   6.310  0.7095  0.3610  0.2855
  675MOL0     C91031  11.301   7.332   6.217 -0.8888 -0.4221 -0.4377
  675MOL0     C91032  11.186   7.243   6.168  0.3546  0.1050 -0.6133
  675MOL0     C91033  11.211   7.158   6.042 -0.4798  0.3232 -0.2433
  675MOL0    Cl91034  11.379   7.104   6.044 -0.1129 -0.0045 -0.1340
  675MOL0     C91035  10.658   7.356   6.631  0.5092 -0.1279  0.4641
  675MOL0     C91036  10.545   7.330   6.558  0.6309  1.2996 -0.5823
  675MOL0     O91037  10.372   7.189   6.370  0.2510  0.8181  0.1840
  675MOL0     C91038  10.118   7.440   6.283  1.0079 -0.0974  0.9029
  675MOL0     C91039  10.010   7.456   6.195 -0.1842  0.0493  0.5133
  675MOL0     N91040   9.268   7.585   6.209 -0.5399 -0.3794 -0.1464
  675MOL0     N91041   9.154   7.544   6.184  0.1070 -0.2723  0.2212
  675MOL0     C91042   8.131   7.118   5.712  0.5447 -0.5955  0.1792
  675MOL0     C91043   7.996   7.093   5.705  0.6977 -0.8729 -0.2985
  675MOL0     C91044   7.558   7.060   5.677  0.7330 -0.6833 -0.9401
  675MOL0     C91045   7.456   7.116   5.751  0.6590  0.5935  0.2852
  675MOL0     C91046   7.324   7.067   5.728  0.0384 -0.7118 -0.3579
  675MOL0     C91047   7.303   6.957   5.641 -0.9520  0.1238  0.7679
  675MOL0     O91048   7.178   6.911   5.612 -0.9121 -0.0090 -0.6821
  675MOL0     C91049   7.066   6.956   5.685  0.9610  0.0867 -0.0937
  675MOL0     C91050   6.945   6.864   5.676  0.0604  0.5841  0.3218
  675MOL0     C91051   6.909   6.828   5.530  0.0817 -0.5887 -0.2425
  675MOL0     C91052   6.791   6.724   5.538 -0.6921 -0.3427 -0.1008
  675MOL0     C91053   6.675   6.785   5.611  0.4532  1.1475  0.0922
  675MOL0     C91054   6.576   6.825   5.672 -0.8874  0.4353 -0.2130
  675MOL0     C91055   7.406   6.900   5.573  0.1872  0.4584  0.0853
  675MOL0     C91056   7.534   6.948   5.593 -0.4598  0.3392  0.2580
  675MOL0     C91057   7.643   6.879   5.515 -0.0192 -0.3764 -0.1108
  675MOL0     H91058   7.923   7.245   5.425  1.6469  0.0209 -1.3601
  675MOL0     H91059   8.159   7.317   5.431  0.4148 -0.1270  1.6623
  675MOL0     H91060   8.400   7.238   5.457 -2.4566 -0.1096  0.4035
  675MOL0     H91061   8.346   7.402   5.505  2.9600  1.3154 -1.4218
  675MOL0     H91062   8.599   7.353   5.512  0.7512 -0.2730 -0.7624
  675MOL0     H91063   8.562   7.225   5.631 -1.6292 -0.0249  0.7337
  675MOL0     H91064   8.473   7.459   5.756 -2.7740  1.5579 -2.1010
  675MOL0     H91065   8.576   7.527   5.640  0.5636  0.1020  0.6996
  675MOL0     H91066   8.666   7.359   5.875  1.4892 -0.9195  0.1114
  675MOL0     H91067   8.748   7.321   5.726  1.7506  2.1891 -1.5832
  675MOL0     H91068   8.797   7.581   5.719  1.1763 -0.5910 -0.9912
  675MOL0     H91069   8.744   7.589   5.880  1.7237  0.6899  1.2264
  675MOL0     H91070   8.979   7.411   5.787 -0.2328 -1.4164  1.4093
  675MOL0     H91071   8.987   7.577   5.848 -0.0821 -0.1965 -2.1799
  675MOL0     H91072   8.851   7.365   6.021  2.8650 -4.1441  0.9137
  675MOL0     H91073   8.920   7.526   6.068  4.8670 -0.5053  1.0845
  675MOL0     H91074   9.032   7.315   6.134  1.3089 -1.6560 -1.5473
  675MOL0     H91075   9.087   7.298   5.966  0.7526 -2.1339  1.4102
  675MOL0     H91076   9.316   7.391   5.951  2.0808  3.8959 -3.1691
  675MOL0     H91077   9.513   7.637   6.013 -0.3490  1.0430  0.6876
  675MOL0     H91078   9.517   7.679   6.188 -2.2481 -0.2149  0.5969
  675MOL0     H91079   9.692   7.537   6.183 -0.8033 -0.4040  2.0207
  675MOL0     H91080   9.556   7.432   6.221 -2.6636  0.9394 -0.3388
  675MOL0     H91081   9.616   7.457   5.927 -4.0808 -2.7953 -1.7477
  675MOL0     H91082   9.558   7.320   6.008  1.0178 -1.0254 -2.3689
  675MOL0     H91083   9.759   7.226   5.962 -1.4352 -1.0022  0.5064
  675MOL0     H91084   9.744   7.260   6.131  0.5653 -0.2379 -0.4243
  675MOL0     H91085  10.007   7.174   6.022 -2.8328  0.3449  0.1869
  675MOL0     H91086  10.199   7.121   6.188 -0.8665 -1.0610  0.7789
  675MOL0     H91087  10.386   7.625   6.605  1.5472  0.2251  1.6484
  675MOL0     H91088  10.616   7.676   6.689 -2.3878 -1.4431  1.7274
  675MOL0     H91089  10.872   7.657   6.595 -2.2162 -1.3447 -0.2350
  675MOL0     H91090  10.982   7.604   6.721 -1.1903  0.1268  1.3978
  675MOL0     H91091  10.989   7.378   6.612 -3.0412  0.9363  1.9213
  675MOL0     H91092  10.923   7.453   6.469 -0.7721  0.1708  1.3149
  675MOL0     H91093  11.105   7.606   6.450 -2.6008 -1.2180 -2.5580
  675MOL0     H91094  11.191   7.532   6.592 -1.6026  0.6518 -0.2833
  675MOL0     H91095  11.078   7.341   6.385  0.1890 -0.9098  1.0112
  675MOL0     H91096  11.221   7.321   6.490 -1.8626 -0.2306  0.0907
  675MOL0     H91097  11.340   7.491   6.349  1.2689 -0.9684  0.7765
  675MOL0     H91098  11.192   7.511   6.251  3.5100  0.8748 -2.1679
  675MOL0     H91099  11.337   7.386   6.129  0.6969  2.4175  1.7674
  675MOL0     H91100  11.389   7.285   6.263  0.3307  2.2653  0.1971
  675MOL0     H91101  11.100   7.306   6.143 -1.2495 -0.9523  1.9409
  675MOL0     H91102  11.155   7.178   6.250  0.6268  1.4811  0.6100
  675MOL0     H91103  11.138   7.078   6.049 -1.9029  1.6807  1.1851
  675MOL0     H91104  11.197   7.221   5.954  0.7112  1.3247  0.2468
  675MOL0     H91105  10.732   7.278   6.642  0.0294 -2.1880 -6.1608
  675MOL0     H91106  10.530   7.224   6.538 -1.5200  1.7424 -1.5593
  675MOL0     H91107  10.153   7.526   6.340  0.8257  1.3425 -1.0255
  675MOL0     H91108   9.953   7.547   6.183  0.2886  0.3514  0.5618
  675MOL0     H91109   8.194   7.079   5.792  2.3869  3.7445  1.1542
  675MOL0     H91110   7.951   7.013   5.763 -2.6438 -0.4109 -1.9997
  675MOL0     H91111   7.467   7.200   5.819 -3.5354 -1.3107  3.7801
  675MOL0     H91112   7.247   7.122   5.782 -2.1557 -2.9514 -1.0043
  675MOL0     H91113   7.031   7.053   5.648 -1.5679 -1.4483 -2.0611
  675MOL0     H91114   7.079   6.965   5.793  0.3211 -2.1271  0.2152
  675MOL0     H91115   6.863   6.909   5.733 -2.4040 -1.8213 -1.1474
  675MOL0     H91116   6.978   6.773   5.727 -0.7414 -0.5398 -1.0987
  675MOL0     H91117   7.000   6.799   5.476 -0.2867 -3.2788  0.4316
  675MOL0     H91118   6.872   6.912   5.471 -1.6489 -0.6374  0.7150
  675MOL0     H91119   6.753   6.717   5.436 -0.3501  0.3868 -0.2855
  675MOL0     H91120   6.821   6.624   5.570  1.6907  0.7135  1.2329
  675MOL0     H91121   6.509   6.884   5.730  1.1456  4.9833 -1.9862
  675MOL0     H91122   7.387   6.816   5.506 -2.0172  0.9561  0.0173
  675MOL0     H91123   7.724   6.847   5.582  0.9638 -1.3262 -1.6676
  675MOL0     H91124   7.607   6.795   5.453  0.5820 -2.5704  2.3265
  675MOL0     H91125   7.691   6.940   5.437 -0.1839 -0.6206 -0.4080
  676MOL0     O91126   4.550   4.664   6.365 -0.3435  0.7229  0.8240
  676MOL0     C91127   4.564   4.767   6.293  0.3562  0.5296  0.0615
  676MOL0     O91128   4.473   4.870   6.296 -0.1894  0.3472 -0.2221
  676MOL0     C91129   4.370   4.859   6.380 -0.7473  0.8811  0.5208
  676MOL0     C91130   4.252   4.804   6.334 -0.0843  0.1061 -0.0179
  676MOL0     C91131   4.138   4.811   6.406  0.6370  0.2500 -0.8343
  676MOL0     C91132   4.126   4.880   6.527 -0.2030  1.1211 -0.2028
  676MOL0     O91133   4.011   4.898   6.598 -0.2656 -0.1786  0.0024
  676MOL0     C91134   4.002   4.939   6.733 -0.3702 -0.3985  0.3505
  676MOL0     C91135   3.850   4.962   6.762 -0.3883 -0.4114  0.5682
  676MOL0     C91136   3.773   4.845   6.813  0.0915  0.5877 -0.3041
  676MOL0     C91137   3.626   4.867   6.808 -0.2699  0.1831  0.2918
  676MOL0     C91138   3.551   4.751   6.867  0.0197  0.0539 -0.8202
  676MOL0     C91139   3.403   4.778   6.852  0.5129  0.0959 -0.1210
  676MOL0     C91140   3.317   4.696   6.953 -0.7503 -0.7933  0.4820
  676MOL0     C91141   3.243   4.794   7.047  0.5456  0.1943  0.1063
  676MOL0     N91142   3.332   4.836   7.156  0.1166 -0.2846  0.2918
  676MOL0     C91143   3.394   4.957   7.164 -0.0183  0.6121 -0.1026
  676MOL0     C91144   3.489   4.925   7.255 -0.4591  0.8666  0.5888
  676MOL0     C91145   3.601   5.024   7.292  0.7019  0.3186 -1.0752
  676MOL0     C91146   3.728   5.025   7.204 -0.0656 -0.5598 -0.8400
  676MOL0     C91147   3.794   5.158   7.220  0.1722 -0.7982  0.3761
  676MOL0     C91148   3.905   5.175   7.112  0.1525 -0.9409  0.3605
  676MOL0     O91149   3.993   5.065   7.121  0.0544 -0.1963 -0.4458
  676MOL0     C91150   4.114   5.071   7.049  0.4469  0.9302  0.0178
  676MOL0     C91151   4.201   4.963   7.088  0.2195 -1.1370  0.6474
  676MOL0     C91152   4.331   4.962   7.029  0.0657  0.6656  0.1415
  676MOL0     C91153   4.371   5.043   6.922  1.1573 -0.1315  0.0858
  676MOL0     C91154   4.496   5.032   6.843  0.2275  0.5634  0.2199
  676MOL0     O91155   4.587   4.942   6.890  0.3957  0.0266 -0.0898
  676MOL0     C91156   4.702   4.920   6.815 -0.4680  0.7234 -0.5415
  676MOL0     C91157   4.818   4.960   6.877 -0.3431 -0.2566  0.4210
  676MOL0     C91158   4.943   4.950   6.806  0.2444  1.1509 -0.6585
  676MOL0     C91159   4.940   4.896   6.681  0.4114  0.2226 -0.6064
  676MOL0     O91160   5.059   4.905   6.605  0.4425 -0.2645  0.2306
  676MOL0     C91161   5.067   4.883   6.461 -0.0893  0.6087 -0.2314
  676MOL0     C91162   4.995   4.990   6.367 -0.2754  0.0674 -0.3329
  676MOL0     C91163   5.103   5.097   6.310  0.1634 -1.0640 -0.5293
  676MOL0     C91164   5.036   5.229   6.287  0.3847 -0.6571 -0.0715
  676MOL0     C91165   5.128   5.331   6.222  0.3956 -0.2252  1.0036
  676MOL0     C91166   5.063   5.472   6.196 -0.0171 -0.2618 -0.1868
  676MOL0     C91167   5.169   5.568   6.140 -0.7031 -0.1078  0.1707
  676MOL0     C91168   5.117   5.708   6.109 -0.8388  0.0499 -0.4432
  676MOL0    Cl91169   5.259   5.823   6.099  0.3336 -0.2102  0.3750
  676MOL0     C91170   4.824   4.848   6.630  0.1337 -0.2676  0.2526
  676MOL0     C91171   4.707   4.853   6.688  0.1139 -0.1332 -0.1539
  676MOL0     O91172   4.516   5.103   6.738  0.2633 -0.8079 -0.2666
  676MOL0     C91173   4.277   5.149   6.879  0.2003  0.7715 -0.0879
  676MOL0     C91174   4.161   5.165   6.951 -0.4327 -0.1280  0.3003
  676MOL0     N91175   3.483   4.799   7.304  0.3885 -0.3144  0.8360
  676MOL0     N91176   3.375   4.745   7.249 -0.9109 -0.7425  0.7781
  676MOL0     C91177   4.245   4.937   6.577 -0.4590 -0.8619 -0.0323
  676MOL0     C91178   4.362   4.931   6.500 -0.3743 -0.0146  0.7448
  676MOL0     C91179   4.681   4.770   6.203 -0.6300 -0.0999 -0.1829
  676MOL0     C91180   4.778   4.671   6.205  1.0237 -0.3222  0.1915
  676MOL0     C91181   4.898   4.683   6.123 -0.1169  1.0657  0.1468
  676MOL0     C91182   4.908   4.780   6.032 -0.8309 -0.2091  0.6653
  676MOL0     O91183   5.011   4.798   5.944  0.3799 -0.0546  0.0882
  676MOL0     C91184   4.978   4.793   5.805 -0.9920  0.4869  0.6813
  676MOL0     C91185   5.101   4.759   5.717 -0.1231  0.8497 -0.0737
  676MOL0     C91186   5.176   4.640   5.757  0.9277 -0.3563 -0.1044
  676MOL0     C91187   5.311   4.623   5.682 -0.1535 -0.2963 -0.3709
  676MOL0     C91188   5.422   4.672   5.763  0.5629  1.0634  0.9945
  676MOL0     C91189   5.509   4.710   5.840  0.2517 -0.5609 -0.9255
  676MOL0     C91190   4.809   4.877   6.024 -0.4375  0.3161 -0.2049
  676MOL0     C91191   4.702   4.885   6.116  0.3828  0.0897 -0.0671
  676MOL0     C91192   4.616   5.011   6.113 -0.2760 -0.2242 -0.5478
  676MOL0     H91193   4.262   4.753   6.239  2.7025  3.6785 -1.8795
  676MOL0     H91194   4.051   4.768   6.358  2.7350 -3.8745 -1.3604
  676MOL0     H91195   4.057   4.866   6.792  0.4783 -0.9034 -1.0143
  676MOL0     H91196   4.053   5.036   6.735 -1.0392 -0.0217 -0.1541
  676MOL0     H91197   3.799   4.999   6.673 -0.6163 -0.3559  0.7195
  676MOL0     H91198   3.835   5.037   6.839 -2.1821  0.6040 -0.6830
  676MOL0     H91199   3.812   4.830   6.914 -1.8217 -0.6865  0.3086
  676MOL0     H91200   3.794   4.750   6.762 -2.1255 -0.8539  1.2649
  676MOL0     H91201   3.603   4.960   6.862  4.6277  0.3115  2.7794
  676MOL0     H91202   3.601   4.878   6.702 -2.7125 -2.9138  0.3965
  676MOL0     H91203   3.571   4.657   6.815 -0.7942 -0.2584 -0.6022
  676MOL0     H91204   3.561   4.743   6.976  0.1730 -2.7777 -0.9520
  676MOL0     H91205   3.381   4.884   6.869  0.7993  0.4124 -1.6257
  676MOL0     H91206   3.370   4.761   6.749 -1.2688  2.2508  0.0216
  676MOL0     H91207   3.373   4.622   7.011  0.3399  1.5470  2.6352
  676MOL0     H91208   3.253   4.635   6.890 -1.9700  2.4124 -1.6340
  676MOL0     H91209   3.203   4.884   6.999 -0.8014 -1.7166 -2.6198
  676MOL0     H91210   3.153   4.742   7.082  0.9022 -1.0674 -0.7967
  676MOL0     H91211   3.378   5.057   7.126 -0.9502 -0.2004 -1.9984
  676MOL0     H91212   3.555   5.121   7.274  0.5574  1.4052  3.7207
  676MOL0     H91213   3.620   5.010   7.399 -1.2366  3.1104 -0.2782
  676MOL0     H91214   3.800   4.947   7.228  0.4650 -0.2423 -1.3589
  676MOL0     H91215   3.684   4.999   7.107 -0.8396 -0.7404 -0.4531
  676MOL0     H91216   3.827   5.152   7.324 -0.4307 -3.2881  0.4985
  676MOL0     H91217   3.734   5.249   7.219  4.2890  2.1964 -1.0948
  676MOL0     H91218   3.947   5.275   7.127 -2.2344  1.0117 -3.7856
  676MOL0     H91219   3.864   5.184   7.010 -0.2441  3.9432  0.7064
  676MOL0     H91220   4.174   4.894   7.166 -1.6087 -0.5377  0.5806
  676MOL0     H91221   4.405   4.887   7.056 -0.4246  0.3837  0.7189
  676MOL0     H91222   4.821   5.011   6.972 -0.5151  0.4686  0.0414
  676MOL0     H91223   5.028   5.004   6.847  0.3543  1.1701 -0.9090
  676MOL0     H91224   5.171   4.865   6.434  0.3622 -1.9256  2.6331
  676MOL0     H91225   5.023   4.789   6.428 -1.9490  2.3623 -3.2346
  676MOL0     H91226   4.953   4.957   6.272 -0.0064 -0.1577 -0.3734
  676MOL0     H91227   4.915   5.031   6.430 -0.1926  0.5477 -0.5365
  676MOL0     H91228   5.180   5.116   6.386  0.3005  0.6072 -1.0394
  676MOL0     H91229   5.143   5.064   6.214  0.5390  0.6123 -0.9927
  676MOL0     H91230   5.007   5.267   6.385  2.7155 -0.0002  0.4196
  676MOL0     H91231   4.940   5.220   6.236  0.6619  0.8453 -0.9107
  676MOL0     H91232   5.138   5.286   6.123 -1.1653  0.6148  0.4366
  676MOL0     H91233   5.227   5.346   6.266  1.5700  1.7618 -1.9655
  676MOL0     H91234   4.970   5.472   6.140 -1.4357  0.5117  2.0222
  676MOL0     H91235   5.028   5.507   6.294 -0.4537 -2.7204  0.5961
  676MOL0     H91236   5.244   5.524   6.075  1.3715 -1.0451  2.9857
  676MOL0     H91237   5.227   5.596   6.229 -0.8203  2.0255 -0.3625
  676MOL0     H91238   5.067   5.708   6.012  0.8400 -1.7686 -1.3633
  676MOL0     H91239   5.042   5.737   6.184 -3.4092 -1.1402 -2.4015
  676MOL0     H91240   4.832   4.808   6.530  0.0831 -0.2969  0.2604
  676MOL0     H91241   4.625   4.804   6.637  0.5138 -0.6122 -0.3427
  676MOL0     H91242   4.298   5.220   6.800  0.6088  0.2657 -0.4430
  676MOL0     H91243   4.096   5.243   6.913  2.2819  0.5455 -3.7041
  676MOL0     H91244   4.260   4.996   6.667 -1.7948 -0.6823  0.1001
  676MOL0     H91245   4.452   4.987   6.526  1.1466 -1.3069 -1.4549
  676MOL0     H91246   4.757   4.586   6.268 -0.2330  0.1834  0.4901
  676MOL0     H91247   4.985   4.618   6.134  0.2155  1.7615  2.0662
  676MOL0     H91248   4.925   4.881   5.768  1.4024  1.3365 -0.9371
  676MOL0     H91249   4.906   4.711   5.793  1.4278 -1.5272 -0.9385
  676MOL0     H91250   5.155   4.854   5.717 -0.4532  1.0741  2.0081
  676MOL0     H91251   5.065   4.735   5.616 -1.0634  0.7272  0.2805
  676MOL0     H91252   5.124   4.547   5.731 -0.1782 -0.2967  1.7410
  676MOL0     H91253   5.191   4.640   5.865 -0.0756 -0.5811  0.0545
  676MOL0     H91254   5.330   4.520   5.650  2.7572  0.3601 -1.0367
  676MOL0     H91255   5.301   4.686   5.593  0.9772 -0.1992 -0.4400
  676MOL0     H91256   5.597   4.750   5.887 -0.1392 -0.2670 -0.4406
  676MOL0     H91257   4.825   4.965   5.962  1.0953  1.4934  1.7426
  676MOL0     H91258   4.517   4.982   6.077 -1.0554  1.7945 -0.1507
  676MOL0     H91259   4.605   5.053   6.213  0.5372 -1.5833  0.1478
  676MOL0     H91260   4.653   5.082   6.039  1.5728 -0.8473 -0.2752
  677MOL0     O91261   7.746   1.702   3.432  0.7075  0.1479 -0.9641
  677MOL0     C91262   7.737   1.626   3.533 -0.6351 -0.3402  0.9677
  677MOL0     O91263   7.848   1.569   3.595 -0.1104 -0.7551  0.1109
  677MOL0     C91264   7.969   1.594   3.532  1.1191  1.4143 -0.1324
  677MOL0     C91265   8.051   1.695   3.586  0.5277  1.2744  0.2214
  677MOL0     C91266   8.176   1.728   3.544 -0.2098 -0.4417  0.0237
  677MOL0     C91267   8.213   1.657   3.427 -0.2519  0.7378  0.0383
  677MOL0     O91268   8.335   1.689   3.374 -0.0922 -0.2118  0.2298
  677MOL0     C91269   8.429   1.597   3.324  0.0597  0.1585 -0.4227
  677MOL0     C91270   8.542   1.571   3.422  0.1869  0.1357 -0.0568
  677MOL0     C91271   8.619   1.692   3.472 -1.0523 -0.5085 -0.8073
  677MOL0     C91272   8.692   1.758   3.360  0.4507 -0.1783  0.4415
  677MOL0     C91273   8.787   1.872   3.397  0.0562 -0.2945  0.0136
  677MOL0     C91274   8.919   1.860   3.326  0.4067 -0.0955  0.0208
  677MOL0     C91275   9.003   1.995   3.342 -0.3810  0.2064 -0.9555
  677MOL0     C91276   9.093   1.986   3.464  0.0512  0.6158  0.1921
  677MOL0     N91277   9.173   2.102   3.502 -0.0356  0.2803  0.3414
  677MOL0     C91278   9.124   2.231   3.492 -0.3248  0.3040 -0.5995
  677MOL0     C91279   9.229   2.308   3.529 -0.0629  0.3005  0.6803
  677MOL0     C91280   9.228   2.463   3.526 -0.4822  1.1192  0.1308
  677MOL0     C91281   9.360   2.544   3.537 -0.8162 -0.4992 -1.2901
  677MOL0     C91282   9.441   2.548   3.404  0.1426 -0.1944  0.2694
  677MOL0     C91283   9.579   2.615   3.432 -1.2742 -0.2312  0.1418
  677MOL0     O91284   9.643   2.624   3.305  0.1218  0.0392 -0.6180
  677MOL0     C91285   9.767   2.671   3.304 -0.1869  0.4971  0.0777
  677MOL0     C91286   9.816   2.769   3.390 -0.0470 -0.3819 -1.0017
  677MOL0     C91287   9.952   2.809   3.374 -0.0548  0.2927  0.3170
  677MOL0     C91288  10.037   2.740   3.280  0.4268 -0.3432  0.9974
  677MOL0     C91289  10.182   2.765   3.262  0.7555  1.0925 -0.1199
  677MOL0     O91290  10.246   2.683   3.177 -0.1349 -0.0874 -0.1780
  677MOL0     C91291  10.384   2.668   3.178 -0.9475 -0.1136 -1.3576
  677MOL0     C91292  10.437   2.536   3.153  0.8888 -0.0378 -0.3581
  677MOL0     C91293  10.578   2.530   3.139 -0.5732  0.6206  0.0208
  677MOL0     C91294  10.664   2.640   3.157  0.2306 -0.0713  0.3627
  677MOL0     O91295  10.800   2.645   3.143 -0.1569 -0.2739 -0.1817
  677MOL0     C91296  10.875   2.535   3.104  0.5032 -0.0340  0.5577
  677MOL0     C91297  11.016   2.591   3.076 -0.2780  0.0596  0.2704
  677MOL0     C91298  11.107   2.483   3.016 -0.9776  0.3767  0.6612
  677MOL0     C91299  11.245   2.558   3.003 -0.1617 -0.9442  0.5143
  677MOL0     C91300  11.346   2.453   2.957  0.1000 -0.5306 -0.1055
  677MOL0     C91301  11.484   2.532   2.936 -0.6964 -0.3152  0.4938
  677MOL0     C91302  11.591   2.421   2.929  0.5055  0.5217  0.7131
  677MOL0     C91303  11.632   2.386   2.781 -0.3777 -0.2612 -0.2958
  677MOL0    Cl91304  11.489   2.324   2.692 -0.4338 -0.4366 -0.6562
  677MOL0     C91305  10.601   2.763   3.178 -0.2361  0.4587 -0.5499
  677MOL0     C91306  10.470   2.773   3.197  1.2452  0.2507 -0.0372
  677MOL0     O91307  10.232   2.847   3.341  0.1001 -0.1411  0.0139
  677MOL0     C91308   9.985   2.635   3.205 -0.3404  0.3430  0.0332
  677MOL0     C91309   9.847   2.610   3.202 -0.4588 -0.1623 -1.2741
  677MOL0     N91310   9.329   2.226   3.563 -0.6528 -0.2289  0.6715
  677MOL0     N91311   9.300   2.102   3.542 -0.1293 -0.2799  0.3284
  677MOL0     C91312   8.133   1.555   3.371 -0.5853  0.2919  0.1085
  677MOL0     C91313   8.014   1.526   3.424 -0.2483 -0.1371 -0.0812
  677MOL0     C91314   7.601   1.581   3.582  0.2313  0.1039  0.0377
  677MOL0     C91315   7.599   1.470   3.655  0.9017  0.7030 -0.4676
  677MOL0     C91316   7.478   1.415   3.710 -0.0336  1.1928  1.1200
  677MOL0     C91317   7.359   1.478   3.688 -0.5581 -0.2682 -0.6422
  677MOL0     O91318   7.241   1.433   3.742  0.0619 -0.2997  0.5468
  677MOL0     C91319   7.226   1.304   3.796 -0.7254  0.3546  0.3592
  677MOL0     C91320   7.098   1.289   3.865  0.4207  0.9096  0.5848
  677MOL0     C91321   7.067   1.140   3.890 -0.6577 -0.0582 -0.3901
  677MOL0     C91322   7.019   1.068   3.767 -0.7265 -0.0570 -0.6035
  677MOL0     C91323   6.885   1.117   3.722  0.4325  0.3370 -0.3718
  677MOL0     C91324   6.777   1.153   3.702  0.5614 -0.0389  0.3033
  677MOL0     C91325   7.358   1.603   3.631  0.3663  0.3001 -0.2517
  677MOL0     C91326   7.476   1.655   3.569  1.1067  0.4150  0.5936
  677MOL0     C91327   7.456   1.785   3.497 -0.8228 -0.5444 -0.0854
  677MOL0     H91328   8.004   1.760   3.660 -0.9544  0.0835  0.3606
  677MOL0     H91329   8.239   1.801   3.594 -1.8629  0.4649  0.8773
  677MOL0     H91330   8.386   1.499   3.301 -1.0436  0.1306  1.5140
  677MOL0     H91331   8.474   1.631   3.231 -0.0550 -0.7203 -0.8141
  677MOL0     H91332   8.613   1.504   3.374  0.1271 -1.0754  1.4477
  677MOL0     H91333   8.490   1.518   3.502 -0.4905  0.0718 -0.5343
  677MOL0     H91334   8.694   1.668   3.547  0.6060  3.2340 -1.0603
  677MOL0     H91335   8.557   1.764   3.527  0.2930  0.9807 -1.1632
  677MOL0     H91336   8.755   1.689   3.303  1.8332 -0.0252  1.7299
  677MOL0     H91337   8.617   1.799   3.291  0.1437  1.7507  1.8199
  677MOL0     H91338   8.732   1.962   3.369  1.8810  0.2105 -2.2981
  677MOL0     H91339   8.797   1.879   3.506 -1.9447  0.1371  0.1919
  677MOL0     H91340   8.974   1.772   3.358  1.0434 -0.0357 -0.8684
  677MOL0     H91341   8.909   1.856   3.217 -0.8496  2.0372 -0.0115
  677MOL0     H91342   8.938   2.083   3.338  0.1898  0.6281 -1.1789
  677MOL0     H91343   9.066   1.997   3.252 -1.3149 -6.1002 -2.2458
  677MOL0     H91344   9.023   1.964   3.545  0.1770  1.0582  0.4256
  677MOL0     H91345   9.171   1.910   3.458  1.7851  2.0313  2.6447
  677MOL0     H91346   9.029   2.256   3.446 -1.1730  0.8112  1.3273
  677MOL0     H91347   9.185   2.484   3.428 -0.9366 -3.1962 -0.8043
  677MOL0     H91348   9.170   2.479   3.618  1.5227 -0.3682  1.7730
  677MOL0     H91349   9.338   2.651   3.547  3.4468  0.3317  1.4770
  677MOL0     H91350   9.429   2.504   3.611  0.4002 -1.2347 -2.7521
  677MOL0     H91351   9.383   2.608   3.334  1.4837  0.6336 -0.1786
  677MOL0     H91352   9.463   2.447   3.368 -0.6583  0.1754 -1.3708
  677MOL0     H91353   9.644   2.555   3.496 -2.1863 -0.2686  1.0540
  677MOL0     H91354   9.563   2.717   3.468 -1.0414 -0.2473  0.2895
  677MOL0     H91355   9.756   2.831   3.455  1.1080 -2.0274  1.8104
  677MOL0     H91356   9.985   2.899   3.426  1.7260 -0.1343 -0.0013
  677MOL0     H91357  10.370   2.452   3.142 -1.3670  1.2603  2.3424
  677MOL0     H91358  10.614   2.437   3.095 -0.7918  0.4993  0.0996
  677MOL0     H91359  10.875   2.458   3.182 -1.3757 -1.6564 -0.9317
  677MOL0     H91360  10.830   2.487   3.016  2.0266 -2.6340  1.0963
  677MOL0     H91361  10.997   2.675   3.008 -2.3780  0.9345  1.8303
  677MOL0     H91362  11.057   2.625   3.171 -2.7324  1.0760  1.0187
  677MOL0     H91363  11.125   2.398   3.083  1.1682 -1.3268 -1.8918
  677MOL0     H91364  11.080   2.446   2.917  0.0352  0.3628  0.3787
  677MOL0     H91365  11.280   2.596   3.099  3.1425  1.8908 -1.5766
  677MOL0     H91366  11.255   2.645   2.938  3.8722  0.1386  2.2945
  677MOL0     H91367  11.317   2.390   2.873 -1.3710  1.6727 -1.3323
  677MOL0     H91368  11.362   2.380   3.037  1.7786  0.6802  0.7398
  677MOL0     H91369  11.467   2.591   2.845  0.0918 -0.6897  0.0953
  677MOL0     H91370  11.501   2.594   3.025  1.6064  0.8212 -0.6344
  677MOL0     H91371  11.556   2.333   2.983  0.7697  1.5190  2.5987
  677MOL0     H91372  11.683   2.451   2.979  1.2729 -2.4959  1.2930
  677MOL0     H91373  11.679   2.468   2.725 -1.6507  0.8422  0.1871
  677MOL0     H91374  11.702   2.303   2.789 -0.7034 -0.4155  1.4295
  677MOL0     H91375  10.660   2.855   3.170  2.5693 -1.3009 -1.7302
  677MOL0     H91376  10.437   2.876   3.205 -2.6372 -0.9108  1.0838
  677MOL0     H91377  10.043   2.579   3.133  0.5962 -0.5189  1.4067
  677MOL0     H91378   9.802   2.548   3.125 -0.6301 -3.2585  1.1263
  677MOL0     H91379   8.161   1.488   3.291 -2.7790 -0.3905 -0.1674
  677MOL0     H91380   7.947   1.466   3.362  0.1558 -0.9209  0.2243
  677MOL0     H91381   7.689   1.410   3.664  1.3622  0.9906 -2.6739
  677MOL0     H91382   7.480   1.321   3.764  3.2878 -0.8202 -2.0886
  677MOL0     H91383   7.300   1.294   3.876  0.8005  2.2888 -0.7328
  677MOL0     H91384   7.241   1.235   3.713 -2.8273  0.2598 -0.0040
  677MOL0     H91385   7.014   1.333   3.810 -0.9973 -2.5349 -0.2770
  677MOL0     H91386   7.095   1.333   3.965 -1.6566  0.8833  0.5897
  677MOL0     H91387   6.995   1.124   3.971  0.4281  3.4784  1.4715
  677MOL0     H91388   7.160   1.094   3.923  0.6094  1.1366 -2.1415
  677MOL0     H91389   7.090   1.095   3.687  2.2080 -0.4455  1.6818
  677MOL0     H91390   7.006   0.960   3.771 -3.2166  0.1963  3.9866
  677MOL0     H91391   6.687   1.201   3.670 -0.2965 -0.5380  1.8611
  677MOL0     H91392   7.260   1.651   3.635 -1.3887 -2.6155 -3.0435
  677MOL0     H91393   7.376   1.845   3.541  0.3291  0.1702  1.1117
  677MOL0     H91394   7.549   1.843   3.498 -1.1728  0.1028 -1.7729
  677MOL0     H91395   7.437   1.764   3.391  1.7500 -1.0851 -0.5278
  678MOL0     O91396   1.455   8.808   0.383  0.3942 -0.0372  0.8615
  678MOL0     C91397   1.459   8.908   0.457 -0.3223  0.0418  0.0824
  678MOL0     O91398   1.419   8.910   0.592 -0.3053  0.1726 -0.0479
  678MOL0     C91399   1.365   8.794   0.642 -0.9524 -0.6567 -0.3539
  678MOL0     C91400   1.430   8.748   0.757 -0.1470  0.5550  0.0018
  678MOL0     C91401   1.395   8.633   0.815  0.2253  0.8299 -0.3686
  678MOL0     C91402   1.285   8.564   0.763 -0.7795  0.3581  0.1430
  678MOL0     O91403   1.258   8.446   0.811 -0.1335  1.0994  0.0415
  678MOL0     C91404   1.290   8.340   0.725 -0.5179 -0.2195  0.6982
  678MOL0     C91405   1.300   8.210   0.801 -0.1158  0.6929  0.1216
  678MOL0     C91406   1.159   8.149   0.838  0.9134 -0.5496 -0.4330
  678MOL0     C91407   1.165   8.003   0.890  0.7302 -0.0606 -0.1962
  678MOL0     C91408   1.030   7.934   0.893  0.3677  0.5591 -0.6126
  678MOL0     C91409   1.036   7.783   0.925  0.2637  0.3594  0.6846
  678MOL0     C91410   1.111   7.740   1.051  0.2809  0.2125  0.3152
  678MOL0     C91411   1.123   7.590   1.074  1.0180 -0.1555  0.5043
  678MOL0     N91412   1.208   7.543   1.183 -0.3543 -0.3316 -0.0792
  678MOL0     C91413   1.159   7.478   1.296 -0.8901 -0.6411 -0.0311
  678MOL0     C91414   1.269   7.427   1.359  0.2512  0.6355 -0.4375
  678MOL0     C91415   1.273   7.331   1.468  0.5581  0.2131  0.2696
  678MOL0     C91416   1.404   7.336   1.546  0.6115 -0.0930 -0.1253
  678MOL0     C91417   1.414   7.470   1.620  0.0179 -0.1511  0.5528
  678MOL0     C91418   1.554   7.497   1.674  0.0436  0.3443 -0.1719
  678MOL0     O91419   1.567   7.635   1.732 -0.4091 -0.1097  0.1219
  678MOL0     C91420   1.659   7.718   1.677  0.1830  0.2335 -0.2206
  678MOL0     C91421   1.668   7.750   1.541  0.0851  0.8133 -0.2464
  678MOL0     C91422   1.770   7.838   1.494  0.3566  0.8075 -0.1499
  678MOL0     C91423   1.870   7.881   1.579  0.1204 -0.0572 -0.1665
  678MOL0     C91424   1.993   7.953   1.524 -0.2644 -0.9009 -0.6103
  678MOL0     O91425   1.988   7.997   1.392  0.2849 -0.0879  0.2116
  678MOL0     C91426   2.080   8.084   1.343 -0.0922 -0.8621 -1.3857
  678MOL0     C91427   2.095   8.214   1.401  0.8585  0.0226 -0.5640
  678MOL0     C91428   2.191   8.303   1.343  0.0618 -0.2793 -0.5118
  678MOL0     C91429   2.265   8.257   1.225 -0.0485 -0.3391  0.8630
  678MOL0     O91430   2.344   8.334   1.145  0.3684 -0.2700 -0.3434
  678MOL0     C91431   2.295   8.464   1.121  0.2330 -0.2607 -0.5857
  678MOL0     C91432   2.356   8.531   1.001 -0.2977  0.0302  0.7098
  678MOL0     C91433   2.364   8.437   0.882  0.2986  0.9083 -0.5415
  678MOL0     C91434   2.435   8.501   0.763  0.2452  1.3181 -0.1595
  678MOL0     C91435   2.458   8.411   0.641  0.3258 -0.1114 -0.1884
  678MOL0     C91436   2.469   8.481   0.511 -0.6094 -0.2255 -0.5764
  678MOL0     C91437   2.572   8.589   0.506 -0.8879 -0.1861 -0.7157
  678MOL0     C91438   2.586   8.643   0.359  0.6722  0.2112 -0.6278
  678MOL0    Cl91439   2.464   8.764   0.317 -0.3850 -0.5257 -0.5167
  678MOL0     C91440   2.242   8.128   1.172 -1.0152  0.6673  0.5474
  678MOL0     C91441   2.146   8.046   1.228  0.3918 -0.1833  0.0987
  678MOL0     O91442   2.074   7.988   1.606  0.9313  0.5983 -0.2204
  678MOL0     C91443   1.856   7.849   1.718  0.2875  0.0174  0.3481
  678MOL0     C91444   1.751   7.778   1.766  0.8149  0.1238 -0.1852
  678MOL0     N91445   1.375   7.474   1.287 -0.4134 -1.0251  0.6430
  678MOL0     N91446   1.344   7.540   1.176  0.6505  0.1926  0.1117
  678MOL0     C91447   1.207   8.610   0.656 -0.8777 -0.8296 -0.0276
  678MOL0     C91448   1.254   8.730   0.595  0.9134  0.1481 -0.2324
  678MOL0     C91449   1.504   9.043   0.413 -0.5545 -0.0939  0.3899
  678MOL0     C91450   1.614   9.105   0.477 -0.0151 -0.0979 -0.0652
  678MOL0     C91451   1.674   9.233   0.435  0.1766  0.4793  0.3638
  678MOL0     C91452   1.599   9.291   0.329 -0.4946 -0.1393 -0.9704
  678MOL0     O91453   1.649   9.413   0.289  0.7571 -0.0812 -0.4737
  678MOL0     C91454   1.552   9.523   0.264  0.2052  0.4323  0.3376
  678MOL0     C91455   1.632   9.657   0.266  0.1098 -1.1329 -0.6307
  678MOL0     C91456   1.748   9.661   0.169 -0.1314 -0.2450  0.0344
  678MOL0     C91457   1.827   9.796   0.184  0.0687  0.4913 -0.2976
  678MOL0     C91458   1.897   9.788   0.320 -0.3336  0.0249  0.4664
  678MOL0     C91459   1.956   9.785   0.423 -0.3501 -1.0058 -0.4682
  678MOL0     C91460   1.484   9.237   0.268 -0.3580  0.7667 -0.6046
  678MOL0     C91461   1.439   9.106   0.302 -0.3606 -0.1719  0.6339
  678MOL0     C91462   1.330   9.040   0.211  0.5632  0.9798 -0.2911
  678MOL0     H91463   1.522   8.792   0.795 -0.0965  0.6703 -0.2534
  678MOL0     H91464   1.439   8.611   0.912 -0.4830 -0.4165 -0.2963
  678MOL0     H91465   1.213   8.334   0.648 -0.4697  1.0237  0.5238
  678MOL0     H91466   1.384   8.369   0.677 -2.9537  2.7622 -2.7950
  678MOL0     H91467   1.360   8.235   0.889 -0.6702 -0.1869  0.7680
  678MOL0     H91468   1.350   8.142   0.731  1.0276  1.3806  0.2407
  678MOL0     H91469   1.100   8.149   0.746 -0.2166 -0.9259  0.2695
  678MOL0     H91470   1.104   8.214   0.906  1.7270 -0.9499  0.6381
  678MOL0     H91471   1.237   7.943   0.833  1.0902  0.5300 -0.3748
  678MOL0     H91472   1.213   8.013   0.988 -0.7941  1.2213  0.4496
  678MOL0     H91473   0.969   7.993   0.962 -1.4008  1.2230 -2.6315
  678MOL0     H91474   0.982   7.940   0.795  0.5350  0.5571 -0.6960
  678MOL0     H91475   0.934   7.751   0.950 -0.3410  3.4189  2.5281
  678MOL0     H91476   1.071   7.745   0.828 -3.6688  3.4719 -2.3419
  678MOL0     H91477   1.066   7.784   1.140  1.5137  2.5621 -0.1599
  678MOL0     H91478   1.215   7.769   1.037 -0.0626  0.4855 -2.0573
  678MOL0     H91479   1.019   7.565   1.096  0.1406 -1.2551 -3.8911
  678MOL0     H91480   1.143   7.541   0.979  2.0721 -1.1241  1.1943
  678MOL0     H91481   1.053   7.473   1.318 -0.4828 -1.4065  1.9794
  678MOL0     H91482   1.180   7.345   1.525 -0.7207 -1.6984 -1.1756
  678MOL0     H91483   1.274   7.234   1.416  1.1326  0.4945 -0.2556
  678MOL0     H91484   1.414   7.249   1.612  0.8279 -1.0095 -1.3265
  678MOL0     H91485   1.489   7.328   1.478 -0.2734 -0.3242 -1.2338
  678MOL0     H91486   1.353   7.456   1.710 -3.1233 -0.1056 -1.4116
  678MOL0     H91487   1.380   7.558   1.564  0.5661 -0.0732  0.3351
  678MOL0     H91488   1.622   7.492   1.589 -0.6620 -1.0867 -0.6834
  678MOL0     H91489   1.576   7.420   1.748 -0.1389  1.0900  0.6799
  678MOL0     H91490   1.610   7.687   1.475  1.3532 -0.8091  0.1401
  678MOL0     H91491   1.780   7.854   1.387 -0.4052 -0.1125 -0.3736
  678MOL0     H91492   2.039   8.249   1.487  5.1502  0.3516  2.4660
  678MOL0     H91493   2.191   8.403   1.385  1.4393 -0.6460  0.4198
  678MOL0     H91494   2.187   8.474   1.130  0.4913  1.3485  1.2347
  678MOL0     H91495   2.321   8.529   1.205 -0.9503  0.0515 -0.4486
  678MOL0     H91496   2.298   8.619   0.974  1.6581  0.8310 -1.2546
  678MOL0     H91497   2.454   8.575   1.025 -0.6292  1.1004  0.1639
  678MOL0     H91498   2.415   8.343   0.904  1.9810  0.5918 -4.7809
  678MOL0     H91499   2.260   8.417   0.858 -0.0307  0.3996  1.2042
  678MOL0     H91500   2.525   8.549   0.802  2.8978 -2.2920 -1.2673
  678MOL0     H91501   2.368   8.582   0.733  1.2156  2.9562  1.8412
  678MOL0     H91502   2.374   8.341   0.632  0.8872 -0.4860 -3.8376
  678MOL0     H91503   2.547   8.349   0.652 -0.3855 -0.8939  1.5603
  678MOL0     H91504   2.487   8.400   0.438  0.0988 -3.0780  2.5181
  678MOL0     H91505   2.369   8.525   0.502 -1.5660 -1.9060  1.1722
  678MOL0     H91506   2.672   8.550   0.529 -0.8796  0.0502 -0.3383
  678MOL0     H91507   2.544   8.671   0.573  0.7213  0.2427 -0.5297
  678MOL0     H91508   2.685   8.689   0.353 -0.8246  3.5344 -2.9102
  678MOL0     H91509   2.579   8.561   0.287  0.2029 -0.2914 -0.0190
  678MOL0     H91510   2.295   8.094   1.084 -2.6909  0.2895 -0.3677
  678MOL0     H91511   2.125   7.955   1.174 -3.5851  2.2067 -2.8715
  678MOL0     H91512   1.936   7.875   1.787  0.2559  0.0284  0.3802
  678MOL0     H91513   1.739   7.748   1.869 -0.4051 -1.4649 -0.7311
  678MOL0     H91514   1.124   8.556   0.613  0.9444 -4.1773  0.3695
  678MOL0     H91515   1.192   8.771   0.515 -0.6016 -1.1668  0.2053
  678MOL0     H91516   1.642   9.062   0.572  0.9156 -0.2275 -0.3863
  678MOL0     H91517   1.757   9.284   0.482 -0.5411  0.1051  2.0802
  678MOL0     H91518   1.482   9.532   0.347 -2.1842  0.4723 -1.5781
  678MOL0     H91519   1.491   9.507   0.175  0.0952 -1.8613  0.7671
  678MOL0     H91520   1.665   9.679   0.368 -2.4012 -0.1662  0.0606
  678MOL0     H91521   1.568   9.744   0.244 -0.0467 -1.5321 -1.8069
  678MOL0     H91522   1.711   9.669   0.066 -0.0743  3.8393  0.1948
  678MOL0     H91523   1.816   9.575   0.174 -2.5541 -2.2035  2.6478
  678MOL0     H91524   1.913   9.790   0.116  0.3563 -1.5305  0.1776
  678MOL0     H91525   1.771   9.888   0.167 -1.7125 -0.3553  0.7457
  678MOL0     H91526   1.998   9.781   0.522 -1.3248  1.7878  0.1535
  678MOL0     H91527   1.443   9.288   0.182  0.1182  0.6785 -0.8863
  678MOL0     H91528   1.305   9.094   0.119 -3.2404  0.1625  0.0976
  678MOL0     H91529   1.372   8.942   0.189 -2.1776 -0.7358  1.6205
  678MOL0     H91530   1.237   9.010   0.260  1.4917 -5.5061 -1.6373
  679MOL0     O91531  10.918   6.858   9.419  0.1405  0.0899  0.4454
  679MOL0     C91532  10.987   6.790   9.487  0.1908  0.3016 -0.8284
  679MOL0     O91533  11.126   6.775   9.475 -0.5170 -0.4349 -0.5432
  679MOL0     C91534  11.203   6.849   9.389  0.2095 -0.6281 -0.2301
  679MOL0     C91535  11.338   6.808   9.380  0.2532 -0.6429 -0.0963
  679MOL0     C91536  11.425   6.900   9.306 -0.3221 -0.7801 -0.3464
  679MOL0     C91537  11.382   7.025   9.253  1.1213 -0.4417 -0.0892
  679MOL0     O91538  11.453   7.111   9.178  0.2776 -0.2803  0.3669
  679MOL0     C91539  11.590   7.126   9.216  0.1503 -0.2664  0.4980
  679MOL0     C91540  11.636   7.263   9.173 -0.4234 -0.1659 -0.1496
  679MOL0     C91541  11.776   7.284   9.234  0.2367  0.3482  0.4195
  679MOL0     C91542  11.841   7.400   9.162 -0.0932  0.3291  0.7171
  679MOL0     C91543  11.978   7.434   9.216  0.2071  0.3686 -0.7492
  679MOL0     C91544  12.024   7.566   9.169 -1.0149  0.1684  0.7988
  679MOL0     C91545  12.157   7.587   9.242 -0.4313 -0.5199  0.1894
  679MOL0     C91546  12.242   7.680   9.148  0.3112  0.7309 -0.0239
  679MOL0     N91547  12.376   7.686   9.213  0.0168 -0.4445  0.2486
  679MOL0     C91548  12.488   7.619   9.180  0.6767 -0.1333 -0.7081
  679MOL0     C91549  12.590   7.665   9.255  0.8832  0.3321 -0.2350
  679MOL0     C91550  12.729   7.622   9.275 -0.7517 -0.9148  0.6352
  679MOL0     C91551  12.833   7.693   9.181  0.1919  0.7409  0.7885
  679MOL0     C91552  12.878   7.821   9.238  0.1775 -0.8835  0.1844
  679MOL0     C91553  12.973   7.894   9.138 -0.3907 -0.9754  0.5985
  679MOL0     O91554  13.099   7.826   9.158  0.5015 -0.5080  0.6039
  679MOL0     C91555  13.217   7.872   9.101  0.5995  0.6684  0.4093
  679MOL0     C91556  13.326   7.794   9.095  0.8047 -0.3608 -0.2616
  679MOL0     C91557  13.442   7.832   9.025  0.1401 -0.1021 -0.7675
  679MOL0     C91558  13.456   7.959   8.969  0.4903  0.4586 -1.8736
  679MOL0     C91559  13.576   7.996   8.882 -0.2310  0.1912 -0.1317
  679MOL0     O91560  13.586   8.125   8.839 -0.4325  0.3229  0.2519
  679MOL0     C91561  13.706   8.157   8.780  0.8522 -0.7477 -0.0271
  679MOL0     C91562  13.831   8.128   8.829 -0.4202  0.1308 -0.2852
  679MOL0     C91563  13.948   8.177   8.761 -0.0925 -0.3983  0.2428
  679MOL0     C91564  13.930   8.243   8.641  0.3811 -0.3432 -0.5322
  679MOL0     O91565  14.024   8.286   8.565 -0.1328 -0.1830  0.2420
  679MOL0     C91566  14.128   8.369   8.621  0.4752 -0.5103 -0.1578
  679MOL0     C91567  14.072   8.516   8.620  0.8585  0.1390  0.1960
  679MOL0     C91568  14.110   8.586   8.482  0.4608  0.0883 -0.8428
  679MOL0     C91569  14.009   8.570   8.369  0.9695 -0.1415 -0.1305
  679MOL0     C91570  14.045   8.647   8.240 -0.1853 -0.4933 -0.3637
  679MOL0     C91571  14.154   8.582   8.148 -0.3062 -0.4677  0.2079
  679MOL0     C91572  14.272   8.678   8.116 -0.3296 -0.2736  0.1006
  679MOL0     C91573  14.356   8.701   8.243 -0.7004 -0.3112  0.8630
  679MOL0    Cl91574  14.506   8.785   8.198 -0.0116  0.0019 -0.0812
  679MOL0     C91575  13.804   8.269   8.588  0.1197  0.8270 -0.1065
  679MOL0     C91576  13.694   8.223   8.653  1.3901 -0.0168  0.0566
  679MOL0     O91577  13.663   7.914   8.867  0.3984  1.8448 -0.2962
  679MOL0     C91578  13.348   8.045   8.988  0.1686  0.4926  0.1544
  679MOL0     C91579  13.231   8.009   9.053 -0.2041 -0.4733  0.1053
  679MOL0     N91580  12.532   7.771   9.330 -0.5814 -0.5634 -0.8525
  679MOL0     N91581  12.410   7.785   9.292  0.0737  0.3879 -0.2677
  679MOL0     C91582  11.249   7.061   9.274  0.1936  0.2798 -0.6192
  679MOL0     C91583  11.163   6.975   9.338 -0.0931 -0.3731 -0.0756
  679MOL0     C91584  10.932   6.730   9.607  0.3474  0.9328  0.4245
  679MOL0     C91585  11.017   6.665   9.699  0.0462 -0.3164 -0.2494
  679MOL0     C91586  10.978   6.585   9.797 -0.3030 -0.0166  0.5170
  679MOL0     C91587  10.841   6.578   9.832  0.0406  0.0437 -0.1599
  679MOL0     O91588  10.816   6.499   9.939  0.0365 -0.8359  0.5046
  679MOL0     C91589  10.723   6.553  10.031  0.2638  0.8690  0.5916
  679MOL0     C91590  10.787   6.676  10.102 -0.2287 -0.2197  0.1485
  679MOL0     C91591  10.897   6.631  10.201 -0.0322 -0.3480 -0.3203
  679MOL0     C91592  10.929   6.743  10.297 -0.4556  0.1999  0.2695
  679MOL0     C91593  10.966   6.859  10.221  0.6785 -0.7595 -0.5418
  679MOL0     C91594  11.003   6.941  10.133 -0.5811  0.5015 -0.1727
  679MOL0     C91595  10.748   6.642   9.747 -0.5224  0.4604  0.5963
  679MOL0     C91596  10.789   6.712   9.632 -0.6191 -0.3746 -0.0002
  679MOL0     C91597  10.678   6.744   9.540  0.5219  1.2916  0.6713
  679MOL0     H91598  11.371   6.710   9.412 -1.8825 -0.3574  3.4948
  679MOL0     H91599  11.529   6.869   9.294 -0.1806 -0.7566  0.7487
  679MOL0     H91600  11.607   7.117   9.324 -0.7720  0.4080  0.7124
  679MOL0     H91601  11.653   7.053   9.164  0.2501  1.2078 -1.5965
  679MOL0     H91602  11.562   7.336   9.204 -2.5816 -2.2819 -0.0718
  679MOL0     H91603  11.644   7.256   9.064  0.0431 -2.3179 -0.0420
  679MOL0     H91604  11.845   7.201   9.220  1.3981  1.6184 -1.8953
  679MOL0     H91605  11.771   7.304   9.342 -0.5960 -0.3880  0.5338
  679MOL0     H91606  11.858   7.381   9.055 -1.7059  1.5622  0.2175
  679MOL0     H91607  11.780   7.491   9.165  4.3991  3.8410 -1.0411
  679MOL0     H91608  11.960   7.452   9.322 -1.9556  0.4965 -1.0780
  679MOL0     H91609  12.052   7.355   9.203  0.2614  0.4361 -0.8519
  679MOL0     H91610  12.032   7.563   9.060 -0.2674 -2.3014  0.8705
  679MOL0     H91611  11.952   7.645   9.194  1.3026  3.0093 -0.8633
  679MOL0     H91612  12.214   7.497   9.264  3.1603  0.9725 -2.0765
  679MOL0     H91613  12.128   7.635   9.336  1.5429 -1.3003  1.2519
  679MOL0     H91614  12.251   7.628   9.051 -4.2910  1.7686 -1.2647
  679MOL0     H91615  12.191   7.775   9.135 -0.3904  0.2975 -0.5213
  679MOL0     H91616  12.496   7.540   9.106 -0.1814 -1.3409  0.4364
  679MOL0     H91617  12.760   7.620   9.380  0.9419 -1.1776  0.1651
  679MOL0     H91618  12.724   7.520   9.236 -1.0557 -0.4684 -0.5295
  679MOL0     H91619  12.920   7.627   9.183  0.4003  0.9968  0.3793
  679MOL0     H91620  12.798   7.713   9.079 -0.8349  1.4192  1.2576
  679MOL0     H91621  12.935   7.795   9.328 -1.9441  2.0386  2.5775
  679MOL0     H91622  12.799   7.891   9.263  2.4526  1.1368  2.2453
  679MOL0     H91623  12.977   8.002   9.157 -1.8410 -0.4261 -1.7129
  679MOL0     H91624  12.944   7.887   9.032 -1.3566 -4.0803  0.9707
  679MOL0     H91625  13.320   7.694   9.135 -1.9308 -0.1966 -0.0745
  679MOL0     H91626  13.528   7.768   9.008  1.3726  0.7982  1.6094
  679MOL0     H91627  13.836   8.065   8.917  1.6002 -0.4386 -0.7493
  679MOL0     H91628  14.053   8.167   8.784  0.1501  0.9469 -0.1857
  679MOL0     H91629  14.145   8.337   8.724 -2.0501 -0.2654  0.3837
  679MOL0     H91630  14.216   8.357   8.556  1.0705  2.9248 -0.1468
  679MOL0     H91631  13.969   8.521   8.656  2.0800 -0.8207  4.2512
  679MOL0     H91632  14.117   8.576   8.699 -1.8519  0.7352  1.4166
  679MOL0     H91633  14.120   8.693   8.504  2.5159 -0.0950 -0.6517
  679MOL0     H91634  14.209   8.557   8.445  0.4814 -0.6743 -0.2108
  679MOL0     H91635  13.915   8.611   8.407  0.7977 -0.5491 -0.1000
  679MOL0     H91636  13.996   8.466   8.337 -0.2329  0.3432 -1.3410
  679MOL0     H91637  14.064   8.752   8.263  1.7226 -1.1855  1.5506
  679MOL0     H91638  13.952   8.641   8.182 -0.2590 -2.3885 -0.0964
  679MOL0     H91639  14.202   8.494   8.191 -0.8587 -0.0565  1.7160
  679MOL0     H91640  14.096   8.547   8.062  0.8841  0.8167 -1.1774
  679MOL0     H91641  14.224   8.770   8.081  0.6350 -0.3514 -1.5346
  679MOL0     H91642  14.336   8.637   8.037 -0.3328 -0.5874  0.2605
  679MOL0     H91643  14.306   8.753   8.325 -0.9914 -1.1439  1.2194
  679MOL0     H91644  14.396   8.603   8.270 -0.0728 -0.3879 -0.2765
  679MOL0     H91645  13.804   8.321   8.493 -1.8752 -0.3919 -0.8339
  679MOL0     H91646  13.598   8.246   8.607  0.9803  0.6681  1.2151
  679MOL0     H91647  13.351   8.152   8.967  1.3785  0.5042  0.3207
  679MOL0     H91648  13.159   8.089   9.062  0.1670 -0.2966  1.8793
  679MOL0     H91649  11.220   7.159   9.237  3.3695  0.8524 -1.9526
  679MOL0     H91650  11.063   7.014   9.350  1.2670  3.2624  0.7576
  679MOL0     H91651  11.125   6.674   9.697  0.0720 -0.7355 -1.9789
  679MOL0     H91652  11.052   6.521   9.845  0.8734  1.5398  0.8576
  679MOL0     H91653  10.701   6.480  10.109 -2.9808  0.2601 -0.7142
  679MOL0     H91654  10.627   6.588   9.990  0.4111  0.3023 -0.2595
  679MOL0     H91655  10.703   6.721  10.156  0.1168  0.8063 -0.1400
  679MOL0     H91656  10.818   6.756  10.034  1.0150 -0.8436 -0.0456
  679MOL0     H91657  10.990   6.606  10.149  0.6175  1.9451 -0.3992
  679MOL0     H91658  10.866   6.548  10.265  0.4466 -0.3807 -0.1255
  679MOL0     H91659  10.841   6.766  10.357 -1.6026 -3.3381  0.1550
  679MOL0     H91660  11.020   6.716  10.350 -0.6548 -1.4116 -0.1513
  679MOL0     H91661  11.039   7.008  10.058  0.7652 -2.2430 -2.1414
  679MOL0     H91662  10.641   6.623   9.752 -0.6123  0.1704 -1.6016
  679MOL0     H91663  10.586   6.759   9.597 -0.3139  0.5008 -0.4269
  679MOL0     H91664  10.700   6.838   9.488 -0.7457  0.8934 -0.6209
  679MOL0     H91665  10.655   6.660   9.475  0.5942  1.1916  0.7747
  680MOL0     O91666   8.124   2.440   5.869 -0.4042  0.2657 -0.1610
  680MOL0     C91667   8.194   2.332   5.848  0.5132  0.5344 -0.7463
  680MOL0     O91668   8.142   2.199   5.839 -0.7333 -0.0843  0.3308
  680MOL0     C91669   8.000   2.182   5.833 -1.2486 -0.5462 -0.4175
  680MOL0     C91670   7.918   2.166   5.942 -0.7633  0.0547  0.5319
  680MOL0     C91671   7.784   2.146   5.924 -0.3159 -0.2570  0.4806
  680MOL0     C91672   7.725   2.161   5.796  0.6311  0.3545  0.6211
  680MOL0     O91673   7.589   2.143   5.797 -0.1703 -0.1293 -0.5147
  680MOL0     C91674   7.524   2.132   5.675  0.1940  0.2391 -0.9506
  680MOL0     C91675   7.375   2.081   5.687  0.0893 -0.3068  0.3610
  680MOL0     C91676   7.298   2.086   5.556  0.3197 -0.7704 -0.0034
  680MOL0     C91677   7.138   2.103   5.584 -0.0649  0.3113  0.0452
  680MOL0     C91678   7.062   2.114   5.453 -0.1945  0.2217 -0.4268
  680MOL0     C91679   6.920   2.174   5.471 -0.4958  0.2631 -0.2847
  680MOL0     C91680   6.830   2.189   5.340  0.0803 -0.4648 -0.7930
  680MOL0     C91681   6.720   2.291   5.359 -0.6907 -0.8547  0.2558
  680MOL0     N91682   6.603   2.245   5.441 -0.8087 -0.3360 -0.8172
  680MOL0     C91683   6.487   2.204   5.374  0.3910  0.0979  0.1826
  680MOL0     C91684   6.397   2.180   5.467  0.8925 -0.0385 -0.8406
  680MOL0     C91685   6.249   2.160   5.441 -0.2081  0.5350  0.2894
  680MOL0     C91686   6.223   2.011   5.403 -0.2844 -0.0357 -0.6202
  680MOL0     C91687   6.255   1.899   5.511 -0.3253  0.2600  0.1024
  680MOL0     C91688   6.399   1.868   5.538 -0.7654 -0.1424  0.5253
  680MOL0     O91689   6.460   1.803   5.422  0.8528 -0.1938  0.4740
  680MOL0     C91690   6.597   1.772   5.424 -0.6833 -0.6571  0.8633
  680MOL0     C91691   6.709   1.858   5.461  0.4772 -0.3334  0.2169
  680MOL0     C91692   6.839   1.804   5.455 -0.3408 -0.0710  0.2682
  680MOL0     C91693   6.866   1.672   5.412 -0.4679  0.0849 -0.2657
  680MOL0     C91694   7.005   1.624   5.405  0.0979  0.6981 -0.2031
  680MOL0     O91695   7.028   1.489   5.405 -0.3089  0.2344  0.7040
  680MOL0     C91696   7.157   1.440   5.407 -0.2263  0.4565  0.6968
  680MOL0     C91697   7.253   1.474   5.308 -0.0886  0.2382  0.2895
  680MOL0     C91698   7.376   1.407   5.309 -0.0646  0.7248  0.1814
  680MOL0     C91699   7.415   1.336   5.421  0.0062 -0.9258 -0.1276
  680MOL0     O91700   7.549   1.297   5.414  0.0876  0.4182 -0.0180
  680MOL0     C91701   7.606   1.194   5.498  0.0579 -0.2749  0.5146
  680MOL0     C91702   7.732   1.137   5.435  0.5135  0.4648  0.8681
  680MOL0     C91703   7.816   1.056   5.536  0.6578 -0.6982 -0.5885
  680MOL0     C91704   7.942   1.005   5.469 -0.5513  0.0602  0.7878
  680MOL0     C91705   8.024   0.911   5.557  0.0628 -0.9319  0.2769
  680MOL0     C91706   8.165   0.869   5.497 -0.1071  0.5241  0.9400
  680MOL0     C91707   8.243   0.789   5.611 -0.2416  0.0808  0.5745
  680MOL0     C91708   8.309   0.671   5.543  0.4843  1.5725  0.5045
  680MOL0    Cl91709   8.454   0.713   5.450  0.6437 -0.1522 -0.0276
  680MOL0     C91710   7.322   1.311   5.530 -0.4400 -0.9169 -0.8685
  680MOL0     C91711   7.188   1.356   5.511  0.0747  0.5457 -0.7056
  680MOL0     O91712   7.091   1.702   5.422 -0.0870 -0.1033  0.1010
  680MOL0     C91713   6.757   1.593   5.370 -0.3380  0.0203 -0.7716
  680MOL0     C91714   6.632   1.652   5.361  0.2475  0.0831  0.4547
  680MOL0     N91715   6.460   2.199   5.596  0.0848  0.5694  0.6306
  680MOL0     N91716   6.580   2.244   5.573 -0.3777  0.7494  0.0689
  680MOL0     C91717   7.804   2.190   5.687 -0.3471  0.0042 -0.7889
  680MOL0     C91718   7.945   2.197   5.703 -0.0115  0.3630  0.0856
  680MOL0     C91719   8.334   2.348   5.868 -0.3137 -1.0002  0.1788
  680MOL0     C91720   8.377   2.413   5.991  1.0297 -0.0632  0.7366
  680MOL0     C91721   8.512   2.430   6.024 -0.6369  0.5537  0.4137
  680MOL0     C91722   8.611   2.380   5.936  0.5687 -0.1976  0.5429
  680MOL0     O91723   8.743   2.388   5.960 -0.1845 -0.1862 -0.7085
  680MOL0     C91724   8.794   2.345   6.092  0.6833  0.1961  0.2400
  680MOL0     C91725   8.938   2.374   6.100  0.1087  0.1718  0.8461
  680MOL0     C91726   8.990   2.365   6.243 -1.1823  0.4112 -0.8377
  680MOL0     C91727   9.138   2.406   6.230  0.4975 -0.2422  0.7278
  680MOL0     C91728   9.227   2.327   6.145 -0.4486  0.0065 -1.2106
  680MOL0     C91729   9.313   2.263   6.095  0.3750  0.2571  0.1472
  680MOL0     C91730   8.573   2.306   5.827 -0.9332  0.2436  0.6067
  680MOL0     C91731   8.436   2.297   5.787  0.2712  0.1356  0.0039
  680MOL0     C91732   8.419   2.226   5.649 -0.2677  0.1683  0.1683
  680MOL0     H91733   7.962   2.153   6.040 -1.1108  4.5782  1.4857
  680MOL0     H91734   7.713   2.127   6.004 -0.0911 -1.6005  0.3843
  680MOL0     H91735   7.530   2.233   5.632 -0.4569 -0.0707 -1.8062
  680MOL0     H91736   7.576   2.064   5.607  2.0154 -0.1370  0.7166
  680MOL0     H91737   7.334   2.156   5.755 -0.8852  1.3659 -1.9402
  680MOL0     H91738   7.373   1.977   5.721  0.0327 -0.7495 -0.9352
  680MOL0     H91739   7.324   1.999   5.494  1.3190  0.4924 -1.4449
  680MOL0     H91740   7.329   2.172   5.496  0.9651  0.5076  2.0706
  680MOL0     H91741   7.110   2.018   5.647 -0.7526  0.5139  0.0206
  680MOL0     H91742   7.107   2.191   5.641 -2.0149 -1.6460  2.2863
  680MOL0     H91743   7.112   2.180   5.382  0.7302 -1.9620 -1.9266
  680MOL0     H91744   7.062   2.016   5.405 -2.2637 -0.9335  1.7344
  680MOL0     H91745   6.854   2.118   5.538 -0.1011  1.0890  0.8315
  680MOL0     H91746   6.936   2.273   5.514  1.1963  0.1789 -0.6508
  680MOL0     H91747   6.779   2.100   5.302 -3.2926  0.7511  0.5095
  680MOL0     H91748   6.899   2.236   5.269 -3.2688  2.1903 -2.6107
  680MOL0     H91749   6.759   2.380   5.408 -2.5306  0.9459 -1.3164
  680MOL0     H91750   6.687   2.316   5.257  0.6885  1.8479  0.3823
  680MOL0     H91751   6.465   2.195   5.268 -0.4259  1.3581  0.2280
  680MOL0     H91752   6.195   2.192   5.531 -0.9505 -1.3305  0.5431
  680MOL0     H91753   6.205   2.218   5.359 -3.1401 -0.7725  0.8360
  680MOL0     H91754   6.116   2.011   5.382 -0.5564  0.7386  0.6229
  680MOL0     H91755   6.272   1.999   5.307 -1.6049  1.9418 -1.6200
  680MOL0     H91756   6.221   1.802   5.473  1.5003 -1.1177  1.7720
  680MOL0     H91757   6.202   1.914   5.605 -1.9872  0.1737 -0.7891
  680MOL0     H91758   6.391   1.793   5.617 -1.4987  0.8103  1.3811
  680MOL0     H91759   6.456   1.954   5.577 -0.5586  0.6030 -1.3252
  680MOL0     H91760   6.684   1.959   5.494 -1.3394 -0.7287  0.1357
  680MOL0     H91761   6.915   1.878   5.476  0.7197 -1.3385  1.1312
  680MOL0     H91762   7.238   1.537   5.221 -1.8154 -0.7802 -0.1949
  680MOL0     H91763   7.448   1.430   5.230  2.2314 -2.4542  1.1535
  680MOL0     H91764   7.622   1.248   5.591  1.3894  0.1773  0.0400
  680MOL0     H91765   7.531   1.117   5.523 -0.8207  0.4225  0.1072
  680MOL0     H91766   7.709   1.078   5.346 -1.0954  0.6652  1.1170
  680MOL0     H91767   7.790   1.225   5.408  1.5163  0.0502  1.6077
  680MOL0     H91768   7.846   1.112   5.625 -0.5776  0.0879 -0.6535
  680MOL0     H91769   7.753   0.974   5.571 -1.8545  1.5182  0.4040
  680MOL0     H91770   8.000   1.096   5.447  0.5091 -0.8517 -0.3560
  680MOL0     H91771   7.916   0.955   5.375  2.2664  1.3266 -0.8071
  680MOL0     H91772   7.967   0.822   5.584  1.5974 -2.0274  0.0318
  680MOL0     H91773   8.050   0.966   5.648 -1.3332 -0.5782  0.4872
  680MOL0     H91774   8.149   0.805   5.409  2.8868  2.9182 -1.5938
  680MOL0     H91775   8.227   0.952   5.462  2.8106 -1.9338 -0.2369
  680MOL0     H91776   8.170   0.776   5.691  0.0327  0.3273  0.8699
  680MOL0     H91777   8.320   0.852   5.657 -1.1768  1.4223  0.3514
  680MOL0     H91778   8.349   0.602   5.617 -1.7911  0.1823  0.5375
  680MOL0     H91779   8.236   0.622   5.478  0.0086  1.2791  1.2518
  680MOL0     H91780   7.350   1.247   5.613 -0.9745  1.3263  1.1325
  680MOL0     H91781   7.112   1.343   5.587  1.0558 -0.9276  0.0619
  680MOL0     H91782   6.786   1.495   5.333 -2.4719  0.2646 -3.3747
  680MOL0     H91783   6.542   1.609   5.320 -0.5468  1.8581  0.2398
  680MOL0     H91784   7.769   2.201   5.585 -0.6223  0.8844 -0.6116
  680MOL0     H91785   8.008   2.197   5.615  0.0367 -1.2756  0.0945
  680MOL0     H91786   8.304   2.451   6.063  0.2179 -0.1956  0.0021
  680MOL0     H91787   8.536   2.458   6.126 -3.0827 -1.1330  1.5541
  680MOL0     H91788   8.793   2.238   6.111 -0.4356  0.1301 -0.0933
  680MOL0     H91789   8.738   2.406   6.164 -1.3885 -1.2800 -0.0396
  680MOL0     H91790   8.960   2.474   6.062  4.9455 -1.1125 -0.3603
  680MOL0     H91791   8.988   2.299   6.038 -0.6515 -0.7289  1.2902
  680MOL0     H91792   8.995   2.260   6.272  1.8906  0.5650 -0.5136
  680MOL0     H91793   8.944   2.424   6.323  2.0074  2.0203 -0.0247
  680MOL0     H91794   9.126   2.511   6.202 -3.7397 -0.2617  1.7438
  680MOL0     H91795   9.180   2.424   6.330  0.7749  1.5670  0.3274
  680MOL0     H91796   9.379   2.187   6.060 -1.1537 -0.4606 -1.3510
  680MOL0     H91797   8.643   2.249   5.766 -0.1861  2.2546 -0.4972
  680MOL0     H91798   8.513   2.207   5.596 -0.1684 -0.8053  0.6710
  680MOL0     H91799   8.379   2.124   5.656  1.8173 -0.8118 -1.1564
  680MOL0     H91800   8.350   2.272   5.577  0.3931 -0.9745 -1.2451
  681MOL0     O91801   5.211   7.084   5.961 -0.3343 -0.8377  0.0560
  681MOL0     C91802   5.169   6.987   5.905 -0.2734  0.2326  0.1629
  681MOL0     O91803   5.245   6.877   5.860  0.3482 -0.6172 -0.1553
  681MOL0     C91804   5.380   6.897   5.873 -0.0153 -0.8663 -0.5396
  681MOL0     C91805   5.464   6.972   5.781 -0.3132 -0.3586 -0.3373
  681MOL0     C91806   5.604   6.979   5.791  0.1798  0.4641  0.2808
  681MOL0     C91807   5.667   6.898   5.891 -0.0627  0.4118 -0.7782
  681MOL0     O91808   5.801   6.907   5.900 -0.0830  0.0262 -0.7259
  681MOL0     C91809   5.886   6.929   5.786 -0.8965  0.8988 -0.9681
  681MOL0     C91810   6.024   6.865   5.804  0.1286 -0.6668  1.7118
  681MOL0     C91811   6.092   6.933   5.926 -0.1418  0.0670 -0.4949
  681MOL0     C91812   6.235   6.905   5.921 -0.8534 -1.3232 -0.0970
  681MOL0     C91813   6.304   6.964   6.043 -0.6136  0.4484 -0.2308
  681MOL0     C91814   6.454   6.962   6.023  0.0135 -0.0352 -0.1010
  681MOL0     C91815   6.501   7.090   5.950  0.1381  0.4798  0.2147
  681MOL0     C91816   6.647   7.090   5.919  0.1906  0.0712 -0.1832
  681MOL0     N91817   6.689   7.189   5.815  0.2481  0.2276  0.3498
  681MOL0     C91818   6.705   7.150   5.682 -0.2498  0.0691  0.7934
  681MOL0     C91819   6.784   7.250   5.629  0.9363  0.0632 -0.1851
  681MOL0     C91820   6.832   7.255   5.492 -0.3354  0.2009 -0.5589
  681MOL0     C91821   6.978   7.298   5.458 -0.6506  0.1708  0.2652
  681MOL0     C91822   6.992   7.454   5.443  0.1195  0.0504 -0.6132
  681MOL0     C91823   6.995   7.496   5.296 -1.0509 -0.1865 -0.3314
  681MOL0     O91824   6.991   7.640   5.277  0.1603 -0.0217 -0.0701
  681MOL0     C91825   7.089   7.713   5.332  1.0485  0.2044  0.8040
  681MOL0     C91826   7.062   7.836   5.398 -0.6287 -0.4011 -0.1005
  681MOL0     C91827   7.172   7.910   5.459  0.2682 -0.1971  0.0348
  681MOL0     C91828   7.305   7.868   5.459 -0.1365 -0.5718 -0.2962
  681MOL0     C91829   7.409   7.931   5.547 -0.1551  0.2125 -0.1460
  681MOL0     O91830   7.536   7.874   5.560 -0.4722 -0.8716  0.5830
  681MOL0     C91831   7.612   7.935   5.659  0.0592  0.2055 -0.5456
  681MOL0     C91832   7.614   7.882   5.787 -0.2449  0.4159 -0.9265
  681MOL0     C91833   7.699   7.934   5.885  1.0014  0.0738  0.3837
  681MOL0     C91834   7.778   8.038   5.861  0.4512 -1.0671 -0.1447
  681MOL0     O91835   7.871   8.105   5.953  0.3538 -0.3662 -0.2746
  681MOL0     C91836   7.928   8.014   6.058  0.5591 -0.3382 -0.0730
  681MOL0     C91837   7.970   8.108   6.170  0.3154  0.0514 -0.0427
  681MOL0     C91838   8.096   8.188   6.130  0.2580 -0.3139  0.0322
  681MOL0     C91839   8.082   8.328   6.186  0.2964 -0.3332 -0.3741
  681MOL0     C91840   8.210   8.402   6.148 -0.3648 -0.3991  0.6121
  681MOL0     C91841   8.223   8.538   6.207  0.9507  0.0541 -0.1915
  681MOL0     C91842   8.344   8.616   6.180 -0.0607 -0.1030  0.3965
  681MOL0     C91843   8.312   8.720   6.066  0.1275  0.0189  0.2074
  681MOL0    Cl91844   8.446   8.827   6.011 -0.4472 -0.2823  0.1625
  681MOL0     C91845   7.782   8.093   5.732 -0.0598 -0.0207  0.2444
  681MOL0     C91846   7.697   8.040   5.629 -0.4046 -0.8912  0.8604
  681MOL0     O91847   7.374   8.037   5.617  0.7657 -0.1982  0.2003
  681MOL0     C91848   7.331   7.750   5.394 -0.6813  0.4301  0.1724
  681MOL0     C91849   7.229   7.675   5.334  0.6454 -0.2643 -0.6759
  681MOL0     N91850   6.821   7.338   5.729 -0.4369  0.0267  0.3606
  681MOL0     N91851   6.762   7.300   5.837 -0.2277 -0.3145  0.2092
  681MOL0     C91852   5.586   6.818   5.975 -0.2822 -0.1238  0.7228
  681MOL0     C91853   5.441   6.821   5.964  0.1982 -0.8096  0.5517
  681MOL0     C91854   5.024   6.994   5.868 -0.0898  0.5349  0.5835
  681MOL0     C91855   4.946   7.087   5.929  0.1291 -0.2714 -1.0010
  681MOL0     C91856   4.803   7.101   5.907 -0.2210 -0.2603  0.1464
  681MOL0     C91857   4.745   7.014   5.814 -0.0598 -0.7408 -0.0362
  681MOL0     O91858   4.620   7.028   5.772  0.3090 -0.3985  0.2751
  681MOL0     C91859   4.558   7.160   5.776  0.1661 -0.2924  0.3068
  681MOL0     C91860   4.466   7.176   5.660 -0.1434  0.0775  1.6192
  681MOL0     C91861   4.368   7.295   5.650  0.8152 -0.3799 -0.2286
  681MOL0     C91862   4.437   7.425   5.711  0.6926  1.2144  0.3091
  681MOL0     C91863   4.334   7.534   5.708 -0.1334  0.9443  0.4179
  681MOL0     C91864   4.231   7.595   5.699 -0.1458  0.6189 -0.3108
  681MOL0     C91865   4.820   6.917   5.748  0.5646  0.6252 -0.7726
  681MOL0     C91866   4.961   6.914   5.771 -0.6389 -0.0358 -0.3560
  681MOL0     C91867   5.019   6.822   5.672 -0.9364  0.8878  0.4098
  681MOL0     H91868   5.415   7.032   5.705 -1.6235 -0.6284  0.2567
  681MOL0     H91869   5.661   7.050   5.731 -0.6586  2.9608  2.2330
  681MOL0     H91870   5.841   6.880   5.699  0.2733 -2.8451  0.3315
  681MOL0     H91871   5.898   7.034   5.759 -0.5814  0.3887 -2.9303
  681MOL0     H91872   6.070   6.880   5.706  1.2084 -4.0908  1.5802
  681MOL0     H91873   6.011   6.759   5.826 -1.3116 -0.5041  1.7416
  681MOL0     H91874   6.063   6.907   6.028  1.5967  2.3821  0.6787
  681MOL0     H91875   6.087   7.040   5.906 -0.7355  0.5505  1.9969
  681MOL0     H91876   6.250   6.797   5.920 -2.0139 -1.4910 -0.5180
  681MOL0     H91877   6.271   6.955   5.830  1.1736  2.0950  2.3217
  681MOL0     H91878   6.272   7.066   6.069  2.0111  0.8245  2.0801
  681MOL0     H91879   6.270   6.896   6.122 -0.9848 -1.7693 -2.1969
  681MOL0     H91880   6.496   6.958   6.124 -1.2239  1.8656  0.5475
  681MOL0     H91881   6.468   6.870   5.965 -2.7972 -1.0968  0.7816
  681MOL0     H91882   6.484   7.185   6.001 -0.5350  0.2670  0.3987
  681MOL0     H91883   6.457   7.108   5.852 -1.7075 -2.1378  0.4720
  681MOL0     H91884   6.693   7.106   6.017  0.8599  0.0000 -0.4784
  681MOL0     H91885   6.652   6.987   5.883 -3.3524 -0.8215  1.4345
  681MOL0     H91886   6.659   7.064   5.635 -2.7588  0.1978  2.7739
  681MOL0     H91887   6.837   7.156   5.447  1.0463 -0.1729  0.3848
  681MOL0     H91888   6.774   7.324   5.428 -0.5331 -0.6150 -1.2748
  681MOL0     H91889   7.061   7.252   5.513  1.9126 -1.3760 -4.3660
  681MOL0     H91890   6.990   7.261   5.356 -0.7220  0.2647  0.2235
  681MOL0     H91891   7.079   7.493   5.497 -0.4866  1.9424 -0.9418
  681MOL0     H91892   6.900   7.493   5.487  0.9685  0.7867  0.5829
  681MOL0     H91893   6.913   7.452   5.238 -1.2167  0.1778 -0.3779
  681MOL0     H91894   7.084   7.452   5.248 -0.5841 -0.2620  0.5844
  681MOL0     H91895   6.963   7.879   5.408 -0.5243  0.1504 -1.2684
  681MOL0     H91896   7.153   7.998   5.520 -1.7187  1.9804 -3.3652
  681MOL0     H91897   7.552   7.797   5.813  1.0822  0.2885  2.2426
  681MOL0     H91898   7.684   7.889   5.983 -3.5583  3.1615  1.4669
  681MOL0     H91899   7.859   7.939   6.096  3.3714 -2.7938  0.5901
  681MOL0     H91900   8.015   7.963   6.016  1.6583 -1.7981  3.6491
  681MOL0     H91901   7.890   8.178   6.198  2.6798  3.1772 -0.5284
  681MOL0     H91902   8.003   8.051   6.257  3.7646 -1.7050 -2.3038
  681MOL0     H91903   8.181   8.129   6.165 -0.0482 -1.3172 -0.8580
  681MOL0     H91904   8.109   8.196   6.022 -3.6383 -0.7267 -0.6281
  681MOL0     H91905   8.061   8.325   6.293 -0.4471 -2.3242 -0.5380
  681MOL0     H91906   7.996   8.378   6.142  0.3690 -0.3118 -0.4911
  681MOL0     H91907   8.210   8.415   6.039 -0.7684  1.5389  0.8132
  681MOL0     H91908   8.300   8.345   6.174  0.4034  0.8130  0.7038
  681MOL0     H91909   8.135   8.594   6.175 -0.6277 -3.6006 -2.9905
  681MOL0     H91910   8.213   8.518   6.315 -1.9085  0.7477 -0.2470
  681MOL0     H91911   8.424   8.550   6.145  1.2936  1.0085  1.3205
  681MOL0     H91912   8.383   8.669   6.267 -0.6116  0.3876  0.3560
  681MOL0     H91913   8.271   8.663   5.982  0.0747 -1.0270  0.9220
  681MOL0     H91914   8.227   8.782   6.096 -1.7198 -2.2983  0.1041
  681MOL0     H91915   7.838   8.183   5.711  0.0283  0.2719  1.6193
  681MOL0     H91916   7.699   8.092   5.534  1.5459 -1.2893  0.6378
  681MOL0     H91917   7.435   7.721   5.387 -1.0867 -0.8149 -5.7927
  681MOL0     H91918   7.269   7.593   5.275  1.7887  0.2171 -0.6023
  681MOL0     H91919   5.629   6.756   6.053  2.1210  0.5676  0.0320
  681MOL0     H91920   5.376   6.756   6.021 -2.0830  0.5594 -0.3826
  681MOL0     H91921   4.980   7.157   6.005 -2.4768 -2.0523  2.0581
  681MOL0     H91922   4.747   7.177   5.960 -2.6590 -2.3075  0.6857
  681MOL0     H91923   4.634   7.238   5.773  0.5629 -0.6121  1.3974
  681MOL0     H91924   4.488   7.173   5.860 -0.6566  0.1365 -0.4297
  681MOL0     H91925   4.412   7.082   5.650  0.8170 -0.4680  1.3825
  681MOL0     H91926   4.530   7.188   5.572 -0.4239 -1.8517  1.0980
  681MOL0     H91927   4.279   7.261   5.704  1.2155 -0.8474  0.1482
  681MOL0     H91928   4.337   7.318   5.548 -0.7334 -2.9537 -0.4122
  681MOL0     H91929   4.475   7.407   5.812  0.3844  2.4708  0.6761
  681MOL0     H91930   4.527   7.441   5.653  3.7636  0.4976  4.4114
  681MOL0     H91931   4.143   7.653   5.682 -0.7886 -0.4211 -0.6421
  681MOL0     H91932   4.773   6.847   5.680 -0.0274  0.7687 -0.5156
  681MOL0     H91933   5.069   6.886   5.598  2.1910 -0.8700  0.8366
  681MOL0     H91934   5.096   6.757   5.713 -0.7416  0.6918 -0.2580
  681MOL0     H91935   4.949   6.760   5.615  1.9907 -2.2774 -0.0433
  682MOL0     O91936   8.860   5.627   6.521 -0.9476 -0.3328 -0.2505
  682MOL0     C91937   8.846   5.563   6.419  0.5098 -0.5694 -0.3680
  682MOL0     O91938   8.952   5.529   6.337  0.7703  0.6640 -0.4081
  682MOL0     C91939   9.080   5.576   6.357  0.1517  0.0810 -0.0048
  682MOL0     C91940   9.119   5.707   6.375 -0.3908  0.3423  0.3074
  682MOL0     C91941   9.251   5.745   6.390 -0.3094  0.6282 -0.0709
  682MOL0     C91942   9.348   5.645   6.406  0.5266  0.2038  0.3391
  682MOL0     O91943   9.480   5.661   6.440  0.1585 -0.1835 -0.0484
  682MOL0     C91944   9.539   5.794   6.442  0.0520  0.2817 -0.0420
  682MOL0     C91945   9.692   5.770   6.462  0.0347 -0.0372 -1.0460
  682MOL0     C91946   9.725   5.719   6.607  0.1298  0.0281 -0.1505
  682MOL0     C91947   9.874   5.720   6.637  0.0070 -0.6715 -0.3987
  682MOL0     C91948   9.927   5.646   6.753  0.3055 -0.5021  1.5650
  682MOL0     C91949  10.079   5.626   6.737 -0.1681  0.9879 -0.4303
  682MOL0     C91950  10.159   5.758   6.724 -0.4180  0.0001 -0.3514
  682MOL0     C91951  10.303   5.738   6.776 -0.3667 -0.3905 -0.0587
  682MOL0     N91952  10.374   5.622   6.727 -0.3174 -0.1399 -0.1920
  682MOL0     C91953  10.390   5.504   6.798  0.0164 -0.1436  0.5500
  682MOL0     C91954  10.501   5.453   6.747 -0.3948 -0.6816 -0.3967
  682MOL0     C91955  10.569   5.319   6.777  0.2414  0.5169 -0.2670
  682MOL0     C91956  10.609   5.312   6.930 -0.6921  0.4851  1.1896
  682MOL0     C91957  10.687   5.442   6.978  0.5704  0.1629  0.2420
  682MOL0     C91958  10.828   5.453   6.926  0.6531 -0.1552 -0.3381
  682MOL0     O91959  10.904   5.342   6.968  0.0962  0.4434  0.5228
  682MOL0     C91960  11.022   5.327   6.901 -0.7942  0.3845  0.4486
  682MOL0     C91961  11.130   5.412   6.916  0.2104 -0.0117 -0.5997
  682MOL0     C91962  11.261   5.383   6.892 -0.0800  0.3247  0.5105
  682MOL0     C91963  11.297   5.258   6.827 -0.5056 -0.1730  0.5541
  682MOL0     C91964  11.430   5.214   6.783 -0.2895  0.2061 -1.4737
  682MOL0     O91965  11.545   5.272   6.840 -1.0501  0.6944  0.6834
  682MOL0     C91966  11.672   5.231   6.789  0.1527 -0.3563  0.1378
  682MOL0     C91967  11.733   5.105   6.820 -0.0243  0.2252  0.3289
  682MOL0     C91968  11.870   5.067   6.790 -0.2849 -0.3397 -0.2964
  682MOL0     C91969  11.955   5.174   6.742 -0.1017 -0.5519 -0.6842
  682MOL0     O91970  12.095   5.177   6.733  0.4226 -0.6316  0.0817
  682MOL0     C91971  12.161   5.052   6.747 -0.9316 -0.1660  0.2357
  682MOL0     C91972  12.311   5.076   6.747  0.0063 -0.0030  0.1584
  682MOL0     C91973  12.374   5.166   6.862  0.4978 -1.1370 -0.0168
  682MOL0     C91974  12.517   5.173   6.864 -0.1522  0.0400 -0.9202
  682MOL0     C91975  12.560   5.265   6.979 -0.5991 -0.7219  0.8791
  682MOL0     C91976  12.711   5.261   6.985 -0.0024  1.0264 -0.3346
  682MOL0     C91977  12.750   5.371   7.081 -0.1457 -0.5124 -0.2862
  682MOL0     C91978  12.900   5.368   7.115 -0.0722  0.2359 -0.5451
  682MOL0    Cl91979  12.943   5.229   7.230 -0.0875 -0.2617 -0.0727
  682MOL0     C91980  11.893   5.300   6.715 -0.5076  0.2628  0.5906
  682MOL0     C91981  11.757   5.325   6.736 -0.4581  0.0584  0.7736
  682MOL0     O91982  11.433   5.128   6.690 -0.2841 -0.6750 -0.5493
  682MOL0     C91983  11.188   5.172   6.798  0.3207  0.3873 -0.3547
  682MOL0     C91984  11.058   5.202   6.839 -0.8998 -0.0331  0.2876
  682MOL0     N91985  10.557   5.526   6.653 -0.3450 -0.3773  0.4237
  682MOL0     N91986  10.474   5.629   6.633 -0.8955 -0.5429 -0.4457
  682MOL0     C91987   9.308   5.511   6.400 -0.9053 -0.8764  0.4671
  682MOL0     C91988   9.176   5.481   6.366 -0.4078  0.1369 -0.0617
  682MOL0     C91989   8.710   5.539   6.383  0.4531  0.1466  0.6010
  682MOL0     C91990   8.621   5.523   6.485  0.5750  0.4108 -1.1421
  682MOL0     C91991   8.483   5.513   6.463 -0.3388  0.7978  0.2344
  682MOL0     C91992   8.432   5.494   6.333  0.3961  0.7559 -0.6957
  682MOL0     O91993   8.304   5.460   6.307  0.2761 -0.3127  0.3121
  682MOL0     C91994   8.197   5.483   6.398  0.0330  0.2467  0.3787
  682MOL0     C91995   8.091   5.564   6.333 -0.1542 -0.3501  0.1548
  682MOL0     C91996   8.024   5.480   6.219 -0.1327 -1.0674  0.4202
  682MOL0     C91997   7.962   5.345   6.259  0.6989 -0.4565 -0.2718
  682MOL0     C91998   7.886   5.275   6.153  0.3451 -0.1564  0.3787
  682MOL0     C91999   7.830   5.211   6.065 -0.2225  0.4758 -0.5600
  682MOL0     C92000   8.526   5.492   6.229  0.4466 -0.6371  0.1077
  682MOL0     C92001   8.664   5.520   6.244  0.9965  0.3655  0.8523
  682MOL0     C92002   8.759   5.514   6.130  0.5374 -0.3374  0.6546
  682MOL0     H92003   9.044   5.784   6.388  0.8482  1.1234  4.1524
  682MOL0     H92004   9.282   5.848   6.403 -0.1591  0.3768  1.9942
  682MOL0     H92005   9.527   5.840   6.343 -0.5080  1.6891  0.6507
  682MOL0     H92006   9.505   5.854   6.528  3.1115 -1.4465  2.5872
  682MOL0     H92007   9.752   5.862   6.455  2.0525 -1.1452  0.6531
  682MOL0     H92008   9.722   5.692   6.392 -0.8058 -2.1671  0.8416
  682MOL0     H92009   9.716   5.610   6.612  0.5156 -0.0259 -0.5900
  682MOL0     H92010   9.657   5.764   6.681  1.4478  2.7724 -0.4805
  682MOL0     H92011   9.929   5.679   6.552 -0.5525 -4.1768  0.7730
  682MOL0     H92012   9.903   5.825   6.649  0.4910 -0.9382  0.8902
  682MOL0     H92013   9.907   5.704   6.843 -2.6459 -0.1041  0.7566
  682MOL0     H92014   9.884   5.545   6.760  1.0059 -1.0016 -0.5283
  682MOL0     H92015  10.110   5.589   6.836 -0.1411  3.3978  0.5348
  682MOL0     H92016  10.099   5.559   6.653  1.5840  0.5643  0.2703
  682MOL0     H92017  10.119   5.839   6.785 -0.2794 -1.3958  1.7036
  682MOL0     H92018  10.158   5.778   6.616 -1.9578 -1.7960 -0.7321
  682MOL0     H92019  10.350   5.830   6.741 -0.0173  0.8503  3.2917
  682MOL0     H92020  10.309   5.739   6.886  3.2568  0.8416 -0.1155
  682MOL0     H92021  10.321   5.475   6.877 -0.6564 -0.4592 -0.1453
  682MOL0     H92022  10.507   5.233   6.754 -0.5456  0.9187  0.2937
  682MOL0     H92023  10.662   5.322   6.719 -0.7394  1.2121 -1.8646
  682MOL0     H92024  10.519   5.315   6.991  0.0102  0.4017  2.2496
  682MOL0     H92025  10.680   5.237   6.965  1.5763  2.5648  1.3696
  682MOL0     H92026  10.691   5.434   7.087 -0.2638 -1.2995  0.1888
  682MOL0     H92027  10.634   5.534   6.952 -1.2848 -0.5689  1.2503
  682MOL0     H92028  10.882   5.543   6.955  1.4238 -0.8538  0.4629
  682MOL0     H92029  10.820   5.454   6.817 -2.7349  0.6249 -0.1693
  682MOL0     H92030  11.106   5.497   6.979 -0.5625  0.5336 -1.5949
  682MOL0     H92031  11.342   5.450   6.919  1.2326 -1.4955  1.2733
  682MOL0     H92032  11.678   5.031   6.876  1.7103 -2.6493 -1.4994
  682MOL0     H92033  11.905   4.967   6.816  0.3093  0.1413  0.8174
  682MOL0     H92034  12.153   5.005   6.845  2.1716  2.4326  1.9019
  682MOL0     H92035  12.134   4.978   6.671 -2.8843  1.5117 -0.7812
  682MOL0     H92036  12.366   4.983   6.766 -0.4418  0.1603  2.5251
  682MOL0     H92037  12.347   5.126   6.657  0.1603  0.5852  0.5425
  682MOL0     H92038  12.344   5.270   6.843  5.2916 -0.0985 -3.8782
  682MOL0     H92039  12.325   5.147   6.958  4.2426  1.5391  2.7072
  682MOL0     H92040  12.538   5.219   6.766  0.1303  0.7624 -0.5262
  682MOL0     H92041  12.563   5.075   6.880  2.8187  1.7157  1.9122
  682MOL0     H92042  12.519   5.224   7.072  1.4134 -2.9764  0.8796
  682MOL0     H92043  12.519   5.366   6.970 -1.1016 -0.6014  3.5909
  682MOL0     H92044  12.742   5.169   7.036 -0.4507  1.8439  1.5001
  682MOL0     H92045  12.763   5.281   6.891  0.6428  2.1372  0.2562
  682MOL0     H92046  12.699   5.350   7.175  0.7120 -0.0629  0.3021
  682MOL0     H92047  12.716   5.468   7.043 -0.7601 -1.5015 -2.3910
  682MOL0     H92048  12.944   5.339   7.019  0.7079 -1.3717  0.2737
  682MOL0     H92049  12.943   5.465   7.140 -0.2698  0.3933 -0.8002
  682MOL0     H92050  11.945   5.391   6.690 -2.4006  2.2956  3.4099
  682MOL0     H92051  11.714   5.424   6.724  0.6183  0.7011  2.0700
  682MOL0     H92052  11.203   5.073   6.756 -0.6970  0.4156 -0.8079
  682MOL0     H92053  10.982   5.134   6.802  0.4286 -1.0408 -0.6861
  682MOL0     H92054   9.375   5.426   6.407 -0.7484 -0.7322  0.7266
  682MOL0     H92055   9.145   5.381   6.337  0.1515 -0.9953  2.8885
  682MOL0     H92056   8.657   5.511   6.586 -3.6283 -0.9228  0.4288
  682MOL0     H92057   8.413   5.492   6.543 -2.2530 -1.9810 -1.9454
  682MOL0     H92058   8.222   5.541   6.487 -3.0308 -0.1328  1.6290
  682MOL0     H92059   8.159   5.386   6.429  2.0763 -1.8984 -3.1175
  682MOL0     H92060   8.132   5.658   6.296 -1.2370  1.8441  3.9505
  682MOL0     H92061   8.019   5.573   6.416  1.2156 -1.2149  1.4961
  682MOL0     H92062   8.099   5.459   6.142 -1.4152 -2.0324 -0.6177
  682MOL0     H92063   7.959   5.547   6.161  2.1525  0.6646 -0.2909
  682MOL0     H92064   8.042   5.273   6.275 -1.1874 -2.5449  0.2699
  682MOL0     H92065   7.912   5.355   6.356  2.6224 -1.0795  0.8516
  682MOL0     H92066   7.783   5.142   5.998 -1.1010  0.9019 -0.3879
  682MOL0     H92067   8.490   5.468   6.129  1.8499 -3.1231  0.1354
  682MOL0     H92068   8.700   5.519   6.038 -1.0186 -3.0262  1.4059
  682MOL0     H92069   8.816   5.607   6.142 -0.0359  0.0100  0.7333
  682MOL0     H92070   8.830   5.432   6.134 -0.5726 -1.2975  1.1292
  683MOL0     O92071   6.002   9.346   4.453 -0.4787  0.8299 -0.3987
  683MOL0     C92072   5.954   9.242   4.502 -0.5330 -0.2480  0.2646
  683MOL0     O92073   6.013   9.168   4.594 -0.7275  0.5909  0.0965
  683MOL0     C92074   6.145   9.210   4.630 -0.1813  0.1193  0.5720
  683MOL0     C92075   6.254   9.205   4.535 -0.2248  0.2243  0.2988
  683MOL0     C92076   6.383   9.249   4.570  1.0554  0.0020 -0.2114
  683MOL0     C92077   6.414   9.289   4.697 -0.4295  0.2410 -0.0954
  683MOL0     O92078   6.528   9.355   4.730 -0.4041  0.5761  0.1337
  683MOL0     C92079   6.643   9.272   4.762  0.1939  0.6255  0.8588
  683MOL0     C92080   6.627   9.194   4.897 -0.2850 -1.0778  0.3881
  683MOL0     C92081   6.750   9.120   4.953  0.0058  1.1057 -0.3674
  683MOL0     C92082   6.880   9.203   4.954 -0.1820 -0.1119  1.1106
  683MOL0     C92083   6.976   9.112   5.024 -0.0915  0.0204 -1.2390
  683MOL0     C92084   7.096   9.189   5.069  0.2521 -0.3129 -0.1503
  683MOL0     C92085   7.163   9.278   4.961  0.2117 -0.3353 -0.0185
  683MOL0     C92086   7.238   9.200   4.851 -0.1981 -0.2832 -0.1472
  683MOL0     N92087   7.265   9.303   4.754  0.3839 -0.5485 -0.4538
  683MOL0     C92088   7.382   9.367   4.730 -0.2896 -0.2477 -0.1382
  683MOL0     C92089   7.358   9.437   4.613  0.2498  0.3410 -0.6342
  683MOL0     C92090   7.449   9.524   4.533 -0.3721  0.2696 -0.2888
  683MOL0     C92091   7.593   9.537   4.581  0.9432  1.0922  0.5411
  683MOL0     C92092   7.665   9.636   4.494 -0.0574 -0.5023  0.3565
  683MOL0     C92093   7.812   9.667   4.554 -0.1778  0.6112  0.3897
  683MOL0     O92094   7.893   9.738   4.459 -0.6899  0.2170  0.4376
  683MOL0     C92095   8.031   9.758   4.483 -1.1169 -0.0957  0.1801
  683MOL0     C92096   8.081   9.757   4.610  0.4274  0.0947  0.1291
  683MOL0     C92097   8.223   9.776   4.624  0.5569 -0.2276 -0.2390
  683MOL0     C92098   8.305   9.807   4.514 -0.5195 -0.1715  0.1059
  683MOL0     C92099   8.452   9.825   4.538  0.1893 -0.9064  0.6194
  683MOL0     O92100   8.488   9.860   4.665  0.2152 -0.1810  0.2993
  683MOL0     C92101   8.612   9.899   4.688  1.2006 -0.2532 -0.2895
  683MOL0     C92102   8.716   9.811   4.647 -0.3758 -0.2712 -0.4408
  683MOL0     C92103   8.850   9.844   4.677 -0.6027 -0.3210  0.2334
  683MOL0     C92104   8.880   9.953   4.759 -0.1013  0.3195  0.5080
  683MOL0     O92105   9.021   9.978   4.779 -0.2368 -0.2821  0.0173
  683MOL0     C92106   9.064  10.054   4.895 -0.5339  0.0665 -0.2339
  683MOL0     C92107   9.213  10.071   4.911 -0.2321 -0.0649  0.2781
  683MOL0     C92108   9.240  10.132   5.044 -0.4145  0.2951 -0.2209
  683MOL0     C92109   9.376  10.097   5.105  0.6715  1.0513 -0.1994
  683MOL0     C92110   9.501  10.127   5.014  0.7862 -0.4702 -1.0088
  683MOL0     C92111   9.526  10.040   4.891 -0.4865 -0.4655 -0.1414
  683MOL0     C92112   9.679  10.025   4.857  0.0445 -0.1707  0.6802
  683MOL0     C92113   9.726  10.137   4.755 -0.0255  1.1968  0.6934
  683MOL0    Cl92114   9.734  10.300   4.834 -0.3916  0.4172 -0.1398
  683MOL0     C92115   8.773  10.026   4.807 -0.0486  0.0483 -0.0481
  683MOL0     C92116   8.643   9.999   4.778  0.5403 -0.0033 -0.7405
  683MOL0     O92117   8.529   9.814   4.440 -0.8092  0.3563  0.2986
  683MOL0     C92118   8.242   9.802   4.391  0.0488 -1.1784 -0.6204
  683MOL0     C92119   8.108   9.790   4.373 -0.3797  0.5502 -0.0167
  683MOL0     N92120   7.234   9.402   4.573  0.6285 -0.1436 -0.7260
  683MOL0     N92121   7.170   9.338   4.661  0.1932  0.0771  0.8094
  683MOL0     C92122   6.309   9.290   4.793 -0.5145 -0.2596  0.0781
  683MOL0     C92123   6.179   9.242   4.764 -0.6136 -0.6570  0.3612
  683MOL0     C92124   5.817   9.227   4.471  0.7363 -0.1483 -1.1855
  683MOL0     C92125   5.769   9.098   4.506  0.5132  0.8846 -0.7874
  683MOL0     C92126   5.628   9.064   4.493 -0.7066  0.6133 -0.3983
  683MOL0     C92127   5.544   9.167   4.447  0.3257  0.0494 -0.0087
  683MOL0     O92128   5.408   9.154   4.420  0.4047 -0.0366  0.0437
  683MOL0     C92129   5.341   9.022   4.415  0.1117  0.0054 -0.4806
  683MOL0     C92130   5.231   8.988   4.313 -0.6310  0.3005  0.6412
  683MOL0     C92131   5.111   9.068   4.343  0.4978 -0.1026 -0.2223
  683MOL0     C92132   5.033   9.126   4.223  0.3104  0.8200 -0.3552
  683MOL0     C92133   4.960   9.023   4.152  0.2549 -0.8868  0.9833
  683MOL0     C92134   4.916   8.923   4.087  0.6594  0.6151 -0.0880
  683MOL0     C92135   5.596   9.300   4.422 -0.2859 -0.4447  1.2877
  683MOL0     C92136   5.730   9.330   4.428 -0.1218  0.2536 -0.1107
  683MOL0     C92137   5.765   9.476   4.413 -0.0698  0.5758 -0.2432
  683MOL0     H92138   6.223   9.158   4.442 -0.9050 -1.6835  1.4358
  683MOL0     H92139   6.438   9.272   4.479 -0.6461 -1.1301 -1.5917
  683MOL0     H92140   6.659   9.209   4.674 -0.1764  2.1071 -0.2978
  683MOL0     H92141   6.726   9.342   4.756  0.4177  0.2375 -1.6691
  683MOL0     H92142   6.562   9.107   4.885  0.4084 -1.6761  0.8723
  683MOL0     H92143   6.595   9.269   4.970  2.6823  1.9166 -1.0963
  683MOL0     H92144   6.757   9.038   4.881  1.5538  0.7760  0.1283
  683MOL0     H92145   6.720   9.077   5.049 -1.5873  0.9271 -0.9074
  683MOL0     H92146   6.918   9.249   4.862  1.2443  0.4994  1.9631
  683MOL0     H92147   6.872   9.289   5.021  0.0530 -0.9021  2.1772
  683MOL0     H92148   6.932   9.072   5.116  2.9518  1.9019  1.2549
  683MOL0     H92149   6.996   9.027   4.958 -0.6140  1.0925 -2.8177
  683MOL0     H92150   7.060   9.258   5.146 -0.2159  0.7418 -1.2957
  683MOL0     H92151   7.166   9.120   5.118  0.4935  0.0152 -0.0334
  683MOL0     H92152   7.241   9.332   5.013  0.4543 -1.5547  0.9340
  683MOL0     H92153   7.099   9.358   4.923  1.7946  1.0765  0.2228
  683MOL0     H92154   7.330   9.164   4.898 -2.1966 -2.6829  2.2833
  683MOL0     H92155   7.183   9.111   4.816 -0.3755  0.7878 -2.8379
  683MOL0     H92156   7.479   9.365   4.779  1.1646  3.7592 -2.3893
  683MOL0     H92157   7.445   9.486   4.431  1.0811  3.7948 -1.8262
  683MOL0     H92158   7.409   9.625   4.531  0.9045  0.8066 -0.1798
  683MOL0     H92159   7.594   9.580   4.682 -1.6436  1.7137  0.3775
  683MOL0     H92160   7.638   9.438   4.569 -2.0289 -0.3895  0.4917
  683MOL0     H92161   7.610   9.731   4.486 -0.1612 -0.6532 -0.9256
  683MOL0     H92162   7.676   9.597   4.392  0.3857 -1.0593  0.6137
  683MOL0     H92163   7.860   9.576   4.590  0.3215  0.6037 -0.2824
  683MOL0     H92164   7.796   9.715   4.651  3.0138 -1.3216  2.0150
  683MOL0     H92165   8.013   9.740   4.693 -0.9421 -2.2255 -1.3451
  683MOL0     H92166   8.260   9.768   4.725 -0.6321 -0.5395  0.1942
  683MOL0     H92167   8.697   9.723   4.586 -0.9853  0.2755 -1.0714
  683MOL0     H92168   8.934   9.799   4.626  0.7224  0.9935  1.1729
  683MOL0     H92169   9.029  10.156   4.875  1.1542  0.3430 -2.1044
  683MOL0     H92170   9.025  10.008   4.986  2.1208 -1.9909 -0.0311
  683MOL0     H92171   9.255   9.970   4.916  0.1943  0.1824  3.0538
  683MOL0     H92172   9.236  10.131   4.822 -1.4280  1.6579  1.0773
  683MOL0     H92173   9.228  10.240   5.052  0.8412  0.3218  2.6274
  683MOL0     H92174   9.160  10.094   5.108  0.1862  1.1505  1.0848
  683MOL0     H92175   9.383   9.993   5.138  1.0512  1.4246  0.9585
  683MOL0     H92176   9.378  10.146   5.203 -3.5785 -0.3223  0.7981
  683MOL0     H92177   9.587  10.117   5.080  0.2763 -5.1749 -0.7207
  683MOL0     H92178   9.475  10.228   4.979 -0.3397  0.3610  1.9646
  683MOL0     H92179   9.494   9.936   4.903  3.0598 -1.6978 -0.0988
  683MOL0     H92180   9.475  10.081   4.803 -0.5422  1.1949  0.6150
  683MOL0     H92181   9.696   9.927   4.811  2.9857  0.4717  0.1699
  683MOL0     H92182   9.733  10.013   4.951  0.3401  0.0635  0.5400
  683MOL0     H92183   9.821  10.104   4.712  0.3926  0.9057  1.7877
  683MOL0     H92184   9.664  10.144   4.665  1.0628 -1.8741 -0.4224
  683MOL0     H92185   8.799  10.111   4.869 -1.4435  0.2452  0.3083
  683MOL0     H92186   8.571  10.063   4.828  0.6924  0.5758 -1.2469
  683MOL0     H92187   8.296   9.824   4.300  0.6873  2.1107  0.4111
  683MOL0     H92188   8.068   9.777   4.273 -0.6241 -1.5313  0.3109
  683MOL0     H92189   6.338   9.308   4.896  0.9929 -2.8423  0.1795
  683MOL0     H92190   6.106   9.248   4.843  0.5682  0.9212  1.3944
  683MOL0     H92191   5.837   9.023   4.545 -0.4496  1.1907  1.6316
  683MOL0     H92192   5.604   8.962   4.519 -1.8838  1.3778  1.7503
  683MOL0     H92193   5.302   9.003   4.516  1.7510  3.0055  0.8619
  683MOL0     H92194   5.411   8.940   4.398 -0.9633 -1.1589  0.5153
  683MOL0     H92195   5.198   8.886   4.334 -1.4876  0.7609  1.6250
  683MOL0     H92196   5.265   8.991   4.209  2.6332 -1.0269  1.5309
  683MOL0     H92197   5.141   9.155   4.402  0.0616  0.0508 -0.2271
  683MOL0     H92198   5.039   9.011   4.402  0.3513 -0.0004 -0.3027
  683MOL0     H92199   4.969   9.211   4.250 -1.8833 -1.0982  0.9264
  683MOL0     H92200   5.111   9.171   4.162 -0.0085  0.2253 -1.2234
  683MOL0     H92201   4.881   8.836   4.035 -2.8882  2.7905 -1.6736
  683MOL0     H92202   5.518   9.370   4.397 -0.1819 -1.2828 -1.8688
  683MOL0     H92203   5.771   9.515   4.515  0.6232 -1.0902  0.3938
  683MOL0     H92204   5.849   9.507   4.352 -0.2848  1.4266 -0.1212
  683MOL0     H92205   5.675   9.523   4.372 -1.3687 -1.7716 -0.2777
  684MOL0     O92206  10.803   3.771   3.919 -0.8045  1.2545 -0.0583
  684MOL0     C92207  10.862   3.801   3.819  0.5573 -0.3717  0.3758
  684MOL0     O92208  10.829   3.765   3.689  0.3071 -0.8043  0.0722
  684MOL0     C92209  10.714   3.710   3.642 -0.5297  1.0899  0.3086
  684MOL0     C92210  10.596   3.715   3.718 -0.6555 -0.7309 -0.1104
  684MOL0     C92211  10.469   3.666   3.672  0.1798 -0.0891  0.1035
  684MOL0     C92212  10.467   3.592   3.545 -0.3604 -0.0906 -1.1879
  684MOL0     O92213  10.350   3.548   3.497  0.2455  0.7062 -0.4772
  684MOL0     C92214  10.307   3.593   3.365  0.3351 -0.5119 -0.8519
  684MOL0     C92215  10.163   3.554   3.356 -0.4707 -1.0595  0.8141
  684MOL0     C92216  10.130   3.403   3.366  0.5450 -0.6065 -0.2042
  684MOL0     C92217  10.156   3.329   3.234 -0.0471  0.2877  1.0553
  684MOL0     C92218  10.093   3.189   3.242 -0.4367  0.5898  0.0255
  684MOL0     C92219   9.948   3.167   3.215 -0.5572  0.1654 -0.5801
  684MOL0     C92220   9.883   3.263   3.124 -0.4642  0.3538 -0.2368
  684MOL0     C92221   9.916   3.251   2.966 -0.3121  0.2238 -0.0687
  684MOL0     N92222   9.845   3.368   2.913 -0.3102  1.6765  0.3741
  684MOL0     C92223   9.895   3.471   2.841 -0.5215  0.3833 -0.1067
  684MOL0     C92224   9.789   3.529   2.788 -0.2312  0.2498 -0.6163
  684MOL0     C92225   9.792   3.630   2.681 -0.7176 -0.7958 -0.2355
  684MOL0     C92226   9.673   3.728   2.680 -0.5652  0.7997 -0.3755
  684MOL0     C92227   9.675   3.813   2.558 -0.9103 -1.1883 -0.3581
  684MOL0     C92228   9.794   3.910   2.548 -0.0129 -0.6921 -0.3464
  684MOL0     O92229   9.894   3.843   2.485 -0.1648  0.0450 -0.3552
  684MOL0     C92230  10.006   3.911   2.467 -0.1789  0.4893  0.0712
  684MOL0     C92231  10.021   4.055   2.478 -0.0183 -0.0169  0.1808
  684MOL0     C92232  10.150   4.120   2.467  0.2176  0.5965  0.0048
  684MOL0     C92233  10.257   4.041   2.429 -0.4501  0.0888 -0.2282
  684MOL0     C92234  10.393   4.103   2.409 -0.5292  0.1689  0.7320
  684MOL0     O92235  10.494   4.022   2.377 -0.4089 -0.9108  0.2616
  684MOL0     C92236  10.622   4.074   2.372  0.5513  0.6055  0.9614
  684MOL0     C92237  10.660   4.161   2.265 -0.2891  0.2889 -0.3899
  684MOL0     C92238  10.792   4.209   2.244  0.6202  0.3824  0.6289
  684MOL0     C92239  10.886   4.167   2.337 -0.2576 -0.0967  0.6635
  684MOL0     O92240  11.018   4.196   2.327 -0.1052  1.0239 -0.7678
  684MOL0     C92241  11.066   4.270   2.218  0.3600  0.0501  1.0299
  684MOL0     C92242  11.212   4.225   2.199  0.0166  0.4281 -0.4562
  684MOL0     C92243  11.287   4.326   2.099 -0.4649  0.3057 -0.1657
  684MOL0     C92244  11.437   4.296   2.093 -0.0168  0.1784  0.4534
  684MOL0     C92245  11.512   4.345   1.962 -1.0898 -0.0605 -1.4739
  684MOL0     C92246  11.437   4.298   1.833 -0.0220 -0.3167 -0.8535
  684MOL0     C92247  11.528   4.322   1.713  0.0217 -0.2021 -0.0900
  684MOL0     C92248  11.492   4.230   1.600 -0.2634 -0.1126  0.0792
  684MOL0    Cl92249  11.551   4.307   1.456  0.2957 -0.3293  0.2780
  684MOL0     C92250  10.851   4.078   2.437 -0.6598  0.8635 -0.0642
  684MOL0     C92251  10.720   4.030   2.457  1.3908  0.1246  0.4116
  684MOL0     O92252  10.409   4.226   2.431  0.7523 -0.6593  0.1657
  684MOL0     C92253  10.238   3.899   2.412 -0.4838  0.0284 -0.5443
  684MOL0     C92254  10.115   3.832   2.434  0.6707 -1.2082  0.0178
  684MOL0     N92255   9.674   3.462   2.830  0.3526 -0.4945 -0.0197
  684MOL0     N92256   9.705   3.362   2.898 -0.4593 -0.2874 -0.0121
  684MOL0     C92257  10.582   3.579   3.475 -0.1665 -0.3647 -0.4466
  684MOL0     C92258  10.708   3.633   3.522 -0.2265  0.3557  0.0662
  684MOL0     C92259  10.969   3.907   3.832  0.0496 -0.4891  0.0166
  684MOL0     C92260  10.973   4.006   3.736 -0.0411 -0.3971  0.0484
  684MOL0     C92261  11.057   4.109   3.741 -0.4925 -0.9502 -0.0528
  684MOL0     C92262  11.155   4.122   3.841 -0.4159  0.5802  0.1679
  684MOL0     O92263  11.247   4.227   3.848 -0.3595 -0.0859 -0.2580
  684MOL0     C92264  11.244   4.343   3.766  0.2603  0.9502  0.2384
  684MOL0     C92265  11.351   4.444   3.783 -1.0112  0.3984 -0.1018
  684MOL0     C92266  11.492   4.372   3.761  0.5239 -0.6838  0.6757
  684MOL0     C92267  11.578   4.428   3.645  0.4174  0.9602  0.5325
  684MOL0     C92268  11.715   4.381   3.672 -1.1534  0.2089  0.0652
  684MOL0     C92269  11.828   4.345   3.707  1.1701  0.4280 -0.4389
  684MOL0     C92270  11.159   4.018   3.939 -0.4022 -0.0437 -0.2931
  684MOL0     C92271  11.070   3.909   3.926 -0.1315 -0.2135  0.0557
  684MOL0     C92272  11.080   3.796   4.026 -0.1917  0.8935 -1.0418
  684MOL0     H92273  10.595   3.765   3.814 -0.6421  0.3923 -0.6766
  684MOL0     H92274  10.377   3.687   3.725  0.0998  1.7633 -0.6966
  684MOL0     H92275  10.307   3.701   3.350 -0.3081  0.2627  3.4430
  684MOL0     H92276  10.370   3.549   3.286  2.1309 -0.5818  0.5484
  684MOL0     H92277  10.127   3.595   3.261 -2.3045 -0.5881  1.6602
  684MOL0     H92278  10.096   3.608   3.423 -1.6431 -0.5155 -0.7533
  684MOL0     H92279  10.025   3.387   3.394 -0.0669 -0.3809 -2.2090
  684MOL0     H92280  10.189   3.356   3.446 -2.9690  0.7261  3.5060
  684MOL0     H92281  10.127   3.384   3.144  3.9340  1.7534  0.4698
  684MOL0     H92282  10.265   3.321   3.231  0.0528  1.4928  0.9886
  684MOL0     H92283  10.129   3.149   3.146  0.9828  1.9003 -0.0316
  684MOL0     H92284  10.134   3.130   3.325 -0.8619  0.0684 -0.1255
  684MOL0     H92285   9.933   3.060   3.194  1.2241 -1.3909  4.5955
  684MOL0     H92286   9.900   3.179   3.313  0.7209 -0.3785  0.1327
  684MOL0     H92287   9.909   3.366   3.153 -1.3734  0.9483 -1.4719
  684MOL0     H92288   9.774   3.264   3.129 -0.5354 -1.4650 -0.7060
  684MOL0     H92289  10.023   3.262   2.948 -0.2285 -0.8734 -0.2894
  684MOL0     H92290   9.893   3.154   2.922  0.3038  0.0845 -0.0862
  684MOL0     H92291   9.998   3.506   2.831 -0.9588  3.0207  2.9054
  684MOL0     H92292   9.880   3.692   2.696 -0.8391 -1.2859  3.2560
  684MOL0     H92293   9.791   3.572   2.588  1.1711 -1.7292  0.2736
  684MOL0     H92294   9.587   3.660   2.684  1.2686 -1.6648  3.4532
  684MOL0     H92295   9.668   3.800   2.763  1.6991  2.3033 -1.4380
  684MOL0     H92296   9.588   3.879   2.563 -2.0533 -2.7186  1.9694
  684MOL0     H92297   9.680   3.744   2.474 -2.3900 -0.6377 -0.9386
  684MOL0     H92298   9.819   3.935   2.651 -0.2029  0.8781 -0.6484
  684MOL0     H92299   9.771   3.997   2.485  2.4708  0.1968 -0.1193
  684MOL0     H92300   9.938   4.116   2.512 -0.5347 -1.0004  0.7270
  684MOL0     H92301  10.168   4.223   2.499  0.1548  0.7505 -0.4438
  684MOL0     H92302  10.577   4.193   2.202 -1.7787 -0.6294  1.0145
  684MOL0     H92303  10.804   4.282   2.165  0.7974 -1.1297 -0.7733
  684MOL0     H92304  11.014   4.251   2.124  2.2152  1.7465 -0.4471
  684MOL0     H92305  11.060   4.375   2.246 -1.2750 -0.5939  3.3756
  684MOL0     H92306  11.264   4.224   2.295  1.3521 -1.4889 -1.1269
  684MOL0     H92307  11.217   4.123   2.158  1.1631  1.0340 -1.9281
  684MOL0     H92308  11.248   4.306   1.999 -2.6812 -0.3194  0.7680
  684MOL0     H92309  11.279   4.432   2.125  2.5344  0.1447  1.9134
  684MOL0     H92310  11.446   4.187   2.096  0.6513  0.2376  0.6808
  684MOL0     H92311  11.482   4.335   2.185 -2.9072  3.1264  0.7853
  684MOL0     H92312  11.605   4.288   1.955 -0.3169  0.8366  0.6020
  684MOL0     H92313  11.538   4.452   1.962  2.5764 -0.8290 -1.6950
  684MOL0     H92314  11.407   4.194   1.842  1.5866 -0.7946 -0.8005
  684MOL0     H92315  11.345   4.357   1.819  0.3720  0.8142  0.9468
  684MOL0     H92316  11.632   4.297   1.734 -0.5162 -1.8614  0.8276
  684MOL0     H92317  11.530   4.427   1.682 -1.7771  0.2533  1.1585
  684MOL0     H92318  11.528   4.130   1.621 -2.0664 -0.6693  0.7203
  684MOL0     H92319  11.385   4.208   1.594 -0.0052 -2.0037  1.5606
  684MOL0     H92320  10.931   4.033   2.494 -0.5202  0.9374 -0.2022
  684MOL0     H92321  10.694   3.958   2.533 -0.1565  2.6056  2.4294
  684MOL0     H92322  10.328   3.844   2.387 -0.5165 -0.1196 -0.3409
  684MOL0     H92323  10.090   3.727   2.431 -4.4232 -0.3574  2.0536
  684MOL0     H92324  10.585   3.523   3.382  0.5353 -0.9507 -0.0827
  684MOL0     H92325  10.794   3.610   3.460  0.7566  0.2097  1.4450
  684MOL0     H92326  10.899   4.000   3.657 -0.0701  1.0242 -0.0556
  684MOL0     H92327  11.036   4.191   3.673 -0.3366 -1.9882 -1.3907
  684MOL0     H92328  11.146   4.388   3.786 -0.0203  0.4649 -0.0313
  684MOL0     H92329  11.240   4.312   3.661  2.7841  1.3820 -0.0501
  684MOL0     H92330  11.347   4.476   3.887  1.9504  0.9307 -0.0795
  684MOL0     H92331  11.331   4.528   3.716  0.4525  0.3574 -0.6228
  684MOL0     H92332  11.480   4.264   3.756  2.6763 -0.8989 -2.1103
  684MOL0     H92333  11.547   4.393   3.853  3.3930  2.6934 -1.5414
  684MOL0     H92334  11.541   4.403   3.546  5.1080 -3.2265 -0.5352
  684MOL0     H92335  11.583   4.538   3.650  3.0689  0.9262 -0.1579
  684MOL0     H92336  11.916   4.311   3.757 -0.2861 -2.8826  0.1135
  684MOL0     H92337  11.234   4.025   4.018  1.0311 -3.3618 -1.1520
  684MOL0     H92338  11.006   3.820   4.103  2.6052 -1.6530  2.8245
  684MOL0     H92339  11.054   3.698   3.984 -0.8570 -1.2495  3.6843
  684MOL0     H92340  11.178   3.791   4.074 -0.8279  1.7888  0.4151
  685MOL0     O92341   4.699   1.212   4.783  0.2759  0.3262 -0.1711
  685MOL0     C92342   4.708   1.295   4.873 -0.7855 -1.1985  0.2409
  685MOL0     O92343   4.827   1.350   4.915  0.7479 -0.0607  0.1141
  685MOL0     C92344   4.954   1.319   4.863 -0.1071 -0.1265  0.0168
  685MOL0     C92345   4.995   1.364   4.736 -0.3715  0.0815 -0.4716
  685MOL0     C92346   5.126   1.351   4.687 -0.5788  0.0365  0.2941
  685MOL0     C92347   5.221   1.275   4.757  0.5354 -1.1093  0.2924
  685MOL0     O92348   5.357   1.275   4.714 -0.0100 -0.0507  0.0613
  685MOL0     C92349   5.465   1.234   4.799  0.0562  0.1759 -0.6148
  685MOL0     C92350   5.598   1.262   4.727  0.2763 -0.0557 -0.3868
  685MOL0     C92351   5.708   1.307   4.820 -0.9442 -0.7773 -0.8877
  685MOL0     C92352   5.851   1.293   4.768  0.3798 -0.6424 -0.9500
  685MOL0     C92353   5.923   1.157   4.783  0.0820 -0.9265  0.4404
  685MOL0     C92354   6.066   1.174   4.740  0.3087 -0.8246  0.1707
  685MOL0     C92355   6.152   1.053   4.727 -0.1918 -0.0102  0.0273
  685MOL0     C92356   6.176   0.980   4.863 -0.2396 -1.0542  0.3391
  685MOL0     N92357   6.257   1.080   4.948  0.1911 -0.5983 -0.5175
  685MOL0     C92358   6.203   1.157   5.041 -0.3543  0.3038  1.2663
  685MOL0     C92359   6.305   1.230   5.083  0.5354 -0.3472 -0.3002
  685MOL0     C92360   6.278   1.345   5.182  0.2828 -0.1119  0.2783
  685MOL0     C92361   6.250   1.484   5.120  0.5971  0.9633 -0.5454
  685MOL0     C92362   6.203   1.573   5.229  1.2816  0.2024  0.3639
  685MOL0     C92363   6.192   1.725   5.194 -0.1374  0.4773  0.8668
  685MOL0     O92364   6.094   1.731   5.091  0.2314  0.9469 -0.3789
  685MOL0     C92365   5.972   1.776   5.120  0.3511 -0.2364 -0.5561
  685MOL0     C92366   5.858   1.699   5.099 -0.4070 -0.1168 -0.0781
  685MOL0     C92367   5.732   1.746   5.133  0.9600  0.4603  0.5391
  685MOL0     C92368   5.722   1.860   5.204 -0.6225  0.8279  0.4555
  685MOL0     C92369   5.593   1.885   5.273 -0.7414  0.2854 -0.3682
  685MOL0     O92370   5.523   1.771   5.319 -0.0587 -0.1409 -0.0095
  685MOL0     C92371   5.414   1.789   5.389  0.4140 -1.2362 -0.3337
  685MOL0     C92372   5.396   1.729   5.520  0.2298 -0.7145  0.1113
  685MOL0     C92373   5.277   1.754   5.586  0.9290 -0.5525  0.0921
  685MOL0     C92374   5.170   1.831   5.523 -1.1036 -0.3924 -0.6033
  685MOL0     O92375   5.049   1.858   5.585 -0.0129  0.0310 -0.1206
  685MOL0     C92376   5.029   1.819   5.723  0.0595 -0.1261  0.4304
  685MOL0     C92377   4.880   1.835   5.739  0.6585  0.7535 -0.2776
  685MOL0     C92378   4.838   1.822   5.891 -0.8617 -0.6516  0.0524
  685MOL0     C92379   4.685   1.834   5.915 -0.0452 -0.4195 -0.9757
  685MOL0     C92380   4.632   1.803   6.055  1.1098 -0.6082 -0.4792
  685MOL0     C92381   4.485   1.787   6.046 -0.3880 -0.3286 -0.1098
  685MOL0     C92382   4.438   1.767   6.191 -0.1117 -0.1754  0.2639
  685MOL0     C92383   4.293   1.726   6.193 -0.2375 -0.2616  0.3218
  685MOL0    Cl92384   4.257   1.574   6.105 -0.6828  0.3040  0.4984
  685MOL0     C92385   5.183   1.882   5.392  0.4045  0.3119 -0.0092
  685MOL0     C92386   5.309   1.865   5.327  0.2970  0.1540  0.2249
  685MOL0     O92387   5.558   1.999   5.290  0.9170  0.3094  0.2038
  685MOL0     C92388   5.834   1.935   5.227  0.2085  0.4818  0.2733
  685MOL0     C92389   5.959   1.905   5.176  0.3183  0.3254  0.6255
  685MOL0     N92390   6.418   1.193   5.015 -0.1287 -0.5241  0.3573
  685MOL0     N92391   6.387   1.101   4.930 -0.3095 -0.3375  0.9679
  685MOL0     C92392   5.184   1.233   4.886  0.0012  0.2748 -0.7152
  685MOL0     C92393   5.055   1.250   4.936  1.4243 -0.3385 -0.1782
  685MOL0     C92394   4.579   1.359   4.921  0.1074 -0.3714  0.4707
  685MOL0     C92395   4.577   1.486   4.969  0.1939 -0.6918 -0.6741
  685MOL0     C92396   4.456   1.555   4.998  0.4320  0.5249 -0.0451
  685MOL0     C92397   4.331   1.485   4.986  0.0395 -1.0020  0.1607
  685MOL0     O92398   4.220   1.564   4.998  0.0709  0.7405  0.2116
  685MOL0     C92399   4.092   1.502   4.979 -0.4318 -0.5756 -0.5350
  685MOL0     C92400   3.983   1.603   4.965 -0.0613 -0.7003 -0.2662
  685MOL0     C92401   3.998   1.684   4.845 -0.0680  0.0985  0.6598
  685MOL0     C92402   3.864   1.761   4.815  0.4435 -0.3924 -0.7260
  685MOL0     C92403   3.888   1.875   4.717 -1.2232 -0.1220 -0.1069
  685MOL0     C92404   3.902   1.963   4.632  1.9014  0.2526 -0.9097
  685MOL0     C92405   4.330   1.351   4.955  0.4230 -0.2252 -0.3897
  685MOL0     C92406   4.455   1.286   4.932 -0.1684  0.8272 -0.6802
  685MOL0     C92407   4.444   1.139   4.899  0.0813 -0.1858 -0.0481
  685MOL0     H92408   4.925   1.419   4.674 -0.1248 -0.0270 -0.8465
  685MOL0     H92409   5.141   1.398   4.591 -4.0431  1.9409  0.5556
  685MOL0     H92410   5.453   1.295   4.889  0.4200 -0.7462  0.0882
  685MOL0     H92411   5.460   1.136   4.848  0.8912  0.3331 -0.1922
  685MOL0     H92412   5.573   1.330   4.645 -2.3529 -0.0848  0.3002
  685MOL0     H92413   5.623   1.166   4.681 -2.1232 -1.9162  1.8843
  685MOL0     H92414   5.697   1.269   4.922 -0.6415  2.3771  0.4366
  685MOL0     H92415   5.679   1.413   4.829 -2.2441 -0.8967 -2.8583
  685MOL0     H92416   5.846   1.320   4.662 -1.8376 -3.0129 -1.5388
  685MOL0     H92417   5.910   1.373   4.813 -2.3475  0.9723 -0.0438
  685MOL0     H92418   5.921   1.106   4.880  1.8546 -0.9080  0.5298
  685MOL0     H92419   5.871   1.097   4.709 -0.4335 -0.1175  0.1296
  685MOL0     H92420   6.066   1.225   4.643 -3.0632 -1.6089 -0.3802
  685MOL0     H92421   6.114   1.244   4.809  1.4535  0.5919 -1.9287
  685MOL0     H92422   6.250   1.084   4.692  0.4987  0.4929  2.2546
  685MOL0     H92423   6.109   0.983   4.655 -0.2931  1.1883 -1.1156
  685MOL0     H92424   6.083   0.968   4.920  0.1436  4.3163  2.6853
  685MOL0     H92425   6.236   0.890   4.846  1.1697 -0.1000  0.0905
  685MOL0     H92426   6.095   1.162   5.056 -0.3287 -1.1014  2.0659
  685MOL0     H92427   6.206   1.315   5.259 -2.0596 -0.7023 -1.9871
  685MOL0     H92428   6.371   1.360   5.238  0.3233 -1.5990  0.6681
  685MOL0     H92429   6.338   1.531   5.077 -0.6580  0.1900 -4.3053
  685MOL0     H92430   6.173   1.483   5.043  0.3271  1.1039 -0.2794
  685MOL0     H92431   6.266   1.549   5.316  0.1059  0.1746  1.2387
  685MOL0     H92432   6.100   1.540   5.248  1.5880 -0.7604  0.3932
  685MOL0     H92433   6.286   1.751   5.144 -1.0121  1.0509 -0.5245
  685MOL0     H92434   6.164   1.787   5.280 -2.0902  1.4151 -0.3864
  685MOL0     H92435   5.887   1.602   5.060  0.0272  1.0355 -2.8446
  685MOL0     H92436   5.643   1.683   5.129  0.9786  0.4202  0.7150
  685MOL0     H92437   5.476   1.678   5.573  0.5552 -0.5324 -0.2034
  685MOL0     H92438   5.265   1.712   5.685 -0.1193 -0.7441 -0.1015
  685MOL0     H92439   5.054   1.715   5.743  4.1655  0.1589 -2.0842
  685MOL0     H92440   5.095   1.882   5.782  0.6444  1.2756 -1.6011
  685MOL0     H92441   4.839   1.928   5.698  0.1152  1.0219  0.8313
  685MOL0     H92442   4.836   1.758   5.675  1.2261 -0.3108  0.5854
  685MOL0     H92443   4.881   1.733   5.939 -0.1175 -1.2638 -1.6713
  685MOL0     H92444   4.889   1.903   5.943 -0.8990 -0.6923  0.1530
  685MOL0     H92445   4.643   1.771   5.835 -2.1779  0.5730 -0.7152
  685MOL0     H92446   4.655   1.938   5.900  0.9095 -0.1967 -1.4380
  685MOL0     H92447   4.667   1.884   6.120 -0.7617  1.9601 -2.4497
  685MOL0     H92448   4.670   1.707   6.093 -0.2787 -1.4615 -1.1919
  685MOL0     H92449   4.440   1.876   6.000  1.7805  0.2406 -1.2778
  685MOL0     H92450   4.466   1.700   5.982  0.3476  0.8370 -2.0127
  685MOL0     H92451   4.442   1.849   6.263  1.3385 -0.5653  0.6448
  685MOL0     H92452   4.495   1.683   6.231 -1.7546 -1.5815 -0.2043
  685MOL0     H92453   4.275   1.696   6.296  1.5482  0.4495  0.8671
  685MOL0     H92454   4.227   1.807   6.159  1.0934  1.4219  1.5870
  685MOL0     H92455   5.094   1.933   5.355  1.6109  1.9290 -0.7743
  685MOL0     H92456   5.322   1.899   5.225  0.9235 -2.8943 -0.8146
  685MOL0     H92457   5.815   2.029   5.278  1.4253  0.8306  0.1086
  685MOL0     H92458   6.040   1.971   5.202  0.3322  0.9039 -0.7838
  685MOL0     H92459   5.255   1.179   4.948 -1.2816 -1.6625 -0.8476
  685MOL0     H92460   5.031   1.205   5.032 -1.1208 -0.8965 -0.9851
  685MOL0     H92461   4.675   1.533   4.972 -0.5641  0.9554  1.5538
  685MOL0     H92462   4.460   1.659   5.028 -1.1036  0.1746  1.5345
  685MOL0     H92463   4.069   1.432   5.061  1.0483  0.2770  0.6455
  685MOL0     H92464   4.085   1.446   4.886  1.8786 -0.2468 -0.9430
  685MOL0     H92465   4.000   1.660   5.057 -4.4994 -1.2405  1.1734
  685MOL0     H92466   3.880   1.565   4.967 -0.6350  0.7859  0.0639
  685MOL0     H92467   4.017   1.625   4.755  5.2355  1.3819  0.6370
  685MOL0     H92468   4.083   1.752   4.848  3.8618 -3.6983 -4.9097
  685MOL0     H92469   3.786   1.703   4.765 -1.5341  2.3690 -1.1003
  685MOL0     H92470   3.829   1.795   4.912  0.3374  2.9190 -1.8144
  685MOL0     H92471   3.900   2.031   4.549 -0.7041  0.3291 -0.8837
  685MOL0     H92472   4.233   1.303   4.947 -0.3459  1.3659 -1.0167
  685MOL0     H92473   4.423   1.122   4.793  0.9148  2.7061 -0.7767
  685MOL0     H92474   4.534   1.085   4.928 -0.2159 -0.6242  0.0630
  685MOL0     H92475   4.365   1.082   4.949 -0.6914 -0.2497 -1.2975
  686MOL0     O92476   5.725   3.350   7.755  0.4707 -0.2152 -0.6541
  686MOL0     C92477   5.728   3.362   7.873  0.0839 -0.5846  0.0332
  686MOL0     O92478   5.761   3.484   7.938 -0.1900 -0.4880 -0.8153
  686MOL0     C92479   5.837   3.574   7.868  0.2888 -0.0061  0.1216
  686MOL0     C92480   5.768   3.698   7.841  0.8794  0.1804 -0.8925
  686MOL0     C92481   5.833   3.799   7.765 -0.0219  0.3402 -0.8328
  686MOL0     C92482   5.966   3.785   7.722  0.2617  0.0260 -0.6368
  686MOL0     O92483   6.021   3.880   7.638 -0.2550 -0.1781 -0.1134
  686MOL0     C92484   6.166   3.895   7.629 -0.8489 -0.3963  0.2117
  686MOL0     C92485   6.218   4.025   7.696 -0.0172  0.4644  0.1068
  686MOL0     C92486   6.365   4.050   7.681  0.0924 -0.1767  0.2298
  686MOL0     C92487   6.409   4.097   7.541 -0.0432  0.1500 -0.4387
  686MOL0     C92488   6.551   4.149   7.557 -0.4397  0.4371 -0.5643
  686MOL0     C92489   6.662   4.034   7.570  0.2931  0.7546  0.0755
  686MOL0     C92490   6.802   4.090   7.561  0.2095 -0.8544  0.5579
  686MOL0     C92491   6.827   4.186   7.679 -1.1322  0.0103  0.3912
  686MOL0     N92492   6.965   4.228   7.663  0.6241 -0.6317  0.0749
  686MOL0     C92493   7.029   4.337   7.601 -0.2415  0.4726  0.1761
  686MOL0     C92494   7.159   4.327   7.621  0.0256 -0.2951 -0.2343
  686MOL0     C92495   7.273   4.414   7.571 -0.7881  0.4078  0.4114
  686MOL0     C92496   7.305   4.363   7.431 -0.4378 -0.0966 -0.8224
  686MOL0     C92497   7.387   4.459   7.344 -0.0922  0.7376 -0.4596
  686MOL0     C92498   7.531   4.490   7.403 -0.6035  0.6226 -0.1963
  686MOL0     O92499   7.615   4.561   7.312 -0.0283 -0.6040 -0.0853
  686MOL0     C92500   7.755   4.576   7.336  0.4224  0.0863  1.3103
  686MOL0     C92501   7.809   4.678   7.262  0.2057  0.4375  0.1729
  686MOL0     C92502   7.941   4.707   7.273 -0.6314  0.7045 -0.9144
  686MOL0     C92503   8.030   4.627   7.354 -0.0798 -1.1177  0.8152
  686MOL0     C92504   8.179   4.648   7.358  0.3492 -0.7214  0.8145
  686MOL0     O92505   8.267   4.551   7.398  0.1762  0.3730 -0.3912
  686MOL0     C92506   8.398   4.580   7.440  0.6432  0.5043  0.1964
  686MOL0     C92507   8.501   4.502   7.403  0.2493  0.1144  0.3535
  686MOL0     C92508   8.629   4.518   7.456 -0.3543  0.2452  0.2033
  686MOL0     C92509   8.655   4.618   7.545 -0.0210  0.1920 -0.6323
  686MOL0     O92510   8.776   4.642   7.612  0.0401 -0.0065  0.2662
  686MOL0     C92511   8.896   4.582   7.572 -0.1825 -0.0926 -0.3103
  686MOL0     C92512   9.019   4.625   7.659 -0.5978 -0.5717  0.2118
  686MOL0     C92513   9.154   4.614   7.589  0.7825 -0.2082 -0.1184
  686MOL0     C92514   9.177   4.461   7.568 -0.4455  0.0893 -0.1493
  686MOL0     C92515   9.328   4.442   7.537 -0.1461 -0.2296 -0.3308
  686MOL0     C92516   9.368   4.508   7.401 -0.2485  0.6931  0.6357
  686MOL0     C92517   9.304   4.441   7.278  0.3452 -0.5515 -1.3561
  686MOL0     C92518   9.370   4.482   7.155 -0.7003  0.1679 -0.1139
  686MOL0    Cl92519   9.276   4.441   7.010  0.1566  0.1279  0.1805
  686MOL0     C92520   8.556   4.703   7.580  1.0824 -0.1184  0.8303
  686MOL0     C92521   8.427   4.685   7.538  0.1197  0.6510  0.7333
  686MOL0     O92522   8.213   4.765   7.350 -0.3472 -0.2383  0.4319
  686MOL0     C92523   7.972   4.518   7.416  0.5011  0.7626 -0.6230
  686MOL0     C92524   7.840   4.493   7.410 -0.2890  1.4549 -0.0220
  686MOL0     N92525   7.179   4.211   7.695 -0.5995  0.1414  0.0371
  686MOL0     N92526   7.065   4.163   7.727  0.3957 -0.0062  0.9929
  686MOL0     C92527   6.025   3.661   7.743  0.4471 -1.0281 -0.6941
  686MOL0     C92528   5.964   3.558   7.822  0.3315  0.4188  0.1300
  686MOL0     C92529   5.658   3.262   7.956  0.1854  0.3578 -0.0967
  686MOL0     C92530   5.574   3.310   8.062 -0.6833  0.2228  0.1091
  686MOL0     C92531   5.505   3.223   8.148 -0.3194  0.3642  0.1104
  686MOL0     C92532   5.488   3.089   8.115  0.1760  0.0920 -1.1547
  686MOL0     O92533   5.391   3.008   8.171  0.5895 -0.1848  0.3330
  686MOL0     C92534   5.257   3.050   8.135 -0.1097 -0.1728  0.0898
  686MOL0     C92535   5.166   3.001   8.249  0.2639  0.2900 -1.2919
  686MOL0     C92536   5.156   2.844   8.265 -0.7838 -0.4815 -0.1023
  686MOL0     C92537   5.052   2.804   8.367 -0.0817 -0.6318  0.3385
  686MOL0     C92538   4.915   2.822   8.312 -0.8645  0.7852  0.2134
  686MOL0     C92539   4.805   2.831   8.261 -0.6748 -0.2078 -0.5964
  686MOL0     C92540   5.567   3.039   8.010 -0.1075  0.1358  0.6057
  686MOL0     C92541   5.655   3.121   7.935 -0.2120 -0.6975 -0.0035
  686MOL0     C92542   5.742   3.053   7.831 -0.5785  0.6358  0.0785
  686MOL0     H92543   5.664   3.706   7.871  0.9212 -3.4823  0.7720
  686MOL0     H92544   5.793   3.892   7.728 -0.4162  1.1998  1.5912
  686MOL0     H92545   6.226   3.823   7.686  0.1097 -0.0626 -0.3578
  686MOL0     H92546   6.196   3.884   7.524  1.4436 -2.8956  0.9929
  686MOL0     H92547   6.213   4.007   7.803 -0.7396 -0.3197 -0.0486
  686MOL0     H92548   6.149   4.107   7.671 -0.8823 -0.1044  0.5583
  686MOL0     H92549   6.429   3.963   7.701  1.2220  0.3245 -1.0749
  686MOL0     H92550   6.386   4.131   7.752  1.8028 -1.0498  0.7766
  686MOL0     H92551   6.407   4.006   7.480 -1.1242 -1.1644  1.4443
  686MOL0     H92552   6.335   4.163   7.494 -2.0008 -2.0517 -0.6179
  686MOL0     H92553   6.582   4.206   7.469 -1.3454 -1.9157 -2.5441
  686MOL0     H92554   6.554   4.218   7.642 -0.9510  0.8658 -0.8828
  686MOL0     H92555   6.653   3.977   7.663  1.0514  1.2622  0.4772
  686MOL0     H92556   6.653   3.973   7.480  3.8150 -2.0166  1.3631
  686MOL0     H92557   6.799   4.142   7.465 -0.8718 -0.2122  0.9243
  686MOL0     H92558   6.869   4.004   7.547  1.1688  0.2824 -2.7005
  686MOL0     H92559   6.766   4.276   7.676  0.7481  1.3224 -1.1033
  686MOL0     H92560   6.810   4.138   7.776  0.9869 -2.0676 -0.1492
  686MOL0     H92561   6.989   4.416   7.538  0.7799 -1.0450 -2.5308
  686MOL0     H92562   7.255   4.522   7.574  1.2222  0.7698  2.4518
  686MOL0     H92563   7.362   4.410   7.635 -0.0305 -0.9402 -0.6789
  686MOL0     H92564   7.364   4.271   7.433  2.4032  1.6357 -0.4739
  686MOL0     H92565   7.209   4.343   7.381  0.9799  0.8577 -4.1872
  686MOL0     H92566   7.333   4.554   7.341 -3.1387 -0.7007  1.9438
  686MOL0     H92567   7.390   4.430   7.239 -1.5765 -0.0016 -0.3409
  686MOL0     H92568   7.572   4.395   7.440 -0.0143  0.5427 -1.0335
  686MOL0     H92569   7.509   4.551   7.491 -1.7081 -0.9383  0.6641
  686MOL0     H92570   7.748   4.741   7.198 -0.1023 -0.7182 -0.7189
  686MOL0     H92571   7.981   4.798   7.228  1.1957  2.2037  3.1625
  686MOL0     H92572   8.499   4.423   7.328 -1.7895 -0.7268  1.2110
  686MOL0     H92573   8.715   4.453   7.437 -1.8723 -2.0846  0.8423
  686MOL0     H92574   8.905   4.473   7.577  0.8282 -0.0276 -0.4157
  686MOL0     H92575   8.916   4.608   7.467 -0.4402 -0.7750 -0.5373
  686MOL0     H92576   8.999   4.732   7.670 -1.1179 -0.5787 -0.5586
  686MOL0     H92577   9.019   4.574   7.756  2.2829 -1.7800 -0.3229
  686MOL0     H92578   9.146   4.657   7.488  0.1740 -1.5005 -0.6351
  686MOL0     H92579   9.231   4.675   7.638 -1.5089  0.9922  2.2852
  686MOL0     H92580   9.122   4.419   7.484  0.6857 -0.0175 -0.8552
  686MOL0     H92581   9.152   4.406   7.659 -0.7791 -1.1855 -0.9883
  686MOL0     H92582   9.346   4.335   7.546  0.9660 -0.3303 -2.8072
  686MOL0     H92583   9.390   4.497   7.608 -0.7686  0.4844 -0.3253
  686MOL0     H92584   9.322   4.606   7.395  1.8631  1.6824 -4.6004
  686MOL0     H92585   9.477   4.509   7.388 -0.2630  2.3803  0.4350
  686MOL0     H92586   9.197   4.466   7.283  0.8255  1.6975 -0.8504
  686MOL0     H92587   9.308   4.333   7.290 -1.1194 -0.5981 -1.0694
  686MOL0     H92588   9.387   4.590   7.155 -1.6690  0.3266 -0.3315
  686MOL0     H92589   9.469   4.434   7.151  0.1682  1.6292  1.9135
  686MOL0     H92590   8.572   4.796   7.634 -0.9347  0.8538 -0.1393
  686MOL0     H92591   8.347   4.747   7.577 -0.4906  0.6627 -0.4935
  686MOL0     H92592   8.022   4.454   7.488 -0.2368  1.2289  0.3195
  686MOL0     H92593   7.785   4.414   7.460 -3.3784  0.5985 -4.2603
  686MOL0     H92594   6.117   3.653   7.686  1.6103  2.1816  0.4625
  686MOL0     H92595   6.018   3.468   7.852  0.2554  0.0657 -0.7561
  686MOL0     H92596   5.565   3.414   8.093  0.3337  0.2623  0.3058
  686MOL0     H92597   5.451   3.272   8.228  1.9604  0.6451  1.5575
  686MOL0     H92598   5.222   2.996   8.046 -2.5988 -0.2199  1.0147
  686MOL0     H92599   5.241   3.158   8.127 -1.3334 -0.3284  0.2359
  686MOL0     H92600   5.063   3.035   8.231  0.0084  0.4467  0.3162
  686MOL0     H92601   5.189   3.031   8.351 -2.1493  1.7337 -1.0935
  686MOL0     H92602   5.253   2.800   8.288 -1.0704 -0.9346  0.2669
  686MOL0     H92603   5.133   2.804   8.166 -2.1723 -1.9688  0.7626
  686MOL0     H92604   5.056   2.695   8.377  0.7794 -0.7698 -1.1898
  686MOL0     H92605   5.063   2.859   8.461 -0.5637 -1.7123  1.0537
  686MOL0     H92606   4.706   2.842   8.220 -0.3935 -2.0204 -1.8805
  686MOL0     H92607   5.550   2.935   7.981 -0.3900  0.6343 -1.1486
  686MOL0     H92608   5.771   3.109   7.742 -0.4467  1.3915  0.5916
  686MOL0     H92609   5.831   3.022   7.887  0.1121  3.5723  0.7564
  686MOL0     H92610   5.693   2.960   7.800  0.8480  0.5029 -1.9623
  687MOL0     O92611   7.331   4.809   3.744  0.3330  0.3700  0.3055
  687MOL0     C92612   7.279   4.783   3.633 -0.4547  0.3951  1.2244
  687MOL0     O92613   7.351   4.754   3.522  0.4812  0.3789  0.0776
  687MOL0     C92614   7.478   4.705   3.543  0.2277 -0.1752 -1.0581
  687MOL0     C92615   7.493   4.565   3.534  0.1581  0.6330 -0.7257
  687MOL0     C92616   7.615   4.503   3.574 -0.6784  0.7526 -0.9764
  687MOL0     C92617   7.729   4.581   3.613  0.1575  0.5325 -0.2248
  687MOL0     O92618   7.851   4.531   3.637 -0.4767 -0.5460  0.3545
  687MOL0     C92619   7.838   4.428   3.745 -0.2778 -0.4612 -0.0820
  687MOL0     C92620   7.985   4.407   3.816 -0.2484  0.6745  1.3231
  687MOL0     C92621   8.054   4.527   3.876 -0.3571 -0.7939  1.2083
  687MOL0     C92622   8.199   4.501   3.932  0.2228 -0.2733 -0.4814
  687MOL0     C92623   8.271   4.633   3.964 -0.1493  0.1131 -0.9981
  687MOL0     C92624   8.393   4.606   4.039  0.7629  0.8632  0.0607
  687MOL0     C92625   8.472   4.732   4.028  0.3565 -1.4326  0.8166
  687MOL0     C92626   8.424   4.870   4.067  0.9541  0.0060 -0.2851
  687MOL0     N92627   8.548   4.948   4.091  0.2147 -0.0007 -0.3286
  687MOL0     C92628   8.602   5.019   3.994 -1.4293 -0.1940 -0.0697
  687MOL0     C92629   8.721   5.053   4.048  0.0723 -0.4827  0.0574
  687MOL0     C92630   8.823   5.145   3.986  0.0473 -0.3020  0.9219
  687MOL0     C92631   8.950   5.166   4.067  0.6047 -0.5404  0.2997
  687MOL0     C92632   8.928   5.259   4.197  1.1869  0.8179  0.8123
  687MOL0     C92633   9.045   5.293   4.271  0.1180  0.3015  0.1371
  687MOL0     O92634   9.122   5.176   4.291  0.1113  0.6792  0.9188
  687MOL0     C92635   9.244   5.209   4.336 -0.6599 -0.8580 -0.3813
  687MOL0     C92636   9.331   5.286   4.256  0.3792  0.3723  0.4341
  687MOL0     C92637   9.454   5.327   4.296 -0.6857  0.1899  0.1779
  687MOL0     C92638   9.498   5.283   4.418 -0.3582  0.1789 -0.5408
  687MOL0     C92639   9.641   5.322   4.458  0.7467  0.0183 -0.2308
  687MOL0     O92640   9.705   5.422   4.380  0.0258 -0.3699  0.3141
  687MOL0     C92641   9.819   5.485   4.422  0.2854  0.0853 -0.0925
  687MOL0     C92642   9.872   5.505   4.555 -0.9159 -0.1447  0.2566
  687MOL0     C92643  10.001   5.562   4.570  0.2357  0.2874 -0.9309
  687MOL0     C92644  10.068   5.612   4.461 -0.3024  1.1852  0.2318
  687MOL0     O92645  10.191   5.654   4.466  0.2867 -0.0542  0.6803
  687MOL0     C92646  10.216   5.761   4.556  0.5736  0.5702 -0.1807
  687MOL0     C92647  10.314   5.867   4.500 -1.1880 -0.5807  0.2519
  687MOL0     C92648  10.272   5.924   4.362  0.4793  0.2280 -0.2426
  687MOL0     C92649  10.351   6.047   4.334  0.9329  0.8520  0.4474
  687MOL0     C92650  10.283   6.147   4.235  0.8227 -0.8666  0.2919
  687MOL0     C92651  10.367   6.274   4.203 -0.4301 -1.4387 -0.5636
  687MOL0     C92652  10.286   6.361   4.110  1.0292 -0.8682 -0.0855
  687MOL0     C92653  10.211   6.484   4.162  0.8585  0.0364 -0.2018
  687MOL0    Cl92654  10.141   6.575   4.033  0.1250 -0.0709  0.2386
  687MOL0     C92655  10.024   5.575   4.334  0.1209  0.2869 -0.7614
  687MOL0     C92656   9.899   5.520   4.321 -0.8389 -0.0337  0.8442
  687MOL0     O92657   9.685   5.271   4.560  0.1260  0.2747  0.2290
  687MOL0     C92658   9.425   5.193   4.491  0.8515 -0.5759  0.6612
  687MOL0     C92659   9.305   5.147   4.445  0.0355  0.5196 -0.0766
  687MOL0     N92660   8.724   5.006   4.177 -0.3070  0.6120 -0.3681
  687MOL0     N92661   8.623   4.930   4.206  0.2052 -0.5979  0.2962
  687MOL0     C92662   7.718   4.718   3.589 -0.6173 -0.8213 -0.1455
  687MOL0     C92663   7.593   4.782   3.572 -0.3785  0.8882  1.3836
  687MOL0     C92664   7.131   4.797   3.625 -0.0159  0.3152 -0.7765
  687MOL0     C92665   7.063   4.706   3.549 -0.5470  1.2347 -0.7152
  687MOL0     C92666   6.929   4.708   3.540 -0.3960  0.1928  0.9772
  687MOL0     C92667   6.851   4.790   3.620  0.9210 -0.4867 -0.1664
  687MOL0     O92668   6.714   4.787   3.623  0.6547  0.8783 -0.3194
  687MOL0     C92669   6.629   4.718   3.535  0.4490 -0.9254 -0.2481
  687MOL0     C92670   6.485   4.744   3.587 -1.0435 -0.0852 -0.1261
  687MOL0     C92671   6.399   4.672   3.486 -0.1574 -0.3780 -0.7011
  687MOL0     C92672   6.257   4.673   3.530 -0.9077 -0.7797 -0.0839
  687MOL0     C92673   6.161   4.625   3.429 -0.4506  0.2317  0.0539
  687MOL0     C92674   6.077   4.566   3.365 -0.9181  0.0429 -0.2205
  687MOL0     C92675   6.918   4.883   3.709  0.1451  0.6997  0.1040
  687MOL0     C92676   7.059   4.888   3.710  0.4125 -0.6036  0.3878
  687MOL0     C92677   7.127   4.991   3.805 -0.2416  1.2277  1.0928
  687MOL0     H92678   7.408   4.498   3.520  0.6440 -0.9636  2.8099
  687MOL0     H92679   7.621   4.395   3.574  0.3437  0.7076  2.3470
  687MOL0     H92680   7.759   4.464   3.812  1.0084 -0.7402  1.6299
  687MOL0     H92681   7.788   4.340   3.703 -3.3288  1.3168 -0.5261
  687MOL0     H92682   8.049   4.368   3.737  0.3264  2.0039  1.0926
  687MOL0     H92683   7.975   4.322   3.884 -0.5127 -0.3167  0.0639
  687MOL0     H92684   7.990   4.580   3.947 -2.1746 -2.0995  0.6107
  687MOL0     H92685   8.055   4.603   3.797 -2.9733 -2.1184 -0.2217
  687MOL0     H92686   8.188   4.441   4.023 -0.2917  2.4871  1.3896
  687MOL0     H92687   8.260   4.446   3.860  1.3634  4.4888 -3.5931
  687MOL0     H92688   8.285   4.683   3.868  0.3829 -0.1142 -1.0415
  687MOL0     H92689   8.204   4.693   4.026  2.2824  2.6730 -0.7020
  687MOL0     H92690   8.359   4.587   4.141 -0.7640  3.8049  0.1880
  687MOL0     H92691   8.453   4.524   3.998  0.2471  0.8783 -0.7577
  687MOL0     H92692   8.503   4.733   3.923 -1.7629 -2.1835  0.1336
  687MOL0     H92693   8.556   4.713   4.096  0.0006  0.5132  1.8451
  687MOL0     H92694   8.364   4.923   3.992  0.2362  2.6218  1.9593
  687MOL0     H92695   8.356   4.861   4.153  2.1843  3.0730  1.1466
  687MOL0     H92696   8.568   5.043   3.893 -0.6846 -1.2802 -0.5996
  687MOL0     H92697   8.863   5.106   3.892  1.8075 -0.7901  1.8329
  687MOL0     H92698   8.788   5.241   3.948 -1.3361 -1.6506 -1.4497
  687MOL0     H92699   8.991   5.072   4.107  1.0491 -0.7465 -0.6147
  687MOL0     H92700   9.025   5.210   4.001  0.5701 -1.0984 -0.1216
  687MOL0     H92701   8.860   5.199   4.257 -3.2513  2.7717 -1.6903
  687MOL0     H92702   8.879   5.355   4.177 -0.3809  0.3787  2.3165
  687MOL0     H92703   8.994   5.326   4.362 -3.7715 -0.3872 -1.5743
  687MOL0     H92704   9.089   5.373   4.210  0.5908  0.0330  0.1229
  687MOL0     H92705   9.288   5.316   4.161 -3.3328 -2.6625  0.8988
  687MOL0     H92706   9.502   5.388   4.220 -0.4543  0.2687  0.3877
  687MOL0     H92707   9.813   5.469   4.639 -1.9585 -0.3669 -0.5499
  687MOL0     H92708  10.061   5.565   4.660 -0.1196  1.7645 -0.7188
  687MOL0     H92709  10.121   5.798   4.597 -0.0564 -2.1407  0.9936
  687MOL0     H92710  10.266   5.735   4.650 -2.4321 -2.2109  0.8215
  687MOL0     H92711  10.305   5.937   4.583 -2.7916 -0.8313  0.3161
  687MOL0     H92712  10.418   5.835   4.483  0.4232  3.2885  1.5809
  687MOL0     H92713  10.277   5.858   4.275  1.6814  0.5429 -0.4355
  687MOL0     H92714  10.169   5.958   4.374  0.6213  1.5198 -2.1948
  687MOL0     H92715  10.448   6.006   4.304 -0.4278 -2.5408  0.1109
  687MOL0     H92716  10.374   6.098   4.427 -0.5817  0.5833  0.9987
  687MOL0     H92717  10.184   6.175   4.272  1.9072  2.8692  0.7593
  687MOL0     H92718  10.273   6.090   4.142 -0.5547 -0.6315  0.2648
  687MOL0     H92719  10.383   6.328   4.297 -1.5015  0.3511 -1.3632
  687MOL0     H92720  10.468   6.262   4.165 -0.6484  0.3384 -1.8558
  687MOL0     H92721  10.209   6.303   4.058 -0.7161  1.4936 -0.3077
  687MOL0     H92722  10.340   6.389   4.019 -2.6267  0.0056 -2.1959
  687MOL0     H92723  10.136   6.445   4.231  1.0982 -1.3407 -0.6953
  687MOL0     H92724  10.278   6.549   4.218  1.4866 -0.0989 -0.7867
  687MOL0     H92725  10.078   5.613   4.248 -0.1864 -0.0972 -1.1302
  687MOL0     H92726   9.862   5.495   4.222  1.3642 -2.7237  0.5531
  687MOL0     H92727   9.459   5.147   4.583  0.0555 -0.8112  0.8468
  687MOL0     H92728   9.264   5.077   4.517  2.8978  1.8819  3.1748
  687MOL0     H92729   7.794   4.779   3.637 -1.3902  0.1059 -0.0586
  687MOL0     H92730   7.605   4.890   3.565 -0.2214  0.8500  1.0245
  687MOL0     H92731   7.128   4.651   3.483  1.1886  2.7092 -0.3201
  687MOL0     H92732   6.886   4.639   3.468 -0.5247  1.6683 -0.3890
  687MOL0     H92733   6.640   4.610   3.528 -3.3537 -1.3747 -1.1205
  687MOL0     H92734   6.640   4.756   3.433 -1.6181  3.6710  0.9937
  687MOL0     H92735   6.466   4.852   3.590 -1.2714 -0.1444  0.9201
  687MOL0     H92736   6.471   4.697   3.684 -0.4576 -0.9926 -0.4742
  687MOL0     H92737   6.430   4.569   3.465  0.0810 -0.9717  2.0956
  687MOL0     H92738   6.392   4.720   3.388 -1.9286  0.4612 -0.2044
  687MOL0     H92739   6.255   4.618   3.624  1.8566  0.3178  0.7020
  687MOL0     H92740   6.227   4.772   3.564 -1.9068  0.0760 -3.0679
  687MOL0     H92741   6.006   4.517   3.301 -2.0506 -1.5794  2.1198
  687MOL0     H92742   6.863   4.957   3.766 -1.0593 -0.3976  0.4139
  687MOL0     H92743   7.046   5.058   3.835 -0.3824  1.6574 -0.1767
  687MOL0     H92744   7.162   4.939   3.894  2.0334  0.6070 -0.1065
  687MOL0     H92745   7.203   5.049   3.751 -0.5593  0.5616 -0.1036
  688MOL0     O92746  10.775  11.026  11.353 -0.4905 -0.2736  0.2287
  688MOL0     C92747  10.782  11.097  11.248 -0.0336 -0.0613 -0.2825
  688MOL0     O92748  10.858  11.204  11.227 -0.0510  0.3124 -0.0972
  688MOL0     C92749  10.943  11.238  11.325  0.0737  0.3720  0.3359
  688MOL0     C92750  11.080  11.196  11.324  1.0413 -0.0746  0.1865
  688MOL0     C92751  11.167  11.236  11.425  0.0058  0.5158 -0.5522
  688MOL0     C92752  11.130  11.328  11.525  0.0346  0.6858 -0.1610
  688MOL0     O92753  11.231  11.369  11.610 -0.6699  0.6019 -0.5878
  688MOL0     C92754  11.194  11.471  11.707 -0.9828  0.1058  1.4059
  688MOL0     C92755  11.321  11.528  11.765 -1.0700 -1.2095 -0.4590
  688MOL0     C92756  11.296  11.654  11.846  1.2659 -1.1902  0.0285
  688MOL0     C92757  11.419  11.721  11.893  0.1347 -0.1577 -0.4396
  688MOL0     C92758  11.470  11.808  11.784  0.0892  0.0571 -0.0190
  688MOL0     C92759  11.518  11.952  11.836 -0.1993 -0.0444 -0.4544
  688MOL0     C92760  11.659  11.968  11.891  1.2289  0.5765  1.0738
  688MOL0     C92761  11.700  12.109  11.912  0.0293 -0.5194 -0.3486
  688MOL0     N92762  11.838  12.124  11.961  0.3398  0.1113 -0.6271
  688MOL0     C92763  11.952  12.071  11.903 -0.0493 -0.2157  0.1985
  688MOL0     C92764  12.045  12.101  11.996  0.5779  0.7535  0.6027
  688MOL0     C92765  12.184  12.082  11.991 -1.6897  0.9659 -0.4812
  688MOL0     C92766  12.239  12.055  12.128 -1.2477 -0.3408  0.2106
  688MOL0     C92767  12.361  11.965  12.108 -0.8417  0.0074 -0.9876
  688MOL0     C92768  12.448  11.960  12.237  0.5625  0.7030  0.2065
  688MOL0     O92769  12.577  11.891  12.225 -0.4967  0.4896  0.0406
  688MOL0     C92770  12.685  11.972  12.187 -0.2696 -0.6265  0.9169
  688MOL0     C92771  12.697  12.113  12.188  0.1768 -0.0524  0.0225
  688MOL0     C92772  12.824  12.166  12.155 -0.6612  0.1319  0.1138
  688MOL0     C92773  12.927  12.088  12.110  0.0514 -0.2704  0.4408
  688MOL0     C92774  13.060  12.140  12.076 -0.0090 -0.3848  0.5061
  688MOL0     O92775  13.158  12.041  12.055  0.0067 -0.5992  1.0641
  688MOL0     C92776  13.286  12.086  12.056  0.1749  0.4512  0.1000
  688MOL0     C92777  13.371  12.027  11.960 -0.0366 -0.2162  0.0636
  688MOL0     C92778  13.509  12.059  11.956  0.3283 -0.3012 -0.0300
  688MOL0     C92779  13.562  12.155  12.042 -0.4733 -0.7766 -0.5432
  688MOL0     O92780  13.695  12.181  12.038 -0.3155 -0.0269 -0.3889
  688MOL0     C92781  13.745  12.297  12.104  0.3505 -0.1996 -0.2227
  688MOL0     C92782  13.891  12.332  12.069  0.0453 -0.5397 -0.5049
  688MOL0     C92783  13.985  12.211  12.083 -0.0135  0.4666 -0.2153
  688MOL0     C92784  14.132  12.236  12.086  0.7848 -0.4288 -0.4910
  688MOL0     C92785  14.204  12.104  12.089 -0.0581 -0.3243  0.4551
  688MOL0     C92786  14.363  12.121  12.112  0.1504  0.4340  0.2477
  688MOL0     C92787  14.449  12.126  11.993  0.2345  0.9188  0.5066
  688MOL0     C92788  14.603  12.138  12.022  0.5184 -0.6763 -0.0309
  688MOL0    Cl92789  14.668  11.996  12.114 -0.5371  0.5203  0.0532
  688MOL0     C92790  13.481  12.203  12.145 -0.3188 -0.2935 -0.0420
  688MOL0     C92791  13.345  12.176  12.152 -0.0492 -1.0187  0.1886
  688MOL0     O92792  13.080  12.263  12.073 -0.3644  0.1061  0.2246
  688MOL0     C92793  12.915  11.948  12.107 -0.2465 -0.0075 -0.6117
  688MOL0     C92794  12.793  11.896  12.147  0.3636 -0.0552 -0.7019
  688MOL0     N92795  11.992  12.181  12.096 -0.7437  0.1245 -0.1070
  688MOL0     N92796  11.870  12.193  12.071  0.9287 -0.3209 -0.7567
  688MOL0     C92797  10.995  11.379  11.523  0.1406 -0.1886  0.1221
  688MOL0     C92798  10.904  11.335  11.421 -0.5460 -0.5464 -0.0631
  688MOL0     C92799  10.683  11.059  11.145 -0.9409  0.0092 -0.3789
  688MOL0     C92800  10.579  10.975  11.170  0.8226 -0.6096 -0.0282
  688MOL0     C92801  10.481  10.932  11.080 -0.6727  0.1317  0.2629
  688MOL0     C92802  10.486  10.973  10.945 -0.0767  0.2649 -0.4339
  688MOL0     O92803  10.394  10.901  10.863 -0.1203  1.3457  0.3871
  688MOL0     C92804  10.361  10.963  10.744 -0.3860 -0.3079  1.0228
  688MOL0     C92805  10.208  10.986  10.732  0.5048  1.0247 -0.2038
  688MOL0     C92806  10.153  10.842  10.713  0.0838  0.7085 -0.6038
  688MOL0     C92807   9.995  10.861  10.692  0.1745  0.2860  0.0358
  688MOL0     C92808   9.936  10.733  10.710 -0.6793  0.2757 -0.2140
  688MOL0     C92809   9.901  10.622  10.693  0.8608  0.1606 -0.1248
  688MOL0     C92810  10.595  11.055  10.913  0.6824  0.5736  0.5847
  688MOL0     C92811  10.693  11.099  11.002 -0.8896  0.0104 -0.6161
  688MOL0     C92812  10.805  11.187  10.949  0.4354  0.2426 -0.1964
  688MOL0     H92813  11.121  11.132  11.246 -1.0902 -0.2113 -0.8884
  688MOL0     H92814  11.272  11.211  11.426 -0.1791 -0.2774 -0.2237
  688MOL0     H92815  11.158  11.550  11.641  3.7018  1.0246 -0.4140
  688MOL0     H92816  11.120  11.440  11.782  1.2021  0.5139  3.8731
  688MOL0     H92817  11.387  11.546  11.680 -1.9574 -1.2449 -1.1627
  688MOL0     H92818  11.365  11.457  11.836 -0.6389  1.1654  1.8286
  688MOL0     H92819  11.239  11.615  11.931 -1.7627 -1.0507 -1.8199
  688MOL0     H92820  11.227  11.725  11.798  2.1678 -0.3824 -0.1128
  688MOL0     H92821  11.394  11.767  11.989  1.4465  1.0100 -0.6122
  688MOL0     H92822  11.496  11.646  11.910  2.5287  2.0784 -0.6778
  688MOL0     H92823  11.551  11.761  11.727 -0.8215 -2.0268  0.2867
  688MOL0     H92824  11.389  11.819  11.711  0.0929 -1.3248 -0.2638
  688MOL0     H92825  11.500  12.013  11.747  3.8968  0.2307 -1.3150
  688MOL0     H92826  11.444  11.987  11.909  1.1131  0.3673  0.7223
  688MOL0     H92827  11.728  11.930  11.815  2.3043  2.1929  1.1919
  688MOL0     H92828  11.677  11.903  11.978 -2.5739 -0.7392  1.0402
  688MOL0     H92829  11.684  12.175  11.827 -0.5763 -0.3120 -0.0778
  688MOL0     H92830  11.631  12.135  11.993  1.2610 -1.2857  1.0145
  688MOL0     H92831  11.975  12.030  11.805  0.7889  0.8125 -0.0588
  688MOL0     H92832  12.207  11.998  11.924 -2.0618 -1.2950  2.0647
  688MOL0     H92833  12.242  12.163  11.944  1.7637 -0.1039  1.5394
  688MOL0     H92834  12.267  12.153  12.168  1.1289  0.5744 -3.1977
  688MOL0     H92835  12.169  12.002  12.191 -3.8414  2.6714  0.1048
  688MOL0     H92836  12.433  11.993  12.031  1.7986 -0.2289  1.2242
  688MOL0     H92837  12.326  11.866  12.078 -1.6216  0.0855 -0.3839
  688MOL0     H92838  12.392  11.906  12.314 -2.2828  0.6327 -1.7556
  688MOL0     H92839  12.469  12.062  12.269 -1.4388  0.6190  1.9316
  688MOL0     H92840  12.626  12.189  12.220  1.3113 -0.1581  3.1749
  688MOL0     H92841  12.841  12.272  12.171  1.8333 -0.0692 -0.7874
  688MOL0     H92842  13.335  11.952  11.890  1.8480 -0.7952 -0.3428
  688MOL0     H92843  13.574  12.011  11.883 -0.8518 -2.3983  0.2079
  688MOL0     H92844  13.688  12.385  12.074 -1.1650 -0.2372  2.2797
  688MOL0     H92845  13.737  12.274  12.211  0.4511  1.3694  0.1477
  688MOL0     H92846  13.886  12.364  11.964 -3.2941  3.5777  0.6272
  688MOL0     H92847  13.926  12.412  12.135 -1.6477 -1.7159  1.9557
  688MOL0     H92848  13.967  12.151  12.173 -0.0969 -0.1039 -0.6083
  688MOL0     H92849  13.963  12.149  11.995 -0.3345 -0.6975  0.6561
  688MOL0     H92850  14.153  12.304  12.169 -2.6942  0.5725 -0.2611
  688MOL0     H92851  14.161  12.282  11.991 -1.0898  1.5856 -0.1702
  688MOL0     H92852  14.183  12.048  11.998 -1.1677  1.2710 -0.3358
  688MOL0     H92853  14.162  12.054  12.177  0.6107 -0.4474  0.7093
  688MOL0     H92854  14.379  12.204  12.181  3.0532 -0.5380  0.8715
  688MOL0     H92855  14.404  12.039  12.172  1.8771  1.5760  0.7085
  688MOL0     H92856  14.425  12.219  11.940  1.4499 -0.3314 -2.4567
  688MOL0     H92857  14.430  12.041  11.928 -1.4888  0.6351  1.3354
  688MOL0     H92858  14.663  12.157  11.933  1.0436  1.5462  0.7142
  688MOL0     H92859  14.610  12.226  12.088  0.1188  0.0121 -0.8801
  688MOL0     H92860  13.528  12.257  12.227  1.2655 -0.9451 -0.4803
  688MOL0     H92861  13.294  12.218  12.238 -0.5812  0.6865 -0.9123
  688MOL0     H92862  12.999  11.889  12.072  1.5923  1.7717  0.5878
  688MOL0     H92863  12.781  11.789  12.159  2.0186 -0.4003 -1.8665
  688MOL0     H92864  10.966  11.442  11.607  0.8488 -1.3130  1.2488
  688MOL0     H92865  10.806  11.381  11.418 -0.2677  0.2306  1.6540
  688MOL0     H92866  10.581  10.941  11.274 -0.9654 -0.5873  0.0522
  688MOL0     H92867  10.413  10.851  11.105  1.7662 -1.5896  1.6732
  688MOL0     H92868  10.390  10.899  10.660 -1.5556 -1.2563  1.3030
  688MOL0     H92869  10.394  11.067  10.732 -1.7693 -0.0946 -1.8380
  688MOL0     H92870  10.180  11.050  10.649  0.0066 -0.1084 -0.9387
  688MOL0     H92871  10.172  11.031  10.825 -1.1868  0.3199 -0.4617
  688MOL0     H92872  10.169  10.781  10.802  0.3600 -0.5251 -1.4867
  688MOL0     H92873  10.196  10.794  10.625  0.9032 -0.6577  0.5092
  688MOL0     H92874   9.950  10.931  10.763  0.4047  1.9151 -1.3625
  688MOL0     H92875   9.978  10.901  10.592 -0.5153 -1.1888 -0.4711
  688MOL0     H92876   9.883  10.519  10.669 -0.8579  0.2738  0.5595
  688MOL0     H92877  10.599  11.081  10.808 -0.4449 -0.4089  0.2709
  688MOL0     H92878  10.797  11.276  11.013 -0.8277  0.3706 -0.4999
  688MOL0     H92879  10.902  11.137  10.952  0.6460  0.6638  0.1088
  688MOL0     H92880  10.783  11.220  10.847 -4.1051 -0.7821  0.2475
  689MOL0     O92881   9.179   8.835   6.204 -0.1164  0.1426  0.1773
  689MOL0     C92882   9.133   8.828   6.090 -0.1857 -0.0836  0.0012
  689MOL0     O92883   9.162   8.915   5.989  0.8940  0.1351 -0.3364
  689MOL0     C92884   9.289   8.967   5.973 -0.0627  0.5031 -0.3052
  689MOL0     C92885   9.293   9.065   5.880  0.0905 -0.1225 -0.1412
  689MOL0     C92886   9.422   9.130   5.854  0.5109 -0.1908 -0.2112
  689MOL0     C92887   9.536   9.093   5.914 -0.3378 -0.1104  0.5688
  689MOL0     O92888   9.655   9.139   5.869  0.2339 -0.1240  0.3113
  689MOL0     C92889   9.747   9.067   5.779  0.3283  0.4007  0.3538
  689MOL0     C92890   9.784   8.926   5.823 -0.2688 -0.0846 -0.2846
  689MOL0     C92891   9.866   8.849   5.715  0.3064 -0.9155 -0.6926
  689MOL0     C92892  10.006   8.912   5.691  0.1556 -0.5954 -0.7083
  689MOL0     C92893  10.115   8.824   5.618 -0.4115  0.7319 -0.2481
  689MOL0     C92894  10.236   8.896   5.573 -0.0880 -0.9065 -0.3167
  689MOL0     C92895  10.334   8.803   5.513 -0.1301  0.0362  0.4326
  689MOL0     C92896  10.462   8.870   5.462 -0.6845  0.3528  0.3018
  689MOL0     N92897  10.563   8.765   5.429  0.0730  0.0151 -0.4738
  689MOL0     C92898  10.600   8.714   5.307 -0.5756  0.4175  0.7501
  689MOL0     C92899  10.684   8.609   5.339 -0.4746 -0.5960  0.3911
  689MOL0     C92900  10.743   8.522   5.232 -0.2626  0.3099  0.1111
  689MOL0     C92901  10.806   8.614   5.123 -0.0650  0.4010  0.8862
  689MOL0     C92902  10.867   8.526   5.007 -1.1595  0.0284  0.1143
  689MOL0     C92903  11.006   8.465   5.050 -0.0028 -0.6846 -0.6581
  689MOL0     O92904  11.090   8.419   4.944  0.9605 -0.4229  0.0366
  689MOL0     C92905  11.219   8.380   4.970 -0.1449 -0.2258 -0.4297
  689MOL0     C92906  11.263   8.303   4.862  0.1678  0.3419  0.1303
  689MOL0     C92907  11.391   8.260   4.863  0.4481  0.2469 -0.2696
  689MOL0     C92908  11.474   8.288   4.980 -0.1472 -0.3122  0.9501
  689MOL0     C92909  11.620   8.246   4.975  0.5338  0.4385  0.0119
  689MOL0     O92910  11.700   8.270   5.077  0.2065  0.9709  0.7042
  689MOL0     C92911  11.828   8.220   5.083 -0.3530  0.2901  0.0963
  689MOL0     C92912  11.862   8.157   5.197  0.4984  1.4881 -0.2364
  689MOL0     C92913  11.988   8.096   5.220  0.7389  0.5902 -0.0344
  689MOL0     C92914  12.091   8.115   5.129 -0.2463 -0.3953 -0.8923
  689MOL0     O92915  12.216   8.059   5.166 -0.1756 -0.9221  0.9946
  689MOL0     C92916  12.297   8.159   5.218 -0.6521 -0.0190  0.8132
  689MOL0     C92917  12.431   8.101   5.257 -0.5035  0.0229 -0.1197
  689MOL0     C92918  12.523   8.191   5.335  0.0003  0.2352  0.4207
  689MOL0     C92919  12.580   8.315   5.257  0.7946  0.3780 -1.1678
  689MOL0     C92920  12.656   8.400   5.359 -0.0665  0.8343 -0.3385
  689MOL0     C92921  12.692   8.543   5.323  0.0211  0.2960  0.1484
  689MOL0     C92922  12.743   8.620   5.445  0.3402  0.6936 -0.2563
  689MOL0     C92923  12.882   8.580   5.498  0.1338 -0.3069 -0.7361
  689MOL0    Cl92924  12.953   8.695   5.620  0.3199  0.1193 -0.0725
  689MOL0     C92925  12.068   8.191   5.015  0.0136 -0.5714  0.0274
  689MOL0     C92926  11.930   8.231   4.983 -0.3035 -0.0324  0.6750
  689MOL0     O92927  11.655   8.200   4.863  0.2924  0.1768 -0.3166
  689MOL0     C92928  11.422   8.357   5.092  0.0237 -0.8552  0.3494
  689MOL0     C92929  11.294   8.407   5.088 -0.2261  0.2720 -0.9171
  689MOL0     N92930  10.707   8.614   5.477  0.3136  0.0862  0.4503
  689MOL0     N92931  10.631   8.700   5.521 -0.3444  0.1337  0.4687
  689MOL0     C92932   9.532   8.990   6.007  0.2298  0.6830 -0.4723
  689MOL0     C92933   9.410   8.925   6.032  0.3089  0.1476 -0.7374
  689MOL0     C92934   9.016   8.731   6.065 -1.1320 -1.0224  0.1675
  689MOL0     C92935   8.932   8.757   5.953  0.1149 -0.3967  0.7020
  689MOL0     C92936   8.826   8.662   5.933 -0.0010 -0.1414 -0.0812
  689MOL0     C92937   8.818   8.540   6.004 -0.1557 -0.6005 -0.1693
  689MOL0     O92938   8.725   8.442   5.970  0.3044  0.5477  0.1396
  689MOL0     C92939   8.611   8.481   5.894  0.6623  0.4571  0.3236
  689MOL0     C92940   8.538   8.345   5.876  0.3233 -0.4833 -0.3470
  689MOL0     C92941   8.417   8.358   5.786 -0.6331  0.1476 -0.5922
  689MOL0     C92942   8.345   8.221   5.762 -0.7422  0.1198  0.5596
  689MOL0     C92943   8.248   8.243   5.659  1.1087 -0.4246  0.2527
  689MOL0     C92944   8.173   8.255   5.563  0.6265 -0.2542 -0.2355
  689MOL0     C92945   8.915   8.509   6.090 -0.1994  1.3448 -0.7537
  689MOL0     C92946   9.010   8.602   6.129 -0.4186 -0.0751 -0.0279
  689MOL0     C92947   9.112   8.546   6.219 -0.3824  0.4417 -0.8962
  689MOL0     H92948   9.199   9.103   5.840 -0.0537  0.1341  0.4314
  689MOL0     H92949   9.427   9.223   5.798 -0.2863 -0.8390 -1.4093
  689MOL0     H92950   9.692   9.055   5.685 -3.4276  0.5736  2.3127
  689MOL0     H92951   9.837   9.129   5.772  0.1772  0.4935 -0.9937
  689MOL0     H92952   9.694   8.872   5.854  0.6506 -0.5195  1.8611
  689MOL0     H92953   9.851   8.932   5.909  0.1562  1.9707 -0.7157
  689MOL0     H92954   9.808   8.844   5.622 -1.1208 -0.6454  0.1445
  689MOL0     H92955   9.884   8.746   5.748  3.2287 -0.5900 -1.0505
  689MOL0     H92956   9.987   9.006   5.639 -0.8442 -1.0995 -1.3010
  689MOL0     H92957  10.048   8.933   5.789 -1.4834 -2.0589  0.3835
  689MOL0     H92958  10.144   8.741   5.684  0.7712 -1.1158 -2.9115
  689MOL0     H92959  10.075   8.771   5.531  1.6613 -2.2719  0.4684
  689MOL0     H92960  10.205   8.967   5.497 -1.2511  0.0003  0.9609
  689MOL0     H92961  10.274   8.962   5.652 -1.8941 -0.0317 -0.1507
  689MOL0     H92962  10.290   8.754   5.427  0.1855 -1.6884  1.2070
  689MOL0     H92963  10.374   8.723   5.578  3.4390  2.3749  1.4482
  689MOL0     H92964  10.460   8.938   5.377  1.4968 -0.2603 -0.3248
  689MOL0     H92965  10.496   8.934   5.545  2.3896 -2.5115  1.5042
  689MOL0     H92966  10.565   8.747   5.210  2.5219 -1.7581 -1.2859
  689MOL0     H92967  10.817   8.453   5.275 -0.8555 -0.3306  0.1226
  689MOL0     H92968  10.661   8.468   5.184 -1.5680  2.3202 -0.0220
  689MOL0     H92969  10.721   8.673   5.085 -1.3982 -1.7852  0.3035
  689MOL0     H92970  10.869   8.683   5.180 -2.2536  1.3094  2.4006
  689MOL0     H92971  10.873   8.587   4.917 -1.4090 -0.1103  0.0020
  689MOL0     H92972  10.800   8.441   4.988 -0.3913 -0.3107 -1.2228
  689MOL0     H92973  10.992   8.393   5.132 -0.6961 -0.1709 -0.3112
  689MOL0     H92974  11.058   8.544   5.104 -2.6986 -0.3379  1.6723
  689MOL0     H92975  11.196   8.289   4.778  1.2419  1.4325 -0.9532
  689MOL0     H92976  11.435   8.203   4.781  1.4446  1.1806 -0.4103
  689MOL0     H92977  11.784   8.152   5.273  0.4814  2.2095 -0.2009
  689MOL0     H92978  12.014   8.028   5.301  2.5688  0.2735 -0.8475
  689MOL0     H92979  12.309   8.226   5.132 -3.1013  0.2790  0.6290
  689MOL0     H92980  12.259   8.207   5.309 -0.4102  0.1401  0.8319
  689MOL0     H92981  12.418   8.017   5.326  1.2135  0.4670  0.8056
  689MOL0     H92982  12.479   8.057   5.169 -0.3868  1.2392 -0.6980
  689MOL0     H92983  12.471   8.219   5.427  0.0745  0.5153  0.3760
  689MOL0     H92984  12.607   8.125   5.359 -0.5129 -1.7462 -2.6375
  689MOL0     H92985  12.501   8.376   5.212  1.1549  0.3265 -1.8825
  689MOL0     H92986  12.653   8.288   5.180 -1.3205 -0.4207 -3.0174
  689MOL0     H92987  12.752   8.354   5.381 -0.3915  0.1568 -0.2752
  689MOL0     H92988  12.592   8.400   5.448  2.4129 -0.8906  1.5783
  689MOL0     H92989  12.753   8.542   5.232 -1.1527 -1.1508 -0.6562
  689MOL0     H92990  12.600   8.593   5.291 -0.4702 -0.3424  0.5369
  689MOL0     H92991  12.674   8.617   5.530 -1.0896  0.6228 -1.3883
  689MOL0     H92992  12.751   8.725   5.414 -1.5983  1.3736  1.3390
  689MOL0     H92993  12.893   8.477   5.534 -0.0503 -0.3840 -0.9027
  689MOL0     H92994  12.949   8.589   5.412  0.5832 -1.9439 -0.5965
  689MOL0     H92995  12.144   8.217   4.942 -1.5637 -1.1103 -1.8819
  689MOL0     H92996  11.921   8.271   4.883  0.1571 -2.4101 -0.3682
  689MOL0     H92997  11.495   8.377   5.170  2.0580  0.3967 -1.7477
  689MOL0     H92998  11.255   8.462   5.173  2.0941  3.6607 -1.8309
  689MOL0     H92999   9.621   8.949   6.052 -1.4351 -0.2852  2.1741
  689MOL0     H93000   9.404   8.844   6.103  2.4498  1.3237  0.9316
  689MOL0     H93001   8.960   8.818   5.867 -0.0332 -5.2253 -3.2568
  689MOL0     H93002   8.757   8.677   5.850 -0.4809 -0.4527  0.2546
  689MOL0     H93003   8.634   8.516   5.793 -2.6173 -0.2123 -0.8085
  689MOL0     H93004   8.541   8.549   5.943 -0.6521 -1.1381  0.7937
  689MOL0     H93005   8.508   8.311   5.976  2.3009 -0.4521  0.2971
  689MOL0     H93006   8.604   8.264   5.845 -0.8157 -1.6483  0.1655
  689MOL0     H93007   8.440   8.402   5.689 -2.7392  2.1819 -0.2436
  689MOL0     H93008   8.351   8.425   5.842  1.2357  1.5738  0.0040
  689MOL0     H93009   8.417   8.143   5.737 -0.4986  0.8462 -1.1132
  689MOL0     H93010   8.292   8.191   5.853  1.4767 -0.6684  1.6680
  689MOL0     H93011   8.109   8.262   5.478  2.3350  3.5063 -1.4372
  689MOL0     H93012   8.910   8.409   6.132  0.5617  0.1306 -3.3485
  689MOL0     H93013   9.208   8.572   6.172 -0.4075  0.6494 -0.8367
  689MOL0     H93014   9.107   8.585   6.321  0.8376 -0.1683 -0.5810
  689MOL0     H93015   9.114   8.437   6.223  2.6606  0.3880 -1.4196
  690MOL0     O93016   5.201   6.398   5.739 -0.8038  0.0336  0.3374
  690MOL0     C93017   5.218   6.440   5.853  0.1689 -0.1522  0.0606
  690MOL0     O93018   5.329   6.430   5.934  0.9714 -0.9161  0.0933
  690MOL0     C93019   5.451   6.378   5.884  1.0433 -1.5477 -0.2270
  690MOL0     C93020   5.450   6.249   5.835 -0.1469  0.6831 -0.4399
  690MOL0     C93021   5.570   6.179   5.798 -0.3054 -0.8319 -0.2053
  690MOL0     C93022   5.696   6.245   5.823  0.1840  0.2217 -0.5551
  690MOL0     O93023   5.815   6.178   5.794  0.4051  0.6113 -0.4047
  690MOL0     C93024   5.931   6.211   5.862  0.1794  0.3117  0.8768
  690MOL0     C93025   6.037   6.105   5.843  0.0814 -0.2500  0.4513
  690MOL0     C93026   6.155   6.163   5.917 -0.4039 -0.1984  0.2858
  690MOL0     C93027   6.281   6.075   5.886 -0.0334  0.1332 -0.4698
  690MOL0     C93028   6.414   6.124   5.952  0.3377  0.6219 -0.1331
  690MOL0     C93029   6.474   6.236   5.875 -0.2840 -0.5403 -0.4317
  690MOL0     C93030   6.554   6.325   5.961 -0.3192 -0.3807  0.8414
  690MOL0     C93031   6.615   6.432   5.874 -0.4141 -0.3806  0.1424
  690MOL0     N93032   6.726   6.499   5.940 -0.2218  0.7094  0.4647
  690MOL0     C93033   6.857   6.460   5.949 -1.1230  0.3846  0.2449
  690MOL0     C93034   6.914   6.575   5.996  0.2198 -0.4216  0.3832
  690MOL0     C93035   7.065   6.590   6.026 -0.2626 -0.3888  0.6101
  690MOL0     C93036   7.091   6.737   6.074 -0.1772  0.6473  0.2669
  690MOL0     C93037   7.239   6.736   6.122  1.2086 -0.0442 -0.6318
  690MOL0     C93038   7.276   6.868   6.190 -0.6665  0.2419  0.8224
  690MOL0     O93039   7.393   6.864   6.260 -0.1720 -1.2277 -0.2643
  690MOL0     C93040   7.521   6.868   6.209 -0.2790  0.3802 -0.9218
  690MOL0     C93041   7.633   6.847   6.285  0.9099  0.0113 -0.4235
  690MOL0     C93042   7.759   6.836   6.231  0.3087  0.1911 -0.4543
  690MOL0     C93043   7.782   6.868   6.097  0.6878  0.6534 -0.5396
  690MOL0     C93044   7.919   6.851   6.046  0.0712 -0.8202 -0.0520
  690MOL0     O93045   8.016   6.814   6.142 -0.5801 -0.5945 -0.6491
  690MOL0     C93046   8.153   6.806   6.126  0.5460  0.3657  0.7183
  690MOL0     C93047   8.221   6.813   6.002  0.5659  0.2260  0.3858
  690MOL0     C93048   8.361   6.778   5.989  0.7233 -0.6162  0.1374
  690MOL0     C93049   8.432   6.758   6.105 -0.0155 -0.1714 -0.8989
  690MOL0     O93050   8.561   6.721   6.089 -0.0729 -0.0481  0.2525
  690MOL0     C93051   8.634   6.625   6.172 -0.5558  0.5436 -0.0736
  690MOL0     C93052   8.778   6.689   6.203  0.2014  0.5648 -0.2064
  690MOL0     C93053   8.861   6.595   6.284  0.5987  0.1374 -0.3200
  690MOL0     C93054   9.009   6.650   6.306  0.0479  0.2956  0.2603
  690MOL0     C93055   9.089   6.574   6.408 -0.0035  0.2894 -0.2139
  690MOL0     C93056   9.209   6.656   6.474  0.6614 -0.2998  1.0154
  690MOL0     C93057   9.334   6.584   6.500 -0.5280  0.1903 -0.5873
  690MOL0     C93058   9.443   6.679   6.541  0.8831 -0.4460  0.3535
  690MOL0    Cl93059   9.588   6.566   6.585 -0.1832  0.1651 -0.3145
  690MOL0     C93060   8.370   6.772   6.232 -0.1539  1.1536 -0.5820
  690MOL0     C93061   8.233   6.794   6.244  0.7552  0.0715 -0.5341
  690MOL0     O93062   7.940   6.877   5.929 -0.7978  0.0719 -0.2952
  690MOL0     C93063   7.667   6.891   6.011 -0.7670  0.2527  0.4956
  690MOL0     C93064   7.541   6.894   6.069 -0.7424  0.0700  0.5565
  690MOL0     N93065   6.817   6.672   6.020 -0.2977  0.3393  0.5358
  690MOL0     N93066   6.700   6.626   5.989  0.4679 -0.1235  0.4381
  690MOL0     C93067   5.698   6.380   5.862 -1.1007 -0.0899  0.3824
  690MOL0     C93068   5.574   6.444   5.887  0.3415 -0.0498  0.7424
  690MOL0     C93069   5.099   6.505   5.908 -0.6296 -0.3883  0.3501
  690MOL0     C93070   5.115   6.570   6.035 -0.2836  0.9060 -0.7012
  690MOL0     C93071   5.007   6.607   6.114 -0.3825  1.0414 -0.0668
  690MOL0     C93072   4.883   6.628   6.054  0.2736  0.3520 -0.6546
  690MOL0     O93073   4.778   6.680   6.111 -0.8095 -0.5095  0.7048
  690MOL0     C93074   4.803   6.791   6.196 -0.1171  0.0371  0.8285
  690MOL0     C93075   4.677   6.881   6.188  0.1703 -0.3992 -0.3876
  690MOL0     C93076   4.556   6.811   6.238  0.0609  0.1575  0.1451
  690MOL0     C93077   4.448   6.912   6.244  0.1058 -0.5858 -0.2529
  690MOL0     C93078   4.322   6.862   6.303  0.0150  0.2182 -0.0043
  690MOL0     C93079   4.222   6.845   6.369  0.7220 -0.6989  0.1322
  690MOL0     C93080   4.866   6.591   5.920  1.0551  1.2572 -0.1717
  690MOL0     C93081   4.970   6.521   5.857 -0.3448 -0.6742  0.4400
  690MOL0     C93082   4.936   6.461   5.719  0.1731  0.6547  1.2156
  690MOL0     H93083   5.353   6.202   5.819 -0.3696  1.1126 -0.3743
  690MOL0     H93084   5.574   6.076   5.764 -0.6717 -0.2919 -1.9916
  690MOL0     H93085   5.966   6.309   5.829  1.5427 -0.2430  0.6348
  690MOL0     H93086   5.898   6.216   5.966 -3.5522 -2.0023  0.0165
  690MOL0     H93087   6.059   6.078   5.740 -0.3713 -0.2596  0.3560
  690MOL0     H93088   6.006   6.015   5.897  0.1365 -0.3398  0.3335
  690MOL0     H93089   6.136   6.155   6.025 -2.3488 -0.5506 -0.0411
  690MOL0     H93090   6.166   6.270   5.899 -0.1192  0.1410  2.2381
  690MOL0     H93091   6.269   5.970   5.915  0.3947 -0.0089 -0.8090
  690MOL0     H93092   6.288   6.072   5.777 -1.1419  0.9865 -0.5788
  690MOL0     H93093   6.395   6.160   6.054 -0.8986 -0.2313 -0.0501
  690MOL0     H93094   6.483   6.041   5.971  0.9189  1.6781  2.9298
  690MOL0     H93095   6.541   6.184   5.806  1.2221  1.5211 -0.6281
  690MOL0     H93096   6.392   6.286   5.821 -0.1128  1.9884  1.4838
  690MOL0     H93097   6.625   6.261   6.014 -0.8762 -2.3505 -0.6640
  690MOL0     H93098   6.493   6.378   6.035 -1.6251  2.4041 -1.9901
  690MOL0     H93099   6.649   6.389   5.779  0.9149  3.3489 -1.2473
  690MOL0     H93100   6.543   6.505   5.836 -0.6741 -1.0277 -0.6330
  690MOL0     H93101   6.897   6.362   5.922  0.3596  0.8358  0.7134
  690MOL0     H93102   7.095   6.512   6.097 -2.6003 -2.5710 -0.6460
  690MOL0     H93103   7.117   6.565   5.933 -1.7189 -1.2661  0.0046
  690MOL0     H93104   7.081   6.801   5.986  3.0022  1.1878  0.1852
  690MOL0     H93105   7.022   6.761   6.156  0.5735 -2.7220  2.0588
  690MOL0     H93106   7.307   6.719   6.038  2.3579 -0.7685  0.4059
  690MOL0     H93107   7.254   6.668   6.206  6.9559  2.5569  0.9437
  690MOL0     H93108   7.191   6.885   6.257 -2.1695 -1.2481 -0.5891
  690MOL0     H93109   7.273   6.949   6.115  0.0972 -0.2330  0.2648
  690MOL0     H93110   7.634   6.824   6.391  4.7661 -1.8430 -0.6872
  690MOL0     H93111   7.847   6.824   6.293 -0.7836  1.5743  1.5097
  690MOL0     H93112   8.167   6.834   5.910 -0.7933  0.9694  1.3319
  690MOL0     H93113   8.416   6.772   5.896  3.0458  0.0975  1.3707
  690MOL0     H93114   8.577   6.608   6.263  0.0084  0.4867  0.2743
  690MOL0     H93115   8.639   6.529   6.119  0.7273 -0.8218  2.3493
  690MOL0     H93116   8.830   6.705   6.108  1.3660  0.5289  0.4029
  690MOL0     H93117   8.772   6.787   6.250 -0.3303  0.7024 -0.5563
  690MOL0     H93118   8.804   6.582   6.376  2.4458 -2.8130  0.5627
  690MOL0     H93119   8.863   6.504   6.222 -0.8723  0.2830 -0.6250
  690MOL0     H93120   8.998   6.756   6.334  3.1831  1.0207 -0.8500
  690MOL0     H93121   9.068   6.641   6.215 -0.7794 -0.2197 -0.2403
  690MOL0     H93122   9.137   6.487   6.362 -0.3288 -1.4619  2.5428
  690MOL0     H93123   9.033   6.533   6.492  3.9797 -2.7334  1.2859
  690MOL0     H93124   9.246   6.719   6.392 -0.9291 -1.8544 -1.0180
  690MOL0     H93125   9.177   6.727   6.550 -2.1879  1.9841 -2.0063
  690MOL0     H93126   9.373   6.515   6.425 -0.3132 -1.8449  1.2789
  690MOL0     H93127   9.323   6.517   6.586  1.8595  1.7552  1.0572
  690MOL0     H93128   9.479   6.741   6.459  0.5142  0.3689  0.7976
  690MOL0     H93129   9.414   6.736   6.630 -0.5506 -1.6662  0.7018
  690MOL0     H93130   8.427   6.759   6.324 -0.6792 -1.6458 -0.5648
  690MOL0     H93131   8.182   6.804   6.340  2.2390  3.0230  0.0509
  690MOL0     H93132   7.680   6.918   5.906 -1.8235 -0.5017  0.1592
  690MOL0     H93133   7.454   6.912   6.007 -0.8838 -3.3957 -0.4502
  690MOL0     H93134   5.789   6.438   5.873  1.2949 -2.8702 -2.8151
  690MOL0     H93135   5.564   6.551   5.901  2.1649  0.1369  0.8996
  690MOL0     H93136   5.214   6.555   6.078 -1.3146 -1.7264  1.0210
  690MOL0     H93137   5.032   6.659   6.206 -0.9377  3.3901 -1.1469
  690MOL0     H93138   4.896   6.844   6.175  1.0860 -2.4304 -0.5102
  690MOL0     H93139   4.810   6.758   6.300 -1.2191 -0.6170  0.7144
  690MOL0     H93140   4.658   6.922   6.089 -2.7367  0.9914  0.6326
  690MOL0     H93141   4.696   6.962   6.259 -0.9876  0.0052 -0.5208
  690MOL0     H93142   4.576   6.775   6.339  1.4033  1.8984  0.5588
  690MOL0     H93143   4.533   6.725   6.175  0.9284 -2.0274  2.6160
  690MOL0     H93144   4.487   6.998   6.299  0.9204 -0.3430 -1.1832
  690MOL0     H93145   4.426   6.961   6.148  0.2075 -1.5784 -0.7915
  690MOL0     H93146   4.131   6.833   6.425 -0.9332  0.6034 -2.1140
  690MOL0     H93147   4.775   6.598   5.861  1.8150 -1.3483 -1.8179
  690MOL0     H93148   4.961   6.355   5.714 -0.2576  0.5849 -2.3055
  690MOL0     H93149   4.830   6.469   5.695 -0.3038 -1.4009  2.4439
  690MOL0     H93150   4.997   6.509   5.641 -1.7682  1.0323 -0.1467
  691MOL0     O93151   1.249   3.453   6.254 -0.5125  1.0164  0.1949
  691MOL0     C93152   1.220   3.455   6.138  0.1448  0.6261  0.2869
  691MOL0     O93153   1.270   3.538   6.041 -0.1199  0.8327  0.4029
  691MOL0     C93154   1.367   3.640   6.066  0.4580  0.3193 -1.4857
  691MOL0     C93155   1.393   3.697   6.197  0.4853  0.5607 -0.1697
  691MOL0     C93156   1.508   3.766   6.217 -0.2287 -0.3733  0.3756
  691MOL0     C93157   1.597   3.803   6.108  0.0026 -1.2442  0.1877
  691MOL0     O93158   1.712   3.870   6.142 -0.3419 -0.0630  0.6892
  691MOL0     C93159   1.808   3.912   6.048  0.0913 -0.5024  0.2452
  691MOL0     C93160   1.927   3.965   6.134  0.7153 -0.4839 -0.2599
  691MOL0     C93161   2.035   4.023   6.050  0.2330  0.7841 -0.7515
  691MOL0     C93162   2.152   4.076   6.124 -0.9664  0.3417  0.1331
  691MOL0     C93163   2.265   4.126   6.025 -0.3583 -0.4844  0.2102
  691MOL0     C93164   2.402   4.095   6.087  0.0838  0.1553  0.4969
  691MOL0     C93165   2.508   4.100   5.980  0.9755 -0.2177 -0.4863
  691MOL0     C93166   2.637   4.048   6.026  0.6220 -0.5196 -0.2408
  691MOL0     N93167   2.675   4.112   6.157 -0.1837  0.1769 -0.3127
  691MOL0     C93168   2.658   4.065   6.287  0.0613  1.1622  0.2505
  691MOL0     C93169   2.703   4.163   6.364  0.5013 -0.8876  0.2710
  691MOL0     C93170   2.682   4.165   6.515  0.6148  0.6265 -0.3567
  691MOL0     C93171   2.541   4.162   6.578 -0.0989 -0.4082  0.1535
  691MOL0     C93172   2.447   4.287   6.561 -0.3045 -0.1581  0.0144
  691MOL0     C93173   2.377   4.321   6.427 -0.2526  0.4273 -1.0626
  691MOL0     O93174   2.316   4.446   6.427 -0.2892  0.1707 -0.0796
  691MOL0     C93175   2.405   4.555   6.445 -0.2736 -0.0089 -0.8235
  691MOL0     C93176   2.541   4.568   6.406 -0.8243  1.1807 -0.1253
  691MOL0     C93177   2.618   4.682   6.425  0.0870  0.8698  1.3004
  691MOL0     C93178   2.561   4.795   6.495 -0.8243  0.5646  0.2531
  691MOL0     C93179   2.637   4.925   6.519 -0.1093  0.4646 -0.3666
  691MOL0     O93180   2.558   5.039   6.538  0.3365 -0.0641  0.3631
  691MOL0     C93181   2.607   5.167   6.548 -0.1415  0.1670 -0.5649
  691MOL0     C93182   2.530   5.271   6.504 -0.0408  0.0147  0.1641
  691MOL0     C93183   2.578   5.400   6.520  0.6091 -0.1607  0.2754
  691MOL0     C93184   2.698   5.430   6.586 -0.0806 -1.2361  0.0695
  691MOL0     O93185   2.739   5.561   6.592 -0.6372  0.8406 -0.2361
  691MOL0     C93186   2.871   5.603   6.577  0.4831  1.0706  1.2525
  691MOL0     C93187   2.960   5.547   6.468  1.0028 -0.2708 -0.2388
  691MOL0     C93188   3.099   5.626   6.469 -0.5509 -0.0135  0.4153
  691MOL0     C93189   3.190   5.586   6.347  0.1959 -0.4483  0.1021
  691MOL0     C93190   3.298   5.682   6.342  0.3173 -0.0024 -0.4753
  691MOL0     C93191   3.380   5.673   6.213  0.6125 -0.0885  0.3357
  691MOL0     C93192   3.517   5.749   6.242  0.9086 -0.0906  0.0731
  691MOL0     C93193   3.588   5.749   6.108  0.7031  0.0087 -0.5174
  691MOL0    Cl93194   3.737   5.845   6.130  0.5069 -0.1153  0.1689
  691MOL0     C93195   2.764   5.331   6.649 -0.6159  1.1005  0.2997
  691MOL0     C93196   2.722   5.197   6.626 -0.7297  0.8319  0.1974
  691MOL0     O93197   2.755   4.918   6.499 -0.5781  0.4689  0.1116
  691MOL0     C93198   2.430   4.777   6.553 -0.6110  1.0254  0.1024
  691MOL0     C93199   2.365   4.660   6.531 -0.2081 -0.9062  1.1146
  691MOL0     N93200   2.759   4.264   6.295  0.5058  0.2303  0.0662
  691MOL0     N93201   2.743   4.228   6.168 -0.4712 -0.0971 -0.1563
  691MOL0     C93202   1.565   3.759   5.977  0.5720 -0.3418  0.6077
  691MOL0     C93203   1.447   3.686   5.965  0.7614 -1.1011  0.6717
  691MOL0     C93204   1.135   3.347   6.083  1.5257  0.4531  0.0159
  691MOL0     C93205   1.171   3.217   6.112 -0.5341  0.2077  0.1525
  691MOL0     C93206   1.112   3.111   6.034  1.0081 -0.7952  0.1264
  691MOL0     C93207   1.012   3.134   5.941  0.1533 -0.2057 -0.4073
  691MOL0     O93208   0.976   3.021   5.871 -0.0965 -0.3132  0.4331
  691MOL0     C93209   0.885   3.038   5.766 -0.9113  0.2240  0.0133
  691MOL0     C93210   0.858   2.910   5.682 -0.1557  0.0290  0.4211
  691MOL0     C93211   0.724   2.839   5.716 -0.5658  0.5232  0.0317
  691MOL0     C93212   0.700   2.748   5.594  0.1252 -0.0790 -0.1608
  691MOL0     C93213   0.811   2.657   5.571 -0.3200 -0.3432 -0.0267
  691MOL0     C93214   0.909   2.588   5.554  0.4001  0.3678 -0.5460
  691MOL0     C93215   0.967   3.271   5.921  0.1021 -0.5970  0.2984
  691MOL0     C93216   1.027   3.371   5.997 -0.6494  0.3102 -0.5719
  691MOL0     C93217   0.975   3.511   5.960 -0.4251 -0.0143  0.8656
  691MOL0     H93218   1.333   3.678   6.285  0.4334  4.8419  0.9245
  691MOL0     H93219   1.546   3.791   6.316  1.8744 -0.9483 -0.2299
  691MOL0     H93220   1.847   3.828   5.989 -4.0721 -3.5217  1.3521
  691MOL0     H93221   1.767   3.978   5.971 -0.2230 -2.7492 -1.6221
  691MOL0     H93222   1.970   3.876   6.182 -2.2506 -0.5366  2.6974
  691MOL0     H93223   1.902   4.028   6.220 -2.4068  1.1949 -2.2312
  691MOL0     H93224   2.008   4.101   5.978 -1.1269  1.1646  0.1392
  691MOL0     H93225   2.068   3.941   5.985  0.6098 -1.5267  2.1294
  691MOL0     H93226   2.128   4.153   6.198  0.8486 -1.2265  2.5110
  691MOL0     H93227   2.189   3.990   6.181  0.9552  0.2960 -1.0954
  691MOL0     H93228   2.265   4.067   5.933 -1.1622 -0.3666  0.1319
  691MOL0     H93229   2.260   4.230   5.993  5.0501 -0.4711 -1.7044
  691MOL0     H93230   2.417   4.167   6.168 -3.5502  1.9749 -0.2327
  691MOL0     H93231   2.408   3.995   6.130  1.5876  1.0587  2.5690
  691MOL0     H93232   2.523   4.203   5.945 -2.0970  1.1837  1.8371
  691MOL0     H93233   2.477   4.036   5.897 -0.6339 -1.9608  1.3737
  691MOL0     H93234   2.640   3.942   6.051  1.2558 -0.3565  0.4010
  691MOL0     H93235   2.708   4.072   5.946  1.6253  1.0015  1.0515
  691MOL0     H93236   2.607   3.979   6.330  0.9503  0.3402 -0.2964
  691MOL0     H93237   2.734   4.078   6.558  0.5374  0.8330  0.1535
  691MOL0     H93238   2.725   4.257   6.555 -2.8874  1.3858  2.0930
  691MOL0     H93239   2.502   4.069   6.536  0.1563 -1.3475  1.9123
  691MOL0     H93240   2.537   4.132   6.683  1.4414 -0.7121  0.1532
  691MOL0     H93241   2.504   4.371   6.603 -2.4138  1.7273 -0.6782
  691MOL0     H93242   2.379   4.277   6.646  2.4282  0.2732  2.4061
  691MOL0     H93243   2.298   4.245   6.414 -0.3778  0.5995 -1.3216
  691MOL0     H93244   2.452   4.309   6.348  3.1318  4.5511  1.1687
  691MOL0     H93245   2.580   4.489   6.343 -1.5901  0.6336  0.0808
  691MOL0     H93246   2.722   4.685   6.394 -0.4012  4.2246 -0.4503
  691MOL0     H93247   2.439   5.254   6.447  0.7354  0.6561 -1.3177
  691MOL0     H93248   2.529   5.484   6.473  3.8877  3.0926  2.1413
  691MOL0     H93249   2.867   5.708   6.549  1.0828  0.4457 -1.4417
  691MOL0     H93250   2.937   5.582   6.662  0.4658 -0.1902  0.9843
  691MOL0     H93251   2.977   5.440   6.480  3.0398  0.0641  0.3582
  691MOL0     H93252   2.906   5.566   6.375 -0.4425  0.4527  0.7159
  691MOL0     H93253   3.063   5.728   6.452 -0.7431  0.5813  3.7311
  691MOL0     H93254   3.154   5.630   6.564 -0.3665  2.1540  0.2561
  691MOL0     H93255   3.140   5.593   6.250  0.0657  1.7993  0.2601
  691MOL0     H93256   3.227   5.484   6.353 -0.0078 -0.4290  3.2513
  691MOL0     H93257   3.363   5.670   6.429  0.5345  0.6592 -0.5355
  691MOL0     H93258   3.252   5.780   6.353 -0.4542 -0.3441 -0.6322
  691MOL0     H93259   3.397   5.567   6.194  2.8725  0.0476  1.3185
  691MOL0     H93260   3.319   5.724   6.138 -0.4695 -0.8609  0.6668
  691MOL0     H93261   3.566   5.694   6.322 -3.0727  0.5799  3.2805
  691MOL0     H93262   3.501   5.854   6.268  2.2058  0.1911 -0.1990
  691MOL0     H93263   3.607   5.646   6.078 -2.6133 -0.7075 -0.6069
  691MOL0     H93264   3.521   5.795   6.035 -0.3169 -0.0568  0.3384
  691MOL0     H93265   2.858   5.345   6.702 -0.6317 -1.5445  1.2073
  691MOL0     H93266   2.782   5.114   6.661  0.5621  0.2213 -3.0395
  691MOL0     H93267   2.388   4.864   6.603 -2.9813  1.7574 -2.8313
  691MOL0     H93268   2.265   4.645   6.571 -0.2865 -1.2773  0.7895
  691MOL0     H93269   1.635   3.770   5.894 -0.9675  1.9832 -0.4924
  691MOL0     H93270   1.433   3.649   5.864 -0.2633  0.7713  0.0807
  691MOL0     H93271   1.257   3.200   6.176  0.1015  0.1685 -0.6941
  691MOL0     H93272   1.144   3.009   6.056 -0.1543 -1.4723 -1.1974
  691MOL0     H93273   0.913   3.113   5.692 -4.8905  0.1570 -1.8302
  691MOL0     H93274   0.791   3.074   5.810 -1.8584 -1.2090 -0.7773
  691MOL0     H93275   0.938   2.841   5.712  1.4055  1.0780 -1.1546
  691MOL0     H93276   0.866   2.936   5.576  1.8039 -0.8364  0.3021
  691MOL0     H93277   0.640   2.905   5.739 -0.3294 -0.2633  3.8412
  691MOL0     H93278   0.742   2.779   5.806 -0.2806  0.0062 -0.3693
  691MOL0     H93279   0.613   2.688   5.622  0.6447 -2.4702 -3.1287
  691MOL0     H93280   0.680   2.812   5.507  1.6257 -0.9805 -1.2108
  691MOL0     H93281   1.005   2.543   5.544  0.5163  0.0689  1.5136
  691MOL0     H93282   0.900   3.301   5.841  2.5917  3.0643 -0.7000
  691MOL0     H93283   0.976   3.572   6.051  0.0448  2.7670 -0.8782
  691MOL0     H93284   1.036   3.544   5.875 -1.0237  2.9269  1.4894
  691MOL0     H93285   0.870   3.508   5.930 -0.5678 -0.6262  1.4127
  692MOL0     O93286   4.176   8.511   7.276  0.4038  0.4270  0.0584
  692MOL0     C93287   4.112   8.503   7.171  0.5590 -0.1570 -0.0011
  692MOL0     O93288   4.166   8.527   7.049  0.4074  0.8392  0.4487
  692MOL0     C93289   4.300   8.562   7.047 -0.0233 -0.5711 -0.5729
  692MOL0     C93290   4.398   8.475   6.999 -0.3262 -0.2880  0.1210
  692MOL0     C93291   4.537   8.509   7.007  0.2435 -0.1500  0.5384
  692MOL0     C93292   4.569   8.637   7.045  0.3508 -1.2629 -0.6367
  692MOL0     O93293   4.690   8.696   7.051 -0.2668  0.8700 -0.6064
  692MOL0     C93294   4.779   8.646   6.945  0.2866  0.2078 -0.4921
  692MOL0     C93295   4.874   8.760   6.914  0.3334  0.1734 -0.0060
  692MOL0     C93296   4.942   8.767   6.775  0.0940  1.1114  0.7403
  692MOL0     C93297   5.043   8.656   6.756 -0.7452  0.8831  0.5763
  692MOL0     C93298   5.077   8.631   6.609  0.1022 -0.4921  0.1057
  692MOL0     C93299   5.168   8.508   6.593 -0.4770 -0.6780 -0.0285
  692MOL0     C93300   5.311   8.513   6.665  0.6012  0.9535  0.4534
  692MOL0     C93301   5.382   8.639   6.643  0.1048  0.2865 -0.5140
  692MOL0     N93302   5.526   8.636   6.675  0.1405 -0.4012  0.9690
  692MOL0     C93303   5.583   8.708   6.776 -0.0143  0.6061  0.5113
  692MOL0     C93304   5.718   8.711   6.736  0.0432 -0.9077 -0.2129
  692MOL0     C93305   5.831   8.779   6.813 -0.1613  0.8598  0.0491
  692MOL0     C93306   5.790   8.900   6.887 -0.4607  0.2318  0.8649
  692MOL0     C93307   5.883   8.959   6.996  0.3660  0.5487  0.0172
  692MOL0     C93308   6.004   9.013   6.924 -0.5742 -0.0053 -0.1311
  692MOL0     O93309   5.985   9.115   6.817  0.3318 -0.3937 -0.5648
  692MOL0     C93310   6.102   9.139   6.754 -0.3422  0.5937  0.0252
  692MOL0     C93311   6.229   9.087   6.790 -0.3983  0.4568 -0.2933
  692MOL0     C93312   6.334   9.101   6.697  0.2435 -0.0304  0.3861
  692MOL0     C93313   6.318   9.177   6.582  0.1280  0.0607 -0.2530
  692MOL0     C93314   6.442   9.202   6.503  0.2065 -0.4663 -0.9427
  692MOL0     O93315   6.555   9.235   6.566 -0.6156  0.7067  0.2080
  692MOL0     C93316   6.678   9.207   6.505  0.3841 -0.8904  0.4802
  692MOL0     C93317   6.780   9.296   6.529  0.2354  0.1696  0.2924
  692MOL0     C93318   6.913   9.271   6.478 -1.2036 -0.1289  0.4083
  692MOL0     C93319   6.941   9.159   6.406  0.6919  0.0025  0.4815
  692MOL0     O93320   7.066   9.139   6.350  0.1672 -0.2097 -0.3562
  692MOL0     C93321   7.063   9.124   6.206 -0.8762  0.6214 -0.1976
  692MOL0     C93322   7.205   9.142   6.152  0.2850 -1.2416  0.7909
  692MOL0     C93323   7.268   9.282   6.181 -0.4401  0.1788  0.0880
  692MOL0     C93324   7.416   9.261   6.168 -0.9364 -0.5841  0.1708
  692MOL0     C93325   7.498   9.379   6.111 -0.6633 -0.6493  0.3530
  692MOL0     C93326   7.651   9.365   6.126 -0.5400  0.2191 -0.3185
  692MOL0     C93327   7.714   9.489   6.070  0.0216  0.6551 -1.0662
  692MOL0     C93328   7.792   9.463   5.947 -0.5775  0.0680 -0.2404
  692MOL0    Cl93329   7.902   9.317   5.950  0.1747 -0.1961  0.1946
  692MOL0     C93330   6.834   9.077   6.375 -0.8338  0.8165 -0.1736
  692MOL0     C93331   6.709   9.092   6.434 -0.5092 -0.9377  1.4795
  692MOL0     O93332   6.424   9.201   6.385  0.4996 -0.4557  0.1220
  692MOL0     C93333   6.204   9.244   6.555 -0.0106  0.9121  0.5700
  692MOL0     C93334   6.097   9.222   6.635  0.8769  1.1675 -0.4491
  692MOL0     N93335   5.730   8.655   6.611  0.3935 -0.3547  0.2845
  692MOL0     N93336   5.619   8.597   6.581 -0.3948 -0.4109  0.1983
  692MOL0     C93337   4.472   8.728   7.097 -0.5593 -0.2072 -0.1366
  692MOL0     C93338   4.336   8.693   7.100  0.3158  0.4978  0.4551
  692MOL0     C93339   3.960   8.477   7.173 -0.3182 -0.2527 -0.2023
  692MOL0     C93340   3.884   8.536   7.077  0.1834  0.3400  0.1119
  692MOL0     C93341   3.747   8.539   7.077  0.4221  0.5186 -0.7585
  692MOL0     C93342   3.680   8.451   7.174 -0.5383 -0.5831  0.3746
  692MOL0     O93343   3.538   8.440   7.161 -0.0519  0.1725 -0.0812
  692MOL0     C93344   3.465   8.348   7.243  0.5481 -0.8576  0.3645
  692MOL0     C93345   3.497   8.198   7.211  0.0575  0.4654  0.4496
  692MOL0     C93346   3.406   8.123   7.103 -0.9545  0.4802  0.0062
  692MOL0     C93347   3.269   8.085   7.162 -0.2980 -0.0304  0.2959
  692MOL0     C93348   3.191   7.991   7.079 -0.3347  0.5443 -0.2424
  692MOL0     C93349   3.122   7.910   7.031  0.8952 -0.1131 -0.1701
  692MOL0     C93350   3.759   8.370   7.258 -0.7622  0.3055  0.8763
  692MOL0     C93351   3.903   8.388   7.264  1.0414 -0.5098 -0.0455
  692MOL0     C93352   3.981   8.298   7.358  0.3989  0.9750  0.0953
  692MOL0     H93353   4.372   8.377   6.959  0.8012 -1.0701  1.2092
  692MOL0     H93354   4.608   8.440   6.961 -1.4345 -1.5873 -0.0016
  692MOL0     H93355   4.850   8.571   6.980  0.1576  0.4155  0.2329
  692MOL0     H93356   4.727   8.611   6.856  0.0589 -1.8857  0.4037
  692MOL0     H93357   4.962   8.771   6.978  2.4788 -1.0384 -2.5438
  692MOL0     H93358   4.808   8.847   6.927 -1.5451 -1.3578  1.3251
  692MOL0     H93359   4.990   8.865   6.774 -1.4107  1.9063 -1.0071
  692MOL0     H93360   4.856   8.762   6.707 -0.9420  1.0438  2.0169
  692MOL0     H93361   5.136   8.678   6.811  2.2939 -0.7905 -3.3902
  692MOL0     H93362   5.001   8.566   6.803 -2.7128  0.6886 -1.3946
  692MOL0     H93363   4.988   8.625   6.545  0.7851  0.3151 -0.9556
  692MOL0     H93364   5.128   8.720   6.571 -1.6432  1.1394  1.3931
  692MOL0     H93365   5.114   8.416   6.618  0.9462 -1.3833  0.5500
  692MOL0     H93366   5.192   8.499   6.486  1.2555  0.1302  0.2641
  692MOL0     H93367   5.373   8.429   6.630 -1.8576 -0.4101 -0.9442
  692MOL0     H93368   5.308   8.510   6.774  3.5360  0.6654  0.6093
  692MOL0     H93369   5.387   8.661   6.536  1.9930 -1.1747 -0.7840
  692MOL0     H93370   5.334   8.726   6.689  1.8348  0.6163  0.7820
  692MOL0     H93371   5.539   8.749   6.866  0.1003  2.8674 -0.3915
  692MOL0     H93372   5.859   8.707   6.891 -2.3040 -2.0177 -1.6169
  692MOL0     H93373   5.913   8.805   6.746 -0.8077  0.4285 -0.9322
  692MOL0     H93374   5.784   8.975   6.807 -0.5616  0.1679  0.8133
  692MOL0     H93375   5.690   8.893   6.930 -0.9498 -0.1767 -0.3053
  692MOL0     H93376   5.904   8.880   7.069 -2.7054 -2.1978 -1.7458
  692MOL0     H93377   5.833   9.044   7.042 -3.2165 -1.3095 -0.0392
  692MOL0     H93378   6.052   8.920   6.892 -0.6920 -0.7381  1.6711
  692MOL0     H93379   6.057   9.059   7.009 -1.4375  0.3372  0.2360
  692MOL0     H93380   6.264   9.053   6.887  0.4055  1.0602 -0.3600
  692MOL0     H93381   6.435   9.070   6.723  0.7588  0.4727 -0.9377
  692MOL0     H93382   6.766   9.366   6.611  3.1192 -0.7202  1.6732
  692MOL0     H93383   6.992   9.346   6.486 -0.7101 -0.3558 -1.8483
  692MOL0     H93384   7.022   9.024   6.188  0.9546 -0.4093  1.0960
  692MOL0     H93385   6.992   9.195   6.162 -1.7930 -0.4537 -0.5206
  692MOL0     H93386   7.265   9.063   6.198  0.2935 -0.6742  1.7902
  692MOL0     H93387   7.206   9.129   6.044  0.2867 -0.5708  0.7025
  692MOL0     H93388   7.217   9.354   6.117 -2.4453  2.3401  3.7451
  692MOL0     H93389   7.236   9.328   6.275  0.9784  0.0159  0.6736
  692MOL0     H93390   7.447   9.178   6.105  0.1104 -0.0712 -0.0211
  692MOL0     H93391   7.461   9.251   6.268  0.4303  1.6479 -0.1406
  692MOL0     H93392   7.467   9.472   6.160  0.7908  0.8209 -1.3564
  692MOL0     H93393   7.465   9.387   6.007 -0.1629 -0.4587  0.2058
  692MOL0     H93394   7.665   9.345   6.232  2.2594 -0.5268 -0.7478
  692MOL0     H93395   7.684   9.276   6.072 -2.2437 -0.9951  0.5568
  692MOL0     H93396   7.789   9.526   6.140 -1.3105  2.5411 -0.5659
  692MOL0     H93397   7.634   9.562   6.057 -1.7649 -0.7859  1.0890
  692MOL0     H93398   7.719   9.443   5.867  3.3545 -1.2810 -3.8935
  692MOL0     H93399   7.850   9.548   5.911  1.2725 -1.6652 -1.5325
  692MOL0     H93400   6.864   8.994   6.312 -0.1124 -0.3991  1.6937
  692MOL0     H93401   6.625   9.025   6.418 -0.5998 -0.7903  1.3231
  692MOL0     H93402   6.197   9.304   6.464  0.1327  0.1354  0.0437
  692MOL0     H93403   6.003   9.269   6.609  1.4782  3.0967  0.6530
  692MOL0     H93404   4.502   8.823   7.141 -0.8553 -0.0612 -0.2423
  692MOL0     H93405   4.265   8.764   7.143 -0.8932  1.4850 -2.8500
  692MOL0     H93406   3.931   8.598   7.001  0.6928 -0.1884 -0.0117
  692MOL0     H93407   3.694   8.614   7.019 -1.7991  0.2222  0.7435
  692MOL0     H93408   3.357   8.368   7.240  0.8026  2.0357  3.8956
  692MOL0     H93409   3.495   8.369   7.346 -0.2630 -3.1491  1.1213
  692MOL0     H93410   3.481   8.146   7.306 -1.6350  0.6640  0.3032
  692MOL0     H93411   3.603   8.192   7.186  0.4140  0.2108  1.9087
  692MOL0     H93412   3.457   8.037   7.059  0.3691  0.1550  2.0390
  692MOL0     H93413   3.387   8.192   7.021 -1.3131 -0.9098 -1.1092
  692MOL0     H93414   3.280   8.050   7.265  0.7778  0.6493  0.4264
  692MOL0     H93415   3.207   8.175   7.169 -2.9112 -1.3557 -2.9502
  692MOL0     H93416   3.059   7.833   6.994 -2.2146  1.7620  0.8515
  692MOL0     H93417   3.711   8.302   7.329  0.0814  0.4034  1.5566
  692MOL0     H93418   4.066   8.256   7.304  1.8045 -1.3026  3.6692
  692MOL0     H93419   4.013   8.361   7.442 -2.8492  0.6857  1.7188
  692MOL0     H93420   3.920   8.213   7.388 -1.0021  1.5374 -1.0678
  693MOL0     O93421   7.490   9.776  11.171  0.1838 -0.1488  0.3576
  693MOL0     C93422   7.380   9.834  11.181 -0.7414  0.1860  0.7418
  693MOL0     O93423   7.304   9.838  11.292 -0.4419  0.4560 -0.1337
  693MOL0     C93424   7.339   9.757  11.401 -0.2178 -0.1555 -0.5063
  693MOL0     C93425   7.247   9.661  11.445  0.1930 -0.3263 -0.0361
  693MOL0     C93426   7.286   9.588  11.563  0.2330 -0.8115  0.9460
  693MOL0     C93427   7.400   9.610  11.634 -0.3775 -0.1194  0.3973
  693MOL0     O93428   7.426   9.543  11.755  0.5116 -0.1696  0.0336
  693MOL0     C93429   7.513   9.608  11.844  0.1663 -0.0293 -0.4735
  693MOL0     C93430   7.543   9.510  11.954 -0.5630  0.2303 -1.1113
  693MOL0     C93431   7.660   9.417  11.926 -0.0364 -0.1349 -0.1246
  693MOL0     C93432   7.789   9.481  11.978 -0.0946 -0.1753  0.2388
  693MOL0     C93433   7.801   9.437  12.127  0.6144  0.0103  0.0494
  693MOL0     C93434   7.875   9.297  12.148  0.4346 -0.2392  0.6470
  693MOL0     C93435   8.012   9.293  12.080  0.7742  1.3448 -0.1004
  693MOL0     C93436   8.113   9.393  12.125 -0.1313 -0.0011  0.2016
  693MOL0     N93437   8.240   9.378  12.048  0.6804 -0.7061 -0.4909
  693MOL0     C93438   8.325   9.272  12.058 -0.4088 -0.5907  0.2851
  693MOL0     C93439   8.411   9.288  11.957  0.6784 -0.3053  0.9215
  693MOL0     C93440   8.538   9.212  11.928  0.5667 -0.4533  0.4299
  693MOL0     C93441   8.658   9.310  11.964  0.2722 -0.4801 -0.4805
  693MOL0     C93442   8.791   9.243  11.934 -0.6282  0.6712 -0.2256
  693MOL0     C93443   8.921   9.322  11.951 -0.4484 -0.4662 -0.2807
  693MOL0     O93444   8.929   9.393  12.080  0.1744 -0.0469 -0.5070
  693MOL0     C93445   9.040   9.448  12.132  0.7369  0.2307  0.4784
  693MOL0     C93446   9.166   9.410  12.095 -0.4239  0.0133 -0.3219
  693MOL0     C93447   9.278   9.486  12.147 -0.5918 -0.3005  0.1412
  693MOL0     C93448   9.252   9.586  12.243 -0.2751 -0.6020  0.1667
  693MOL0     C93449   9.361   9.674  12.293  1.1151  0.8918  0.8671
  693MOL0     O93450   9.475   9.601  12.303 -0.2420 -0.0453  0.4752
  693MOL0     C93451   9.581   9.647  12.376 -0.8360  0.2986 -0.4346
  693MOL0     C93452   9.653   9.538  12.437 -0.4469 -0.6246  0.2231
  693MOL0     C93453   9.763   9.560  12.512  0.2293 -0.5704 -0.0664
  693MOL0     C93454   9.797   9.689  12.546 -0.3416  0.6133  0.2698
  693MOL0     O93455   9.911   9.709  12.617 -0.0112  0.1376 -0.2892
  693MOL0     C93456   9.993   9.815  12.566 -0.3048  0.1745  0.0747
  693MOL0     C93457  10.134   9.784  12.623 -0.4309  0.2137  0.0052
  693MOL0     C93458  10.258   9.868  12.572  0.1458  0.5529 -0.0239
  693MOL0     C93459  10.385   9.829  12.644  0.4690  0.5007 -0.2437
  693MOL0     C93460  10.518   9.893  12.601  0.3855 -0.4469  0.9750
  693MOL0     C93461  10.551  10.022  12.667  0.1485 -0.9914  0.1792
  693MOL0     C93462  10.684  10.068  12.614  0.9422 -1.2682  0.0777
  693MOL0     C93463  10.744  10.160  12.711 -0.4324 -0.7205 -0.7066
  693MOL0    Cl93464  10.892  10.231  12.643 -0.0089  0.3774 -0.0171
  693MOL0     C93465   9.731   9.799  12.491  0.0949 -1.2890 -0.1788
  693MOL0     C93466   9.621   9.779  12.401  0.1636 -0.3628  0.4317
  693MOL0     O93467   9.351   9.789  12.335  0.4973 -0.4173 -0.2858
  693MOL0     C93468   9.128   9.610  12.299 -0.6827 -0.1260  0.3715
  693MOL0     C93469   9.022   9.542  12.234  0.1744 -0.0603 -0.5319
  693MOL0     N93470   8.369   9.398  11.893 -0.3619 -0.2176  0.2575
  693MOL0     N93471   8.264   9.451  11.935 -0.1349  0.4309  0.1785
  693MOL0     C93472   7.494   9.694  11.569  1.0305  0.3178 -0.0566
  693MOL0     C93473   7.464   9.770  11.461  0.0940  0.0856 -0.3635
  693MOL0     C93474   7.336   9.908  11.059  0.1234 -0.7285 -1.1768
  693MOL0     C93475   7.425   9.985  10.982 -0.1538  0.2819  1.1717
  693MOL0     C93476   7.375  10.065  10.877 -0.0624 -0.0637 -0.4917
  693MOL0     C93477   7.239  10.060  10.841 -0.7145 -0.1972 -0.7244
  693MOL0     O93478   7.180  10.140  10.745 -0.0577  0.2681 -0.1029
  693MOL0     C93479   7.251  10.254  10.706 -0.0945 -1.0630  0.3798
  693MOL0     C93480   7.273  10.349  10.824 -0.8025 -0.7249  0.2493
  693MOL0     C93481   7.331  10.486  10.775  0.9274  0.1173 -0.4278
  693MOL0     C93482   7.400  10.569  10.878 -0.6934 -0.5396 -0.3582
  693MOL0     C93483   7.302  10.644  10.960 -0.0784  0.6216  0.2992
  693MOL0     C93484   7.209  10.700  11.012  0.0269  0.3590 -1.0135
  693MOL0     C93485   7.150   9.977  10.914  0.9221  0.0490 -0.5623
  693MOL0     C93486   7.192   9.902  11.027  0.1204  0.5686  0.1939
  693MOL0     C93487   7.086   9.823  11.098 -0.2192 -0.0878  0.1662
  693MOL0     H93488   7.153   9.654  11.390 -0.3962 -0.5252  0.9820
  693MOL0     H93489   7.216   9.513  11.599 -1.4020 -1.9842 -3.9295
  693MOL0     H93490   7.600   9.657  11.799  0.8602 -2.6097 -2.1588
  693MOL0     H93491   7.463   9.696  11.886 -0.6086 -0.4927 -0.4036
  693MOL0     H93492   7.459   9.443  11.975  2.5475 -4.0672 -0.9809
  693MOL0     H93493   7.563   9.564  12.047 -0.9997 -1.1455 -0.1869
  693MOL0     H93494   7.668   9.400  11.818 -5.0191  1.6677 -1.0787
  693MOL0     H93495   7.638   9.322  11.976 -0.2746 -0.5483 -0.9962
  693MOL0     H93496   7.870   9.439  11.917 -0.3032 -0.8025  0.3782
  693MOL0     H93497   7.793   9.590  11.981  0.2456 -0.2049  2.9231
  693MOL0     H93498   7.862   9.513  12.177 -0.1233  1.1094 -0.6791
  693MOL0     H93499   7.703   9.427  12.175  0.8584  2.5738  1.2103
  693MOL0     H93500   7.900   9.283  12.254  2.4878 -2.4229 -0.0323
  693MOL0     H93501   7.808   9.215  12.120 -0.9119  0.7521  0.8677
  693MOL0     H93502   7.998   9.291  11.972 -2.6423 -0.2539  0.2171
  693MOL0     H93503   8.043   9.190  12.100  0.1471  1.1464 -0.1098
  693MOL0     H93504   8.063   9.488  12.102 -0.0005  0.8591  3.0229
  693MOL0     H93505   8.117   9.397  12.234 -3.5273  2.1367  0.4171
  693MOL0     H93506   8.337   9.190  12.128  0.7391 -0.2979  0.4608
  693MOL0     H93507   8.538   9.123  11.992 -0.0992 -0.4864  0.3885
  693MOL0     H93508   8.549   9.190  11.821 -1.6896  1.5456 -0.3097
  693MOL0     H93509   8.656   9.404  11.907  1.7757  0.5206  1.0213
  693MOL0     H93510   8.648   9.332  12.071 -0.0944 -0.6387 -0.4789
  693MOL0     H93511   8.804   9.203  11.834  0.9054  1.0161 -0.1803
  693MOL0     H93512   8.795   9.155  11.998  3.2759  1.5901  1.0262
  693MOL0     H93513   8.940   9.394  11.871  2.2840  2.7199  2.9134
  693MOL0     H93514   9.004   9.251  11.947 -1.0600 -1.4253  2.0817
  693MOL0     H93515   9.195   9.336  12.021  1.0291 -0.0078  0.2213
  693MOL0     H93516   9.378   9.473  12.105 -0.4223 -2.1701  1.0506
  693MOL0     H93517   9.616   9.438  12.419  0.8259 -0.5101 -4.2879
  693MOL0     H93518   9.819   9.479  12.558  1.1749  0.1355  0.0665
  693MOL0     H93519  10.008   9.842  12.461  1.9197  0.4679  0.4324
  693MOL0     H93520   9.974   9.913  12.611  3.6179  1.3964 -0.5854
  693MOL0     H93521  10.124   9.780  12.732 -1.4130  1.3230 -0.0243
  693MOL0     H93522  10.141   9.683  12.582 -1.4542 -0.2001  0.8107
  693MOL0     H93523  10.266   9.855  12.464  0.0809 -0.2634  0.0672
  693MOL0     H93524  10.245   9.975  12.592  3.0919  0.4217  3.6478
  693MOL0     H93525  10.399   9.721  12.645 -0.5260  0.3346  1.6397
  693MOL0     H93526  10.370   9.854  12.750 -1.0292  0.0392 -0.3203
  693MOL0     H93527  10.515   9.896  12.492 -3.1240 -1.6525  0.9207
  693MOL0     H93528  10.601   9.824  12.621  1.7029  0.9561  0.6306
  693MOL0     H93529  10.473  10.092  12.639  0.3102 -0.9624 -0.2134
  693MOL0     H93530  10.548   9.996  12.773  1.1306 -2.0532 -0.0295
  693MOL0     H93531  10.666  10.132  12.527  0.9707 -0.3818  0.7180
  693MOL0     H93532  10.747   9.983  12.586  1.6400 -0.6412 -0.2682
  693MOL0     H93533  10.675  10.240  12.740  1.3892  1.6352 -2.5429
  693MOL0     H93534  10.773  10.112  12.806  0.8196  0.9369 -0.2140
  693MOL0     H93535   9.758   9.903  12.506  1.6672 -1.7739  0.6215
  693MOL0     H93536   9.572   9.861  12.349 -1.5805 -2.3064 -1.1482
  693MOL0     H93537   9.106   9.693  12.365  0.8938 -2.0200  3.5137
  693MOL0     H93538   8.916   9.555  12.258  0.3848  4.0101 -1.1330
  693MOL0     H93539   7.599   9.701  11.597  0.3006  2.6348  2.7127
  693MOL0     H93540   7.530   9.843  11.415 -0.7288  0.9706 -0.1695
  693MOL0     H93541   7.532   9.984  11.001  0.7277  1.2876 -2.7295
  693MOL0     H93542   7.452  10.120  10.825 -0.9538  2.2604  0.5417
  693MOL0     H93543   7.187  10.300  10.629  0.2629 -1.3696 -0.1067
  693MOL0     H93544   7.335  10.228  10.641 -1.9319 -0.8456 -2.2773
  693MOL0     H93545   7.352  10.321  10.895 -0.8070 -0.5141  0.3380
  693MOL0     H93546   7.181  10.358  10.881  0.0676  0.3459  1.5712
  693MOL0     H93547   7.247  10.543  10.734 -2.0904 -0.5014  4.2085
  693MOL0     H93548   7.407  10.466  10.698  1.9004 -2.1868  1.0237
  693MOL0     H93549   7.458  10.509  10.948  0.2335 -0.2515 -0.8721
  693MOL0     H93550   7.455  10.651  10.831 -1.8671 -0.2883 -1.3363
  693MOL0     H93551   7.129  10.726  11.077  1.1729 -3.7149  2.4977
  693MOL0     H93552   7.046   9.968  10.884  0.1726 -0.3458  1.9495
  693MOL0     H93553   6.991   9.803  11.047 -0.2755 -3.7747  1.4803
  693MOL0     H93554   7.123   9.725  11.128  0.7711 -0.4737 -2.1347
  693MOL0     H93555   7.062   9.873  11.193 -0.3355 -2.5586  1.5192
  694MOL0     O93556   3.505   3.378   6.345 -0.1913  0.1768  0.3619
  694MOL0     C93557   3.461   3.481   6.384  0.6910 -0.4797 -0.7116
  694MOL0     O93558   3.492   3.536   6.505 -0.4412 -0.2625 -0.9071
  694MOL0     C93559   3.568   3.465   6.592  0.0265 -0.0175  0.6096
  694MOL0     C93560   3.518   3.395   6.706 -0.2726  0.3384 -0.2434
  694MOL0     C93561   3.616   3.322   6.783  0.0864  0.1729  0.0259
  694MOL0     C93562   3.751   3.336   6.760  0.1595  0.4848 -0.0666
  694MOL0     O93563   3.828   3.254   6.848  0.0485 -0.8787 -0.1839
  694MOL0     C93564   3.973   3.266   6.857 -0.3574  0.2918  0.3529
  694MOL0     C93565   4.018   3.177   6.981 -0.7313 -1.2007 -0.2356
  694MOL0     C93566   4.004   3.028   6.956 -0.2942  0.5862 -0.0272
  694MOL0     C93567   4.073   2.934   7.067  0.1188 -1.3273  0.8577
  694MOL0     C93568   4.223   2.949   7.070  0.4019  0.6129 -0.3008
  694MOL0     C93569   4.312   2.859   6.971  0.4960 -0.4064 -0.4714
  694MOL0     C93570   4.326   2.706   7.000  0.7372  0.1209  0.5864
  694MOL0     C93571   4.409   2.659   7.124 -0.8012  0.4685  0.0793
  694MOL0     N93572   4.554   2.678   7.116 -0.2203 -0.4942  0.2529
  694MOL0     C93573   4.649   2.583   7.153  0.4197 -0.2206  0.0259
  694MOL0     C93574   4.766   2.631   7.100  0.0060  1.0681 -0.6279
  694MOL0     C93575   4.888   2.552   7.110  0.2645 -0.8469  0.0299
  694MOL0     C93576   4.880   2.410   7.034  0.4315  0.4877  0.7711
  694MOL0     C93577   5.001   2.325   7.054 -0.2777 -0.6006  0.5196
  694MOL0     C93578   5.104   2.369   6.949 -0.4183 -0.1083  0.2861
  694MOL0     O93579   5.158   2.498   6.974 -0.1595  0.3793 -0.1597
  694MOL0     C93580   5.240   2.554   6.878 -0.8897  0.5071  0.1115
  694MOL0     C93581   5.284   2.685   6.906 -0.1303  0.2158 -0.3007
  694MOL0     C93582   5.366   2.752   6.828  0.7818  0.3324 -0.5745
  694MOL0     C93583   5.419   2.686   6.709 -0.1907 -0.5655  0.5093
  694MOL0     C93584   5.511   2.765   6.626  0.6156  0.3254  0.2835
  694MOL0     O93585   5.533   2.890   6.679  0.0135 -0.4398 -0.1485
  694MOL0     C93586   5.589   2.980   6.593  0.2591 -0.7637  0.2690
  694MOL0     C93587   5.703   3.041   6.640  0.7865  0.2302  0.3058
  694MOL0     C93588   5.758   3.149   6.569 -0.3093  0.0605  0.0380
  694MOL0     C93589   5.700   3.199   6.452  0.1017 -0.1078  0.4477
  694MOL0     O93590   5.745   3.306   6.384  0.9926 -0.1536  0.2276
  694MOL0     C93591   5.882   3.321   6.364  0.5844 -0.3329 -1.0167
  694MOL0     C93592   5.924   3.463   6.402 -0.0329  0.3256  0.0179
  694MOL0     C93593   6.075   3.481   6.437  0.5894  0.7680  0.0798
  694MOL0     C93594   6.160   3.412   6.329  0.1868  0.4036 -0.0794
  694MOL0     C93595   6.283   3.490   6.286 -0.6428  0.0705 -0.1238
  694MOL0     C93596   6.254   3.640   6.235 -0.5452  0.7789  0.7562
  694MOL0     C93597   6.372   3.716   6.189  0.0521  0.3708  0.3113
  694MOL0     C93598   6.335   3.861   6.155 -0.5645 -0.2312  0.7233
  694MOL0    Cl93599   6.192   3.883   6.039 -0.9487 -0.0265  0.6639
  694MOL0     C93600   5.581   3.141   6.405 -0.8093  0.3603  0.6877
  694MOL0     C93601   5.523   3.034   6.477 -1.3048  0.8213 -0.0064
  694MOL0     O93602   5.546   2.723   6.516 -0.1456 -0.4889 -0.0442
  694MOL0     C93603   5.375   2.561   6.674 -0.0366 -1.4573  0.5826
  694MOL0     C93604   5.283   2.495   6.754 -0.3862 -0.1446 -0.3106
  694MOL0     N93605   4.737   2.745   7.027 -0.7913  0.5207 -0.4081
  694MOL0     N93606   4.612   2.771   7.039 -0.8961  0.2464  0.0265
  694MOL0     C93607   3.796   3.413   6.660 -0.0909  0.5578 -0.6322
  694MOL0     C93608   3.713   3.481   6.578  0.1810  0.0781  0.2349
  694MOL0     C93609   3.350   3.545   6.294 -0.5141 -0.2249 -0.0128
  694MOL0     C93610   3.351   3.511   6.158 -0.8205 -0.3674 -0.0247
  694MOL0     C93611   3.235   3.548   6.085  0.0099  0.2173  0.3740
  694MOL0     C93612   3.140   3.624   6.144 -0.0513  0.0022  0.0983
  694MOL0     O93613   3.041   3.673   6.070  0.0729 -0.8139  0.6543
  694MOL0     C93614   2.958   3.593   5.988 -0.1893  0.5165  0.4409
  694MOL0     C93615   2.828   3.674   5.962  0.7608  0.1307 -0.8348
  694MOL0     C93616   2.841   3.767   5.842  0.9183  0.6653  0.2083
  694MOL0     C93617   2.802   3.688   5.718 -0.5995 -0.0398  0.1034
  694MOL0     C93618   2.823   3.785   5.604 -0.3924  0.4918 -0.3634
  694MOL0     C93619   2.847   3.843   5.502  0.4294  0.2264  0.7706
  694MOL0     C93620   3.143   3.667   6.277  0.1920 -0.2074 -0.2600
  694MOL0     C93621   3.249   3.630   6.350 -0.0742 -0.2711 -1.0805
  694MOL0     C93622   3.238   3.668   6.487  1.2035  0.1894  0.4452
  694MOL0     H93623   3.412   3.386   6.729 -0.1821  0.8301  0.3758
  694MOL0     H93624   3.586   3.248   6.856  4.2726 -2.4196 -0.5319
  694MOL0     H93625   4.024   3.219   6.772  3.4564  0.5638  2.2941
  694MOL0     H93626   4.001   3.370   6.875 -4.7290  2.4143 -2.9879
  694MOL0     H93627   3.965   3.204   7.072  1.4974  3.1763  0.0456
  694MOL0     H93628   4.122   3.198   7.006 -1.0990 -0.7994  1.0108
  694MOL0     H93629   4.051   3.009   6.859  5.2441  0.4401  2.3670
  694MOL0     H93630   3.896   3.009   6.959  0.0074 -1.2817  2.7385
  694MOL0     H93631   4.028   2.967   7.161  1.3322  3.5259  0.0080
  694MOL0     H93632   4.033   2.835   7.044  0.0508 -0.6789 -2.2090
  694MOL0     H93633   4.245   3.051   7.037 -2.5982  1.7892  0.9023
  694MOL0     H93634   4.271   2.954   7.169  0.1888  2.0470 -0.2464
  694MOL0     H93635   4.267   2.873   6.873 -0.7358  2.5704  0.4355
  694MOL0     H93636   4.412   2.904   6.970  0.1522  0.5290  1.7385
  694MOL0     H93637   4.357   2.651   6.911  2.7715 -0.5798  1.6544
  694MOL0     H93638   4.227   2.667   7.023  0.4105  0.6069  0.0163
  694MOL0     H93639   4.371   2.712   7.212  0.0573 -0.2290  0.8949
  694MOL0     H93640   4.389   2.554   7.149 -1.0324  0.4122 -0.3403
  694MOL0     H93641   4.642   2.491   7.210  0.7270 -0.3645 -0.1635
  694MOL0     H93642   4.969   2.611   7.066 -0.1760  0.7776  1.2961
  694MOL0     H93643   4.906   2.536   7.217 -2.5972 -0.0006  0.7220
  694MOL0     H93644   4.793   2.350   7.064 -1.1903  1.9240 -0.7997
  694MOL0     H93645   4.860   2.424   6.928 -1.4652 -1.9233  0.7030
  694MOL0     H93646   4.981   2.218   7.045 -2.2874 -0.3428  1.2397
  694MOL0     H93647   5.043   2.341   7.154  3.3190 -1.9638 -0.6168
  694MOL0     H93648   5.056   2.350   6.852  0.6809  2.7668 -0.9061
  694MOL0     H93649   5.190   2.302   6.959  0.1191  0.4229 -0.6081
  694MOL0     H93650   5.236   2.732   6.991  2.0879  0.3302  0.9467
  694MOL0     H93651   5.388   2.853   6.860 -1.5755  0.5974  0.3621
  694MOL0     H93652   5.737   3.006   6.737 -2.8299 -0.7337  1.3906
  694MOL0     H93653   5.842   3.206   6.609  0.8648 -0.3499 -1.7296
  694MOL0     H93654   5.939   3.255   6.430 -1.4859  0.3412  1.6018
  694MOL0     H93655   5.922   3.296   6.265  0.6497 -1.2305 -0.7671
  694MOL0     H93656   5.888   3.517   6.314  0.2093  1.2843  0.4900
  694MOL0     H93657   5.875   3.498   6.494  4.3985  1.7179  2.1489
  694MOL0     H93658   6.087   3.589   6.426  1.4259  0.6577 -0.1410
  694MOL0     H93659   6.104   3.443   6.535  0.1668 -1.8785 -0.7460
  694MOL0     H93660   6.101   3.394   6.239  1.9260  0.6368 -1.3076
  694MOL0     H93661   6.190   3.315   6.369  0.5952  0.2699 -0.7025
  694MOL0     H93662   6.339   3.425   6.218  0.2029 -2.6862  2.9669
  694MOL0     H93663   6.350   3.496   6.372 -0.5427  0.4568 -0.2275
  694MOL0     H93664   6.185   3.635   6.150  0.2816  0.5792  0.0909
  694MOL0     H93665   6.200   3.695   6.313  0.2388  1.6280  0.7232
  694MOL0     H93666   6.422   3.669   6.105  2.2875  2.2067  0.5190
  694MOL0     H93667   6.445   3.703   6.269 -0.4998 -1.6150  0.5541
  694MOL0     H93668   6.319   3.914   6.250 -3.0009  0.5510 -0.0425
  694MOL0     H93669   6.422   3.910   6.112 -1.4925  2.5116  1.7123
  694MOL0     H93670   5.520   3.195   6.333 -1.8464  2.9417  3.2907
  694MOL0     H93671   5.432   2.984   6.445 -1.7015 -0.9627  3.4374
  694MOL0     H93672   5.424   2.511   6.590  1.1139  0.2977  0.1569
  694MOL0     H93673   5.246   2.399   6.720 -0.8857  0.3410 -1.1544
  694MOL0     H93674   3.901   3.433   6.638  0.3297 -0.0372  0.7230
  694MOL0     H93675   3.758   3.535   6.494 -0.0951 -0.5351 -0.3130
  694MOL0     H93676   3.432   3.460   6.107  0.4106 -1.0232  2.4248
  694MOL0     H93677   3.229   3.526   5.979 -0.9781 -3.0892  1.0173
  694MOL0     H93678   2.942   3.507   6.054 -1.8585  0.1718 -0.3546
  694MOL0     H93679   2.999   3.566   5.890  0.0498  1.6513  0.2194
  694MOL0     H93680   2.792   3.723   6.053 -1.1369  0.8652 -1.9033
  694MOL0     H93681   2.753   3.598   5.941  0.1087  0.4143  0.3743
  694MOL0     H93682   2.943   3.806   5.846  0.5576  1.7795 -0.7840
  694MOL0     H93683   2.779   3.857   5.856  0.2060  0.0022  1.5588
  694MOL0     H93684   2.861   3.596   5.709  0.9591  1.0510 -1.2019
  694MOL0     H93685   2.696   3.660   5.711 -0.8400  1.0072 -0.5697
  694MOL0     H93686   2.864   3.910   5.420  0.5324  0.1699  0.7455
  694MOL0     H93687   3.070   3.737   6.317  0.5792  0.6975 -1.0820
  694MOL0     H93688   3.147   3.722   6.514  0.8508  0.3138 -0.8967
  694MOL0     H93689   3.255   3.590   6.561  2.7132  0.8838  0.8597
  694MOL0     H93690   3.321   3.737   6.505  1.0265 -0.1003  2.5114
  695MOL0     O93691   9.368   4.326   1.102 -0.2653  0.0199 -0.9435
  695MOL0     C93692   9.308   4.281   1.203 -0.0551  0.6936 -0.2594
  695MOL0     O93693   9.373   4.232   1.318  0.0654 -0.5089  0.4398
  695MOL0     C93694   9.506   4.208   1.295 -0.7320 -0.2412  0.1041
  695MOL0     C93695   9.601   4.314   1.315 -0.0380  0.6112  0.0869
  695MOL0     C93696   9.734   4.291   1.293  0.3535  0.7368  0.5199
  695MOL0     C93697   9.784   4.166   1.254 -0.0454  0.6675  0.2283
  695MOL0     O93698   9.916   4.131   1.230  0.1163  0.8319 -0.1019
  695MOL0     C93699  10.001   4.244   1.206 -0.0904 -0.0341 -0.0048
  695MOL0     C93700  10.149   4.205   1.192 -0.2504 -1.5007 -0.2877
  695MOL0     C93701  10.226   4.319   1.132  0.2325  0.4206  0.1796
  695MOL0     C93702  10.326   4.272   1.028 -0.2416 -0.1628 -1.4068
  695MOL0     C93703  10.400   4.389   0.965 -0.4095 -0.0779  0.2805
  695MOL0     C93704  10.518   4.344   0.874  0.7001 -0.3690  1.3463
  695MOL0     C93705  10.635   4.296   0.959 -0.0424  0.8339  0.0258
  695MOL0     C93706  10.767   4.311   0.880 -0.2842 -0.1391 -0.4899
  695MOL0     N93707  10.865   4.224   0.957 -0.4830  0.1292  0.3474
  695MOL0     C93708  10.979   4.154   0.911 -0.3865  0.6763  0.3087
  695MOL0     C93709  11.047   4.101   1.014 -0.1048 -0.4651  0.0570
  695MOL0     C93710  11.182   4.050   1.013  0.5426 -0.0864  0.5200
  695MOL0     C93711  11.277   4.141   1.090  0.1597  0.7636  0.5523
  695MOL0     C93712  11.425   4.106   1.062  0.0462 -0.0667 -0.1357
  695MOL0     C93713  11.459   3.951   1.072 -0.3121 -0.3594 -0.3732
  695MOL0     O93714  11.405   3.897   1.194 -0.4819  0.4793  0.2043
  695MOL0     C93715  11.471   3.798   1.260  0.2509 -1.0607 -0.1971
  695MOL0     C93716  11.433   3.787   1.392 -0.0210  0.2579 -0.1523
  695MOL0     C93717  11.499   3.683   1.471 -0.3609 -0.9898 -0.4964
  695MOL0     C93718  11.603   3.610   1.416 -0.0654  0.3946 -0.1704
  695MOL0     C93719  11.688   3.519   1.494 -0.0916 -0.0377  0.5871
  695MOL0     O93720  11.807   3.467   1.439  0.8828  0.1652 -0.6457
  695MOL0     C93721  11.893   3.390   1.515 -0.4395 -0.0471 -0.2447
  695MOL0     C93722  11.922   3.404   1.648 -0.2333  0.8241 -0.5256
  695MOL0     C93723  12.003   3.304   1.710 -0.1937 -0.0569  0.0610
  695MOL0     C93724  12.081   3.212   1.636  0.4637  0.5129  1.0018
  695MOL0     O93725  12.148   3.133   1.714 -0.7399  0.8919 -0.2002
  695MOL0     C93726  12.238   3.039   1.647 -0.3337 -0.6139  0.4415
  695MOL0     C93727  12.318   2.963   1.750 -0.1978 -0.8178 -0.3858
  695MOL0     C93728  12.404   3.061   1.826  0.7252 -0.2973 -0.1982
  695MOL0     C93729  12.464   2.985   1.946  0.1203  0.0908  0.3307
  695MOL0     C93730  12.570   3.064   2.033  0.3737  0.0762  0.1615
  695MOL0     C93731  12.616   2.979   2.152  0.2360 -0.3025 -0.6496
  695MOL0     C93732  12.528   3.003   2.280 -1.0198 -0.2088 -0.2845
  695MOL0     C93733  12.376   2.994   2.271  0.1073  0.6790  0.7476
  695MOL0    Cl93734  12.301   3.039   2.440 -0.1323  0.2682 -0.1025
  695MOL0     C93735  12.046   3.197   1.495  0.2651  0.3262 -1.1125
  695MOL0     C93736  11.956   3.286   1.436  0.3816  0.0544  0.0056
  695MOL0     O93737  11.656   3.503   1.612  0.1290  0.5155 -0.1428
  695MOL0     C93738  11.636   3.628   1.282  0.1658  0.1824  1.1913
  695MOL0     C93739  11.580   3.720   1.206  0.7983  0.8891  0.0029
  695MOL0     N93740  10.971   4.133   1.131 -0.3614  1.1140  1.3387
  695MOL0     N93741  10.869   4.202   1.089  0.2709 -0.0119 -0.5440
  695MOL0     C93742   9.684   4.060   1.231 -0.2423 -0.0635 -0.8813
  695MOL0     C93743   9.543   4.083   1.254  0.1578 -0.1926  0.3440
  695MOL0     C93744   9.160   4.297   1.202  0.4712 -0.7878  0.3463
  695MOL0     C93745   9.115   4.429   1.216  0.1147  0.1687 -0.4926
  695MOL0     C93746   8.977   4.460   1.204 -0.8638  0.7434 -0.4863
  695MOL0     C93747   8.881   4.355   1.174 -0.4028  0.3375  0.5286
  695MOL0     O93748   8.746   4.361   1.163 -0.0712 -0.2789 -0.4049
  695MOL0     C93749   8.687   4.484   1.201 -0.6620 -0.0097 -0.8273
  695MOL0     C93750   8.541   4.477   1.188  0.4347 -0.7036 -0.5251
  695MOL0     C93751   8.484   4.629   1.209 -0.5383  0.3572  0.3592
  695MOL0     C93752   8.335   4.647   1.235  0.1229  0.4646 -0.0098
  695MOL0     C93753   8.247   4.644   1.116  0.8441 -0.3805  0.1816
  695MOL0     C93754   8.174   4.649   1.022  0.4288  0.1795 -0.2341
  695MOL0     C93755   8.932   4.228   1.172 -0.6815 -0.1921  0.8508
  695MOL0     C93756   9.065   4.187   1.182 -0.1124  0.5521  0.3022
  695MOL0     C93757   9.099   4.040   1.158 -0.0335 -0.4335 -0.2057
  695MOL0     H93758   9.572   4.410   1.356 -2.5262  0.2471 -0.6007
  695MOL0     H93759   9.801   4.370   1.325 -0.1523  1.2868  0.2488
  695MOL0     H93760   9.972   4.288   1.110 -0.4802  0.7614  0.4746
  695MOL0     H93761   9.997   4.314   1.290  2.1539 -0.5719  0.6172
  695MOL0     H93762  10.163   4.117   1.128 -0.7732 -2.3349  0.7097
  695MOL0     H93763  10.181   4.180   1.293  1.1066 -0.2524 -0.3787
  695MOL0     H93764  10.266   4.371   1.220 -0.7276  2.2394 -0.4146
  695MOL0     H93765  10.158   4.393   1.089 -1.5746 -0.8300  0.7789
  695MOL0     H93766  10.392   4.213   1.091 -0.9508  1.3882  0.8955
  695MOL0     H93767  10.287   4.212   0.945  1.9971  0.7719 -3.2619
  695MOL0     H93768  10.328   4.444   0.903 -1.7569 -1.9086  0.1420
  695MOL0     H93769  10.432   4.449   1.050 -2.6531 -0.2078  1.2814
  695MOL0     H93770  10.476   4.260   0.819 -3.4368  1.4848  1.2447
  695MOL0     H93771  10.550   4.426   0.809  1.6197 -0.1755  2.0205
  695MOL0     H93772  10.618   4.192   0.989 -0.1335  1.2386  1.4470
  695MOL0     H93773  10.641   4.346   1.056  0.1569 -2.5736  1.9129
  695MOL0     H93774  10.747   4.264   0.784 -0.9839  2.1052 -1.5249
  695MOL0     H93775  10.798   4.415   0.868  1.4809 -0.3482  1.6259
  695MOL0     H93776  11.009   4.139   0.808 -1.0085  0.5069  0.1498
  695MOL0     H93777  11.180   3.945   1.042 -2.9610 -0.3291 -0.2351
  695MOL0     H93778  11.226   4.044   0.913  0.2182  1.6514  0.2228
  695MOL0     H93779  11.259   4.247   1.069 -2.4479  0.3252  0.2806
  695MOL0     H93780  11.262   4.130   1.198  0.1506 -0.7645  0.4189
  695MOL0     H93781  11.486   4.150   1.142 -1.1434  1.8045 -0.1789
  695MOL0     H93782  11.467   4.145   0.969 -0.7417  1.3034  0.0531
  695MOL0     H93783  11.568   3.944   1.070 -0.0361  2.6192 -1.8238
  695MOL0     H93784  11.414   3.896   0.989  0.0154 -3.0506  1.1235
  695MOL0     H93785  11.346   3.840   1.428  0.2754  0.2460  0.6030
  695MOL0     H93786  11.474   3.686   1.577 -2.3609  1.6543 -0.9520
  695MOL0     H93787  11.878   3.487   1.703 -1.6563 -1.4532  2.0408
  695MOL0     H93788  12.030   3.329   1.812 -2.9967  2.5229  0.3044
  695MOL0     H93789  12.165   2.977   1.595  0.2449 -1.3015  0.4429
  695MOL0     H93790  12.301   3.084   1.570 -0.2814  0.0280  0.8504
  695MOL0     H93791  12.256   2.924   1.831 -2.4351  1.2008 -1.0161
  695MOL0     H93792  12.360   2.887   1.684 -1.7413  0.6861 -3.2837
  695MOL0     H93793  12.471   3.105   1.751 -0.1979 -0.9192 -1.4395
  695MOL0     H93794  12.344   3.143   1.865 -1.3071  0.3284 -4.0966
  695MOL0     H93795  12.508   2.898   1.897 -2.4495 -1.2585  0.2576
  695MOL0     H93796  12.385   2.949   2.012 -0.6177  0.5585 -0.2914
  695MOL0     H93797  12.554   3.169   2.060  3.6800  0.8192 -0.3299
  695MOL0     H93798  12.663   3.071   1.975 -0.2081 -0.9646 -0.9481
  695MOL0     H93799  12.620   2.871   2.137  2.6970 -0.2463 -0.9172
  695MOL0     H93800  12.722   3.006   2.161  0.5654 -1.1897 -1.6900
  695MOL0     H93801  12.555   3.102   2.318  2.9029 -1.1874 -0.0763
  695MOL0     H93802  12.567   2.934   2.356 -0.1582  0.5973  0.0219
  695MOL0     H93803  12.344   3.066   2.195  3.2212 -0.0164 -1.3882
  695MOL0     H93804  12.342   2.897   2.234 -1.0220  2.1066 -2.2538
  695MOL0     H93805  12.085   3.119   1.429  1.2824 -1.0529  1.0144
  695MOL0     H93806  11.926   3.279   1.332  1.9373 -1.7513 -0.3703
  695MOL0     H93807  11.721   3.579   1.237 -0.4755  0.6076 -0.5428
  695MOL0     H93808  11.599   3.725   1.100 -0.7269 -0.9236 -0.4083
  695MOL0     H93809   9.704   3.960   1.194 -1.0206 -1.3261  1.8593
  695MOL0     H93810   9.477   3.998   1.236 -2.1126  1.3575  0.8815
  695MOL0     H93811   9.194   4.499   1.239 -1.2985  1.4801  0.5584
  695MOL0     H93812   8.941   4.558   1.232  1.5973  1.5012  0.2853
  695MOL0     H93813   8.722   4.550   1.121  0.8299  0.3310  0.0739
  695MOL0     H93814   8.704   4.519   1.303  0.7200 -2.0149 -0.3287
  695MOL0     H93815   8.497   4.400   1.251 -1.0121  0.8296  0.4252
  695MOL0     H93816   8.527   4.434   1.088  0.3288  0.5486 -1.0796
  695MOL0     H93817   8.496   4.673   1.110  0.3539 -2.3199 -0.8370
  695MOL0     H93818   8.548   4.682   1.281 -0.8670  1.9551 -0.5018
  695MOL0     H93819   8.292   4.567   1.296 -1.0524  1.4219  0.4670
  695MOL0     H93820   8.325   4.744   1.284  3.4507  0.1053  1.6563
  695MOL0     H93821   8.115   4.641   0.933 -1.6046 -3.3979  1.1976
  695MOL0     H93822   8.860   4.155   1.136  0.1256  0.2052 -1.7981
  695MOL0     H93823   9.017   3.975   1.187  0.2652 -1.0552 -0.7219
  695MOL0     H93824   9.138   4.019   1.058  0.0815  1.6889 -0.6703
  695MOL0     H93825   9.172   4.019   1.237 -1.9187 -3.5054  0.8648
  696MOL0     O93826   7.818  11.279   6.666  0.0717  0.1445 -0.3999
  696MOL0     C93827   7.799  11.227   6.774 -0.0243  0.5053  0.3523
  696MOL0     O93828   7.883  11.223   6.877  0.5708 -0.4943  0.4594
  696MOL0     C93829   8.015  11.260   6.878  0.0376  0.3176  0.2823
  696MOL0     C93830   8.074  11.250   7.002 -0.4641  0.0527  0.3493
  696MOL0     C93831   8.206  11.290   7.036 -0.5153  0.0251 -0.0227
  696MOL0     C93832   8.284  11.341   6.930 -0.1202  0.6824 -0.8624
  696MOL0     O93833   8.408  11.388   6.964 -0.7213 -0.0427 -0.3937
  696MOL0     C93834   8.507  11.431   6.876 -0.1260  0.7285  0.2207
  696MOL0     C93835   8.562  11.304   6.793 -0.3483 -0.6108 -0.8510
  696MOL0     C93836   8.698  11.333   6.731  0.5592  0.1058  0.0203
  696MOL0     C93837   8.768  11.212   6.671 -0.4329  0.7016 -0.6839
  696MOL0     C93838   8.846  11.132   6.781 -0.2533  0.3177  0.4061
  696MOL0     C93839   8.932  11.020   6.711 -0.2348  0.5974  0.2395
  696MOL0     C93840   8.863  10.937   6.606 -0.4889  0.0301 -0.2156
  696MOL0     C93841   8.867  10.781   6.628 -0.5198  0.2260 -0.3542
  696MOL0     N93842   8.999  10.718   6.616 -1.2141  0.7133  0.3148
  696MOL0     C93843   9.072  10.715   6.501  0.1529  0.3357  0.8179
  696MOL0     C93844   9.165  10.613   6.511  0.5283 -0.0645 -0.1788
  696MOL0     C93845   9.277  10.578   6.419  0.5147  0.0678  0.6136
  696MOL0     C93846   9.222  10.502   6.301 -0.3702  0.3613  0.4733
  696MOL0     C93847   9.316  10.399   6.233 -0.2234 -0.7872  1.1430
  696MOL0     C93848   9.444  10.481   6.175 -0.3074  1.1106 -1.0069
  696MOL0     O93849   9.424  10.565   6.069  0.6861 -1.3405  0.0551
  696MOL0     C93850   9.538  10.638   6.031  0.0639  0.8762  0.7245
  696MOL0     C93851   9.640  10.664   6.114 -0.5115 -0.1033  0.1710
  696MOL0     C93852   9.759  10.719   6.066  0.6156 -0.0862 -0.4167
  696MOL0     C93853   9.767  10.766   5.931  0.0372 -0.2542  0.0411
  696MOL0     C93854   9.882  10.843   5.883  0.0366  0.3466  0.4670
  696MOL0     O93855   9.870  10.889   5.758  0.0601 -0.6535  0.3922
  696MOL0     C93856   9.979  10.931   5.681 -1.1605 -0.1906 -0.7410
  696MOL0     C93857   9.957  11.032   5.589  0.6584 -0.6157  0.0201
  696MOL0     C93858  10.059  11.083   5.514 -0.6560  0.1397  0.3688
  696MOL0     C93859  10.191  11.027   5.527 -0.0066 -0.5883 -0.5826
  696MOL0     O93860  10.316  11.070   5.472  0.4630  0.3149  0.1064
  696MOL0     C93861  10.316  11.182   5.391 -0.0068 -0.5814  0.5287
  696MOL0     C93862  10.233  11.178   5.266 -0.1777  0.4569 -0.1316
  696MOL0     C93863  10.313  11.188   5.141 -0.4577  0.4870  0.9872
  696MOL0     C93864  10.249  11.124   5.015 -0.6303 -0.9593  0.1446
  696MOL0     C93865  10.340  11.135   4.892 -0.0290  0.3696 -0.1965
  696MOL0     C93866  10.284  11.048   4.774 -0.2392 -0.6095  0.3146
  696MOL0     C93867  10.138  11.057   4.736  0.1796 -0.2282 -0.7311
  696MOL0     C93868  10.087  11.206   4.719 -0.7715 -0.7535  0.5175
  696MOL0    Cl93869   9.929  11.201   4.636  0.0478  0.3870 -0.3793
  696MOL0     C93870  10.214  10.930   5.625 -0.6196 -0.1653  1.0394
  696MOL0     C93871  10.111  10.882   5.704  0.2851 -0.2125  0.4996
  696MOL0     O93872   9.974  10.869   5.966  0.2092 -0.6226  0.4643
  696MOL0     C93873   9.645  10.755   5.849  0.1617  0.0696 -0.2461
  696MOL0     C93874   9.534  10.681   5.901  0.3278 -0.2268  0.5529
  696MOL0     N93875   9.135  10.555   6.627 -0.6196  0.3577  0.0490
  696MOL0     N93876   9.043  10.618   6.685  0.2025 -0.3866 -0.6986
  696MOL0     C93877   8.236  11.341   6.796 -0.3213 -0.7562 -0.8300
  696MOL0     C93878   8.101  11.305   6.774  0.1005 -0.0248 -0.0830
  696MOL0     C93879   7.661  11.181   6.792  0.2061  0.0695 -0.0955
  696MOL0     C93880   7.571  11.249   6.874 -0.4422  0.2167  0.5947
  696MOL0     C93881   7.446  11.203   6.894  0.2685 -0.9347 -0.0994
  696MOL0     C93882   7.399  11.082   6.828 -0.0503  0.0423  0.1817
  696MOL0     O93883   7.266  11.053   6.801 -0.0480  0.1467 -0.2342
  696MOL0     C93884   7.158  11.121   6.873  0.4383 -0.8237 -0.7416
  696MOL0     C93885   7.161  11.097   7.030 -0.8240  0.3614  0.2093
  696MOL0     C93886   7.142  10.947   7.085  0.0330 -0.2343 -0.1542
  696MOL0     C93887   7.011  10.881   7.046 -0.4748 -0.0710 -0.3386
  696MOL0     C93888   6.894  10.927   7.130 -0.3006 -0.2082 -0.3866
  696MOL0     C93889   6.803  10.957   7.204 -0.3025  0.0793 -0.0517
  696MOL0     C93890   7.491  11.003   6.756 -0.0408  0.1939  0.1760
  696MOL0     C93891   7.624  11.054   6.738  0.4212 -0.5780  0.0208
  696MOL0     C93892   7.717  10.972   6.654  0.1364  0.0131  0.5684
  696MOL0     H93893   8.013  11.208   7.082 -0.2522  1.0091  1.0173
  696MOL0     H93894   8.244  11.290   7.137  1.1784 -0.9366 -0.6206
  696MOL0     H93895   8.460  11.511   6.819  0.4290 -0.7751 -2.5365
  696MOL0     H93896   8.582  11.481   6.937 -0.0085 -0.3052  0.9614
  696MOL0     H93897   8.498  11.259   6.717  1.5512 -3.6504 -0.8349
  696MOL0     H93898   8.585  11.227   6.866 -2.7495  0.2079  0.8754
  696MOL0     H93899   8.766  11.379   6.803  0.6935 -0.0598  0.0003
  696MOL0     H93900   8.679  11.408   6.654  4.2594  1.1010 -0.0850
  696MOL0     H93901   8.693  11.165   6.608 -1.6451  1.2608  0.2794
  696MOL0     H93902   8.848  11.242   6.604  1.7428  0.5497  1.6865
  696MOL0     H93903   8.915  11.198   6.835  2.3273 -1.4816 -0.5034
  696MOL0     H93904   8.775  11.084   6.850 -1.1603  0.2480 -0.5616
  696MOL0     H93905   9.014  11.069   6.657  0.1843 -0.6992 -0.3464
  696MOL0     H93906   8.982  10.962   6.789  1.2020  1.1212 -0.2543
  696MOL0     H93907   8.904  10.971   6.510  1.5495  0.3746  0.7345
  696MOL0     H93908   8.757  10.962   6.608 -1.5690 -3.6953 -1.3922
  696MOL0     H93909   8.837  10.753   6.730  0.5534 -1.5589 -0.4923
  696MOL0     H93910   8.792  10.730   6.568 -2.9832 -1.1654  3.4963
  696MOL0     H93911   9.065  10.780   6.415 -2.8460  0.6572  1.1850
  696MOL0     H93912   9.326  10.670   6.388 -1.8140  1.1680 -0.0559
  696MOL0     H93913   9.346  10.523   6.482 -0.1468 -1.6272 -0.0757
  696MOL0     H93914   9.134  10.449   6.339  1.7703 -3.1023  1.0933
  696MOL0     H93915   9.179  10.569   6.226  0.5360  1.1402  0.6259
  696MOL0     H93916   9.260  10.358   6.149 -0.7250 -1.6875  1.8908
  696MOL0     H93917   9.361  10.323   6.299  1.0796 -0.9662  0.0964
  696MOL0     H93918   9.522  10.412   6.143 -0.0545  2.2517 -3.0547
  696MOL0     H93919   9.480  10.535   6.263 -0.3415 -1.5381  0.7440
  696MOL0     H93920   9.649  10.632   6.217 -0.0233 -0.2236  0.0904
  696MOL0     H93921   9.848  10.723   6.128 -0.5147 -4.0252  1.7990
  696MOL0     H93922   9.858  11.073   5.573  0.2682 -0.7293  1.8878
  696MOL0     H93923  10.039  11.177   5.464 -0.4988 -0.3292 -0.6217
  696MOL0     H93924  10.303  11.277   5.445 -2.1678  0.3889 -1.5035
  696MOL0     H93925  10.418  11.204   5.360 -0.9338  1.8010 -1.1366
  696MOL0     H93926  10.177  11.084   5.256  1.4036 -0.6985  1.3857
  696MOL0     H93927  10.168  11.266   5.262  2.6873  2.6960 -0.3542
  696MOL0     H93928  10.335  11.294   5.123  1.9609 -0.2798 -1.1676
  696MOL0     H93929  10.408  11.142   5.168 -1.8204 -1.5000  2.7756
  696MOL0     H93930  10.163  11.187   4.993  0.6161 -0.0686 -2.5947
  696MOL0     H93931  10.205  11.026   5.037 -0.5726 -0.8706  0.6551
  696MOL0     H93932  10.440  11.101   4.919  0.7048  3.2095  0.9275
  696MOL0     H93933  10.348  11.240   4.862 -0.5928  0.6839  0.7022
  696MOL0     H93934  10.357  11.050   4.693  2.6760 -0.6079  2.7529
  696MOL0     H93935  10.293  10.942   4.798 -0.4811 -0.8268 -0.5247
  696MOL0     H93936  10.083  11.027   4.826  2.1158  3.3595  1.9000
  696MOL0     H93937  10.125  11.005   4.641  1.6605  1.1956 -1.7677
  696MOL0     H93938  10.077  11.260   4.814 -0.4191  1.3180 -0.5750
  696MOL0     H93939  10.160  11.253   4.653 -1.1182 -1.9611 -0.7766
  696MOL0     H93940  10.314  10.891   5.641 -0.1591  1.1111  1.3606
  696MOL0     H93941  10.142  10.813   5.783 -0.2812 -0.1496  0.7760
  696MOL0     H93942   9.636  10.786   5.746 -2.3871 -0.8277 -0.3681
  696MOL0     H93943   9.445  10.677   5.839  0.8657  1.3671 -0.3811
  696MOL0     H93944   8.290  11.365   6.704 -1.9036 -0.2405 -1.6598
  696MOL0     H93945   8.048  11.309   6.679 -1.2807  1.5965  0.6973
  696MOL0     H93946   7.596  11.340   6.929  1.2328 -0.9273  1.7963
  696MOL0     H93947   7.382  11.270   6.950 -2.0357 -3.9266  1.1384
  696MOL0     H93948   7.062  11.085   6.833  0.4295  0.7401 -2.2569
  696MOL0     H93949   7.172  11.226   6.847  0.7595 -0.9127 -0.9414
  696MOL0     H93950   7.088  11.157   7.085 -1.1586 -0.6963  0.9491
  696MOL0     H93951   7.261  11.125   7.062 -1.0373 -0.3520  1.5738
  696MOL0     H93952   7.151  10.962   7.193 -0.5909  1.1933 -0.2775
  696MOL0     H93953   7.224  10.882   7.052 -0.2891 -1.3036  1.0560
  696MOL0     H93954   6.988  10.896   6.940  2.5016  0.3029 -1.0366
  696MOL0     H93955   7.028  10.774   7.059  1.9885  0.4211  1.3235
  696MOL0     H93956   6.720  10.987   7.264 -0.0941 -0.7873  0.6963
  696MOL0     H93957   7.460  10.922   6.690 -1.4322 -1.0229  2.2244
  696MOL0     H93958   7.822  10.987   6.679 -0.3139  3.6682  0.7026
  696MOL0     H93959   7.705  10.865   6.677  2.5826 -0.2789  0.6705
  696MOL0     H93960   7.702  10.994   6.548  0.3960 -0.1695  0.4935
  697MOL0     O93961   3.266   2.220   1.402 -0.4274 -0.3643 -1.2546
  697MOL0     C93962   3.262   2.236   1.287 -0.2961 -0.2682  0.0546
  697MOL0     O93963   3.355   2.282   1.200 -0.0077 -0.0984 -0.0492
  697MOL0     C93964   3.475   2.329   1.251  0.3909  0.7146 -0.3879
  697MOL0     C93965   3.488   2.456   1.296 -0.5695  0.0613 -0.4370
  697MOL0     C93966   3.622   2.485   1.340 -0.2263  0.4757  0.4332
  697MOL0     C93967   3.729   2.398   1.339 -0.1635  0.2260 -0.6346
  697MOL0     O93968   3.856   2.434   1.383  0.6013  0.0025 -0.3638
  697MOL0     C93969   3.882   2.575   1.412  0.2563 -0.1397 -0.0667
  697MOL0     C93970   4.023   2.590   1.470 -0.1791  0.1654 -0.4554
  697MOL0     C93971   4.071   2.734   1.465 -0.3798  0.3472  0.3134
  697MOL0     C93972   4.198   2.766   1.550 -0.1279 -0.4142  0.3492
  697MOL0     C93973   4.245   2.911   1.534  0.0605  0.6713  0.1048
  697MOL0     C93974   4.378   2.920   1.612  0.1266  0.3595 -1.3299
  697MOL0     C93975   4.419   3.075   1.603  0.7300 -0.0361  0.1059
  697MOL0     C93976   4.569   3.102   1.624 -0.0082  0.1877  0.0030
  697MOL0     N93977   4.661   3.023   1.537  0.9628 -0.1117 -0.3541
  697MOL0     C93978   4.708   3.068   1.416 -0.0701 -0.6060 -0.1269
  697MOL0     C93979   4.800   2.975   1.377 -0.1177 -0.3907 -0.6812
  697MOL0     C93980   4.893   2.986   1.260 -0.0772  0.8216  0.0533
  697MOL0     C93981   5.022   2.918   1.283 -0.0241 -0.0879  0.3225
  697MOL0     C93982   5.080   2.889   1.146 -0.0154  0.5820  0.0607
  697MOL0     C93983   5.228   2.949   1.136  0.1555 -0.6722 -0.2497
  697MOL0     O93984   5.305   2.862   1.224 -0.3077 -0.4385  0.3199
  697MOL0     C93985   5.439   2.899   1.246  0.2271  0.0445 -0.0543
  697MOL0     C93986   5.530   2.793   1.250 -1.0945  0.2212  0.3601
  697MOL0     C93987   5.668   2.813   1.260  0.0920  0.0413 -0.6572
  697MOL0     C93988   5.717   2.941   1.271  0.6180 -0.3306  0.2259
  697MOL0     C93989   5.869   2.953   1.264  0.0129 -1.2654  0.4372
  697MOL0     O93990   5.912   3.081   1.235 -0.6332 -0.0876 -0.8154
  697MOL0     C93991   6.043   3.119   1.253  0.1538 -0.2314  0.8000
  697MOL0     C93992   6.112   3.127   1.373  0.0232 -0.4094  0.5038
  697MOL0     C93993   6.250   3.166   1.380 -0.3627  0.3791 -0.0443
  697MOL0     C93994   6.324   3.192   1.266  0.0806  0.2553  0.1410
  697MOL0     O93995   6.458   3.226   1.262  0.2995 -0.2578  0.1813
  697MOL0     C93996   6.539   3.186   1.372 -0.7536 -0.2881 -0.7336
  697MOL0     C93997   6.686   3.180   1.349 -1.1327  0.0143 -0.1102
  697MOL0     C93998   6.744   3.296   1.277  0.7543 -0.0029  0.7116
  697MOL0     C93999   6.883   3.330   1.289 -0.4811  0.1591 -0.7203
  697MOL0     C94000   6.981   3.229   1.231 -0.5299  0.0809  0.7323
  697MOL0     C94001   7.122   3.260   1.264 -1.0491  0.8217  0.4089
  697MOL0     C94002   7.227   3.168   1.199 -0.6143 -1.2661 -0.0116
  697MOL0     C94003   7.372   3.206   1.207  0.6417 -0.3829 -0.0626
  697MOL0    Cl94004   7.390   3.358   1.124  0.1320  0.4127  0.4446
  697MOL0     C94005   6.249   3.179   1.145  0.8691 -0.0733  0.0332
  697MOL0     C94006   6.114   3.135   1.136 -0.3607 -0.1989 -0.1932
  697MOL0     O94007   5.938   2.857   1.278 -0.3362  0.3430 -0.1320
  697MOL0     C94008   5.632   3.050   1.257  0.6260 -0.2862  0.0925
  697MOL0     C94009   5.493   3.030   1.241  0.0056 -0.5590 -0.2474
  697MOL0     N94010   4.805   2.877   1.481 -0.1321 -1.1155 -1.2224
  697MOL0     N94011   4.714   2.900   1.569 -0.2886 -0.3760  0.0214
  697MOL0     C94012   3.707   2.274   1.284 -0.1461 -0.0886 -0.1277
  697MOL0     C94013   3.582   2.231   1.248  0.8802  0.2185 -0.1122
  697MOL0     C94014   3.130   2.191   1.224  0.0864 -0.5224 -0.0160
  697MOL0     C94015   3.083   2.067   1.258  0.0322 -0.3931  0.0385
  697MOL0     C94016   2.954   2.032   1.212 -1.5371  0.1820 -0.6467
  697MOL0     C94017   2.871   2.119   1.142 -0.5093 -0.4633  0.4203
  697MOL0     O94018   2.748   2.073   1.107 -1.1835  0.0206  0.2530
  697MOL0     C94019   2.637   2.162   1.094 -0.4991 -1.0906  0.4545
  697MOL0     C94020   2.511   2.076   1.065 -0.0121 -0.4219 -0.6539
  697MOL0     C94021   2.394   2.174   1.023 -0.1721  0.0240  0.9106
  697MOL0     C94022   2.333   2.260   1.130  0.0580 -0.4139  0.6921
  697MOL0     C94023   2.210   2.315   1.081  0.3892  0.6656  0.4620
  697MOL0     C94024   2.095   2.345   1.045 -0.4081 -0.1796  0.4210
  697MOL0     C94025   2.921   2.241   1.104 -0.0325 -0.3342  0.5347
  697MOL0     C94026   3.048   2.282   1.141 -0.0431 -0.1234 -0.4170
  697MOL0     C94027   3.083   2.432   1.109  0.1780 -0.3893  0.8353
  697MOL0     H94028   3.410   2.531   1.297 -2.2434 -1.5922  0.0773
  697MOL0     H94029   3.633   2.586   1.377  1.1856  1.0678 -1.4538
  697MOL0     H94030   3.882   2.629   1.317 -0.1377  0.1410  0.0925
  697MOL0     H94031   3.815   2.630   1.478 -1.2033 -1.2419 -0.5771
  697MOL0     H94032   4.087   2.534   1.402 -1.0928  0.4156 -1.5457
  697MOL0     H94033   4.020   2.550   1.572 -0.6538 -0.5395 -0.7358
  697MOL0     H94034   3.989   2.798   1.498 -1.3280  0.2886 -1.7402
  697MOL0     H94035   4.101   2.763   1.363  0.2621 -2.8570 -0.5310
  697MOL0     H94036   4.184   2.745   1.656  1.1410  1.2174  0.9009
  697MOL0     H94037   4.285   2.706   1.522  0.9952 -0.6607  3.8486
  697MOL0     H94038   4.249   2.938   1.428  0.3920  0.2196  0.0023
  697MOL0     H94039   4.169   2.980   1.571  0.0583  0.9076 -0.3382
  697MOL0     H94040   4.370   2.896   1.718  2.0139  1.9371 -0.7666
  697MOL0     H94041   4.441   2.847   1.560 -0.8276  0.4005 -2.5859
  697MOL0     H94042   4.362   3.123   1.683  1.4877  0.2999  0.4512
  697MOL0     H94043   4.395   3.119   1.505 -1.0059  0.8436  0.8737
  697MOL0     H94044   4.591   3.209   1.618  2.5903 -0.1858  1.3003
  697MOL0     H94045   4.599   3.073   1.726  1.4938  0.2463 -0.3888
  697MOL0     H94046   4.674   3.163   1.375  1.5622 -0.0371 -0.2548
  697MOL0     H94047   4.851   2.949   1.166 -1.1398 -0.5015  1.0203
  697MOL0     H94048   4.915   3.093   1.248 -0.8092  1.0369  0.5421
  697MOL0     H94049   5.083   2.986   1.343  0.0028 -0.8153  1.1544
  697MOL0     H94050   5.001   2.825   1.336  0.5860 -0.8622 -0.7643
  697MOL0     H94051   5.028   2.928   1.058 -1.7243  0.0824  0.8182
  697MOL0     H94052   5.084   2.780   1.153  0.8396  0.6345  0.6274
  697MOL0     H94053   5.230   3.055   1.162  1.6523 -0.2449 -1.9483
  697MOL0     H94054   5.266   2.965   1.035 -0.7414  0.4022 -0.4444
  697MOL0     H94055   5.491   2.692   1.265  1.1260 -0.2826  3.7736
  697MOL0     H94056   5.737   2.729   1.268  1.6884  1.2445 -1.1640
  697MOL0     H94057   6.057   3.112   1.465  0.4730  2.4606  1.3617
  697MOL0     H94058   6.299   3.188   1.474  1.3021 -0.0619 -0.7532
  697MOL0     H94059   6.512   3.259   1.448 -1.0464  1.3122 -2.3044
  697MOL0     H94060   6.512   3.086   1.407  0.3938  0.0190  1.1701
  697MOL0     H94061   6.744   3.151   1.437 -0.1625  1.2077 -0.3144
  697MOL0     H94062   6.709   3.093   1.287  0.9089 -0.6202  1.3897
  697MOL0     H94063   6.716   3.295   1.171  1.2688  1.1951  0.5539
  697MOL0     H94064   6.686   3.378   1.320 -1.0504 -1.4263  1.1527
  697MOL0     H94065   6.905   3.340   1.396 -0.6002 -0.1972 -0.6610
  697MOL0     H94066   6.905   3.418   1.229 -0.3545 -0.2999 -1.3621
  697MOL0     H94067   6.954   3.209   1.127 -0.6463 -0.7302  0.9054
  697MOL0     H94068   6.961   3.132   1.279 -0.3777 -0.8363 -0.9753
  697MOL0     H94069   7.144   3.364   1.238 -3.3599  0.8232 -1.9415
  697MOL0     H94070   7.139   3.245   1.371 -3.6531 -1.1613  0.6340
  697MOL0     H94071   7.205   3.165   1.092 -0.2769  0.9194 -0.1910
  697MOL0     H94072   7.212   3.065   1.233 -3.1240 -2.0046 -2.9747
  697MOL0     H94073   7.393   3.221   1.313 -0.4601 -2.6207  0.5403
  697MOL0     H94074   7.436   3.129   1.163  2.4120  1.1349 -0.2394
  697MOL0     H94075   6.290   3.206   1.048 -1.2939  0.7064 -0.7038
  697MOL0     H94076   6.060   3.136   1.042 -1.6680  0.5518  0.5387
  697MOL0     H94077   5.672   3.151   1.256 -0.9200  0.3841 -2.2158
  697MOL0     H94078   5.426   3.115   1.245  1.3177  0.5105 -0.3250
  697MOL0     H94079   3.791   2.206   1.284  0.4577  0.4925  3.1242
  697MOL0     H94080   3.569   2.127   1.220 -2.0178  0.5843 -0.4382
  697MOL0     H94081   3.135   1.987   1.312 -0.5539 -1.0664 -0.3799
  697MOL0     H94082   2.917   1.932   1.231  1.0086 -0.5142  1.2786
  697MOL0     H94083   2.656   2.221   1.003 -1.3373  1.0892  1.6289
  697MOL0     H94084   2.641   2.225   1.183  2.1749 -0.4453 -0.0066
  697MOL0     H94085   2.491   2.025   1.160 -0.2626 -0.2947 -0.6378
  697MOL0     H94086   2.524   2.009   0.980 -1.7022  0.9622 -2.0923
  697MOL0     H94087   2.316   2.116   0.973  0.4422  0.1193 -0.1858
  697MOL0     H94088   2.427   2.250   0.951  0.0266  2.4547  3.4093
  697MOL0     H94089   2.325   2.202   1.223  0.0906 -2.4362 -0.4986
  697MOL0     H94090   2.396   2.347   1.150  0.4794 -1.0154  2.1418
  697MOL0     H94091   2.010   2.393   1.000  0.7190  0.6065 -0.9610
  697MOL0     H94092   2.861   2.306   1.040 -1.2909  2.3397  4.0503
  697MOL0     H94093   3.100   2.481   1.205  4.5369 -2.1013  1.1367
  697MOL0     H94094   3.169   2.450   1.044 -0.3980  0.0382  0.1695
  697MOL0     H94095   2.993   2.475   1.062  0.5697 -0.5566 -0.0833
  698MOL0     O94096   3.902   8.945   3.713 -0.9983  0.4813  0.1451
  698MOL0     C94097   3.796   8.901   3.682  0.8394  0.3684  1.2208
  698MOL0     O94098   3.689   8.980   3.666 -0.6590  0.0390  0.6179
  698MOL0     C94099   3.573   8.932   3.623 -0.6273  0.5485 -0.4348
  698MOL0     C94100   3.486   8.910   3.722  0.6334 -0.5721  0.5304
  698MOL0     C94101   3.357   8.847   3.701  0.2403 -0.0535  0.7894
  698MOL0     C94102   3.324   8.814   3.566 -0.2085 -0.2142 -0.9401
  698MOL0     O94103   3.197   8.770   3.526 -0.0717 -0.3468  0.4658
  698MOL0     C94104   3.087   8.815   3.595  0.5988  0.0468  0.1578
  698MOL0     C94105   2.962   8.773   3.522  0.8939  1.1562  0.1757
  698MOL0     C94106   2.913   8.852   3.404  0.5390 -0.3474 -0.2591
  698MOL0     C94107   2.792   8.780   3.336 -0.1066 -0.3929  0.3621
  698MOL0     C94108   2.748   8.856   3.215  0.6030  0.2138 -0.2326
  698MOL0     C94109   2.606   8.816   3.164  0.1270 -0.3492  0.5160
  698MOL0     C94110   2.538   8.919   3.073  0.4838 -0.1510  0.1692
  698MOL0     C94111   2.399   8.884   3.019 -0.6530  1.0328 -0.0324
  698MOL0     N94112   2.298   8.859   3.123 -0.4324  0.2534 -0.0819
  698MOL0     C94113   2.189   8.938   3.146  0.5370  0.5984 -0.1987
  698MOL0     C94114   2.124   8.876   3.248 -0.7091  0.2605 -0.6512
  698MOL0     C94115   1.998   8.921   3.305 -0.2442  0.2682 -0.1475
  698MOL0     C94116   2.021   9.004   3.429  0.6863 -0.0211 -0.7235
  698MOL0     C94117   1.885   9.052   3.497 -0.1898  0.3358 -0.1805
  698MOL0     C94118   1.908   9.079   3.645  0.7432  0.5100 -0.0821
  698MOL0     O94119   1.775   9.095   3.705  0.5590  0.3230 -0.3933
  698MOL0     C94120   1.709   9.212   3.680  1.0041 -0.2174 -0.0138
  698MOL0     C94121   1.749   9.343   3.711 -0.9000  0.7210 -0.2244
  698MOL0     C94122   1.672   9.460   3.695 -0.1000  0.3812 -0.0207
  698MOL0     C94123   1.541   9.445   3.643  0.0805 -0.0208 -0.0969
  698MOL0     C94124   1.450   9.554   3.622 -0.1870  0.2158  0.4142
  698MOL0     O94125   1.324   9.526   3.571 -0.3091  0.6163  0.9231
  698MOL0     C94126   1.234   9.634   3.574 -0.0302  1.0747  0.2214
  698MOL0     C94127   1.177   9.674   3.698 -0.1697  0.5229  0.3059
  698MOL0     C94128   1.091   9.782   3.690  0.6128  0.2793  0.5276
  698MOL0     C94129   1.071   9.858   3.576 -0.9492 -0.1344  0.2737
  698MOL0     O94130   0.983   9.963   3.589  0.0419  0.1712  0.0902
  698MOL0     C94131   0.935  10.042   3.481  0.7747  1.1343  0.6663
  698MOL0     C94132   0.871  10.164   3.541  0.3148  0.2634  0.2567
  698MOL0     C94133   0.836  10.282   3.441 -0.0697  1.2709 -0.3745
  698MOL0     C94134   0.717  10.381   3.486 -0.2825 -0.0886  0.3106
  698MOL0     C94135   0.628  10.420   3.363 -0.0988  0.0064 -0.0970
  698MOL0     C94136   0.513  10.504   3.416 -0.2470  0.4303  0.1602
  698MOL0     C94137   0.422  10.540   3.297 -0.2721  0.4813  0.2547
  698MOL0     C94138   0.344  10.662   3.327  0.8027 -0.0227 -0.4375
  698MOL0    Cl94139   0.252  10.635   3.479 -0.0011  0.0512 -0.3229
  698MOL0     C94140   1.145   9.831   3.456 -0.5235  0.3341 -0.1368
  698MOL0     C94141   1.222   9.706   3.457 -0.3622 -0.2536  0.0587
  698MOL0     O94142   1.483   9.664   3.664  0.5642 -0.3186  0.5719
  698MOL0     C94143   1.502   9.316   3.609 -0.8136  0.6588  0.5609
  698MOL0     C94144   1.575   9.201   3.642 -0.2232 -0.0779  0.4332
  698MOL0     N94145   2.191   8.761   3.279 -0.1178  0.5333  0.0965
  698MOL0     N94146   2.294   8.749   3.203 -0.4066 -0.1811  0.1265
  698MOL0     C94147   3.416   8.834   3.469  0.1395  0.0975  1.1759
  698MOL0     C94148   3.538   8.898   3.488 -0.0048 -0.1423 -0.1823
  698MOL0     C94149   3.783   8.754   3.664 -0.1457  0.0811  0.3488
  698MOL0     C94150   3.715   8.669   3.747  0.4072  0.2622  0.1855
  698MOL0     C94151   3.741   8.532   3.742 -0.2166  0.3291  0.3871
  698MOL0     C94152   3.803   8.467   3.635 -0.2777  0.3886  0.5410
  698MOL0     O94153   3.814   8.335   3.654  0.2376 -0.6476 -0.8048
  698MOL0     C94154   3.839   8.247   3.546  0.0725  0.0541  0.0660
  698MOL0     C94155   3.698   8.186   3.523 -0.4072 -0.4275 -0.0193
  698MOL0     C94156   3.674   8.141   3.372 -0.5792  0.1688 -0.1611
  698MOL0     C94157   3.779   8.032   3.332 -0.2859  1.0753 -0.4033
  698MOL0     C94158   3.780   7.907   3.413  0.1942  0.6175 -0.4510
  698MOL0     C94159   3.782   7.801   3.473 -0.6471 -0.8554 -0.7088
  698MOL0     C94160   3.884   8.556   3.553 -0.1927 -0.4523  0.0247
  698MOL0     C94161   3.855   8.692   3.556 -0.9238  0.0554  0.5423
  698MOL0     C94162   3.922   8.774   3.453 -1.0484 -0.4115  1.0852
  698MOL0     H94163   3.500   8.941   3.825  0.6151  1.2966  0.0024
  698MOL0     H94164   3.294   8.818   3.785  1.1305 -2.8895  0.6079
  698MOL0     H94165   3.102   8.771   3.694  0.9513  0.7980  0.4480
  698MOL0     H94166   3.091   8.924   3.604  1.1242 -0.1193  2.5991
  698MOL0     H94167   2.883   8.765   3.597  2.4352 -2.0538  1.6099
  698MOL0     H94168   2.979   8.671   3.487 -1.1600  1.8585 -3.4735
  698MOL0     H94169   2.998   8.869   3.337  1.9961  0.6783  1.7273
  698MOL0     H94170   2.888   8.954   3.435 -2.3497 -0.7916 -0.9010
  698MOL0     H94171   2.830   8.692   3.284  3.9071  2.9492 -3.1366
  698MOL0     H94172   2.706   8.774   3.404 -1.0443  0.2337 -0.7483
  698MOL0     H94173   2.755   8.963   3.237 -3.4926  0.7169 -0.5959
  698MOL0     H94174   2.818   8.840   3.132  0.0629  1.5092 -0.9804
  698MOL0     H94175   2.611   8.713   3.127 -1.0406 -1.3264  2.8697
  698MOL0     H94176   2.547   8.813   3.256 -0.4673 -1.4205  0.1264
  698MOL0     H94177   2.590   8.940   2.979  1.4612 -1.2208  0.4518
  698MOL0     H94178   2.542   9.013   3.129 -0.4529 -0.6558  1.0903
  698MOL0     H94179   2.352   8.960   2.956  1.0956  2.8325  0.7431
  698MOL0     H94180   2.416   8.800   2.951  0.6098 -1.0400  2.6261
  698MOL0     H94181   2.165   9.038   3.112 -0.2927  1.4368  2.6182
  698MOL0     H94182   1.936   8.983   3.239 -0.4282  1.4421  1.0823
  698MOL0     H94183   1.947   8.833   3.346 -0.3900  1.9777  3.8540
  698MOL0     H94184   2.067   8.942   3.506 -1.0464 -0.5883 -0.0870
  698MOL0     H94185   2.090   9.085   3.405  1.0467 -0.2192 -0.3708
  698MOL0     H94186   1.820   8.965   3.483 -0.1075 -0.1287  1.9515
  698MOL0     H94187   1.843   9.139   3.446 -0.7386 -1.0528 -2.2388
  698MOL0     H94188   1.965   9.172   3.658  1.8210 -0.1827  0.2532
  698MOL0     H94189   1.967   8.999   3.690  0.6876 -0.3802 -1.5310
  698MOL0     H94190   1.847   9.345   3.756 -1.2250  1.2500  0.4922
  698MOL0     H94191   1.725   9.555   3.703  1.7039 -0.4429 -1.6159
  698MOL0     H94192   1.177   9.609   3.784 -1.6407 -2.4723 -1.7871
  698MOL0     H94193   1.022   9.814   3.768 -1.3779 -1.8350 -0.2348
  698MOL0     H94194   1.010  10.069   3.406  0.2677 -0.1223 -0.3403
  698MOL0     H94195   0.850   9.987   3.439  1.1522  1.3782 -0.4502
  698MOL0     H94196   0.785  10.131   3.601  0.1841 -0.9361 -0.5591
  698MOL0     H94197   0.944  10.200   3.614 -0.0804 -1.2117  1.4199
  698MOL0     H94198   0.931  10.335   3.433  1.7722 -1.5734  1.0901
  698MOL0     H94199   0.807  10.241   3.344 -1.8414  0.1239  0.5893
  698MOL0     H94200   0.770  10.468   3.524  1.8140 -0.4315 -1.5797
  698MOL0     H94201   0.664  10.338   3.572 -0.2176  0.6023  0.6947
  698MOL0     H94202   0.587  10.334   3.310 -1.1492 -0.9196  2.0787
  698MOL0     H94203   0.688  10.480   3.294  2.1838 -1.4802  0.4847
  698MOL0     H94204   0.454  10.441   3.483  0.0076 -0.2310 -0.2261
  698MOL0     H94205   0.552  10.582   3.481  4.2639 -2.4334  1.3277
  698MOL0     H94206   0.357  10.455   3.275  1.1556 -0.6435  0.2221
  698MOL0     H94207   0.471  10.556   3.201 -0.3206  0.6562  0.2587
  698MOL0     H94208   0.403  10.754   3.323  0.4201  0.1680 -2.6241
  698MOL0     H94209   0.270  10.677   3.248  0.1669  0.0599  0.1666
  698MOL0     H94210   1.132   9.883   3.362  3.8568  3.1256  0.5079
  698MOL0     H94211   1.278   9.675   3.370 -0.9555  3.6176 -1.9032
  698MOL0     H94212   1.411   9.277   3.563  0.1484 -1.9030  0.6465
  698MOL0     H94213   1.526   9.105   3.627  2.0073 -1.0733 -0.9583
  698MOL0     H94214   3.381   8.808   3.369  0.0449  0.6841  1.0544
  698MOL0     H94215   3.615   8.905   3.411 -0.3798  1.2808 -0.4610
  698MOL0     H94216   3.660   8.706   3.834  2.6781  0.4716  1.6369
  698MOL0     H94217   3.689   8.474   3.817 -3.0006  3.7185  1.3771
  698MOL0     H94218   3.912   8.175   3.584 -1.1440 -0.8558  0.7225
  698MOL0     H94219   3.880   8.300   3.460  1.2165  1.5449  1.4600
  698MOL0     H94220   3.618   8.261   3.530  0.9229  1.6596 -4.0448
  698MOL0     H94221   3.680   8.099   3.587 -3.3368 -0.0452 -0.1662
  698MOL0     H94222   3.693   8.228   3.309 -2.8146  0.6457 -0.2560
  698MOL0     H94223   3.573   8.100   3.356 -0.3800  0.5169 -2.6635
  698MOL0     H94224   3.781   8.006   3.226  3.2604 -3.1346  0.3831
  698MOL0     H94225   3.875   8.082   3.344 -0.4590  1.3028  0.0450
  698MOL0     H94226   3.802   7.714   3.533  2.7554  0.4441  0.2735
  698MOL0     H94227   3.957   8.509   3.489 -1.9668 -2.1068 -0.8664
  698MOL0     H94228   3.884   8.748   3.354 -1.8629  0.0354  1.2710
  698MOL0     H94229   3.897   8.880   3.461 -1.5639 -0.4596  0.2354
  698MOL0     H94230   4.028   8.749   3.454 -1.4921 -2.7250 -0.1611
  699MOL0     O94231   0.607   6.066   0.376  0.3215  0.5629  0.3107
  699MOL0     C94232   0.594   6.099   0.496 -0.1579 -0.3686  1.0110
  699MOL0     O94233   0.695   6.129   0.576  0.5946 -0.7822 -0.5982
  699MOL0     C94234   0.819   6.153   0.523  0.1411 -0.0469  0.5220
  699MOL0     C94235   0.944   6.098   0.580  0.1606  0.0171 -0.6279
  699MOL0     C94236   1.075   6.141   0.544  0.6966  0.0484 -0.2552
  699MOL0     C94237   1.085   6.236   0.443 -0.3705 -0.6173 -0.1385
  699MOL0     O94238   1.197   6.299   0.401 -0.2624  0.1777 -0.1590
  699MOL0     C94239   1.318   6.267   0.478  0.8043 -0.6622 -0.3812
  699MOL0     C94240   1.432   6.361   0.418  0.0755  0.6029  0.2629
  699MOL0     C94241   1.573   6.304   0.455  0.2640  0.1931  0.2619
  699MOL0     C94242   1.668   6.378   0.368 -0.0711  0.4424 -0.4777
  699MOL0     C94243   1.807   6.332   0.408  0.9529 -0.7488  0.9798
  699MOL0     C94244   1.846   6.200   0.334  0.5078  0.1564 -0.2681
  699MOL0     C94245   1.981   6.153   0.370  0.3672  0.7521  0.3974
  699MOL0     C94246   2.014   6.022   0.301 -0.1464  0.1728 -0.0014
  699MOL0     N94247   2.164   5.997   0.310  1.2078  0.3507  0.4183
  699MOL0     C94248   2.259   6.081   0.273 -0.0300  0.4897  0.4710
  699MOL0     C94249   2.378   6.035   0.328  1.6035  0.2429 -0.1908
  699MOL0     C94250   2.515   6.099   0.309 -0.3565  1.3230  0.8687
  699MOL0     C94251   2.610   6.099   0.429  0.8684 -0.2721  0.3181
  699MOL0     C94252   2.638   5.954   0.472 -0.3863 -0.3572 -0.0210
  699MOL0     C94253   2.766   5.952   0.547 -0.3515  0.6613  0.0478
  699MOL0     O94254   2.771   5.812   0.584  0.1182 -0.0829 -0.0733
  699MOL0     C94255   2.695   5.767   0.696 -0.0380 -0.6820  0.4152
  699MOL0     C94256   2.674   5.629   0.714  0.2671 -0.2090  0.6492
  699MOL0     C94257   2.602   5.566   0.811 -0.3494  0.6090  0.0553
  699MOL0     C94258   2.547   5.632   0.914  0.3479 -0.9154 -0.0595
  699MOL0     C94259   2.456   5.570   1.011  0.2903 -0.4609  0.3232
  699MOL0     O94260   2.439   5.435   0.992  0.7419 -0.5669 -0.0292
  699MOL0     C94261   2.365   5.372   1.083  0.0334  1.0013 -0.2645
  699MOL0     C94262   2.231   5.345   1.067 -0.1683  0.2903 -0.0859
  699MOL0     C94263   2.174   5.264   1.163 -0.0021  1.1660  0.0551
  699MOL0     C94264   2.247   5.201   1.269 -0.0130  0.3185 -0.3626
  699MOL0     O94265   2.168   5.124   1.351 -0.2165  0.2488 -0.2437
  699MOL0     C94266   2.227   5.043   1.449 -0.5176 -0.1591  0.3977
  699MOL0     C94267   2.099   4.964   1.499 -0.4586 -0.1491  0.4701
  699MOL0     C94268   2.132   4.813   1.522 -0.1230 -0.0655 -1.3057
  699MOL0     C94269   2.019   4.749   1.604 -0.1555  0.3881 -0.0757
  699MOL0     C94270   2.047   4.605   1.644 -0.1115 -0.0019  0.2307
  699MOL0     C94271   1.922   4.523   1.701 -0.6172 -0.6674  0.9583
  699MOL0     C94272   1.956   4.380   1.726 -0.6835  0.0151 -0.4119
  699MOL0     C94273   1.841   4.294   1.754  0.3908 -0.5411  0.5126
  699MOL0    Cl94274   1.726   4.265   1.620 -0.2879  0.3674 -0.2160
  699MOL0     C94275   2.374   5.228   1.284  0.1401 -0.2757  0.5739
  699MOL0     C94276   2.436   5.314   1.193 -0.6898 -0.1484 -0.3680
  699MOL0     O94277   2.417   5.634   1.104 -0.3370  0.1982  0.0422
  699MOL0     C94278   2.564   5.772   0.911 -0.1825  0.1885  0.0491
  699MOL0     C94279   2.627   5.842   0.801 -0.5322  0.0125  0.8272
  699MOL0     N94280   2.331   5.918   0.394 -0.7334 -0.4378  0.0064
  699MOL0     N94281   2.213   5.887   0.377  0.2809  0.3819  0.1794
  699MOL0     C94282   0.969   6.285   0.386 -0.5327 -1.3057  0.2478
  699MOL0     C94283   0.841   6.249   0.424  0.0398 -0.2312  0.4463
  699MOL0     C94284   0.464   6.095   0.560 -0.8948  0.5454 -0.9288
  699MOL0     C94285   0.454   6.059   0.700 -0.1748  0.1789  0.1090
  699MOL0     C94286   0.338   6.069   0.770  0.0086  0.1120 -0.1552
  699MOL0     C94287   0.217   6.090   0.694  0.5669 -0.4891  0.0614
  699MOL0     O94288   0.101   6.068   0.759 -0.2111  0.1141  0.1400
  699MOL0     C94289   0.026   5.953   0.705  0.0379 -0.3771 -0.3387
  699MOL0     C94290  -0.128   5.977   0.706 -0.0650 -0.0957  0.4843
  699MOL0     C94291  -0.186   6.003   0.844  0.2209  0.6768 -0.4996
  699MOL0     C94292  -0.335   5.990   0.846 -0.1035 -0.0419  0.2959
  699MOL0     C94293  -0.397   5.859   0.857  0.2337 -0.0929 -0.3992
  699MOL0     C94294  -0.464   5.754   0.871  0.0184  0.3798  0.4535
  699MOL0     C94295   0.226   6.139   0.563  0.1350 -0.0793  0.0046
  699MOL0     C94296   0.340   6.134   0.489  0.0581 -0.3875  0.3870
  699MOL0     C94297   0.335   6.170   0.353  0.2992 -0.0280 -0.0921
  699MOL0     H94298   0.928   6.024   0.657 -1.0977  2.4391  1.6087
  699MOL0     H94299   1.156   6.088   0.593 -0.4591  1.3133  3.4080
  699MOL0     H94300   1.297   6.290   0.583 -1.4590  0.8568 -1.0911
  699MOL0     H94301   1.348   6.162   0.478  1.8614 -0.3878  0.9078
  699MOL0     H94302   1.408   6.462   0.452 -0.5034  0.8823 -0.9136
  699MOL0     H94303   1.427   6.362   0.308 -3.5608  1.7733  0.3193
  699MOL0     H94304   1.577   6.199   0.427  1.7694  0.5051 -0.8272
  699MOL0     H94305   1.595   6.324   0.560 -2.4755  1.3527  0.7131
  699MOL0     H94306   1.642   6.341   0.268  0.7895  0.6701 -0.7958
  699MOL0     H94307   1.648   6.484   0.384 -0.3502  0.3206  0.0145
  699MOL0     H94308   1.878   6.404   0.366  0.1417  0.4961  1.6711
  699MOL0     H94309   1.826   6.337   0.516  0.6252  0.6097  0.9963
  699MOL0     H94310   1.789   6.111   0.359  1.6799 -0.9626 -1.4461
  699MOL0     H94311   1.820   6.216   0.229 -1.6242  2.7444  0.5164
  699MOL0     H94312   1.983   6.128   0.477 -2.0955 -1.7152  0.0016
  699MOL0     H94313   2.059   6.226   0.347  6.3915 -4.6966  0.7121
  699MOL0     H94314   1.963   5.938   0.349  0.6040  0.7923  1.9815
  699MOL0     H94315   1.976   6.021   0.198  0.5228 -0.1938 -0.2518
  699MOL0     H94316   2.262   6.177   0.222  3.4949 -0.0024 -0.5208
  699MOL0     H94317   2.570   6.052   0.226 -0.0257  3.1190  0.0104
  699MOL0     H94318   2.486   6.197   0.269  1.7796  1.6411 -0.0934
  699MOL0     H94319   2.703   6.151   0.404  1.9186 -0.4052  3.4778
  699MOL0     H94320   2.558   6.160   0.504  0.5642  2.4519 -1.9555
  699MOL0     H94321   2.644   5.877   0.395  2.3804  0.4480 -0.7494
  699MOL0     H94322   2.559   5.941   0.545 -1.9233  0.3948 -1.4754
  699MOL0     H94323   2.770   6.018   0.634  4.7191 -1.7746  2.0719
  699MOL0     H94324   2.846   5.983   0.479 -0.3745  0.8744  0.1189
  699MOL0     H94325   2.725   5.568   0.640  1.2582  0.8902  0.3812
  699MOL0     H94326   2.584   5.459   0.800  1.8989  0.0178  1.5029
  699MOL0     H94327   2.166   5.377   0.986 -1.1639  1.3762  1.1186
  699MOL0     H94328   2.071   5.233   1.151  0.0985 -0.2991  2.4145
  699MOL0     H94329   2.298   4.976   1.400 -0.0928 -0.4201  1.3493
  699MOL0     H94330   2.277   5.092   1.533 -1.5728 -0.7090  1.3775
  699MOL0     H94331   2.057   5.012   1.588 -1.8964 -1.7162  0.6998
  699MOL0     H94332   2.015   4.968   1.428 -0.6140  2.2422  0.6950
  699MOL0     H94333   2.136   4.764   1.424  0.0513  1.5562 -2.1474
  699MOL0     H94334   2.224   4.802   1.580 -3.4144 -0.3225  4.7287
  699MOL0     H94335   1.928   4.754   1.543 -0.0707 -1.1382 -0.3679
  699MOL0     H94336   1.999   4.811   1.691  1.0788  0.5689  0.0975
  699MOL0     H94337   2.125   4.611   1.720 -0.6366 -1.5204  0.9277
  699MOL0     H94338   2.080   4.547   1.557 -0.0011  2.1785 -1.2573
  699MOL0     H94339   1.886   4.576   1.790  1.6644 -0.4170  1.7875
  699MOL0     H94340   1.837   4.530   1.632 -2.2824 -0.0979  2.9914
  699MOL0     H94341   2.019   4.368   1.815 -0.2443  0.5331 -0.6515
  699MOL0     H94342   2.011   4.326   1.648  0.4172 -1.8827  1.5744
  699MOL0     H94343   1.861   4.196   1.797 -2.1458 -0.1487  2.8991
  699MOL0     H94344   1.791   4.354   1.831 -0.6615 -0.6736 -0.0468
  699MOL0     H94345   2.432   5.185   1.366 -1.2596  0.4435  1.9960
  699MOL0     H94346   2.544   5.326   1.192 -0.7969  0.9720 -1.6155
  699MOL0     H94347   2.517   5.844   0.978 -0.7505  0.2320 -0.3834
  699MOL0     H94348   2.620   5.951   0.796 -0.4253 -0.0183 -0.4948
  699MOL0     H94349   0.985   6.369   0.318 -3.2135  1.6414  2.9343
  699MOL0     H94350   0.752   6.293   0.381  1.0241  1.0900 -0.3209
  699MOL0     H94351   0.544   6.034   0.755 -2.0304 -1.6258  2.5381
  699MOL0     H94352   0.345   6.044   0.875  0.8705 -0.6689 -0.3807
  699MOL0     H94353   0.052   5.865   0.764 -1.5090 -1.2316 -0.8861
  699MOL0     H94354   0.056   5.938   0.601 -1.1412  2.3084 -1.1615
  699MOL0     H94355  -0.183   5.901   0.651 -2.9479 -0.0035  2.9364
  699MOL0     H94356  -0.132   6.073   0.654  2.6496 -0.1209  0.0859
  699MOL0     H94357  -0.167   6.107   0.875 -0.6661  0.4258  1.0235
  699MOL0     H94358  -0.135   5.935   0.914 -1.7977 -0.1371  0.2542
  699MOL0     H94359  -0.378   6.042   0.933 -2.1069 -2.4459  0.8805
  699MOL0     H94360  -0.377   6.040   0.759 -0.3263 -0.9220 -0.1126
  699MOL0     H94361  -0.517   5.661   0.876 -1.9875  1.5030  1.0543
  699MOL0     H94362   0.134   6.154   0.508 -0.0397 -3.3744 -0.7717
  699MOL0     H94363   0.421   6.225   0.314  0.2465  1.2546  1.5444
  699MOL0     H94364   0.315   6.082   0.290  3.4596  0.0067 -1.3274
  699MOL0     H94365   0.245   6.231   0.343 -1.2974 -2.2978 -0.2925
  700MOL0     O94366   3.938  10.194   1.892 -0.1185 -0.4603  0.5612
  700MOL0     C94367   3.966  10.291   1.961 -0.4778  0.5647  0.4588
  700MOL0     O94368   3.882  10.382   2.009  0.7807  0.2484  0.3354
  700MOL0     C94369   3.749  10.377   1.991 -0.3018  0.1580 -0.1243
  700MOL0     C94370   3.691  10.381   1.857 -0.0620 -0.5534 -0.7808
  700MOL0     C94371   3.553  10.411   1.845  0.1489  0.9961  0.3220
  700MOL0     C94372   3.473  10.418   1.961  0.5305  0.0567 -0.2888
  700MOL0     O94373   3.335  10.441   1.964 -0.7550  0.3825  0.6776
  700MOL0     C94374   3.257  10.437   1.846  0.1708 -0.4172  0.9298
  700MOL0     C94375   3.139  10.545   1.862 -0.1093  0.2952  0.9749
  700MOL0     C94376   3.013  10.517   1.955  0.3359 -0.3455  0.5799
  700MOL0     C94377   2.903  10.617   1.918 -0.3776 -0.0302  0.0815
  700MOL0     C94378   2.768  10.579   1.986 -0.0422 -0.2980 -0.6182
  700MOL0     C94379   2.670  10.690   1.971 -0.4998  0.1384  0.3377
  700MOL0     C94380   2.524  10.667   2.002 -0.1424 -0.5137  0.3330
  700MOL0     C94381   2.434  10.722   1.889 -0.4591 -0.4413  0.0892
  700MOL0     N94382   2.294  10.702   1.927 -0.7397  0.2012 -1.1397
  700MOL0     C94383   2.212  10.649   1.830  0.7159 -0.4414  0.2925
  700MOL0     C94384   2.086  10.646   1.884 -0.7544 -0.0707 -0.3307
  700MOL0     C94385   1.958  10.628   1.807  0.7669 -0.0495  0.1986
  700MOL0     C94386   1.844  10.584   1.900  1.0544 -0.0567  0.8147
  700MOL0     C94387   1.706  10.640   1.853  0.1892  0.2775  0.3284
  700MOL0     C94388   1.654  10.636   1.712 -0.4201 -0.9550 -0.1322
  700MOL0     O94389   1.510  10.644   1.709 -0.2846 -0.2136  0.3169
  700MOL0     C94390   1.439  10.653   1.591  0.5931 -0.1686 -0.1030
  700MOL0     C94391   1.484  10.742   1.487  0.6812 -0.3313 -0.0591
  700MOL0     C94392   1.397  10.752   1.371 -0.2473  0.3987 -0.1745
  700MOL0     C94393   1.262  10.695   1.364  0.7976 -0.1298  0.5954
  700MOL0     C94394   1.163  10.743   1.269 -0.6608  0.0009 -0.3612
  700MOL0     O94395   1.057  10.658   1.247 -0.1527  0.1100  0.5701
  700MOL0     C94396   0.978  10.685   1.130  1.2206 -0.5576  0.1734
  700MOL0     C94397   0.993  10.601   1.020  0.2721  0.4211 -0.1095
  700MOL0     C94398   0.928  10.629   0.904  0.8158 -0.6206 -0.2596
  700MOL0     C94399   0.851  10.744   0.892  0.0628 -0.3732 -0.8042
  700MOL0     O94400   0.791  10.762   0.772 -0.2565 -0.1401  0.2505
  700MOL0     C94401   0.697  10.656   0.740 -0.1654 -0.9348  0.0399
  700MOL0     C94402   0.727  10.588   0.603  0.9097 -0.1174  0.2973
  700MOL0     C94403   0.735  10.688   0.481 -0.5674 -0.2432  0.5063
  700MOL0     C94404   0.790  10.624   0.359  0.1293 -0.3033 -0.0301
  700MOL0     C94405   0.835  10.731   0.253  0.8155  0.4332  0.0476
  700MOL0     C94406   0.941  10.834   0.287 -0.4508  0.2686 -0.3063
  700MOL0     C94407   0.965  10.922   0.169 -0.3013 -0.3717 -0.1883
  700MOL0     C94408   1.042  11.047   0.215  0.5553 -0.0814  0.6483
  700MOL0    Cl94409   1.202  11.006   0.286  0.0876 -0.3523  0.1792
  700MOL0     C94410   0.841  10.834   1.003  0.2254 -0.0576  0.3252
  700MOL0     C94411   0.905  10.805   1.119  0.2198  0.1468  0.2836
  700MOL0     O94412   1.188  10.839   1.199  0.5048  0.6168  0.2903
  700MOL0     C94413   1.240  10.604   1.472 -0.1253 -0.5211  0.9407
  700MOL0     C94414   1.321  10.591   1.580  0.3241 -0.3815  0.1041
  700MOL0     N94415   2.095  10.693   2.016 -0.5596  0.2071 -0.4867
  700MOL0     N94416   2.217  10.736   2.033  1.0961 -0.0105 -0.6392
  700MOL0     C94417   3.532  10.431   2.084  0.1719  0.2395 -0.2066
  700MOL0     C94418   3.676  10.415   2.098  0.4212 -0.7245 -0.0484
  700MOL0     C94419   4.109  10.305   2.013  0.0319  0.2381 -0.4901
  700MOL0     C94420   4.154  10.402   2.101 -0.0461 -0.1816  0.1584
  700MOL0     C94421   4.281  10.420   2.147 -0.7649  0.1149 -0.1413
  700MOL0     C94422   4.382  10.349   2.101  0.1123 -0.5275  0.6857
  700MOL0     O94423   4.506  10.396   2.130  0.2334  0.1987 -0.5089
  700MOL0     C94424   4.615  10.355   2.047 -1.5388  0.2669  1.0134
  700MOL0     C94425   4.749  10.431   2.072  0.8393 -0.0847 -0.3946
  700MOL0     C94426   4.761  10.486   2.218  0.8991  0.1225 -0.0007
  700MOL0     C94427   4.893  10.562   2.233 -0.9873  0.1182  0.9342
  700MOL0     C94428   5.022  10.487   2.234 -0.2246  0.7125 -0.2147
  700MOL0     C94429   5.125  10.415   2.238  0.4563  0.9478  0.2713
  700MOL0     C94430   4.353  10.238   2.010 -0.3047 -0.7718 -0.2097
  700MOL0     C94431   4.219  10.218   1.976  0.2186  1.2240  0.3364
  700MOL0     C94432   4.200  10.101   1.883 -0.2244  0.1397 -0.2010
  700MOL0     H94433   3.746  10.368   1.764 -0.5538  0.3463 -1.2068
  700MOL0     H94434   3.527  10.417   1.740 -1.3383 -4.2710  0.1265
  700MOL0     H94435   3.316  10.461   1.757 -0.7205 -0.3395  0.3480
  700MOL0     H94436   3.215  10.337   1.836 -0.6069 -0.1277  1.1853
  700MOL0     H94437   3.106  10.538   1.758  4.1054 -1.1278 -0.4572
  700MOL0     H94438   3.180  10.645   1.880 -1.3045  0.6587  1.7880
  700MOL0     H94439   3.044  10.533   2.059  2.0553  1.4545 -0.1484
  700MOL0     H94440   2.974  10.416   1.941 -2.5494  0.7535 -0.0630
  700MOL0     H94441   2.927  10.717   1.958 -2.9139 -0.4089  2.9243
  700MOL0     H94442   2.900  10.617   1.809  3.5833 -0.6742 -0.1952
  700MOL0     H94443   2.729  10.487   1.941 -0.7342 -0.3703  0.1096
  700MOL0     H94444   2.775  10.564   2.094 -2.6070  0.4328 -0.2946
  700MOL0     H94445   2.697  10.774   2.037 -3.1554 -0.5885  2.5278
  700MOL0     H94446   2.674  10.717   1.865 -0.8333  0.8967  0.5142
  700MOL0     H94447   2.495  10.711   2.098 -0.4826 -0.8338  0.3815
  700MOL0     H94448   2.508  10.559   2.013 -0.0904 -0.7392 -1.5501
  700MOL0     H94449   2.441  10.827   1.861 -2.0923 -0.0903  0.8462
  700MOL0     H94450   2.461  10.672   1.796  1.3560 -2.4734  1.6014
  700MOL0     H94451   2.229  10.622   1.727  1.0084 -1.2280  0.5366
  700MOL0     H94452   1.930  10.721   1.758 -0.9975 -0.5380  0.2197
  700MOL0     H94453   1.976  10.551   1.731  3.4347  0.5717  0.0949
  700MOL0     H94454   1.836  10.475   1.897 -0.1262 -0.0261  2.0221
  700MOL0     H94455   1.862  10.607   2.005 -0.7578 -1.5385  1.5026
  700MOL0     H94456   1.717  10.748   1.859  3.3486  0.3426 -3.0257
  700MOL0     H94457   1.628  10.601   1.920  1.1445  1.1224  1.9937
  700MOL0     H94458   1.685  10.539   1.674  0.3130 -0.2640 -1.3577
  700MOL0     H94459   1.689  10.722   1.653 -0.8384 -2.5965 -2.9539
  700MOL0     H94460   1.580  10.793   1.483  2.0732 -2.8076 -0.2159
  700MOL0     H94461   1.430  10.827   1.300 -0.2505 -0.1573 -0.7678
  700MOL0     H94462   1.045  10.506   1.024 -3.3138 -1.7384 -0.9537
  700MOL0     H94463   0.939  10.553   0.828 -1.2063 -0.9818 -0.2548
  700MOL0     H94464   0.688  10.581   0.819  1.6768  1.0170  2.2742
  700MOL0     H94465   0.597  10.699   0.735  1.2047  2.5321 -0.5913
  700MOL0     H94466   0.822  10.535   0.614  0.6691 -0.9203 -1.3200
  700MOL0     H94467   0.648  10.516   0.582  0.4752  0.8003 -1.3709
  700MOL0     H94468   0.639  10.737   0.461 -0.3285 -0.8729 -2.8340
  700MOL0     H94469   0.805  10.764   0.517 -0.0487  0.5311 -1.9294
  700MOL0     H94470   0.719  10.548   0.328  0.8746 -1.3307  0.7158
  700MOL0     H94471   0.875  10.564   0.393  0.3241 -1.0123 -1.6715
  700MOL0     H94472   0.748  10.784   0.215  1.4381  0.4999 -1.3405
  700MOL0     H94473   0.880  10.682   0.166 -0.1986  0.3694 -0.4509
  700MOL0     H94474   0.915  10.891   0.376  1.6387  1.5999 -0.4836
  700MOL0     H94475   1.037  10.791   0.315 -0.5982  1.2964  2.0233
  700MOL0     H94476   0.883  10.961   0.108  1.2553  2.0051 -0.9209
  700MOL0     H94477   1.031  10.864   0.103  0.1245  2.6327 -2.6724
  700MOL0     H94478   1.055  11.120   0.135 -0.0002  0.9290  1.4546
  700MOL0     H94479   0.982  11.102   0.289 -0.7499 -2.9386  1.8507
  700MOL0     H94480   0.800  10.934   0.988 -0.6932 -0.4317  0.2279
  700MOL0     H94481   0.908  10.862   1.212  0.9424  1.2457 -0.3939
  700MOL0     H94482   1.146  10.552   1.490 -1.0422 -0.3697 -2.6903
  700MOL0     H94483   1.285  10.519   1.653  2.0462  0.9373  2.3974
  700MOL0     H94484   3.470  10.460   2.168  0.7594  1.3915 -0.1521
  700MOL0     H94485   3.718  10.432   2.197 -1.1797 -1.0074  0.7179
  700MOL0     H94486   4.079  10.462   2.151 -0.1594  2.1465 -2.5378
  700MOL0     H94487   4.293  10.495   2.224 -2.1658  0.6607 -0.4226
  700MOL0     H94488   4.590  10.375   1.942 -1.2381 -0.7294  0.7435
  700MOL0     H94489   4.643  10.250   2.049 -0.4987  0.4345 -1.1460
  700MOL0     H94490   4.751  10.511   1.997 -0.0186 -2.3196 -2.9746
  700MOL0     H94491   4.833  10.370   2.039 -0.3571 -1.2392 -1.4383
  700MOL0     H94492   4.734  10.419   2.299 -3.5994  0.4495 -0.9776
  700MOL0     H94493   4.685  10.565   2.219 -0.0797 -0.7751 -0.9154
  700MOL0     H94494   4.902  10.635   2.152  0.0197  1.8681  2.5468
  700MOL0     H94495   4.882  10.621   2.325  1.9964  0.8311  0.9314
  700MOL0     H94496   5.212  10.355   2.225 -0.8857 -0.8886 -0.7605
  700MOL0     H94497   4.431  10.173   1.971  0.5467 -0.7684  1.4003
  700MOL0     H94498   4.140  10.028   1.937  2.1157 -1.7744 -0.0116
  700MOL0     H94499   4.157  10.133   1.788  0.0237  3.6981  0.7386
  700MOL0     H94500   4.292  10.044   1.864 -0.3781 -1.3397  2.8620
  701MOL0     O94501   7.253   8.296   0.763  0.0357 -0.0935  0.3665
  701MOL0     C94502   7.281   8.404   0.705 -0.3670  0.7582  0.2669
  701MOL0     O94503   7.384   8.413   0.617 -0.0667  0.2047 -0.6090
  701MOL0     C94504   7.457   8.299   0.600  0.0133 -0.1441 -0.4232
  701MOL0     C94505   7.405   8.185   0.527  0.6133 -0.4156 -0.9038
  701MOL0     C94506   7.486   8.080   0.505  0.6382  1.4412 -0.2931
  701MOL0     C94507   7.621   8.080   0.549 -0.5875  0.3957  0.2519
  701MOL0     O94508   7.703   7.975   0.511  0.5809 -0.5485 -0.2109
  701MOL0     C94509   7.730   7.969   0.371  0.1297 -0.7822  0.1552
  701MOL0     C94510   7.808   7.840   0.336  0.0359  0.1968 -0.4879
  701MOL0     C94511   7.951   7.833   0.391  0.3118 -0.3163 -0.1101
  701MOL0     C94512   7.995   7.692   0.377 -0.7991  0.2538 -0.9647
  701MOL0     C94513   8.144   7.665   0.416 -0.2019 -0.1829  0.0299
  701MOL0     C94514   8.172   7.518   0.415 -1.2253 -0.5170  0.1734
  701MOL0     C94515   8.282   7.495   0.520  0.6304  1.0776  0.2927
  701MOL0     C94516   8.342   7.358   0.490 -0.1652  0.8578  1.0405
  701MOL0     N94517   8.455   7.333   0.575 -0.9020  0.0046 -0.0776
  701MOL0     C94518   8.586   7.368   0.557 -0.7761  0.5522  0.4721
  701MOL0     C94519   8.650   7.332   0.670  0.1696  0.3416  0.8179
  701MOL0     C94520   8.802   7.351   0.702 -0.0614  0.3110  0.2753
  701MOL0     C94521   8.873   7.472   0.636 -0.6792 -1.0250 -0.5465
  701MOL0     C94522   8.927   7.441   0.495 -0.5209 -0.4005 -0.0806
  701MOL0     C94523   9.019   7.562   0.459  0.5361  0.0333 -0.5395
  701MOL0     O94524   9.100   7.521   0.349 -0.1570  0.5298  0.2928
  701MOL0     C94525   9.221   7.580   0.321 -0.2775  0.8116  0.3062
  701MOL0     C94526   9.315   7.511   0.242  0.8230  0.1963 -0.2662
  701MOL0     C94527   9.442   7.564   0.227  0.5652 -0.9933  0.0842
  701MOL0     C94528   9.475   7.688   0.291  0.1264  0.1142 -0.0535
  701MOL0     C94529   9.610   7.746   0.258 -1.1932 -0.3124 -0.9294
  701MOL0     O94530   9.635   7.866   0.303  1.5415 -1.2690  0.2248
  701MOL0     C94531   9.760   7.916   0.298  0.4487 -0.1906  0.5558
  701MOL0     C94532   9.869   7.897   0.209  0.0924 -0.5102 -0.1564
  701MOL0     C94533   9.998   7.938   0.238 -0.3102 -0.2951 -0.3492
  701MOL0     C94534  10.034   8.006   0.354 -0.0828 -0.0146 -1.0388
  701MOL0     O94535  10.148   8.083   0.386  0.4816  0.3516  0.3633
  701MOL0     C94536  10.252   8.036   0.309 -0.1866  0.0035 -0.2229
  701MOL0     C94537  10.384   8.080   0.361  0.8180 -0.3287  0.7543
  701MOL0     C94538  10.422   8.006   0.485 -0.6969  0.3141 -0.9008
  701MOL0     C94539  10.552   8.062   0.534 -0.3069 -0.6357  0.2668
  701MOL0     C94540  10.606   7.980   0.648 -0.4470 -0.5809  0.1689
  701MOL0     C94541  10.742   8.025   0.680  0.0545  0.4309 -0.7049
  701MOL0     C94542  10.770   7.963   0.815  0.9455  0.6105 -0.0096
  701MOL0     C94543  10.874   8.035   0.887  0.2004 -0.3340 -0.0964
  701MOL0    Cl94544  10.904   7.997   1.055  0.6637  0.0926 -0.5466
  701MOL0     C94545   9.938   8.017   0.458 -0.3544 -0.8050 -0.0568
  701MOL0     C94546   9.807   7.977   0.424  0.1701 -0.4291  0.0627
  701MOL0     O94547   9.686   7.677   0.194 -0.3844 -0.7924 -0.0196
  701MOL0     C94548   9.380   7.755   0.370  0.9922 -0.8382  0.5267
  701MOL0     C94549   9.247   7.704   0.371  0.4826  1.0205 -0.2283
  701MOL0     N94550   8.562   7.254   0.752 -0.1502 -1.1889  0.2553
  701MOL0     N94551   8.450   7.257   0.688 -0.3644  0.5977 -0.3219
  701MOL0     C94552   7.670   8.187   0.624 -0.3659 -0.4614 -0.4391
  701MOL0     C94553   7.594   8.298   0.641  0.6804 -0.2287  0.9174
  701MOL0     C94554   7.200   8.531   0.733  0.5935  0.5050  0.9755
  701MOL0     C94555   7.210   8.635   0.640 -0.8251  0.3115 -0.3643
  701MOL0     C94556   7.130   8.744   0.645  0.4554  0.5909  0.2055
  701MOL0     C94557   7.041   8.761   0.756  0.1458  0.0505  0.1351
  701MOL0     O94558   6.958   8.862   0.786 -0.5311  0.1774 -0.5328
  701MOL0     C94559   6.945   8.974   0.689 -0.2945 -0.4783  0.2191
  701MOL0     C94560   6.832   8.940   0.590  0.8848 -0.9662 -0.8834
  701MOL0     C94561   6.698   8.926   0.657 -0.6012 -0.6273 -0.1528
  701MOL0     C94562   6.586   8.892   0.562 -1.0454 -0.1597  0.5418
  701MOL0     C94563   6.455   8.883   0.644  0.1967 -1.2901 -0.2708
  701MOL0     C94564   6.358   8.868   0.716 -0.1380 -0.7508 -0.0955
  701MOL0     C94565   7.050   8.675   0.862  0.0719  0.3652 -0.2204
  701MOL0     C94566   7.126   8.550   0.848 -0.2705 -0.1138 -0.0385
  701MOL0     C94567   7.114   8.445   0.957 -0.7497  0.1386  0.3739
  701MOL0     H94568   7.299   8.186   0.502  0.6040 -0.4226 -0.8648
  701MOL0     H94569   7.448   7.987   0.463  1.2732  0.6596  0.8051
  701MOL0     H94570   7.640   7.982   0.310  1.4356  3.6619 -1.2359
  701MOL0     H94571   7.794   8.055   0.348  0.3562 -1.6814 -3.0848
  701MOL0     H94572   7.813   7.821   0.229  0.1938  0.0504 -0.4537
  701MOL0     H94573   7.755   7.759   0.388  1.8254 -0.2381  0.7235
  701MOL0     H94574   7.965   7.877   0.491 -1.2299  0.5938 -0.2508
  701MOL0     H94575   8.015   7.894   0.327  0.6044 -0.4230  0.0783
  701MOL0     H94576   7.928   7.637   0.443 -0.8236 -0.6276 -1.7145
  701MOL0     H94577   7.976   7.661   0.274 -2.2893 -2.2797  0.0041
  701MOL0     H94578   8.215   7.721   0.355 -1.7492 -0.0761 -1.7692
  701MOL0     H94579   8.164   7.702   0.517  1.3255 -2.9170  0.8231
  701MOL0     H94580   8.085   7.453   0.422 -0.8797 -1.1825 -1.2509
  701MOL0     H94581   8.220   7.502   0.318 -3.0495  1.9912 -1.2656
  701MOL0     H94582   8.243   7.493   0.622 -1.8856 -0.5276 -0.5865
  701MOL0     H94583   8.356   7.575   0.515  0.9680  0.7164 -0.9984
  701MOL0     H94584   8.270   7.276   0.502  0.3382  0.3406  0.6148
  701MOL0     H94585   8.366   7.347   0.384  0.9808 -2.0373  1.5231
  701MOL0     H94586   8.631   7.415   0.470 -2.9236 -1.7676 -2.0757
  701MOL0     H94587   8.826   7.352   0.809  1.6839 -1.3843 -0.0504
  701MOL0     H94588   8.853   7.260   0.670 -2.9750 -0.7083 -1.9743
  701MOL0     H94589   8.802   7.555   0.629  0.3073  0.1261  1.9254
  701MOL0     H94590   8.959   7.505   0.695  0.4060 -0.0284 -2.5698
  701MOL0     H94591   8.843   7.447   0.425 -0.7672  4.7047  0.2463
  701MOL0     H94592   8.961   7.341   0.468  0.4586  0.5609 -2.8410
  701MOL0     H94593   9.098   7.574   0.534  2.2494 -3.1555 -1.6227
  701MOL0     H94594   8.973   7.660   0.444  0.2565 -0.3935 -2.8000
  701MOL0     H94595   9.300   7.411   0.201 -0.2890  0.7433 -1.2536
  701MOL0     H94596   9.517   7.518   0.164 -0.5269 -1.4367 -0.9249
  701MOL0     H94597   9.860   7.841   0.117  3.5331  1.8371 -2.1534
  701MOL0     H94598  10.068   7.913   0.158 -1.7068  0.1459 -1.7754
  701MOL0     H94599  10.259   7.927   0.321  2.2292  0.3125  2.3233
  701MOL0     H94600  10.234   8.076   0.209 -0.3143  0.8689  0.1391
  701MOL0     H94601  10.455   8.085   0.278 -1.8530  2.8320 -1.6051
  701MOL0     H94602  10.373   8.187   0.381 -2.3112 -0.4414  0.1495
  701MOL0     H94603  10.342   8.024   0.558  0.7088  1.9710  0.3151
  701MOL0     H94604  10.438   7.899   0.467  2.8047 -0.0605  2.8844
  701MOL0     H94605  10.540   8.166   0.567 -0.9178 -0.7220  0.3378
  701MOL0     H94606  10.624   8.058   0.452 -0.7790 -5.3828 -0.1554
  701MOL0     H94607  10.612   7.875   0.617 -0.5997 -0.8836  1.1292
  701MOL0     H94608  10.536   7.994   0.731 -0.6338  3.4108 -0.4601
  701MOL0     H94609  10.813   7.980   0.610  0.5842 -0.8875  0.6434
  701MOL0     H94610  10.762   8.133   0.676  3.1187  0.1860  2.7393
  701MOL0     H94611  10.812   7.863   0.802 -0.5526  0.1099 -1.2459
  701MOL0     H94612  10.680   7.937   0.871  2.0091 -2.9770  0.3110
  701MOL0     H94613  10.970   8.015   0.839  0.1323 -1.1267  0.0848
  701MOL0     H94614  10.862   8.143   0.875 -2.2809 -0.6216 -0.8816
  701MOL0     H94615   9.933   8.061   0.557  1.5451 -0.0603 -0.2572
  701MOL0     H94616   9.725   7.990   0.495  0.2650  3.4579 -0.3187
  701MOL0     H94617   9.380   7.841   0.435 -1.9238 -1.4348  1.4781
  701MOL0     H94618   9.167   7.758   0.420 -0.3889 -1.3693  1.1301
  701MOL0     H94619   7.775   8.189   0.648  0.5556 -0.9479 -3.8746
  701MOL0     H94620   7.631   8.386   0.693  1.3871 -0.1158  0.2256
  701MOL0     H94621   7.280   8.629   0.557 -2.2076 -0.4080 -1.5284
  701MOL0     H94622   7.132   8.816   0.564  0.6354 -0.8426 -1.1094
  701MOL0     H94623   7.036   9.000   0.635  0.6561 -2.0080  1.0010
  701MOL0     H94624   6.915   9.060   0.749 -0.1251 -1.2465  1.4435
  701MOL0     H94625   6.856   8.848   0.535  2.4762 -4.0404  4.2867
  701MOL0     H94626   6.828   9.026   0.523 -0.5848 -2.0968 -2.3498
  701MOL0     H94627   6.676   9.023   0.703 -3.0454 -1.9269  1.6164
  701MOL0     H94628   6.707   8.848   0.733  1.7331 -2.7234 -2.4075
  701MOL0     H94629   6.577   8.962   0.479 -4.5917 -2.7262 -1.5047
  701MOL0     H94630   6.598   8.796   0.511 -2.8741 -0.2624  0.2486
  701MOL0     H94631   6.266   8.865   0.770  0.6839 -3.1291  1.3598
  701MOL0     H94632   6.984   8.694   0.946 -1.7928 -2.0237 -1.0314
  701MOL0     H94633   7.067   8.357   0.913  1.7291  0.9044 -4.5125
  701MOL0     H94634   7.213   8.423   0.998  0.7960  0.3269 -2.9814
  701MOL0     H94635   7.047   8.484   1.034 -3.7978  1.5380 -2.7125
  702MOL0     O94636  11.255   3.567   2.103  0.1840 -0.5997  0.0451
  702MOL0     C94637  11.256   3.458   2.159  0.4624  0.0436 -0.6611
  702MOL0     O94638  11.369   3.388   2.206  0.7136  0.1527 -0.5987
  702MOL0     C94639  11.485   3.444   2.164  0.0581 -0.5060 -1.0626
  702MOL0     C94640  11.531   3.570   2.215 -0.6819  0.2119  0.6280
  702MOL0     C94641  11.662   3.608   2.182  0.2498  0.2206  0.6020
  702MOL0     C94642  11.744   3.547   2.084 -1.0879  0.0287  0.4089
  702MOL0     O94643  11.872   3.586   2.045 -0.8576  0.1777 -0.6486
  702MOL0     C94644  11.922   3.702   2.113  0.5933 -0.1791 -0.3181
  702MOL0     C94645  12.047   3.752   2.048 -0.2577  0.3271 -0.2610
  702MOL0     C94646  12.115   3.840   2.159  0.8773 -0.1029 -0.0079
  702MOL0     C94647  12.241   3.889   2.095  0.1343  0.0379  0.6181
  702MOL0     C94648  12.305   4.002   2.177  0.0255  0.0054  0.1760
  702MOL0     C94649  12.443   4.055   2.122 -0.0376  0.1928 -0.0559
  702MOL0     C94650  12.415   4.135   1.993 -0.2008 -0.0798 -1.0118
  702MOL0     C94651  12.542   4.211   1.946  0.0292 -0.1793  0.6781
  702MOL0     N94652  12.637   4.122   1.888  0.1244 -0.1878 -0.2926
  702MOL0     C94653  12.654   4.108   1.755 -0.2677 -0.5790  0.1634
  702MOL0     C94654  12.767   4.042   1.742  0.9373 -0.1060  0.3642
  702MOL0     C94655  12.841   4.019   1.610 -0.3634 -1.0673 -0.2775
  702MOL0     C94656  12.774   3.911   1.527  0.1245  0.8657  0.4488
  702MOL0     C94657  12.800   3.767   1.586 -0.2614 -0.0975 -0.2790
  702MOL0     C94658  12.706   3.656   1.524 -0.6312 -0.5583 -0.1041
  702MOL0     O94659  12.716   3.652   1.374 -0.1697 -0.1892 -0.5500
  702MOL0     C94660  12.827   3.599   1.320  0.7713 -0.1995  1.0429
  702MOL0     C94661  12.939   3.559   1.389  1.3924  0.0097 -0.0600
  702MOL0     C94662  13.063   3.536   1.324 -0.0671 -0.5130 -0.1917
  702MOL0     C94663  13.067   3.528   1.186 -0.3704  0.0984 -0.6336
  702MOL0     C94664  13.191   3.510   1.110 -0.4550  0.3422 -0.2798
  702MOL0     O94665  13.307   3.474   1.179  0.4710  0.1053 -0.0578
  702MOL0     C94666  13.424   3.429   1.117  0.3203  0.1066 -0.2807
  702MOL0     C94667  13.470   3.477   0.985 -0.6256 -0.0835  0.0026
  702MOL0     C94668  13.584   3.441   0.924  0.0133  0.5533 -0.7759
  702MOL0     C94669  13.662   3.334   0.997  1.0092 -0.9948 -0.1574
  702MOL0     O94670  13.775   3.289   0.931 -0.0549 -0.5989 -0.3151
  702MOL0     C94671  13.887   3.235   1.006  0.1882  0.0355  0.2998
  702MOL0     C94672  14.013   3.208   0.914  0.6130 -0.3796 -0.1054
  702MOL0     C94673  13.986   3.115   0.791 -0.5251  0.1711  0.0734
  702MOL0     C94674  14.097   3.131   0.692 -0.4399 -0.5868 -0.5663
  702MOL0     C94675  14.064   3.067   0.560 -0.2085 -0.3182 -0.3292
  702MOL0     C94676  13.997   2.923   0.577  0.2050 -0.7837 -0.3489
  702MOL0     C94677  13.947   2.859   0.447 -0.4029 -0.8696 -0.3268
  702MOL0     C94678  13.966   2.706   0.448 -0.1041  0.3813  0.5089
  702MOL0    Cl94679  13.888   2.629   0.308 -0.0464  0.6722 -0.5852
  702MOL0     C94680  13.620   3.295   1.123 -0.2813  0.1378 -0.4386
  702MOL0     C94681  13.501   3.338   1.188  0.2931 -0.8322 -0.1223
  702MOL0     O94682  13.181   3.500   0.990 -0.2929  0.6381  0.7257
  702MOL0     C94683  12.952   3.563   1.118  0.7333  0.0147 -1.0482
  702MOL0     C94684  12.835   3.604   1.179 -0.2174  0.0830 -0.6390
  702MOL0     N94685  12.819   4.005   1.873  0.0345  0.1734 -0.0182
  702MOL0     N94686  12.735   4.058   1.957  0.6256  0.4565 -0.1059
  702MOL0     C94687  11.688   3.431   2.022 -0.5566 -0.1312 -0.0415
  702MOL0     C94688  11.556   3.390   2.060 -0.5060  0.7648 -0.5518
  702MOL0     C94689  11.118   3.400   2.177 -0.8533 -0.3087  0.2592
  702MOL0     C94690  11.107   3.270   2.228 -0.3815 -0.1242  0.4296
  702MOL0     C94691  10.984   3.205   2.247 -0.3085  0.0072  0.7617
  702MOL0     C94692  10.874   3.279   2.229  0.5920  0.5624 -0.5675
  702MOL0     O94693  10.769   3.214   2.287 -0.6053  0.4528  0.5829
  702MOL0     C94694  10.638   3.257   2.261 -0.1335  0.0693  0.2888
  702MOL0     C94695  10.573   3.175   2.157 -0.1685  0.3090  0.2257
  702MOL0     C94696  10.612   3.212   2.019 -0.3049 -0.4342  0.7880
  702MOL0     C94697  10.512   3.152   1.916 -0.0222 -0.2245  0.0435
  702MOL0     C94698  10.405   3.257   1.895  0.5826 -0.0464  0.1760
  702MOL0     C94699  10.314   3.341   1.892 -0.0894 -1.1994 -0.7992
  702MOL0     C94700  10.866   3.399   2.150 -0.7827  0.9071  0.4555
  702MOL0     C94701  10.993   3.465   2.133  0.2425 -0.0948 -0.3243
  702MOL0     C94702  10.987   3.609   2.084  0.8743 -0.5783  0.0996
  702MOL0     H94703  11.477   3.623   2.292 -3.3983  0.2699 -1.1591
  702MOL0     H94704  11.711   3.676   2.251  1.4807  2.4340 -2.2212
  702MOL0     H94705  11.838   3.772   2.103 -1.6142 -2.7467 -0.9205
  702MOL0     H94706  11.936   3.672   2.217 -1.8802  2.7305  1.0384
  702MOL0     H94707  12.013   3.808   1.960 -3.7941  2.0235  1.9735
  702MOL0     H94708  12.122   3.675   2.023 -0.1999  0.6432 -1.1096
  702MOL0     H94709  12.145   3.776   2.243 -1.8924 -2.4293 -0.6518
  702MOL0     H94710  12.046   3.918   2.191  0.1067 -0.4034 -0.9102
  702MOL0     H94711  12.307   3.802   2.095 -3.2726 -2.7879  2.6130
  702MOL0     H94712  12.214   3.928   1.996  1.7291  0.5260  0.3514
  702MOL0     H94713  12.240   4.090   2.177  0.0179  0.0401 -1.4683
  702MOL0     H94714  12.322   3.963   2.277 -0.9252  0.6007  0.5905
  702MOL0     H94715  12.490   4.119   2.197  0.5331  0.0563 -0.2896
  702MOL0     H94716  12.502   3.971   2.085 -0.7964  0.0251 -0.8964
  702MOL0     H94717  12.344   4.215   2.016 -2.6926 -2.2822 -0.5418
  702MOL0     H94718  12.373   4.073   1.914 -1.4593  0.7272 -1.0048
  702MOL0     H94719  12.496   4.278   1.873  1.7315  1.2019  0.8229
  702MOL0     H94720  12.595   4.269   2.022  1.2426 -2.2001  1.4426
  702MOL0     H94721  12.603   4.167   1.679  1.1057  1.2632  0.5866
  702MOL0     H94722  12.841   4.115   1.558  1.4993 -2.0537 -2.2517
  702MOL0     H94723  12.945   3.987   1.625  0.1626  0.5977 -0.1473
  702MOL0     H94724  12.667   3.932   1.515  0.1260  1.3884  1.2324
  702MOL0     H94725  12.821   3.893   1.430  1.6117  3.4418  0.6148
  702MOL0     H94726  12.764   3.782   1.688 -1.0476  1.6163 -0.7643
  702MOL0     H94727  12.905   3.739   1.572 -0.3777  0.1978 -1.9820
  702MOL0     H94728  12.605   3.667   1.566 -0.9976 -3.5633 -0.0319
  702MOL0     H94729  12.726   3.554   1.558 -0.9931 -0.1690  1.3765
  702MOL0     H94730  12.934   3.541   1.496  0.5178 -1.0297 -0.2575
  702MOL0     H94731  13.155   3.521   1.380  0.7882 -0.2096 -1.4747
  702MOL0     H94732  13.410   3.554   0.937 -0.5759  1.4137  2.1947
  702MOL0     H94733  13.613   3.468   0.823  1.5882  2.0488  0.0117
  702MOL0     H94734  13.914   3.313   1.078 -0.5200  1.5158 -0.9592
  702MOL0     H94735  13.867   3.147   1.066 -1.0858 -0.0197 -0.1672
  702MOL0     H94736  14.038   3.307   0.875 -0.0553  1.3082  3.3752
  702MOL0     H94737  14.091   3.151   0.965  0.9443 -2.2600 -2.5407
  702MOL0     H94738  13.981   3.010   0.824 -1.5479  0.7960  2.0679
  702MOL0     H94739  13.898   3.146   0.733  1.1083  1.6228 -1.7469
  702MOL0     H94740  14.194   3.092   0.725  0.1608  1.2432 -0.0327
  702MOL0     H94741  14.109   3.240   0.684 -1.9465 -0.4925 -2.1673
  702MOL0     H94742  14.149   3.059   0.491 -1.8290  1.1514 -2.6514
  702MOL0     H94743  13.988   3.118   0.500 -1.7726 -4.2719 -2.0505
  702MOL0     H94744  14.075   2.855   0.613 -1.1934 -1.7072  1.0428
  702MOL0     H94745  13.914   2.920   0.648  0.2089  1.0976 -0.2139
  702MOL0     H94746  14.018   2.891   0.370  2.2755  1.6847  2.8616
  702MOL0     H94747  13.842   2.887   0.432  0.0227  1.3481  0.3911
  702MOL0     H94748  14.073   2.685   0.437 -0.5463 -1.8651 -0.0573
  702MOL0     H94749  13.929   2.661   0.541  0.0509 -3.8442 -1.2232
  702MOL0     H94750  13.670   3.211   1.170 -1.9902 -1.0283 -0.6312
  702MOL0     H94751  13.459   3.296   1.279  1.3351  0.4495  0.9840
  702MOL0     H94752  12.957   3.574   1.010 -1.2662  3.3218 -0.9383
  702MOL0     H94753  12.748   3.628   1.119 -0.8226  0.7891  0.4969
  702MOL0     H94754  11.758   3.372   1.962  1.6226  3.0575 -0.8909
  702MOL0     H94755  11.520   3.294   2.025  2.2455 -1.2027  1.4849
  702MOL0     H94756  11.198   3.221   2.260 -1.2148 -1.1346  1.3437
  702MOL0     H94757  10.988   3.106   2.292  0.9019 -0.3758 -0.1593
  702MOL0     H94758  10.625   3.363   2.235 -4.7610 -0.3437 -0.0493
  702MOL0     H94759  10.571   3.246   2.347  1.9707  2.7355  2.4249
  702MOL0     H94760  10.465   3.193   2.169 -0.1458  1.6925 -1.3384
  702MOL0     H94761  10.589   3.071   2.189  1.5495  0.5740  0.3235
  702MOL0     H94762  10.712   3.171   2.005 -0.4461 -1.2464  2.0511
  702MOL0     H94763  10.616   3.321   2.011 -1.2334 -0.3522  1.3238
  702MOL0     H94764  10.569   3.140   1.823 -0.8696 -2.5233 -0.2213
  702MOL0     H94765  10.492   3.049   1.943  1.2171 -1.3610 -2.9163
  702MOL0     H94766  10.235   3.414   1.887  1.7025  0.9138  0.0371
  702MOL0     H94767  10.779   3.462   2.132  0.7895  2.2997 -3.3060
  702MOL0     H94768  11.005   3.687   2.158 -1.4841  1.8777 -1.6784
  702MOL0     H94769  11.042   3.634   1.993 -0.2787  2.3315  0.0785
  702MOL0     H94770  10.888   3.624   2.040  0.5635 -3.9867 -0.6581
  703MOL0     O94771   0.168   5.888   5.889  0.7705  0.3910  0.2164
  703MOL0     C94772   0.182   5.985   5.819  0.3975 -0.9009  0.0815
  703MOL0     O94773   0.302   6.045   5.777 -0.3464  0.7675  0.3997
  703MOL0     C94774   0.419   5.966   5.780  0.3621  0.5583  0.7286
  703MOL0     C94775   0.418   5.824   5.776 -0.6481  0.4964 -0.3831
  703MOL0     C94776   0.536   5.745   5.775 -0.0021 -0.0463 -0.9938
  703MOL0     C94777   0.653   5.818   5.778 -0.1805 -0.1127 -0.0662
  703MOL0     O94778   0.777   5.756   5.780 -0.3456  0.2760  0.3306
  703MOL0     C94779   0.793   5.672   5.894 -0.0812 -0.5511 -0.0213
  703MOL0     C94780   0.936   5.615   5.907  0.6478 -0.2847  0.3818
  703MOL0     C94781   1.054   5.718   5.871  1.2638  0.2180  0.3050
  703MOL0     C94782   1.187   5.648   5.879  0.7420 -0.0469  0.1981
  703MOL0     C94783   1.304   5.754   5.847  0.6415 -0.6421 -0.2862
  703MOL0     C94784   1.443   5.686   5.857  0.1790  0.2802 -0.6442
  703MOL0     C94785   1.549   5.776   5.792  0.2403  0.1692  0.3105
  703MOL0     C94786   1.691   5.748   5.830 -0.4593  0.4590 -1.1848
  703MOL0     N94787   1.797   5.798   5.745 -0.6770 -0.7888 -0.0002
  703MOL0     C94788   1.842   5.936   5.732  0.2020  0.1735 -0.0182
  703MOL0     C94789   1.946   5.922   5.643  0.3352 -0.0593  0.5622
  703MOL0     C94790   2.030   6.038   5.581  0.2238 -0.6615 -0.0148
  703MOL0     C94791   1.973   6.096   5.454 -0.0368 -0.3362  0.7173
  703MOL0     C94792   2.017   6.023   5.324  1.0265  0.2400  0.3470
  703MOL0     C94793   2.167   6.036   5.313  0.3019  0.3691 -0.1527
  703MOL0     O94794   2.205   6.171   5.342 -0.1661 -0.3768  0.0076
  703MOL0     C94795   2.328   6.219   5.315  0.4858  0.5146 -0.3021
  703MOL0     C94796   2.344   6.359   5.331  0.2800 -0.3350 -0.5793
  703MOL0     C94797   2.474   6.414   5.323  0.2541  0.1076  0.2415
  703MOL0     C94798   2.589   6.335   5.291  0.4251 -1.1664 -0.4212
  703MOL0     C94799   2.720   6.394   5.272 -0.7821  0.0889 -0.7739
  703MOL0     O94800   2.717   6.525   5.291  0.1696  0.3944 -0.1565
  703MOL0     C94801   2.834   6.591   5.277 -0.1164 -0.1397 -0.6069
  703MOL0     C94802   2.921   6.616   5.388 -0.5452 -0.2033 -0.0325
  703MOL0     C94803   3.044   6.676   5.364  0.4502 -0.4564 -0.3452
  703MOL0     C94804   3.088   6.712   5.230  0.0106 -0.8168  0.1374
  703MOL0     O94805   3.210   6.768   5.214  0.5891  0.3421  0.3195
  703MOL0     C94806   3.262   6.780   5.084  0.1834  0.5426  0.1178
  703MOL0     C94807   3.404   6.834   5.089  0.2208 -0.5044  0.4863
  703MOL0     C94808   3.417   6.989   5.115 -0.1151 -0.6041  0.3866
  703MOL0     C94809   3.552   7.031   5.172 -0.0634 -0.2451 -0.8920
  703MOL0     C94810   3.565   7.177   5.210  0.5703 -0.3623 -0.0516
  703MOL0     C94811   3.703   7.209   5.271  0.3095 -0.0471 -1.0404
  703MOL0     C94812   3.826   7.228   5.173 -0.5040 -0.1482  1.0613
  703MOL0     C94813   3.953   7.260   5.247  0.5588  0.2401  0.2916
  703MOL0    Cl94814   3.934   7.426   5.334  0.0451 -0.3766  0.1343
  703MOL0     C94815   2.998   6.677   5.127 -0.5495  0.1423  0.7025
  703MOL0     C94816   2.877   6.626   5.153  0.7795  0.5640 -0.2766
  703MOL0     O94817   2.821   6.329   5.234  0.2462  0.2688 -0.5367
  703MOL0     C94818   2.565   6.204   5.270  0.2643  0.4046 -0.0828
  703MOL0     C94819   2.437   6.144   5.279  0.3912  0.5332 -0.7617
  703MOL0     N94820   1.957   5.795   5.593  0.2494 -0.4946 -0.4861
  703MOL0     N94821   1.863   5.721   5.649  0.4711 -0.3807  0.0291
  703MOL0     C94822   0.654   5.961   5.768  0.0554  0.6507 -0.2376
  703MOL0     C94823   0.536   6.032   5.770  0.6575  0.1580  0.0347
  703MOL0     C94824   0.058   6.061   5.797  0.2563  0.3052 -0.7539
  703MOL0     C94825  -0.018   6.027   5.683  0.5073  0.1289 -0.0080
  703MOL0     C94826  -0.138   6.086   5.654 -0.2741 -0.3109  0.1401
  703MOL0     C94827  -0.170   6.200   5.725  0.0755 -0.6150 -0.5786
  703MOL0     O94828  -0.278   6.276   5.704  0.3111 -1.0762  0.2952
  703MOL0     C94829  -0.333   6.274   5.570 -0.0104  0.4207  0.5905
  703MOL0     C94830  -0.430   6.386   5.549  0.1256  0.2237 -1.1161
  703MOL0     C94831  -0.549   6.386   5.644  0.5152 -0.1713  0.4427
  703MOL0     C94832  -0.664   6.468   5.589  0.1585  0.6555  0.2786
  703MOL0     C94833  -0.647   6.612   5.614  0.1353  0.2617 -0.4203
  703MOL0     C94834  -0.640   6.733   5.631  0.1106 -0.4063 -1.1709
  703MOL0     C94835  -0.105   6.233   5.844  0.1755 -0.1900 -0.5220
  703MOL0     C94836   0.009   6.161   5.882 -0.2383 -0.0773  0.0671
  703MOL0     C94837   0.074   6.179   6.022  0.9346  0.1545 -0.2422
  703MOL0     H94838   0.340   5.749   5.782  0.6859 -0.8303  1.2328
  703MOL0     H94839   0.526   5.637   5.776  1.2722 -0.1897 -1.7894
  703MOL0     H94840   0.767   5.729   5.984  0.7124 -2.6543  1.6193
  703MOL0     H94841   0.732   5.583   5.877  1.3170 -1.9254  1.7479
  703MOL0     H94842   0.943   5.533   5.835 -3.7166  1.0933 -1.9712
  703MOL0     H94843   0.960   5.587   6.010 -1.6535 -1.5648  0.6284
  703MOL0     H94844   1.054   5.808   5.933 -3.1772 -1.3934  3.1771
  703MOL0     H94845   1.021   5.755   5.773  1.0654  2.5256  1.1981
  703MOL0     H94846   1.205   5.601   5.976  1.0220 -1.8534 -0.6856
  703MOL0     H94847   1.193   5.561   5.813 -0.8045 -0.5951  0.7240
  703MOL0     H94848   1.286   5.777   5.741 -0.1573 -2.1868 -0.5115
  703MOL0     H94849   1.290   5.839   5.915 -0.4526 -0.5827 -0.5541
  703MOL0     H94850   1.459   5.684   5.965  1.7438 -0.7101 -0.8626
  703MOL0     H94851   1.445   5.581   5.825  1.6595 -0.5407  1.8707
  703MOL0     H94852   1.519   5.879   5.814 -1.0936 -0.2899  0.7579
  703MOL0     H94853   1.546   5.752   5.686  1.3884  1.7294 -0.1065
  703MOL0     H94854   1.720   5.771   5.933  2.4832 -2.8130 -1.0779
  703MOL0     H94855   1.702   5.639   5.835 -2.2405  0.2527 -0.9732
  703MOL0     H94856   1.805   6.032   5.766 -0.4924  1.0031 -2.8273
  703MOL0     H94857   2.049   6.114   5.658  2.5080  1.4372 -2.4499
  703MOL0     H94858   2.130   5.997   5.561  0.6034 -0.0538  0.6025
  703MOL0     H94859   1.866   6.109   5.470  0.1795  3.7904  0.0303
  703MOL0     H94860   2.008   6.200   5.447 -0.4197 -0.1573  1.4205
  703MOL0     H94861   1.961   6.065   5.240  0.3152 -0.2568  0.5568
  703MOL0     H94862   1.980   5.920   5.327  0.9907  0.0521 -3.0118
  703MOL0     H94863   2.192   6.003   5.212 -3.9700  1.3747 -1.7503
  703MOL0     H94864   2.208   5.964   5.384  3.0282 -1.8580 -3.6438
  703MOL0     H94865   2.263   6.426   5.358  0.9896 -0.2903  1.5885
  703MOL0     H94866   2.488   6.517   5.354  1.4947 -0.1580  0.6601
  703MOL0     H94867   2.901   6.577   5.488 -1.4589  1.6239  0.5442
  703MOL0     H94868   3.102   6.706   5.450 -0.7920  3.3717 -0.6278
  703MOL0     H94869   3.255   6.677   5.047 -0.7256 -0.3105  2.5310
  703MOL0     H94870   3.212   6.850   5.017 -1.3209 -0.3607  0.2541
  703MOL0     H94871   3.465   6.794   5.170  3.3670  2.2562 -0.2372
  703MOL0     H94872   3.458   6.814   4.996  4.1014  0.5225  2.2982
  703MOL0     H94873   3.387   7.040   5.023  0.0333  2.4082  1.8705
  703MOL0     H94874   3.359   7.025   5.201  2.1646 -0.6624  2.0557
  703MOL0     H94875   3.621   6.999   5.094 -2.6349 -1.4541 -2.7993
  703MOL0     H94876   3.565   6.977   5.267 -0.6455  0.2596 -0.5130
  703MOL0     H94877   3.497   7.204   5.291  1.6468 -0.7479  1.0113
  703MOL0     H94878   3.547   7.244   5.125 -0.8614  1.1249  1.3402
  703MOL0     H94879   3.693   7.303   5.326  3.5888 -0.7995  1.1254
  703MOL0     H94880   3.729   7.139   5.351  0.3718  0.4800 -0.5929
  703MOL0     H94881   3.815   7.314   5.106  0.8407 -0.1016  0.8691
  703MOL0     H94882   3.849   7.135   5.120  3.6975  0.5232  1.3058
  703MOL0     H94883   3.989   7.185   5.317  2.1384  1.8061  1.2407
  703MOL0     H94884   4.036   7.263   5.176 -0.3489  2.3426 -0.7987
  703MOL0     H94885   3.018   6.701   5.024  1.4699 -1.7782  0.5820
  703MOL0     H94886   2.796   6.621   5.080  0.5970  1.2442 -0.1243
  703MOL0     H94887   2.645   6.138   5.240 -1.0104 -0.8441 -0.8745
  703MOL0     H94888   2.423   6.036   5.276 -1.2231  0.6626  0.5910
  703MOL0     H94889   0.740   6.020   5.739 -0.5515 -0.7748 -6.1901
  703MOL0     H94890   0.532   6.140   5.757 -0.5375 -0.1344 -2.5949
  703MOL0     H94891   0.015   5.951   5.613 -1.5476  0.7797 -1.7909
  703MOL0     H94892  -0.192   6.045   5.569 -0.7214  2.7330 -1.2035
  703MOL0     H94893  -0.378   6.175   5.557 -1.0021  1.2488 -3.9349
  703MOL0     H94894  -0.252   6.300   5.502  0.5935  2.7177  2.0901
  703MOL0     H94895  -0.465   6.375   5.446 -2.7708 -0.1491 -0.1640
  703MOL0     H94896  -0.381   6.484   5.551 -1.3812  1.0019  1.5629
  703MOL0     H94897  -0.515   6.426   5.740 -2.6013 -0.4079  1.7839
  703MOL0     H94898  -0.586   6.283   5.655 -0.9929 -0.2777 -3.8786
  703MOL0     H94899  -0.663   6.441   5.483  0.0637 -3.1167  1.0841
  703MOL0     H94900  -0.766   6.443   5.618 -0.2759  1.1927 -0.7491
  703MOL0     H94901  -0.631   6.840   5.626 -2.5620 -0.1327 -1.8243
  703MOL0     H94902  -0.160   6.293   5.916 -1.1204 -0.6970 -1.0571
  703MOL0     H94903   0.105   6.089   6.076 -2.8152 -0.0200  1.9908
  703MOL0     H94904   0.162   6.243   6.019  0.5832  0.8509  2.0083
  703MOL0     H94905  -0.002   6.219   6.091 -1.3925  0.2757 -2.7036
  704MOL0     O94906   6.864   2.029   9.279  0.5425  0.0655  0.1756
  704MOL0     C94907   6.803   2.007   9.175 -0.0804 -0.5393 -0.9733
  704MOL0     O94908   6.842   2.062   9.053  0.1382  0.4248 -0.7610
  704MOL0     C94909   6.950   2.145   9.057  0.1910  0.1101 -0.1445
  704MOL0     C94910   6.923   2.287   9.054  0.2042  0.2310  0.4328
  704MOL0     C94911   7.029   2.374   9.025 -0.0915  1.0466 -0.3729
  704MOL0     C94912   7.161   2.325   9.025 -0.1050 -0.9949 -0.1557
  704MOL0     O94913   7.275   2.408   9.018 -0.1477  0.4520 -0.0886
  704MOL0     C94914   7.285   2.518   9.117  0.4481  0.2864 -0.5953
  704MOL0     C94915   7.369   2.631   9.060 -0.2353  0.3748  0.6373
  704MOL0     C94916   7.473   2.574   8.965 -0.1955 -0.3152 -0.5698
  704MOL0     C94917   7.582   2.678   8.946  0.1268  0.1023 -0.1400
  704MOL0     C94918   7.633   2.689   8.808  0.6856 -0.2050 -0.3488
  704MOL0     C94919   7.737   2.576   8.772  0.0999 -0.5020 -0.4524
  704MOL0     C94920   7.814   2.606   8.640  0.0325 -0.4422  0.0408
  704MOL0     C94921   7.919   2.493   8.600 -0.2732 -0.1183 -0.7164
  704MOL0     N94922   8.048   2.514   8.684  0.2339  0.4795  0.6637
  704MOL0     C94923   8.072   2.456   8.803 -0.3424 -0.4829  0.4309
  704MOL0     C94924   8.200   2.484   8.835 -0.3136  0.9173 -0.7888
  704MOL0     C94925   8.269   2.457   8.970  0.2848 -0.3287 -0.6448
  704MOL0     C94926   8.416   2.455   8.957 -0.2302  0.0125 -0.6630
  704MOL0     C94927   8.474   2.425   9.098 -0.4802 -0.5323  0.1086
  704MOL0     C94928   8.611   2.354   9.106  0.3462  0.5390  0.8514
  704MOL0     O94929   8.625   2.276   8.987  0.3581 -0.1861  0.2412
  704MOL0     C94930   8.744   2.207   8.961  0.3617 -0.8983  0.1770
  704MOL0     C94931   8.865   2.249   9.021  0.0044  0.4090 -0.7278
  704MOL0     C94932   8.979   2.175   8.991  0.4941 -0.2629  0.4542
  704MOL0     C94933   8.984   2.063   8.896  0.7047  0.0662 -0.3348
  704MOL0     C94934   9.104   1.991   8.859 -0.8896 -1.6760  0.1219
  704MOL0     O94935   9.195   2.021   8.959  0.1417  0.3044 -0.8596
  704MOL0     C94936   9.325   2.005   8.944  0.3204 -0.6936  0.2593
  704MOL0     C94937   9.399   2.020   8.825  0.6265 -0.1454 -0.0479
  704MOL0     C94938   9.536   2.008   8.821 -1.0612 -1.6001  0.3659
  704MOL0     C94939   9.602   1.985   8.946  0.2623  0.7968 -0.0515
  704MOL0     O94940   9.745   1.987   8.939  0.1102  0.3942 -0.1232
  704MOL0     C94941   9.817   1.968   9.058 -0.3486  0.5183 -0.9008
  704MOL0     C94942   9.971   1.967   9.042 -0.8598  0.7887  0.4601
  704MOL0     C94943  10.055   1.886   9.136 -0.1787  0.4016  0.0320
  704MOL0     C94944  10.207   1.899   9.101  0.2511 -0.4373  0.1862
  704MOL0     C94945  10.265   1.780   9.190  0.1488  0.4472  0.6449
  704MOL0     C94946  10.422   1.759   9.176  1.2716 -0.5990 -0.3938
  704MOL0     C94947  10.512   1.875   9.235 -1.0586 -0.1598 -0.2980
  704MOL0     C94948  10.658   1.825   9.269  0.2698  0.1247 -0.4181
  704MOL0    Cl94949  10.740   1.751   9.130 -0.0827 -0.0170 -0.5019
  704MOL0     C94950   9.520   1.967   9.062  0.1664  0.6201  0.2310
  704MOL0     C94951   9.390   1.986   9.063  0.0850 -0.0727  0.3475
  704MOL0     O94952   9.122   1.928   8.755 -0.3291 -0.2170 -0.3620
  704MOL0     C94953   8.860   2.036   8.825  0.2269  0.7623 -0.3650
  704MOL0     C94954   8.743   2.112   8.861  0.2175  0.1266 -0.2593
  704MOL0     N94955   8.256   2.538   8.722 -1.1285  0.7405 -0.4194
  704MOL0     N94956   8.159   2.565   8.640 -0.2655  0.0158 -0.4756
  704MOL0     C94957   7.189   2.184   9.038  0.6975  0.7442 -0.2803
  704MOL0     C94958   7.080   2.090   9.054  0.0266  0.2766 -0.2016
  704MOL0     C94959   6.692   1.913   9.182 -0.2058 -0.7471 -0.8148
  704MOL0     C94960   6.613   1.898   9.071 -0.9026 -0.5665  0.3963
  704MOL0     C94961   6.496   1.823   9.077  0.2278 -0.0267  0.9092
  704MOL0     C94962   6.467   1.750   9.190  0.6517  0.1524 -0.8530
  704MOL0     O94963   6.363   1.667   9.210 -0.2203 -1.1777 -0.5320
  704MOL0     C94964   6.241   1.686   9.135  0.4967  0.2948  0.5192
  704MOL0     C94965   6.141   1.577   9.175 -0.9262 -1.0347 -0.1722
  704MOL0     C94966   6.014   1.588   9.092  0.4416  0.6407 -0.0612
  704MOL0     C94967   5.920   1.469   9.136  0.4581 -0.1593  0.1995
  704MOL0     C94968   5.783   1.496   9.081  0.3091  0.7284  0.5991
  704MOL0     C94969   5.674   1.515   9.025 -0.5408 -0.0567 -0.2280
  704MOL0     C94970   6.560   1.754   9.301 -1.0990 -0.9313 -0.4797
  704MOL0     C94971   6.667   1.839   9.300 -0.1815 -0.5930 -0.3592
  704MOL0     C94972   6.742   1.835   9.430  0.1975 -0.5419 -0.0037
  704MOL0     H94973   6.825   2.330   9.067  0.3169  0.1643  1.6185
  704MOL0     H94974   7.000   2.476   9.001 -0.1665  0.5700 -2.5710
  704MOL0     H94975   7.193   2.563   9.153  1.4416  2.4224 -0.5557
  704MOL0     H94976   7.342   2.465   9.194  3.2065 -0.3711 -2.9011
  704MOL0     H94977   7.417   2.686   9.141  5.0319  0.6485 -2.1953
  704MOL0     H94978   7.302   2.697   9.004 -0.1563 -0.1856 -0.1462
  704MOL0     H94979   7.426   2.545   8.871 -2.7745  0.8965  0.2514
  704MOL0     H94980   7.519   2.486   9.011 -0.6111 -0.7063 -0.9005
  704MOL0     H94981   7.539   2.778   8.965  0.8581 -0.0223  2.5112
  704MOL0     H94982   7.664   2.667   9.016  0.9421  0.2298 -1.0513
  704MOL0     H94983   7.548   2.699   8.739  0.9740  0.0928 -0.6653
  704MOL0     H94984   7.684   2.784   8.792  0.4980 -0.3115 -1.7107
  704MOL0     H94985   7.815   2.569   8.848  0.2385 -0.4570 -0.5900
  704MOL0     H94986   7.685   2.480   8.764 -0.6504 -0.0976 -0.5288
  704MOL0     H94987   7.867   2.702   8.639  2.3632 -1.6522  0.2069
  704MOL0     H94988   7.736   2.606   8.564 -1.1434  1.6218  1.1702
  704MOL0     H94989   7.866   2.401   8.627 -0.2905  1.0173  4.1216
  704MOL0     H94990   7.927   2.507   8.492 -1.9669  0.5047 -0.8040
  704MOL0     H94991   7.995   2.422   8.871 -1.9494  1.4100 -0.3310
  704MOL0     H94992   8.235   2.533   9.042  2.7855  0.5560 -0.2771
  704MOL0     H94993   8.235   2.357   8.998 -1.0972 -0.6568 -3.2353
  704MOL0     H94994   8.443   2.375   8.889  2.6380 -0.6649  1.0867
  704MOL0     H94995   8.452   2.554   8.926  1.0612 -0.1575  0.2056
  704MOL0     H94996   8.412   2.354   9.153 -1.0944  1.1688  1.7476
  704MOL0     H94997   8.473   2.515   9.161 -2.3546 -1.5486  1.6599
  704MOL0     H94998   8.626   2.287   9.192 -1.4004 -0.0093  0.7674
  704MOL0     H94999   8.696   2.423   9.108  0.0236  0.9283  2.4388
  704MOL0     H95000   8.878   2.329   9.093 -0.9021 -0.6512  0.6511
  704MOL0     H95001   9.076   2.222   9.002  0.9225 -0.4972 -1.9733
  704MOL0     H95002   9.354   2.035   8.727 -0.6462 -0.1002  0.5281
  704MOL0     H95003   9.599   2.030   8.736  1.0436 -1.2827  1.9215
  704MOL0     H95004   9.781   2.049   9.122 -1.5002 -1.3230  0.8889
  704MOL0     H95005   9.791   1.875   9.108 -0.3883  2.2939  2.7659
  704MOL0     H95006   9.986   1.939   8.937 -0.1329  0.1682  0.7232
  704MOL0     H95007  10.002   2.072   9.049 -0.6482  1.1941 -3.6843
  704MOL0     H95008  10.042   1.917   9.240  0.6498  0.5821  0.0906
  704MOL0     H95009  10.026   1.782   9.119 -0.8398  0.2602  1.8280
  704MOL0     H95010  10.260   1.988   9.136  1.5312 -1.0213 -0.2027
  704MOL0     H95011  10.228   1.886   8.995  0.6187 -4.2473  0.5949
  704MOL0     H95012  10.209   1.690   9.162  4.1480 -2.7851  2.0940
  704MOL0     H95013  10.243   1.790   9.297 -1.1376 -2.0645  0.7069
  704MOL0     H95014  10.439   1.669   9.235 -1.9246 -0.4983  0.9089
  704MOL0     H95015  10.444   1.742   9.070 -0.3066 -2.1217 -0.5407
  704MOL0     H95016  10.462   1.908   9.326 -1.9506  1.7354 -1.4051
  704MOL0     H95017  10.521   1.955   9.161  2.9128  0.3762  0.5685
  704MOL0     H95018  10.719   1.905   9.311  1.9054 -0.1692 -2.1044
  704MOL0     H95019  10.658   1.745   9.343 -0.0492 -2.0555 -2.6293
  704MOL0     H95020   9.565   1.946   9.158 -0.4778  0.7373  0.5584
  704MOL0     H95021   9.336   1.975   9.156 -0.6056  0.1994 -0.0100
  704MOL0     H95022   8.864   1.965   8.743 -0.1209  0.9486 -0.5470
  704MOL0     H95023   8.651   2.097   8.807  1.0360 -3.0707 -0.9700
  704MOL0     H95024   7.289   2.143   9.031 -0.2386 -2.0527  1.0510
  704MOL0     H95025   7.106   1.985   9.061  0.9778  0.5905  1.6278
  704MOL0     H95026   6.640   1.937   8.973 -1.3430  1.5588  1.0539
  704MOL0     H95027   6.427   1.802   8.996 -0.8695 -3.6892  2.5458
  704MOL0     H95028   6.266   1.676   9.029  0.8541 -0.9307  0.7037
  704MOL0     H95029   6.200   1.786   9.148  1.3884  1.3109 -3.1928
  704MOL0     H95030   6.106   1.583   9.279 -0.9774  1.3568 -0.2685
  704MOL0     H95031   6.193   1.484   9.150 -0.7412 -0.6665 -1.1658
  704MOL0     H95032   6.036   1.584   8.985 -1.6292 -1.2144 -0.4804
  704MOL0     H95033   5.958   1.676   9.125 -1.2507 -0.0946 -0.8649
  704MOL0     H95034   5.949   1.369   9.104 -1.0003 -0.4385 -0.3359
  704MOL0     H95035   5.907   1.445   9.241 -1.4921 -1.4561 -0.2765
  704MOL0     H95036   5.585   1.525   8.966 -2.3380  0.0054  2.3216
  704MOL0     H95037   6.543   1.705   9.396  0.4444  0.0358  0.3326
  704MOL0     H95038   6.739   1.739   9.482  1.6171 -0.3955  0.3948
  704MOL0     H95039   6.851   1.843   9.422  0.3309 -1.0556  1.1401
  704MOL0     H95040   6.708   1.910   9.502 -1.4178 -2.1619  1.0047
  705MOL0     O95041  10.010   6.897   8.113 -0.4354 -0.4623 -0.7415
  705MOL0     C95042  10.008   6.865   8.231 -1.0308 -0.3376  0.3919
  705MOL0     O95043  10.113   6.882   8.310  0.0930  0.2303 -0.0447
  705MOL0     C95044  10.219   6.940   8.250 -1.1006  0.0151 -0.4528
  705MOL0     C95045  10.232   7.077   8.264 -0.5090 -0.2772 -0.0231
  705MOL0     C95046  10.344   7.139   8.223 -0.9021  0.1952  0.4470
  705MOL0     C95047  10.451   7.068   8.165 -0.1860  0.9968  0.1134
  705MOL0     O95048  10.571   7.114   8.118 -0.2010 -0.3998  0.4357
  705MOL0     C95049  10.584   7.255   8.126 -0.5889 -0.5387  0.5707
  705MOL0     C95050  10.711   7.292   8.054 -0.0564  0.1076 -0.0061
  705MOL0     C95051  10.845   7.247   8.129 -0.0182 -0.1439  0.8949
  705MOL0     C95052  10.956   7.343   8.071 -1.1116  0.4232  0.1343
  705MOL0     C95053  11.087   7.338   8.152  0.8432 -0.0327  0.0982
  705MOL0     C95054  11.134   7.190   8.163 -0.1890  0.0421 -0.1812
  705MOL0     C95055  11.285   7.183   8.190  0.0576 -0.2553  0.6898
  705MOL0     C95056  11.336   7.041   8.220  0.4154 -0.9484 -0.6089
  705MOL0     N95057  11.469   7.037   8.283  0.0294  0.0073 -0.3893
  705MOL0     C95058  11.496   6.974   8.407  0.1808 -0.4226 -0.0836
  705MOL0     C95059  11.635   6.974   8.410 -0.0218 -0.9023 -0.6291
  705MOL0     C95060  11.717   6.909   8.521 -0.3895  0.3771  0.3489
  705MOL0     C95061  11.870   6.925   8.502 -0.0844 -0.0334  0.4778
  705MOL0     C95062  11.931   6.831   8.604  0.1593 -0.0910  1.2436
  705MOL0     C95063  12.079   6.870   8.633 -0.5848  0.1207  0.3585
  705MOL0     O95064  12.153   6.869   8.508 -0.0856  0.1927  0.0873
  705MOL0     C95065  12.291   6.867   8.514 -0.0095  0.4649  0.7815
  705MOL0     C95066  12.356   6.837   8.382 -0.3391 -0.1708  0.0033
  705MOL0     C95067  12.498   6.833   8.377  0.4583  0.7318 -0.2836
  705MOL0     C95068  12.579   6.861   8.490  0.9274  0.1732  0.1245
  705MOL0     C95069  12.732   6.848   8.489  0.7038  0.8146  0.9386
  705MOL0     O95070  12.795   6.838   8.366  0.5628 -0.3162  0.9242
  705MOL0     C95071  12.929   6.823   8.346  0.4634  0.5431 -0.5711
  705MOL0     C95072  13.014   6.925   8.329  1.5069  0.0226  0.3051
  705MOL0     C95073  13.146   6.902   8.307  0.4478 -0.9506 -0.1824
  705MOL0     C95074  13.203   6.771   8.317  0.5869 -0.3624  0.0690
  705MOL0     O95075  13.331   6.730   8.295  0.3492 -0.2590  0.0500
  705MOL0     C95076  13.412   6.809   8.206 -0.5258 -0.2241 -0.7968
  705MOL0     C95077  13.561   6.778   8.218  0.0294  0.6974  0.4153
  705MOL0     C95078  13.600   6.631   8.179 -0.4890  0.3809  0.2700
  705MOL0     C95079  13.762   6.621   8.177 -0.1435  0.5232 -0.3316
  705MOL0     C95080  13.796   6.469   8.148  0.5064  0.2608 -0.3923
  705MOL0     C95081  13.942   6.427   8.193  0.6294  0.1276  0.8527
  705MOL0     C95082  14.036   6.513   8.117 -0.5916 -0.4170  0.6549
  705MOL0     C95083  14.132   6.608   8.190  0.5814 -0.3222 -0.4039
  705MOL0    Cl95084  14.243   6.699   8.079  0.3434  0.0583  0.0459
  705MOL0     C95085  13.113   6.666   8.347  0.2276 -0.0126 -0.2334
  705MOL0     C95086  12.975   6.694   8.353 -0.9817 -0.0135 -0.5226
  705MOL0     O95087  12.791   6.827   8.593  0.7384 -0.1742  0.4106
  705MOL0     C95088  12.514   6.900   8.609 -0.2205  0.2935  0.5596
  705MOL0     C95089  12.374   6.904   8.621 -0.0927  0.2022 -0.7093
  705MOL0     N95090  11.686   7.016   8.286 -0.7592  0.6411  0.6287
  705MOL0     N95091  11.587   7.052   8.216  0.6225  0.4919 -0.2093
  705MOL0     C95092  10.436   6.923   8.148 -0.2704 -0.9507 -0.0516
  705MOL0     C95093  10.319   6.861   8.197 -1.1157  0.4052  0.9174
  705MOL0     C95094   9.893   6.793   8.285 -0.8893 -0.0674  0.5517
  705MOL0     C95095   9.906   6.762   8.420  0.2352  0.2844 -0.2403
  705MOL0     C95096   9.802   6.690   8.485 -0.6200  0.4034 -0.3941
  705MOL0     C95097   9.691   6.636   8.411  0.2260 -0.7386 -0.4074
  705MOL0     O95098   9.615   6.543   8.485  0.6198  0.0626  0.1375
  705MOL0     C95099   9.495   6.481   8.434  0.8438  1.2457  0.3716
  705MOL0     C95100   9.384   6.583   8.429 -0.5966  0.0396 -0.3420
  705MOL0     C95101   9.252   6.534   8.377  0.1225  0.0871  0.3106
  705MOL0     C95102   9.155   6.646   8.342  0.0961  0.5476 -0.8187
  705MOL0     C95103   9.022   6.606   8.286  0.1118  0.0514  0.0415
  705MOL0     C95104   8.925   6.561   8.230  0.6963 -1.0692  0.0986
  705MOL0     C95105   9.694   6.659   8.274 -0.1143 -0.2684  0.6899
  705MOL0     C95106   9.783   6.745   8.210 -0.1085 -0.2766 -0.8153
  705MOL0     C95107   9.758   6.770   8.066  0.5200 -0.0122 -0.2675
  705MOL0     H95108  10.144   7.125   8.305 -0.9817 -0.9547 -0.2357
  705MOL0     H95109  10.333   7.247   8.217 -1.3974  0.2088  1.4195
  705MOL0     H95110  10.508   7.311   8.071  0.8262 -0.7479 -1.7181
  705MOL0     H95111  10.600   7.285   8.230  3.1732 -0.2761  0.0498
  705MOL0     H95112  10.716   7.401   8.060 -2.0964  0.2466 -0.2436
  705MOL0     H95113  10.715   7.272   7.947  2.0768 -0.2748  0.0883
  705MOL0     H95114  10.861   7.139   8.120 -0.4967 -0.3605  2.2564
  705MOL0     H95115  10.823   7.259   8.236 -3.0490 -2.2850  0.6582
  705MOL0     H95116  10.987   7.318   7.969  2.6278  1.1202  0.9339
  705MOL0     H95117  10.925   7.447   8.074  2.4306  1.6199 -0.5530
  705MOL0     H95118  11.155   7.413   8.108 -1.2615  1.8615 -0.1032
  705MOL0     H95119  11.067   7.383   8.250 -0.2895  1.7987 -0.9213
  705MOL0     H95120  11.093   7.135   8.247 -0.6422 -0.8590 -0.9702
  705MOL0     H95121  11.111   7.130   8.075  1.3149 -0.0323 -0.5605
  705MOL0     H95122  11.306   7.257   8.269 -3.0481  2.9653 -1.1971
  705MOL0     H95123  11.338   7.212   8.099 -1.0039 -0.0035  0.1442
  705MOL0     H95124  11.269   6.991   8.290  0.3884 -0.7308 -0.4776
  705MOL0     H95125  11.337   6.984   8.127  2.3082 -1.9053 -0.0560
  705MOL0     H95126  11.422   6.942   8.479  0.5733 -2.0573 -0.3748
  705MOL0     H95127  11.687   6.964   8.611  1.7300  2.5726 -0.1745
  705MOL0     H95128  11.690   6.805   8.538  1.9504 -0.2234  0.6699
  705MOL0     H95129  11.905   6.882   8.407  0.5240 -1.8719  1.4765
  705MOL0     H95130  11.893   7.031   8.517  0.2482  0.2245 -1.5015
  705MOL0     H95131  11.923   6.727   8.571 -2.9332  0.4215 -0.0185
  705MOL0     H95132  11.875   6.848   8.697  1.3823  3.5127  1.4548
  705MOL0     H95133  12.117   6.792   8.699 -0.8357 -1.2235 -1.0079
  705MOL0     H95134  12.088   6.965   8.685 -0.4818 -0.6898  1.8722
  705MOL0     H95135  12.290   6.812   8.300 -0.9913  0.3298  0.3661
  705MOL0     H95136  12.543   6.828   8.278 -0.7566 -0.0922 -0.8238
  705MOL0     H95137  12.978   7.027   8.322 -0.2638 -0.6609 -1.2768
  705MOL0     H95138  13.211   6.987   8.289 -0.3962 -0.3530 -0.5187
  705MOL0     H95139  13.380   6.783   8.105 -2.7943 -1.6662  0.2095
  705MOL0     H95140  13.401   6.917   8.221  1.1392 -0.0149 -0.9349
  705MOL0     H95141  13.618   6.850   8.157  0.5180 -0.4065 -0.4588
  705MOL0     H95142  13.602   6.799   8.317  2.7577 -0.0366 -0.4537
  705MOL0     H95143  13.554   6.569   8.256 -0.4280  0.9926  0.8073
  705MOL0     H95144  13.563   6.611   8.078 -1.4123  0.6371  0.5469
  705MOL0     H95145  13.799   6.647   8.277 -1.2011 -2.0505  0.8032
  705MOL0     H95146  13.806   6.689   8.104 -0.9934  0.4565 -0.9074
  705MOL0     H95147  13.770   6.451   8.043 -3.3665 -0.2474  0.5046
  705MOL0     H95148  13.727   6.412   8.210 -0.5277  0.8232 -0.9876
  705MOL0     H95149  13.951   6.439   8.302 -1.6751  0.3426  1.0669
  705MOL0     H95150  13.953   6.321   8.169  2.1668  0.5222 -0.3323
  705MOL0     H95151  13.977   6.574   8.047  0.2213 -0.0742  0.2649
  705MOL0     H95152  14.093   6.453   8.046 -3.2542 -1.7565 -0.5286
  705MOL0     H95153  14.067   6.678   8.242 -0.3069 -1.2367 -0.2490
  705MOL0     H95154  14.194   6.548   8.259  1.4663 -1.0981 -1.8151
  705MOL0     H95155  13.136   6.561   8.358 -0.8112 -0.1521  0.7662
  705MOL0     H95156  12.913   6.606   8.372 -0.7265 -0.1313 -0.2322
  705MOL0     H95157  12.577   6.904   8.697  0.5710 -1.1414  0.0862
  705MOL0     H95158  12.321   6.929   8.713 -1.5729  1.4537 -1.8390
  705MOL0     H95159  10.524   6.867   8.122 -0.3563 -1.6639  1.1080
  705MOL0     H95160  10.312   6.754   8.186  0.7603 -0.1456  3.8576
  705MOL0     H95161   9.972   6.813   8.490 -0.8366 -1.2606  2.0394
  705MOL0     H95162   9.802   6.672   8.592  1.1497 -2.9898 -0.8076
  705MOL0     H95163   9.466   6.394   8.494  0.1525  0.0088 -1.6600
  705MOL0     H95164   9.517   6.441   8.334  2.0582  2.4156  0.1484
  705MOL0     H95165   9.413   6.666   8.363 -2.7241  0.7311 -0.4749
  705MOL0     H95166   9.368   6.618   8.531 -1.9146  2.0004 -1.1517
  705MOL0     H95167   9.197   6.471   8.448  1.5454 -1.6148 -0.0212
  705MOL0     H95168   9.256   6.469   8.289 -1.2881  0.0628  0.2380
  705MOL0     H95169   9.146   6.708   8.432  2.6897  0.4874 -0.4349
  705MOL0     H95170   9.204   6.709   8.267  0.7139  0.4688 -0.4952
  705MOL0     H95171   8.834   6.541   8.178 -0.3819  1.4508  0.8715
  705MOL0     H95172   9.626   6.621   8.199  1.7042 -1.4897 -0.4475
  705MOL0     H95173   9.828   6.824   8.001 -0.9888  2.5753  0.1464
  705MOL0     H95174   9.739   6.680   8.007  3.3686 -1.0137  0.1766
  705MOL0     H95175   9.664   6.825   8.061  0.7368  0.5654  1.4370
  706MOL0     O95176  10.128   1.847   4.359 -0.2784  0.3342 -0.3425
  706MOL0     C95177  10.166   1.836   4.480  0.6595 -0.2480  0.2558
  706MOL0     O95178  10.296   1.824   4.519  0.4149 -0.0479  0.8642
  706MOL0     C95179  10.395   1.826   4.426 -0.0108  0.5418 -0.1399
  706MOL0     C95180  10.406   1.917   4.314  0.4375 -0.8361 -0.0004
  706MOL0     C95181  10.511   1.918   4.230  0.4238 -0.3210 -0.4908
  706MOL0     C95182  10.620   1.838   4.254 -0.2976  0.2617  0.4052
  706MOL0     O95183  10.738   1.857   4.176 -0.4145 -0.4284 -0.6427
  706MOL0     C95184  10.847   1.762   4.184  0.5799  0.3944  0.1964
  706MOL0     C95185  10.944   1.795   4.072 -0.7068 -0.5894 -0.0576
  706MOL0     C95186  11.067   1.693   4.098  0.8214 -0.8005 -0.4861
  706MOL0     C95187  11.174   1.708   3.991  0.4096 -1.1532  0.3844
  706MOL0     C95188  11.305   1.649   4.019 -0.4929  0.1448 -0.0345
  706MOL0     C95189  11.412   1.688   3.915 -0.1834 -0.3711 -0.3152
  706MOL0     C95190  11.556   1.656   3.966 -0.4621 -0.5162  0.1543
  706MOL0     C95191  11.592   1.506   3.980 -0.5204 -0.2329 -0.0062
  706MOL0     N95192  11.612   1.454   3.846 -0.2764  0.0488 -0.4859
  706MOL0     C95193  11.735   1.444   3.785 -0.5662  0.5345  0.4744
  706MOL0     C95194  11.715   1.421   3.650  0.6810  0.2514  0.3102
  706MOL0     C95195  11.811   1.418   3.538 -0.3963  1.0057 -0.6560
  706MOL0     C95196  11.925   1.316   3.561  0.7644 -0.4349  0.5800
  706MOL0     C95197  12.054   1.373   3.620  0.3070  0.2611  0.2180
  706MOL0     C95198  12.136   1.253   3.658 -0.3063  0.2381 -0.0626
  706MOL0     O95199  12.262   1.294   3.720  0.3096 -0.1757  0.4148
  706MOL0     C95200  12.372   1.304   3.640  0.2063 -0.5298 -0.0217
  706MOL0     C95201  12.440   1.187   3.600  0.4460 -0.2159  0.5568
  706MOL0     C95202  12.543   1.187   3.504  0.2881 -0.6216 -0.2383
  706MOL0     C95203  12.571   1.306   3.431  0.4637  0.2663 -0.3218
  706MOL0     C95204  12.690   1.322   3.342 -0.1324  0.8354  1.1320
  706MOL0     O95205  12.758   1.202   3.331  0.2457 -0.3511 -0.6402
  706MOL0     C95206  12.887   1.201   3.271  0.5720  0.1624 -0.4456
  706MOL0     C95207  12.903   1.208   3.137  0.4080 -0.1864  0.4774
  706MOL0     C95208  13.031   1.189   3.080  0.5275  0.1216  0.3269
  706MOL0     C95209  13.134   1.155   3.163  0.1124 -1.2481 -0.7645
  706MOL0     O95210  13.250   1.126   3.091  0.2648  1.1560  0.5469
  706MOL0     C95211  13.386   1.115   3.151  0.6759  0.0973  0.4186
  706MOL0     C95212  13.472   1.241   3.153 -0.2378  0.0288  0.6655
  706MOL0     C95213  13.536   1.278   3.009  0.4263 -0.5370 -0.6489
  706MOL0     C95214  13.637   1.386   3.022  0.2962  0.0586  0.0948
  706MOL0     C95215  13.773   1.363   3.087 -0.2867  0.0839  0.7851
  706MOL0     C95216  13.879   1.472   3.042 -0.1591 -1.6355 -0.4776
  706MOL0     C95217  14.021   1.432   3.093 -0.0312  0.0354 -0.2431
  706MOL0     C95218  14.131   1.525   3.032 -0.1899  1.2059  0.2232
  706MOL0    Cl95219  14.298   1.453   3.052  0.0357  0.1751 -0.6670
  706MOL0     C95220  13.118   1.147   3.305 -0.6175 -0.5954  1.2615
  706MOL0     C95221  12.994   1.185   3.355  0.6769  0.5313 -0.6713
  706MOL0     O95222  12.717   1.426   3.285  0.2266  0.2238  0.2802
  706MOL0     C95223  12.495   1.420   3.461  0.1008 -1.3788  0.1535
  706MOL0     C95224  12.400   1.421   3.564  0.4614 -0.4046  0.6177
  706MOL0     N95225  11.582   1.410   3.626 -0.3160  0.8169 -1.2494
  706MOL0     N95226  11.525   1.431   3.745  0.2898  0.2661 -0.8060
  706MOL0     C95227  10.609   1.737   4.351  0.1872  0.2819 -0.2091
  706MOL0     C95228  10.500   1.729   4.440  0.4688 -0.5580  0.1167
  706MOL0     C95229  10.049   1.843   4.578  1.0188  0.1624 -0.4891
  706MOL0     C95230   9.923   1.805   4.531 -0.5418  0.2699 -0.3453
  706MOL0     C95231   9.810   1.820   4.615 -0.2716  0.0823 -1.0726
  706MOL0     C95232   9.818   1.870   4.740 -0.7807 -0.4164  0.3397
  706MOL0     O95233   9.699   1.882   4.810  0.3558 -0.2942  0.9519
  706MOL0     C95234   9.677   1.773   4.900  0.2467 -0.2182  0.2129
  706MOL0     C95235   9.589   1.816   5.014  0.4908  0.8446  0.2565
  706MOL0     C95236   9.445   1.868   4.984 -0.2551  0.3044  0.0327
  706MOL0     C95237   9.361   1.888   5.108 -0.7750 -1.1304 -0.1477
  706MOL0     C95238   9.217   1.861   5.074 -0.1364 -0.8133 -0.1274
  706MOL0     C95239   9.095   1.840   5.051 -0.1042 -0.3293  0.2724
  706MOL0     C95240   9.938   1.904   4.791 -0.2812  0.6639  1.0269
  706MOL0     C95241  10.063   1.887   4.713  0.4490 -0.0603 -0.3064
  706MOL0     C95242  10.195   1.922   4.771 -0.2301  0.4415 -0.4752
  706MOL0     H95243  10.328   1.991   4.293  0.3264 -1.9259 -4.4471
  706MOL0     H95244  10.515   1.981   4.141  1.8197  0.6311  0.1929
  706MOL0     H95245  10.894   1.763   4.283  0.1967  3.3158  0.4337
  706MOL0     H95246  10.807   1.661   4.178 -1.8979  1.3946 -2.9039
  706MOL0     H95247  10.990   1.894   4.083 -0.1355 -1.1394  3.7178
  706MOL0     H95248  10.907   1.780   3.970  1.0628  2.5605 -1.3004
  706MOL0     H95249  11.047   1.587   4.117  3.9674 -0.9497  3.3769
  706MOL0     H95250  11.110   1.727   4.193  1.1002 -0.6435 -0.6680
  706MOL0     H95251  11.142   1.663   3.896 -0.8359 -1.2607  0.8359
  706MOL0     H95252  11.184   1.817   3.991 -0.4049 -1.0597  1.3116
  706MOL0     H95253  11.343   1.681   4.117  1.6287  0.8915 -1.0462
  706MOL0     H95254  11.307   1.540   4.030 -1.7895  0.0192 -0.8954
  706MOL0     H95255  11.390   1.652   3.814  0.7042 -0.6893 -0.3987
  706MOL0     H95256  11.407   1.797   3.907  0.2408 -0.4755 -2.5931
  706MOL0     H95257  11.581   1.683   4.069  1.8782 -0.3808 -0.3985
  706MOL0     H95258  11.614   1.705   3.888 -1.6079  0.0726 -0.3512
  706MOL0     H95259  11.677   1.497   4.048  0.8871  2.2548 -1.2866
  706MOL0     H95260  11.508   1.452   4.024  0.8105 -0.7251  2.0416
  706MOL0     H95261  11.830   1.459   3.835 -0.5124 -1.2700  0.9779
  706MOL0     H95262  11.771   1.390   3.441  0.0201 -2.7605  0.1029
  706MOL0     H95263  11.842   1.523   3.541 -1.7002  1.4114  2.0362
  706MOL0     H95264  11.882   1.224   3.604 -0.7619  0.2936  0.6904
  706MOL0     H95265  11.946   1.306   3.454 -1.7902  2.7763 -0.3938
  706MOL0     H95266  12.031   1.415   3.719 -0.8152 -2.1403  1.0564
  706MOL0     H95267  12.102   1.449   3.558 -2.3403 -1.0533 -3.8567
  706MOL0     H95268  12.148   1.189   3.570  0.1639  1.8626 -1.2276
  706MOL0     H95269  12.083   1.190   3.729  1.8735 -0.7256  0.7985
  706MOL0     H95270  12.419   1.096   3.655 -3.0580 -2.1982 -3.4729
  706MOL0     H95271  12.595   1.093   3.494 -1.4179 -1.5897 -0.3655
  706MOL0     H95272  12.815   1.237   3.079  1.9462  1.1981 -1.2972
  706MOL0     H95273  13.044   1.210   2.974  0.2317 -0.0721  0.2501
  706MOL0     H95274  13.378   1.069   3.249 -0.8388 -2.8841 -0.9759
  706MOL0     H95275  13.440   1.039   3.095  1.0648  1.6498 -1.4449
  706MOL0     H95276  13.426   1.334   3.187  0.5136  1.1830 -1.2649
  706MOL0     H95277  13.557   1.215   3.217 -1.0256 -1.6087  1.0800
  706MOL0     H95278  13.586   1.185   2.979  2.0925 -0.1182  0.6984
  706MOL0     H95279  13.449   1.293   2.944  0.4934 -1.9681 -1.0995
  706MOL0     H95280  13.596   1.467   3.083  2.2159 -0.4822  2.2129
  706MOL0     H95281  13.654   1.421   2.920 -0.5177  3.8504  1.0986
  706MOL0     H95282  13.804   1.269   3.041 -2.2405  0.2654 -1.0871
  706MOL0     H95283  13.767   1.358   3.196  0.4873 -0.6688  0.8023
  706MOL0     H95284  13.880   1.487   2.933  0.3924 -1.4932 -0.4528
  706MOL0     H95285  13.843   1.569   3.079 -2.9041 -2.9391  0.5895
  706MOL0     H95286  14.040   1.328   3.065  0.6328 -0.4030  1.6539
  706MOL0     H95287  14.033   1.443   3.202 -1.0052 -0.8092 -0.0376
  706MOL0     H95288  14.111   1.532   2.925 -1.8293 -0.7850  0.3329
  706MOL0     H95289  14.118   1.626   3.072  0.5227  2.3826 -2.2982
  706MOL0     H95290  13.202   1.124   3.370  0.2037 -2.0436 -0.2292
  706MOL0     H95291  12.979   1.185   3.463  1.0419  0.9199 -0.6191
  706MOL0     H95292  12.502   1.513   3.406  2.1014 -2.1842 -1.0614
  706MOL0     H95293  12.337   1.505   3.590 -0.1741  0.4470 -3.1565
  706MOL0     H95294  10.685   1.666   4.382  0.1984 -0.1227 -1.1332
  706MOL0     H95295  10.502   1.668   4.530 -0.9623  0.3672  0.8264
  706MOL0     H95296   9.902   1.770   4.430  0.8824  1.4206 -1.0743
  706MOL0     H95297   9.713   1.786   4.580 -0.1654 -1.1153 -0.2559
  706MOL0     H95298   9.775   1.748   4.943  1.0004  3.6796  1.1041
  706MOL0     H95299   9.644   1.687   4.840  1.5750  0.7997 -2.1104
  706MOL0     H95300   9.642   1.890   5.075  0.4246  0.3488  0.9202
  706MOL0     H95301   9.579   1.723   5.069  4.5165  0.3438  0.4177
  706MOL0     H95302   9.396   1.794   4.920 -2.3311  0.7670  0.9997
  706MOL0     H95303   9.441   1.967   4.937 -0.0271  0.3368  0.0790
  706MOL0     H95304   9.390   1.817   5.187 -3.1125 -2.7371 -0.6248
  706MOL0     H95305   9.374   1.990   5.145 -1.1863 -1.4327  0.8672
  706MOL0     H95306   8.989   1.830   5.040 -0.8364  0.2635  4.7746
  706MOL0     H95307   9.948   1.933   4.895 -1.6031  0.2865  1.2789
  706MOL0     H95308  10.256   1.968   4.692  0.5367  2.4120  1.1713
  706MOL0     H95309  10.202   1.986   4.860  1.8600 -0.7670  0.3131
  706MOL0     H95310  10.257   1.837   4.800 -0.5186  0.4697  0.2444
  707MOL0     O95311   5.194   6.174   4.739 -0.3142 -0.1580 -0.4427
  707MOL0     C95312   5.168   6.191   4.621  0.7900 -1.0960  0.4478
  707MOL0     O95313   5.077   6.291   4.575  0.3588  0.2031 -0.0770
  707MOL0     C95314   4.994   6.350   4.670  0.2286  0.6781 -0.8041
  707MOL0     C95315   4.925   6.268   4.760  0.0017 -0.9221  0.9899
  707MOL0     C95316   4.843   6.324   4.858  0.2463 -0.0917  0.4951
  707MOL0     C95317   4.829   6.461   4.867  0.2203 -0.1332  1.6156
  707MOL0     O95318   4.755   6.534   4.958 -0.4624  0.0402 -0.3214
  707MOL0     C95319   4.633   6.475   4.986  0.5127  0.3824 -0.4063
  707MOL0     C95320   4.535   6.577   5.057 -0.9914  1.0484 -0.0581
  707MOL0     C95321   4.422   6.507   5.127 -0.7718  0.3673  0.6266
  707MOL0     C95322   4.335   6.613   5.186 -0.3590 -0.2247  0.6164
  707MOL0     C95323   4.237   6.541   5.276  0.3286 -1.1768 -0.5051
  707MOL0     C95324   4.162   6.657   5.357  0.5188 -0.9902  0.8522
  707MOL0     C95325   4.070   6.743   5.264  0.0719  0.2141  0.1010
  707MOL0     C95326   3.929   6.773   5.322 -0.3415 -0.2582  0.2206
  707MOL0     N95327   3.846   6.653   5.326 -0.5352  0.0771  0.0287
  707MOL0     C95328   3.795   6.598   5.444 -0.1048  0.0972  0.4202
  707MOL0     C95329   3.685   6.531   5.406 -1.0938  0.0832 -0.1233
  707MOL0     C95330   3.604   6.460   5.499  1.1474 -0.3672 -0.5388
  707MOL0     C95331   3.493   6.553   5.558 -0.0475  0.3544  0.5861
  707MOL0     C95332   3.367   6.573   5.472 -0.1704  0.5590  1.0072
  707MOL0     C95333   3.286   6.444   5.463  0.8321 -0.1392  0.3317
  707MOL0     O95334   3.241   6.401   5.596  0.2616 -0.2864 -0.0945
  707MOL0     C95335   3.149   6.300   5.601  0.3695  0.3038  0.6967
  707MOL0     C95336   3.103   6.260   5.726  0.0158  0.0206  0.4871
  707MOL0     C95337   2.993   6.169   5.748  0.7994 -0.6329  0.9710
  707MOL0     C95338   2.943   6.097   5.640  0.0418  0.3764 -0.0437
  707MOL0     C95339   2.827   5.996   5.661 -0.5748 -0.3121  0.7891
  707MOL0     O95340   2.772   5.951   5.543 -0.1902  0.0526  0.2812
  707MOL0     C95341   2.667   5.866   5.551  0.0090 -0.2054 -0.0375
  707MOL0     C95342   2.537   5.921   5.547 -0.4816  0.1966  0.2102
  707MOL0     C95343   2.430   5.825   5.553 -0.1467 -1.1075  0.3000
  707MOL0     C95344   2.457   5.688   5.548 -0.4296 -1.4933  0.4266
  707MOL0     O95345   2.363   5.589   5.562 -0.0438  0.4935 -0.2832
  707MOL0     C95346   2.251   5.588   5.466 -0.5235  0.4061  0.0996
  707MOL0     C95347   2.297   5.588   5.321  0.5846  0.1188 -0.6013
  707MOL0     C95348   2.377   5.456   5.296 -0.2838 -0.3717 -0.1499
  707MOL0     C95349   2.451   5.476   5.164 -0.2086 -0.8303  0.6338
  707MOL0     C95350   2.458   5.345   5.097  0.2531  0.4648  0.5559
  707MOL0     C95351   2.524   5.354   4.963  0.1537 -0.4108 -0.4511
  707MOL0     C95352   2.521   5.215   4.885 -0.6184 -0.2705 -0.3806
  707MOL0     C95353   2.629   5.119   4.932  0.6951  0.7951  0.7000
  707MOL0    Cl95354   2.618   4.969   4.821 -0.0995  0.1435  0.0242
  707MOL0     C95355   2.584   5.637   5.541 -0.8187 -0.5547  0.2255
  707MOL0     C95356   2.695   5.730   5.545 -0.0767 -0.4102 -0.6687
  707MOL0     O95357   2.781   5.970   5.773  0.7341  0.5239  0.0348
  707MOL0     C95358   2.993   6.134   5.512  0.2745 -0.7694  0.5004
  707MOL0     C95359   3.097   6.226   5.495  0.3411  0.1919  0.5039
  707MOL0     N95360   3.678   6.543   5.270 -0.1612  1.0838  0.9504
  707MOL0     N95361   3.769   6.617   5.220 -0.0351 -0.6124 -0.1998
  707MOL0     C95362   4.903   6.541   4.770 -0.6879 -0.0934 -0.1175
  707MOL0     C95363   4.975   6.487   4.672 -0.0690  0.3828  0.4502
  707MOL0     C95364   5.227   6.114   4.511 -0.6771 -0.1196  0.3251
  707MOL0     C95365   5.354   6.052   4.523  0.1063 -0.8803 -0.5995
  707MOL0     C95366   5.416   5.989   4.416  1.0636 -0.2009  0.8469
  707MOL0     C95367   5.361   5.966   4.282  0.1298  0.0512  0.5130
  707MOL0     O95368   5.443   5.912   4.182 -0.0660 -0.1166 -0.1097
  707MOL0     C95369   5.435   5.984   4.060 -1.0903  0.4673  0.5053
  707MOL0     C95370   5.543   5.936   3.963 -0.4806 -0.8488 -0.1457
  707MOL0     C95371   5.551   6.026   3.834  0.4424  0.5515 -0.0109
  707MOL0     C95372   5.590   5.940   3.711 -0.2899 -0.2752 -0.6259
  707MOL0     C95373   5.464   5.875   3.661 -0.1303  0.0583  0.0609
  707MOL0     C95374   5.363   5.821   3.622 -0.7665 -0.2657  0.2412
  707MOL0     C95375   5.230   6.024   4.272  0.4815 -0.6768 -0.3813
  707MOL0     C95376   5.168   6.090   4.383  0.2517 -0.0356  0.4169
  707MOL0     C95377   5.022   6.133   4.353 -0.1740 -0.1224  0.0782
  707MOL0     H95378   4.943   6.161   4.755  1.8078 -0.5939 -1.4521
  707MOL0     H95379   4.780   6.266   4.925 -1.7741  1.4625  0.0129
  707MOL0     H95380   4.590   6.448   4.889  0.7278  0.0456 -0.4118
  707MOL0     H95381   4.635   6.378   5.037 -0.0885  0.3781 -0.3819
  707MOL0     H95382   4.501   6.647   4.980 -0.9409  1.7488  0.5440
  707MOL0     H95383   4.592   6.634   5.130  1.4576 -0.9588 -0.2996
  707MOL0     H95384   4.470   6.451   5.208 -2.1480  0.2440  1.3881
  707MOL0     H95385   4.363   6.435   5.069  1.6984 -0.6961 -0.7206
  707MOL0     H95386   4.385   6.689   5.247 -2.4268  0.4125  1.6343
  707MOL0     H95387   4.280   6.668   5.109  1.8700  3.0460  1.1697
  707MOL0     H95388   4.171   6.475   5.219  0.2748  0.0082 -1.8445
  707MOL0     H95389   4.295   6.479   5.345  0.5240 -1.2834 -0.7633
  707MOL0     H95390   4.100   6.618   5.439 -2.0863  1.1422 -0.0007
  707MOL0     H95391   4.225   6.734   5.401 -0.1373  0.8261 -1.2422
  707MOL0     H95392   4.047   6.692   5.170  0.4255 -0.9546  0.6225
  707MOL0     H95393   4.132   6.830   5.243 -0.1596  0.6933  1.2909
  707MOL0     H95394   3.931   6.833   5.413  0.0461  0.2109 -0.0921
  707MOL0     H95395   3.875   6.828   5.244  0.5898 -1.3142 -1.2249
  707MOL0     H95396   3.832   6.593   5.546  3.4055 -0.1398 -0.7218
  707MOL0     H95397   3.553   6.369   5.464  2.0425 -1.7248  1.4692
  707MOL0     H95398   3.664   6.434   5.586 -0.3986 -2.6125 -0.0420
  707MOL0     H95399   3.460   6.502   5.649  2.0869 -3.4261 -0.5550
  707MOL0     H95400   3.540   6.651   5.569 -0.3325  0.4415  1.0109
  707MOL0     H95401   3.390   6.614   5.374 -2.8275  1.3176  0.6298
  707MOL0     H95402   3.313   6.651   5.526 -0.6933  2.3797 -1.9742
  707MOL0     H95403   3.341   6.367   5.409  1.3319  0.8028 -0.5295
  707MOL0     H95404   3.201   6.474   5.401  0.1561 -1.9087  0.3488
  707MOL0     H95405   3.161   6.308   5.805 -0.7968  1.6682  0.1384
  707MOL0     H95406   2.952   6.158   5.848  0.5761  1.1083  1.0933
  707MOL0     H95407   2.514   6.027   5.538  2.3808  0.7240 -2.5438
  707MOL0     H95408   2.323   5.844   5.563 -0.2766 -2.6433  2.4698
  707MOL0     H95409   2.198   5.493   5.469  1.2812 -0.6581 -0.2372
  707MOL0     H95410   2.187   5.671   5.496 -0.6264  0.5025 -0.3841
  707MOL0     H95411   2.206   5.589   5.260 -0.6632  0.2701  1.1580
  707MOL0     H95412   2.352   5.682   5.311  0.0133  0.7305  1.4152
  707MOL0     H95413   2.447   5.438   5.378 -1.6489  1.8292  1.6139
  707MOL0     H95414   2.303   5.375   5.294  0.3239 -0.9278 -0.2783
  707MOL0     H95415   2.545   5.533   5.170 -0.8705  0.3505  0.1620
  707MOL0     H95416   2.390   5.538   5.098  1.1220  1.2684  1.2825
  707MOL0     H95417   2.353   5.325   5.072  0.2611  1.7341 -0.6092
  707MOL0     H95418   2.510   5.272   5.160  2.9336 -1.7357 -3.6856
  707MOL0     H95419   2.470   5.425   4.899 -3.8029 -0.3341  2.5926
  707MOL0     H95420   2.624   5.386   4.996  0.8579 -1.9366 -1.0296
  707MOL0     H95421   2.543   5.248   4.783 -2.4197  0.1965 -0.6483
  707MOL0     H95422   2.418   5.180   4.887 -0.3963 -1.6479 -4.3457
  707MOL0     H95423   2.729   5.163   4.929  0.8223  0.9174  3.8184
  707MOL0     H95424   2.611   5.074   5.030 -1.0062  0.2403  0.1743
  707MOL0     H95425   2.605   5.531   5.534 -1.8466 -0.6867 -1.3645
  707MOL0     H95426   2.799   5.697   5.543  0.8365  1.7988  2.6464
  707MOL0     H95427   2.954   6.084   5.423  1.0540 -2.7321  1.1930
  707MOL0     H95428   3.126   6.247   5.393 -1.5658 -2.0205 -0.5800
  707MOL0     H95429   4.896   6.649   4.764  2.3049  0.1928 -0.3371
  707MOL0     H95430   5.010   6.559   4.599  1.7036  0.4663  1.3035
  707MOL0     H95431   5.412   6.050   4.614 -1.2314  3.0016  0.5111
  707MOL0     H95432   5.512   5.946   4.443  0.3056 -2.2700  0.4561
  707MOL0     H95433   5.452   6.089   4.085  0.9296  0.4160 -0.4777
  707MOL0     H95434   5.330   5.981   4.030 -1.5550  3.4107  1.4758
  707MOL0     H95435   5.519   5.836   3.926 -0.4213 -0.2658 -1.8331
  707MOL0     H95436   5.637   5.942   4.019  0.3792 -0.1835 -1.5917
  707MOL0     H95437   5.624   6.104   3.857 -0.9316  1.8184  0.2470
  707MOL0     H95438   5.458   6.079   3.810  0.1912 -0.2219 -0.8109
  707MOL0     H95439   5.628   6.015   3.641 -1.0844  2.5866  1.8375
  707MOL0     H95440   5.663   5.859   3.726 -1.7515 -1.8164 -1.4309
  707MOL0     H95441   5.270   5.794   3.577  0.8167 -0.0530 -3.5083
  707MOL0     H95442   5.176   6.008   4.179 -2.0753  0.5539  0.7770
  707MOL0     H95443   5.025   6.237   4.322 -1.0863 -0.2233 -0.3803
  707MOL0     H95444   4.983   6.069   4.274  0.4250 -1.2262  0.6508
  707MOL0     H95445   4.945   6.132   4.431 -2.5478 -2.4798 -2.1044
  708MOL0     O95446  10.229   2.638   8.331  0.4737  0.4100  0.7197
  708MOL0     C95447  10.194   2.737   8.390  0.1008 -0.2365  0.1458
  708MOL0     O95448  10.256   2.864   8.392 -0.1085 -0.5338 -0.4083
  708MOL0     C95449  10.381   2.887   8.339  0.5537 -0.1417 -0.1608
  708MOL0     C95450  10.430   2.837   8.217  0.2188  0.1028  0.0949
  708MOL0     C95451  10.552   2.890   8.168 -0.0197 -0.4321 -0.1557
  708MOL0     C95452  10.620   2.994   8.232 -0.0434  0.4639 -0.7984
  708MOL0     O95453  10.743   3.023   8.179  0.7456 -0.7321 -1.0172
  708MOL0     C95454  10.828   3.127   8.240 -0.4759  0.2782  0.4739
  708MOL0     C95455  10.938   3.054   8.318 -0.0256  0.1215  0.5117
  708MOL0     C95456  11.044   3.159   8.350 -0.5039 -0.4605 -0.1040
  708MOL0     C95457  11.119   3.132   8.474 -0.1468  0.0430 -0.4046
  708MOL0     C95458  11.250   3.206   8.481 -0.0434  0.1742 -0.6571
  708MOL0     C95459  11.320   3.174   8.619  0.1896 -0.2653  0.0906
  708MOL0     C95460  11.452   3.252   8.633 -0.7477  0.7033 -0.3967
  708MOL0     C95461  11.536   3.196   8.743 -0.3246 -0.1340 -0.4667
  708MOL0     N95462  11.676   3.252   8.748 -0.0298  0.4956 -0.0859
  708MOL0     C95463  11.731   3.330   8.852 -0.7519  0.9525  0.6986
  708MOL0     C95464  11.865   3.340   8.823 -0.6022  0.6951  0.4332
  708MOL0     C95465  11.968   3.420   8.897  0.0184 -0.2774  0.6096
  708MOL0     C95466  12.120   3.383   8.901 -0.8606  0.4691  0.3373
  708MOL0     C95467  12.212   3.482   8.972  0.6185 -0.0159  0.5041
  708MOL0     C95468  12.349   3.419   9.015 -0.6697 -0.1717 -0.7019
  708MOL0     O95469  12.424   3.524   9.073 -0.0810 -0.8413  0.6155
  708MOL0     C95470  12.543   3.561   9.025  0.0065  0.2188  0.7568
  708MOL0     C95471  12.582   3.549   8.888  0.6603  0.7438 -0.0379
  708MOL0     C95472  12.710   3.570   8.849  0.4641 -0.9274  0.2575
  708MOL0     C95473  12.813   3.609   8.942  0.6311 -0.5594  0.1237
  708MOL0     C95474  12.947   3.609   8.898  0.6332 -0.0920 -0.6025
  708MOL0     O95475  13.039   3.588   8.991 -0.1468 -0.1062 -0.0566
  708MOL0     C95476  13.172   3.584   8.967 -0.3848 -0.5275 -1.1291
  708MOL0     C95477  13.263   3.639   9.064  0.3716  0.6531  0.3251
  708MOL0     C95478  13.402   3.640   9.045  0.4148 -0.0214 -0.5500
  708MOL0     C95479  13.455   3.615   8.919 -0.9846 -0.5964 -0.1033
  708MOL0     O95480  13.590   3.640   8.913 -0.5824  0.1254 -0.4746
  708MOL0     C95481  13.678   3.549   8.844  0.0199 -0.1468 -1.0485
  708MOL0     C95482  13.822   3.604   8.866  0.0545 -0.3335 -0.5516
  708MOL0     C95483  13.932   3.522   8.799  0.5257  0.5670 -0.4096
  708MOL0     C95484  14.055   3.611   8.770 -0.2367  0.0474 -0.1245
  708MOL0     C95485  14.143   3.528   8.681 -0.0809  0.3794  0.6161
  708MOL0     C95486  14.286   3.593   8.659  0.4741  0.5030  0.1991
  708MOL0     C95487  14.367   3.523   8.539  0.5405  0.0937 -0.2276
  708MOL0     C95488  14.460   3.411   8.586 -0.0019  0.5802 -0.3051
  708MOL0    Cl95489  14.515   3.315   8.445 -0.1963 -0.1866 -0.2521
  708MOL0     C95490  13.365   3.551   8.830 -0.2080 -1.2777  0.3967
  708MOL0     C95491  13.231   3.539   8.850 -0.1248  0.6812 -0.9465
  708MOL0     O95492  12.969   3.618   8.775  0.2205  0.3970 -0.9235
  708MOL0     C95493  12.774   3.631   9.081 -0.0869  0.8677 -0.2934
  708MOL0     C95494  12.646   3.611   9.116 -0.2812 -0.6945 -0.4375
  708MOL0     N95495  11.892   3.268   8.707  0.0434  0.0049  0.0197
  708MOL0     N95496  11.777   3.222   8.661 -0.1816 -0.0693  0.4435
  708MOL0     C95497  10.562   3.044   8.345  0.4075  0.0656 -0.2627
  708MOL0     C95498  10.441   2.996   8.394  0.8152  0.2870 -0.6684
  708MOL0     C95499  10.061   2.731   8.465  0.6066  0.2468 -0.0525
  708MOL0     C95500   9.977   2.838   8.461 -0.3556  0.2032  0.2249
  708MOL0     C95501   9.852   2.833   8.531 -0.4261  0.2972  0.1969
  708MOL0     C95502   9.810   2.725   8.596  0.6321  0.1596 -0.7362
  708MOL0     O95503   9.682   2.709   8.639  0.1928  0.8840  0.1085
  708MOL0     C95504   9.575   2.799   8.598 -1.1748  0.3590  0.1496
  708MOL0     C95505   9.542   2.760   8.456  0.2058  0.0354  0.1385
  708MOL0     C95506   9.453   2.866   8.387  0.1470 -0.8018  0.4438
  708MOL0     C95507   9.521   2.938   8.271 -0.2061 -0.3095 -0.1259
  708MOL0     C95508   9.438   3.047   8.222  0.5890  0.1480  0.4099
  708MOL0     C95509   9.356   3.132   8.181  0.5520 -0.7592 -0.2001
  708MOL0     C95510   9.885   2.616   8.589  0.0722  0.0988 -0.7266
  708MOL0     C95511  10.014   2.609   8.526  0.2327 -0.3525 -0.5257
  708MOL0     C95512  10.083   2.484   8.523 -0.0141 -0.7911 -0.2546
  708MOL0     H95513  10.392   2.744   8.177  1.8437 -1.4714  1.9608
  708MOL0     H95514  10.608   2.851   8.084 -0.1292  1.6614 -1.2627
  708MOL0     H95515  10.858   3.191   8.156  0.4545 -1.0146 -0.2180
  708MOL0     H95516  10.764   3.185   8.307  0.9727 -0.4753  2.6239
  708MOL0     H95517  10.974   2.971   8.257 -0.8773 -0.3705  0.6700
  708MOL0     H95518  10.880   3.029   8.407 -1.4455 -0.5743 -0.5656
  708MOL0     H95519  10.994   3.256   8.359  2.6207  1.1867  0.8278
  708MOL0     H95520  11.112   3.176   8.267  0.3580 -0.7704  0.5229
  708MOL0     H95521  11.059   3.160   8.561  1.6833 -1.1510  1.3333
  708MOL0     H95522  11.152   3.027   8.478  1.2758  0.5018  0.5491
  708MOL0     H95523  11.316   3.181   8.397  0.1133 -2.1339  0.0849
  708MOL0     H95524  11.238   3.314   8.470  0.4128  0.7726  3.2829
  708MOL0     H95525  11.253   3.200   8.702 -1.7472  1.3667 -1.8723
  708MOL0     H95526  11.333   3.065   8.619  1.4152 -0.1407  0.6853
  708MOL0     H95527  11.436   3.356   8.664  1.3480  1.3086 -1.1880
  708MOL0     H95528  11.506   3.252   8.539 -1.2983 -2.4244 -0.8182
  708MOL0     H95529  11.501   3.220   8.843  0.6809 -1.9943  0.3694
  708MOL0     H95530  11.539   3.087   8.741 -0.2133 -0.1842  1.3999
  708MOL0     H95531  11.670   3.374   8.930 -3.4666 -1.3600  0.0630
  708MOL0     H95532  11.964   3.513   8.840  1.4938  0.2064  1.2483
  708MOL0     H95533  11.927   3.439   8.997 -1.9334  0.3693 -0.2753
  708MOL0     H95534  12.120   3.287   8.953 -0.6309  1.9443  3.2519
  708MOL0     H95535  12.165   3.369   8.802 -0.0293 -1.1979  0.9091
  708MOL0     H95536  12.161   3.503   9.067  2.0348 -1.9601  1.7794
  708MOL0     H95537  12.235   3.573   8.918  1.6220 -0.2198  0.5819
  708MOL0     H95538  12.399   3.381   8.926  1.2237  3.3334 -1.3480
  708MOL0     H95539  12.342   3.338   9.088  2.5424  1.3855  1.5983
  708MOL0     H95540  12.507   3.516   8.817  1.5392  2.0621 -1.6547
  708MOL0     H95541  12.726   3.561   8.742 -0.7133 -1.3049  0.0950
  708MOL0     H95542  13.221   3.687   9.152  0.7178  1.8202 -0.1382
  708MOL0     H95543  13.456   3.685   9.128 -2.1622  2.4849 -0.0978
  708MOL0     H95544  13.679   3.445   8.875 -0.8160 -1.1134 -3.9343
  708MOL0     H95545  13.657   3.532   8.738  1.0390 -0.4880 -1.2035
  708MOL0     H95546  13.827   3.705   8.824 -5.2500  0.6526  0.5121
  708MOL0     H95547  13.848   3.610   8.972  0.7886  0.4731 -0.7680
  708MOL0     H95548  13.956   3.439   8.866 -0.2717  1.5906  1.2017
  708MOL0     H95549  13.904   3.478   8.703 -0.8883 -1.2654  0.8019
  708MOL0     H95550  14.110   3.646   8.858 -1.1815 -1.5089  1.1388
  708MOL0     H95551  14.016   3.698   8.716  0.6722  0.3015 -0.3930
  708MOL0     H95552  14.084   3.510   8.591 -0.6933 -0.1037  1.1021
  708MOL0     H95553  14.170   3.432   8.725  3.1534  1.3622  1.0187
  708MOL0     H95554  14.273   3.699   8.637 -1.5931  0.0707 -0.9619
  708MOL0     H95555  14.347   3.597   8.749 -2.6753  1.5975  2.4648
  708MOL0     H95556  14.430   3.598   8.492 -0.0183  0.8180  0.1450
  708MOL0     H95557  14.288   3.490   8.470 -1.4514 -0.5888  2.2012
  708MOL0     H95558  14.538   3.442   8.656 -1.0037 -1.4673  1.8611
  708MOL0     H95559  14.405   3.337   8.645 -0.5734  0.4659 -0.9681
  708MOL0     H95560  13.394   3.503   8.737  0.0409  1.0066 -0.7798
  708MOL0     H95561  13.170   3.494   8.772 -0.1445  1.3099 -1.3029
  708MOL0     H95562  12.848   3.648   9.158  1.4365 -1.4727 -1.1538
  708MOL0     H95563  12.619   3.638   9.218  2.4996 -0.6601  0.3616
  708MOL0     H95564  10.593   3.137   8.391 -1.3147  0.5297  0.0164
  708MOL0     H95565  10.390   3.035   8.481  1.7618 -1.6899  0.8533
  708MOL0     H95566  10.001   2.925   8.401  0.3331  2.0464  2.9866
  708MOL0     H95567   9.794   2.925   8.535  0.5747  0.9198  2.4375
  708MOL0     H95568   9.605   2.903   8.610  1.0966 -0.3235  0.7659
  708MOL0     H95569   9.487   2.802   8.664 -0.6595  2.6888  0.8227
  708MOL0     H95570   9.491   2.664   8.466  0.2261  0.0551  0.4535
  708MOL0     H95571   9.634   2.754   8.397 -1.1611 -1.1510 -1.9595
  708MOL0     H95572   9.418   2.938   8.461  2.5196  1.8790 -0.8699
  708MOL0     H95573   9.367   2.809   8.348 -0.1558  0.8491 -1.4502
  708MOL0     H95574   9.608   2.993   8.308 -0.2296 -1.5853  1.9685
  708MOL0     H95575   9.562   2.875   8.193 -0.6493 -1.2603  0.3906
  708MOL0     H95576   9.302   3.208   8.128 -0.7289 -1.6544 -0.2246
  708MOL0     H95577   9.844   2.524   8.630  0.9501  0.1269  0.2715
  708MOL0     H95578  10.040   2.438   8.612  1.9880  0.1635  1.2717
  708MOL0     H95579  10.067   2.423   8.433 -2.3590  3.2438 -2.8849
  708MOL0     H95580  10.190   2.494   8.543 -0.0366 -0.9084 -0.0698
  709MOL0     O95581   0.196   6.400   4.860  0.3937  0.1963 -0.1355
  709MOL0     C95582   0.184   6.281   4.824 -0.4316  0.5755  1.5308
  709MOL0     O95583   0.287   6.184   4.832  0.3123 -0.2213 -0.3588
  709MOL0     C95584   0.412   6.227   4.875 -0.5074 -0.1825  0.2500
  709MOL0     C95585   0.522   6.252   4.790  0.0820 -0.7584 -0.8303
  709MOL0     C95586   0.648   6.281   4.830 -1.2527  0.4486  0.1000
  709MOL0     C95587   0.682   6.279   4.970  0.4203 -0.1961  0.5221
  709MOL0     O95588   0.812   6.297   5.012 -0.0261 -0.1594 -1.4548
  709MOL0     C95589   0.860   6.239   5.142  0.0843  0.3580  0.2081
  709MOL0     C95590   1.013   6.260   5.170  0.4614 -0.3608  0.0846
  709MOL0     C95591   1.098   6.180   5.069  0.2734  1.1781 -0.1557
  709MOL0     C95592   1.239   6.158   5.124 -0.2583 -0.1008 -0.3080
  709MOL0     C95593   1.342   6.095   5.026 -0.1621 -0.5243  0.3570
  709MOL0     C95594   1.482   6.089   5.078 -0.2237 -0.9283  0.5375
  709MOL0     C95595   1.483   5.996   5.209 -0.9622 -0.0068  0.8036
  709MOL0     C95596   1.616   6.000   5.281 -0.8481 -0.0428 -0.5734
  709MOL0     N95597   1.706   5.896   5.233 -0.5751 -1.0109 -0.0182
  709MOL0     C95598   1.723   5.769   5.276 -0.2755 -0.0013  0.1903
  709MOL0     C95599   1.827   5.717   5.208 -0.5460  0.3253 -1.2293
  709MOL0     C95600   1.874   5.573   5.200 -0.0942 -0.1287 -0.5624
  709MOL0     C95601   1.890   5.496   5.334 -0.0012  0.6410  0.3622
  709MOL0     C95602   1.912   5.347   5.321  0.5293  0.4813 -0.1960
  709MOL0     C95603   1.783   5.263   5.325  0.4157  0.2187 -0.3960
  709MOL0     O95604   1.675   5.334   5.260  0.1949 -0.0613 -0.6193
  709MOL0     C95605   1.552   5.267   5.274 -0.2971  0.1053 -0.1292
  709MOL0     C95606   1.439   5.335   5.234 -0.2883  0.5384  0.7412
  709MOL0     C95607   1.312   5.269   5.228  0.4362  0.0919  0.5767
  709MOL0     C95608   1.294   5.141   5.288  0.1474  0.2796 -0.4515
  709MOL0     C95609   1.156   5.090   5.307 -0.1239  0.2706 -0.1544
  709MOL0     O95610   1.054   5.122   5.207 -0.7449 -0.2780 -0.4424
  709MOL0     C95611   0.930   5.081   5.247 -0.0394  0.5766 -0.2514
  709MOL0     C95612   0.861   5.162   5.349 -0.6515 -0.1174 -0.0406
  709MOL0     C95613   0.744   5.121   5.409 -0.8221 -0.6285  0.3675
  709MOL0     C95614   0.695   4.993   5.381 -0.4811  0.5366 -0.3193
  709MOL0     O95615   0.580   4.951   5.430  0.2081  1.0673 -0.3840
  709MOL0     C95616   0.483   5.036   5.493  0.4355 -0.1409  0.5311
  709MOL0     C95617   0.354   4.963   5.525 -0.9731  1.0803 -0.7578
  709MOL0     C95618   0.230   5.045   5.547  0.0496 -0.7594  0.1412
  709MOL0     C95619   0.091   4.973   5.574 -0.1158 -0.6330 -0.6817
  709MOL0     C95620  -0.002   5.068   5.652  0.2089  0.8386  0.6983
  709MOL0     C95621  -0.134   4.995   5.678 -0.6947 -0.8245  0.1509
  709MOL0     C95622  -0.240   5.081   5.748 -0.3862 -0.5026  1.0532
  709MOL0     C95623  -0.250   5.083   5.903 -0.0944  0.3815  0.4899
  709MOL0    Cl95624  -0.357   5.213   5.956 -0.0324 -0.3964 -0.2747
  709MOL0     C95625   0.762   4.915   5.280 -0.3803 -0.4540  0.2728
  709MOL0     C95626   0.878   4.958   5.218  0.7633 -0.5715 -0.5197
  709MOL0     O95627   1.134   5.033   5.414  0.5421 -0.0360  0.1703
  709MOL0     C95628   1.409   5.069   5.337  0.2555 -0.0796  0.3485
  709MOL0     C95629   1.533   5.135   5.326 -0.4076  1.2440 -0.3434
  709MOL0     N95630   1.857   5.807   5.108 -0.5213 -0.2467 -0.1700
  709MOL0     N95631   1.791   5.915   5.126  0.1807 -0.6025  0.3970
  709MOL0     C95632   0.570   6.245   5.062 -0.9360 -0.6294  0.0234
  709MOL0     C95633   0.442   6.222   5.011 -0.3914  0.5375 -0.9557
  709MOL0     C95634   0.048   6.231   4.787  0.2868  0.5384 -0.2058
  709MOL0     C95635  -0.046   6.221   4.891 -0.9304  0.1483 -0.5315
  709MOL0     C95636  -0.167   6.161   4.881 -0.4531  0.8024 -0.4606
  709MOL0     C95637  -0.207   6.093   4.766 -0.9921  0.2640  0.5735
  709MOL0     O95638  -0.330   6.044   4.740 -0.6331  0.0394  0.1857
  709MOL0     C95639  -0.383   5.975   4.855  0.1387 -0.3369  0.9162
  709MOL0     C95640  -0.516   5.919   4.815  0.2894 -0.9649 -0.1516
  709MOL0     C95641  -0.620   6.035   4.793 -0.5029  0.1039 -0.7920
  709MOL0     C95642  -0.761   5.981   4.786  0.1736  0.6059 -0.4670
  709MOL0     C95643  -0.853   6.092   4.739  0.2217  0.2727  0.0280
  709MOL0     C95644  -0.919   6.189   4.703 -0.6363  0.5605  0.2656
  709MOL0     C95645  -0.113   6.099   4.663  0.0652  0.1581  0.5907
  709MOL0     C95646   0.017   6.165   4.676 -0.0775  1.4625  0.9276
  709MOL0     C95647   0.108   6.158   4.549  0.1817 -0.7222 -0.1030
  709MOL0     H95648   0.505   6.244   4.683 -3.8626  2.8283 -0.7296
  709MOL0     H95649   0.730   6.299   4.762 -1.0043  0.8159  0.4877
  709MOL0     H95650   0.811   6.278   5.231 -0.6974  2.6419 -1.1348
  709MOL0     H95651   0.840   6.132   5.146  0.3675  0.3157  0.5158
  709MOL0     H95652   1.029   6.220   5.270 -4.4078 -0.2660  1.1378
  709MOL0     H95653   1.038   6.367   5.168  0.5860 -0.3749 -2.2841
  709MOL0     H95654   1.097   6.216   4.965 -1.7159 -0.8258 -0.8887
  709MOL0     H95655   1.058   6.080   5.056  3.7359 -0.1721 -1.5442
  709MOL0     H95656   1.271   6.261   5.140  1.7459 -0.5412 -1.2043
  709MOL0     H95657   1.222   6.096   5.213  0.0406 -0.0954 -0.2479
  709MOL0     H95658   1.301   5.995   5.010 -2.5950  0.4213  0.2769
  709MOL0     H95659   1.339   6.147   4.930  0.4769 -2.9611 -1.0635
  709MOL0     H95660   1.548   6.049   5.000 -3.3822  0.5206 -3.1911
  709MOL0     H95661   1.513   6.191   5.103 -0.6726  0.5453 -4.0108
  709MOL0     H95662   1.472   5.891   5.180  1.1696  0.2513 -1.3014
  709MOL0     H95663   1.399   6.029   5.271 -0.7114  1.0991  0.5866
  709MOL0     H95664   1.669   6.093   5.260 -1.3674  0.4447  0.2357
  709MOL0     H95665   1.606   5.988   5.389  0.5228 -0.4730 -0.4773
  709MOL0     H95666   1.663   5.738   5.362 -1.3710  3.9412  1.0185
  709MOL0     H95667   1.805   5.517   5.136  0.7151  0.4057 -1.9580
  709MOL0     H95668   1.973   5.561   5.155  0.1639  1.9655 -0.6624
  709MOL0     H95669   1.979   5.535   5.386  1.3852 -0.6103 -0.9497
  709MOL0     H95670   1.794   5.506   5.385 -1.2159  0.2993 -1.7494
  709MOL0     H95671   1.973   5.309   5.403  1.2721  0.2890 -0.8172
  709MOL0     H95672   1.980   5.322   5.238  3.2595  1.1238  1.7056
  709MOL0     H95673   1.760   5.234   5.427 -2.7273 -2.1831 -1.6254
  709MOL0     H95674   1.805   5.173   5.268 -1.9015  0.3194 -1.5842
  709MOL0     H95675   1.454   5.437   5.200  0.8620 -0.2433 -1.2848
  709MOL0     H95676   1.226   5.326   5.193  1.3845  2.4360  1.8412
  709MOL0     H95677   0.897   5.257   5.387  1.0787 -1.1613  1.0347
  709MOL0     H95678   0.700   5.181   5.488  1.7830  0.3431  1.1925
  709MOL0     H95679   0.520   5.090   5.580  0.3520  0.6528  0.0877
  709MOL0     H95680   0.461   5.107   5.412  2.3590 -1.1310 -0.9499
  709MOL0     H95681   0.342   4.886   5.448 -0.7110  0.4508 -0.1779
  709MOL0     H95682   0.374   4.902   5.614  1.2169 -0.6019 -2.2827
  709MOL0     H95683   0.245   5.106   5.637 -1.4517 -2.7066  1.7934
  709MOL0     H95684   0.227   5.099   5.452 -1.4300 -0.8364  0.1250
  709MOL0     H95685   0.102   4.878   5.628 -0.7239 -0.6827 -0.6353
  709MOL0     H95686   0.056   4.940   5.476 -0.3595  0.0769 -0.8370
  709MOL0     H95687  -0.022   5.162   5.599 -1.8631  1.8775  3.1067
  709MOL0     H95688   0.050   5.098   5.744  2.4668  0.1556 -0.2672
  709MOL0     H95689  -0.170   4.959   5.581  1.2242 -0.6493 -0.6697
  709MOL0     H95690  -0.121   4.912   5.749 -0.8141  0.2289  1.4582
  709MOL0     H95691  -0.339   5.045   5.717 -1.5979  3.7418 -0.7157
  709MOL0     H95692  -0.226   5.180   5.705 -1.0926 -1.7199 -2.2576
  709MOL0     H95693  -0.295   4.987   5.932  0.9723 -0.1625  0.3832
  709MOL0     H95694  -0.152   5.081   5.951 -0.2446  1.4497  0.8761
  709MOL0     H95695   0.722   4.817   5.256 -1.6348 -0.2002  1.2112
  709MOL0     H95696   0.945   4.897   5.159  0.4159  1.2855 -2.9880
  709MOL0     H95697   1.394   4.973   5.385  2.4710 -0.3599  0.5795
  709MOL0     H95698   1.613   5.073   5.364 -3.1199 -2.0201  0.5504
  709MOL0     H95699   0.602   6.240   5.165  1.7299  0.5854 -0.6559
  709MOL0     H95700   0.369   6.214   5.091 -0.0736 -2.4669 -0.8524
  709MOL0     H95701  -0.022   6.274   4.983  0.3625 -0.3313 -0.5747
  709MOL0     H95702  -0.217   6.170   4.977  0.4692 -0.9522  0.2141
  709MOL0     H95703  -0.410   6.038   4.941  1.0042 -0.7836  1.5274
  709MOL0     H95704  -0.314   5.892   4.874  0.8672 -1.3406 -4.4943
  709MOL0     H95705  -0.548   5.861   4.902 -3.7016  1.3226  0.1454
  709MOL0     H95706  -0.517   5.852   4.728 -0.1536 -0.2944 -0.6772
  709MOL0     H95707  -0.592   6.088   4.701 -0.4771 -0.6251 -1.2144
  709MOL0     H95708  -0.611   6.097   4.882  4.4512 -1.6162  0.1867
  709MOL0     H95709  -0.770   5.903   4.710 -0.1843  0.3571 -0.1715
  709MOL0     H95710  -0.796   5.952   4.885  0.2116  0.2338 -0.5620
  709MOL0     H95711  -0.969   6.276   4.668 -0.6678 -0.5335 -2.6991
  709MOL0     H95712  -0.149   6.055   4.571  1.9931 -3.6395  1.4154
  709MOL0     H95713   0.054   6.137   4.456  1.6691  0.9368 -1.4266
  709MOL0     H95714   0.159   6.252   4.524 -1.6309  0.5852  0.8716
  709MOL0     H95715   0.179   6.078   4.572  1.0192  0.8013  3.1696
  710MOL0     O95716   7.182   8.602   3.278  0.8232 -0.3744 -0.3232
  710MOL0     C95717   7.290   8.552   3.254 -0.2938  0.0074 -1.0022
  710MOL0     O95718   7.329   8.430   3.301  0.2861  0.1239 -0.5168
  710MOL0     C95719   7.239   8.344   3.363  0.7468 -0.4669  0.3028
  710MOL0     C95720   7.120   8.302   3.301 -0.1192  0.3297  0.1641
  710MOL0     C95721   7.030   8.214   3.362  0.0477  0.4017 -0.6246
  710MOL0     C95722   7.065   8.165   3.481  0.6591 -0.5451  0.0812
  710MOL0     O95723   6.990   8.073   3.548 -0.2388 -0.0890 -0.7535
  710MOL0     C95724   6.853   8.052   3.514  0.5446 -0.8857 -0.2101
  710MOL0     C95725   6.784   7.998   3.631  0.1458 -0.3983 -0.1964
  710MOL0     C95726   6.756   8.097   3.745 -0.3152  0.8557  0.1537
  710MOL0     C95727   6.887   8.122   3.820 -0.4023 -0.2598 -0.3549
  710MOL0     C95728   6.850   8.196   3.948  0.0494 -0.7360  1.1741
  710MOL0     C95729   6.971   8.180   4.052  0.6521 -0.3816 -0.2223
  710MOL0     C95730   7.114   8.234   4.008  0.4190  0.3134 -0.1968
  710MOL0     C95731   7.188   8.121   3.938 -0.1042 -0.5526  0.0994
  710MOL0     N95732   7.327   8.150   3.904 -0.1884 -0.8942 -0.0775
  710MOL0     C95733   7.433   8.198   3.984  0.0869 -0.6536  0.1119
  710MOL0     C95734   7.535   8.212   3.897 -0.2914 -0.7812  0.1071
  710MOL0     C95735   7.659   8.267   3.942 -0.1112  0.3407  0.5467
  710MOL0     C95736   7.768   8.287   3.832 -0.1546  0.0074 -0.2292
  710MOL0     C95737   7.831   8.151   3.799 -0.2703  0.4265 -0.5085
  710MOL0     C95738   7.938   8.170   3.682  0.4331  0.1906 -0.9930
  710MOL0     O95739   8.041   8.255   3.732 -0.2012 -0.5993  0.0517
  710MOL0     C95740   8.117   8.340   3.652 -0.1344 -1.1762  0.3424
  710MOL0     C95741   8.204   8.433   3.719 -0.1198 -0.9667 -0.7257
  710MOL0     C95742   8.289   8.519   3.647 -0.2379  0.2978  0.2921
  710MOL0     C95743   8.274   8.535   3.508  0.9025 -0.5192 -0.8176
  710MOL0     C95744   8.358   8.638   3.434  0.4003 -0.7280 -0.5062
  710MOL0     O95745   8.440   8.716   3.513  0.9487 -0.4707 -0.3404
  710MOL0     C95746   8.528   8.807   3.460  0.0065  0.0237  0.1186
  710MOL0     C95747   8.621   8.799   3.353  0.2132  0.0016  0.0598
  710MOL0     C95748   8.707   8.912   3.330  0.1013  0.5504 -0.5078
  710MOL0     C95749   8.719   9.017   3.420  0.3635 -0.1035  0.0990
  710MOL0     O95750   8.818   9.114   3.395  0.2547  0.4164 -0.7966
  710MOL0     C95751   8.827   9.230   3.480 -0.3940 -0.4186 -0.5344
  710MOL0     C95752   8.969   9.287   3.474  0.1362 -0.2934 -0.0482
  710MOL0     C95753   8.983   9.441   3.473  0.0415  0.0891  0.6541
  710MOL0     C95754   9.116   9.495   3.426  0.6688  0.0651  0.7813
  710MOL0     C95755   9.118   9.641   3.386 -0.2272 -0.0059  1.3829
  710MOL0     C95756   9.260   9.671   3.336 -0.5916 -0.4590  0.3714
  710MOL0     C95757   9.310   9.611   3.203  0.9128  0.4411  0.1102
  710MOL0     C95758   9.430   9.694   3.151  0.2194  0.6333  0.1475
  710MOL0    Cl95759   9.493   9.607   3.020  0.0157  0.2819  0.0517
  710MOL0     C95760   8.621   9.029   3.513 -0.1185 -0.8650  0.4075
  710MOL0     C95761   8.525   8.925   3.532 -0.2401 -0.5494 -0.2561
  710MOL0     O95762   8.343   8.646   3.315  0.1992  0.0316  0.6197
  710MOL0     C95763   8.176   8.453   3.451  1.3264 -0.6956 -0.3459
  710MOL0     C95764   8.103   8.355   3.515 -0.9638  0.5196  0.3928
  710MOL0     N95765   7.488   8.197   3.772  0.9943  0.3493 -0.3701
  710MOL0     N95766   7.369   8.149   3.772  0.1685  0.0420  0.4861
  710MOL0     C95767   7.181   8.196   3.541  0.2349 -0.0120  0.6786
  710MOL0     C95768   7.267   8.296   3.493 -0.4816 -0.2712 -0.5949
  710MOL0     C95769   7.393   8.626   3.177  0.4297  0.4413 -0.1841
  710MOL0     C95770   7.506   8.547   3.145  0.8058 -0.9084  0.1897
  710MOL0     C95771   7.612   8.604   3.074  0.5189  0.2328  0.3319
  710MOL0     C95772   7.607   8.731   3.023  0.0432  0.0757 -0.0839
  710MOL0     O95773   7.732   8.782   2.982  0.1570  0.3130  0.2959
  710MOL0     C95774   7.739   8.919   2.951 -0.3507  1.4521 -0.0215
  710MOL0     C95775   7.870   8.961   2.898  0.3370  0.5077 -0.4678
  710MOL0     C95776   7.883   9.112   2.857 -0.6174  0.7997 -0.4808
  710MOL0     C95777   8.026   9.166   2.862  1.1067  0.0107 -0.0655
  710MOL0     C95778   8.129   9.077   2.811  0.6110 -0.7035 -0.8206
  710MOL0     C95779   8.213   8.995   2.784  0.5488 -0.1822 -0.2083
  710MOL0     C95780   7.494   8.814   3.061 -0.2505 -0.0302 -0.3160
  710MOL0     C95781   7.384   8.762   3.141 -0.3113 -0.3998  0.3137
  710MOL0     C95782   7.287   8.872   3.168  1.1320 -0.1953 -0.1666
  710MOL0     H95783   7.103   8.336   3.200  0.9108 -0.5656 -0.3342
  710MOL0     H95784   6.938   8.177   3.318 -0.1664  0.6026 -0.3512
  710MOL0     H95785   6.812   8.151   3.493  0.3142 -0.5699  1.5754
  710MOL0     H95786   6.855   7.977   3.435  2.0429 -1.4394  0.3165
  710MOL0     H95787   6.823   7.902   3.666  0.9784  0.2973  0.8462
  710MOL0     H95788   6.679   7.985   3.603 -1.3546 -1.4190  4.7358
  710MOL0     H95789   6.679   8.057   3.812  1.0557 -0.3518  1.0795
  710MOL0     H95790   6.718   8.191   3.705 -2.5935 -0.8642 -2.0454
  710MOL0     H95791   6.937   8.028   3.844  2.5318  1.3128  0.1710
  710MOL0     H95792   6.949   8.194   3.764 -0.3790  0.5856  0.7298
  710MOL0     H95793   6.820   8.297   3.917 -3.0414 -1.7970  0.4139
  710MOL0     H95794   6.756   8.157   3.987 -0.4134  1.7837  2.7779
  710MOL0     H95795   6.942   8.234   4.143  0.2355 -0.8299 -0.0881
  710MOL0     H95796   6.971   8.079   4.093  0.7164 -1.2323 -2.2259
  710MOL0     H95797   7.158   8.267   4.102 -2.6974 -1.3880  2.0755
  710MOL0     H95798   7.114   8.318   3.939  1.3310  0.8482  0.4455
  710MOL0     H95799   7.191   8.037   4.009 -3.4850  2.0868  3.7968
  710MOL0     H95800   7.132   8.100   3.847 -0.3288 -2.7991  0.6922
  710MOL0     H95801   7.433   8.208   4.092  0.1140  1.8247 -0.0564
  710MOL0     H95802   7.633   8.352   4.006 -1.8627 -1.6365  2.6586
  710MOL0     H95803   7.688   8.195   4.019  0.1245 -1.2057 -0.9385
  710MOL0     H95804   7.729   8.325   3.737 -1.9099 -3.2786 -0.9694
  710MOL0     H95805   7.853   8.345   3.870  0.6657 -0.7848 -0.8132
  710MOL0     H95806   7.752   8.081   3.773  1.0072 -1.5594  0.7367
  710MOL0     H95807   7.885   8.109   3.884 -1.7885 -1.0040 -0.2289
  710MOL0     H95808   7.886   8.219   3.599 -1.1849 -0.4369 -0.3982
  710MOL0     H95809   7.962   8.070   3.645 -1.8312 -0.0421 -2.0079
  710MOL0     H95810   8.216   8.429   3.827 -0.2671  0.8666 -0.6122
  710MOL0     H95811   8.360   8.578   3.703  0.1155 -0.9054  1.1749
  710MOL0     H95812   8.627   8.712   3.289  3.3727 -0.2776  0.5904
  710MOL0     H95813   8.771   8.909   3.242  1.2547 -2.1077  0.2995
  710MOL0     H95814   8.747   9.300   3.454 -0.5249 -0.1740  0.4874
  710MOL0     H95815   8.808   9.205   3.585  0.1156  2.9183  0.4673
  710MOL0     H95816   9.031   9.259   3.560 -0.7320  0.4593  0.8387
  710MOL0     H95817   9.016   9.256   3.380 -1.8766  1.5708 -1.7767
  710MOL0     H95818   8.911   9.489   3.406  1.7075  0.7524 -0.7334
  710MOL0     H95819   8.951   9.481   3.570  1.7334 -0.5802  1.5176
  710MOL0     H95820   9.149   9.441   3.337 -1.5819  0.9228 -0.6786
  710MOL0     H95821   9.182   9.467   3.509  1.6494 -0.8418 -0.2775
  710MOL0     H95822   9.082   9.709   3.463 -0.6479  4.5414 -2.3645
  710MOL0     H95823   9.047   9.664   3.306  1.7239  0.2804 -0.3609
  710MOL0     H95824   9.283   9.778   3.332  1.7758 -0.8942  0.6606
  710MOL0     H95825   9.326   9.628   3.412 -1.5948  2.5866  3.2333
  710MOL0     H95826   9.228   9.616   3.132 -1.9698 -5.3005  2.4142
  710MOL0     H95827   9.337   9.506   3.217  1.0379  0.3169 -0.9751
  710MOL0     H95828   9.387   9.790   3.122 -0.1683  0.5183  0.3238
  710MOL0     H95829   9.508   9.708   3.227  2.9170 -0.5179 -2.2534
  710MOL0     H95830   8.607   9.118   3.573 -0.7742  0.5306 -1.6866
  710MOL0     H95831   8.454   8.934   3.613 -1.8035  3.3460 -1.7979
  710MOL0     H95832   8.153   8.453   3.345 -2.1327 -0.1252  0.2751
  710MOL0     H95833   8.054   8.281   3.452  0.4428  2.1943 -2.9666
  710MOL0     H95834   7.197   8.151   3.639 -1.5165  0.2363  1.1032
  710MOL0     H95835   7.361   8.329   3.536  1.6535 -3.3444 -2.4863
  710MOL0     H95836   7.517   8.444   3.175 -2.0621 -1.9471 -1.8483
  710MOL0     H95837   7.698   8.543   3.050 -1.0318 -1.4217 -1.3505
  710MOL0     H95838   7.715   8.979   3.039 -0.5851  3.7025 -1.5235
  710MOL0     H95839   7.676   8.944   2.865 -1.3251  2.8186  1.0529
  710MOL0     H95840   7.911   8.904   2.815  2.3262 -1.2953  1.6426
  710MOL0     H95841   7.935   8.941   2.984 -0.0574 -0.5326 -0.4009
  710MOL0     H95842   7.828   9.177   2.925  2.2858  2.9575 -0.0222
  710MOL0     H95843   7.845   9.114   2.754  0.4988  0.7537 -0.9051
  710MOL0     H95844   8.026   9.258   2.803  3.0631  0.8515  1.1531
  710MOL0     H95845   8.058   9.188   2.964 -2.2094  1.7997  0.7247
  710MOL0     H95846   8.285   8.919   2.761 -0.4297 -0.7810 -1.5061
  710MOL0     H95847   7.503   8.919   3.036  0.9695 -0.2944 -1.0381
  710MOL0     H95848   7.341   8.959   3.207  0.7683 -1.3321  3.1722
  710MOL0     H95849   7.232   8.900   3.078  0.5292  0.1586  0.3023
  710MOL0     H95850   7.223   8.838   3.250 -0.6234 -1.8582 -2.1270
  711MOL0     O95851   2.377   3.854   6.510  0.1729  0.4351  0.1312
  711MOL0     C95852   2.336   3.787   6.413  0.2813  0.2957  0.4135
  711MOL0     O95853   2.211   3.797   6.363 -0.5012 -0.2835 -0.1498
  711MOL0     C95854   2.112   3.864   6.430  1.0323  0.8917  0.9582
  711MOL0     C95855   1.988   3.797   6.432  0.1287  0.5833  0.1120
  711MOL0     C95856   1.873   3.855   6.486 -0.5275  0.9069  0.1516
  711MOL0     C95857   1.880   3.984   6.524 -0.1243 -0.4862  0.5305
  711MOL0     O95858   1.771   4.050   6.573 -0.5877  0.5665  0.2884
  711MOL0     C95859   1.697   4.116   6.465  0.3713 -0.5579 -1.1390
  711MOL0     C95860   1.624   4.237   6.527  0.0615 -0.3139  0.3560
  711MOL0     C95861   1.712   4.350   6.563 -0.1649 -0.3582 -0.2627
  711MOL0     C95862   1.629   4.457   6.628  0.3995  0.4201 -0.1114
  711MOL0     C95863   1.716   4.583   6.631  0.4320  0.0463  0.0126
  711MOL0     C95864   1.691   4.670   6.748 -1.1519 -0.9603  0.1906
  711MOL0     C95865   1.753   4.814   6.743  0.8317  0.7820  0.8250
  711MOL0     C95866   1.900   4.816   6.693 -0.2000  0.3523  0.1136
  711MOL0     N95867   1.984   4.731   6.781 -0.3780 -0.7299 -0.4877
  711MOL0     C95868   2.062   4.624   6.738  0.9172  0.0251  0.4435
  711MOL0     C95869   2.145   4.602   6.841  0.0185  0.1614  0.3577
  711MOL0     C95870   2.258   4.496   6.847  0.1447  0.4360 -0.4464
  711MOL0     C95871   2.394   4.561   6.881 -0.1489 -0.0263 -0.0039
  711MOL0     C95872   2.431   4.563   7.030 -0.2661 -0.5617  0.4317
  711MOL0     C95873   2.434   4.428   7.096  0.0169  0.0099 -0.2289
  711MOL0     O95874   2.481   4.325   7.010 -0.0905  0.8049  0.6019
  711MOL0     C95875   2.617   4.293   7.007 -0.6007 -0.4536  0.0004
  711MOL0     C95876   2.689   4.268   7.126  0.2553  0.1298 -0.4758
  711MOL0     C95877   2.824   4.234   7.132 -0.6687  0.1987  0.3700
  711MOL0     C95878   2.894   4.213   7.003  0.1886  1.1326 -0.4092
  711MOL0     C95879   3.040   4.197   7.001 -0.7752 -0.3331  0.4398
  711MOL0     O95880   3.095   4.233   7.118 -1.1130 -0.1360  0.5145
  711MOL0     C95881   3.231   4.249   7.130  0.5413  0.7515  0.2991
  711MOL0     C95882   3.336   4.175   7.076  0.4723  0.0614  0.6170
  711MOL0     C95883   3.468   4.212   7.098 -0.3544 -0.1830  0.7559
  711MOL0     C95884   3.505   4.320   7.173  0.8211 -0.1342  0.0103
  711MOL0     O95885   3.636   4.343   7.203 -0.4070 -0.0777 -0.1385
  711MOL0     C95886   3.679   4.466   7.258  0.2029  0.1596 -1.0293
  711MOL0     C95887   3.826   4.497   7.233  0.0908 -0.3632  0.0462
  711MOL0     C95888   3.865   4.516   7.081  0.0146  0.3378 -0.8617
  711MOL0     C95889   3.791   4.440   6.974 -0.0270  0.4775 -0.8789
  711MOL0     C95890   3.867   4.473   6.842  0.4078  0.8242 -0.1546
  711MOL0     C95891   3.831   4.380   6.722 -0.5613 -0.2485 -1.1826
  711MOL0     C95892   3.932   4.401   6.597  0.1229 -0.8704 -0.0387
  711MOL0     C95893   3.899   4.326   6.475 -1.5357  0.0812  0.3211
  711MOL0    Cl95894   3.903   4.153   6.515 -0.2389 -0.0111  0.1108
  711MOL0     C95895   3.396   4.393   7.230  0.1562  0.2192  0.1825
  711MOL0     C95896   3.263   4.355   7.211 -1.2018 -0.0478 -0.8016
  711MOL0     O95897   3.096   4.168   6.889 -0.2435 -0.1212 -0.4802
  711MOL0     C95898   2.825   4.238   6.884 -0.0393  0.1986  0.8410
  711MOL0     C95899   2.694   4.273   6.890 -0.2211 -0.1106 -0.3102
  711MOL0     N95900   2.129   4.702   6.938  0.0608 -0.3480 -0.3344
  711MOL0     N95901   2.025   4.771   6.903  0.3928 -0.4274 -0.1119
  711MOL0     C95902   1.998   4.064   6.512  0.0712  0.1478 -0.3588
  711MOL0     C95903   2.111   3.999   6.461 -0.2791  0.2723 -0.2608
  711MOL0     C95904   2.424   3.688   6.341  0.1292  0.4250 -0.0570
  711MOL0     C95905   2.553   3.675   6.390  0.2643  0.9045 -0.1258
  711MOL0     C95906   2.651   3.589   6.333  0.5510 -0.3983  0.3295
  711MOL0     C95907   2.622   3.512   6.220 -0.2255 -0.2892 -0.1831
  711MOL0     O95908   2.715   3.427   6.164  0.3912 -0.8753 -0.1111
  711MOL0     C95909   2.785   3.348   6.252 -0.1292 -0.0798 -0.6964
  711MOL0     C95910   2.864   3.235   6.185  1.2209 -1.0907  0.1038
  711MOL0     C95911   3.017   3.261   6.197 -0.5992 -0.2258 -0.0047
  711MOL0     C95912   3.079   3.170   6.102  0.6555  0.4838 -0.2068
  711MOL0     C95913   3.222   3.181   6.107  0.5499  0.1094  0.3233
  711MOL0     C95914   3.341   3.202   6.106 -0.6520 -0.2073  0.4632
  711MOL0     C95915   2.492   3.519   6.167  0.6420  0.5113 -0.8465
  711MOL0     C95916   2.399   3.610   6.222 -0.1257 -0.0917 -0.3303
  711MOL0     C95917   2.274   3.621   6.145  0.8441  0.0513 -0.4744
  711MOL0     H95918   1.985   3.695   6.394 -2.3392  0.5800  0.1706
  711MOL0     H95919   1.773   3.813   6.483  0.6337 -2.0620 -0.8135
  711MOL0     H95920   1.769   4.150   6.390 -1.2288 -0.6291 -2.7880
  711MOL0     H95921   1.623   4.050   6.418 -2.0901 -0.4338  2.2190
  711MOL0     H95922   1.578   4.202   6.620  1.9053 -2.6675  0.4715
  711MOL0     H95923   1.544   4.275   6.462  0.5467  3.1214  1.5464
  711MOL0     H95924   1.759   4.382   6.469  2.3036 -0.6033  0.8135
  711MOL0     H95925   1.793   4.306   6.620 -0.4745  0.3259  0.7246
  711MOL0     H95926   1.542   4.477   6.564  0.1136  0.5070  0.3034
  711MOL0     H95927   1.597   4.429   6.729  1.1758 -0.9061 -0.2159
  711MOL0     H95928   1.818   4.548   6.648 -0.2281 -0.7450  2.7151
  711MOL0     H95929   1.695   4.635   6.537  1.2873 -0.3516 -0.4056
  711MOL0     H95930   1.584   4.679   6.769 -1.2233 -0.1644 -0.4378
  711MOL0     H95931   1.735   4.630   6.840  0.3549  2.2034  0.9885
  711MOL0     H95932   1.750   4.860   6.842  1.9045  1.5344  0.5215
  711MOL0     H95933   1.684   4.875   6.685 -0.4856  0.7494  2.2821
  711MOL0     H95934   1.908   4.796   6.586 -1.1199 -1.4413  0.3357
  711MOL0     H95935   1.926   4.920   6.714 -2.3993  1.0003 -0.0575
  711MOL0     H95936   2.056   4.561   6.650  0.8151 -2.1264  1.9276
  711MOL0     H95937   2.222   4.422   6.919  1.5747 -1.2636 -1.4176
  711MOL0     H95938   2.262   4.452   6.747 -0.0904 -0.5610 -0.0277
  711MOL0     H95939   2.484   4.522   6.831  0.6642  0.3485  1.1398
  711MOL0     H95940   2.384   4.660   6.837  1.5228 -1.4109 -4.0048
  711MOL0     H95941   2.372   4.638   7.083  1.8103  2.4213 -1.2084
  711MOL0     H95942   2.535   4.597   7.037  0.1706 -1.9407  1.0958
  711MOL0     H95943   2.330   4.404   7.123  0.0447 -0.0268 -0.1552
  711MOL0     H95944   2.483   4.439   7.193 -3.2194 -4.0679  2.2098
  711MOL0     H95945   2.645   4.277   7.225  3.0986  2.7910  0.7071
  711MOL0     H95946   2.863   4.217   7.232  0.0684 -1.4870 -0.1772
  711MOL0     H95947   3.306   4.085   7.024 -0.5735 -0.2946  1.7894
  711MOL0     H95948   3.550   4.156   7.054  0.3787  1.9047 -0.6987
  711MOL0     H95949   3.623   4.544   7.205  2.2435 -0.5976 -4.5631
  711MOL0     H95950   3.653   4.458   7.364 -0.0474 -0.1561 -1.1144
  711MOL0     H95951   3.865   4.580   7.292  1.6316 -1.3388  0.4602
  711MOL0     H95952   3.885   4.411   7.264  1.3433  0.9443  1.4499
  711MOL0     H95953   3.869   4.624   7.067 -1.2995  0.7240  1.1903
  711MOL0     H95954   3.968   4.479   7.072  0.7715  2.2165 -0.3664
  711MOL0     H95955   3.684   4.463   6.967 -1.5881 -4.9533  0.4673
  711MOL0     H95956   3.791   4.336   7.008 -1.8480  1.5953  3.0531
  711MOL0     H95957   3.974   4.473   6.864  0.4715  0.1182 -0.4405
  711MOL0     H95958   3.834   4.572   6.812 -3.3540 -0.9511 -2.6444
  711MOL0     H95959   3.830   4.278   6.762 -5.1648 -0.1452 -0.4623
  711MOL0     H95960   3.726   4.396   6.696 -1.0099  1.5319  1.3393
  711MOL0     H95961   4.031   4.371   6.632  0.4660  1.1057  0.7693
  711MOL0     H95962   3.929   4.508   6.578  3.9429 -0.4153  1.1578
  711MOL0     H95963   3.804   4.369   6.442 -1.0209  1.0236  0.0312
  711MOL0     H95964   3.979   4.347   6.403 -3.2307  0.5445 -1.4913
  711MOL0     H95965   3.413   4.480   7.293 -0.2921  1.1368 -0.9225
  711MOL0     H95966   3.193   4.419   7.264 -1.3449 -1.8561  1.3304
  711MOL0     H95967   2.861   4.207   6.787 -2.0903 -0.6426  0.2793
  711MOL0     H95968   2.643   4.284   6.795 -1.8203 -0.1580  0.5009
  711MOL0     H95969   1.982   4.163   6.552  0.9250  0.4503 -0.7484
  711MOL0     H95970   2.210   4.043   6.453 -0.8598  1.5973 -0.3599
  711MOL0     H95971   2.570   3.723   6.486  1.2144  0.4639 -0.0559
  711MOL0     H95972   2.749   3.580   6.379  0.4488 -3.6921  0.1555
  711MOL0     H95973   2.716   3.298   6.320  0.3604 -0.3296 -0.3804
  711MOL0     H95974   2.843   3.420   6.310 -2.9347  1.3268  0.5674
  711MOL0     H95975   2.824   3.237   6.084 -0.3056  1.9115  0.6573
  711MOL0     H95976   2.837   3.140   6.231 -0.9014 -0.4843  0.1919
  711MOL0     H95977   3.034   3.228   6.299 -2.4822 -0.8399  0.1502
  711MOL0     H95978   3.051   3.363   6.174 -1.5701 -0.6961 -4.6940
  711MOL0     H95979   3.061   3.064   6.121 -0.5280  0.2430 -2.3468
  711MOL0     H95980   3.041   3.184   6.000  3.8792 -0.6389 -1.6883
  711MOL0     H95981   3.448   3.210   6.109 -0.7572  1.9992 -0.2688
  711MOL0     H95982   2.452   3.446   6.098  1.7745 -1.5574  0.5841
  711MOL0     H95983   2.199   3.564   6.201  1.7040 -1.2563 -0.6028
  711MOL0     H95984   2.258   3.729   6.137 -0.4308 -0.0553  0.3717
  711MOL0     H95985   2.296   3.582   6.045 -1.4400  3.0094 -2.2951
  712MOL0     O95986   2.349   4.099   5.256 -0.2939  0.1513  0.2725
  712MOL0     C95987   2.275   4.180   5.309 -0.3735  1.5007  0.1219
  712MOL0     O95988   2.306   4.251   5.416 -0.5711 -0.1419  1.1074
  712MOL0     C95989   2.423   4.217   5.486 -0.2528 -0.2630 -0.3657
  712MOL0     C95990   2.480   4.089   5.502  0.0352 -1.3051 -0.4382
  712MOL0     C95991   2.594   4.071   5.590  0.3415 -0.3192  0.7387
  712MOL0     C95992   2.660   4.179   5.641 -0.4831  0.1100  1.1116
  712MOL0     O95993   2.784   4.149   5.703  0.3824  0.1932 -0.0072
  712MOL0     C95994   2.870   4.259   5.734  0.7050  0.3033 -0.7836
  712MOL0     C95995   3.002   4.210   5.782  0.0996  0.8438 -0.1997
  712MOL0     C95996   3.072   4.121   5.676 -0.4476  0.0379 -0.3089
  712MOL0     C95997   3.180   4.032   5.748  0.2696  0.6581  1.0685
  712MOL0     C95998   3.205   3.921   5.648  0.0000 -0.1015 -0.3413
  712MOL0     C95999   3.292   3.797   5.682  0.5367 -0.8574  0.3182
  712MOL0     C96000   3.438   3.828   5.678 -0.5604 -0.4233  0.2455
  712MOL0     C96001   3.504   3.869   5.542 -0.4653  0.7081 -0.1617
  712MOL0     N96002   3.650   3.901   5.564 -0.7691  0.0355  0.2489
  712MOL0     C96003   3.713   4.026   5.538  0.6247 -0.0767 -0.0971
  712MOL0     C96004   3.842   3.997   5.549  0.4288  0.3537  0.6908
  712MOL0     C96005   3.950   4.096   5.525  0.7056 -0.6267 -0.4349
  712MOL0     C96006   4.099   4.039   5.516  0.1697 -0.9171  0.7931
  712MOL0     C96007   4.188   4.158   5.482  0.3499  0.1511  0.1706
  712MOL0     C96008   4.333   4.106   5.480 -0.1056 -0.4913 -0.2574
  712MOL0     O96009   4.414   4.229   5.499 -0.9122  0.3768  0.1833
  712MOL0     C96010   4.542   4.212   5.543 -0.1953 -0.6431  0.0645
  712MOL0     C96011   4.610   4.333   5.573 -0.7615  0.2692  0.6401
  712MOL0     C96012   4.745   4.318   5.614  0.1010  0.0384 -0.1639
  712MOL0     C96013   4.819   4.201   5.614 -0.5416  0.6493 -0.5597
  712MOL0     C96014   4.966   4.213   5.638 -0.6994 -0.1024 -0.0880
  712MOL0     O96015   5.030   4.101   5.683  0.0230  0.9101  0.2164
  712MOL0     C96016   5.166   4.100   5.689  0.1678  0.2830 -0.7005
  712MOL0     C96017   5.253   4.108   5.580 -0.5601 -0.5614  0.5159
  712MOL0     C96018   5.392   4.112   5.598  0.3793  0.7890 -0.2155
  712MOL0     C96019   5.445   4.109   5.727 -0.2881  0.0144 -1.1763
  712MOL0     O96020   5.583   4.113   5.742 -0.0807 -0.2051  0.0432
  712MOL0     C96021   5.628   4.221   5.830  0.2698  0.5028 -0.6217
  712MOL0     C96022   5.782   4.233   5.838 -0.3670 -0.0501  0.4376
  712MOL0     C96023   5.824   4.305   5.967 -0.1675 -0.9075 -0.2639
  712MOL0     C96024   5.976   4.311   5.975 -0.1811 -0.0270 -0.2481
  712MOL0     C96025   6.028   4.254   6.103 -0.7776 -0.5824 -0.8105
  712MOL0     C96026   6.180   4.227   6.095  0.3246 -0.7866 -0.6904
  712MOL0     C96027   6.257   4.362   6.082 -0.1214 -1.1701  0.4721
  712MOL0     C96028   6.396   4.335   6.051 -0.6258  0.7195  0.8469
  712MOL0    Cl96029   6.507   4.235   6.166  0.0605  0.1060  0.1944
  712MOL0     C96030   5.364   4.082   5.832  0.2682  0.2011 -0.2159
  712MOL0     C96031   5.224   4.084   5.811  0.4652  0.5000 -0.2058
  712MOL0     O96032   5.015   4.323   5.613  0.6440  0.0610 -0.6823
  712MOL0     C96033   4.750   4.086   5.564  1.3345 -0.4679  0.2517
  712MOL0     C96034   4.610   4.083   5.535 -0.3021 -0.4024 -0.1035
  712MOL0     N96035   3.864   3.865   5.586 -0.1405 -0.4876  0.5451
  712MOL0     N96036   3.746   3.811   5.592 -0.2902 -0.7831 -0.2429
  712MOL0     C96037   2.602   4.304   5.627 -0.1009 -0.0944  0.2503
  712MOL0     C96038   2.482   4.326   5.559  0.6094  0.2291 -0.2701
  712MOL0     C96039   2.136   4.203   5.248 -0.6397  0.6400  0.0071
  712MOL0     C96040   2.041   4.264   5.331 -0.4520 -0.4144  0.7752
  712MOL0     C96041   1.909   4.277   5.286 -0.2386 -0.7483  0.5675
  712MOL0     C96042   1.878   4.234   5.159 -0.9925 -0.0287  0.2227
  712MOL0     O96043   1.746   4.257   5.130  0.3406  0.1024 -0.2427
  712MOL0     C96044   1.702   4.221   4.993 -0.6023 -0.3240 -0.4810
  712MOL0     C96045   1.567   4.291   4.973  0.0702 -0.0454 -0.5784
  712MOL0     C96046   1.531   4.298   4.822  0.2346 -0.4058  0.1857
  712MOL0     C96047   1.391   4.355   4.796  0.2755  0.8462 -0.1333
  712MOL0     C96048   1.287   4.288   4.878  0.5840  0.0516 -0.5148
  712MOL0     C96049   1.208   4.219   4.944 -0.5290 -0.0124 -0.0238
  712MOL0     C96050   1.978   4.198   5.063 -0.2351  0.6269  0.3604
  712MOL0     C96051   2.102   4.166   5.110 -1.0396  0.1633  0.2377
  712MOL0     C96052   2.215   4.107   5.023  0.0156 -0.0736 -0.1589
  712MOL0     H96053   2.456   4.002   5.442  1.1356  0.3321 -3.5290
  712MOL0     H96054   2.642   3.973   5.595 -1.2536 -1.2344 -0.6235
  712MOL0     H96055   2.891   4.327   5.651 -2.5779  2.3495 -0.1237
  712MOL0     H96056   2.823   4.327   5.805 -1.5607 -0.4708 -1.4589
  712MOL0     H96057   2.991   4.173   5.885  1.9081  2.3359  0.6001
  712MOL0     H96058   3.050   4.307   5.801 -1.7418  1.3893  2.1985
  712MOL0     H96059   3.130   4.184   5.608  0.4948  0.1869  0.6084
  712MOL0     H96060   2.998   4.062   5.621 -1.1868 -0.0740  0.7835
  712MOL0     H96061   3.272   4.079   5.783  1.0318  0.4926 -0.5837
  712MOL0     H96062   3.141   3.989   5.840  0.7522 -1.7007  0.2300
  712MOL0     H96063   3.110   3.872   5.624 -0.2873 -1.3774  2.8612
  712MOL0     H96064   3.247   3.973   5.561  0.7278  0.6955  0.4621
  712MOL0     H96065   3.259   3.765   5.781 -0.7126 -1.8924 -0.4060
  712MOL0     H96066   3.254   3.718   5.617 -3.6144  2.1386 -1.3086
  712MOL0     H96067   3.492   3.736   5.703  2.1128  0.6366 -1.2624
  712MOL0     H96068   3.464   3.913   5.742  0.5688 -1.8621  1.7998
  712MOL0     H96069   3.498   3.795   5.462 -1.2953  1.2530 -0.6239
  712MOL0     H96070   3.450   3.953   5.498  0.3594  1.5554  0.3866
  712MOL0     H96071   3.661   4.117   5.512 -2.7120 -1.3779  1.3506
  712MOL0     H96072   3.923   4.143   5.430 -0.5138 -0.3220  0.0435
  712MOL0     H96073   3.947   4.172   5.603  3.4393  1.5883 -2.2737
  712MOL0     H96074   4.118   3.989   5.611 -0.6069  3.2970  3.4829
  712MOL0     H96075   4.090   3.972   5.430  0.4395  1.0578 -0.8715
  712MOL0     H96076   4.188   4.236   5.559 -0.1058 -0.8777  1.2249
  712MOL0     H96077   4.167   4.198   5.382  4.7731  1.8120 -0.3214
  712MOL0     H96078   4.363   4.051   5.391  2.3675 -0.5921  0.5505
  712MOL0     H96079   4.350   4.038   5.564  0.3525 -0.2022 -0.1084
  712MOL0     H96080   4.570   4.434   5.577  1.7318  1.3137  3.3621
  712MOL0     H96081   4.788   4.413   5.645  2.0237 -1.3721  1.7972
  712MOL0     H96082   5.214   4.107   5.479  1.6200 -0.6031 -0.3735
  712MOL0     H96083   5.457   4.111   5.511  1.7391  1.2255  0.7585
  712MOL0     H96084   5.581   4.318   5.811 -1.0159  0.3159  1.3943
  712MOL0     H96085   5.603   4.180   5.928  0.8086  2.8284  0.5424
  712MOL0     H96086   5.834   4.137   5.827  2.7728  1.6455 -0.5840
  712MOL0     H96087   5.814   4.300   5.758  0.4269 -0.0404  0.7608
  712MOL0     H96088   5.769   4.400   5.969 -0.6580 -1.1581 -1.4071
  712MOL0     H96089   5.786   4.254   6.056  0.5544  0.5922  0.9686
  712MOL0     H96090   6.004   4.417   5.984  1.7421 -0.4857 -0.4836
  712MOL0     H96091   6.023   4.276   5.883  0.7925  2.5885 -0.8478
  712MOL0     H96092   5.973   4.165   6.136  0.3069 -0.7534  0.6534
  712MOL0     H96093   6.014   4.327   6.183  1.1346 -1.6603  0.6238
  712MOL0     H96094   6.211   4.184   6.191  0.6570 -1.8452 -1.2637
  712MOL0     H96095   6.199   4.152   6.019 -1.0071  0.0804 -1.9363
  712MOL0     H96096   6.265   4.419   6.175  3.3133 -0.8815  0.1163
  712MOL0     H96097   6.214   4.426   6.004 -0.7965 -0.0384  1.7378
  712MOL0     H96098   6.405   4.287   5.953  7.3086  0.9073  0.7979
  712MOL0     H96099   6.447   4.432   6.042 -0.4991  0.4622 -2.6065
  712MOL0     H96100   5.415   4.047   5.922 -0.1047 -1.7766 -0.7428
  712MOL0     H96101   5.154   4.069   5.892 -0.4900  1.9719 -0.7036
  712MOL0     H96102   4.817   4.001   5.560  0.1708 -1.5567  2.4976
  712MOL0     H96103   4.564   3.997   5.488 -3.6955  1.4449 -0.5236
  712MOL0     H96104   2.657   4.385   5.673 -0.9476 -0.3858  1.8430
  712MOL0     H96105   2.435   4.424   5.560 -4.1895 -1.7867  1.5080
  712MOL0     H96106   2.066   4.274   5.435  0.8115  1.0152  0.3593
  712MOL0     H96107   1.821   4.313   5.339  0.1863 -0.7047  1.2452
  712MOL0     H96108   1.696   4.112   4.988 -2.4168 -0.4494  2.3358
  712MOL0     H96109   1.774   4.252   4.916 -1.2492 -3.1592 -2.3745
  712MOL0     H96110   1.587   4.393   5.007  4.2787 -0.6812 -0.6454
  712MOL0     H96111   1.488   4.241   5.030 -0.1457 -0.3434 -1.1254
  712MOL0     H96112   1.528   4.201   4.772 -2.7321 -1.1649  1.6199
  712MOL0     H96113   1.599   4.362   4.765 -0.7728  0.2357 -0.3200
  712MOL0     H96114   1.407   4.454   4.840  0.6457 -0.1120  2.0434
  712MOL0     H96115   1.360   4.350   4.691 -0.1009  1.1243 -0.0386
  712MOL0     H96116   1.128   4.175   4.999 -0.3683 -0.2912 -0.0080
  712MOL0     H96117   1.959   4.162   4.962 -3.1735  0.0787  1.0315
  712MOL0     H96118   2.156   4.085   4.933 -2.6785  2.1469  0.9135
  712MOL0     H96119   2.301   4.173   5.007 -0.8913  0.7511 -1.9890
  712MOL0     H96120   2.238   4.007   5.060 -0.6108 -0.3407 -0.4840
  713MOL0     O96121  10.703   0.941   4.710  0.6531  1.0482  0.6953
  713MOL0     C96122  10.612   0.909   4.633  0.7400  0.5931 -0.5300
  713MOL0     O96123  10.607   0.946   4.508  0.5212  0.4317 -0.1960
  713MOL0     C96124  10.700   1.020   4.436  0.2350 -0.7664  0.0735
  713MOL0     C96125  10.644   1.057   4.311  0.1436  0.2723  0.7537
  713MOL0     C96126  10.712   1.127   4.218 -0.6379 -0.6095  0.9456
  713MOL0     C96127  10.847   1.161   4.241 -0.5828  0.4399  0.1345
  713MOL0     O96128  10.911   1.213   4.132 -0.0628  0.1777  0.0743
  713MOL0     C96129  11.054   1.211   4.130  0.8311  1.7109 -0.5052
  713MOL0     C96130  11.091   1.263   3.996 -1.0639  0.7762  0.8581
  713MOL0     C96131  11.237   1.271   3.955  1.2102  0.2693  0.4706
  713MOL0     C96132  11.290   1.133   3.920 -1.0455  0.6814 -0.9327
  713MOL0     C96133  11.418   1.143   3.842  0.9150 -0.2554 -0.2490
  713MOL0     C96134  11.452   1.004   3.794  0.0823 -0.2150  0.0301
  713MOL0     C96135  11.593   1.016   3.734  0.5356 -0.0770  0.9548
  713MOL0     C96136  11.627   0.898   3.635  0.2462  0.1065 -0.2896
  713MOL0     N96137  11.776   0.871   3.665 -0.1225 -0.4069  0.6416
  713MOL0     C96138  11.841   0.750   3.671 -0.0699 -0.6430  0.0430
  713MOL0     C96139  11.973   0.785   3.662 -0.0754 -0.3152 -0.0161
  713MOL0     C96140  12.075   0.680   3.708  0.4991 -0.1121 -0.5756
  713MOL0     C96141  12.134   0.600   3.595  0.1239 -0.7906 -0.2649
  713MOL0     C96142  12.249   0.504   3.645  0.2821 -0.1712  0.3207
  713MOL0     C96143  12.275   0.397   3.535 -0.6512 -0.3742  0.2955
  713MOL0     O96144  12.388   0.331   3.584 -0.1104  0.2448 -0.0108
  713MOL0     C96145  12.460   0.260   3.498  0.2403 -0.1964 -0.2223
  713MOL0     C96146  12.407   0.210   3.377 -0.2734  0.2929 -0.7025
  713MOL0     C96147  12.498   0.152   3.289  0.2136 -0.6469  0.7838
  713MOL0     C96148  12.636   0.136   3.312 -0.7897  0.0314  0.7318
  713MOL0     C96149  12.725   0.081   3.202  0.6496  0.0515 -0.9603
  713MOL0     O96150  12.697   0.117   3.075  0.2062  0.7510  0.3518
  713MOL0     C96151  12.759   0.039   2.975 -0.3733 -0.5917  0.2564
  713MOL0     C96152  12.796  -0.100   2.984  0.0648 -0.0714  0.1209
  713MOL0     C96153  12.859  -0.164   2.885 -0.1696 -0.5942  0.7878
  713MOL0     C96154  12.875  -0.096   2.761 -0.2711  0.2097  0.8543
  713MOL0     O96155  12.931  -0.168   2.660  0.3820 -0.5651  0.1552
  713MOL0     C96156  12.861  -0.146   2.534  0.1942 -0.6607  0.6719
  713MOL0     C96157  12.711  -0.165   2.552 -0.6964  0.7929 -0.4817
  713MOL0     C96158  12.649  -0.159   2.420 -0.6332 -0.4331 -0.2239
  713MOL0     C96159  12.494  -0.187   2.431  0.0062 -0.7879 -0.2253
  713MOL0     C96160  12.460  -0.338   2.399 -1.7100  1.0155 -0.0690
  713MOL0     C96161  12.345  -0.386   2.476  0.5516  0.0540  0.0435
  713MOL0     C96162  12.282  -0.514   2.413  0.3501 -0.0157 -0.3117
  713MOL0     C96163  12.202  -0.493   2.284  0.9667  0.6804  0.3657
  713MOL0    Cl96164  12.183  -0.647   2.184  0.0849  0.1711  0.1648
  713MOL0     C96165  12.833   0.038   2.740  0.4780  0.4399 -1.1608
  713MOL0     C96166  12.781   0.105   2.855 -0.4708  0.1023  1.3484
  713MOL0     O96167  12.820   0.016   3.248  0.3796 -0.3396  1.2133
  713MOL0     C96168  12.676   0.171   3.432  0.6239  0.7850 -0.6416
  713MOL0     C96169  12.596   0.233   3.529  0.4747 -0.2492 -0.2339
  713MOL0     N96170  11.989   0.918   3.645  0.3204  0.8531  1.0368
  713MOL0     N96171  11.866   0.966   3.640  0.4480  0.1186  0.7345
  713MOL0     C96172  10.907   1.132   4.363 -0.5340 -1.1589  0.2609
  713MOL0     C96173  10.831   1.072   4.459  0.1856  0.4374  0.6797
  713MOL0     C96174  10.500   0.809   4.671 -0.7502 -0.4350 -0.3643
  713MOL0     C96175  10.384   0.796   4.586 -1.5975 -0.4009 -0.7947
  713MOL0     C96176  10.276   0.717   4.631 -0.8438 -0.0922  0.3030
  713MOL0     C96177  10.276   0.648   4.750 -0.6412  0.2944  0.0888
  713MOL0     O96178  10.195   0.550   4.786  0.3570  0.3174 -0.1992
  713MOL0     C96179  10.085   0.504   4.699  0.2933  0.1458 -1.2305
  713MOL0     C96180  10.029   0.395   4.791 -0.1868 -0.4776 -0.4925
  713MOL0     C96181   9.950   0.272   4.721 -0.9532 -0.3566 -0.3030
  713MOL0     C96182  10.044   0.180   4.636 -0.5078 -0.1927  0.9478
  713MOL0     C96183  10.161   0.134   4.712 -0.1704  0.1049  0.7299
  713MOL0     C96184  10.254   0.094   4.781  0.7996  0.7618  0.2853
  713MOL0     C96185  10.388   0.657   4.834  0.5524 -0.3149  1.0718
  713MOL0     C96186  10.502   0.729   4.794  0.5093 -0.0878  0.9363
  713MOL0     C96187  10.621   0.705   4.889 -0.0963  0.3587 -0.3214
  713MOL0     H96188  10.547   1.038   4.266  0.5904  1.0348 -0.6015
  713MOL0     H96189  10.675   1.162   4.122 -2.2596  2.2355  2.4822
  713MOL0     H96190  11.091   1.280   4.207  2.0814  0.1590  0.3567
  713MOL0     H96191  11.084   1.108   4.153 -3.3336  0.4483  0.0877
  713MOL0     H96192  11.049   1.364   3.990 -1.0279  0.7581  0.2546
  713MOL0     H96193  11.033   1.198   3.930  2.2544 -1.3225 -0.2193
  713MOL0     H96194  11.290   1.314   4.041 -0.9666  1.4318  1.3079
  713MOL0     H96195  11.263   1.336   3.870  1.7265  0.9731  1.1516
  713MOL0     H96196  11.313   1.081   4.014 -4.2843  0.9676  0.1385
  713MOL0     H96197  11.215   1.066   3.876 -1.5364  1.6714 -1.6411
  713MOL0     H96198  11.391   1.196   3.750 -1.3040 -4.2310 -2.1758
  713MOL0     H96199  11.501   1.189   3.895 -0.2063 -0.0299  1.3971
  713MOL0     H96200  11.444   0.925   3.870  0.7717 -2.4424 -2.0513
  713MOL0     H96201  11.377   0.971   3.722  1.0345 -0.1089 -1.0400
  713MOL0     H96202  11.658   1.012   3.822 -0.0306  0.7675  1.4235
  713MOL0     H96203  11.607   1.112   3.685 -1.5246  0.0482  0.5061
  713MOL0     H96204  11.566   0.810   3.654 -1.4870  1.6708  1.8909
  713MOL0     H96205  11.615   0.943   3.536 -1.2728 -1.0498 -0.6666
  713MOL0     H96206  11.811   0.648   3.689  0.2937 -0.6261  0.7656
  713MOL0     H96207  12.156   0.730   3.762 -2.1115  1.5124  2.1681
  713MOL0     H96208  12.029   0.614   3.781  3.5112 -1.2674  0.4102
  713MOL0     H96209  12.051   0.537   3.561 -0.2298  0.3182 -1.5469
  713MOL0     H96210  12.174   0.663   3.516 -0.9182  0.9818  0.5536
  713MOL0     H96211  12.237   0.449   3.739 -1.2958 -2.1672 -0.9683
  713MOL0     H96212  12.342   0.561   3.646  1.3315 -1.8031  1.3064
  713MOL0     H96213  12.297   0.442   3.437  2.7773 -0.9420  0.6674
  713MOL0     H96214  12.201   0.318   3.523 -0.5827 -0.8587  2.5944
  713MOL0     H96215  12.304   0.216   3.344  0.0611 -0.1365 -1.8701
  713MOL0     H96216  12.465   0.128   3.188  1.7109 -1.0879  0.3666
  713MOL0     H96217  12.793  -0.150   3.081 -2.5238  3.7228  2.2584
  713MOL0     H96218  12.899  -0.265   2.888 -1.4133 -1.0819  2.1229
  713MOL0     H96219  12.878  -0.046   2.492 -1.7214 -0.3870  0.4378
  713MOL0     H96220  12.896  -0.219   2.461  1.9083  2.0988 -1.5043
  713MOL0     H96221  12.703  -0.267   2.591 -1.1633  1.1543  0.3930
  713MOL0     H96222  12.667  -0.096   2.624 -0.0459  0.7397 -0.0252
  713MOL0     H96223  12.656  -0.055   2.389 -0.5080 -1.3788 -3.9475
  713MOL0     H96224  12.701  -0.222   2.347  2.8300  1.7412  0.1491
  713MOL0     H96225  12.430  -0.116   2.378 -1.2001  0.2660  2.4509
  713MOL0     H96226  12.463  -0.176   2.535  1.0997  3.0716 -0.1364
  713MOL0     H96227  12.549  -0.395   2.428 -0.6742 -0.8970 -5.6968
  713MOL0     H96228  12.452  -0.354   2.291  0.7106 -2.0178  0.0852
  713MOL0     H96229  12.378  -0.412   2.577 -1.9422 -2.0485  0.4307
  713MOL0     H96230  12.272  -0.305   2.480  0.9086  0.3351  0.9449
  713MOL0     H96231  12.218  -0.551   2.493  0.9866  0.0496  0.2421
  713MOL0     H96232  12.359  -0.589   2.393 -0.7239 -2.0844  2.6647
  713MOL0     H96233  12.109  -0.443   2.312  1.1331  0.3534  1.5421
  713MOL0     H96234  12.264  -0.432   2.217  1.9940  1.2912  1.8202
  713MOL0     H96235  12.846   0.098   2.650 -2.4477  0.4140 -1.6946
  713MOL0     H96236  12.742   0.205   2.838 -0.3835 -0.2641 -1.5461
  713MOL0     H96237  12.779   0.148   3.458  0.5322  2.4166  1.4487
  713MOL0     H96238  12.644   0.273   3.618 -0.3785 -0.3768  0.2975
  713MOL0     H96239  11.010   1.164   4.371 -0.2411 -1.1051 -2.6921
  713MOL0     H96240  10.874   1.049   4.556 -0.8545 -0.4855  0.9317
  713MOL0     H96241  10.380   0.849   4.491  0.3720  4.6366  1.5489
  713MOL0     H96242  10.181   0.712   4.580 -0.3791  1.8837 -0.8853
  713MOL0     H96243  10.119   0.465   4.603  3.8054  3.0524 -1.3665
  713MOL0     H96244  10.016   0.589   4.691  0.0998  0.5671  2.6664
  713MOL0     H96245   9.957   0.445   4.857  1.0810  0.0949  0.4927
  713MOL0     H96246  10.105   0.356   4.860 -1.3060  1.6107  2.1041
  713MOL0     H96247   9.859   0.299   4.666 -1.3467 -0.8165  0.1053
  713MOL0     H96248   9.915   0.201   4.796 -1.1421 -2.3259 -2.1684
  713MOL0     H96249   9.980   0.097   4.604  0.2060 -1.3248  2.3528
  713MOL0     H96250  10.060   0.232   4.541  2.7386  0.7748  1.9184
  713MOL0     H96251  10.342   0.070   4.836  1.3358  3.5946  0.8400
  713MOL0     H96252  10.394   0.589   4.918  2.3488  1.5261  2.5304
  713MOL0     H96253  10.631   0.599   4.911 -2.9387 -0.2677 -1.5535
  713MOL0     H96254  10.722   0.732   4.857  0.3069 -2.8073 -2.0806
  713MOL0     H96255  10.600   0.767   4.977 -0.2081  0.6218 -0.5325
  714MOL0     O96256   7.653   6.221   3.796  0.5138 -0.3714 -0.1114
  714MOL0     C96257   7.597   6.231   3.690  0.4108  0.3196  0.3806
  714MOL0     O96258   7.652   6.279   3.579 -0.4647  0.5567 -0.3169
  714MOL0     C96259   7.788   6.272   3.562  0.2361 -0.5427  0.4312
  714MOL0     C96260   7.827   6.228   3.435 -0.2902 -0.7590  0.6769
  714MOL0     C96261   7.970   6.206   3.404  0.0844  0.6397  0.6216
  714MOL0     C96262   8.066   6.227   3.499  0.6586  0.1838  0.3302
  714MOL0     O96263   8.197   6.203   3.461 -0.1375 -0.0827 -0.8334
  714MOL0     C96264   8.289   6.310   3.505 -0.1905 -0.3732  1.6135
  714MOL0     C96265   8.238   6.460   3.463  0.0604 -0.3991 -0.2231
  714MOL0     C96266   8.304   6.564   3.547  0.2068  0.1060 -0.1200
  714MOL0     C96267   8.445   6.603   3.486 -0.7843  0.0690  0.3135
  714MOL0     C96268   8.520   6.684   3.593  0.2124 -0.7453 -0.8366
  714MOL0     C96269   8.659   6.724   3.550  0.0202 -0.8001  0.2669
  714MOL0     C96270   8.718   6.815   3.653 -0.0291 -0.4370  0.1896
  714MOL0     C96271   8.867   6.828   3.627  0.4633 -1.4296 -0.7756
  714MOL0     N96272   8.911   6.939   3.719  0.4359 -0.3508 -0.6791
  714MOL0     C96273   8.865   7.065   3.709  0.3769  0.0675 -0.0929
  714MOL0     C96274   8.901   7.131   3.830 -0.0964  0.2704  0.0413
  714MOL0     C96275   8.888   7.277   3.868 -0.1441  0.0616 -1.2523
  714MOL0     C96276   9.021   7.334   3.913 -0.7010  0.2864 -0.0253
  714MOL0     C96277   9.005   7.457   3.991 -0.1772 -0.2825 -0.3217
  714MOL0     C96278   9.140   7.528   3.984  0.1172 -0.4304 -0.1595
  714MOL0     O96279   9.253   7.444   4.038 -0.2308 -0.1317  0.2310
  714MOL0     C96280   9.368   7.509   4.074 -0.1160 -0.8158  0.7043
  714MOL0     C96281   9.431   7.623   4.009 -0.0460  0.4648  0.0308
  714MOL0     C96282   9.545   7.687   4.062 -0.5709  0.4430  0.2616
  714MOL0     C96283   9.589   7.647   4.187 -0.2246 -0.2852 -0.4620
  714MOL0     C96284   9.691   7.724   4.255  0.5155  0.5440 -0.6914
  714MOL0     O96285   9.721   7.852   4.203 -0.2906  0.1229  0.6320
  714MOL0     C96286   9.831   7.921   4.247 -0.5534 -0.5054 -0.1851
  714MOL0     C96287   9.929   7.970   4.154  0.7364  0.1459 -0.2827
  714MOL0     C96288  10.047   8.046   4.202 -0.2469  0.3376 -0.5549
  714MOL0     C96289  10.073   8.060   4.336 -0.3320  0.4035 -0.1033
  714MOL0     O96290  10.188   8.125   4.381 -0.4806 -0.4925 -1.3294
  714MOL0     C96291  10.166   8.254   4.435  0.0486 -0.7208 -0.2574
  714MOL0     C96292  10.299   8.298   4.487 -0.3483 -0.0869  0.1582
  714MOL0     C96293  10.385   8.339   4.360 -0.8431 -0.3115 -0.8289
  714MOL0     C96294  10.346   8.476   4.300  0.5267  0.4391 -0.1033
  714MOL0     C96295  10.475   8.527   4.219  0.4130 -0.3810 -0.1148
  714MOL0     C96296  10.545   8.627   4.300 -0.3351 -0.2208  0.1149
  714MOL0     C96297  10.694   8.645   4.256 -0.2966 -0.8155  0.2656
  714MOL0     C96298  10.752   8.770   4.313 -0.4000 -0.6581 -0.5720
  714MOL0    Cl96299  10.757   8.784   4.492 -0.1044  0.2450  0.5036
  714MOL0     C96300   9.975   8.012   4.425  0.8797  0.2249  0.5744
  714MOL0     C96301   9.854   7.946   4.385  0.7745 -0.6661  0.1879
  714MOL0     O96302   9.753   7.673   4.343  0.0240 -0.6037 -0.3213
  714MOL0     C96303   9.540   7.524   4.238  0.2743  0.6937 -0.4337
  714MOL0     C96304   9.426   7.465   4.182 -0.1991  0.0875 -0.3456
  714MOL0     N96305   8.983   7.033   3.901  0.5827  0.2303 -0.2051
  714MOL0     N96306   8.976   6.919   3.838 -0.0580  0.1214 -0.4254
  714MOL0     C96307   8.024   6.275   3.626 -0.4652  0.0697 -0.8594
  714MOL0     C96308   7.890   6.303   3.650  0.4463 -0.7896 -1.0140
  714MOL0     C96309   7.447   6.203   3.687 -0.2610 -0.0749  0.4822
  714MOL0     C96310   7.360   6.250   3.785 -0.7477 -0.7688  0.7023
  714MOL0     C96311   7.226   6.245   3.785  0.4333  0.3441 -0.1569
  714MOL0     C96312   7.162   6.189   3.682  0.2078 -0.1191  0.4216
  714MOL0     O96313   7.026   6.196   3.687 -0.5147 -0.7383 -0.3051
  714MOL0     C96314   6.964   6.108   3.591  0.2042  1.0017  0.0502
  714MOL0     C96315   6.814   6.112   3.598  1.3471 -0.6841  0.2461
  714MOL0     C96316   6.747   6.246   3.559  0.2057 -0.1424  0.2178
  714MOL0     C96317   6.632   6.270   3.659 -0.1451  0.1566 -0.2429
  714MOL0     C96318   6.521   6.171   3.640  0.7350  0.6499  0.8958
  714MOL0     C96319   6.423   6.100   3.599  0.1095  0.7971 -0.7719
  714MOL0     C96320   7.239   6.142   3.569 -0.0378  0.0766  0.9151
  714MOL0     C96321   7.379   6.150   3.573 -0.2687 -0.2097 -0.0054
  714MOL0     C96322   7.449   6.106   3.442  0.2319 -0.8964  0.2322
  714MOL0     H96323   7.753   6.206   3.359  0.4804 -2.5734  0.3926
  714MOL0     H96324   8.004   6.164   3.310  0.2809 -2.3363  1.8990
  714MOL0     H96325   8.306   6.304   3.613 -1.2450 -2.3757  1.7222
  714MOL0     H96326   8.389   6.292   3.466  1.7448  4.5183  3.4972
  714MOL0     H96327   8.130   6.464   3.484  0.4467  0.0704  1.8372
  714MOL0     H96328   8.256   6.469   3.355  1.1592 -0.8941 -0.0902
  714MOL0     H96329   8.327   6.530   3.649  2.6148  1.1262 -0.2457
  714MOL0     H96330   8.245   6.656   3.550 -2.3755 -1.4594  0.4764
  714MOL0     H96331   8.499   6.511   3.465 -0.1387  0.6776 -0.8063
  714MOL0     H96332   8.431   6.670   3.400  0.1202 -0.0804  0.0390
  714MOL0     H96333   8.460   6.768   3.630  0.3757 -0.8639 -0.2899
  714MOL0     H96334   8.542   6.626   3.684 -0.6424 -0.8169 -0.6640
  714MOL0     H96335   8.717   6.639   3.514 -1.2846 -0.4559 -3.1134
  714MOL0     H96336   8.636   6.782   3.460 -0.8927 -2.2480 -0.4891
  714MOL0     H96337   8.702   6.774   3.753 -2.5623 -0.4091 -0.1258
  714MOL0     H96338   8.659   6.907   3.657  1.2581  0.3774  1.4254
  714MOL0     H96339   8.915   6.736   3.661  2.8566  0.5343  1.6353
  714MOL0     H96340   8.889   6.855   3.524 -1.0396  1.0291 -0.5345
  714MOL0     H96341   8.813   7.112   3.626 -0.2038 -0.2724  0.0752
  714MOL0     H96342   8.844   7.340   3.790 -0.5969  2.3223  0.7267
  714MOL0     H96343   8.820   7.279   3.953  1.3973  0.0793  0.0359
  714MOL0     H96344   9.078   7.267   3.978  0.3152 -0.0754 -1.2637
  714MOL0     H96345   9.079   7.343   3.820 -0.9237  1.5415 -0.0650
  714MOL0     H96346   8.974   7.431   4.093 -1.3342  1.5574 -0.1528
  714MOL0     H96347   8.925   7.512   3.941 -0.8222 -0.4926  0.4632
  714MOL0     H96348   9.145   7.625   4.034  0.8639  1.0808 -2.9600
  714MOL0     H96349   9.164   7.552   3.880  0.8811  0.3509  0.1833
  714MOL0     H96350   9.390   7.670   3.920 -0.3428 -0.1193 -0.1461
  714MOL0     H96351   9.596   7.765   4.005 -0.7700  0.1577 -0.3113
  714MOL0     H96352   9.909   7.970   4.047 -0.7063 -5.0122 -0.2900
  714MOL0     H96353  10.113   8.093   4.130  2.3166 -0.4079  1.1523
  714MOL0     H96354  10.120   8.325   4.366  2.2896  0.5208 -0.5637
  714MOL0     H96355  10.104   8.247   4.525  1.5224 -0.3977  0.8186
  714MOL0     H96356  10.297   8.380   4.560 -0.2214  0.3978 -0.3744
  714MOL0     H96357  10.331   8.208   4.540 -3.3481 -2.2856 -1.4356
  714MOL0     H96358  10.487   8.351   4.396 -1.5502  0.3218  1.0824
  714MOL0     H96359  10.385   8.257   4.287 -2.3003 -0.2462 -0.9305
  714MOL0     H96360  10.321   8.546   4.380  1.3569 -1.5794  2.0291
  714MOL0     H96361  10.261   8.459   4.234  0.6731  0.2445 -0.2442
  714MOL0     H96362  10.443   8.581   4.128  0.2929  1.7387  1.1230
  714MOL0     H96363  10.540   8.450   4.176  1.4131  0.0602  0.6046
  714MOL0     H96364  10.490   8.720   4.283  1.1287  0.1205 -4.0711
  714MOL0     H96365  10.558   8.600   4.405  0.9086  0.2954  0.1169
  714MOL0     H96366  10.691   8.643   4.147 -0.2885 -2.2107  0.2760
  714MOL0     H96367  10.753   8.560   4.291  0.6870 -0.4243 -0.4013
  714MOL0     H96368  10.853   8.782   4.271 -0.5027  0.3555 -0.5481
  714MOL0     H96369  10.706   8.854   4.261 -1.4457 -1.4087 -0.8827
  714MOL0     H96370   9.989   8.023   4.532 -2.3539  1.2555  0.9974
  714MOL0     H96371   9.786   7.911   4.462  2.0955 -1.2757  1.1272
  714MOL0     H96372   9.582   7.493   4.333  0.0728  2.5240  0.3039
  714MOL0     H96373   9.381   7.374   4.221  1.2681 -0.5831 -0.1383
  714MOL0     H96374   8.103   6.296   3.697 -0.3521 -1.1763 -0.6026
  714MOL0     H96375   7.853   6.353   3.739  1.7825 -0.3850 -0.6678
  714MOL0     H96376   7.405   6.283   3.878  2.8792 -5.0947  0.8308
  714MOL0     H96377   7.175   6.282   3.873 -0.5127  1.8456 -1.3051
  714MOL0     H96378   6.996   6.003   3.593 -1.6394  0.4103  1.9249
  714MOL0     H96379   6.986   6.145   3.490  0.8410  1.8299  0.4785
  714MOL0     H96380   6.785   6.090   3.701  1.6603 -0.1433  0.4565
  714MOL0     H96381   6.770   6.033   3.536  0.5038 -0.2470  0.2681
  714MOL0     H96382   6.703   6.237   3.459 -0.1290  0.2161  0.3352
  714MOL0     H96383   6.815   6.332   3.560  1.4465 -1.0634  2.2169
  714MOL0     H96384   6.676   6.263   3.759  0.1393 -1.7089 -0.4616
  714MOL0     H96385   6.590   6.368   3.636 -1.2212 -0.2761 -0.1803
  714MOL0     H96386   6.339   6.042   3.569  0.0679  0.1787  0.5032
  714MOL0     H96387   7.201   6.094   3.480  1.3483 -2.0650  1.3971
  714MOL0     H96388   7.452   6.195   3.378 -2.5152 -1.4188 -0.7681
  714MOL0     H96389   7.548   6.067   3.470  0.1213 -1.8260 -0.6035
  714MOL0     H96390   7.400   6.031   3.379  1.4299 -1.2006 -0.3777
  715MOL0     O96391   0.558   9.951   0.069  0.8525 -0.5739  0.0511
  715MOL0     C96392   0.578   9.919  -0.046  0.1596 -0.0156 -0.1985
  715MOL0     O96393   0.690   9.938  -0.114  0.0453 -0.2504  0.0597
  715MOL0     C96394   0.766  10.039  -0.062 -0.8066  0.2139 -0.4754
  715MOL0     C96395   0.722  10.175  -0.086 -0.4280  0.2104 -0.1934
  715MOL0     C96396   0.806  10.275  -0.032 -0.1319 -0.3817 -0.7195
  715MOL0     C96397   0.912  10.247   0.060 -0.4608  0.0924 -0.5183
  715MOL0     O96398   0.970  10.353   0.125  0.0038  0.4909 -0.2096
  715MOL0     C96399   1.088  10.390   0.046  0.6485  1.0462  0.2519
  715MOL0     C96400   1.132  10.522   0.107 -0.8274 -0.3149 -0.5117
  715MOL0     C96401   1.278  10.554   0.072  0.4104  0.8463  0.3703
  715MOL0     C96402   1.295  10.688   0.138 -0.1389  0.7177 -0.7326
  715MOL0     C96403   1.442  10.740   0.137 -0.1326 -0.0698 -0.6100
  715MOL0     C96404   1.501  10.701   0.278  0.4470  0.4544  0.4784
  715MOL0     C96405   1.651  10.721   0.279 -0.4162 -0.5101 -0.1270
  715MOL0     C96406   1.710  10.630   0.388  0.5497 -0.3836  0.3775
  715MOL0     N96407   1.856  10.627   0.403 -0.0990 -0.0123  0.5311
  715MOL0     C96408   1.958  10.698   0.336  0.3314  0.2788  1.2116
  715MOL0     C96409   2.069  10.642   0.386 -0.4178  0.0096  0.7730
  715MOL0     C96410   2.215  10.671   0.351 -0.7763 -0.4103 -0.1269
  715MOL0     C96411   2.275  10.812   0.380  0.0426  0.4809 -0.2787
  715MOL0     C96412   2.314  10.827   0.529  0.2433  0.7495 -0.2412
  715MOL0     C96413   2.440  10.758   0.575  1.0854 -0.2850  0.1524
  715MOL0     O96414   2.545  10.832   0.513  0.4589 -0.0896  0.2376
  715MOL0     C96415   2.673  10.803   0.528 -0.5961  0.8830  0.1333
  715MOL0     C96416   2.716  10.719   0.635 -0.4051  0.0116 -1.0583
  715MOL0     C96417   2.847  10.686   0.666  1.1687  0.3153  0.0921
  715MOL0     C96418   2.951  10.748   0.595  0.9255  0.2408  0.5132
  715MOL0     C96419   3.087  10.742   0.640 -0.0521 -0.3553  0.6756
  715MOL0     O96420   3.170  10.784   0.539  0.5196  0.5437 -0.4348
  715MOL0     C96421   3.302  10.747   0.550  0.4753 -0.5573  0.5799
  715MOL0     C96422   3.360  10.759   0.418  0.3475 -0.6057 -0.2527
  715MOL0     C96423   3.499  10.759   0.406  0.6000  0.7973  0.5350
  715MOL0     C96424   3.581  10.745   0.517  0.0963  0.8305 -0.4960
  715MOL0     O96425   3.717  10.729   0.503 -0.6541  0.1804  0.2440
  715MOL0     C96426   3.759  10.594   0.473  0.2645  0.7539 -0.6005
  715MOL0     C96427   3.906  10.591   0.428 -0.5216  0.6499 -0.5966
  715MOL0     C96428   3.916  10.642   0.283  0.0427  0.0714  0.7153
  715MOL0     C96429   4.049  10.595   0.222  0.2083 -0.6689  0.2587
  715MOL0     C96430   4.063  10.654   0.088  0.0951 -0.4334  0.2043
  715MOL0     C96431   4.199  10.617   0.026  0.2545  0.6306  0.3111
  715MOL0     C96432   4.213  10.659  -0.127  0.1338 -0.5645  0.7635
  715MOL0     C96433   4.349  10.607  -0.187 -0.6773 -0.1904  0.3889
  715MOL0    Cl96434   4.360  10.650  -0.356 -0.4066  0.1499 -0.0614
  715MOL0     C96435   3.527  10.725   0.646 -0.3551  0.6504 -0.3947
  715MOL0     C96436   3.389  10.728   0.662  0.3867  0.0970  0.4428
  715MOL0     O96437   3.114  10.670   0.736  0.2731 -0.8727  0.4181
  715MOL0     C96438   2.907  10.832   0.482 -1.1840 -0.0890  0.2815
  715MOL0     C96439   2.774  10.856   0.446 -0.4233  0.5215  0.4304
  715MOL0     N96440   2.037  10.549   0.489  0.1249 -0.3732  0.4277
  715MOL0     N96441   1.913  10.542   0.491 -0.0539 -0.7122 -0.0626
  715MOL0     C96442   0.951  10.119   0.079 -0.0254  0.3206  0.0372
  715MOL0     C96443   0.879  10.018   0.015 -0.6636  0.1075 -0.0705
  715MOL0     C96444   0.472   9.831  -0.117 -0.1619 -0.0944 -0.6744
  715MOL0     C96445   0.493   9.793  -0.246 -0.3704 -0.6789  0.0618
  715MOL0     C96446   0.401   9.707  -0.315 -0.3119  0.7650  0.1729
  715MOL0     C96447   0.283   9.661  -0.258 -0.5758  0.1895 -0.8173
  715MOL0     O96448   0.202   9.577  -0.327 -0.6300 -0.3160  0.3304
  715MOL0     C96449   0.059   9.571  -0.296 -0.2976 -0.3101  0.4416
  715MOL0     C96450  -0.028   9.590  -0.427  1.0419  0.2150 -0.0090
  715MOL0     C96451  -0.172   9.571  -0.395 -0.0636  0.2854 -0.2666
  715MOL0     C96452  -0.246   9.525  -0.510  0.4257 -0.2569  0.5421
  715MOL0     C96453  -0.390   9.502  -0.483 -1.1142  0.8072 -0.4253
  715MOL0     C96454  -0.511   9.482  -0.473  0.1469 -0.3489 -0.8787
  715MOL0     C96455   0.265   9.690  -0.123  0.4546  0.2570 -0.0990
  715MOL0     C96456   0.353   9.771  -0.057 -0.1130  0.5517 -0.9034
  715MOL0     C96457   0.321   9.800   0.086 -0.6281  0.1548  0.1159
  715MOL0     H96458   0.630  10.186  -0.141  0.7620  1.3842 -2.0727
  715MOL0     H96459   0.784  10.379  -0.056 -0.3156  0.3546  2.2104
  715MOL0     H96460   1.162  10.310   0.055 -0.3421  0.2272  1.6535
  715MOL0     H96461   1.075  10.414  -0.059 -2.1409  1.0721  0.5152
  715MOL0     H96462   1.123  10.502   0.214 -0.5751  0.2212 -0.3883
  715MOL0     H96463   1.073  10.612   0.088  1.1398  0.8882 -1.2001
  715MOL0     H96464   1.306  10.554  -0.033  0.8806 -2.5169  0.3789
  715MOL0     H96465   1.344  10.478   0.116 -0.5241  0.2818  0.8195
  715MOL0     H96466   1.233  10.762   0.086  2.7861  2.9131 -1.3615
  715MOL0     H96467   1.263  10.683   0.242  0.6108 -0.2089 -0.5347
  715MOL0     H96468   1.506  10.705   0.056  0.8164 -1.1923  0.5660
  715MOL0     H96469   1.447  10.849   0.140 -0.5619 -0.0579  1.8326
  715MOL0     H96470   1.456  10.757   0.360  0.5957  0.1316  0.7839
  715MOL0     H96471   1.481  10.594   0.295  2.1788  0.1929  1.0701
  715MOL0     H96472   1.679  10.825   0.298 -0.9448 -0.4001  0.0702
  715MOL0     H96473   1.685  10.679   0.184 -3.0685 -1.6673 -0.6568
  715MOL0     H96474   1.668  10.673   0.479 -5.0231 -0.3038 -1.8159
  715MOL0     H96475   1.667  10.530   0.394  1.5531 -0.8317  0.2806
  715MOL0     H96476   1.960  10.779   0.263  0.5106 -0.2049  0.6689
  715MOL0     H96477   2.271  10.598   0.410 -1.3743 -0.8638 -0.1158
  715MOL0     H96478   2.220  10.649   0.244 -0.4170  0.7798 -0.3704
  715MOL0     H96479   2.367  10.822   0.322  0.5972 -1.8910  0.0678
  715MOL0     H96480   2.204  10.890   0.350  0.2176  0.3569 -1.0393
  715MOL0     H96481   2.228  10.786   0.583 -0.2331 -0.7204 -2.0306
  715MOL0     H96482   2.321  10.932   0.561 -0.8785  1.3468 -1.8517
  715MOL0     H96483   2.456  10.652   0.556  0.7032  0.0385 -2.3321
  715MOL0     H96484   2.432  10.780   0.682  1.1546  1.4940 -0.1780
  715MOL0     H96485   2.639  10.677   0.699 -2.8859  0.9977 -3.2000
  715MOL0     H96486   2.853  10.613   0.746  0.4674 -0.0836 -0.2123
  715MOL0     H96487   3.292  10.773   0.334  0.5811  2.7087 -0.0351
  715MOL0     H96488   3.564  10.781   0.321  1.9106  1.8677  1.7606
  715MOL0     H96489   3.755  10.543   0.570  0.3073  2.1252  0.1425
  715MOL0     H96490   3.704  10.536   0.398  0.5998  0.1126 -0.3577
  715MOL0     H96491   3.962  10.657   0.495  0.9535  1.8278 -2.8425
  715MOL0     H96492   3.951  10.492   0.444 -1.9663  0.5127  4.3340
  715MOL0     H96493   3.830  10.605   0.226  0.3893  1.8782 -1.0867
  715MOL0     H96494   3.905  10.751   0.278 -0.0203  0.0705  0.8077
  715MOL0     H96495   4.054  10.487   0.202  2.6013  0.0702 -5.0652
  715MOL0     H96496   4.132  10.629   0.283  0.5764 -0.3963 -0.3810
  715MOL0     H96497   4.067  10.763   0.097  0.3310 -0.1739 -2.3104
  715MOL0     H96498   3.984  10.636   0.015  2.2984  0.1577 -2.5315
  715MOL0     H96499   4.278  10.655   0.091  0.6818 -1.1750  0.9271
  715MOL0     H96500   4.208  10.508   0.020  0.1913  0.6921 -1.3628
  715MOL0     H96501   4.216  10.768  -0.130  1.6859 -0.6085 -1.3530
  715MOL0     H96502   4.126  10.623  -0.184  2.3173  0.5667 -3.7169
  715MOL0     H96503   4.433  10.643  -0.126 -2.2633  2.3664  1.1944
  715MOL0     H96504   4.344  10.498  -0.176  1.0345 -0.4603 -0.9485
  715MOL0     H96505   3.597  10.702   0.725 -0.2288  1.0868 -0.3766
  715MOL0     H96506   3.359  10.712   0.765 -2.1928  2.8086  0.2234
  715MOL0     H96507   2.983  10.875   0.418 -2.4176  1.8073  0.0013
  715MOL0     H96508   2.758  10.914   0.356  2.7818  0.4005 -0.3351
  715MOL0     H96509   1.031  10.085   0.144 -0.9615 -4.1973 -0.8897
  715MOL0     H96510   0.913   9.916   0.028 -0.0795  0.4010  0.7577
  715MOL0     H96511   0.579   9.836  -0.295 -0.5623  0.6520  0.8413
  715MOL0     H96512   0.432   9.689  -0.418 -1.2023 -1.4861  0.2386
  715MOL0     H96513   0.026   9.637  -0.215 -0.3447 -0.4853  0.5662
  715MOL0     H96514   0.033   9.472  -0.257  1.3701 -0.7342  0.5417
  715MOL0     H96515   0.024   9.530  -0.502  1.3340  0.3606  0.0739
  715MOL0     H96516  -0.015   9.690  -0.470  2.3700 -0.4132 -1.1639
  715MOL0     H96517  -0.212   9.662  -0.349 -0.4760 -1.1760  2.5019
  715MOL0     H96518  -0.182   9.498  -0.314 -0.5312  2.6177  1.9166
  715MOL0     H96519  -0.250   9.608  -0.581 -2.5079  0.2128  1.1166
  715MOL0     H96520  -0.193   9.443  -0.559  3.2497 -0.4520  3.5892
  715MOL0     H96521  -0.615   9.455  -0.480 -0.4069  1.7183 -1.1942
  715MOL0     H96522   0.192   9.644  -0.058  1.6191 -0.9429  0.4091
  715MOL0     H96523   0.241   9.742   0.133 -0.6568  1.1933  1.4150
  715MOL0     H96524   0.398   9.767   0.155 -2.2178  0.1929  1.9965
  715MOL0     H96525   0.296   9.905   0.106  1.8109  0.9715 -0.7056
  716MOL0     O96526   7.264   4.400   2.665 -0.5164 -0.4455 -0.4374
  716MOL0     C96527   7.341   4.310   2.674  0.5351  0.8585 -0.3679
  716MOL0     O96528   7.304   4.178   2.672  0.0621 -0.2074  0.0338
  716MOL0     C96529   7.174   4.149   2.680 -0.0849 -0.0414  0.4920
  716MOL0     C96530   7.115   4.081   2.576  0.1939  0.6092 -0.3178
  716MOL0     C96531   6.981   4.033   2.573  0.8205 -0.7741  0.0868
  716MOL0     C96532   6.902   4.067   2.687  0.6198 -0.6071  0.5462
  716MOL0     O96533   6.777   4.012   2.715 -0.7933  0.7568 -0.2856
  716MOL0     C96534   6.674   4.096   2.663 -0.1801 -0.7049 -0.0515
  716MOL0     C96535   6.554   4.021   2.626  0.4041  0.3421  0.6782
  716MOL0     C96536   6.504   3.921   2.729 -0.2627 -0.1192 -0.1384
  716MOL0     C96537   6.387   3.841   2.681  0.3279 -0.2891  0.4020
  716MOL0     C96538   6.368   3.719   2.769  0.5130 -0.2127  0.8343
  716MOL0     C96539   6.247   3.639   2.737 -0.6313  0.3435 -0.0599
  716MOL0     C96540   6.230   3.591   2.594 -0.1724 -0.2278 -0.6238
  716MOL0     C96541   6.089   3.513   2.588 -0.0800 -0.2854 -0.4241
  716MOL0     N96542   6.045   3.495   2.452 -0.0775  0.0229 -0.1948
  716MOL0     C96543   6.131   3.442   2.355  0.6998 -0.3191 -0.5570
  716MOL0     C96544   6.062   3.460   2.241 -0.4851  0.4654  0.6035
  716MOL0     C96545   6.096   3.418   2.102 -0.7197 -0.4177 -0.2987
  716MOL0     C96546   6.180   3.535   2.047  0.2306  0.8200 -0.4391
  716MOL0     C96547   6.214   3.521   1.900 -0.6835 -0.4055 -0.1227
  716MOL0     C96548   6.334   3.603   1.867  0.1008 -0.1581  0.5638
  716MOL0     O96549   6.444   3.586   1.955 -1.0265 -0.1505  0.4139
  716MOL0     C96550   6.566   3.583   1.898 -0.4242 -0.5247 -0.4338
  716MOL0     C96551   6.673   3.647   1.964  0.6141  0.2442 -0.4024
  716MOL0     C96552   6.792   3.665   1.906 -0.0587 -0.7293 -0.7302
  716MOL0     C96553   6.831   3.601   1.787 -0.6047 -0.8160 -0.9215
  716MOL0     C96554   6.970   3.605   1.744  0.5775 -0.5510  0.3816
  716MOL0     O96555   7.013   3.526   1.638  0.6993 -0.2770 -0.0503
  716MOL0     C96556   7.136   3.534   1.590 -0.4457  0.0287  0.4015
  716MOL0     C96557   7.164   3.602   1.467  0.5835  0.2470 -0.5699
  716MOL0     C96558   7.287   3.630   1.415  0.2314 -0.3118  0.2677
  716MOL0     C96559   7.405   3.593   1.493  1.0522  0.1645 -0.5497
  716MOL0     O96560   7.533   3.610   1.446  0.2016  0.3106 -0.0916
  716MOL0     C96561   7.536   3.650   1.308  0.1416 -1.2539  0.2545
  716MOL0     C96562   7.690   3.646   1.268 -0.1639 -0.0775 -0.4350
  716MOL0     C96563   7.723   3.691   1.129  0.4032  0.5090 -0.2529
  716MOL0     C96564   7.724   3.576   1.021  0.4447  0.1934  0.2206
  716MOL0     C96565   7.748   3.620   0.869 -0.0579 -0.2334  0.3756
  716MOL0     C96566   7.879   3.700   0.840 -0.3604  0.4954 -0.1694
  716MOL0     C96567   8.005   3.617   0.863  0.3646 -0.2286  0.7318
  716MOL0     C96568   8.104   3.653   0.760 -0.3466 -0.1862  0.9015
  716MOL0    Cl96569   8.120   3.836   0.745  0.1889 -0.2287  0.1544
  716MOL0     C96570   7.379   3.525   1.611  0.1312 -0.2868 -0.5030
  716MOL0     C96571   7.245   3.498   1.662  0.4439 -0.5728 -0.0069
  716MOL0     O96572   7.035   3.688   1.808 -0.5215  0.3097 -0.4650
  716MOL0     C96573   6.729   3.545   1.709  0.4517 -0.1036  0.2419
  716MOL0     C96574   6.599   3.536   1.769 -0.6602 -0.9909 -1.0422
  716MOL0     N96575   5.949   3.528   2.266 -0.0169 -0.2461  0.1572
  716MOL0     N96576   5.943   3.553   2.393 -0.2770  0.3006  0.0649
  716MOL0     C96577   6.952   4.154   2.781 -0.0236 -0.3171 -1.4740
  716MOL0     C96578   7.095   4.189   2.783  1.7667  0.8991 -0.2539
  716MOL0     C96579   7.486   4.332   2.690  0.0535  0.3670 -0.3677
  716MOL0     C96580   7.523   4.468   2.698 -0.5227  0.2201 -0.0760
  716MOL0     C96581   7.660   4.515   2.716  0.2952 -0.2183 -0.3828
  716MOL0     C96582   7.751   4.418   2.727  0.1072  1.0666  0.2576
  716MOL0     O96583   7.877   4.452   2.748  0.1578  0.3018  0.0648
  716MOL0     C96584   7.916   4.422   2.882  0.3851 -0.2624  0.7865
  716MOL0     C96585   7.851   4.509   2.982 -0.1777 -0.4910 -0.5025
  716MOL0     C96586   7.915   4.509   3.123 -0.2936  0.4828 -0.9446
  716MOL0     C96587   7.865   4.627   3.208  0.1918 -0.3014  0.7301
  716MOL0     C96588   7.913   4.749   3.170  0.1616 -0.2670 -0.4832
  716MOL0     C96589   7.957   4.864   3.157  0.2053  0.2220  0.3663
  716MOL0     C96590   7.721   4.280   2.721 -0.2126 -0.3118  0.8140
  716MOL0     C96591   7.593   4.238   2.699  0.1941 -0.2959 -0.2063
  716MOL0     C96592   7.578   4.089   2.682  0.0216  0.4186  0.7309
  716MOL0     H96593   7.166   4.047   2.487 -1.2274 -0.4041 -0.7828
  716MOL0     H96594   6.938   3.968   2.498  0.4187 -0.2685 -0.1275
  716MOL0     H96595   6.647   4.166   2.743 -0.4059  0.6105 -1.2493
  716MOL0     H96596   6.715   4.158   2.583  0.6396  0.2262  1.0623
  716MOL0     H96597   6.579   3.976   2.530  0.0221 -0.9702  1.1694
  716MOL0     H96598   6.465   4.085   2.618  0.2622 -0.0926 -2.3118
  716MOL0     H96599   6.476   3.973   2.821  3.3639 -1.0181  1.6117
  716MOL0     H96600   6.581   3.852   2.763  0.6967  0.8350 -0.3168
  716MOL0     H96601   6.294   3.900   2.681  0.4816 -0.0420  1.0278
  716MOL0     H96602   6.407   3.808   2.578 -1.2170  2.4794 -0.9159
  716MOL0     H96603   6.455   3.654   2.759  0.7919  0.4830 -2.3663
  716MOL0     H96604   6.361   3.766   2.868 -2.6952  3.1170 -0.7563
  716MOL0     H96605   6.253   3.556   2.808 -1.9862  2.0565  2.1986
  716MOL0     H96606   6.159   3.694   2.771 -0.9788 -0.9279  1.2145
  716MOL0     H96607   6.306   3.514   2.581 -0.6345 -0.9474  0.7996
  716MOL0     H96608   6.237   3.670   2.519 -2.7033  0.6128 -0.0550
  716MOL0     H96609   6.102   3.416   2.637 -0.0370  0.1656  0.4845
  716MOL0     H96610   6.014   3.577   2.636 -0.1514  0.6697 -1.7491
  716MOL0     H96611   6.224   3.386   2.362 -1.3679 -3.9411  0.4078
  716MOL0     H96612   6.158   3.328   2.101  1.7526  1.1846  0.9010
  716MOL0     H96613   6.008   3.394   2.041  0.8857 -2.3232 -1.9845
  716MOL0     H96614   6.117   3.620   2.074 -1.0034 -1.2687  4.2218
  716MOL0     H96615   6.268   3.543   2.112  1.4845  1.5971 -2.1585
  716MOL0     H96616   6.134   3.547   1.831 -0.6398 -3.3986 -1.4340
  716MOL0     H96617   6.244   3.417   1.883 -0.6169 -0.2502 -0.9553
  716MOL0     H96618   6.294   3.704   1.878 -0.6560 -0.6347  2.4554
  716MOL0     H96619   6.349   3.583   1.760 -1.0443  1.8641 -0.0259
  716MOL0     H96620   6.658   3.690   2.062  1.7810  0.6874 -0.3949
  716MOL0     H96621   6.865   3.719   1.966 -0.0741  2.3269 -3.2307
  716MOL0     H96622   7.076   3.634   1.413 -1.1267 -1.3670  1.0879
  716MOL0     H96623   7.297   3.692   1.327 -1.5817 -1.4065 -0.7910
  716MOL0     H96624   7.478   3.587   1.239 -0.3653  0.3282 -0.8128
  716MOL0     H96625   7.488   3.746   1.288 -1.0681 -2.1068 -1.2621
  716MOL0     H96626   7.750   3.721   1.320  0.4280 -0.4407 -0.5711
  716MOL0     H96627   7.733   3.550   1.300 -1.5239 -0.2528  0.9482
  716MOL0     H96628   7.637   3.756   1.111 -0.0494 -0.4304 -1.7098
  716MOL0     H96629   7.816   3.746   1.113  0.8568 -0.8404 -3.0961
  716MOL0     H96630   7.622   3.537   1.032  0.5936 -0.1581  0.3748
  716MOL0     H96631   7.797   3.499   1.047  2.0691  1.2147 -1.1100
  716MOL0     H96632   7.665   3.685   0.842  0.8126  0.2748 -1.2153
  716MOL0     H96633   7.750   3.534   0.801  0.4864  1.2873 -1.6286
  716MOL0     H96634   7.863   3.740   0.740 -0.1584 -0.0281 -0.4148
  716MOL0     H96635   7.891   3.782   0.912  0.8854  2.0024 -2.0262
  716MOL0     H96636   7.987   3.512   0.836  3.7141 -0.5037 -0.9640
  716MOL0     H96637   8.025   3.626   0.970 -2.1584 -1.0929  1.3534
  716MOL0     H96638   8.202   3.605   0.767  0.9510  1.9765 -1.0863
  716MOL0     H96639   8.059   3.619   0.666  1.8415  0.4982 -0.4562
  716MOL0     H96640   7.466   3.504   1.672 -1.9693 -0.9548  2.4567
  716MOL0     H96641   7.235   3.461   1.763  1.6589 -0.8272  0.0424
  716MOL0     H96642   6.742   3.498   1.612  0.0131 -0.3606  0.3048
  716MOL0     H96643   6.531   3.480   1.706  2.4786 -3.6373 -2.3685
  716MOL0     H96644   6.896   4.178   2.870  1.8781 -1.6445  0.1826
  716MOL0     H96645   7.133   4.240   2.871  1.2644 -2.0173  1.7903
  716MOL0     H96646   7.448   4.545   2.686  1.3803  2.6760  2.4093
  716MOL0     H96647   7.699   4.616   2.727 -0.0424 -0.3807  3.9777
  716MOL0     H96648   8.024   4.431   2.889  0.5688 -0.9680 -0.7220
  716MOL0     H96649   7.883   4.321   2.909 -1.0869  0.1197  0.5251
  716MOL0     H96650   7.742   4.496   2.984 -0.7153  2.9953 -0.5067
  716MOL0     H96651   7.864   4.612   2.946  0.5277 -0.2512  0.4042
  716MOL0     H96652   8.022   4.518   3.104 -0.4286  0.2062 -1.8483
  716MOL0     H96653   7.901   4.413   3.174 -1.7871  1.5821  0.8571
  716MOL0     H96654   7.756   4.621   3.207  0.2434 -1.9958  1.7298
  716MOL0     H96655   7.901   4.619   3.311 -1.7567 -0.1913  1.4753
  716MOL0     H96656   7.987   4.966   3.143 -0.5057  0.7511  2.3046
  716MOL0     H96657   7.798   4.204   2.727 -0.5249 -0.6726  0.3663
  716MOL0     H96658   7.670   4.031   2.696 -0.6584 -1.6546 -2.1812
  716MOL0     H96659   7.497   4.044   2.740  0.4970 -0.7509  0.5186
  716MOL0     H96660   7.561   4.063   2.577  3.6500 -2.7554  0.6722
  717MOL0     O96661   1.398   7.102   5.471  0.6150 -0.8153  0.3200
  717MOL0     C96662   1.379   7.086   5.350 -0.4341  0.1215  0.9305
  717MOL0     O96663   1.476   7.053   5.260  0.5481 -0.3406 -0.1175
  717MOL0     C96664   1.603   7.047   5.296  0.1687  0.1326 -0.8504
  717MOL0     C96665   1.706   7.093   5.207  0.0639  0.0144 -0.1248
  717MOL0     C96666   1.848   7.088   5.227 -0.1685  0.6796  0.2747
  717MOL0     C96667   1.898   7.013   5.335  0.4800  0.1613  0.4118
  717MOL0     O96668   2.028   6.973   5.349  0.6830  0.4402 -0.5184
  717MOL0     C96669   2.055   6.836   5.383 -0.0866 -0.0971  0.1507
  717MOL0     C96670   2.152   6.770   5.278  0.0996 -0.6689 -0.5201
  717MOL0     C96671   2.286   6.829   5.310  1.1980 -0.0240  0.1389
  717MOL0     C96672   2.373   6.769   5.201 -0.1735 -0.4276  0.0166
  717MOL0     C96673   2.526   6.767   5.236  0.5849  0.2360  1.3702
  717MOL0     C96674   2.580   6.906   5.275  0.2986  0.3281  0.3629
  717MOL0     C96675   2.726   6.909   5.318  0.1835 -0.1020  0.0367
  717MOL0     C96676   2.773   7.048   5.357  0.7771  0.7508  0.6633
  717MOL0     N96677   2.814   7.124   5.237 -0.3930 -0.6988  0.5858
  717MOL0     C96678   2.939   7.109   5.181 -0.9326  0.0397  0.4574
  717MOL0     C96679   2.954   7.217   5.101 -0.8240  0.0438  0.3712
  717MOL0     C96680   3.073   7.271   5.023  0.3069 -0.6269  0.1344
  717MOL0     C96681   3.192   7.304   5.109  1.1019 -0.5707  0.1398
  717MOL0     C96682   3.173   7.427   5.209  0.2280 -0.9142  1.1238
  717MOL0     C96683   3.294   7.475   5.277 -0.9169 -0.0796 -0.3843
  717MOL0     O96684   3.395   7.536   5.200  0.5304 -0.9673 -0.0919
  717MOL0     C96685   3.504   7.599   5.260  0.3339  0.0580  0.0440
  717MOL0     C96686   3.538   7.597   5.396  0.7530 -0.4204 -0.4111
  717MOL0     C96687   3.655   7.651   5.445 -0.2583  0.1631  0.1179
  717MOL0     C96688   3.751   7.707   5.366  0.7092  0.5736 -0.3258
  717MOL0     C96689   3.868   7.772   5.421 -0.2374 -0.0764 -0.8328
  717MOL0     O96690   3.940   7.840   5.330  0.1526 -0.6223 -0.9414
  717MOL0     C96691   4.072   7.870   5.359 -0.6912  0.3164  0.1993
  717MOL0     C96692   4.110   7.956   5.470  0.1200  0.0227  0.2012
  717MOL0     C96693   4.244   7.979   5.497 -0.0297 -0.9935  0.3676
  717MOL0     C96694   4.351   7.912   5.431 -0.7318  0.5871  0.0423
  717MOL0     O96695   4.479   7.943   5.471  0.1165 -0.1961 -0.4739
  717MOL0     C96696   4.596   7.899   5.388  1.3118 -0.0687  0.5884
  717MOL0     C96697   4.656   7.769   5.439  0.2767  0.1013  0.0428
  717MOL0     C96698   4.709   7.665   5.339 -0.1374 -0.4621 -0.7888
  717MOL0     C96699   4.807   7.728   5.233 -0.0300  0.0271  0.3726
  717MOL0     C96700   4.845   7.652   5.105 -0.9509  0.6294  0.7448
  717MOL0     C96701   4.877   7.511   5.122 -0.4466  1.3714 -0.0927
  717MOL0     C96702   5.024   7.487   5.165  0.1174  1.1811 -0.0186
  717MOL0     C96703   5.047   7.336   5.175 -0.8318  0.1828 -0.8844
  717MOL0    Cl96704   5.218   7.286   5.215  0.2555 -0.4334  0.1234
  717MOL0     C96705   4.321   7.828   5.321 -0.0105 -1.5192  0.1362
  717MOL0     C96706   4.184   7.813   5.284 -0.4075 -0.9848 -0.1145
  717MOL0     O96707   3.899   7.749   5.539  0.1608  0.7288 -0.3094
  717MOL0     C96708   3.720   7.710   5.224  0.0984 -0.8682  0.1066
  717MOL0     C96709   3.600   7.658   5.175  0.6866  0.1191  0.5012
  717MOL0     N96710   2.836   7.285   5.094  0.1315  0.3739  0.4429
  717MOL0     N96711   2.758   7.238   5.188  0.3290  0.2753  0.3254
  717MOL0     C96712   1.802   6.966   5.427  0.6204 -0.3435 -0.4723
  717MOL0     C96713   1.661   6.984   5.405 -0.9259 -0.3088 -0.2931
  717MOL0     C96714   1.239   7.082   5.299  0.2775 -0.5231  0.0402
  717MOL0     C96715   1.137   7.022   5.378 -0.1972 -0.9685  0.1715
  717MOL0     C96716   1.007   7.050   5.348 -0.3199 -1.0270 -0.2331
  717MOL0     C96717   0.970   7.119   5.233 -0.4639 -1.3617 -0.0467
  717MOL0     O96718   0.840   7.147   5.207 -0.3547 -0.4730  0.1943
  717MOL0     C96719   0.775   7.026   5.200  0.6890 -0.3950  0.0812
  717MOL0     C96720   0.633   7.046   5.149 -0.3623  0.1955 -0.4424
  717MOL0     C96721   0.546   7.153   5.213 -0.2641  0.4033 -0.5320
  717MOL0     C96722   0.506   7.112   5.357  0.5102 -0.8480  0.4023
  717MOL0     C96723   0.406   7.211   5.402  0.5714 -0.8358  0.1937
  717MOL0     C96724   0.340   7.297   5.458  0.0381  0.0444  0.0464
  717MOL0     C96725   1.056   7.178   5.155 -0.3432  0.2232  0.1198
  717MOL0     C96726   1.194   7.156   5.181  0.7163  0.5911 -1.0529
  717MOL0     C96727   1.287   7.207   5.080 -0.4099 -0.2486 -0.1146
  717MOL0     H96728   1.670   7.150   5.122  2.0183  1.1112 -0.2592
  717MOL0     H96729   1.923   7.116   5.153 -1.9955  3.7871 -0.5504
  717MOL0     H96730   2.082   6.829   5.489 -1.7672 -0.9733  0.5602
  717MOL0     H96731   1.963   6.776   5.385  1.0080 -1.8799 -0.4355
  717MOL0     H96732   2.127   6.800   5.176 -0.6054 -1.8833 -0.7213
  717MOL0     H96733   2.153   6.661   5.281  1.4977 -0.6899 -1.0122
  717MOL0     H96734   2.315   6.784   5.405  2.7303 -0.4753 -0.5164
  717MOL0     H96735   2.302   6.937   5.321  1.8350  0.0505 -1.2284
  717MOL0     H96736   2.351   6.663   5.187  0.4560 -0.9118  2.2962
  717MOL0     H96737   2.358   6.822   5.107 -2.8649  0.3643  0.8030
  717MOL0     H96738   2.527   6.715   5.332  0.6880  0.7076  1.6331
  717MOL0     H96739   2.581   6.721   5.154 -0.9771  1.6356 -0.5802
  717MOL0     H96740   2.567   6.974   5.190 -1.1471  0.8797  0.9901
  717MOL0     H96741   2.521   6.944   5.359  0.5419  3.4846 -0.7862
  717MOL0     H96742   2.800   6.870   5.248  0.5506  2.3979 -1.0935
  717MOL0     H96743   2.737   6.845   5.406  1.1962 -0.1334 -0.1065
  717MOL0     H96744   2.694   7.101   5.411 -1.4402 -1.6133 -0.0531
  717MOL0     H96745   2.855   7.023   5.425  1.9568  3.0738  0.2070
  717MOL0     H96746   3.018   7.040   5.207 -0.8157  0.9288  2.6491
  717MOL0     H96747   3.112   7.192   4.958  3.9304  0.2166  1.0406
  717MOL0     H96748   3.052   7.348   4.949 -2.2637 -3.1238 -1.9533
  717MOL0     H96749   3.224   7.219   5.170 -3.2134 -2.3346  0.3059
  717MOL0     H96750   3.263   7.334   5.032 -1.3451  3.1848 -0.9635
  717MOL0     H96751   3.097   7.393   5.280 -3.7267  1.1807 -1.7761
  717MOL0     H96752   3.121   7.513   5.165 -0.1604  0.3803  3.8881
  717MOL0     H96753   3.345   7.396   5.332  2.1377  3.0261  1.6792
  717MOL0     H96754   3.275   7.546   5.358  2.4788  2.0823 -1.2762
  717MOL0     H96755   3.473   7.569   5.478  0.5134  2.0031  0.3290
  717MOL0     H96756   3.662   7.646   5.553 -0.7170 -2.2032  0.0988
  717MOL0     H96757   4.037   7.997   5.539  0.5755  0.2483  0.5593
  717MOL0     H96758   4.265   8.038   5.585 -1.8060  1.2677 -0.6007
  717MOL0     H96759   4.564   7.889   5.284 -2.0235  2.5392  1.1879
  717MOL0     H96760   4.668   7.981   5.388  1.4992 -0.1853  2.1358
  717MOL0     H96761   4.739   7.803   5.502  0.4647  0.3935 -0.3600
  717MOL0     H96762   4.585   7.716   5.503 -0.1737 -1.0320 -1.3492
  717MOL0     H96763   4.744   7.576   5.392 -0.6586 -0.3950 -0.3275
  717MOL0     H96764   4.618   7.634   5.287 -0.5168  1.0916 -1.0842
  717MOL0     H96765   4.897   7.768   5.281 -0.1343  1.0124 -0.2282
  717MOL0     H96766   4.752   7.814   5.194 -0.8125 -0.6122  0.0253
  717MOL0     H96767   4.924   7.710   5.056 -0.2822 -1.3296 -0.6076
  717MOL0     H96768   4.760   7.654   5.036 -1.2010  2.1112  1.0653
  717MOL0     H96769   4.819   7.458   5.198 -0.5153  0.9827 -0.4125
  717MOL0     H96770   4.853   7.457   5.030  0.2297 -1.5275  1.3066
  717MOL0     H96771   5.045   7.527   5.264 -2.1601 -2.1557  2.0656
  717MOL0     H96772   5.084   7.538   5.090 -0.3646  1.1004 -0.4609
  717MOL0     H96773   4.981   7.298   5.253  0.8429 -2.2922 -0.5544
  717MOL0     H96774   5.019   7.288   5.081 -2.2418 -1.1405  0.1582
  717MOL0     H96775   4.397   7.773   5.266  2.9280  1.7719  0.5801
  717MOL0     H96776   4.156   7.750   5.200  1.0697 -2.4950  0.4565
  717MOL0     H96777   3.779   7.755   5.145 -2.5299 -1.2586 -2.2264
  717MOL0     H96778   3.590   7.651   5.067 -0.3746 -4.2302  0.6665
  717MOL0     H96779   1.837   6.907   5.510 -0.4852 -1.2687 -0.6272
  717MOL0     H96780   1.597   6.930   5.474 -0.8341 -0.9295 -0.6839
  717MOL0     H96781   1.160   6.959   5.463 -0.0392 -3.4240 -1.5832
  717MOL0     H96782   0.924   7.034   5.415 -0.3437 -1.9643 -0.4789
  717MOL0     H96783   0.771   6.965   5.291 -1.4302 -0.4549 -0.0061
  717MOL0     H96784   0.832   6.968   5.126  0.3306  0.4586 -0.8883
  717MOL0     H96785   0.577   6.953   5.159 -2.0661  1.2554  0.2720
  717MOL0     H96786   0.641   7.063   5.041 -1.0506 -0.9136 -0.6815
  717MOL0     H96787   0.457   7.159   5.149  0.1123  0.0815 -1.0971
  717MOL0     H96788   0.600   7.247   5.218  1.6279 -0.6740  0.4090
  717MOL0     H96789   0.462   7.014   5.338 -0.6947 -0.0302 -1.2976
  717MOL0     H96790   0.591   7.105   5.426  0.3441  1.5155  0.9485
  717MOL0     H96791   0.270   7.378   5.469 -0.4108 -0.2358 -0.6688
  717MOL0     H96792   1.018   7.245   5.079 -0.0979  0.9261  0.6047
  717MOL0     H96793   1.257   7.307   5.050  0.2207 -0.4983 -1.6856
  717MOL0     H96794   1.393   7.206   5.108 -0.8048 -2.1486  1.5385
  717MOL0     H96795   1.282   7.149   4.986 -0.3828 -0.0431 -0.2429
  718MOL0     O96796   6.969   8.479   4.404 -0.0414 -0.0550 -0.6631
  718MOL0     C96797   6.935   8.449   4.523  0.1206 -0.3475  0.7719
  718MOL0     O96798   7.026   8.422   4.618 -0.1700 -0.8084 -0.7362
  718MOL0     C96799   7.158   8.438   4.584 -0.0754 -0.2572 -0.1829
  718MOL0     C96800   7.220   8.340   4.502  0.5661 -0.1351  0.1679
  718MOL0     C96801   7.347   8.357   4.451  0.1537 -0.3701  0.4917
  718MOL0     C96802   7.427   8.461   4.496  0.5986 -0.1788  0.8432
  718MOL0     O96803   7.551   8.484   4.455 -0.3412  0.7948  0.3771
  718MOL0     C96804   7.628   8.368   4.433  0.0598  0.3284 -0.4161
  718MOL0     C96805   7.775   8.408   4.441  0.7067  0.2791 -0.2508
  718MOL0     C96806   7.822   8.447   4.302 -0.0151 -0.4379 -0.1729
  718MOL0     C96807   7.973   8.488   4.303 -0.1540  0.1807  0.1460
  718MOL0     C96808   8.037   8.520   4.157  0.1743 -0.0890 -0.3531
  718MOL0     C96809   8.185   8.559   4.171  0.1846 -0.8753 -0.2445
  718MOL0     C96810   8.282   8.452   4.206  0.0974  0.2241  0.4612
  718MOL0     C96811   8.415   8.514   4.236 -0.4457 -0.5969  0.0351
  718MOL0     N96812   8.493   8.562   4.120 -0.0884  0.1601  0.4003
  718MOL0     C96813   8.560   8.682   4.112 -1.0631 -0.7040  0.0506
  718MOL0     C96814   8.650   8.667   4.014 -0.0313  0.3916 -0.4188
  718MOL0     C96815   8.737   8.779   3.963 -0.2771  0.0047  0.0530
  718MOL0     C96816   8.706   8.808   3.803 -0.1199  0.7183 -1.1352
  718MOL0     C96817   8.798   8.732   3.717 -1.0811  0.0369 -0.7100
  718MOL0     C96818   8.929   8.804   3.687  0.0549 -0.1703  0.7846
  718MOL0     O96819   8.983   8.868   3.800  0.1216 -0.0730  0.1600
  718MOL0     C96820   9.094   8.959   3.775  0.4093  0.6174 -0.5100
  718MOL0     C96821   9.150   9.001   3.890  0.1281  0.7386 -0.5397
  718MOL0     C96822   9.240   9.106   3.894 -0.0454  0.3409 -0.2671
  718MOL0     C96823   9.285   9.156   3.769  0.4429 -0.0506 -0.6598
  718MOL0     C96824   9.365   9.282   3.757  0.1070  0.0268  0.4857
  718MOL0     O96825   9.397   9.319   3.626 -1.1351  0.7487  0.3711
  718MOL0     C96826   9.500   9.397   3.603 -0.1633  0.2144  0.2614
  718MOL0     C96827   9.564   9.376   3.479 -0.0577  0.0664 -0.2691
  718MOL0     C96828   9.689   9.441   3.452  0.2906  0.2380 -0.2194
  718MOL0     C96829   9.762   9.519   3.543  1.0607 -0.1164 -0.4561
  718MOL0     O96830   9.880   9.582   3.504  0.1836  0.5942  0.0059
  718MOL0     C96831   9.955   9.643   3.607 -0.4180 -0.1170 -0.6960
  718MOL0     C96832  10.071   9.716   3.538 -0.8252  0.4803  0.3773
  718MOL0     C96833  10.169   9.604   3.493 -0.5854  0.0152  0.9054
  718MOL0     C96834  10.301   9.670   3.438  0.1704  0.2395  0.7161
  718MOL0     C96835  10.400   9.676   3.557 -0.5071  0.1714 -0.1759
  718MOL0     C96836  10.552   9.720   3.514  0.3668  0.7168 -0.2635
  718MOL0     C96837  10.655   9.610   3.511 -0.0595 -0.0056 -0.3842
  718MOL0     C96838  10.779   9.648   3.432  0.4817  0.8987  0.0990
  718MOL0    Cl96839  10.862   9.490   3.402  0.1975 -0.0723  0.3306
  718MOL0     C96840   9.691   9.548   3.655  0.3968  0.1302  0.3651
  718MOL0     C96841   9.569   9.490   3.686 -0.1534 -0.4625  0.3241
  718MOL0     O96842   9.397   9.337   3.859 -0.0355 -0.1915 -0.1390
  718MOL0     C96843   9.234   9.094   3.650 -0.1930 -1.0130 -0.5854
  718MOL0     C96844   9.135   9.003   3.655  0.5225 -0.7587  0.7467
  718MOL0     N96845   8.625   8.538   3.951 -0.5918 -1.3662 -1.0444
  718MOL0     N96846   8.545   8.479   4.029  0.7337 -0.8088 -0.7941
  718MOL0     C96847   7.373   8.554   4.585  0.2287 -0.1480  0.0734
  718MOL0     C96848   7.235   8.551   4.621  0.7529 -0.4270 -1.0269
  718MOL0     C96849   6.794   8.424   4.551  0.6938  0.0270 -0.4764
  718MOL0     C96850   6.695   8.438   4.445  0.7188  0.1917 -0.2136
  718MOL0     C96851   6.558   8.444   4.476  0.6094  0.5653 -0.1412
  718MOL0     C96852   6.513   8.407   4.603  0.2272  0.5909 -0.6712
  718MOL0     O96853   6.378   8.412   4.634  0.3592 -0.0654 -0.8728
  718MOL0     C96854   6.344   8.485   4.749  0.1615 -0.1900  0.8666
  718MOL0     C96855   6.226   8.572   4.726 -0.1910 -0.2356  0.0050
  718MOL0     C96856   6.102   8.486   4.688  0.1771 -0.2317 -0.8782
  718MOL0     C96857   5.971   8.560   4.707  0.0707 -0.7986  0.1737
  718MOL0     C96858   5.949   8.658   4.602  0.4626 -1.0218  0.2932
  718MOL0     C96859   5.921   8.742   4.518 -0.7924  0.3960  0.0018
  718MOL0     C96860   6.606   8.373   4.702 -0.8068  0.9267 -0.6424
  718MOL0     C96861   6.740   8.388   4.675 -0.1950 -0.5161 -0.7915
  718MOL0     C96862   6.829   8.342   4.791 -0.7798 -0.2866 -0.0392
  718MOL0     H96863   7.149   8.277   4.450  0.4007  1.5789 -1.8490
  718MOL0     H96864   7.383   8.304   4.363  0.4418 -0.0875  0.4366
  718MOL0     H96865   7.602   8.295   4.511  2.1314 -0.3279 -0.2894
  718MOL0     H96866   7.609   8.323   4.335 -0.7497  1.1228 -0.6327
  718MOL0     H96867   7.833   8.321   4.474  1.6145  0.6094 -0.9320
  718MOL0     H96868   7.775   8.488   4.515 -0.0926 -0.0833  0.1451
  718MOL0     H96869   7.780   8.543   4.269  2.0882  0.9961  1.0069
  718MOL0     H96870   7.791   8.372   4.229  0.9396  1.2336 -2.4505
  718MOL0     H96871   7.975   8.580   4.363  2.8877  0.6040 -0.4513
  718MOL0     H96872   8.042   8.420   4.354  0.7070  3.7273  4.2765
  718MOL0     H96873   8.028   8.433   4.091 -0.9392  0.2729 -0.6935
  718MOL0     H96874   7.972   8.591   4.104  0.5431 -1.1827 -2.3801
  718MOL0     H96875   8.212   8.597   4.073 -1.1173 -0.4644 -0.4630
  718MOL0     H96876   8.191   8.643   4.241  0.2999 -1.9341  1.0742
  718MOL0     H96877   8.291   8.385   4.120 -2.2416  0.5921 -0.1514
  718MOL0     H96878   8.256   8.399   4.298  1.1216 -0.0334  0.6063
  718MOL0     H96879   8.411   8.592   4.312  1.0811  2.5899 -2.8849
  718MOL0     H96880   8.484   8.447   4.288 -0.8455 -0.5853  0.5834
  718MOL0     H96881   8.534   8.775   4.161 -2.0080 -0.5661 -0.6754
  718MOL0     H96882   8.727   8.869   4.024  2.2440 -0.2366  0.9050
  718MOL0     H96883   8.842   8.761   3.987 -0.6932  1.2311  3.2377
  718MOL0     H96884   8.606   8.767   3.788  0.7753 -3.1665  1.9113
  718MOL0     H96885   8.715   8.912   3.769 -1.2357  0.5154 -2.0894
  718MOL0     H96886   8.760   8.702   3.619  3.5921 -3.4524 -1.8207
  718MOL0     H96887   8.830   8.644   3.774 -0.0316  0.5953 -0.4036
  718MOL0     H96888   8.906   8.864   3.599  0.1801  1.8689  2.0906
  718MOL0     H96889   9.003   8.730   3.653  0.5709  0.3719  0.7055
  718MOL0     H96890   9.126   8.955   3.985  3.3151  1.8914  0.9923
  718MOL0     H96891   9.282   9.138   3.989 -0.3244  2.1835 -0.7391
  718MOL0     H96892   9.525   9.305   3.407 -2.0254 -1.2235  1.9328
  718MOL0     H96893   9.742   9.430   3.358  3.2131  0.0861  1.3531
  718MOL0     H96894   9.895   9.723   3.653 -2.1636  0.3229 -3.4428
  718MOL0     H96895   9.991   9.580   3.688 -1.9656  0.9130  0.8615
  718MOL0     H96896  10.041   9.773   3.449 -4.3606 -1.2445  0.2817
  718MOL0     H96897  10.125   9.784   3.605  2.8649 -0.9660 -0.8754
  718MOL0     H96898  10.190   9.541   3.580 -0.9508 -2.3848 -0.6210
  718MOL0     H96899  10.130   9.528   3.424  0.6378 -2.7344  3.0346
  718MOL0     H96900  10.285   9.761   3.381  0.6041 -0.8288 -1.2073
  718MOL0     H96901  10.338   9.597   3.365 -2.3641 -0.6975  0.2407
  718MOL0     H96902  10.405   9.579   3.607 -2.2261 -0.7975 -1.7699
  718MOL0     H96903  10.360   9.744   3.633  1.1959 -0.6760  1.5368
  718MOL0     H96904  10.547   9.775   3.419  1.0093  2.3016  0.5709
  718MOL0     H96905  10.587   9.790   3.591  1.4788 -0.5789  0.4427
  718MOL0     H96906  10.615   9.520   3.463  2.5993 -1.7537  0.4842
  718MOL0     H96907  10.681   9.576   3.612 -0.0107  0.6067 -0.1861
  718MOL0     H96908  10.759   9.702   3.340 -0.5002  2.1829  1.0297
  718MOL0     H96909  10.842   9.709   3.498 -0.9321  1.7144  0.7281
  718MOL0     H96910   9.744   9.607   3.729  2.4599 -4.1198  2.7179
  718MOL0     H96911   9.528   9.525   3.780  0.1544 -1.3580  0.8045
  718MOL0     H96912   9.261   9.135   3.553  0.5701  1.5068  0.6027
  718MOL0     H96913   9.102   8.977   3.555  1.5338 -2.0612  0.7247
  718MOL0     H96914   7.433   8.639   4.616 -1.1731  1.1519 -0.6489
  718MOL0     H96915   7.191   8.632   4.677 -3.4448 -2.0265 -1.6267
  718MOL0     H96916   6.729   8.451   4.343  2.6825 -0.3947  0.3325
  718MOL0     H96917   6.477   8.470   4.408  0.5969  0.2634 -0.2463
  718MOL0     H96918   6.425   8.552   4.777  0.5104 -1.0747  2.1010
  718MOL0     H96919   6.322   8.417   4.832 -0.9354 -2.2179 -0.9718
  718MOL0     H96920   6.241   8.641   4.643 -2.2527 -0.9734 -1.0415
  718MOL0     H96921   6.215   8.625   4.821  3.4173  2.4963 -0.8811
  718MOL0     H96922   6.092   8.403   4.759 -1.6958  1.4378  0.9537
  718MOL0     H96923   6.106   8.457   4.582  0.9517  0.1311 -0.9608
  718MOL0     H96924   5.885   8.493   4.710 -1.5301  1.2137  1.6988
  718MOL0     H96925   5.965   8.613   4.802 -2.5727  0.6222 -0.6908
  718MOL0     H96926   5.913   8.809   4.435  0.0796  1.6525  0.8960
  718MOL0     H96927   6.570   8.345   4.801 -0.1549 -0.0593 -0.6733
  718MOL0     H96928   6.892   8.256   4.767  1.0591  1.1496 -0.5983
  718MOL0     H96929   6.889   8.431   4.815 -0.3484 -0.3380 -0.8781
  718MOL0     H96930   6.774   8.319   4.882 -1.3638  0.3607 -0.2161
  719MOL0     O96931   8.849   4.805   0.524 -0.7800  0.2818  0.0792
  719MOL0     C96932   8.738   4.816   0.483 -0.5181  0.8188  0.4128
  719MOL0     O96933   8.698   4.930   0.411  0.7124 -0.0801  0.1922
  719MOL0     C96934   8.773   5.047   0.398  1.1451  0.1823 -0.4518
  719MOL0     C96935   8.914   5.064   0.405 -0.5792  0.4504  0.1205
  719MOL0     C96936   8.971   5.187   0.384 -0.3843  0.3740  0.3638
  719MOL0     C96937   8.893   5.300   0.349 -1.4583  0.5679 -0.2443
  719MOL0     O96938   8.945   5.420   0.350 -0.5154 -0.8877 -0.2398
  719MOL0     C96939   9.072   5.441   0.414 -0.1438 -0.2826  0.0627
  719MOL0     C96940   9.074   5.593   0.443  0.3968 -0.4040 -0.1645
  719MOL0     C96941   9.184   5.641   0.535  0.6542  0.0336 -0.3190
  719MOL0     C96942   9.325   5.587   0.489  0.0773 -0.0108  1.2858
  719MOL0     C96943   9.441   5.651   0.570  0.0674  0.3152  0.0327
  719MOL0     C96944   9.411   5.667   0.719 -0.6590  0.2924 -0.4934
  719MOL0     C96945   9.539   5.674   0.807 -1.1476 -0.3024  0.2449
  719MOL0     C96946   9.617   5.802   0.783  0.4569  0.7376  0.3083
  719MOL0     N96947   9.740   5.813   0.857  0.1394  0.4972  0.5102
  719MOL0     C96948   9.849   5.724   0.858 -0.1601  0.1664  0.9050
  719MOL0     C96949   9.929   5.773   0.958  0.8128 -0.8299  0.8527
  719MOL0     C96950  10.067   5.721   0.978 -0.1296 -0.1903  0.4129
  719MOL0     C96951  10.163   5.708   0.860  0.7779  1.0881 -0.1262
  719MOL0     C96952  10.187   5.828   0.780  0.2226 -0.4814  0.4061
  719MOL0     C96953  10.262   5.938   0.860  0.4950 -0.4182  0.0592
  719MOL0     O96954  10.334   6.033   0.770 -0.1486 -0.3340  0.5150
  719MOL0     C96955  10.454   5.996   0.704 -0.5631 -0.1953  0.3673
  719MOL0     C96956  10.503   6.098   0.621 -0.0016  0.1624  0.4950
  719MOL0     C96957  10.627   6.076   0.564  0.0581  0.4735  0.3729
  719MOL0     C96958  10.690   5.954   0.562 -0.4060  0.7179 -0.2363
  719MOL0     C96959  10.821   5.937   0.493 -0.3917 -0.3246  0.0294
  719MOL0     O96960  10.852   6.026   0.390  0.7157 -0.5766  0.6675
  719MOL0     C96961  10.975   5.999   0.319  0.6025  0.1437  0.1252
  719MOL0     C96962  10.988   5.974   0.181 -0.4865 -0.5146  0.2411
  719MOL0     C96963  11.118   5.962   0.116  0.7508 -0.1059 -0.2136
  719MOL0     C96964  11.227   5.955   0.196  0.9057  0.2693  0.6818
  719MOL0     O96965  11.339   5.924   0.141 -0.5226 -0.2585  0.3317
  719MOL0     C96966  11.440   6.027   0.151  0.0028 -0.4895 -0.5224
  719MOL0     C96967  11.529   6.005   0.019 -0.0652  0.3752  0.4220
  719MOL0     C96968  11.470   6.087  -0.095  0.4847 -0.0909 -1.1916
  719MOL0     C96969  11.560   6.086  -0.217  0.0093 -0.0547 -0.0441
  719MOL0     C96970  11.498   6.153  -0.340 -0.5635 -0.7788 -0.2159
  719MOL0     C96971  11.564   6.121  -0.473 -0.2823  0.0041  0.2231
  719MOL0     C96972  11.713   6.145  -0.465  0.2608  0.5845 -0.5471
  719MOL0     C96973  11.768   6.145  -0.600  0.6176 -0.7746 -0.2213
  719MOL0    Cl96974  11.952   6.173  -0.581 -0.5845  0.0146  0.3072
  719MOL0     C96975  11.218   5.977   0.335 -0.0402  0.3397  0.1119
  719MOL0     C96976  11.090   6.005   0.388 -0.4971  0.2622 -1.1398
  719MOL0     O96977  10.895   5.844   0.528  0.4372 -0.0011 -0.2072
  719MOL0     C96978  10.637   5.849   0.634  0.0080 -0.2828 -0.0175
  719MOL0     C96979  10.517   5.870   0.702 -0.2857  0.5105 -0.0751
  719MOL0     N96980   9.862   5.888   1.013 -1.0238  0.8395 -0.1299
  719MOL0     N96981   9.750   5.906   0.949 -1.2119  0.1894 -0.1648
  719MOL0     C96982   8.753   5.275   0.340 -0.1345 -0.0928  0.3328
  719MOL0     C96983   8.690   5.152   0.358  0.4022 -2.1419  0.4534
  719MOL0     C96984   8.634   4.720   0.529  0.3427  0.5728 -0.5733
  719MOL0     C96985   8.637   4.664   0.666  0.7466 -0.1253  0.0875
  719MOL0     C96986   8.535   4.594   0.731 -0.4740 -0.1007  0.1055
  719MOL0     C96987   8.421   4.563   0.665  1.1720 -0.4378 -0.4640
  719MOL0     O96988   8.312   4.499   0.733 -0.3275 -0.0967 -1.0541
  719MOL0     C96989   8.248   4.390   0.670 -0.2084 -0.7184  0.9868
  719MOL0     C96990   8.141   4.329   0.752  0.5595  0.0094  0.3591
  719MOL0     C96991   8.193   4.300   0.894 -0.1792 -0.6751 -0.1219
  719MOL0     C96992   8.298   4.193   0.901 -0.1414 -0.2637  0.2881
  719MOL0     C96993   8.375   4.179   1.019 -0.4182 -0.2993  0.8993
  719MOL0     C96994   8.462   4.144   1.098 -0.3170  0.6942 -0.2649
  719MOL0     C96995   8.414   4.618   0.531 -0.4607  0.2637  0.0829
  719MOL0     C96996   8.513   4.697   0.460 -0.2115  0.9400 -0.4638
  719MOL0     C96997   8.477   4.734   0.324  0.1191 -0.3608 -0.3844
  719MOL0     H96998   8.986   4.987   0.431  0.7455  1.9011  0.9033
  719MOL0     H96999   9.079   5.180   0.391 -0.4521 -0.4412  0.7935
  719MOL0     H97000   9.076   5.393   0.511 -3.0173  0.8964  0.8636
  719MOL0     H97001   9.150   5.414   0.342  2.3587  0.0648  2.4819
  719MOL0     H97002   8.980   5.633   0.482  0.0930 -1.3644  0.1300
  719MOL0     H97003   9.086   5.634   0.343 -0.3690 -2.2738 -1.0801
  719MOL0     H97004   9.174   5.595   0.634 -2.6391 -2.2540 -1.5707
  719MOL0     H97005   9.179   5.749   0.552  1.1346  0.0427 -0.2202
  719MOL0     H97006   9.323   5.478   0.493  0.8281 -0.4393 -3.5586
  719MOL0     H97007   9.338   5.605   0.382 -0.6172  1.5136  1.4209
  719MOL0     H97008   9.521   5.576   0.570  1.7394  1.9930 -1.1177
  719MOL0     H97009   9.464   5.748   0.526  0.5782 -0.4582 -1.4788
  719MOL0     H97010   9.348   5.755   0.734 -0.6377 -0.1655  3.2717
  719MOL0     H97011   9.355   5.579   0.752  0.1312 -0.5522 -1.3121
  719MOL0     H97012   9.605   5.593   0.777 -1.3729 -1.0282  1.6695
  719MOL0     H97013   9.523   5.674   0.915  2.6304  1.2291  0.9609
  719MOL0     H97014   9.651   5.829   0.683 -3.0400  1.4368 -0.8304
  719MOL0     H97015   9.547   5.882   0.807 -1.8722 -1.2457  0.5263
  719MOL0     H97016   9.880   5.642   0.794  4.9998  2.1010  0.3993
  719MOL0     H97017  10.123   5.792   1.041  2.1997  0.0546 -1.7936
  719MOL0     H97018  10.051   5.622   1.021 -2.4665 -0.4853 -0.9652
  719MOL0     H97019  10.257   5.664   0.894 -0.2573 -0.0135  1.5080
  719MOL0     H97020  10.116   5.648   0.781 -1.6564  2.1398  0.4325
  719MOL0     H97021  10.091   5.860   0.739  0.5513  0.1390  0.0993
  719MOL0     H97022  10.249   5.801   0.694  3.4973  1.3062  2.0229
  719MOL0     H97023  10.337   5.885   0.920  1.3183 -1.8254 -2.1031
  719MOL0     H97024  10.194   5.998   0.922  1.3939  1.6703 -0.8944
  719MOL0     H97025  10.455   6.195   0.621  0.8108  0.5717  0.3235
  719MOL0     H97026  10.666   6.163   0.512 -1.2474  2.2265  2.1766
  719MOL0     H97027  10.893   5.957   0.131 -0.3024 -0.2321 -0.2168
  719MOL0     H97028  11.118   5.946   0.009  0.4639  1.1355 -0.4211
  719MOL0     H97029  11.411   6.131   0.164  2.8893  0.2035  1.3185
  719MOL0     H97030  11.503   6.002   0.237  2.6711  0.9841 -1.9106
  719MOL0     H97031  11.630   6.042   0.039 -0.5250  1.8106  0.2109
  719MOL0     H97032  11.529   5.896   0.007  0.6494  0.5141 -1.0199
  719MOL0     H97033  11.368   6.053  -0.118  0.0251  0.2337  0.2741
  719MOL0     H97034  11.468   6.192  -0.066 -1.2517  0.0037 -1.5054
  719MOL0     H97035  11.571   5.980  -0.241 -1.6682 -0.2169 -0.2249
  719MOL0     H97036  11.655   6.138  -0.202  0.4716 -0.6119 -0.9698
  719MOL0     H97037  11.524   6.258  -0.322  2.5255 -1.6416  1.0593
  719MOL0     H97038  11.390   6.148  -0.355 -0.8020 -0.5541  1.2105
  719MOL0     H97039  11.549   6.017  -0.504 -0.8840  1.2090 -4.2263
  719MOL0     H97040  11.506   6.190  -0.534 -1.7673  0.3181  1.9095
  719MOL0     H97041  11.759   6.060  -0.414  0.6268  1.0365 -0.1109
  719MOL0     H97042  11.737   6.239  -0.413  2.6782  0.4871 -1.3707
  719MOL0     H97043  11.752   6.050  -0.653 -1.2412  0.4180 -1.9996
  719MOL0     H97044  11.722   6.231  -0.651  1.7026  0.0342  0.1363
  719MOL0     H97045  11.308   5.970   0.395 -1.4484 -0.9116  2.2250
  719MOL0     H97046  11.085   6.031   0.493  0.2072  1.1122 -1.2973
  719MOL0     H97047  10.685   5.752   0.643 -2.8309 -1.8976 -1.0396
  719MOL0     H97048  10.469   5.786   0.751 -0.4033  1.4833  1.5459
  719MOL0     H97049   8.684   5.356   0.317  0.0971  0.6301  2.0357
  719MOL0     H97050   8.582   5.154   0.350  0.3394 -0.2297  1.0780
  719MOL0     H97051   8.726   4.682   0.725 -0.5801 -0.1968  2.2045
  719MOL0     H97052   8.531   4.562   0.835 -3.3380  0.1855  0.1521
  719MOL0     H97053   8.310   4.306   0.637  3.6621  1.3841  2.2870
  719MOL0     H97054   8.197   4.432   0.583  1.0443 -1.1330  0.0276
  719MOL0     H97055   8.095   4.239   0.712  0.8030 -0.1482  0.4294
  719MOL0     H97056   8.061   4.400   0.774 -0.3943  0.2456 -3.2845
  719MOL0     H97057   8.109   4.272   0.959 -3.1720  1.3002 -2.8393
  719MOL0     H97058   8.246   4.388   0.929  1.4597 -1.9018  0.5818
  719MOL0     H97059   8.247   4.100   0.874 -0.6245 -0.6428  2.3141
  719MOL0     H97060   8.369   4.226   0.825 -0.4730 -0.3684 -0.0727
  719MOL0     H97061   8.523   4.115   1.181 -1.7583 -0.6726  0.3670
  719MOL0     H97062   8.315   4.594   0.493  0.8837  0.7025 -4.1950
  719MOL0     H97063   8.546   4.803   0.274 -1.3021  3.3577  2.3537
  719MOL0     H97064   8.455   4.648   0.259 -1.3480  1.0966 -1.9247
  719MOL0     H97065   8.390   4.799   0.335  1.9805  2.3903 -0.8340
  720MOL0     O97066   7.945   2.045   4.479 -0.2948  0.3611  0.4775
  720MOL0     C97067   7.854   2.066   4.563 -0.1945  0.6634 -0.3195
  720MOL0     O97068   7.859   2.142   4.672 -0.4897 -0.1678 -0.2571
  720MOL0     C97069   7.971   2.209   4.724 -0.8027  0.9644 -0.0743
  720MOL0     C97070   8.024   2.159   4.842 -0.3279  0.0480  0.6174
  720MOL0     C97071   8.127   2.233   4.901  0.1290 -1.0520 -0.3091
  720MOL0     C97072   8.173   2.356   4.846  0.3776 -0.4631  0.7333
  720MOL0     O97073   8.267   2.427   4.926 -0.2782 -0.0644 -0.2425
  720MOL0     C97074   8.304   2.558   4.875  0.5024 -0.5369 -0.4712
  720MOL0     C97075   8.380   2.637   4.973  0.0606  0.4890  0.3459
  720MOL0     C97076   8.524   2.602   4.984 -0.9342  0.6924  0.7808
  720MOL0     C97077   8.585   2.692   5.089  0.2504  0.7075 -0.2146
  720MOL0     C97078   8.720   2.640   5.125 -1.2206 -0.0817  0.0219
  720MOL0     C97079   8.779   2.732   5.231  0.4711 -0.6585 -0.5201
  720MOL0     C97080   8.924   2.701   5.271  0.7674 -0.6205  0.1342
  720MOL0     C97081   8.941   2.568   5.342 -0.2798  0.2572 -0.7007
  720MOL0     N97082   9.081   2.561   5.388  0.5070 -0.0803 -0.0378
  720MOL0     C97083   9.138   2.554   5.515 -0.2913 -0.5491  0.2895
  720MOL0     C97084   9.267   2.525   5.495  0.3139  0.8321  0.1109
  720MOL0     C97085   9.369   2.495   5.602 -0.1605 -0.2563  0.0694
  720MOL0     C97086   9.505   2.459   5.555 -0.5407  0.0594  0.2173
  720MOL0     C97087   9.585   2.438   5.680  0.1123  0.2894 -0.3355
  720MOL0     C97088   9.729   2.427   5.627 -0.3561  0.0403  0.0354
  720MOL0     O97089   9.820   2.462   5.729 -0.2171 -0.4185  0.7525
  720MOL0     C97090   9.950   2.495   5.690  0.3652 -0.1531 -0.1671
  720MOL0     C97091  10.024   2.561   5.787  0.4679 -0.1001  0.0677
  720MOL0     C97092  10.158   2.593   5.765 -0.0264 -0.6116  0.1730
  720MOL0     C97093  10.220   2.551   5.648  0.8650 -0.8527 -0.5470
  720MOL0     C97094  10.368   2.554   5.627  0.6908 -0.0918  0.3859
  720MOL0     O97095  10.420   2.487   5.515 -0.7042  0.1155  1.3786
  720MOL0     C97096  10.547   2.507   5.472  1.5097  0.3696  0.0644
  720MOL0     C97097  10.606   2.388   5.438 -0.1715  0.3920 -0.0031
  720MOL0     C97098  10.746   2.387   5.437  1.0475 -0.0724 -0.0982
  720MOL0     C97099  10.825   2.501   5.445 -1.4015  0.3934 -0.1032
  720MOL0     O97100  10.964   2.489   5.434 -0.1645 -0.7443 -0.3602
  720MOL0     C97101  11.042   2.490   5.552 -0.3801  0.2678  0.8112
  720MOL0     C97102  11.144   2.379   5.550  0.0957 -0.1320 -0.6183
  720MOL0     C97103  11.264   2.431   5.622  0.3270 -0.3795  0.3288
  720MOL0     C97104  11.374   2.327   5.646  0.7518 -0.4946 -0.0286
  720MOL0     C97105  11.504   2.399   5.683  0.3912  0.3775  0.0086
  720MOL0     C97106  11.624   2.311   5.705 -0.4662 -0.0613  0.8277
  720MOL0     C97107  11.745   2.395   5.750 -0.4171  0.0038  0.0970
  720MOL0     C97108  11.878   2.316   5.738 -0.2391  0.2260  0.6407
  720MOL0    Cl97109  11.941   2.270   5.573  0.5172  0.1168  0.0535
  720MOL0     C97110  10.759   2.621   5.482  0.1925  0.4771  0.5063
  720MOL0     C97111  10.619   2.622   5.494  0.5343  0.2612  0.5700
  720MOL0     O97112  10.434   2.612   5.714  0.1154  0.1625 -0.6900
  720MOL0     C97113  10.139   2.494   5.547 -0.0944 -0.0088 -0.4117
  720MOL0     C97114  10.006   2.468   5.565 -0.2660 -0.4902 -0.3293
  720MOL0     N97115   9.287   2.522   5.363 -0.5656 -0.9851  0.5529
  720MOL0     N97116   9.191   2.561   5.304  0.8745  0.8546 -0.2465
  720MOL0     C97117   8.126   2.398   4.723 -0.4728 -0.0645 -0.1786
  720MOL0     C97118   8.020   2.331   4.659 -0.1432  1.2663  0.7979
  720MOL0     C97119   7.715   2.010   4.523  0.1777  0.4558 -0.4313
  720MOL0     C97120   7.602   2.069   4.589  0.6672 -0.2599  0.2734
  720MOL0     C97121   7.469   2.039   4.551  0.9022 -0.4753 -0.4991
  720MOL0     C97122   7.447   1.935   4.457 -0.6959  0.8725 -0.0901
  720MOL0     O97123   7.319   1.886   4.436  0.1492  0.1731  0.4733
  720MOL0     C97124   7.286   1.788   4.528 -0.0472  0.3918  0.2702
  720MOL0     C97125   7.141   1.748   4.521 -0.4548  0.2585  0.5719
  720MOL0     C97126   7.098   1.645   4.628 -0.0587 -0.0640  0.0831
  720MOL0     C97127   6.955   1.595   4.614 -0.4591 -0.8813 -0.1559
  720MOL0     C97128   6.928   1.526   4.492 -0.5504 -0.7593  0.1054
  720MOL0     C97129   6.900   1.477   4.381  0.0809 -0.0203 -0.1842
  720MOL0     C97130   7.560   1.872   4.399  0.2505 -0.0990  1.0588
  720MOL0     C97131   7.693   1.914   4.422  0.0135  0.3055  0.5898
  720MOL0     C97132   7.802   1.817   4.369 -0.2330  0.5505  0.5424
  720MOL0     H97133   7.977   2.063   4.864  1.0662 -1.2174 -1.5245
  720MOL0     H97134   8.178   2.200   4.991 -1.2137  1.8422  1.6728
  720MOL0     H97135   8.343   2.559   4.773 -0.2705  2.2561 -0.8193
  720MOL0     H97136   8.212   2.617   4.868  1.5686  1.3414  0.4688
  720MOL0     H97137   8.332   2.618   5.070  2.8111 -0.9194  1.5576
  720MOL0     H97138   8.383   2.745   4.959 -0.4992  0.8539  2.5354
  720MOL0     H97139   8.590   2.610   4.897  2.0187  0.0813  2.7846
  720MOL0     H97140   8.527   2.496   5.012 -0.6923  0.0113 -1.6365
  720MOL0     H97141   8.598   2.790   5.044  1.8102  0.5775 -0.1164
  720MOL0     H97142   8.529   2.685   5.183 -0.1490  0.2054 -0.4860
  720MOL0     H97143   8.720   2.535   5.157  0.4800  0.1898  1.0172
  720MOL0     H97144   8.788   2.637   5.040 -0.8550 -0.0177  0.3069
  720MOL0     H97145   8.778   2.830   5.182 -0.2489 -1.0654 -1.3458
  720MOL0     H97146   8.718   2.738   5.322 -1.4832 -1.0788 -1.7629
  720MOL0     H97147   8.965   2.782   5.332  1.1670 -0.0571 -0.8482
  720MOL0     H97148   8.983   2.702   5.179  0.1161  0.0031 -0.2900
  720MOL0     H97149   8.876   2.560   5.429  1.4246  0.4011  0.6485
  720MOL0     H97150   8.922   2.479   5.281  1.7297 -2.8178  2.6808
  720MOL0     H97151   9.098   2.577   5.613  4.0194 -0.9674  2.3517
  720MOL0     H97152   9.373   2.578   5.673  0.1345 -1.8685  2.0153
  720MOL0     H97153   9.330   2.415   5.666 -1.0831  1.0050  1.1520
  720MOL0     H97154   9.502   2.369   5.493 -1.4863  0.6385 -0.6357
  720MOL0     H97155   9.547   2.540   5.494  1.1606 -2.0881 -1.6281
  720MOL0     H97156   9.551   2.354   5.740  0.8918 -0.2131 -0.5757
  720MOL0     H97157   9.585   2.523   5.749 -0.9649  0.9218 -1.0796
  720MOL0     H97158   9.738   2.495   5.542 -1.8314 -0.1475 -0.2973
  720MOL0     H97159   9.757   2.331   5.584  0.1897  0.0353  0.3884
  720MOL0     H97160   9.995   2.594   5.886  1.0111  0.7052 -0.0333
  720MOL0     H97161  10.228   2.637   5.835  0.7131 -3.2159  1.1552
  720MOL0     H97162  10.536   2.304   5.431 -1.1032  1.1523 -0.0076
  720MOL0     H97163  10.781   2.285   5.423 -1.3996 -1.2592  1.6968
  720MOL0     H97164  11.088   2.589   5.558  0.5451 -0.1912  1.6784
  720MOL0     H97165  10.983   2.482   5.644 -0.4377  0.4607  0.7911
  720MOL0     H97166  11.119   2.293   5.613 -0.0457  0.0060 -0.4867
  720MOL0     H97167  11.168   2.352   5.446  3.0615  0.6816 -0.2477
  720MOL0     H97168  11.306   2.519   5.573 -3.1543  0.9969 -0.4845
  720MOL0     H97169  11.224   2.473   5.715 -2.1196 -2.7166  0.4446
  720MOL0     H97170  11.390   2.277   5.550 -0.6900  2.1845 -1.8235
  720MOL0     H97171  11.338   2.266   5.728 -3.8756  2.1297  0.2717
  720MOL0     H97172  11.493   2.460   5.772  1.2061  2.5783 -1.3163
  720MOL0     H97173  11.526   2.465   5.598 -1.9825  1.4762  0.1748
  720MOL0     H97174  11.617   2.238   5.787 -2.9993  0.3332  1.0513
  720MOL0     H97175  11.658   2.265   5.612  3.2178  0.7448  1.5974
  720MOL0     H97176  11.733   2.430   5.853  1.9138 -1.3627  0.9054
  720MOL0     H97177  11.753   2.488   5.693  2.5668  0.7147  1.4905
  720MOL0     H97178  11.963   2.373   5.776  2.7301 -1.6900 -2.5486
  720MOL0     H97179  11.855   2.224   5.791 -0.2924 -1.4375 -2.0804
  720MOL0     H97180  10.816   2.712   5.471  0.1072  0.4233 -0.4965
  720MOL0     H97181  10.560   2.709   5.522 -1.1183 -1.1797  1.7893
  720MOL0     H97182  10.185   2.453   5.457  0.9532 -1.5380  0.7489
  720MOL0     H97183   9.954   2.415   5.485  2.5743 -2.1651 -1.2315
  720MOL0     H97184   8.157   2.485   4.666  1.0222 -0.2373  0.3409
  720MOL0     H97185   7.983   2.362   4.562 -0.3600  3.6500  1.5525
  720MOL0     H97186   7.604   2.147   4.664 -0.7461  0.6496 -0.5833
  720MOL0     H97187   7.391   2.093   4.603  1.9596  0.4887  0.1233
  720MOL0     H97188   7.306   1.828   4.628  0.9852  0.6055 -0.0047
  720MOL0     H97189   7.341   1.696   4.507 -0.9843 -0.0170 -0.4370
  720MOL0     H97190   7.110   1.705   4.425 -3.7524  1.7120  0.8218
  720MOL0     H97191   7.081   1.839   4.523  0.0920  0.6214  0.6284
  720MOL0     H97192   7.113   1.681   4.730  1.0601  0.9271 -0.4098
  720MOL0     H97193   7.157   1.553   4.619  3.0498  1.9843 -2.5209
  720MOL0     H97194   6.926   1.533   4.699  1.1022  1.6329  2.3702
  720MOL0     H97195   6.903   1.689   4.633  0.8720 -0.3629  1.1653
  720MOL0     H97196   6.883   1.439   4.283  1.9110 -0.8913 -0.1945
  720MOL0     H97197   7.541   1.776   4.352 -2.0479  0.1204  1.4429
  720MOL0     H97198   7.762   1.724   4.328 -0.3146  0.1992  1.3886
  720MOL0     H97199   7.851   1.869   4.287  1.1426 -2.0167 -0.3572
  720MOL0     H97200   7.876   1.791   4.445  1.1169  1.8172 -0.2838
  721MOL0     O97201   2.095   0.003   8.592  0.0594 -0.2338  0.3976
  721MOL0     C97202   2.047   0.091   8.664 -0.3279 -0.6428 -0.3889
  721MOL0     O97203   2.105   0.138   8.780  0.4324  0.0131 -0.0830
  721MOL0     C97204   2.232   0.103   8.812  0.5756  0.1222 -1.1659
  721MOL0     C97205   2.327   0.195   8.782 -0.5960 -0.3668 -0.6497
  721MOL0     C97206   2.464   0.164   8.783 -0.4635  0.0243 -0.2494
  721MOL0     C97207   2.504   0.037   8.820 -0.7029 -0.9152  0.1798
  721MOL0     O97208   2.643   0.006   8.833 -0.1596  0.2521  0.5532
  721MOL0     C97209   2.741   0.082   8.767 -0.7039 -0.8413  0.5032
  721MOL0     C97210   2.894   0.037   8.778  0.6380  0.8322  0.4812
  721MOL0     C97211   2.943   0.045   8.923 -0.1205 -0.3599  0.1633
  721MOL0     C97212   3.093   0.053   8.921 -0.1134  0.2419 -0.0927
  721MOL0     C97213   3.143   0.007   9.055 -0.4424 -0.9327 -0.2340
  721MOL0     C97214   3.282   0.061   9.074 -0.4609 -0.0676 -0.2652
  721MOL0     C97215   3.338   0.063   9.223  0.5595 -0.2285  0.2399
  721MOL0     C97216   3.323  -0.075   9.296 -0.0868  0.6155 -0.2235
  721MOL0     N97217   3.425  -0.110   9.399  0.5964 -0.2263  0.4597
  721MOL0     C97218   3.558  -0.096   9.386 -0.4385  0.0850  0.5207
  721MOL0     C97219   3.609  -0.118   9.512  0.2641 -0.2420  1.2044
  721MOL0     C97220   3.759  -0.105   9.539 -0.2811  0.0575 -0.0964
  721MOL0     C97221   3.832  -0.229   9.531  0.2052 -0.2272  0.3263
  721MOL0     C97222   3.791  -0.332   9.643 -0.8882 -0.0140  1.1079
  721MOL0     C97223   3.863  -0.468   9.626 -0.0426 -0.2188 -0.2918
  721MOL0     O97224   4.008  -0.444   9.606  0.4987 -0.0394 -0.9820
  721MOL0     C97225   4.098  -0.553   9.625  0.3977  0.0038 -0.5821
  721MOL0     C97226   4.053  -0.690   9.607  0.2030 -1.1917  0.1571
  721MOL0     C97227   4.143  -0.793   9.618  0.6936  0.0719  0.8518
  721MOL0     C97228   4.274  -0.772   9.650 -0.2751 -0.1975  0.6231
  721MOL0     C97229   4.373  -0.874   9.679  0.1609  0.4115 -0.6726
  721MOL0     O97230   4.503  -0.840   9.715  0.1490  0.2137 -0.1753
  721MOL0     C97231   4.616  -0.922   9.727  0.8122  0.7779 -0.5471
  721MOL0     C97232   4.616  -1.065   9.716 -0.6083  0.4386 -0.3971
  721MOL0     C97233   4.736  -1.142   9.722  0.2360 -0.0266 -0.3670
  721MOL0     C97234   4.854  -1.083   9.764 -1.0490 -0.4452  0.4095
  721MOL0     O97235   4.965  -1.157   9.808 -0.6243 -0.0807  0.5217
  721MOL0     C97236   4.943  -1.281   9.878 -0.4829  0.2466  0.2212
  721MOL0     C97237   4.844  -1.265  10.007 -0.5419  0.3242  0.4588
  721MOL0     C97238   4.902  -1.172  10.117  0.4376  0.5947 -0.5220
  721MOL0     C97239   5.039  -1.227  10.165  0.3031  0.5636 -0.7811
  721MOL0     C97240   5.086  -1.161  10.293 -0.8287 -0.4318 -0.2089
  721MOL0     C97241   5.234  -1.209  10.329  0.7299 -0.4350  1.1330
  721MOL0     C97242   5.239  -1.197  10.483 -0.1754  0.4934 -0.8617
  721MOL0     C97243   5.381  -1.224  10.531 -0.3024  0.0615 -0.5909
  721MOL0    Cl97244   5.497  -1.092  10.467 -0.1777  0.4874  0.4256
  721MOL0     C97245   4.858  -0.943   9.784 -0.3764  0.6907  0.5739
  721MOL0     C97246   4.743  -0.862   9.757  0.8091  0.2888  0.4983
  721MOL0     O97247   4.343  -0.994   9.664  0.5037  0.3161  0.5697
  721MOL0     C97248   4.321  -0.636   9.664  0.5960  0.4818  0.5837
  721MOL0     C97249   4.232  -0.532   9.654  0.7171  0.3571  1.5091
  721MOL0     N97250   3.499  -0.163   9.589  0.0007  0.4616 -0.6197
  721MOL0     N97251   3.398  -0.160   9.522 -0.6980  0.0097 -0.2094
  721MOL0     C97252   2.405  -0.058   8.847  0.4365 -0.1457  0.6108
  721MOL0     C97253   2.272  -0.021   8.853  1.0380  0.4194 -0.7146
  721MOL0     C97254   1.918   0.144   8.623  0.5218  0.2212  0.4792
  721MOL0     C97255   1.868   0.125   8.492 -0.3624  0.1127 -0.2711
  721MOL0     C97256   1.736   0.155   8.463  0.6249 -0.4145  0.5277
  721MOL0     C97257   1.652   0.214   8.548  0.6819  1.0806 -1.2577
  721MOL0     O97258   1.526   0.269   8.506 -0.2440  0.5835 -0.0976
  721MOL0     C97259   1.431   0.323   8.599 -0.1883  0.1350 -0.1384
  721MOL0     C97260   1.325   0.403   8.523 -0.4355 -0.0360 -0.1341
  721MOL0     C97261   1.266   0.319   8.409 -0.1591  0.3687  0.1332
  721MOL0     C97262   1.185   0.403   8.308 -0.3565 -0.1196 -0.1545
  721MOL0     C97263   1.283   0.473   8.208  0.9288  0.1622 -1.0285
  721MOL0     C97264   1.362   0.538   8.153  0.1354  0.8662 -0.1135
  721MOL0     C97265   1.698   0.218   8.677  0.3419 -0.1546  0.1335
  721MOL0     C97266   1.825   0.186   8.715  1.1379  0.8654  0.7926
  721MOL0     C97267   1.853   0.193   8.865 -0.6169  0.1306 -0.6112
  721MOL0     H97268   2.285   0.286   8.739  0.7495 -0.6734 -2.7778
  721MOL0     H97269   2.535   0.234   8.740 -1.1393 -0.4242 -2.1838
  721MOL0     H97270   2.727   0.072   8.659  0.9128 -2.8001  0.4195
  721MOL0     H97271   2.733   0.189   8.789 -2.1758 -0.9125  0.4060
  721MOL0     H97272   2.948   0.112   8.720 -0.7219  1.9512  0.6124
  721MOL0     H97273   2.911  -0.062   8.735  2.6559  0.6691  1.5238
  721MOL0     H97274   2.904  -0.042   8.976 -0.1506 -0.7659 -0.5155
  721MOL0     H97275   2.907   0.139   8.966  2.7292  1.0396 -0.2868
  721MOL0     H97276   3.132  -0.015   8.845 -1.4232 -0.1607 -0.4389
  721MOL0     H97277   3.122   0.155   8.896  1.6793 -0.4450 -0.9893
  721MOL0     H97278   3.086   0.044   9.140  0.1725  1.6294 -0.8649
  721MOL0     H97279   3.143  -0.102   9.069  0.3542 -0.6449  2.6707
  721MOL0     H97280   3.347  -0.005   9.016 -1.6833 -2.0563  0.5173
  721MOL0     H97281   3.278   0.161   9.031 -2.1301 -0.3451 -0.8282
  721MOL0     H97282   3.297   0.150   9.276  0.2980  0.8187 -1.6130
  721MOL0     H97283   3.446   0.079   9.225  0.8798 -2.1200  2.1212
  721MOL0     H97284   3.225  -0.073   9.345 -1.0436 -0.5380 -1.9947
  721MOL0     H97285   3.331  -0.150   9.217  0.2087 -0.2506  0.5990
  721MOL0     H97286   3.612  -0.067   9.297 -1.9615 -1.0587 -0.8354
  721MOL0     H97287   3.799  -0.032   9.468 -0.0535  0.8710  0.8463
  721MOL0     H97288   3.786  -0.068   9.639  0.9291  1.0351 -0.7509
  721MOL0     H97289   3.824  -0.283   9.436 -2.6866  1.5705 -0.6001
  721MOL0     H97290   3.937  -0.199   9.535 -0.2966  1.6820  0.3479
  721MOL0     H97291   3.686  -0.361   9.645 -1.5035  1.9076 -0.1417
  721MOL0     H97292   3.825  -0.295   9.741 -1.1974 -2.5131  2.2316
  721MOL0     H97293   3.813  -0.529   9.550 -3.1905 -1.7797  2.7781
  721MOL0     H97294   3.848  -0.522   9.720 -0.6312 -0.7746 -0.6971
  721MOL0     H97295   3.953  -0.711   9.570 -0.1729  0.0726  0.3759
  721MOL0     H97296   4.114  -0.894   9.589  0.3090  0.3460  0.2604
  721MOL0     H97297   4.526  -1.124   9.716  0.2222 -0.8757 -0.0838
  721MOL0     H97298   4.717  -1.247   9.700 -0.9273 -0.1673  1.1089
  721MOL0     H97299   4.904  -1.358   9.811 -0.1079  1.4155 -1.3851
  721MOL0     H97300   5.041  -1.311   9.917  0.9907  5.2463  0.9529
  721MOL0     H97301   4.742  -1.232   9.982 -0.1840  1.1994  0.1185
  721MOL0     H97302   4.837  -1.370  10.036  0.0306  0.2648  0.3769
  721MOL0     H97303   4.920  -1.070  10.082  2.4673  0.3137 -0.4420
  721MOL0     H97304   4.828  -1.165  10.197 -1.8370  2.3694 -2.6399
  721MOL0     H97305   5.123  -1.210  10.097  0.5467  2.1315 -0.1455
  721MOL0     H97306   5.027  -1.334  10.180  1.1495  0.5372 -0.2269
  721MOL0     H97307   5.011  -1.186  10.368  0.1191  0.8259  1.2197
  721MOL0     H97308   5.087  -1.054  10.268 -0.7172  0.0438  1.7132
  721MOL0     H97309   5.232  -1.315  10.300 -0.3844 -0.8833  2.7584
  721MOL0     H97310   5.303  -1.145  10.273 -0.6087 -0.9814 -1.3313
  721MOL0     H97311   5.168  -1.270  10.523  1.7796 -1.6832 -1.1345
  721MOL0     H97312   5.212  -1.096  10.516 -0.6045 -0.3827  1.6584
  721MOL0     H97313   5.379  -1.217  10.640  0.9899  1.7461 -0.6273
  721MOL0     H97314   5.415  -1.323  10.499 -0.9255  0.1783 -1.6825
  721MOL0     H97315   4.949  -0.893   9.816  1.2165 -0.2563 -2.0765
  721MOL0     H97316   4.756  -0.755   9.757 -0.7021  0.5047 -0.4971
  721MOL0     H97317   4.423  -0.607   9.686  0.5079  1.5967 -0.4250
  721MOL0     H97318   4.257  -0.428   9.670  0.2798  0.3201  2.4459
  721MOL0     H97319   2.446  -0.153   8.882  4.6622  1.9644  2.0835
  721MOL0     H97320   2.193  -0.092   8.876  1.7517 -0.2078 -0.1546
  721MOL0     H97321   1.929   0.084   8.413 -1.8176  2.4643 -2.8269
  721MOL0     H97322   1.700   0.140   8.362 -1.2433 -1.2466  1.2656
  721MOL0     H97323   1.492   0.388   8.663  0.9402 -0.3319 -0.7090
  721MOL0     H97324   1.385   0.245   8.659  2.5304 -0.5397  1.2287
  721MOL0     H97325   1.375   0.491   8.483 -0.2354  0.0571  0.3205
  721MOL0     H97326   1.250   0.427   8.600 -0.3499  0.2417 -0.1374
  721MOL0     H97327   1.193   0.253   8.457 -0.5198 -0.4937 -1.5462
  721MOL0     H97328   1.340   0.259   8.356  0.2659  2.2193 -1.4858
  721MOL0     H97329   1.121   0.337   8.250  1.8608 -1.8397 -0.7867
  721MOL0     H97330   1.124   0.476   8.362  1.6461 -0.7232  3.2204
  721MOL0     H97331   1.420   0.608   8.096 -2.1994  0.8983 -2.6953
  721MOL0     H97332   1.637   0.245   8.763  3.0821  0.1018  2.1411
  721MOL0     H97333   1.770   0.243   8.916 -1.9367 -0.8667 -1.6957
  721MOL0     H97334   1.857   0.093   8.909 -0.0875 -0.2078 -1.4167
  721MOL0     H97335   1.940   0.255   8.888 -1.3781  1.2223 -0.5774
  722MOL0     O97336   9.034   1.918   3.826  0.6788 -0.7957 -0.4744
  722MOL0     C97337   8.967   1.928   3.938  0.4424 -0.3351  0.8999
  722MOL0     O97338   9.001   2.020   4.034 -0.0784  0.2595 -0.4380
  722MOL0     C97339   9.117   2.090   4.034  0.6394 -0.2729 -0.0054
  722MOL0     C97340   9.206   2.105   4.153  0.4264 -0.9478 -0.6618
  722MOL0     C97341   9.319   2.179   4.157 -0.2844 -0.7237  0.1108
  722MOL0     C97342   9.341   2.262   4.044  0.1254 -0.1890 -0.5192
  722MOL0     O97343   9.436   2.357   4.072 -1.3336  0.0174  0.6751
  722MOL0     C97344   9.520   2.405   3.973 -0.0652  0.4011 -0.1678
  722MOL0     C97345   9.623   2.492   4.041  0.2519  0.1026 -0.2492
  722MOL0     C97346   9.698   2.583   3.947 -0.4041  0.8402  0.0934
  722MOL0     C97347   9.609   2.694   3.887 -0.4758 -0.6448 -0.2555
  722MOL0     C97348   9.707   2.786   3.816  0.4831  0.3888  0.0854
  722MOL0     C97349   9.641   2.905   3.743 -1.6115  0.0017 -0.0453
  722MOL0     C97350   9.768   2.996   3.708 -0.1447 -0.0243 -0.0789
  722MOL0     C97351   9.715   3.113   3.613 -0.6633 -1.2083 -0.1824
  722MOL0     N97352   9.794   3.236   3.612 -0.1443 -0.3474  0.2946
  722MOL0     C97353   9.925   3.244   3.664  0.2086 -0.0689 -0.2421
  722MOL0     C97354   9.955   3.377   3.666  0.0623  0.4583 -0.4141
  722MOL0     C97355  10.078   3.449   3.720  0.1664 -1.2633  1.3390
  722MOL0     C97356  10.065   3.468   3.876 -0.1709  0.3294  0.1493
  722MOL0     C97357  10.195   3.527   3.936 -0.6281  0.0928 -0.4600
  722MOL0     C97358  10.307   3.430   3.970  0.7883 -0.1315  1.2318
  722MOL0     O97359  10.420   3.500   4.018 -0.4084  0.0185 -0.0787
  722MOL0     C97360  10.537   3.435   4.063  0.1446 -0.2827 -0.4438
  722MOL0     C97361  10.646   3.508   4.065  0.0612  0.2257 -1.1174
  722MOL0     C97362  10.766   3.460   4.108 -0.4334 -0.0251 -1.0756
  722MOL0     C97363  10.784   3.332   4.158 -0.3042  1.7064  0.8770
  722MOL0     C97364  10.912   3.291   4.227  1.0746  0.2154 -0.0578
  722MOL0     O97365  11.021   3.368   4.207 -0.5120 -0.1491 -0.0865
  722MOL0     C97366  11.144   3.344   4.271  0.8145 -0.7130 -0.0096
  722MOL0     C97367  11.192   3.217   4.305  0.5227 -0.2480 -0.2167
  722MOL0     C97368  11.316   3.217   4.365  0.2397  0.5069 -0.2038
  722MOL0     C97369  11.393   3.328   4.397 -0.6648 -0.2543 -0.7193
  722MOL0     O97370  11.521   3.304   4.441  0.3773  0.1959  0.0156
  722MOL0     C97371  11.600   3.407   4.498 -0.1098  0.7128 -0.5911
  722MOL0     C97372  11.679   3.347   4.614 -0.4868 -0.1151  0.3635
  722MOL0     C97373  11.795   3.259   4.569  0.3305  0.5710  0.2007
  722MOL0     C97374  11.909   3.339   4.513 -0.6349  0.1846 -0.1620
  722MOL0     C97375  11.994   3.241   4.431  0.2154  0.0546 -0.8739
  722MOL0     C97376  12.147   3.272   4.435  0.1758  0.6367  0.2210
  722MOL0     C97377  12.224   3.198   4.318  0.0641 -0.0260 -0.2424
  722MOL0     C97378  12.372   3.236   4.320 -0.2112  0.4312 -0.3608
  722MOL0    Cl97379  12.472   3.093   4.269  0.3059  0.2725  0.0797
  722MOL0     C97380  11.337   3.459   4.375  0.5159 -0.3421 -0.1761
  722MOL0     C97381  11.216   3.457   4.304 -0.1349 -0.1689  0.1908
  722MOL0     O97382  10.901   3.195   4.304 -0.2803  0.7051 -0.2264
  722MOL0     C97383  10.675   3.242   4.143 -0.1782 -0.6266 -0.4337
  722MOL0     C97384  10.550   3.302   4.103  0.1574  0.1266 -0.1840
  722MOL0     N97385   9.844   3.442   3.621 -0.3082 -0.1744  0.0034
  722MOL0     N97386   9.749   3.360   3.591  0.4653  0.0219 -1.2190
  722MOL0     C97387   9.274   2.244   3.919 -0.0601 -0.7706 -0.0152
  722MOL0     C97388   9.161   2.159   3.915  0.0386  0.0582  0.0106
  722MOL0     C97389   8.844   1.841   3.967 -0.5367  0.8426 -0.7371
  722MOL0     C97390   8.770   1.869   4.081  0.6807  0.4281 -0.5670
  722MOL0     C97391   8.664   1.787   4.129  0.2713  0.1236 -0.8405
  722MOL0     C97392   8.631   1.674   4.060 -0.4800 -0.3709 -0.1764
  722MOL0     O97393   8.560   1.580   4.132  0.0689 -0.9060  0.5082
  722MOL0     C97394   8.469   1.501   4.058 -0.1844  0.4512 -0.3534
  722MOL0     C97395   8.397   1.402   4.159 -0.2771 -0.6617 -0.5779
  722MOL0     C97396   8.324   1.474   4.273  0.3202 -0.8601 -0.5009
  722MOL0     C97397   8.215   1.560   4.212 -0.1899  0.2748 -0.2071
  722MOL0     C97398   8.229   1.705   4.205 -0.7054  0.0717 -0.1010
  722MOL0     C97399   8.268   1.821   4.204  0.3409 -0.5531 -0.0383
  722MOL0     C97400   8.692   1.651   3.935 -0.3804 -0.5364 -0.8391
  722MOL0     C97401   8.800   1.729   3.886  0.0948 -0.8200 -0.0293
  722MOL0     C97402   8.873   1.681   3.762  1.0440  0.1270  0.2020
  722MOL0     H97403   9.172   2.066   4.248  5.1230  1.8042  2.5453
  722MOL0     H97404   9.372   2.208   4.247  2.2280  0.0719 -1.5336
  722MOL0     H97405   9.571   2.316   3.935 -0.8737 -0.5877  0.9832
  722MOL0     H97406   9.470   2.451   3.887 -1.1358 -0.2922  0.0653
  722MOL0     H97407   9.684   2.427   4.104 -0.2830  0.5897  0.8063
  722MOL0     H97408   9.575   2.558   4.115 -1.7706 -2.8818  1.2934
  722MOL0     H97409   9.742   2.521   3.868 -0.2111  2.5484 -1.2018
  722MOL0     H97410   9.782   2.628   4.000 -0.0809  0.3386  0.0188
  722MOL0     H97411   9.541   2.656   3.811  0.3120 -2.2017 -0.1973
  722MOL0     H97412   9.561   2.758   3.963 -0.5572  3.8626 -3.6992
  722MOL0     H97413   9.781   2.833   3.881  0.1266  1.4604 -0.2499
  722MOL0     H97414   9.769   2.727   3.748 -0.2283  0.4694 -0.6522
  722MOL0     H97415   9.589   2.872   3.652  0.2634  1.5140 -1.7746
  722MOL0     H97416   9.577   2.967   3.808 -0.4775 -0.1450  1.2487
  722MOL0     H97417   9.843   2.939   3.653 -2.1910 -3.5947  0.5349
  722MOL0     H97418   9.799   3.040   3.803 -1.4920  0.2619  0.2445
  722MOL0     H97419   9.710   3.072   3.512  0.0503 -0.7581 -0.4099
  722MOL0     H97420   9.611   3.138   3.634 -0.4582  1.7682 -2.0845
  722MOL0     H97421   9.992   3.162   3.689 -0.9848 -1.4257 -1.2856
  722MOL0     H97422  10.171   3.399   3.688 -0.5728 -0.7693 -1.9044
  722MOL0     H97423  10.084   3.554   3.690  0.2884 -1.4801  0.5887
  722MOL0     H97424   9.984   3.537   3.905  0.5437  0.8842  0.9010
  722MOL0     H97425  10.038   3.373   3.922 -2.4947 -0.1838 -2.0839
  722MOL0     H97426  10.174   3.577   4.031  1.6105 -0.9083  0.6402
  722MOL0     H97427  10.231   3.600   3.862 -0.4983 -0.6134 -1.1011
  722MOL0     H97428  10.331   3.364   3.887 -1.9288 -1.0708  1.0982
  722MOL0     H97429  10.256   3.369   4.045 -3.3887  0.7150 -0.6842
  722MOL0     H97430  10.634   3.610   4.030 -0.9757  0.3539 -0.4433
  722MOL0     H97431  10.848   3.532   4.109  0.9777 -1.5817 -0.2014
  722MOL0     H97432  11.147   3.123   4.274 -2.2094  1.1902 -0.9680
  722MOL0     H97433  11.359   3.118   4.353 -1.8170 -0.3980 -0.7155
  722MOL0     H97434  11.665   3.453   4.423  0.1462  1.1572 -0.1060
  722MOL0     H97435  11.538   3.487   4.542  2.0446 -0.0080  4.5369
  722MOL0     H97436  11.718   3.433   4.670  1.3068 -0.1427 -0.7578
  722MOL0     H97437  11.611   3.291   4.679 -2.6615  0.5273 -1.2691
  722MOL0     H97438  11.822   3.204   4.659 -4.0879 -1.3402  0.6181
  722MOL0     H97439  11.767   3.185   4.493  0.2065  0.2502  0.5578
  722MOL0     H97440  11.972   3.377   4.594 -3.1459  0.1738  1.9311
  722MOL0     H97441  11.876   3.429   4.460  1.7479 -0.4063 -2.9377
  722MOL0     H97442  11.943   3.257   4.335 -0.7021 -1.2153 -0.6217
  722MOL0     H97443  11.979   3.134   4.444 -0.6381 -0.2687 -3.7476
  722MOL0     H97444  12.155   3.381   4.427 -0.0953  0.5275 -2.2220
  722MOL0     H97445  12.184   3.231   4.529  0.8220  1.8068  0.4841
  722MOL0     H97446  12.178   3.221   4.221 -1.7114  0.1957  0.6229
  722MOL0     H97447  12.205   3.090   4.325  0.0725  0.0733  1.9813
  722MOL0     H97448  12.394   3.328   4.265 -2.6318  1.8903  0.9107
  722MOL0     H97449  12.389   3.251   4.427  1.6420  1.7355 -0.7998
  722MOL0     H97450  11.389   3.551   4.398 -1.8870  0.0930  4.5992
  722MOL0     H97451  11.172   3.555   4.288  1.1628  0.2136 -1.3147
  722MOL0     H97452  10.663   3.138   4.174 -2.4468 -0.9014 -1.9703
  722MOL0     H97453  10.451   3.258   4.093 -1.6014  3.7561 -0.4655
  722MOL0     H97454   9.319   2.285   3.829  1.7322 -2.7989 -0.1234
  722MOL0     H97455   9.095   2.143   3.831 -0.0354 -1.7687  0.3763
  722MOL0     H97456   8.804   1.948   4.146 -0.8441  1.2168 -0.6871
  722MOL0     H97457   8.619   1.816   4.224 -0.9962 -1.5442 -0.8942
  722MOL0     H97458   8.532   1.437   3.996 -1.0877  1.3590 -2.2996
  722MOL0     H97459   8.398   1.563   4.002  1.1441  1.7843 -0.6264
  722MOL0     H97460   8.463   1.340   4.221 -0.6303  1.2396  1.8710
  722MOL0     H97461   8.334   1.331   4.104  1.0877 -2.1511 -0.3105
  722MOL0     H97462   8.400   1.540   4.316  0.3638 -0.3101 -1.3833
  722MOL0     H97463   8.293   1.391   4.337 -1.8769 -0.0252 -0.3908
  722MOL0     H97464   8.192   1.528   4.110 -1.9584  1.6875 -0.2902
  722MOL0     H97465   8.132   1.538   4.279 -1.9674 -1.8220 -2.8655
  722MOL0     H97466   8.309   1.918   4.184 -0.8076  0.9236  3.7640
  722MOL0     H97467   8.672   1.560   3.881  1.8870 -0.6900 -1.5221
  722MOL0     H97468   8.895   1.768   3.700  3.7195 -0.3227  0.4130
  722MOL0     H97469   8.956   1.612   3.780  0.4225 -1.0618 -1.2303
  722MOL0     H97470   8.796   1.623   3.710  1.6712 -3.4226  2.8684
  723MOL0     O97471   4.204   8.404   4.911  0.1388  0.5583  0.1368
  723MOL0     C97472   4.318   8.413   4.867  0.9183  0.4868 -0.1605
  723MOL0     O97473   4.349   8.500   4.769  0.2511  0.3084 -0.2238
  723MOL0     C97474   4.249   8.579   4.728 -0.0804 -0.4200 -0.1744
  723MOL0     C97475   4.165   8.542   4.620  0.9149  0.0884 -0.0610
  723MOL0     C97476   4.049   8.619   4.579 -0.0637  0.2459  0.3767
  723MOL0     C97477   4.009   8.724   4.663 -0.4457 -0.3949  0.6131
  723MOL0     O97478   3.905   8.806   4.642  0.1796 -0.1204 -0.1257
  723MOL0     C97479   3.852   8.810   4.503  0.6728  0.5862 -0.4019
  723MOL0     C97480   3.785   8.946   4.488  0.2573 -0.5934  0.1512
  723MOL0     C97481   3.679   8.975   4.595  0.4797  0.7172  0.1111
  723MOL0     C97482   3.568   9.076   4.571  0.8183 -0.0674  0.4168
  723MOL0     C97483   3.496   9.138   4.697 -0.6292  0.2458 -0.2084
  723MOL0     C97484   3.444   9.024   4.783  0.9898 -0.2888 -0.7854
  723MOL0     C97485   3.402   9.094   4.911  0.8432 -0.1133  0.0923
  723MOL0     C97486   3.337   9.007   5.011  1.0091  0.0625 -0.7346
  723MOL0     N97487   3.297   9.109   5.109  0.1070 -0.6936  0.5319
  723MOL0     C97488   3.170   9.172   5.114  0.0578  0.4330 -0.9465
  723MOL0     C97489   3.176   9.242   5.233 -0.0544 -0.8420  0.4363
  723MOL0     C97490   3.069   9.306   5.302  0.1518 -0.4274 -0.9670
  723MOL0     C97491   3.028   9.434   5.231  0.8901  0.0400  0.2929
  723MOL0     C97492   3.070   9.561   5.308  0.3550  0.4747 -0.2175
  723MOL0     C97493   3.206   9.616   5.266 -0.2954  0.3345 -0.6966
  723MOL0     O97494   3.216   9.742   5.338 -0.6619 -0.5769  0.1304
  723MOL0     C97495   3.332   9.763   5.408 -0.0835  0.2202 -0.4630
  723MOL0     C97496   3.454   9.773   5.331 -0.8344  0.1360 -0.5785
  723MOL0     C97497   3.580   9.790   5.395 -0.8952  0.2082  0.3742
  723MOL0     C97498   3.586   9.793   5.533  0.5790 -1.1019  0.1114
  723MOL0     C97499   3.718   9.807   5.607 -0.0018 -0.0208  0.7245
  723MOL0     O97500   3.826   9.780   5.527  0.2999 -0.3171  0.1735
  723MOL0     C97501   3.944   9.785   5.590 -0.7689 -0.3404  0.0424
  723MOL0     C97502   4.022   9.669   5.562  0.4971  0.2130 -0.0673
  723MOL0     C97503   4.158   9.659   5.600 -0.8788  0.4359 -0.3489
  723MOL0     C97504   4.219   9.770   5.666  0.4793 -0.2344 -0.4285
  723MOL0     O97505   4.343   9.752   5.719 -0.5512 -0.4698 -0.2420
  723MOL0     C97506   4.418   9.871   5.740 -0.1643  0.3751 -0.0573
  723MOL0     C97507   4.568   9.846   5.736 -0.2999 -0.3444  0.3805
  723MOL0     C97508   4.617   9.783   5.867  1.0326  0.1338 -0.0980
  723MOL0     C97509   4.759   9.733   5.845  0.1303 -0.3521 -0.6893
  723MOL0     C97510   4.809   9.659   5.977 -0.1665  0.9167 -0.6844
  723MOL0     C97511   4.864   9.771   6.074 -0.3009 -0.2178  1.0749
  723MOL0     C97512   4.940   9.728   6.200 -0.4932  0.1579 -0.0080
  723MOL0     C97513   4.987   9.850   6.286  0.3996  0.5632  0.1240
  723MOL0    Cl97514   5.125   9.919   6.197  0.0313  0.5295  0.1915
  723MOL0     C97515   4.146   9.886   5.684  0.0772  0.2832  0.0457
  723MOL0     C97516   4.013   9.893   5.644  0.2113 -0.3127  0.7541
  723MOL0     O97517   3.715   9.835   5.724 -0.4383 -0.4888  0.4886
  723MOL0     C97518   3.468   9.781   5.605  0.8646  0.1385  0.0239
  723MOL0     C97519   3.344   9.774   5.542 -0.2018  1.2022 -0.0158
  723MOL0     N97520   3.304   9.215   5.292 -0.7656 -0.0565  0.5230
  723MOL0     N97521   3.376   9.141   5.218  0.1401  0.4345 -0.0235
  723MOL0     C97522   4.082   8.754   4.779 -0.3333  0.4530 -0.5878
  723MOL0     C97523   4.202   8.680   4.816 -0.6862 -0.7542  0.6928
  723MOL0     C97524   4.415   8.310   4.913 -0.9790 -0.0108  0.0657
  723MOL0     C97525   4.525   8.294   4.822  0.2291 -0.1253  0.2120
  723MOL0     C97526   4.629   8.208   4.860 -0.2255 -0.6262  0.5494
  723MOL0     C97527   4.621   8.126   4.970 -0.3292  0.0488  0.8678
  723MOL0     O97528   4.717   8.036   5.012  0.1229  0.1017 -0.4059
  723MOL0     C97529   4.841   8.011   4.952  0.5580 -0.1890  0.0749
  723MOL0     C97530   4.819   7.909   4.833 -0.2805  0.0879  0.2862
  723MOL0     C97531   4.946   7.870   4.756 -1.1041  0.0487  0.4315
  723MOL0     C97532   5.053   7.977   4.716 -0.4188  0.2610  0.3841
  723MOL0     C97533   4.988   8.089   4.653 -0.6876 -0.1786  0.2980
  723MOL0     C97534   4.959   8.190   4.599 -0.2704  0.4866 -0.6634
  723MOL0     C97535   4.505   8.128   5.038 -0.8131  0.1180  0.5515
  723MOL0     C97536   4.402   8.218   5.024 -0.1304  0.6131 -0.1620
  723MOL0     C97537   4.287   8.212   5.126 -0.3482 -0.2098  0.5568
  723MOL0     H97538   4.184   8.457   4.555 -1.1993 -0.5430  0.0705
  723MOL0     H97539   3.991   8.591   4.492  0.2995  0.4981  0.0495
  723MOL0     H97540   3.937   8.820   4.434 -0.4284  0.4845 -1.8355
  723MOL0     H97541   3.790   8.722   4.485 -0.1083  1.4103 -1.9985
  723MOL0     H97542   3.720   8.947   4.400 -1.7091 -1.0022  1.5317
  723MOL0     H97543   3.866   9.019   4.479  0.5619 -0.9170  0.2852
  723MOL0     H97544   3.741   9.006   4.680  0.5233 -1.6966  1.0645
  723MOL0     H97545   3.629   8.881   4.622 -1.3301  1.3491 -0.8831
  723MOL0     H97546   3.601   9.168   4.523 -3.2072  1.9392  1.0537
  723MOL0     H97547   3.496   9.020   4.511 -1.7896  2.4152  0.9829
  723MOL0     H97548   3.577   9.185   4.753 -0.0071 -2.4869  1.3737
  723MOL0     H97549   3.420   9.214   4.676 -0.2848 -0.1316 -3.1899
  723MOL0     H97550   3.362   8.967   4.738  1.0259 -3.2442  2.4824
  723MOL0     H97551   3.526   8.956   4.809  0.0950 -0.9132  0.4734
  723MOL0     H97552   3.345   9.184   4.888  0.6665 -0.0677  0.6999
  723MOL0     H97553   3.498   9.123   4.955  0.7779 -1.1614  0.9582
  723MOL0     H97554   3.251   8.951   4.972  1.1740  0.6019 -1.8978
  723MOL0     H97555   3.416   8.940   5.046  1.8031  0.3298 -1.9752
  723MOL0     H97556   3.074   9.164   5.066 -2.2656  3.0860  2.7605
  723MOL0     H97557   2.979   9.244   5.315  0.0487  0.1286  1.5530
  723MOL0     H97558   3.106   9.322   5.404  2.7793 -0.0529 -1.9107
  723MOL0     H97559   3.081   9.426   5.136  2.2815 -1.0002  1.1173
  723MOL0     H97560   2.922   9.428   5.207  1.7594 -1.3121 -4.0390
  723MOL0     H97561   3.069   9.537   5.414  1.7509  0.0640 -0.2786
  723MOL0     H97562   3.001   9.642   5.285  1.1185  0.2186 -4.2551
  723MOL0     H97563   3.216   9.626   5.157  0.6697 -4.4113 -1.2833
  723MOL0     H97564   3.290   9.549   5.288 -1.0037 -0.0017  1.1753
  723MOL0     H97565   3.442   9.770   5.223  3.0285 -1.0564 -1.1409
  723MOL0     H97566   3.665   9.792   5.327 -1.0793 -1.5838  0.0468
  723MOL0     H97567   3.981   9.589   5.501  0.2741  0.2249  0.0690
  723MOL0     H97568   4.209   9.573   5.558  2.4686  0.4787  3.0086
  723MOL0     H97569   4.406   9.944   5.660  0.7927  0.9775  0.3321
  723MOL0     H97570   4.383   9.916   5.833 -2.0264  1.1357 -1.0762
  723MOL0     H97571   4.597   9.802   5.640  1.1020 -2.6919  1.7777
  723MOL0     H97572   4.619   9.942   5.734 -0.8492 -0.0560 -0.2680
  723MOL0     H97573   4.613   9.859   5.946  0.6977  0.7061 -0.6533
  723MOL0     H97574   4.562   9.693   5.895  0.8446  0.5032  0.7518
  723MOL0     H97575   4.832   9.812   5.829 -0.0063  1.0393  3.9301
  723MOL0     H97576   4.761   9.670   5.756 -0.4940 -1.5647  0.1157
  723MOL0     H97577   4.890   9.593   5.945  0.0530  0.3001  1.0229
  723MOL0     H97578   4.734   9.600   6.030 -2.4893  1.9836 -2.5731
  723MOL0     H97579   4.928   9.840   6.019 -0.9777 -1.6889 -1.7225
  723MOL0     H97580   4.782   9.836   6.105  0.8867  0.6308  2.6346
  723MOL0     H97581   5.029   9.677   6.163  0.4051  0.8227  1.1807
  723MOL0     H97582   4.873   9.657   6.249 -0.1014 -2.0897 -2.5325
  723MOL0     H97583   4.914   9.927   6.312 -0.7891 -0.4089 -0.2627
  723MOL0     H97584   5.030   9.816   6.381 -1.1147  0.4894  0.8071
  723MOL0     H97585   4.187   9.964   5.748 -0.5858  1.0873 -0.4867
  723MOL0     H97586   3.958   9.987   5.647  0.6696 -0.0172  0.1973
  723MOL0     H97587   3.464   9.778   5.714  0.0967  0.1562 -0.0006
  723MOL0     H97588   3.260   9.754   5.608 -0.0835 -3.5988 -0.9351
  723MOL0     H97589   4.055   8.836   4.845  0.0428  2.1981 -2.4973
  723MOL0     H97590   4.266   8.695   4.903  1.9782 -0.3191 -1.1886
  723MOL0     H97591   4.529   8.358   4.734  0.7674  0.6068  0.7575
  723MOL0     H97592   4.721   8.205   4.801 -0.0303  3.2281  0.3672
  723MOL0     H97593   4.913   7.965   5.021  1.6128 -1.0559 -1.5292
  723MOL0     H97594   4.892   8.101   4.913  2.6346 -0.8578  1.0681
  723MOL0     H97595   4.756   7.960   4.760  0.4574  1.2131  0.4029
  723MOL0     H97596   4.764   7.817   4.853 -0.4494 -0.5554 -2.6772
  723MOL0     H97597   4.914   7.838   4.657 -0.5790 -0.9342  0.5616
  723MOL0     H97598   4.996   7.781   4.797 -0.6410  1.7936  4.0972
  723MOL0     H97599   5.099   8.018   4.806 -0.1439  0.0330  0.3469
  723MOL0     H97600   5.134   7.937   4.655 -0.9019  1.5349 -1.1658
  723MOL0     H97601   4.923   8.278   4.549  0.2335 -0.2044 -2.3135
  723MOL0     H97602   4.517   8.056   5.118  2.0498 -0.7758 -0.5617
  723MOL0     H97603   4.248   8.312   5.147  0.8466  0.1052  1.4383
  723MOL0     H97604   4.210   8.146   5.084  1.0387 -2.7974  1.7934
  723MOL0     H97605   4.308   8.177   5.228 -1.0862 -0.9766  0.4558
  724MOL0     O97606   1.652   8.954   6.599 -0.2289  0.5463  0.3776
  724MOL0     C97607   1.586   9.025   6.519  1.1256  0.6141 -0.2560
  724MOL0     O97608   1.615   9.061   6.382  0.2299  0.0749 -0.4210
  724MOL0     C97609   1.746   9.030   6.344 -0.2127 -0.7363 -0.0449
  724MOL0     C97610   1.839   9.133   6.342 -0.4373  0.1554  0.0440
  724MOL0     C97611   1.965   9.110   6.298 -0.2105 -0.4462 -0.3479
  724MOL0     C97612   2.005   8.978   6.251  0.6205  0.7404 -0.5136
  724MOL0     O97613   2.131   8.953   6.216  0.0324 -0.2721  0.0962
  724MOL0     C97614   2.227   8.904   6.304 -0.4636 -0.0302 -0.6665
  724MOL0     C97615   2.375   8.922   6.252  0.6264 -0.5447  0.6901
  724MOL0     C97616   2.406   8.894   6.101 -0.0557  0.8028  0.2170
  724MOL0     C97617   2.558   8.916   6.071  0.3732  0.8394 -0.7871
  724MOL0     C97618   2.587   8.893   5.923 -0.1759  0.5370 -1.2851
  724MOL0     C97619   2.535   8.768   5.867  0.2027 -0.5566  0.2900
  724MOL0     C97620   2.580   8.755   5.720 -0.0014 -0.0856  0.1046
  724MOL0     C97621   2.492   8.646   5.649 -0.3771 -0.8757 -1.2055
  724MOL0     N97622   2.496   8.666   5.500 -0.5719 -0.5722 -0.7385
  724MOL0     C97623   2.438   8.778   5.448 -0.2654  0.0844  0.1929
  724MOL0     C97624   2.475   8.771   5.316 -0.0221 -0.1231  0.1820
  724MOL0     C97625   2.438   8.859   5.205  0.0120 -0.5846  0.4079
  724MOL0     C97626   2.528   8.982   5.203 -0.1686 -0.4334  0.5888
  724MOL0     C97627   2.675   8.947   5.179  0.2633  0.2849 -0.6700
  724MOL0     C97628   2.763   9.072   5.153 -0.5102 -0.4481  0.3828
  724MOL0     O97629   2.740   9.127   5.025  0.7285  0.4120  0.0965
  724MOL0     C97630   2.815   9.083   4.919  0.1122 -0.0490  0.1471
  724MOL0     C97631   2.781   9.143   4.802  0.2613  0.8393  0.5177
  724MOL0     C97632   2.847   9.120   4.678  0.0455  1.1114 -0.0973
  724MOL0     C97633   2.952   9.029   4.687 -0.1501  0.0176 -1.5752
  724MOL0     C97634   3.040   9.010   4.576  0.8057  0.0911 -0.7182
  724MOL0     O97635   2.979   8.983   4.455 -0.4954 -0.0340 -0.3972
  724MOL0     C97636   3.058   9.006   4.345  0.0412 -0.1450 -0.1795
  724MOL0     C97637   3.114   8.903   4.275  0.2849 -0.2808 -1.1987
  724MOL0     C97638   3.210   8.917   4.183 -0.6733 -0.1573 -0.2752
  724MOL0     C97639   3.242   9.052   4.144  0.1286 -0.8886  0.9059
  724MOL0     O97640   3.359   9.059   4.071  0.1550 -0.2073  0.7076
  724MOL0     C97641   3.393   9.182   4.006 -0.2811 -0.2969  0.3306
  724MOL0     C97642   3.543   9.202   3.975 -0.1841  0.0361 -0.6540
  724MOL0     C97643   3.623   9.228   4.101  0.6150 -0.0093  0.0123
  724MOL0     C97644   3.776   9.215   4.083  0.5174 -0.2270 -1.1182
  724MOL0     C97645   3.855   9.236   4.207 -0.0440  0.3898 -0.1829
  724MOL0     C97646   3.996   9.170   4.193 -0.4987 -0.0495  0.3956
  724MOL0     C97647   4.092   9.190   4.312  0.4223  0.3300  1.1050
  724MOL0     C97648   4.186   9.314   4.297 -0.1815  0.3609  0.5955
  724MOL0    Cl97649   4.334   9.271   4.395 -0.2082  0.2441 -0.0340
  724MOL0     C97650   3.168   9.164   4.197 -0.1479 -1.0153 -0.2730
  724MOL0     C97651   3.075   9.132   4.292 -0.9014 -0.5808  0.8049
  724MOL0     O97652   3.157   9.025   4.601 -0.2291 -0.5518 -0.3809
  724MOL0     C97653   2.984   8.960   4.807  0.5521 -0.8487 -0.7972
  724MOL0     C97654   2.914   8.980   4.919 -0.3609 -0.7238 -0.1640
  724MOL0     N97655   2.562   8.661   5.301  0.2326  0.9502  0.6123
  724MOL0     N97656   2.575   8.603   5.413 -1.0307  0.0116 -0.1311
  724MOL0     C97657   1.906   8.877   6.263  0.2761 -0.2562  0.5783
  724MOL0     C97658   1.779   8.901   6.310 -0.0598 -0.2770 -0.5551
  724MOL0     C97659   1.448   9.042   6.563  0.3349 -0.4187  0.5485
  724MOL0     C97660   1.344   9.045   6.465  0.2975 -0.5065 -0.2265
  724MOL0     C97661   1.209   9.048   6.506 -0.5495 -0.2143 -1.2181
  724MOL0     C97662   1.173   9.044   6.635 -0.5975  0.7622 -0.9389
  724MOL0     O97663   1.041   9.020   6.671 -0.1129  0.0763 -0.3086
  724MOL0     C97664   1.006   8.886   6.710  0.0112 -1.1961 -0.2402
  724MOL0     C97665   0.924   8.816   6.610 -0.4307 -0.1362 -0.7357
  724MOL0     C97666   0.773   8.843   6.621 -1.0433 -0.5710  0.3336
  724MOL0     C97667   0.726   8.899   6.481 -0.7172 -0.1817 -0.7664
  724MOL0     C97668   0.579   8.906   6.481  0.0560 -0.6285 -0.2960
  724MOL0     C97669   0.462   8.914   6.462  0.0214  0.1215  0.8919
  724MOL0     C97670   1.267   9.064   6.734  0.2317  0.8772  0.0243
  724MOL0     C97671   1.407   9.062   6.692 -0.1653  0.1430 -0.2571
  724MOL0     C97672   1.513   9.086   6.811 -0.0509 -0.2845  0.2872
  724MOL0     H97673   1.802   9.229   6.375 -3.7173 -1.2667  0.8825
  724MOL0     H97674   2.039   9.186   6.323 -0.9736  0.6233 -1.2017
  724MOL0     H97675   2.217   8.970   6.390 -3.7615  0.0733 -1.0277
  724MOL0     H97676   2.206   8.803   6.341  1.2202  0.6723  2.6675
  724MOL0     H97677   2.427   8.853   6.320 -0.9439 -0.4761  2.0099
  724MOL0     H97678   2.410   9.022   6.281  0.5776 -0.6221  1.0203
  724MOL0     H97679   2.344   8.956   6.036  0.7253  0.0637 -1.2995
  724MOL0     H97680   2.361   8.799   6.072 -2.2927  2.3766 -1.8794
  724MOL0     H97681   2.592   9.014   6.103 -1.3887  0.6716  1.9559
  724MOL0     H97682   2.621   8.846   6.126  1.1877  1.8914 -0.3508
  724MOL0     H97683   2.558   8.980   5.863 -2.2101  0.5880 -0.2756
  724MOL0     H97684   2.697   8.889   5.920 -0.1303 -0.9794  0.6747
  724MOL0     H97685   2.558   8.671   5.912  1.5134 -0.7253 -0.6998
  724MOL0     H97686   2.425   8.772   5.869 -0.1753 -2.4693 -4.2887
  724MOL0     H97687   2.685   8.722   5.720  0.3686  0.6611 -3.5007
  724MOL0     H97688   2.572   8.847   5.661  1.1054  0.4982  0.8231
  724MOL0     H97689   2.525   8.544   5.671 -0.9027 -0.5190  1.5132
  724MOL0     H97690   2.386   8.658   5.673  0.2071  4.2386 -0.0381
  724MOL0     H97691   2.366   8.843   5.497 -2.0936 -1.3519 -0.4701
  724MOL0     H97692   2.431   8.813   5.106 -0.0264  0.5154 -0.1086
  724MOL0     H97693   2.333   8.880   5.228  0.0583  1.8554 -1.2771
  724MOL0     H97694   2.487   9.046   5.124  2.1447 -0.3087 -0.6126
  724MOL0     H97695   2.511   9.051   5.286  1.3155  1.5261 -0.6339
  724MOL0     H97696   2.682   8.883   5.091 -0.0428 -1.3201  0.4344
  724MOL0     H97697   2.724   8.894   5.262  1.0653 -1.2646 -2.0720
  724MOL0     H97698   2.867   9.036   5.158  0.7225  1.6223 -4.5526
  724MOL0     H97699   2.750   9.142   5.236 -2.1805 -1.5883  1.1354
  724MOL0     H97700   2.703   9.218   4.813  1.6207  2.5861 -1.0422
  724MOL0     H97701   2.810   9.173   4.591 -2.5715  0.5560  0.5725
  724MOL0     H97702   3.092   8.800   4.300  1.3580 -0.6609 -1.7376
  724MOL0     H97703   3.251   8.841   4.118  3.0472  3.5778 -2.8787
  724MOL0     H97704   3.335   9.185   3.913  1.3033  1.7550 -0.6782
  724MOL0     H97705   3.355   9.270   4.060  0.6778  0.9189 -0.8874
  724MOL0     H97706   3.587   9.113   3.928  0.9641 -0.1091  0.6458
  724MOL0     H97707   3.551   9.291   3.912  2.6311 -0.7207 -1.5151
  724MOL0     H97708   3.596   9.327   4.137 -0.3181 -0.0194 -0.6219
  724MOL0     H97709   3.577   9.157   4.171 -1.6868  2.1315  0.7862
  724MOL0     H97710   3.810   9.288   4.009  0.7505  1.0299  0.1737
  724MOL0     H97711   3.802   9.118   4.039  1.5435  0.2796 -1.6842
  724MOL0     H97712   3.808   9.194   4.296 -0.6188  2.0609  0.3512
  724MOL0     H97713   3.860   9.342   4.236  1.4602 -0.1615  1.7902
  724MOL0     H97714   3.988   9.061   4.195  2.8419 -0.4269 -0.8911
  724MOL0     H97715   4.046   9.198   4.100  0.4639  1.3738  1.3084
  724MOL0     H97716   4.146   9.096   4.323  0.2404  0.0905  0.0068
  724MOL0     H97717   4.035   9.195   4.406 -0.3640 -2.8865  0.9008
  724MOL0     H97718   4.217   9.323   4.192 -0.3128  0.7068  0.5864
  724MOL0     H97719   4.132   9.397   4.342 -1.2650 -0.3008  0.5312
  724MOL0     H97720   3.188   9.270   4.179 -2.7019 -0.2731  0.7654
  724MOL0     H97721   3.015   9.207   4.343 -2.1478 -0.7646 -0.3454
  724MOL0     H97722   3.059   8.882   4.820 -0.2029 -1.6344 -1.0931
  724MOL0     H97723   2.946   8.923   5.005 -1.7492  0.5264  1.2465
  724MOL0     H97724   1.938   8.776   6.240  1.1035 -0.1414  1.1918
  724MOL0     H97725   1.708   8.825   6.342 -1.1962  0.7247 -0.6471
  724MOL0     H97726   1.362   9.041   6.358 -2.3360  0.0223 -0.7497
  724MOL0     H97727   1.125   9.036   6.437 -1.3465 -0.7003 -0.1907
  724MOL0     H97728   0.949   8.897   6.803 -0.3477 -1.3393 -0.4454
  724MOL0     H97729   1.095   8.823   6.727  2.4561  1.4021 -2.4564
  724MOL0     H97730   0.940   8.716   6.650 -0.5019  0.2703  0.3307
  724MOL0     H97731   0.977   8.810   6.514 -0.2322  1.1528 -0.7280
  724MOL0     H97732   0.755   8.921   6.696  5.0192 -1.0526  2.8629
  724MOL0     H97733   0.729   8.747   6.649 -0.8501 -0.1883  2.1180
  724MOL0     H97734   0.756   9.002   6.458 -1.4327  0.1199 -0.3793
  724MOL0     H97735   0.752   8.823   6.407 -2.2037 -1.4033 -0.0900
  724MOL0     H97736   0.358   8.933   6.445  0.5332  1.4354 -1.1397
  724MOL0     H97737   1.247   9.063   6.840  0.8610  0.8625  0.1468
  724MOL0     H97738   1.595   9.150   6.776 -0.6398  1.6658  2.2445
  724MOL0     H97739   1.463   9.129   6.898  0.8696  0.7290  0.3424
  724MOL0     H97740   1.561   8.993   6.841  0.7350  0.3475  1.0556
  725MOL0     O97741   6.358   3.780  11.182 -0.1086 -0.3956  0.6473
  725MOL0     C97742   6.261   3.813  11.250  0.6985 -0.2060 -0.7943
  725MOL0     O97743   6.259   3.809  11.394 -0.3222 -1.0776  0.2891
  725MOL0     C97744   6.372   3.783  11.448  0.0069  0.2687 -0.1543
  725MOL0     C97745   6.386   3.667  11.528 -0.9657  0.3922  0.0080
  725MOL0     C97746   6.493   3.656  11.620  0.1039 -0.8236 -0.2960
  725MOL0     C97747   6.595   3.749  11.621 -0.7639 -1.0667 -0.2800
  725MOL0     O97748   6.702   3.730  11.709  0.3666  0.2101 -0.4230
  725MOL0     C97749   6.831   3.697  11.656  0.1910 -0.2434  0.1036
  725MOL0     C97750   6.916   3.636  11.771 -0.6768 -0.5398 -0.3057
  725MOL0     C97751   6.951   3.746  11.874 -1.0365  0.6943  0.5376
  725MOL0     C97752   7.069   3.844  11.827 -0.5398  0.6160 -0.5009
  725MOL0     C97753   7.170   3.869  11.941 -0.4208  0.6020  0.0257
  725MOL0     C97754   7.273   3.970  11.896 -0.7898 -0.3133  0.0024
  725MOL0     C97755   7.382   3.994  12.003 -0.6786  0.0711 -0.2107
  725MOL0     C97756   7.500   4.093  11.966  0.0028 -0.1838 -0.1690
  725MOL0     N97757   7.596   4.019  11.885  0.1792 -0.2576  0.3747
  725MOL0     C97758   7.589   4.005  11.751  0.6039 -0.4732 -0.0587
  725MOL0     C97759   7.706   3.937  11.736 -0.1673 -0.2013 -0.4658
  725MOL0     C97760   7.742   3.896  11.598 -0.0054  0.8990  0.2417
  725MOL0     C97761   7.873   3.951  11.537 -0.0143  0.1913 -0.3050
  725MOL0     C97762   7.905   3.872  11.399 -0.0135  0.0960 -0.9091
  725MOL0     C97763   8.049   3.872  11.360  0.9837 -0.4584  0.6713
  725MOL0     O97764   8.084   4.008  11.319  0.1924 -0.0622  0.4889
  725MOL0     C97765   8.202   4.024  11.255  0.0664  0.0820 -0.7383
  725MOL0     C97766   8.241   4.157  11.213  0.7050 -0.0643  0.5260
  725MOL0     C97767   8.353   4.170  11.136  0.0725 -0.0226 -0.6873
  725MOL0     C97768   8.420   4.047  11.090 -0.1114 -0.8110 -0.1325
  725MOL0     C97769   8.510   4.063  10.977  0.1263  1.0653  0.2168
  725MOL0     O97770   8.601   4.166  10.989  0.6403  0.0947  0.4993
  725MOL0     C97771   8.693   4.184  10.891  0.1336 -0.2457  0.2051
  725MOL0     C97772   8.793   4.086  10.855  0.4185  0.0541  0.1348
  725MOL0     C97773   8.870   4.102  10.742  0.1835  0.2474 -0.1359
  725MOL0     C97774   8.868   4.230  10.672 -0.6341  0.0763  0.5050
  725MOL0     O97775   8.958   4.246  10.570 -0.0624 -1.1432  0.4329
  725MOL0     C97776   9.000   4.376  10.523  0.8085  0.1701  0.6438
  725MOL0     C97777   9.108   4.362  10.411  0.3393  0.2579 -0.0263
  725MOL0     C97778   9.222   4.263  10.436  0.0706 -0.4395  0.1633
  725MOL0     C97779   9.323   4.261  10.318 -0.7666  0.7756  0.1675
  725MOL0     C97780   9.442   4.157  10.330  0.8410  0.0311 -0.2498
  725MOL0     C97781   9.378   4.021  10.303  0.1571  0.1582  0.2540
  725MOL0     C97782   9.479   3.907  10.297  0.6745  0.3379  0.0972
  725MOL0     C97783   9.415   3.786  10.229 -1.1536 -0.0689 -0.5162
  725MOL0    Cl97784   9.259   3.733  10.292  0.6231 -0.4511  0.0703
  725MOL0     C97785   8.777   4.328  10.709  1.0175 -0.0537 -0.2966
  725MOL0     C97786   8.681   4.299  10.812  0.3206  0.4993 -0.3246
  725MOL0     O97787   8.504   3.988  10.884  0.5257  0.2815 -0.5572
  725MOL0     C97788   8.386   3.917  11.125  0.2193  0.4536 -0.0357
  725MOL0     C97789   8.287   3.910  11.227  0.3440 -0.3674 -0.2293
  725MOL0     N97790   7.777   3.908  11.852 -0.5877  0.0468  0.4320
  725MOL0     N97791   7.712   3.965  11.940  0.2377 -0.1774  0.1074
  725MOL0     C97792   6.590   3.855  11.529  0.2426 -0.1325 -1.1381
  725MOL0     C97793   6.475   3.879  11.461  0.4159 -0.4211  0.0268
  725MOL0     C97794   6.133   3.831  11.185 -0.1124 -0.1139  0.3499
  725MOL0     C97795   6.032   3.890  11.256  0.3174 -1.3028  0.1345
  725MOL0     C97796   5.913   3.942  11.214  0.0659  0.4735 -0.4049
  725MOL0     C97797   5.883   3.932  11.080 -0.4051  0.4208 -0.2745
  725MOL0     O97798   5.762   3.962  11.021 -0.2596 -0.4242  0.0974
  725MOL0     C97799   5.658   4.028  11.111  0.1875 -0.7946 -0.1531
  725MOL0     C97800   5.527   4.051  11.036  0.0833  0.2471  0.2735
  725MOL0     C97801   5.462   3.907  11.002 -0.5892  0.3512 -0.6552
  725MOL0     C97802   5.313   3.918  10.983  0.2748  0.3968  0.0160
  725MOL0     C97803   5.275   4.004  10.871 -0.7104  0.7729  0.5027
  725MOL0     C97804   5.227   4.078  10.790  0.4390  0.0981 -0.3431
  725MOL0     C97805   5.978   3.867  10.997  0.2480  0.3729  0.1530
  725MOL0     C97806   6.101   3.816  11.045  0.1875 -0.0597  0.9213
  725MOL0     C97807   6.190   3.745  10.945 -0.8641  0.1339  0.4299
  725MOL0     H97808   6.303   3.597  11.532 -1.0660  0.4319 -1.1746
  725MOL0     H97809   6.497   3.565  11.679  1.6329 -0.0937  0.7945
  725MOL0     H97810   6.825   3.631  11.569 -0.4441  1.1456 -0.9394
  725MOL0     H97811   6.887   3.789  11.637  3.9932 -1.1159  5.1686
  725MOL0     H97812   7.008   3.600  11.724 -0.5687  3.3000 -3.5809
  725MOL0     H97813   6.861   3.555  11.820 -0.4994  1.2436  3.1010
  725MOL0     H97814   6.986   3.695  11.965 -2.8148 -1.8640 -0.1022
  725MOL0     H97815   6.861   3.801  11.902 -2.2740 -1.5154  1.1914
  725MOL0     H97816   7.119   3.803  11.738  1.4389  3.1888 -0.7149
  725MOL0     H97817   7.022   3.940  11.802  0.1789  0.7071 -1.5988
  725MOL0     H97818   7.125   3.913  12.031  2.1965  2.2028  0.6595
  725MOL0     H97819   7.221   3.776  11.971 -0.2007 -0.8471 -4.1628
  725MOL0     H97820   7.311   3.934  11.800 -0.0432 -0.0707  0.2006
  725MOL0     H97821   7.231   4.065  11.864  0.4246 -0.7553 -3.3763
  725MOL0     H97822   7.425   3.899  12.036  0.1284  0.8913  1.2246
  725MOL0     H97823   7.336   4.039  12.092 -2.6283 -0.5671 -0.8518
  725MOL0     H97824   7.477   4.189  11.918  1.8602 -0.3803 -1.5624
  725MOL0     H97825   7.543   4.116  12.064 -2.2036  1.7068  0.4527
  725MOL0     H97826   7.517   4.047  11.681  0.1091  0.5999  1.0582
  725MOL0     H97827   7.754   3.787  11.594  3.2306  1.1802 -2.9583
  725MOL0     H97828   7.654   3.916  11.536 -0.6076  1.9381  1.3978
  725MOL0     H97829   7.864   4.058  11.521 -1.1224  0.6433  2.7253
  725MOL0     H97830   7.948   3.927  11.613 -0.3457  1.9525  0.6033
  725MOL0     H97831   7.847   3.921  11.320 -1.6536  2.7430  1.7399
  725MOL0     H97832   7.878   3.768  11.420 -1.9431  1.3417  4.0009
  725MOL0     H97833   8.051   3.802  11.275 -0.0695  1.6243 -1.1879
  725MOL0     H97834   8.114   3.844  11.443  4.3682  1.0863 -1.2731
  725MOL0     H97835   8.178   4.238  11.247  0.2691  0.2610 -0.9938
  725MOL0     H97836   8.381   4.266  11.094 -0.0305  0.2345 -0.1669
  725MOL0     H97837   8.787   3.987  10.899  0.7067  0.3934  0.9641
  725MOL0     H97838   8.938   4.025  10.707  1.8455  1.4603  0.3122
  725MOL0     H97839   8.918   4.436  10.484 -0.3404 -0.9118  1.3379
  725MOL0     H97840   9.050   4.429  10.605  1.9463 -0.8150  0.6065
  725MOL0     H97841   9.058   4.335  10.317 -0.5393 -0.5940  0.6522
  725MOL0     H97842   9.158   4.458  10.401 -1.2840  1.1139 -0.2248
  725MOL0     H97843   9.262   4.292  10.534 -0.1600 -0.5732  0.2981
  725MOL0     H97844   9.186   4.161  10.448  0.2721 -0.6768 -1.1395
  725MOL0     H97845   9.382   4.353  10.311  0.5938 -0.0787  0.0094
  725MOL0     H97846   9.280   4.246  10.218 -1.0845 -1.2900  0.5576
  725MOL0     H97847   9.483   4.156  10.432 -0.3259  0.5149  0.2454
  725MOL0     H97848   9.514   4.167  10.249 -0.9223 -2.2088 -2.2545
  725MOL0     H97849   9.305   4.001  10.382  1.9413  0.0805  1.9842
  725MOL0     H97850   9.329   4.032  10.206 -1.4356 -2.3668  0.6691
  725MOL0     H97851   9.507   3.880  10.399  0.2106 -4.0363 -0.7172
  725MOL0     H97852   9.567   3.937  10.239 -0.5208 -0.6868 -2.4122
  725MOL0     H97853   9.410   3.815  10.124 -0.2592  1.4719 -0.1643
  725MOL0     H97854   9.486   3.702  10.227  0.7495  1.4914 -1.1886
  725MOL0     H97855   8.756   4.419  10.655 -2.1222  0.5087  1.6039
  725MOL0     H97856   8.592   4.360  10.818 -0.2497 -0.4769  2.1208
  725MOL0     H97857   8.419   3.824  11.081 -0.9554  0.8801 -1.9389
  725MOL0     H97858   8.270   3.814  11.274  1.1175 -0.3954  0.0119
  725MOL0     H97859   6.671   3.927  11.516  1.1878 -0.7795  0.7502
  725MOL0     H97860   6.461   3.973  11.408  0.4149  1.0266  2.4073
  725MOL0     H97861   6.051   3.913  11.361 -2.2682  0.1954  0.3394
  725MOL0     H97862   5.841   3.984  11.282 -1.4799 -0.9559 -1.0839
  725MOL0     H97863   5.698   4.120  11.153  1.5712 -0.8387 -1.3097
  725MOL0     H97864   5.638   3.971  11.202  0.2006 -0.0444  0.3275
  725MOL0     H97865   5.544   4.114  10.948  1.7469  0.8068  0.9414
  725MOL0     H97866   5.460   4.112  11.097 -0.8101  1.0450 -1.4406
  725MOL0     H97867   5.487   3.832  11.079  0.7653  0.0387 -1.3715
  725MOL0     H97868   5.494   3.855  10.911 -0.2971 -1.1871  0.2771
  725MOL0     H97869   5.284   3.814  10.964  3.3803 -0.6647  0.4638
  725MOL0     H97870   5.270   3.960  11.074  1.4116 -0.1183  0.8236
  725MOL0     H97871   5.161   4.150  10.746  0.2280  1.2417  1.6866
  725MOL0     H97872   5.954   3.846  10.893 -2.2163 -0.4140  0.8346
  725MOL0     H97873   6.246   3.813  10.880 -0.3983 -0.1457  0.5329
  725MOL0     H97874   6.252   3.670  10.994  0.2471  0.7371 -0.0172
  725MOL0     H97875   6.114   3.690  10.889 -0.7071 -0.9030  1.2071
  726MOL0     O97876   4.012   6.430   2.728  0.6069  0.1153  0.6732
  726MOL0     C97877   4.080   6.366   2.804  0.1713  0.1469  0.4766
  726MOL0     O97878   4.209   6.316   2.775 -0.0195  1.0628 -0.0301
  726MOL0     C97879   4.245   6.285   2.645  0.8254 -0.8741  0.7758
  726MOL0     C97880   4.375   6.319   2.610 -0.9121  0.3332 -0.3611
  726MOL0     C97881   4.423   6.273   2.484 -1.2149  0.6585  0.4263
  726MOL0     C97882   4.346   6.205   2.392 -0.4093 -0.2251 -0.6234
  726MOL0     O97883   4.408   6.174   2.268  0.1929  0.1521 -1.0404
  726MOL0     C97884   4.320   6.104   2.175  0.3691  0.1164  0.6412
  726MOL0     C97885   4.393   6.091   2.045  0.2319 -0.2198 -0.5631
  726MOL0     C97886   4.534   6.039   2.059  0.8441  0.8279  0.0356
  726MOL0     C97887   4.591   6.016   1.915 -0.5521  0.1457  0.3228
  726MOL0     C97888   4.744   6.011   1.934  0.1324 -0.2511  0.6606
  726MOL0     C97889   4.806   5.908   1.840  1.3178  0.3204  0.9829
  726MOL0     C97890   4.927   5.950   1.772 -0.2565 -0.5718 -0.0234
  726MOL0     C97891   4.928   6.083   1.694 -0.1854 -0.6016 -0.2979
  726MOL0     N97892   4.809   6.125   1.610  0.0693 -0.1860  0.7529
  726MOL0     C97893   4.777   6.083   1.486  0.2022 -0.4533 -0.0674
  726MOL0     C97894   4.664   6.147   1.454 -0.2670  0.0016 -0.1902
  726MOL0     C97895   4.574   6.118   1.337  0.1510  0.0610  0.2189
  726MOL0     C97896   4.511   5.979   1.322  0.0421 -1.4407 -0.7999
  726MOL0     C97897   4.425   5.932   1.429  0.9065  0.8384 -0.5947
  726MOL0     C97898   4.356   5.792   1.420  0.5238 -0.6051 -0.7885
  726MOL0     O97899   4.287   5.776   1.543  0.4102 -0.0156  0.2576
  726MOL0     C97900   4.351   5.703   1.646  0.4866  0.4052  0.3090
  726MOL0     C97901   4.267   5.633   1.729  0.3346 -0.9168 -0.9399
  726MOL0     C97902   4.314   5.565   1.846  0.5781 -0.2333  0.1127
  726MOL0     C97903   4.453   5.567   1.876  0.1869  0.5347  0.5420
  726MOL0     C97904   4.498   5.523   2.002  0.0635  0.1079  0.2328
  726MOL0     O97905   4.406   5.449   2.068  0.0849 -0.4009 -0.6386
  726MOL0     C97906   4.415   5.380   2.188  0.8217 -0.2924  0.4194
  726MOL0     C97907   4.518   5.397   2.288  0.2741 -0.6936  0.0234
  726MOL0     C97908   4.506   5.322   2.401 -0.8254  0.3026 -0.3564
  726MOL0     C97909   4.392   5.233   2.423  0.1927 -0.7138  0.4860
  726MOL0     O97910   4.387   5.163   2.537 -0.2503  1.0957 -0.7108
  726MOL0     C97911   4.267   5.103   2.598 -0.4375  0.0547 -0.2550
  726MOL0     C97912   4.291   5.077   2.750  0.6786  0.5459  0.3638
  726MOL0     C97913   4.330   5.200   2.831 -0.1354  0.1759 -0.4746
  726MOL0     C97914   4.315   5.167   2.981 -0.8999  0.6719  0.9909
  726MOL0     C97915   4.182   5.190   3.046  0.0910  0.0123 -0.3951
  726MOL0     C97916   4.194   5.211   3.198  0.2396 -0.2845 -1.0174
  726MOL0     C97917   4.052   5.232   3.248  0.9772  0.4831  0.0753
  726MOL0     C97918   4.059   5.266   3.407  0.6412  0.1489 -0.8449
  726MOL0    Cl97919   4.128   5.131   3.495  0.0424  0.1873 -0.2789
  726MOL0     C97920   4.294   5.226   2.325  0.6285  0.6498 -0.5080
  726MOL0     C97921   4.310   5.288   2.205  0.6082  0.6888  0.3415
  726MOL0     O97922   4.616   5.543   2.040  0.4293  0.1464  1.4338
  726MOL0     C97923   4.534   5.632   1.787  0.6465 -0.5092 -0.1655
  726MOL0     C97924   4.486   5.698   1.673  0.2856  0.4671 -0.0053
  726MOL0     N97925   4.636   6.231   1.560  0.7631  0.2901 -1.0967
  726MOL0     N97926   4.720   6.222   1.652 -0.0366  0.0886 -0.6336
  726MOL0     C97927   4.209   6.182   2.426  0.1280  0.0384 -0.0396
  726MOL0     C97928   4.155   6.224   2.553  0.6774 -0.0240 -0.3470
  726MOL0     C97929   4.041   6.383   2.952 -0.3599 -0.0077  0.2741
  726MOL0     C97930   4.098   6.487   3.035  0.1672  0.2990 -0.4899
  726MOL0     C97931   4.044   6.515   3.161 -0.2810 -0.2928 -0.3023
  726MOL0     C97932   3.940   6.445   3.212  0.9387  0.3497 -1.4871
  726MOL0     O97933   3.905   6.485   3.334  0.6856 -0.3431 -0.4025
  726MOL0     C97934   3.797   6.412   3.399 -0.2652 -0.3177  0.0366
  726MOL0     C97935   3.783   6.486   3.534 -1.1177  0.0272 -0.3028
  726MOL0     C97936   3.892   6.456   3.641 -0.0045  0.4361  0.3995
  726MOL0     C97937   3.861   6.517   3.774 -0.2362  0.8463 -0.3311
  726MOL0     C97938   3.942   6.450   3.883 -0.4715 -0.0953  0.5196
  726MOL0     C97939   3.990   6.380   3.972  1.0128  0.3397  0.5066
  726MOL0     C97940   3.884   6.339   3.141  0.3060 -0.2525  0.4672
  726MOL0     C97941   3.931   6.308   3.010 -0.3254  0.0560  1.1986
  726MOL0     C97942   3.865   6.205   2.926  0.1287 -0.5398  1.9093
  726MOL0     H97943   4.434   6.354   2.695 -1.3763  0.7550 -0.2063
  726MOL0     H97944   4.528   6.278   2.456 -1.6974 -0.3828 -1.8491
  726MOL0     H97945   4.297   6.006   2.217  1.3472 -0.2216  0.4008
  726MOL0     H97946   4.221   6.150   2.163  0.3932  0.0497  0.1642
  726MOL0     H97947   4.402   6.190   2.001  1.2326 -0.7495 -1.6030
  726MOL0     H97948   4.330   6.032   1.978  1.0330 -3.9546  1.6500
  726MOL0     H97949   4.560   5.950   2.117  5.3452  1.4166 -0.7711
  726MOL0     H97950   4.590   6.121   2.104 -0.1546  0.8129  1.4046
  726MOL0     H97951   4.554   5.920   1.877  1.1258  0.3432 -2.0367
  726MOL0     H97952   4.560   6.094   1.845 -3.1055  0.8964  2.1657
  726MOL0     H97953   4.775   6.114   1.911 -0.9772 -0.2614 -1.1495
  726MOL0     H97954   4.768   5.979   2.035  0.2684  2.9288  1.7364
  726MOL0     H97955   4.811   5.810   1.887  2.0462 -1.9605 -3.3994
  726MOL0     H97956   4.742   5.886   1.755  3.4853 -0.3235 -0.5815
  726MOL0     H97957   4.946   5.870   1.700  3.8060  0.8894 -0.8715
  726MOL0     H97958   5.018   5.952   1.833 -0.3309  3.3768  0.2770
  726MOL0     H97959   4.954   6.167   1.759 -0.3650  0.5743 -1.7074
  726MOL0     H97960   5.019   6.074   1.633  0.9748 -3.1695  1.5762
  726MOL0     H97961   4.813   5.998   1.428 -3.3365 -0.9920 -1.7106
  726MOL0     H97962   4.499   6.196   1.350  1.1792  0.9640  0.9479
  726MOL0     H97963   4.613   6.146   1.239  1.1912  0.1275  0.6352
  726MOL0     H97964   4.470   5.974   1.221  0.2718 -0.3868 -0.9513
  726MOL0     H97965   4.599   5.914   1.327  1.9369  1.0087 -0.0730
  726MOL0     H97966   4.342   5.999   1.454 -0.2530 -0.7659 -0.0624
  726MOL0     H97967   4.486   5.929   1.520 -1.7106 -1.3331  1.2403
  726MOL0     H97968   4.423   5.709   1.395  0.2627 -0.4426 -2.0919
  726MOL0     H97969   4.284   5.781   1.338  1.0218 -0.0428 -1.3164
  726MOL0     H97970   4.159   5.641   1.720  0.1522 -2.0677 -0.0467
  726MOL0     H97971   4.245   5.509   1.909  0.3404 -1.2184 -0.9802
  726MOL0     H97972   4.601   5.466   2.272  0.8358 -0.9381  1.6421
  726MOL0     H97973   4.584   5.338   2.474  1.2369 -0.7192 -2.2124
  726MOL0     H97974   4.193   5.177   2.567 -0.8128 -0.3954 -0.4542
  726MOL0     H97975   4.231   5.007   2.560  1.3578 -1.0142  0.6402
  726MOL0     H97976   4.199   5.034   2.789  0.5753  0.1181 -0.3293
  726MOL0     H97977   4.364   4.997   2.764 -0.1161 -0.3210 -0.3070
  726MOL0     H97978   4.433   5.228   2.808 -0.3193  1.3083  0.0290
  726MOL0     H97979   4.272   5.288   2.803  0.9980  1.1448  0.1276
  726MOL0     H97980   4.378   5.239   3.034  0.6168 -1.0354  1.6203
  726MOL0     H97981   4.363   5.074   3.013  1.3548  1.3034 -0.3731
  726MOL0     H97982   4.117   5.105   3.024  2.3451 -1.8421 -0.2556
  726MOL0     H97983   4.137   5.279   3.000 -4.4446 -1.9112 -0.2459
  726MOL0     H97984   4.242   5.127   3.250  0.0653  0.0857 -0.2481
  726MOL0     H97985   4.259   5.295   3.225 -1.5954  1.7269 -2.5960
  726MOL0     H97986   3.987   5.144   3.240 -1.3922  2.2445 -1.2892
  726MOL0     H97987   3.987   5.301   3.194 -2.6478 -0.1474  3.1672
  726MOL0     H97988   4.111   5.360   3.427 -0.4708  0.5320  0.4266
  726MOL0     H97989   3.957   5.286   3.442  0.4084  0.1338 -1.4923
  726MOL0     H97990   4.207   5.162   2.336  2.7506 -2.5761 -1.2079
  726MOL0     H97991   4.235   5.289   2.127 -0.8518 -0.7600  1.6571
  726MOL0     H97992   4.639   5.632   1.813  0.2933  2.0049  1.6743
  726MOL0     H97993   4.552   5.754   1.607  2.9826 -0.4049  1.7910
  726MOL0     H97994   4.142   6.142   2.351  0.5000  1.3100 -1.0905
  726MOL0     H97995   4.062   6.179   2.584  0.8092  0.3078  0.5388
  726MOL0     H97996   4.188   6.539   3.005  1.0405 -1.0343 -0.2947
  726MOL0     H97997   4.095   6.588   3.223 -2.1801  1.1686 -0.3806
  726MOL0     H97998   3.830   6.308   3.408  0.2632 -0.2317 -0.7507
  726MOL0     H97999   3.711   6.418   3.332  0.2689  0.1411 -0.6255
  726MOL0     H98000   3.686   6.472   3.584 -1.2239 -0.1877 -0.5655
  726MOL0     H98001   3.795   6.594   3.522  6.5203 -0.1474  1.1492
  726MOL0     H98002   3.991   6.474   3.598  0.3066 -3.7144 -1.0962
  726MOL0     H98003   3.888   6.347   3.654 -0.0337  0.5048  0.9565
  726MOL0     H98004   3.886   6.623   3.782 -0.0741  0.6894  5.0867
  726MOL0     H98005   3.754   6.503   3.790 -0.1473 -1.1597 -1.2259
  726MOL0     H98006   4.010   6.310   4.051 -1.7188 -0.0150  0.9887
  726MOL0     H98007   3.822   6.265   3.191 -0.2675 -0.7850 -0.9955
  726MOL0     H98008   3.842   6.110   2.976 -0.6129 -2.3585 -1.4971
  726MOL0     H98009   3.771   6.233   2.876  0.2239 -2.8872  0.2381
  726MOL0     H98010   3.929   6.175   2.842 -0.3977  0.3283  1.1767
  727MOL0     O98011   6.378   5.315   5.730  0.6183 -0.4518  0.3791
  727MOL0     C98012   6.310   5.226   5.680 -0.9556  0.1173 -0.6503
  727MOL0     O98013   6.359   5.120   5.603  0.2896  0.2409 -0.3708
  727MOL0     C98014   6.494   5.102   5.614 -0.0846 -0.2068 -0.7780
  727MOL0     C98015   6.572   5.088   5.498 -0.1468 -0.2902 -0.4943
  727MOL0     C98016   6.705   5.056   5.499  0.1216  0.2046  0.6020
  727MOL0     C98017   6.767   5.042   5.626  0.0553 -0.6446 -0.0839
  727MOL0     O98018   6.903   5.017   5.629  0.6309 -0.2434  0.6454
  727MOL0     C98019   6.983   5.106   5.560 -0.1578 -0.0935  0.5472
  727MOL0     C98020   7.130   5.091   5.587 -0.4512  0.0651  0.1329
  727MOL0     C98021   7.216   5.195   5.501  0.0445  0.8850  0.0565
  727MOL0     C98022   7.362   5.188   5.536 -0.0055  0.3090 -0.2490
  727MOL0     C98023   7.456   5.258   5.440 -0.4195 -0.1801 -0.8465
  727MOL0     C98024   7.416   5.404   5.429 -0.1059  0.0084 -0.7449
  727MOL0     C98025   7.533   5.490   5.385  1.2018  0.0013  0.4710
  727MOL0     C98026   7.517   5.640   5.403  0.4943  0.6608 -0.3591
  727MOL0     N98027   7.635   5.706   5.340 -0.7654  0.7083 -1.3129
  727MOL0     C98028   7.650   5.756   5.214 -0.3796  0.2550  0.0380
  727MOL0     C98029   7.776   5.802   5.205  0.3762  0.5940  0.6699
  727MOL0     C98030   7.855   5.862   5.090 -0.7061 -0.8923 -0.1838
  727MOL0     C98031   7.792   6.000   5.060  0.7870  0.6255  0.3459
  727MOL0     C98032   7.880   6.084   4.967  0.6630 -0.0982  0.4046
  727MOL0     C98033   7.808   6.213   4.908 -0.5895 -0.4909  0.3550
  727MOL0     O98034   7.900   6.282   4.827  0.7667 -0.3840  0.2710
  727MOL0     C98035   8.006   6.349   4.879 -1.0605  0.6300 -0.5423
  727MOL0     C98036   8.104   6.398   4.790  0.2209  0.5667  0.3784
  727MOL0     C98037   8.215   6.474   4.829 -0.1599 -0.3142 -0.5496
  727MOL0     C98038   8.232   6.500   4.964 -0.3571  0.1818  1.1789
  727MOL0     C98039   8.356   6.570   4.999 -0.3603  0.0272 -0.3087
  727MOL0     O98040   8.472   6.579   4.917 -0.4476  1.1047 -0.4642
  727MOL0     C98041   8.577   6.650   4.964  0.5048 -0.6011 -0.6213
  727MOL0     C98042   8.693   6.601   5.029 -0.1746  0.1865  0.3366
  727MOL0     C98043   8.804   6.679   5.055  0.3281  0.3432 -0.3767
  727MOL0     C98044   8.810   6.811   5.027  0.9658 -0.0846 -1.2081
  727MOL0     O98045   8.914   6.899   5.059  0.5482  0.2244  0.0780
  727MOL0     C98046   9.029   6.844   5.119  0.0078  0.0999  0.0145
  727MOL0     C98047   9.148   6.943   5.119  0.1928  0.4796  0.0640
  727MOL0     C98048   9.264   6.890   5.207  0.1463  0.1479 -0.1269
  727MOL0     C98049   9.369   7.002   5.205  0.4289  0.7968  0.1191
  727MOL0     C98050   9.497   6.949   5.276 -0.8086  0.4092 -0.8492
  727MOL0     C98051   9.628   6.974   5.197 -0.3115  0.2776  0.5510
  727MOL0     C98052   9.744   6.961   5.300 -0.2102  0.1443  0.3002
  727MOL0     C98053   9.875   6.992   5.244  0.5730 -0.1835  0.4916
  727MOL0    Cl98054   9.872   7.168   5.183 -0.2445 -0.6707 -0.1604
  727MOL0     C98055   8.693   6.864   4.968  0.0956 -0.6060 -0.1543
  727MOL0     C98056   8.586   6.783   4.931 -0.9643  0.3393  0.2346
  727MOL0     O98057   8.356   6.628   5.111  0.5724  0.2700 -0.3254
  727MOL0     C98058   8.142   6.441   5.060  0.7808 -0.5768  0.3688
  727MOL0     C98059   8.026   6.373   5.016  0.7051  0.5220 -0.2608
  727MOL0     N98060   7.827   5.811   5.337  0.4841  0.6000 -0.9927
  727MOL0     N98061   7.739   5.751   5.410  0.4799 -0.2334 -0.2145
  727MOL0     C98062   6.691   5.048   5.748 -0.4345  0.3840 -0.2451
  727MOL0     C98063   6.554   5.077   5.738  0.5272  0.4998  0.4955
  727MOL0     C98064   6.160   5.226   5.708  0.1643  0.3764  0.4745
  727MOL0     C98065   6.081   5.140   5.634 -0.0563 -0.3414  0.4626
  727MOL0     C98066   5.941   5.143   5.637  0.3751  0.0906 -1.1028
  727MOL0     C98067   5.881   5.231   5.722 -0.1612  0.0418  0.2060
  727MOL0     O98068   5.745   5.238   5.726  0.2554 -0.7008 -0.4718
  727MOL0     C98069   5.676   5.105   5.733 -0.0764 -0.2030  0.1220
  727MOL0     C98070   5.542   5.111   5.812  0.5948  0.2299 -0.4006
  727MOL0     C98071   5.577   5.145   5.959  1.1926 -0.3173 -0.7613
  727MOL0     C98072   5.445   5.149   6.046 -0.9984  0.0288  0.3522
  727MOL0     C98073   5.393   5.015   6.087  0.5371 -0.0519 -0.0228
  727MOL0     C98074   5.333   4.912   6.115 -0.1363 -0.1243 -0.0779
  727MOL0     C98075   5.957   5.317   5.797  0.2884 -0.0458  0.1470
  727MOL0     C98076   6.092   5.316   5.789 -0.5336 -0.8426 -0.0236
  727MOL0     C98077   6.153   5.439   5.863 -0.1449 -0.1534 -0.1573
  727MOL0     H98078   6.519   5.087   5.403 -0.6589  0.2704 -0.2240
  727MOL0     H98079   6.760   5.045   5.406  1.8748 -1.1391  1.7313
  727MOL0     H98080   6.977   5.078   5.454 -0.3900  0.9908  0.2709
  727MOL0     H98081   6.940   5.206   5.566 -3.9964 -1.3761 -1.9584
  727MOL0     H98082   7.155   4.986   5.570 -1.2822 -0.7281  3.2554
  727MOL0     H98083   7.164   5.105   5.690 -2.1920 -1.1132  0.9173
  727MOL0     H98084   7.177   5.297   5.500  3.5919  2.3697 -1.2305
  727MOL0     H98085   7.211   5.171   5.394  1.4032  1.4830 -0.1540
  727MOL0     H98086   7.373   5.231   5.636  1.0282  0.0708 -0.2444
  727MOL0     H98087   7.404   5.088   5.546  0.9731  0.7472  0.1910
  727MOL0     H98088   7.553   5.264   5.491 -0.6600  1.3620 -0.5239
  727MOL0     H98089   7.465   5.205   5.344  4.1084 -0.1765 -0.6220
  727MOL0     H98090   7.327   5.414   5.366 -0.0047  1.1258 -0.7300
  727MOL0     H98091   7.388   5.440   5.529 -0.2936 -1.2913 -0.3216
  727MOL0     H98092   7.559   5.475   5.279 -0.7581  0.7039 -0.1463
  727MOL0     H98093   7.620   5.481   5.450  0.2473 -0.1666  1.7436
  727MOL0     H98094   7.426   5.670   5.350 -0.0572  0.3157  0.3818
  727MOL0     H98095   7.498   5.664   5.508  1.8346  0.8857 -0.1608
  727MOL0     H98096   7.583   5.745   5.129 -0.8574 -0.4006  0.4938
  727MOL0     H98097   7.958   5.876   5.124 -1.2269  2.5508  0.3134
  727MOL0     H98098   7.839   5.802   5.000 -1.3860  2.2267 -2.2949
  727MOL0     H98099   7.692   5.994   5.016 -0.0213  1.3299  1.9881
  727MOL0     H98100   7.784   6.055   5.154 -0.5775  3.5650 -1.3428
  727MOL0     H98101   7.896   6.031   4.873  0.3362  1.6114 -0.6538
  727MOL0     H98102   7.973   6.113   5.018  0.1528  1.2398  0.6131
  727MOL0     H98103   7.776   6.285   4.984 -2.0851 -0.3437 -0.3767
  727MOL0     H98104   7.726   6.186   4.841  0.1825  1.9123 -1.7327
  727MOL0     H98105   8.091   6.364   4.688 -0.0156  1.6428  0.0389
  727MOL0     H98106   8.289   6.514   4.760 -1.5689  2.3473 -0.6634
  727MOL0     H98107   8.697   6.494   5.047 -0.1632  0.0038 -0.6763
  727MOL0     H98108   8.892   6.631   5.097  0.7209  0.3513 -1.1677
  727MOL0     H98109   9.006   6.825   5.224  0.4493  1.0840  0.2985
  727MOL0     H98110   9.063   6.753   5.068  4.1430  0.9201  0.9206
  727MOL0     H98111   9.177   6.948   5.013 -0.4602 -4.6439 -0.6025
  727MOL0     H98112   9.111   7.039   5.155  1.8130  1.7645 -1.4921
  727MOL0     H98113   9.237   6.875   5.312  2.2115 -3.6913  0.0255
  727MOL0     H98114   9.299   6.792   5.172  3.0847  1.1161 -0.1494
  727MOL0     H98115   9.335   7.092   5.257  0.1025  1.7397 -1.6482
  727MOL0     H98116   9.398   7.031   5.104  0.2307  0.6355  0.0157
  727MOL0     H98117   9.478   6.842   5.285  1.9346 -0.2125 -1.5083
  727MOL0     H98118   9.503   6.998   5.374 -2.5675 -1.4673  0.2911
  727MOL0     H98119   9.634   6.903   5.114 -0.5695  0.0594  0.7160
  727MOL0     H98120   9.643   7.073   5.155  1.2065  0.1462  0.7249
  727MOL0     H98121   9.746   6.859   5.339 -0.7321  0.3859  0.9909
  727MOL0     H98122   9.729   7.023   5.389 -0.4101 -0.3810  0.6379
  727MOL0     H98123   9.953   6.975   5.319  1.3887  1.3106  0.0173
  727MOL0     H98124   9.892   6.927   5.158  3.4974  2.2184 -0.9389
  727MOL0     H98125   8.688   6.966   4.932  2.7329 -0.8296 -1.3589
  727MOL0     H98126   8.496   6.827   4.889 -0.2589  1.3761 -0.2193
  727MOL0     H98127   8.144   6.465   5.165 -0.1074  0.5649  0.1375
  727MOL0     H98128   7.963   6.337   5.097 -0.9402 -0.1314 -1.7697
  727MOL0     H98129   6.738   5.015   5.840 -0.7983 -1.6399 -0.7383
  727MOL0     H98130   6.493   5.076   5.827  1.8480  2.6406  1.5043
  727MOL0     H98131   6.124   5.071   5.562 -1.0898  1.4376 -1.9906
  727MOL0     H98132   5.878   5.077   5.578  0.9021 -0.3042 -1.2335
  727MOL0     H98133   5.752   5.036   5.773 -0.0208 -2.4177 -3.4041
  727MOL0     H98134   5.650   5.074   5.632 -2.6542 -0.5962  0.8303
  727MOL0     H98135   5.488   5.017   5.801  0.6039  0.4267 -2.6559
  727MOL0     H98136   5.477   5.188   5.769 -0.8177 -0.6958 -0.0031
  727MOL0     H98137   5.618   5.247   5.959 -2.2140  1.2316 -2.7601
  727MOL0     H98138   5.659   5.082   5.994  0.9757  0.3259  0.9583
  727MOL0     H98139   5.451   5.215   6.133 -2.4656  0.4299  0.1688
  727MOL0     H98140   5.366   5.196   5.987  0.5243  1.3178 -0.7809
  727MOL0     H98141   5.274   4.827   6.142  1.1297 -0.4316  1.9222
  727MOL0     H98142   5.898   5.389   5.852 -0.6857  2.1143 -3.4065
  727MOL0     H98143   6.222   5.492   5.797  1.1183  2.6449  3.1296
  727MOL0     H98144   6.071   5.508   5.890  2.4971  2.8861  0.7362
  727MOL0     H98145   6.213   5.403   5.947  1.9188 -1.0455 -1.9236
  728MOL0     O98146   5.715   8.787   7.233 -0.9952 -0.6516 -0.8899
  728MOL0     C98147   5.616   8.728   7.278  0.5868 -0.1783  0.0575
  728MOL0     O98148   5.491   8.738   7.219 -0.6668  0.2548  0.6038
  728MOL0     C98149   5.464   8.836   7.126  0.1157  0.1860  0.3687
  728MOL0     C98150   5.355   8.809   7.038 -0.9019 -0.6553 -0.1701
  728MOL0     C98151   5.324   8.907   6.940  0.1781  0.0721 -0.1451
  728MOL0     C98152   5.379   9.034   6.938  0.2219  0.4414 -0.4412
  728MOL0     O98153   5.359   9.134   6.842 -0.2947 -0.3708 -0.0009
  728MOL0     C98154   5.245   9.139   6.752  0.7001 -0.0258 -0.6842
  728MOL0     C98155   5.259   9.073   6.618  0.7180 -1.2587  0.3174
  728MOL0     C98156   5.387   9.130   6.545  0.4844 -0.8992  0.3010
  728MOL0     C98157   5.493   9.024   6.546 -0.2912 -0.2429  0.1618
  728MOL0     C98158   5.608   9.086   6.473 -0.3867  0.5940  0.2987
  728MOL0     C98159   5.724   8.990   6.463 -0.3164 -0.6335  0.0750
  728MOL0     C98160   5.819   9.018   6.343 -0.4880  0.5895  0.8218
  728MOL0     C98161   5.941   8.920   6.337 -0.4711  0.0753  0.7112
  728MOL0     N98162   6.032   8.955   6.228 -0.4252  0.7259  0.2034
  728MOL0     C98163   6.091   9.073   6.211 -0.3518  0.6461  0.9515
  728MOL0     C98164   6.149   9.057   6.088 -0.5564  0.1384 -0.4538
  728MOL0     C98165   6.207   9.171   6.004 -0.4571 -0.2737  0.3361
  728MOL0     C98166   6.346   9.202   6.056 -0.1778 -0.2292 -0.3144
  728MOL0     C98167   6.445   9.080   6.073  0.2998  0.1190 -0.3200
  728MOL0     C98168   6.593   9.112   6.052 -0.2336 -0.0964  0.3446
  728MOL0     O98169   6.620   9.145   5.910  0.2065  0.1079  0.0087
  728MOL0     C98170   6.755   9.153   5.887  0.4549  0.6209  0.1086
  728MOL0     C98171   6.814   9.273   5.871 -0.7155  0.5653  0.7962
  728MOL0     C98172   6.953   9.277   5.856  0.0415  0.0480  0.3115
  728MOL0     C98173   7.027   9.156   5.834 -0.1146  0.2627  0.0036
  728MOL0     C98174   7.173   9.158   5.798 -0.9533 -0.1815 -1.2715
  728MOL0     O98175   7.237   9.280   5.795  0.1896  0.3846  0.3141
  728MOL0     C98176   7.357   9.298   5.730 -0.0454  0.1805  0.1574
  728MOL0     C98177   7.369   9.396   5.620 -0.0951 -0.0817 -1.3576
  728MOL0     C98178   7.496   9.419   5.567 -0.6858  0.1152 -0.3695
  728MOL0     C98179   7.606   9.354   5.626  0.0877 -0.6760  0.3175
  728MOL0     O98180   7.737   9.386   5.604 -0.3217  0.6766  0.0038
  728MOL0     C98181   7.775   9.502   5.537 -0.5233  0.3515  0.0748
  728MOL0     C98182   7.928   9.488   5.518 -0.2986 -0.2479  0.4492
  728MOL0     C98183   8.012   9.544   5.631 -0.0461 -1.1574 -0.7177
  728MOL0     C98184   8.153   9.529   5.600  0.0358 -0.3622  0.2622
  728MOL0     C98185   8.248   9.610   5.702  0.2236 -1.5126  0.1657
  728MOL0     C98186   8.398   9.566   5.693  0.5491 -0.8394  0.3952
  728MOL0     C98187   8.459   9.622   5.565  0.6687 -0.0032 -0.7760
  728MOL0     C98188   8.615   9.601   5.569 -0.2890  0.5475 -0.6886
  728MOL0    Cl98189   8.705   9.667   5.428  0.0023 -0.5041  0.0146
  728MOL0     C98190   7.593   9.262   5.731 -0.5319  0.3807 -0.3797
  728MOL0     C98191   7.470   9.230   5.782  0.1420 -0.2145  0.1793
  728MOL0     O98192   7.227   9.055   5.763 -0.7014  0.3340  0.1124
  728MOL0     C98193   6.948   9.036   5.834 -0.2110 -0.2823  0.0968
  728MOL0     C98194   6.815   9.027   5.863  0.8053  0.5820 -0.1354
  728MOL0     N98195   6.146   8.929   6.037 -0.0711 -0.2041  0.2225
  728MOL0     N98196   6.072   8.871   6.129  0.0637  0.4002 -0.8624
  728MOL0     C98197   5.471   9.064   7.033  0.1359 -0.0361 -0.1128
  728MOL0     C98198   5.525   8.968   7.124 -0.0930 -0.0371 -0.0236
  728MOL0     C98199   5.626   8.651   7.399 -0.6684  0.6083 -0.0194
  728MOL0     C98200   5.751   8.582   7.409 -0.1281  0.2889  0.4204
  728MOL0     C98201   5.768   8.490   7.515  0.0310 -0.7012 -0.2809
  728MOL0     C98202   5.660   8.464   7.602 -0.7101  0.3743  0.2294
  728MOL0     O98203   5.668   8.346   7.678  0.1380  0.2853  0.3415
  728MOL0     C98204   5.550   8.274   7.711 -0.1222  0.1482 -0.3908
  728MOL0     C98205   5.464   8.223   7.591 -0.3331  0.2373 -0.3301
  728MOL0     C98206   5.333   8.166   7.638  0.1797  0.9199 -0.7342
  728MOL0     C98207   5.280   8.089   7.511  0.1989  0.2562 -0.2648
  728MOL0     C98208   5.136   8.069   7.520 -0.0004  0.3553 -0.7272
  728MOL0     C98209   5.017   8.062   7.502 -0.3791 -0.1348 -0.7265
  728MOL0     C98210   5.550   8.544   7.595  0.7563  1.1756 -0.6330
  728MOL0     C98211   5.522   8.634   7.492 -0.9268 -0.5436 -0.0058
  728MOL0     C98212   5.394   8.719   7.498 -0.1319 -0.6951  0.4837
  728MOL0     H98213   5.292   8.720   7.035  0.6513 -1.8175  0.3517
  728MOL0     H98214   5.248   8.880   6.867  1.2568  0.2383 -1.3579
  728MOL0     H98215   5.163   9.098   6.812  1.9614 -0.8998  0.5254
  728MOL0     H98216   5.229   9.244   6.730  0.3775  0.3465  1.1472
  728MOL0     H98217   5.170   9.090   6.558 -0.5742 -0.1858  2.4172
  728MOL0     H98218   5.267   8.965   6.632  1.2327 -1.3299 -0.4592
  728MOL0     H98219   5.425   9.225   6.582 -1.2998 -0.6156  1.4844
  728MOL0     H98220   5.352   9.158   6.445 -1.2207 -3.1662  0.1966
  728MOL0     H98221   5.524   8.986   6.644 -0.2899 -0.3355  0.1260
  728MOL0     H98222   5.454   8.941   6.487  1.5564 -0.6854 -0.5144
  728MOL0     H98223   5.577   9.116   6.373 -0.7449  1.0266  0.5376
  728MOL0     H98224   5.635   9.181   6.520  2.3895  0.0201  0.0392
  728MOL0     H98225   5.784   9.004   6.554 -0.5852  1.5874 -0.0263
  728MOL0     H98226   5.686   8.888   6.466 -3.7998  0.5258 -0.2137
  728MOL0     H98227   5.843   9.125   6.345 -1.3579  0.8596 -1.0201
  728MOL0     H98228   5.769   8.998   6.248  0.0709  2.7377  0.0257
  728MOL0     H98229   6.005   8.924   6.425  3.4960 -1.4205 -1.8415
  728MOL0     H98230   5.910   8.820   6.304 -0.4901  0.3065  0.0335
  728MOL0     H98231   6.079   9.157   6.277 -1.6935  1.5390 -0.3589
  728MOL0     H98232   6.232   9.138   5.903 -2.0423  1.2157 -0.5891
  728MOL0     H98233   6.141   9.256   5.986  0.3477  0.9276  2.6205
  728MOL0     H98234   6.375   9.272   5.977  1.3612  2.2753  2.2984
  728MOL0     H98235   6.333   9.249   6.154 -3.5665 -0.5361 -0.4855
  728MOL0     H98236   6.400   8.997   6.018 -0.1993  0.4012 -0.3411
  728MOL0     H98237   6.445   9.045   6.177  2.1532 -2.4313 -1.0708
  728MOL0     H98238   6.651   9.025   6.086 -1.0147 -0.1963  1.4906
  728MOL0     H98239   6.633   9.191   6.115 -0.8376 -0.1327  0.7885
  728MOL0     H98240   6.754   9.363   5.879 -0.4468  0.7529  0.7337
  728MOL0     H98241   7.013   9.368   5.865 -0.7834  0.6452 -0.1483
  728MOL0     H98242   7.279   9.446   5.586  1.0569  2.0163 -1.4695
  728MOL0     H98243   7.512   9.492   5.489 -1.3812  0.3316 -0.3192
  728MOL0     H98244   7.733   9.503   5.436 -2.3381 -0.0458  0.7935
  728MOL0     H98245   7.745   9.594   5.588 -1.9552  1.4463 -2.5868
  728MOL0     H98246   7.964   9.388   5.491 -0.4371  0.0118 -0.7135
  728MOL0     H98247   7.948   9.545   5.427  2.4148 -0.2832  0.9364
  728MOL0     H98248   7.987   9.650   5.643 -2.2630 -1.9234  2.8072
  728MOL0     H98249   7.971   9.488   5.715 -0.7873 -1.2639 -1.1372
  728MOL0     H98250   8.169   9.558   5.496 -1.0996 -2.0876 -0.4448
  728MOL0     H98251   8.180   9.423   5.601 -0.2860 -0.4519  0.0161
  728MOL0     H98252   8.212   9.608   5.805  0.8858  1.3476  0.5286
  728MOL0     H98253   8.249   9.715   5.670 -1.5513 -1.8349 -1.1022
  728MOL0     H98254   8.451   9.613   5.777 -0.7921  3.1354 -0.7560
  728MOL0     H98255   8.404   9.457   5.699  0.2750 -1.0692 -2.4021
  728MOL0     H98256   8.448   9.731   5.554  1.7118  0.1026 -0.8717
  728MOL0     H98257   8.408   9.580   5.478 -4.1623 -0.7014  2.0645
  728MOL0     H98258   8.660   9.635   5.663 -0.7667 -0.7177  0.0317
  728MOL0     H98259   8.639   9.494   5.567 -0.1139  0.5981 -1.7568
  728MOL0     H98260   7.684   9.206   5.754 -1.9417 -4.3863 -4.5602
  728MOL0     H98261   7.472   9.141   5.844  1.9872  0.6719  1.4789
  728MOL0     H98262   7.010   8.951   5.807  0.8454  0.9289 -1.4601
  728MOL0     H98263   6.755   8.936   5.867 -0.8903  1.5798 -1.5813
  728MOL0     H98264   5.500   9.169   7.029 -0.7905  0.2329  0.1356
  728MOL0     H98265   5.607   8.996   7.189  1.7964 -0.2970 -2.1469
  728MOL0     H98266   5.822   8.599   7.329 -0.5772 -0.6442 -0.2010
  728MOL0     H98267   5.854   8.425   7.504 -1.0696 -1.9956 -1.9468
  728MOL0     H98268   5.484   8.326   7.780 -1.3402 -1.7214 -0.0790
  728MOL0     H98269   5.573   8.185   7.771 -0.8440  1.8309  2.6002
  728MOL0     H98270   5.511   8.139   7.539 -0.3236  1.6662 -2.7910
  728MOL0     H98271   5.448   8.302   7.517  3.3630 -1.8403 -3.7090
  728MOL0     H98272   5.260   8.239   7.673 -0.3251  0.3648 -0.6152
  728MOL0     H98273   5.342   8.088   7.714 -0.2571  1.7518  0.2009
  728MOL0     H98274   5.316   8.140   7.422  3.4594 -1.0568  0.1638
  728MOL0     H98275   5.316   7.986   7.503  0.7992  0.5091 -0.8566
  728MOL0     H98276   4.910   8.065   7.497 -0.3409  1.1799 -1.2871
  728MOL0     H98277   5.475   8.530   7.672  0.0595 -4.1086 -1.8887
  728MOL0     H98278   5.391   8.806   7.431  1.5870  1.1390  2.5985
  728MOL0     H98279   5.309   8.655   7.473  0.4546 -1.0163 -0.7431
  728MOL0     H98280   5.392   8.752   7.603  0.9525  0.9861  0.0269
  729MOL0     O98281   2.127   8.141   3.897 -0.2369 -0.7889 -0.0554
  729MOL0     C98282   2.229   8.186   3.841 -0.2606  0.5795 -0.3941
  729MOL0     O98283   2.312   8.287   3.892 -0.0530  0.3521  0.0672
  729MOL0     C98284   2.276   8.350   4.006  0.3627 -0.1622 -0.9890
  729MOL0     C98285   2.154   8.415   4.013 -0.5936  0.4919 -0.2870
  729MOL0     C98286   2.126   8.508   4.121 -0.3448  0.2291  0.1498
  729MOL0     C98287   2.230   8.532   4.219 -1.0031 -0.1965  0.9754
  729MOL0     O98288   2.210   8.600   4.336 -0.1524 -0.2780  0.5813
  729MOL0     C98289   2.099   8.681   4.372  0.2104 -0.2862  0.4467
  729MOL0     C98290   2.131   8.736   4.508  0.4578  0.1532 -0.2320
  729MOL0     C98291   2.114   8.638   4.626  0.3173 -0.2249  0.0423
  729MOL0     C98292   2.143   8.696   4.763  0.0022  0.3110  0.4023
  729MOL0     C98293   2.153   8.580   4.863  0.3285  0.8253 -0.2464
  729MOL0     C98294   2.206   8.644   4.988 -1.3689 -0.0960  0.5493
  729MOL0     C98295   2.197   8.560   5.120  0.1052  0.0240 -0.4671
  729MOL0     C98296   2.301   8.448   5.123  0.6864 -0.2820  0.1782
  729MOL0     N98297   2.272   8.351   5.227 -0.4432  0.6571  0.0563
  729MOL0     C98298   2.352   8.323   5.337 -0.1722 -0.0103 -0.1729
  729MOL0     C98299   2.316   8.205   5.382  0.2432  0.3397  0.5531
  729MOL0     C98300   2.397   8.116   5.484  0.0099  0.2140 -0.6707
  729MOL0     C98301   2.475   8.195   5.587 -0.7032 -0.2936  0.1122
  729MOL0     C98302   2.526   8.128   5.724 -0.2967 -0.1293  0.2077
  729MOL0     C98303   2.597   8.227   5.816 -0.2724 -0.0433 -0.2861
  729MOL0     O98304   2.657   8.344   5.751 -0.1623  0.3818 -0.1539
  729MOL0     C98305   2.787   8.328   5.697 -0.5736  0.1748 -0.3119
  729MOL0     C98306   2.853   8.206   5.679  0.1013 -0.3889 -1.0152
  729MOL0     C98307   2.974   8.193   5.617 -0.1681 -0.2440 -0.0731
  729MOL0     C98308   3.036   8.305   5.560  1.3155 -0.2103 -0.5158
  729MOL0     C98309   3.153   8.299   5.476  0.0767 -0.4114 -0.5070
  729MOL0     O98310   3.216   8.418   5.457  0.3211 -0.3524 -0.6540
  729MOL0     C98311   3.336   8.430   5.396 -0.6912 -0.2373  0.0292
  729MOL0     C98312   3.429   8.322   5.367  0.6712 -0.9384 -0.5194
  729MOL0     C98313   3.549   8.339   5.305  0.3091  0.7112  0.1013
  729MOL0     C98314   3.592   8.470   5.282 -0.5544 -0.2789 -0.1984
  729MOL0     O98315   3.713   8.511   5.222 -0.2323  0.0864  0.0185
  729MOL0     C98316   3.819   8.414   5.208  0.7578 -0.0357 -0.4470
  729MOL0     C98317   3.944   8.467   5.128  0.7360 -0.0701 -1.0486
  729MOL0     C98318   4.034   8.542   5.226  0.0195 -0.6074  0.5124
  729MOL0     C98319   4.152   8.626   5.159  0.0208  0.6511 -0.2878
  729MOL0     C98320   4.220   8.729   5.262 -0.8116  0.6858  0.7970
  729MOL0     C98321   4.275   8.656   5.386  0.1788  0.3710  1.1463
  729MOL0     C98322   4.339   8.748   5.488 -0.0373  0.3917  0.3450
  729MOL0     C98323   4.414   8.674   5.594  0.1886  0.1279 -0.8067
  729MOL0    Cl98324   4.317   8.547   5.679 -0.1801  0.0781 -0.3528
  729MOL0     C98325   3.516   8.578   5.324  0.5667 -0.0900 -0.0881
  729MOL0     C98326   3.390   8.556   5.375  0.3006  0.4667  0.0091
  729MOL0     O98327   3.178   8.188   5.426 -0.2337 -0.1183  0.4293
  729MOL0     C98328   2.971   8.429   5.591  0.3605 -0.2475  0.0583
  729MOL0     C98329   2.845   8.445   5.651  0.4062  0.0084  0.0836
  729MOL0     N98330   2.204   8.171   5.305  0.0121  0.7046 -0.5043
  729MOL0     N98331   2.192   8.245   5.204  0.3360 -0.1961  0.7202
  729MOL0     C98332   2.351   8.459   4.210 -0.6129  0.0524  0.1926
  729MOL0     C98333   2.380   8.373   4.100  0.1947  1.0207 -0.3447
  729MOL0     C98334   2.293   8.109   3.734  0.4419 -0.1365 -0.3815
  729MOL0     C98335   2.428   8.119   3.708  0.2372  0.2466  0.1311
  729MOL0     C98336   2.489   8.043   3.614  0.2676 -0.0972 -0.8167
  729MOL0     C98337   2.422   7.938   3.549  0.6287 -0.7180 -0.2976
  729MOL0     O98338   2.507   7.854   3.475  0.5555  0.8541  0.5403
  729MOL0     C98339   2.440   7.743   3.415  0.4530  0.1261 -0.0146
  729MOL0     C98340   2.538   7.641   3.354  0.5312 -0.5238  0.4927
  729MOL0     C98341   2.591   7.687   3.217  0.0598  0.0461 -0.0893
  729MOL0     C98342   2.524   7.597   3.100  0.3268 -0.7921  0.1637
  729MOL0     C98343   2.578   7.626   2.963 -0.4945 -0.8560  0.0877
  729MOL0     C98344   2.619   7.653   2.852 -0.3786 -0.5558  0.4109
  729MOL0     C98345   2.280   7.933   3.561 -0.6875  0.3653 -0.8738
  729MOL0     C98346   2.216   8.026   3.651  0.0985  0.1455 -0.7556
  729MOL0     C98347   2.063   8.029   3.643 -0.5169 -0.0619  0.2668
  729MOL0     H98348   2.080   8.376   3.943  1.1853  1.3092 -2.7668
  729MOL0     H98349   2.029   8.545   4.153  0.4100  1.2466  1.3705
  729MOL0     H98350   2.080   8.765   4.304  0.1801  0.2116  1.0517
  729MOL0     H98351   2.009   8.621   4.381 -1.8064  2.4929  0.2328
  729MOL0     H98352   2.062   8.819   4.520  2.4858  2.2230 -2.0300
  729MOL0     H98353   2.237   8.765   4.507 -0.0360  2.0273 -0.0570
  729MOL0     H98354   2.178   8.550   4.619 -2.6461 -2.7687  2.1022
  729MOL0     H98355   2.012   8.597   4.632  0.2749  0.0847  3.2167
  729MOL0     H98356   2.236   8.752   4.748  2.3933 -2.6882  2.7741
  729MOL0     H98357   2.061   8.766   4.786 -0.4744 -0.7314  2.0493
  729MOL0     H98358   2.057   8.531   4.883 -0.0766  2.0356  0.8729
  729MOL0     H98359   2.222   8.502   4.831 -0.7625  0.4102 -1.6630
  729MOL0     H98360   2.310   8.676   4.975 -0.6628 -2.4836 -0.1083
  729MOL0     H98361   2.142   8.732   5.001 -2.0161  0.2128 -3.5182
  729MOL0     H98362   2.092   8.530   5.123 -0.2919  1.2701 -1.1079
  729MOL0     H98363   2.228   8.628   5.200  1.7735  1.6714 -2.3884
  729MOL0     H98364   2.300   8.405   5.023 -3.6173  2.1734 -1.0884
  729MOL0     H98365   2.401   8.488   5.144  0.1116  0.6788  1.2135
  729MOL0     H98366   2.441   8.377   5.371  0.5739 -2.2394  1.7027
  729MOL0     H98367   2.319   8.061   5.538 -0.9364  1.9326 -0.2102
  729MOL0     H98368   2.458   8.045   5.428 -1.0902 -1.2756 -0.0490
  729MOL0     H98369   2.556   8.240   5.529 -1.0111 -0.2780 -0.3097
  729MOL0     H98370   2.412   8.281   5.612  0.2147  1.1694 -2.2924
  729MOL0     H98371   2.585   8.040   5.699 -0.7482  0.2547 -2.6136
  729MOL0     H98372   2.438   8.097   5.781 -2.5796  0.5998 -2.6726
  729MOL0     H98373   2.669   8.174   5.878 -1.3630  1.5845  2.5891
  729MOL0     H98374   2.523   8.267   5.887 -1.1795 -0.9277 -0.7120
  729MOL0     H98375   2.805   8.115   5.711  0.8766 -0.3287  0.4306
  729MOL0     H98376   3.002   8.089   5.599  1.2221  0.0888  0.0810
  729MOL0     H98377   3.397   8.218   5.371  1.7988 -1.2614  1.0762
  729MOL0     H98378   3.617   8.259   5.280  0.8684  0.9992  0.6943
  729MOL0     H98379   3.849   8.379   5.307 -1.9588  1.0320  0.8533
  729MOL0     H98380   3.778   8.332   5.149 -2.0346 -0.3035  1.6526
  729MOL0     H98381   3.998   8.386   5.078  2.0679  0.0330  0.1639
  729MOL0     H98382   3.900   8.531   5.051  2.6435 -1.2832 -3.2752
  729MOL0     H98383   3.968   8.611   5.279  0.8413 -2.1033  3.7518
  729MOL0     H98384   4.077   8.469   5.295  0.7797  0.1909  0.9053
  729MOL0     H98385   4.099   8.669   5.073 -0.0374 -3.4939 -2.6214
  729MOL0     H98386   4.229   8.563   5.115  0.2746  1.1816 -0.6132
  729MOL0     H98387   4.144   8.800   5.296 -0.8863  1.4103 -0.8060
  729MOL0     H98388   4.301   8.773   5.203 -2.2462 -0.1292 -1.9105
  729MOL0     H98389   4.194   8.599   5.432  1.6021 -0.5252  2.7053
  729MOL0     H98390   4.348   8.577   5.364  1.4007  1.1993  2.0566
  729MOL0     H98391   4.264   8.818   5.528  0.2079 -1.5028  4.7004
  729MOL0     H98392   4.413   8.810   5.436  0.9570 -1.0603 -0.0124
  729MOL0     H98393   4.498   8.620   5.548 -0.2493 -2.0146  0.7324
  729MOL0     H98394   4.457   8.739   5.670  0.6279 -2.2365  1.0931
  729MOL0     H98395   3.546   8.683   5.328 -0.1836  0.1084  0.5771
  729MOL0     H98396   3.335   8.644   5.408  0.3146  0.0040  1.2980
  729MOL0     H98397   3.005   8.527   5.560 -0.4914 -0.4979 -1.8693
  729MOL0     H98398   2.791   8.537   5.666 -0.7869 -0.3950 -1.4451
  729MOL0     H98399   2.435   8.484   4.273  1.1455  0.6127 -2.2528
  729MOL0     H98400   2.482   8.339   4.087 -0.8086 -3.1687  1.0664
  729MOL0     H98401   2.482   8.205   3.747  0.2072 -0.1672  1.0897
  729MOL0     H98402   2.592   8.071   3.592  1.4015 -1.5161  2.1396
  729MOL0     H98403   2.373   7.788   3.342  1.1487  1.0386 -0.1139
  729MOL0     H98404   2.389   7.683   3.491  2.0229 -0.4098  0.6695
  729MOL0     H98405   2.483   7.548   3.336 -2.7993  1.1781  1.1205
  729MOL0     H98406   2.617   7.630   3.429 -0.1075 -0.5902  1.1647
  729MOL0     H98407   2.700   7.692   3.226 -0.0815  1.2930  1.3367
  729MOL0     H98408   2.547   7.785   3.197 -1.6963 -0.6178  0.2986
  729MOL0     H98409   2.520   7.489   3.111  1.3159 -1.2184 -2.8277
  729MOL0     H98410   2.420   7.629   3.102  1.1270  2.5890 -2.3649
  729MOL0     H98411   2.668   7.676   2.760 -0.0566 -2.1992  0.1446
  729MOL0     H98412   2.219   7.875   3.493 -0.0560 -0.4662 -0.7445
  729MOL0     H98413   2.022   7.989   3.735 -0.2204 -0.6868  0.1318
  729MOL0     H98414   2.023   8.130   3.627  1.6199  0.7746 -0.2224
  729MOL0     H98415   2.037   7.958   3.564 -0.3283 -2.8223  2.5084
  730MOL0     O98416   9.788   7.891   9.987  0.1286  1.1412 -0.2350
  730MOL0     C98417   9.740   8.004   9.971 -1.1481 -0.3614  0.0711
  730MOL0     O98418   9.814   8.123   9.990  0.6719  0.3844 -0.1695
  730MOL0     C98419   9.942   8.108  10.029  0.0840  0.0808  0.1133
  730MOL0     C98420   9.978   8.151  10.157 -1.1100  0.8669 -0.4443
  730MOL0     C98421  10.113   8.140  10.186  0.2388 -0.6255  0.1314
  730MOL0     C98422  10.212   8.082  10.104 -0.3932 -0.5336 -0.1545
  730MOL0     O98423  10.347   8.073  10.143  0.3543  0.7023 -0.3742
  730MOL0     C98424  10.371   8.121  10.272 -1.0904 -0.1813 -0.0056
  730MOL0     C98425  10.527   8.094  10.294  0.2575 -0.3943 -0.2400
  730MOL0     C98426  10.616   8.185  10.200 -0.5848  0.1480 -0.5013
  730MOL0     C98427  10.762   8.154  10.172 -0.3599  0.7824  1.5072
  730MOL0     C98428  10.843   8.122  10.296  1.1758 -0.4005 -0.1417
  730MOL0     C98429  10.924   8.224  10.368 -0.1882  0.2603  0.3252
  730MOL0     C98430  11.010   8.173  10.483 -0.5751 -0.0719  0.2990
  730MOL0     C98431  11.134   8.094  10.441 -0.6361  0.3410 -0.3151
  730MOL0     N98432  11.222   8.080  10.559 -0.3295 -0.3719  0.7770
  730MOL0     C98433  11.356   8.123  10.556  0.2722 -1.0119 -0.1409
  730MOL0     C98434  11.405   8.068  10.671  0.6776  0.4405  1.1458
  730MOL0     C98435  11.534   8.100  10.726  0.3427  0.0478  0.2426
  730MOL0     C98436  11.564   8.046  10.865 -0.6269 -0.2046 -1.4407
  730MOL0     C98437  11.689   8.105  10.938  0.0196 -0.6004  0.9137
  730MOL0     C98438  11.825   8.086  10.866  0.3958  0.1602  0.5152
  730MOL0     O98439  11.826   8.188  10.772 -0.5649 -0.4576 -0.4200
  730MOL0     C98440  11.943   8.258  10.785 -0.0054 -0.2174  0.3594
  730MOL0     C98441  11.945   8.362  10.887  0.1328  0.7613  0.5533
  730MOL0     C98442  12.064   8.430  10.908  0.0997  0.8007  0.1745
  730MOL0     C98443  12.183   8.397  10.834  0.1398  0.2542  0.4791
  730MOL0     C98444  12.304   8.476  10.855 -0.7205  0.3037  0.3218
  730MOL0     O98445  12.299   8.569  10.957  0.3808  0.6857  0.2532
  730MOL0     C98446  12.413   8.650  10.981 -0.0431  0.9548  0.2880
  730MOL0     C98447  12.466   8.733  10.884 -0.3716  1.1312  0.9033
  730MOL0     C98448  12.573   8.822  10.905  0.1270  0.4001  0.7846
  730MOL0     C98449  12.618   8.842  11.036  0.5772  0.1572 -0.0059
  730MOL0     O98450  12.719   8.928  11.084  0.2834 -0.0658 -0.8717
  730MOL0     C98451  12.831   8.940  10.993 -0.4640 -1.0496 -0.5376
  730MOL0     C98452  12.959   9.017  11.042  0.2453  0.2618  0.2611
  730MOL0     C98453  12.918   9.165  11.071  0.0611 -0.1662  0.2071
  730MOL0     C98454  13.039   9.240  11.141 -0.3524  0.2395  0.1964
  730MOL0     C98455  13.049   9.197  11.296  0.5218 -0.6794 -0.6332
  730MOL0     C98456  13.173   9.252  11.367 -0.6519  0.3682 -0.1536
  730MOL0     C98457  13.296   9.166  11.329 -0.3721  0.4733 -0.9953
  730MOL0     C98458  13.413   9.262  11.323  0.1538  0.0154 -1.0653
  730MOL0    Cl98459  13.451   9.360  11.471  0.4691  0.5358 -0.0942
  730MOL0     C98460  12.573   8.748  11.131  0.1394 -0.6002  0.9711
  730MOL0     C98461  12.470   8.653  11.111  0.5095 -0.4047 -0.0462
  730MOL0     O98462  12.407   8.449  10.784  0.2707  0.1146  0.1271
  730MOL0     C98463  12.181   8.294  10.740 -0.7653 -0.6834 -0.1505
  730MOL0     C98464  12.064   8.229  10.715 -0.1563 -0.4281  0.4926
  730MOL0     N98465  11.307   7.980  10.718  0.6020 -0.3512 -0.3404
  730MOL0     N98466  11.198   7.986  10.659  0.4762  0.5807 -0.3011
  730MOL0     C98467  10.169   8.036   9.979  0.1001 -0.8942  0.0544
  730MOL0     C98468  10.034   8.048   9.941  0.1400  0.0304  0.5430
  730MOL0     C98469   9.604   8.024   9.936  0.5726 -0.1863 -0.1236
  730MOL0     C98470   9.538   8.132   9.989  0.7099 -0.9901 -0.4203
  730MOL0     C98471   9.407   8.160   9.964  0.1221 -0.2892  0.2500
  730MOL0     C98472   9.341   8.085   9.866  0.2183 -0.2671  0.1920
  730MOL0     O98473   9.214   8.112   9.829 -0.1146 -0.5779  0.5163
  730MOL0     C98474   9.130   8.216   9.877 -0.0564  0.1915 -0.5386
  730MOL0     C98475   9.178   8.356   9.818  0.9383  0.2700  0.3777
  730MOL0     C98476   9.132   8.387   9.679  0.6680  0.4473 -0.0150
  730MOL0     C98477   9.143   8.540   9.642  0.3506  0.8425 -0.2325
  730MOL0     C98478   9.053   8.631   9.709  0.7626 -0.1816 -0.0752
  730MOL0     C98479   8.991   8.717   9.770 -1.1384  0.5865 -0.0005
  730MOL0     C98480   9.407   7.974   9.800 -0.3640 -0.0507 -0.5264
  730MOL0     C98481   9.538   7.940   9.840 -0.5537 -0.2579 -0.2451
  730MOL0     C98482   9.615   7.838   9.751  0.7363  0.4801  1.1714
  730MOL0     H98483   9.899   8.193  10.218 -1.9464 -0.8450 -0.3123
  730MOL0     H98484  10.134   8.185  10.283  1.4354 -1.3367  0.2230
  730MOL0     H98485  10.355   8.229  10.272  1.1764  0.2217  0.5708
  730MOL0     H98486  10.305   8.075  10.345 -1.2578  1.1856  0.7340
  730MOL0     H98487  10.540   7.986  10.288 -0.6415 -0.5591  0.5919
  730MOL0     H98488  10.546   8.118  10.400 -4.4579 -0.0715  0.7440
  730MOL0     H98489  10.617   8.289  10.236 -0.5181 -0.2706  0.7443
  730MOL0     H98490  10.570   8.191  10.101 -1.0215  0.7246 -0.2701
  730MOL0     H98491  10.765   8.073  10.098  0.8050  3.6297 -1.8384
  730MOL0     H98492  10.804   8.238  10.115 -0.8843 -0.0620 -0.2155
  730MOL0     H98493  10.776   8.073  10.368  0.0764 -1.0347 -1.5463
  730MOL0     H98494  10.926   8.060  10.263  1.4559 -0.4183  0.5801
  730MOL0     H98495  10.981   8.279  10.292 -0.0024 -1.0921 -0.5613
  730MOL0     H98496  10.861   8.300  10.416 -3.8936 -0.2745 -3.1531
  730MOL0     H98497  10.942   8.109  10.540 -3.0215  1.4756 -0.7072
  730MOL0     H98498  11.037   8.260  10.544  0.2432 -1.0563  1.3802
  730MOL0     H98499  11.107   7.992  10.411  0.2788  0.9399 -3.6029
  730MOL0     H98500  11.180   8.148  10.358 -1.3713  0.0858 -0.9003
  730MOL0     H98501  11.404   8.195  10.492 -1.0647  0.4459  0.4320
  730MOL0     H98502  11.611   8.065  10.656 -0.5681 -2.4222  0.3691
  730MOL0     H98503  11.541   8.209  10.730 -3.8905  0.7836 -4.0046
  730MOL0     H98504  11.482   8.045  10.937 -0.2337  1.3763 -0.9506
  730MOL0     H98505  11.574   7.939  10.842 -3.5793 -0.5723 -1.4288
  730MOL0     H98506  11.686   8.054  11.035 -2.2505 -3.9154 -0.6550
  730MOL0     H98507  11.665   8.211  10.951  1.2765 -0.2704  0.6655
  730MOL0     H98508  11.834   7.985  10.824  0.4859  1.3691 -2.7006
  730MOL0     H98509  11.905   8.092  10.940 -0.6506  0.3201  1.6641
  730MOL0     H98510  11.853   8.392  10.936  0.3289  3.2482 -0.4826
  730MOL0     H98511  12.062   8.514  10.976  0.1487  0.9004  0.0541
  730MOL0     H98512  12.436   8.736  10.779  2.0657 -1.2394  0.0255
  730MOL0     H98513  12.608   8.884  10.823  2.0401  0.6423  1.7301
  730MOL0     H98514  12.863   8.836  10.982  1.0091 -1.0161  2.5227
  730MOL0     H98515  12.796   8.981  10.898  1.9904  1.2037 -0.5735
  730MOL0     H98516  13.004   8.964  11.127 -1.1748  0.5139  1.2053
  730MOL0     H98517  13.040   9.006  10.969  0.5462  0.1355  0.6132
  730MOL0     H98518  12.887   9.209  10.976  1.6988  1.9820  0.6002
  730MOL0     H98519  12.833   9.163  11.139 -1.4682  1.0949 -1.5768
  730MOL0     H98520  13.030   9.349  11.140 -0.1224  0.2616  0.6831
  730MOL0     H98521  13.133   9.207  11.094 -0.7282  0.7884 -0.9965
  730MOL0     H98522  13.045   9.089  11.310 -1.2134 -0.4008  1.5596
  730MOL0     H98523  12.954   9.222  11.344  1.1239  1.2744 -0.3820
  730MOL0     H98524  13.182   9.359  11.346  2.0226  0.9580  3.1181
  730MOL0     H98525  13.163   9.253  11.476  3.8320  1.6351  0.4435
  730MOL0     H98526  13.287   9.113  11.233  3.9855 -1.6107 -0.4998
  730MOL0     H98527  13.319   9.092  11.405 -1.4679  0.3131 -0.8004
  730MOL0     H98528  13.505   9.203  11.314  0.9578  0.9264  0.6567
  730MOL0     H98529  13.397   9.329  11.238 -0.5131  0.3323 -0.6970
  730MOL0     H98530  12.622   8.750  11.228  0.7134  0.3074  0.6682
  730MOL0     H98531  12.422   8.593  11.187 -0.1514 -1.1833 -1.0607
  730MOL0     H98532  12.275   8.269  10.693 -0.8759 -0.3453 -0.5537
  730MOL0     H98533  12.070   8.152  10.638  1.5948  0.3574 -0.2098
  730MOL0     H98534  10.252   7.994   9.923  1.2026 -1.1786  1.8153
  730MOL0     H98535   9.998   8.010   9.846 -2.6942 -1.1723  1.9703
  730MOL0     H98536   9.588   8.203  10.054 -1.5935  0.2031  0.1596
  730MOL0     H98537   9.359   8.248  10.006  1.0204  0.6593 -0.6681
  730MOL0     H98538   9.123   8.222   9.986 -2.0873 -0.5837 -0.5810
  730MOL0     H98539   9.027   8.196   9.848 -0.2079  0.7555 -0.4151
  730MOL0     H98540   9.287   8.351   9.815  1.0867 -5.5921  2.8958
  730MOL0     H98541   9.143   8.439   9.881  0.1995  0.8300 -0.7379
  730MOL0     H98542   9.026   8.363   9.663 -0.0693  1.8466  2.2153
  730MOL0     H98543   9.201   8.334   9.613  1.1408  0.6343  0.3264
  730MOL0     H98544   9.243   8.565   9.679  0.1347  1.3065  0.0412
  730MOL0     H98545   9.119   8.542   9.535  1.6880  0.9718 -0.5483
  730MOL0     H98546   8.943   8.792   9.830  1.3653 -0.9001  4.2667
  730MOL0     H98547   9.354   7.928   9.717  0.2334 -1.4283 -0.1725
  730MOL0     H98548   9.548   7.802   9.673  0.1221  3.5898  0.1104
  730MOL0     H98549   9.698   7.893   9.707 -0.6792 -0.3381 -3.0024
  730MOL0     H98550   9.651   7.754   9.811  4.9965  0.9357 -0.4464
  731MOL0     O98551   4.363  10.718   6.339  0.3129  0.1492 -0.3404
  731MOL0     C98552   4.392  10.623   6.407 -0.4540 -0.1375 -0.3980
  731MOL0     O98553   4.505  10.545   6.404  0.3788 -0.0082 -0.7247
  731MOL0     C98554   4.606  10.581   6.317  0.4355  0.0721  0.1939
  731MOL0     C98555   4.645  10.715   6.309  0.2460 -0.9540  1.3858
  731MOL0     C98556   4.748  10.756   6.224  0.0115  0.2989  0.5722
  731MOL0     C98557   4.804  10.664   6.129 -0.2522 -0.4654  0.0832
  731MOL0     O98558   4.898  10.702   6.034  0.6764  0.3889 -0.4848
  731MOL0     C98559   5.019  10.629   6.027 -0.2577  0.7516  0.7087
  731MOL0     C98560   5.133  10.719   5.965  0.0166  1.2650 -0.2971
  731MOL0     C98561   5.266  10.652   5.961 -0.1519  0.2167  0.1661
  731MOL0     C98562   5.358  10.758   5.909  0.0723 -0.5080 -0.1214
  731MOL0     C98563   5.486  10.696   5.867 -0.0180  1.0519 -0.5587
  731MOL0     C98564   5.570  10.795   5.787 -0.7213 -0.4224  0.3875
  731MOL0     C98565   5.580  10.941   5.832  0.4395 -0.1434 -0.2297
  731MOL0     C98566   5.665  10.964   5.967  0.0562 -0.6113 -0.1136
  731MOL0     N98567   5.794  10.896   5.982 -0.0771 -0.3144 -0.0647
  731MOL0     C98568   5.904  10.923   5.907  0.2295 -0.1204  0.3518
  731MOL0     C98569   6.013  10.904   5.983  0.0458 -0.2588  0.0926
  731MOL0     C98570   6.143  10.949   5.949  0.6297  0.4431  0.1378
  731MOL0     C98571   6.226  10.864   5.853  0.1704  0.3661 -0.3246
  731MOL0     C98572   6.383  10.888   5.834  0.9334 -0.4802  0.1656
  731MOL0     C98573   6.477  10.808   5.923 -0.2813  0.1474  0.1727
  731MOL0     O98574   6.610  10.838   5.892 -0.0656 -0.4085  0.2663
  731MOL0     C98575   6.717  10.776   5.949 -0.7922  0.5662  0.1144
  731MOL0     C98576   6.703  10.670   6.039  0.2298  0.6359  0.4666
  731MOL0     C98577   6.823  10.608   6.091 -0.6269 -0.5614 -0.1023
  731MOL0     C98578   6.953  10.658   6.065 -0.6115  1.1195  0.8670
  731MOL0     C98579   7.067  10.597   6.151  0.3287  0.2205  0.4626
  731MOL0     O98580   7.181  10.671   6.151  0.7981 -0.7221 -0.2277
  731MOL0     C98581   7.296  10.631   6.215  0.5514  0.4966 -0.3088
  731MOL0     C98582   7.283  10.622   6.352 -0.6279  0.3440  0.2437
  731MOL0     C98583   7.394  10.604   6.431 -0.5435  0.6286 -0.8926
  731MOL0     C98584   7.527  10.591   6.380 -0.0469 -0.1087  0.5539
  731MOL0     O98585   7.626  10.571   6.474 -0.4458 -0.7502  0.3492
  731MOL0     C98586   7.740  10.650   6.455 -0.0468  0.5059  0.6188
  731MOL0     C98587   7.807  10.637   6.595  0.0974  0.3769 -0.4662
  731MOL0     C98588   7.940  10.699   6.609 -0.0761  0.2654  0.2929
  731MOL0     C98589   7.977  10.681   6.764  0.1415 -0.7878 -0.2362
  731MOL0     C98590   8.120  10.715   6.792 -0.0536  0.3174 -0.3999
  731MOL0     C98591   8.144  10.869   6.806 -0.2118 -0.0942  0.4628
  731MOL0     C98592   8.247  10.932   6.709 -0.0517 -0.2791  0.6708
  731MOL0     C98593   8.373  10.854   6.726  0.1327 -0.3137 -0.1411
  731MOL0    Cl98594   8.503  10.922   6.628 -0.1460  0.0433  0.3315
  731MOL0     C98595   7.537  10.588   6.241  0.6710  0.1524 -0.6904
  731MOL0     C98596   7.427  10.616   6.160  0.0939  1.0184  0.7837
  731MOL0     O98597   7.060  10.484   6.202 -0.4901 -0.2953 -0.1588
  731MOL0     C98598   6.970  10.749   5.974  0.4479 -0.1656  0.6780
  731MOL0     C98599   6.858  10.821   5.923 -0.1623  0.1797  0.2733
  731MOL0     N98600   5.964  10.896   6.105 -0.2105  0.2421 -0.6102
  731MOL0     N98601   5.836  10.886   6.105 -0.2527  0.2129 -0.6618
  731MOL0     C98602   4.755  10.533   6.135 -0.2948  0.6283 -0.5745
  731MOL0     C98603   4.675  10.490   6.238  0.6524 -0.0522  0.1775
  731MOL0     C98604   4.291  10.584   6.507  0.4320  0.5922  0.1225
  731MOL0     C98605   4.335  10.536   6.637 -0.3997  0.5738 -0.1035
  731MOL0     C98606   4.247  10.517   6.745 -0.0070 -0.3439  0.7561
  731MOL0     C98607   4.112  10.553   6.732 -0.2484  0.8392 -0.7774
  731MOL0     O98608   4.035  10.575   6.846 -0.7947 -0.2900 -0.0091
  731MOL0     C98609   4.034  10.466   6.941 -0.0805  0.0956  0.3233
  731MOL0     C98610   3.893  10.418   6.987 -0.2778 -0.7971  0.1916
  731MOL0     C98611   3.909  10.343   7.117  0.3446 -0.5941  0.8867
  731MOL0     C98612   3.770  10.311   7.163 -0.1134 -0.3421  0.1950
  731MOL0     C98613   3.702  10.218   7.077 -0.8994  0.0004  1.1467
  731MOL0     C98614   3.623  10.145   7.022 -0.1659 -0.0645  0.0435
  731MOL0     C98615   4.070  10.581   6.607  0.3951  0.8559  0.4881
  731MOL0     C98616   4.147  10.593   6.493  0.2239  0.6982  0.5687
  731MOL0     C98617   4.079  10.638   6.374  0.0954  0.7756 -0.1436
  731MOL0     H98618   4.594  10.794   6.363 -1.6851 -1.5216  0.4854
  731MOL0     H98619   4.780  10.859   6.213  1.9821 -0.2590  0.5819
  731MOL0     H98620   5.051  10.588   6.124 -0.9579 -0.7295  0.3430
  731MOL0     H98621   5.005  10.535   5.973 -0.0021  0.8026  0.5494
  731MOL0     H98622   5.126  10.817   6.014 -2.2450  1.3894 -0.7625
  731MOL0     H98623   5.112  10.722   5.858 -1.1123 -0.5779 -0.1883
  731MOL0     H98624   5.267  10.567   5.892 -1.7771 -1.0419  1.6053
  731MOL0     H98625   5.297  10.614   6.059  3.9597  1.7519 -0.3507
  731MOL0     H98626   5.308  10.806   5.824  0.5166  0.4526  0.1457
  731MOL0     H98627   5.366  10.824   5.996 -1.2017  0.2329 -0.5299
  731MOL0     H98628   5.539  10.663   5.956 -0.1376  1.1780 -0.4406
  731MOL0     H98629   5.485  10.609   5.800  3.3738  0.2343  0.2684
  731MOL0     H98630   5.667  10.746   5.786 -1.2022 -1.4417  1.6091
  731MOL0     H98631   5.550  10.791   5.679  0.8645  1.6477 -0.0433
  731MOL0     H98632   5.476  10.971   5.851  0.7139  1.3557 -0.9073
  731MOL0     H98633   5.616  11.007   5.752 -1.5168 -1.8742 -2.6908
  731MOL0     H98634   5.672  11.071   5.988  0.5299 -0.7375  0.3931
  731MOL0     H98635   5.604  10.916   6.044  0.3939  2.1375  2.0277
  731MOL0     H98636   5.902  10.962   5.806  2.5109 -0.4514  0.1172
  731MOL0     H98637   6.160  11.053   5.918 -0.5751  0.2648 -1.2041
  731MOL0     H98638   6.202  10.935   6.041  0.4972  0.5757  0.2428
  731MOL0     H98639   6.206  10.760   5.880  0.0412  0.4250 -0.1851
  731MOL0     H98640   6.193  10.880   5.750  1.0049  1.3954 -0.4503
  731MOL0     H98641   6.407  10.995   5.837 -1.2204  0.0831 -0.6933
  731MOL0     H98642   6.414  10.847   5.737 -0.0679  1.5694 -1.0867
  731MOL0     H98643   6.470  10.701   5.904  1.4707  0.1819 -0.8511
  731MOL0     H98644   6.453  10.824   6.029  1.0590 -3.6972  1.2237
  731MOL0     H98645   6.607  10.625   6.063 -0.2895  0.4516 -1.7481
  731MOL0     H98646   6.810  10.536   6.170 -2.4112  0.4308  0.5560
  731MOL0     H98647   7.185  10.642   6.393 -0.3423  0.9542  0.6419
  731MOL0     H98648   7.375  10.603   6.538  0.6533 -0.1211 -0.6710
  731MOL0     H98649   7.812  10.614   6.381 -1.2621 -0.3641 -0.1838
  731MOL0     H98650   7.716  10.753   6.425 -1.6505 -0.8346 -3.4898
  731MOL0     H98651   7.734  10.672   6.668  2.9814 -1.4164  3.6803
  731MOL0     H98652   7.816  10.530   6.617 -1.6390  0.7556  2.6159
  731MOL0     H98653   8.015  10.648   6.548 -0.1430  1.4260 -0.8075
  731MOL0     H98654   7.940  10.802   6.571  0.3911 -0.3058 -1.3232
  731MOL0     H98655   7.961  10.576   6.793 -0.1369 -0.5022  0.6685
  731MOL0     H98656   7.911  10.743   6.824  1.6784  0.8387 -0.1378
  731MOL0     H98657   8.178  10.657   6.720 -0.6880  1.5132 -1.9544
  731MOL0     H98658   8.145  10.688   6.894  2.4664  5.2840  0.6294
  731MOL0     H98659   8.047  10.919   6.796 -0.7651 -0.7662  2.0820
  731MOL0     H98660   8.183  10.889   6.907 -2.0599  0.3502  1.1362
  731MOL0     H98661   8.269  11.038   6.728 -1.2452 -0.0722  1.0208
  731MOL0     H98662   8.210  10.928   6.607  0.6874  1.3444  0.3064
  731MOL0     H98663   8.392  10.854   6.833 -3.6991  1.4235  0.7133
  731MOL0     H98664   8.356  10.755   6.684 -2.2524 -0.1227  0.2278
  731MOL0     H98665   7.635  10.581   6.195  1.6911 -4.0215  1.5505
  731MOL0     H98666   7.447  10.608   6.054  0.1064 -1.2065  0.9047
  731MOL0     H98667   7.071  10.782   5.952 -0.0527 -0.0465 -1.7964
  731MOL0     H98668   6.868  10.907   5.857 -2.8870 -1.3758 -2.3645
  731MOL0     H98669   4.782  10.460   6.060 -0.9533  0.7675 -0.9477
  731MOL0     H98670   4.656  10.384   6.248  0.0923 -0.2814 -2.5533
  731MOL0     H98671   4.441  10.521   6.656 -0.9731 -0.5359  2.6034
  731MOL0     H98672   4.283  10.477   6.839  0.6114 -1.6771 -0.0207
  731MOL0     H98673   4.093  10.514   7.019 -0.2660 -0.1446  0.6151
  731MOL0     H98674   4.077  10.371   6.907 -1.0736 -0.6252  1.0116
  731MOL0     H98675   3.860  10.349   6.909  0.8878 -0.3551 -0.7339
  731MOL0     H98676   3.839  10.513   6.997  0.3474 -0.0595 -2.4922
  731MOL0     H98677   3.954  10.407   7.193 -1.4286  0.7242  0.8912
  731MOL0     H98678   3.973  10.256   7.100  0.1130 -0.6921  0.5147
  731MOL0     H98679   3.773  10.272   7.265  0.5372 -2.8476 -0.6965
  731MOL0     H98680   3.695  10.391   7.167 -3.4218 -3.1995  0.1763
  731MOL0     H98681   3.548  10.080   6.980 -1.1450 -0.2735  2.0077
  731MOL0     H98682   3.971  10.623   6.590  0.0591 -1.1649 -3.9845
  731MOL0     H98683   4.094  10.744   6.351 -0.9021  1.2722  1.3305
  731MOL0     H98684   4.119  10.572   6.296  0.9758  0.2529  0.7251
  731MOL0     H98685   3.973  10.615   6.389  0.3470  0.0927  0.7084
  732MOL0     O98686   8.105  10.775   4.536  0.3810 -0.8415 -0.3150
  732MOL0     C98687   8.100  10.894   4.507 -0.2437 -0.2341  0.0803
  732MOL0     O98688   8.208  10.966   4.458 -0.5857  0.3703 -0.4152
  732MOL0     C98689   8.342  10.955   4.488 -0.5599  0.5206 -0.3505
  732MOL0     C98690   8.406  10.849   4.553 -0.0435  0.0659  0.2294
  732MOL0     C98691   8.546  10.843   4.572  0.1834  1.0374 -0.4420
  732MOL0     C98692   8.629  10.946   4.529 -0.4442 -0.9058  0.7252
  732MOL0     O98693   8.764  10.961   4.541  0.3703  0.4791  0.6635
  732MOL0     C98694   8.847  10.851   4.598  0.1735  0.9283  0.0447
  732MOL0     C98695   8.930  10.805   4.483 -1.0289  0.9484 -0.2014
  732MOL0     C98696   8.868  10.694   4.409  0.1016 -0.5408 -0.1560
  732MOL0     C98697   8.968  10.592   4.344 -0.0401 -0.5498  0.5867
  732MOL0     C98698   8.898  10.461   4.295  0.3681 -0.0047 -1.0565
  732MOL0     C98699   8.805  10.486   4.177 -0.4371 -0.3771  1.1946
  732MOL0     C98700   8.724  10.366   4.142  0.1245  0.7274 -0.1869
  732MOL0     C98701   8.599  10.342   4.223 -0.3334 -0.4405 -0.8171
  732MOL0     N98702   8.502  10.457   4.200 -0.5005 -0.0662  0.4733
  732MOL0     C98703   8.438  10.542   4.281 -0.4111  0.7994  0.3589
  732MOL0     C98704   8.374  10.625   4.199  0.1352 -0.5511 -0.0904
  732MOL0     C98705   8.307  10.747   4.238  1.2254 -1.0429  0.0590
  732MOL0     C98706   8.193  10.777   4.138  0.1701  0.5449  0.1798
  732MOL0     C98707   8.087  10.665   4.124 -0.0652 -0.0692  0.4310
  732MOL0     C98708   7.985  10.711   4.022  0.0510 -0.7643  0.0779
  732MOL0     O98709   7.861  10.627   4.013 -0.2298  0.1906 -0.1029
  732MOL0     C98710   7.788  10.610   4.132  0.5541 -0.4080  0.2615
  732MOL0     C98711   7.725  10.491   4.144 -0.2598 -0.2339  0.2959
  732MOL0     C98712   7.638  10.470   4.252 -0.1684  0.7292  0.9477
  732MOL0     C98713   7.616  10.574   4.346 -0.8970 -0.0022 -0.5865
  732MOL0     C98714   7.540  10.544   4.462  0.3133  0.5383 -0.0680
  732MOL0     O98715   7.479  10.413   4.464  0.0201 -1.1634 -0.9587
  732MOL0     C98716   7.388  10.382   4.560 -0.1431  0.9042  0.6105
  732MOL0     C98717   7.398  10.400   4.695 -0.1727  0.2695  0.2093
  732MOL0     C98718   7.311  10.342   4.791 -0.6758 -0.4156 -0.6668
  732MOL0     C98719   7.203  10.262   4.755  0.0840 -1.1547  0.3955
  732MOL0     O98720   7.126  10.228   4.860  0.4619 -0.3267 -0.5955
  732MOL0     C98721   6.992  10.187   4.846  1.0658  0.3724 -0.2145
  732MOL0     C98722   6.893  10.290   4.789 -0.1159 -0.8031 -0.2497
  732MOL0     C98723   6.745  10.249   4.809 -0.3296  0.0305 -0.0235
  732MOL0     C98724   6.666  10.363   4.733 -0.4076 -0.8238 -0.3907
  732MOL0     C98725   6.519  10.319   4.722 -0.2859 -0.7147  0.3254
  732MOL0     C98726   6.495  10.198   4.626 -0.6291 -0.1052 -0.1392
  732MOL0     C98727   6.564  10.181   4.491 -0.4621  0.0893  0.5017
  732MOL0     C98728   6.531  10.295   4.403 -0.6030 -1.0078  0.9358
  732MOL0    Cl98729   6.361  10.347   4.402 -0.4008 -0.0392 -0.2663
  732MOL0     C98730   7.186  10.244   4.619 -1.3147  1.3548  0.2473
  732MOL0     C98731   7.276  10.308   4.525 -0.2464 -0.0667 -0.0454
  732MOL0     O98732   7.506  10.638   4.532  0.1033  0.7977  0.3890
  732MOL0     C98733   7.683  10.694   4.335 -0.2137 -0.6368 -0.1633
  732MOL0     C98734   7.766  10.709   4.230 -0.0459 -0.5006  0.4146
  732MOL0     N98735   8.392  10.584   4.064  0.8039  0.3984 -0.7321
  732MOL0     N98736   8.478  10.491   4.067 -0.5596 -0.0553  0.1870
  732MOL0     C98737   8.563  11.054   4.465  0.3714 -0.7575  0.3651
  732MOL0     C98738   8.425  11.056   4.443  0.1040  0.7401  0.8739
  732MOL0     C98739   7.980  10.984   4.536 -0.3392 -0.3159  0.4241
  732MOL0     C98740   7.978  11.111   4.474  0.5338 -0.6728  0.2636
  732MOL0     C98741   7.875  11.205   4.501 -1.0780 -0.5292 -0.1569
  732MOL0     C98742   7.765  11.169   4.575 -0.0724  0.0253  0.4363
  732MOL0     O98743   7.671  11.271   4.579 -0.9573  0.2038 -0.4783
  732MOL0     C98744   7.572  11.279   4.684 -0.2450  0.9491 -0.1719
  732MOL0     C98745   7.506  11.410   4.659  0.2123  0.3648 -0.3924
  732MOL0     C98746   7.423  11.428   4.526 -0.8479  0.1949  0.1035
  732MOL0     C98747   7.279  11.420   4.526 -0.2661  0.3908 -0.0568
  732MOL0     C98748   7.240  11.283   4.587 -0.5714  0.1408 -0.1075
  732MOL0     C98749   7.202  11.176   4.629  0.8542 -1.2008 -0.4053
  732MOL0     C98750   7.757  11.039   4.626  0.0393  0.0557 -0.0468
  732MOL0     C98751   7.870  10.952   4.616  0.3192 -0.7210 -0.4187
  732MOL0     C98752   7.855  10.827   4.691 -0.4519 -0.2034  0.8757
  732MOL0     H98753   8.352  10.759   4.584  2.0385 -0.6580  2.0281
  732MOL0     H98754   8.585  10.754   4.620 -1.9287  0.0976 -0.3849
  732MOL0     H98755   8.914  10.899   4.670  0.6256  1.0733 -0.4567
  732MOL0     H98756   8.796  10.762   4.636 -0.2620  0.1607 -2.1848
  732MOL0     H98757   9.019  10.750   4.515 -1.1259  1.5329  1.1197
  732MOL0     H98758   8.958  10.886   4.414 -1.7985  2.2735  1.0016
  732MOL0     H98759   8.797  10.734   4.335 -0.1700  0.1887  0.4879
  732MOL0     H98760   8.811  10.633   4.480 -0.2201 -1.8116 -1.4517
  732MOL0     H98761   9.020  10.648   4.266  0.2254  0.7294  1.6332
  732MOL0     H98762   9.045  10.565   4.417 -0.8184  2.0321  2.5448
  732MOL0     H98763   8.976  10.389   4.268 -0.2193 -0.2666 -2.1009
  732MOL0     H98764   8.846  10.418   4.381  1.5200 -0.0273 -0.3381
  732MOL0     H98765   8.731  10.567   4.177 -0.7391 -0.3563 -3.6224
  732MOL0     H98766   8.869  10.516   4.094 -0.3661 -1.1029  0.9827
  732MOL0     H98767   8.786  10.277   4.157 -1.7595 -0.4360  1.2902
  732MOL0     H98768   8.691  10.368   4.037  3.6390  1.6355 -1.3909
  732MOL0     H98769   8.551  10.246   4.203  3.3437 -3.4732  2.9315
  732MOL0     H98770   8.627  10.341   4.329 -4.2773  1.4354  0.4502
  732MOL0     H98771   8.444  10.541   4.389  0.2018  1.3518  0.3338
  732MOL0     H98772   8.259  10.732   4.335  2.0446  1.0080  0.8355
  732MOL0     H98773   8.367  10.837   4.257  0.1736 -0.7492  2.2852
  732MOL0     H98774   8.142  10.869   4.169  0.2057  0.7892 -0.4684
  732MOL0     H98775   8.243  10.805   4.044 -0.8635  0.6873 -0.3331
  732MOL0     H98776   8.030  10.653   4.217 -0.4405  1.5921  0.4518
  732MOL0     H98777   8.124  10.568   4.090  0.6960  0.0536  0.8883
  732MOL0     H98778   8.028  10.711   3.922  1.3717  0.9229  0.5976
  732MOL0     H98779   7.957  10.815   4.042  1.7942 -0.4649  1.1638
  732MOL0     H98780   7.754  10.413   4.074  0.0645  1.7694 -1.8883
  732MOL0     H98781   7.576  10.381   4.241 -2.4639  2.4071 -0.5359
  732MOL0     H98782   7.481  10.461   4.732 -0.7198  0.0746  1.8192
  732MOL0     H98783   7.335  10.353   4.897 -1.3477 -1.7556 -0.3536
  732MOL0     H98784   6.989  10.112   4.766  4.4348  0.0717 -0.2056
  732MOL0     H98785   6.952  10.154   4.943 -0.5007  2.4106 -0.1186
  732MOL0     H98786   6.909  10.386   4.840 -1.9433  0.5932 -2.1133
  732MOL0     H98787   6.910  10.304   4.682  1.1038  0.8078  0.1112
  732MOL0     H98788   6.728  10.155   4.756 -0.3053  0.2602 -0.4397
  732MOL0     H98789   6.711  10.234   4.912 -0.6531 -1.7157 -0.3482
  732MOL0     H98790   6.707  10.400   4.639 -0.0779 -0.8458 -0.2608
  732MOL0     H98791   6.660  10.449   4.800  3.0795 -2.9439  3.1576
  732MOL0     H98792   6.464  10.405   4.684  0.7133 -0.2004 -0.0041
  732MOL0     H98793   6.481  10.286   4.819  0.6604  0.2696  1.0614
  732MOL0     H98794   6.500  10.100   4.675 -0.1569  1.2122  2.6219
  732MOL0     H98795   6.389  10.212   4.602 -0.8694 -2.0458 -0.3881
  732MOL0     H98796   6.523  10.096   4.436 -2.1755  2.2475 -1.8346
  732MOL0     H98797   6.671  10.164   4.505  0.2510  1.7257 -2.2639
  732MOL0     H98798   6.589  10.380   4.441  0.9600 -1.9536  0.7504
  732MOL0     H98799   6.562  10.278   4.299 -0.5392 -0.0197  0.7802
  732MOL0     H98800   7.100  10.184   4.589 -3.8442  3.6295  2.3971
  732MOL0     H98801   7.256  10.295   4.419  1.2610  2.0580 -0.6632
  732MOL0     H98802   7.663  10.779   4.400 -0.2680 -1.3464  0.7574
  732MOL0     H98803   7.805  10.810   4.233  0.2901 -0.5901 -0.6477
  732MOL0     H98804   8.607  11.144   4.424 -0.4344 -0.2307  0.6174
  732MOL0     H98805   8.385  11.133   4.378  2.3369 -0.9445 -2.7436
  732MOL0     H98806   8.059  11.146   4.410 -0.8479  4.5154  0.9104
  732MOL0     H98807   7.880  11.305   4.460 -1.9140 -0.3759  0.1023
  732MOL0     H98808   7.612  11.272   4.786 -1.0212  0.4436  0.1055
  732MOL0     H98809   7.499  11.199   4.670  1.0896  0.1205 -3.1376
  732MOL0     H98810   7.588  11.482   4.653 -1.4399  2.2043 -2.5506
  732MOL0     H98811   7.441  11.433   4.743 -0.9636  2.3281 -1.7775
  732MOL0     H98812   7.466  11.358   4.454 -1.6932 -0.9678  0.6933
  732MOL0     H98813   7.441  11.528   4.487 -4.4343  0.3744 -1.4574
  732MOL0     H98814   7.238  11.500   4.589 -1.4684  1.9110 -2.6147
  732MOL0     H98815   7.240  11.431   4.425  0.4585 -0.5960 -0.4515
  732MOL0     H98816   7.157  11.085   4.662 -4.6723  0.3309 -2.5615
  732MOL0     H98817   7.670  11.014   4.685 -1.5157  1.1941 -1.7575
  732MOL0     H98818   7.944  10.783   4.737  0.1405  1.1630  1.0865
  732MOL0     H98819   7.779  10.845   4.768 -4.4571 -3.7298 -1.8005
  732MOL0     H98820   7.817  10.746   4.628  0.0370 -0.2162  0.5946
  733MOL0     O98821   6.349  10.008   2.530  0.5075  0.1249  0.3052
  733MOL0     C98822   6.295  10.113   2.561 -0.6384  0.4107  0.3234
  733MOL0     O98823   6.355  10.231   2.550  0.7850 -0.1923 -0.4195
  733MOL0     C98824   6.485  10.227   2.508 -0.4267  0.4016 -0.8143
  733MOL0     C98825   6.578  10.208   2.602  0.1781  0.6731  0.2448
  733MOL0     C98826   6.717  10.208   2.574 -0.6836  0.1458 -0.4089
  733MOL0     C98827   6.755  10.234   2.447 -0.0624  0.6323  0.3332
  733MOL0     O98828   6.891  10.231   2.421  0.6005  0.1736  0.2126
  733MOL0     C98829   6.932  10.123   2.333 -0.4769  0.1774  0.0267
  733MOL0     C98830   7.081  10.115   2.353  0.8684 -0.6290 -0.1686
  733MOL0     C98831   7.113  10.050   2.482 -0.3426 -0.2198 -1.1288
  733MOL0     C98832   7.264  10.028   2.477 -0.1184  0.3577  0.4299
  733MOL0     C98833   7.323  10.026   2.609  0.0921  0.5260  0.3370
  733MOL0     C98834   7.345  10.159   2.667  0.6447  0.2372 -0.1887
  733MOL0     C98835   7.437  10.132   2.781  0.4069 -0.6182 -0.5125
  733MOL0     C98836   7.433  10.263   2.866  0.2329  0.2398 -0.4215
  733MOL0     N98837   7.528  10.361   2.810 -0.4098 -0.2147 -0.1804
  733MOL0     C98838   7.656  10.388   2.846 -0.8425  0.9522  0.2769
  733MOL0     C98839   7.694  10.495   2.765  0.6272  0.4176 -0.1587
  733MOL0     C98840   7.821  10.565   2.773  0.6819  0.7802  0.2316
  733MOL0     C98841   7.898  10.569   2.644  0.0309 -0.5579 -0.4587
  733MOL0     C98842   7.927  10.430   2.597 -0.5305 -0.7974 -0.4711
  733MOL0     C98843   8.021  10.435   2.478 -0.9409  0.7360  0.1514
  733MOL0     O98844   8.154  10.466   2.509 -1.0213 -0.2203  0.4449
  733MOL0     C98845   8.244  10.471   2.405 -0.8913 -1.0008  0.2685
  733MOL0     C98846   8.384  10.496   2.435 -0.7790 -0.4119  0.4988
  733MOL0     C98847   8.478  10.518   2.333 -0.5792 -0.8531  0.5385
  733MOL0     C98848   8.429  10.523   2.199 -0.1086  0.4385  0.3018
  733MOL0     C98849   8.516  10.565   2.093 -0.0187 -1.0772  0.3205
  733MOL0     O98850   8.479  10.543   1.964 -0.2308 -0.3506  0.0155
  733MOL0     C98851   8.557  10.591   1.863 -0.0288 -0.2478 -0.0209
  733MOL0     C98852   8.699  10.590   1.874 -0.3023 -0.4245  0.5239
  733MOL0     C98853   8.778  10.626   1.761 -0.9844  0.1738 -1.2253
  733MOL0     C98854   8.718  10.675   1.641  0.0805 -0.5055 -0.4496
  733MOL0     O98855   8.789  10.741   1.547  0.1765  0.3659 -0.1311
  733MOL0     C98856   8.912  10.806   1.583 -0.3304  0.4367  0.8601
  733MOL0     C98857   8.967  10.912   1.477  0.6278 -0.0740  0.6592
  733MOL0     C98858   9.122  10.908   1.452 -0.2794  0.2804  0.5175
  733MOL0     C98859   9.182  11.048   1.438  0.1659 -0.9736 -0.4810
  733MOL0     C98860   9.322  11.044   1.370 -0.3197  0.1401  0.3713
  733MOL0     C98861   9.400  11.172   1.390  1.2281  0.5117  0.1693
  733MOL0     C98862   9.545  11.159   1.340 -0.1470 -0.6169 -0.9239
  733MOL0     C98863   9.618  11.298   1.332 -0.7548  0.0285 -0.4235
  733MOL0    Cl98864   9.626  11.362   1.499  0.6022 -0.2842  0.0308
  733MOL0     C98865   8.576  10.670   1.634 -0.1322  0.3196  0.0495
  733MOL0     C98866   8.499  10.627   1.741 -0.0893  0.7336  0.0544
  733MOL0     O98867   8.611  10.632   2.123 -0.1140 -0.5054  0.0981
  733MOL0     C98868   8.292  10.503   2.169  0.3119  0.5590  1.0126
  733MOL0     C98869   8.201  10.483   2.272  0.2945  0.9501  0.4920
  733MOL0     N98870   7.586  10.532   2.694 -0.2699  0.7015  0.9156
  733MOL0     N98871   7.488  10.456   2.724  0.2124  0.0433  1.1140
  733MOL0     C98872   6.663  10.253   2.336  1.0285  0.4989 -0.2099
  733MOL0     C98873   6.529  10.255   2.374  1.1773  0.4239  0.0672
  733MOL0     C98874   6.152  10.113   2.604 -0.7010 -0.2850 -0.1838
  733MOL0     C98875   6.078   9.993   2.595 -0.1360 -0.5817  0.1074
  733MOL0     C98876   5.938   9.986   2.616 -0.5524  0.1188  0.0342
  733MOL0     C98877   5.867  10.100   2.637 -0.6938  0.6081 -0.7817
  733MOL0     O98878   5.731  10.109   2.645  0.2157  0.6793 -0.3181
  733MOL0     C98879   5.649   9.991   2.638  0.2182  0.0579  0.7584
  733MOL0     C98880   5.509  10.031   2.602 -0.3619  0.4650 -0.3484
  733MOL0     C98881   5.438  10.103   2.713  0.7614 -0.1281 -0.2964
  733MOL0     C98882   5.409  10.251   2.677  0.0174  0.8284 -0.2543
  733MOL0     C98883   5.346  10.319   2.786  0.3692  0.1861  0.0586
  733MOL0     C98884   5.323  10.374   2.889 -0.4697 -0.8087  0.4041
  733MOL0     C98885   5.940  10.220   2.658  0.4226 -0.4306  0.1995
  733MOL0     C98886   6.077  10.234   2.645  0.4662 -0.1074 -0.8352
  733MOL0     C98887   6.139  10.366   2.680 -0.1661  1.3799 -0.2708
  733MOL0     H98888   6.553  10.199   2.707 -0.3489  1.2750  0.1757
  733MOL0     H98889   6.783  10.212   2.659 -1.2280  3.7614 -0.0246
  733MOL0     H98890   6.869  10.037   2.356  0.5876 -0.6876 -0.2270
  733MOL0     H98891   6.903  10.141   2.229 -0.8396  0.7346  0.2205
  733MOL0     H98892   7.119  10.217   2.343 -3.6200  1.1185 -1.8591
  733MOL0     H98893   7.129  10.051   2.278  2.1697 -1.3990  1.2631
  733MOL0     H98894   7.055   9.958   2.495 -1.6820  0.4028 -2.4980
  733MOL0     H98895   7.085  10.122   2.559 -0.6207 -1.6485  0.1457
  733MOL0     H98896   7.284   9.937   2.421  2.8599  2.5569 -2.4851
  733MOL0     H98897   7.315  10.101   2.414 -1.3143 -0.1310 -1.1731
  733MOL0     H98898   7.265   9.966   2.680  1.7708 -1.4912  0.0965
  733MOL0     H98899   7.413   9.965   2.599 -2.2842 -3.0528 -1.8138
  733MOL0     H98900   7.381  10.243   2.607  3.3410 -1.7630 -1.5930
  733MOL0     H98901   7.249  10.192   2.708  0.5451 -0.9090  0.5649
  733MOL0     H98902   7.542  10.111   2.761  1.0448  1.1656  0.6394
  733MOL0     H98903   7.393  10.058   2.849  0.2077  0.0486  0.1059
  733MOL0     H98904   7.330  10.298   2.868 -0.1678 -0.9208  1.3267
  733MOL0     H98905   7.464  10.233   2.967 -0.3236 -0.2857 -0.4004
  733MOL0     H98906   7.721  10.344   2.920  0.1216  1.1731 -0.4205
  733MOL0     H98907   7.792  10.668   2.797 -2.4809 -0.1370  0.7944
  733MOL0     H98908   7.882  10.521   2.853  4.1128  0.2110 -2.4437
  733MOL0     H98909   7.844  10.608   2.558  0.1360 -2.1068 -1.2630
  733MOL0     H98910   7.986  10.632   2.657  1.0280 -2.0803  0.5696
  733MOL0     H98911   7.833  10.384   2.565  0.4009 -2.4129 -1.0016
  733MOL0     H98912   7.972  10.359   2.667 -1.2374 -1.8325 -1.0238
  733MOL0     H98913   7.972  10.491   2.398 -3.7419  1.5605  2.2984
  733MOL0     H98914   8.031  10.334   2.436  3.1227 -0.3272  3.0242
  733MOL0     H98915   8.425  10.490   2.535 -0.3547 -1.2776  0.2791
  733MOL0     H98916   8.586  10.518   2.345 -0.5245 -1.0644  0.0869
  733MOL0     H98917   8.750  10.545   1.959  1.2978 -2.6326 -1.4672
  733MOL0     H98918   8.886  10.618   1.766 -1.0394  0.0054  1.8981
  733MOL0     H98919   8.906  10.863   1.676 -3.5031  1.0352  0.4059
  733MOL0     H98920   8.994  10.735   1.596  1.8241  3.0266  2.4872
  733MOL0     H98921   8.917  10.901   1.380  0.7940 -0.3620  0.6038
  733MOL0     H98922   8.940  11.008   1.522 -0.2970 -0.1004  0.1956
  733MOL0     H98923   9.172  10.865   1.540  0.3380 -1.4051 -0.6182
  733MOL0     H98924   9.158  10.844   1.372  2.2335 -3.5561  4.2738
  733MOL0     H98925   9.198  11.099   1.534  2.3048 -0.7054 -0.9182
  733MOL0     H98926   9.120  11.103   1.366  0.0088 -1.0032 -0.3679
  733MOL0     H98927   9.311  11.036   1.261  1.2213  0.5797  0.1588
  733MOL0     H98928   9.380  10.957   1.404  0.4187  1.5501  2.9404
  733MOL0     H98929   9.352  11.255   1.339 -3.1036  0.0574  2.9722
  733MOL0     H98930   9.399  11.192   1.498  0.6380 -0.5326  0.3770
  733MOL0     H98931   9.551  11.122   1.238  1.5565 -2.6164 -0.1762
  733MOL0     H98932   9.598  11.087   1.403  0.1642  1.7750  1.7885
  733MOL0     H98933   9.717  11.295   1.286 -1.0462 -3.9794 -1.1340
  733MOL0     H98934   9.546  11.354   1.271 -3.1281 -0.6101  1.6423
  733MOL0     H98935   8.519  10.709   1.550 -1.3490 -2.2136 -0.3932
  733MOL0     H98936   8.395  10.605   1.718  0.3276  0.7456 -2.0351
  733MOL0     H98937   8.246  10.508   2.071 -0.7876  1.3160  1.5350
  733MOL0     H98938   8.100  10.465   2.236 -0.3355  3.4229  0.8585
  733MOL0     H98939   6.683  10.260   2.230 -0.3869 -1.7616 -0.7015
  733MOL0     H98940   6.443  10.270   2.310 -0.6633  0.6907  2.4656
  733MOL0     H98941   6.117   9.896   2.566 -0.4229  0.1758 -3.1075
  733MOL0     H98942   5.887   9.892   2.599  1.9036 -1.4064  0.5308
  733MOL0     H98943   5.655   9.935   2.732 -0.4536 -2.3013 -0.5382
  733MOL0     H98944   5.689   9.919   2.567 -0.4391 -0.4370  0.8856
  733MOL0     H98945   5.446   9.947   2.573 -3.7045  2.7194 -0.2839
  733MOL0     H98946   5.520  10.095   2.513 -0.3672 -0.5330 -1.0788
  733MOL0     H98947   5.483  10.104   2.812 -0.9209 -1.2095  0.5321
  733MOL0     H98948   5.339  10.058   2.730 -0.2090  1.7010 -0.8572
  733MOL0     H98949   5.505  10.301   2.661  0.9714 -1.2745 -1.4440
  733MOL0     H98950   5.352  10.245   2.583  0.3198 -2.6785 -0.3318
  733MOL0     H98951   5.308  10.430   2.979 -0.6117  0.7339 -0.5544
  733MOL0     H98952   5.873  10.298   2.693  0.8736  1.4448 -2.7690
  733MOL0     H98953   6.069  10.450   2.685 -0.1837  1.3363  0.2136
  733MOL0     H98954   6.185  10.364   2.779  0.2665  1.2820 -0.4702
  733MOL0     H98955   6.209  10.398   2.602 -2.1214  0.2452 -2.6506
  734MOL0     O98956   1.624   5.407   3.984 -0.2012 -0.5356  0.1854
  734MOL0     C98957   1.631   5.458   3.874  0.0799 -0.2910  0.0572
  734MOL0     O98958   1.746   5.493   3.808 -0.4116 -0.6614 -0.1343
  734MOL0     C98959   1.858   5.473   3.881 -0.3761 -0.2101  0.0724
  734MOL0     C98960   1.950   5.583   3.899 -0.2706 -0.3826 -0.1928
  734MOL0     C98961   2.071   5.556   3.956 -0.2587  0.7827 -0.8808
  734MOL0     C98962   2.112   5.437   4.004  0.1742  0.2587 -0.8269
  734MOL0     O98963   2.229   5.431   4.075 -0.2378  0.2154 -0.2402
  734MOL0     C98964   2.340   5.394   3.989 -0.1537 -0.3910 -0.2974
  734MOL0     C98965   2.448   5.361   4.091 -0.7904  0.1281  0.4462
  734MOL0     C98966   2.493   5.493   4.159 -0.5044 -0.3880 -0.5988
  734MOL0     C98967   2.639   5.474   4.210  0.9403  1.1076  0.1127
  734MOL0     C98968   2.689   5.554   4.339 -0.1723  0.0956 -0.1122
  734MOL0     C98969   2.621   5.523   4.471 -0.3216  1.3846  0.1254
  734MOL0     C98970   2.730   5.471   4.573  0.7586  0.1592 -0.8111
  734MOL0     C98971   2.829   5.577   4.612 -0.7320  0.0064 -0.8123
  734MOL0     N98972   2.941   5.511   4.679  0.1091 -0.3078 -0.3719
  734MOL0     C98973   2.924   5.446   4.797 -0.3937  0.4893 -0.3316
  734MOL0     C98974   3.049   5.398   4.831 -0.0568  0.3521 -0.3918
  734MOL0     C98975   3.084   5.311   4.948 -0.2743 -1.1040  0.5798
  734MOL0     C98976   3.036   5.167   4.916 -0.4348  0.3643  0.1999
  734MOL0     C98977   3.028   5.078   5.039  0.8976 -0.3337  0.0245
  734MOL0     C98978   3.160   5.057   5.117 -0.0646 -1.3798  0.4893
  734MOL0     O98979   3.228   5.187   5.158  0.8054 -0.5639  0.4151
  734MOL0     C98980   3.331   5.181   5.241  0.4363 -0.3193  0.8265
  734MOL0     C98981   3.402   5.065   5.277  0.3139 -0.8841  0.2563
  734MOL0     C98982   3.537   5.082   5.318  0.1959 -0.5045 -0.1668
  734MOL0     C98983   3.589   5.214   5.354  1.2898  0.1754 -0.0228
  734MOL0     C98984   3.714   5.225   5.421 -0.1629 -0.2842 -0.8643
  734MOL0     O98985   3.736   5.121   5.499  0.4653  0.0638  0.5499
  734MOL0     C98986   3.856   5.101   5.570  0.0632  0.0399  0.1553
  734MOL0     C98987   3.912   5.203   5.641  0.0735 -0.1163 -0.4324
  734MOL0     C98988   4.034   5.190   5.707 -0.1076  0.8198 -0.2097
  734MOL0     C98989   4.099   5.069   5.704  0.4417 -0.1482  0.2218
  734MOL0     O98990   4.220   5.043   5.755 -0.3317  0.1915 -0.0300
  734MOL0     C98991   4.311   5.157   5.761  0.1241 -0.2141 -0.3258
  734MOL0     C98992   4.452   5.089   5.758  0.8270 -0.5573  0.6790
  734MOL0     C98993   4.493   5.027   5.625 -0.1223 -0.2469 -0.0658
  734MOL0     C98994   4.634   4.962   5.659  0.2386  0.2310 -0.4044
  734MOL0     C98995   4.691   4.899   5.531 -0.7052  0.3166  0.0924
  734MOL0     C98996   4.821   4.984   5.491 -0.0963 -0.4722  0.0639
  734MOL0     C98997   4.795   5.119   5.417 -0.3649 -1.0917  0.5673
  734MOL0     C98998   4.899   5.232   5.440 -0.8378 -0.0650  0.7111
  734MOL0    Cl98999   4.826   5.388   5.414 -0.1363  0.1779 -0.0896
  734MOL0     C99000   4.039   4.955   5.639 -0.3430  0.7952 -0.0491
  734MOL0     C99001   3.910   4.973   5.578  0.7518 -1.0467  0.1006
  734MOL0     O99002   3.804   5.308   5.383 -0.0155 -0.3109 -0.5411
  734MOL0     C99003   3.502   5.326   5.333 -0.4867 -0.0775  0.1289
  734MOL0     C99004   3.383   5.316   5.265  0.0913  0.5400 -0.5350
  734MOL0     N99005   3.138   5.441   4.733 -0.0892 -0.2899  0.8772
  734MOL0     N99006   3.076   5.509   4.647  0.2880 -0.5246  0.2600
  734MOL0     C99007   2.027   5.322   3.972  0.1820  0.8900 -0.8072
  734MOL0     C99008   1.904   5.343   3.920 -0.4262  0.6865 -0.1836
  734MOL0     C99009   1.497   5.491   3.801 -0.0011 -1.2744 -0.9478
  734MOL0     C99010   1.393   5.392   3.795 -0.5479 -0.3430 -0.2090
  734MOL0     C99011   1.269   5.430   3.732  0.2663 -0.1938 -0.3124
  734MOL0     C99012   1.256   5.558   3.679 -0.7571  0.1040  0.5258
  734MOL0     O99013   1.137   5.599   3.620 -1.1423 -0.2840  0.1005
  734MOL0     C99014   1.085   5.511   3.526  0.8467  0.6623  0.5503
  734MOL0     C99015   0.971   5.566   3.452 -1.0047 -0.1352  0.4092
  734MOL0     C99016   1.010   5.683   3.361 -0.2577 -0.4803  0.1685
  734MOL0     C99017   0.891   5.738   3.287  0.1057 -0.0732  0.2336
  734MOL0     C99018   0.798   5.810   3.376 -0.3596  1.4359  0.5480
  734MOL0     C99019   0.722   5.867   3.445  0.3679 -0.8075  0.8484
  734MOL0     C99020   1.349   5.659   3.699 -1.2241  0.2641  0.2250
  734MOL0     C99021   1.475   5.621   3.752  0.3844 -0.6955 -0.0825
  734MOL0     C99022   1.563   5.739   3.771 -0.3805  0.2085 -0.1432
  734MOL0     H99023   1.932   5.686   3.871 -0.9496 -0.4363  0.0417
  734MOL0     H99024   2.131   5.639   3.989  0.1019  0.4791 -0.7642
  734MOL0     H99025   2.333   5.302   3.930  1.4677 -0.9582  0.3503
  734MOL0     H99026   2.373   5.471   3.919  1.2706 -0.9978 -0.3221
  734MOL0     H99027   2.535   5.314   4.043  0.4601  2.4001  0.3248
  734MOL0     H99028   2.413   5.294   4.170 -1.3001 -0.2989 -0.1379
  734MOL0     H99029   2.427   5.519   4.242 -1.0809  2.2456 -1.7713
  734MOL0     H99030   2.489   5.572   4.083 -3.6948  1.1575  1.0292
  734MOL0     H99031   2.666   5.369   4.230  1.0746  1.4599  1.9678
  734MOL0     H99032   2.700   5.513   4.129  1.2724 -1.8086 -1.1879
  734MOL0     H99033   2.795   5.529   4.349 -0.2793 -1.3858 -1.9474
  734MOL0     H99034   2.676   5.662   4.328 -1.7086  0.7096  4.9510
  734MOL0     H99035   2.564   5.608   4.510 -0.5340  0.3100  2.3437
  734MOL0     H99036   2.552   5.438   4.469 -0.0870  1.1431  1.3862
  734MOL0     H99037   2.782   5.391   4.520  1.3282  1.5962 -2.5240
  734MOL0     H99038   2.692   5.419   4.662 -0.3373 -1.0262 -1.9288
  734MOL0     H99039   2.876   5.629   4.528 -0.4092 -0.5230 -0.9667
  734MOL0     H99040   2.789   5.650   4.682 -0.5486 -2.2070  1.7691
  734MOL0     H99041   2.834   5.434   4.856  0.8738 -1.8981  1.2936
  734MOL0     H99042   3.188   5.326   4.975 -0.0783  3.3653 -1.8603
  734MOL0     H99043   3.028   5.357   5.030  2.4247  1.6659  1.0086
  734MOL0     H99044   2.938   5.169   4.868 -1.2554  0.1244  1.8030
  734MOL0     H99045   3.105   5.131   4.839 -0.4227  3.6976 -1.5110
  734MOL0     H99046   2.979   4.981   5.028 -1.2773  0.5997  0.8021
  734MOL0     H99047   2.976   5.139   5.114  0.8058  1.3173 -1.3392
  734MOL0     H99048   3.225   5.007   5.045 -0.6043  0.0568 -1.0323
  734MOL0     H99049   3.144   4.995   5.206 -1.9584  0.6969  1.6821
  734MOL0     H99050   3.363   4.965   5.258 -1.8486  0.1748 -1.3347
  734MOL0     H99051   3.603   4.998   5.340  0.2881  0.0852  2.0069
  734MOL0     H99052   3.854   5.293   5.658  0.3858 -0.5047  3.3580
  734MOL0     H99053   4.069   5.265   5.777 -1.3466  1.6846 -0.4949
  734MOL0     H99054   4.304   5.223   5.674 -0.1322 -0.9332 -0.8666
  734MOL0     H99055   4.294   5.216   5.852 -2.6459 -0.7821 -0.3625
  734MOL0     H99056   4.515   5.176   5.782 -2.9058  2.8122 -0.5230
  734MOL0     H99057   4.453   5.018   5.841  2.8449  2.0158  3.0673
  734MOL0     H99058   4.423   4.946   5.600  0.9537 -2.1630  2.5920
  734MOL0     H99059   4.504   5.109   5.554 -0.0455 -1.5963 -1.6591
  734MOL0     H99060   4.616   4.873   5.720 -0.5186 -1.6849 -3.2388
  734MOL0     H99061   4.695   5.039   5.708 -2.8627  1.4917  1.7240
  734MOL0     H99062   4.623   4.910   5.446  0.5198  1.9707 -0.7335
  734MOL0     H99063   4.707   4.792   5.547  2.0466  0.4616 -1.1422
  734MOL0     H99064   4.891   4.996   5.574 -0.0390 -1.0829  0.1068
  734MOL0     H99065   4.876   4.921   5.420 -0.7018 -0.5515 -0.3472
  734MOL0     H99066   4.695   5.159   5.438 -0.9394 -0.6392 -2.5920
  734MOL0     H99067   4.796   5.107   5.308  0.4498 -0.0846  0.4500
  734MOL0     H99068   4.939   5.227   5.541  2.4736 -1.0333 -0.5081
  734MOL0     H99069   4.985   5.230   5.371 -2.4152 -1.2555 -1.3552
  734MOL0     H99070   4.091   4.860   5.634  1.0190  1.5376 -0.6931
  734MOL0     H99071   3.863   4.886   5.534  0.1589 -0.7011  0.0418
  734MOL0     H99072   3.540   5.422   5.367  1.1762 -0.2059 -1.2704
  734MOL0     H99073   3.337   5.403   5.218 -0.5162 -0.7335 -2.4424
  734MOL0     H99074   2.053   5.217   3.985 -2.1597  0.4703  1.1802
  734MOL0     H99075   1.851   5.254   3.887  0.7712 -1.4002  3.0358
  734MOL0     H99076   1.394   5.298   3.848 -1.5799  0.5570  1.5108
  734MOL0     H99077   1.186   5.360   3.723  0.2919 -0.6929  2.3393
  734MOL0     H99078   1.042   5.429   3.586 -0.1581 -1.3450 -2.6684
  734MOL0     H99079   1.160   5.476   3.455 -0.2311  1.6952 -1.1805
  734MOL0     H99080   0.894   5.594   3.525  0.2123 -0.5945  1.9218
  734MOL0     H99081   0.937   5.489   3.383 -1.7411  0.8773 -0.3760
  734MOL0     H99082   1.079   5.642   3.287 -3.5204 -1.9180 -2.3603
  734MOL0     H99083   1.052   5.757   3.430  3.3566 -2.5490  0.4434
  734MOL0     H99084   0.928   5.799   3.204  0.5691 -0.9292 -0.2027
  734MOL0     H99085   0.830   5.657   3.243 -1.1153  0.8526  0.1545
  734MOL0     H99086   0.654   5.921   3.508  1.8480 -0.7313  2.4434
  734MOL0     H99087   1.328   5.760   3.665  2.9988  0.6970 -1.8030
  734MOL0     H99088   1.541   5.836   3.725 -2.7301  0.6459  1.6878
  734MOL0     H99089   1.584   5.745   3.878 -1.5056 -0.2978  0.1293
  734MOL0     H99090   1.659   5.711   3.727 -0.4534 -0.5156  0.1378
  735MOL0     O99091   9.312   2.398   6.829 -0.6565  0.1065  0.4055
  735MOL0     C99092   9.226   2.407   6.742 -0.1432 -1.9307  0.5318
  735MOL0     O99093   9.251   2.453   6.613 -0.0306  0.2520 -0.3444
  735MOL0     C99094   9.377   2.448   6.566 -0.0861  0.3784  0.1708
  735MOL0     C99095   9.426   2.352   6.471  0.5699  0.0325  0.5475
  735MOL0     C99096   9.554   2.368   6.406  1.1912  0.0669  0.0973
  735MOL0     C99097   9.632   2.473   6.443  0.3562 -0.3483  0.3330
  735MOL0     O99098   9.742   2.491   6.360 -0.0903 -0.2309 -0.2894
  735MOL0     C99099   9.827   2.608   6.376 -0.1412  0.4501 -0.3017
  735MOL0     C99100   9.863   2.654   6.242 -0.0893 -0.6816 -0.1611
  735MOL0     C99101   9.967   2.755   6.250 -0.5452  1.0361 -0.5211
  735MOL0     C99102   9.977   2.824   6.119  0.1054 -0.0854  0.5630
  735MOL0     C99103  10.081   2.932   6.126  0.0374 -0.6184  0.7529
  735MOL0     C99104  10.118   2.971   5.983  0.8932 -0.0996  0.1381
  735MOL0     C99105  10.233   3.080   5.967  1.1836 -0.1494 -0.2186
  735MOL0     C99106  10.300   3.092   5.830  0.6801  0.6957 -0.4700
  735MOL0     N99107  10.402   3.196   5.844  0.5139  0.6219  0.4937
  735MOL0     C99108  10.508   3.184   5.933 -0.1995  0.2828 -0.5968
  735MOL0     C99109  10.550   3.312   5.945 -0.6309  0.7385  1.3921
  735MOL0     C99110  10.670   3.363   6.028  0.3441  0.0432  0.2210
  735MOL0     C99111  10.751   3.470   5.962 -0.4503 -0.0361  0.1124
  735MOL0     C99112  10.853   3.524   6.054 -0.6940 -0.3919 -0.1635
  735MOL0     C99113  10.957   3.609   5.985  0.0018 -1.4865  0.0552
  735MOL0     O99114  11.041   3.683   6.081  0.2891  0.1888  0.3512
  735MOL0     C99115  11.138   3.762   6.039 -0.2538 -0.5707 -0.0499
  735MOL0     C99116  11.204   3.825   6.135  0.1485 -0.1761 -0.8641
  735MOL0     C99117  11.305   3.917   6.118 -0.2607 -0.0724 -0.5712
  735MOL0     C99118  11.341   3.948   5.990  0.2985 -0.2658  0.2990
  735MOL0     C99119  11.450   4.046   5.968  0.6936 -0.3008 -0.5463
  735MOL0     O99120  11.522   4.040   5.850  0.1199  0.7723 -0.6159
  735MOL0     C99121  11.650   4.083   5.835  0.0795 -0.5674 -0.4776
  735MOL0     C99122  11.693   4.092   5.706 -0.1436 -0.3644  0.9872
  735MOL0     C99123  11.827   4.125   5.680  0.4644  0.1112  0.4082
  735MOL0     C99124  11.912   4.163   5.773  0.4534 -0.2505 -0.2295
  735MOL0     O99125  12.036   4.209   5.728  0.1930 -0.3161 -0.1603
  735MOL0     C99126  12.085   4.325   5.803  0.2027  0.2013  0.5168
  735MOL0     C99127  12.202   4.297   5.897 -0.2834  0.2761 -0.1394
  735MOL0     C99128  12.242   4.429   5.968  0.1022  0.3159 -0.2555
  735MOL0     C99129  12.375   4.414   6.039  0.5837 -0.1585  0.5441
  735MOL0     C99130  12.407   4.540   6.128  0.4208 -0.2173  0.2521
  735MOL0     C99131  12.518   4.513   6.236  0.4787  0.5709 -0.2941
  735MOL0     C99132  12.651   4.472   6.167 -0.0115 -0.1195 -0.7792
  735MOL0     C99133  12.760   4.573   6.174  1.0091  0.1759 -0.8090
  735MOL0    Cl99134  12.880   4.548   6.310  0.4300 -0.0838 -0.2348
  735MOL0     C99135  11.869   4.162   5.907 -0.8530  0.4195 -0.0860
  735MOL0     C99136  11.741   4.117   5.938  0.2232  1.0031  0.8908
  735MOL0     O99137  11.484   4.115   6.064 -0.2911  0.0149 -0.7251
  735MOL0     C99138  11.271   3.891   5.878  0.3196 -0.3631  0.5925
  735MOL0     C99139  11.165   3.804   5.905  0.1596  0.1507  0.0396
  735MOL0     N99140  10.471   3.391   5.868  1.0758 -0.3189  0.6863
  735MOL0     N99141  10.384   3.326   5.802 -0.1857  0.2317  0.0983
  735MOL0     C99142   9.584   2.568   6.540 -1.8579 -0.8355  0.7696
  735MOL0     C99143   9.459   2.562   6.601  0.1974  0.9350  0.0294
  735MOL0     C99144   9.087   2.384   6.792  0.0758  0.0249  0.2515
  735MOL0     C99145   8.996   2.346   6.682 -1.0644 -1.1568  0.5090
  735MOL0     C99146   8.863   2.328   6.719 -0.4629 -0.0058  0.7364
  735MOL0     C99147   8.821   2.330   6.847  0.5577 -0.0633  0.1744
  735MOL0     O99148   8.687   2.336   6.871  0.3596 -0.0502 -0.1612
  735MOL0     C99149   8.645   2.363   7.005  0.0357  1.3623 -0.6012
  735MOL0     C99150   8.500   2.372   7.016  0.4874 -0.2680  0.2983
  735MOL0     C99151   8.440   2.295   7.130  0.3651  0.2731  0.6613
  735MOL0     C99152   8.285   2.301   7.133 -1.1528  0.1064 -0.0749
  735MOL0     C99153   8.237   2.414   7.210 -0.2206 -0.5479 -0.6681
  735MOL0     C99154   8.191   2.511   7.270  0.0755 -0.2933 -0.0672
  735MOL0     C99155   8.911   2.364   6.946 -0.2436  0.7093 -0.5855
  735MOL0     C99156   9.046   2.387   6.922  0.8771 -0.1103  0.1254
  735MOL0     C99157   9.132   2.413   7.042 -0.0984  0.2530 -0.3463
  735MOL0     H99158   9.364   2.267   6.445 -0.1858 -0.5861  3.9088
  735MOL0     H99159   9.589   2.294   6.335  0.5758  0.5899 -0.7712
  735MOL0     H99160   9.786   2.693   6.430 -0.5284  0.2018 -0.1973
  735MOL0     H99161   9.918   2.578   6.428  1.5092  4.8508 -0.2640
  735MOL0     H99162   9.773   2.701   6.202 -0.7495 -0.2551  1.6900
  735MOL0     H99163   9.905   2.580   6.174 -0.9387  0.0655 -1.5302
  735MOL0     H99164  10.060   2.703   6.276 -1.6519  0.6327  3.1810
  735MOL0     H99165   9.943   2.822   6.333  0.3215  0.2723  0.3864
  735MOL0     H99166  10.009   2.755   6.041  2.1589  1.5303 -0.1529
  735MOL0     H99167   9.878   2.859   6.088  1.2998  2.2146 -0.9639
  735MOL0     H99168  10.048   3.019   6.184  5.4371  0.7085  2.4209
  735MOL0     H99169  10.173   2.891   6.169 -0.0432 -0.3981  1.1450
  735MOL0     H99170  10.158   2.886   5.927 -0.4950  0.2169 -1.4147
  735MOL0     H99171  10.028   2.998   5.926  0.6121 -0.8907  0.2064
  735MOL0     H99172  10.308   3.065   6.044  0.1815  2.0576  1.2899
  735MOL0     H99173  10.174   3.167   5.994 -3.7840 -3.6740  1.9091
  735MOL0     H99174  10.329   2.998   5.783 -1.5358  0.8528 -2.3463
  735MOL0     H99175  10.228   3.135   5.760  1.9497  1.6423 -1.2285
  735MOL0     H99176  10.545   3.089   5.969 -3.0365 -0.6636  0.0586
  735MOL0     H99177  10.627   3.401   6.121  2.7149  1.6352  0.7468
  735MOL0     H99178  10.733   3.278   6.056  1.1421  0.4524 -0.2799
  735MOL0     H99179  10.815   3.437   5.880  1.0775  1.7181  0.5410
  735MOL0     H99180  10.682   3.540   5.914 -1.7985 -2.7254 -2.1699
  735MOL0     H99181  10.905   3.440   6.101 -0.3701  1.2017  2.5110
  735MOL0     H99182  10.815   3.587   6.135  1.3004 -2.4691  2.5798
  735MOL0     H99183  10.896   3.674   5.921  1.0118  1.9155  2.2761
  735MOL0     H99184  11.033   3.559   5.923  3.2712  0.1560  2.4687
  735MOL0     H99185  11.183   3.794   6.237  4.2879  0.2234  0.2982
  735MOL0     H99186  11.362   3.960   6.200  1.2292 -0.5198 -1.3336
  735MOL0     H99187  11.641   4.044   5.624  0.6662  2.5753 -1.4678
  735MOL0     H99188  11.868   4.095   5.584 -0.8755 -0.7998  0.0888
  735MOL0     H99189  12.115   4.390   5.720 -3.4524 -0.7870 -1.8001
  735MOL0     H99190  12.004   4.376   5.856 -0.5800 -0.1020 -0.3583
  735MOL0     H99191  12.189   4.222   5.976  0.4194 -0.6289 -0.8586
  735MOL0     H99192  12.282   4.265   5.829  0.6634 -0.8237  1.4091
  735MOL0     H99193  12.264   4.504   5.892  0.0137 -1.4995 -2.1663
  735MOL0     H99194  12.156   4.461   6.029 -0.0296 -1.1629  0.3707
  735MOL0     H99195  12.458   4.387   5.972 -0.9475  1.5685 -2.2368
  735MOL0     H99196  12.371   4.330   6.109  0.5826  0.7938  1.7202
  735MOL0     H99197  12.319   4.584   6.176 -1.6918 -1.5133 -2.1932
  735MOL0     H99198  12.441   4.615   6.057 -2.1865 -1.7083 -2.8200
  735MOL0     H99199  12.539   4.594   6.306  1.9516 -1.0793  1.2993
  735MOL0     H99200  12.489   4.430   6.302  1.3620  0.2935 -0.2442
  735MOL0     H99201  12.647   4.464   6.058 -0.6452 -2.4460 -0.6370
  735MOL0     H99202  12.686   4.375   6.205  1.1427  0.5663 -0.0025
  735MOL0     H99203  12.824   4.574   6.085  2.3994  1.8350  0.1528
  735MOL0     H99204  12.714   4.672   6.182  1.9012  0.6585 -1.5658
  735MOL0     H99205  11.937   4.185   5.988  0.5371  0.6293 -1.2692
  735MOL0     H99206  11.721   4.113   6.045  0.9301 -1.2818  0.9975
  735MOL0     H99207  11.304   3.900   5.775 -4.4709 -0.5397 -1.1860
  735MOL0     H99208  11.112   3.772   5.816 -0.8100 -3.8296  1.8694
  735MOL0     H99209   9.630   2.663   6.568 -0.7533 -0.4456 -1.9710
  735MOL0     H99210   9.433   2.642   6.669  0.8650  1.3429 -0.1873
  735MOL0     H99211   9.032   2.346   6.579 -1.6967 -2.1265  0.2715
  735MOL0     H99212   8.801   2.308   6.631  1.1619  0.7552 -0.6348
  735MOL0     H99213   8.682   2.462   7.032  0.1558  1.1592 -0.0078
  735MOL0     H99214   8.684   2.289   7.076 -3.3721 -0.4799 -0.4406
  735MOL0     H99215   8.468   2.335   6.918  2.3288  2.1415 -1.3274
  735MOL0     H99216   8.461   2.475   7.024  1.2378  0.3171 -2.4235
  735MOL0     H99217   8.494   2.312   7.223  0.0933 -1.6447  1.1987
  735MOL0     H99218   8.461   2.189   7.112  0.0472  0.6403 -2.5560
  735MOL0     H99219   8.250   2.298   7.029  0.0698  2.3651 -0.6130
  735MOL0     H99220   8.243   2.214   7.186 -4.2456  0.5830 -1.5267
  735MOL0     H99221   8.155   2.592   7.330  1.3490 -0.7905  1.4416
  735MOL0     H99222   8.879   2.372   7.049  0.5367  0.1295 -0.2819
  735MOL0     H99223   9.073   2.457   7.123  0.2962 -0.2239  0.2110
  735MOL0     H99224   9.182   2.319   7.068  0.6318  0.3424 -1.3765
  735MOL0     H99225   9.217   2.482   7.032  0.1466  0.2417  1.3823
  736MOL0     O99226   9.735   1.441   2.955  0.0899 -0.6803 -0.3993
  736MOL0     C99227   9.742   1.418   3.076 -1.0291 -0.4870 -0.2343
  736MOL0     O99228   9.859   1.399   3.147  0.2485 -0.2885 -0.0284
  736MOL0     C99229   9.971   1.385   3.071  0.3623 -0.9254  0.9218
  736MOL0     C99230   9.975   1.288   2.972  0.4902 -0.5176  0.6153
  736MOL0     C99231  10.093   1.275   2.895  0.6694 -0.0210  0.6457
  736MOL0     C99232  10.202   1.359   2.913  0.0082  0.3032  0.3756
  736MOL0     O99233  10.322   1.353   2.841 -0.6042  0.2190 -0.8400
  736MOL0     C99234  10.304   1.350   2.699 -0.0451  0.8639  0.7086
  736MOL0     C99235  10.418   1.272   2.644 -0.9831 -0.0312  0.2181
  736MOL0     C99236  10.423   1.227   2.497 -0.1794  0.4058  0.2258
  736MOL0     C99237  10.431   1.349   2.408  0.4220 -0.1421  0.1444
  736MOL0     C99238  10.438   1.316   2.257 -0.3726 -0.2730  0.2567
  736MOL0     C99239  10.486   1.432   2.168 -0.8325 -0.5608  0.5666
  736MOL0     C99240  10.643   1.429   2.143 -0.2017  0.0700 -0.2181
  736MOL0     C99241  10.690   1.542   2.059 -0.4241 -0.8043  0.4675
  736MOL0     N99242  10.721   1.671   2.126  0.3337  0.4375 -0.4857
  736MOL0     C99243  10.803   1.777   2.090 -0.0168 -0.6021 -0.3935
  736MOL0     C99244  10.793   1.872   2.190  1.2181  0.1414 -0.4067
  736MOL0     C99245  10.873   1.996   2.214 -0.0257  0.3801 -0.2190
  736MOL0     C99246  10.968   1.971   2.331  0.2758  0.4960  0.4197
  736MOL0     C99247  11.102   1.936   2.274  1.2678  0.7240  0.1874
  736MOL0     C99248  11.195   1.911   2.388  0.5443 -1.2138 -0.6169
  736MOL0     O99249  11.319   1.870   2.329 -0.2567 -0.3488  0.5962
  736MOL0     C99250  11.431   1.949   2.344 -0.1372  0.4386  0.0568
  736MOL0     C99251  11.532   1.930   2.246  0.5328 -0.1410  0.3990
  736MOL0     C99252  11.656   1.996   2.269 -0.2100  0.2324 -0.0717
  736MOL0     C99253  11.687   2.077   2.382 -1.2577  0.5631 -0.4933
  736MOL0     C99254  11.827   2.126   2.409 -0.3030 -0.4336  0.5791
  736MOL0     O99255  11.924   2.072   2.329  0.0453  0.0063  0.0659
  736MOL0     C99256  12.049   2.117   2.355  0.1636 -0.3064  0.4000
  736MOL0     C99257  12.099   2.245   2.356 -0.1847 -0.4774  0.7033
  736MOL0     C99258  12.233   2.267   2.383 -0.7817  0.1020  0.7069
  736MOL0     C99259  12.322   2.164   2.384 -0.2162  1.3785  0.5438
  736MOL0     O99260  12.455   2.169   2.414  0.6934  0.4385  0.4387
  736MOL0     C99261  12.516   2.300   2.430  0.2862  0.4675 -0.3933
  736MOL0     C99262  12.669   2.277   2.452 -1.0304  0.0481  0.8753
  736MOL0     C99263  12.758   2.245   2.331  0.2786  0.6363  0.5084
  736MOL0     C99264  12.901   2.290   2.347  0.4342 -0.0491  0.0652
  736MOL0     C99265  12.983   2.258   2.222 -0.3976 -0.4212  0.0345
  736MOL0     C99266  13.122   2.321   2.241  0.8915  1.4089 -0.8537
  736MOL0     C99267  13.227   2.244   2.154 -0.7570 -0.1710  0.2465
  736MOL0     C99268  13.364   2.316   2.141 -0.0887  0.1771  0.2219
  736MOL0    Cl99269  13.427   2.357   2.306 -0.2072 -0.2855 -0.0276
  736MOL0     C99270  12.273   2.035   2.370  0.2790  0.4101  0.1023
  736MOL0     C99271  12.134   2.015   2.360 -1.7925 -0.1169 -0.1456
  736MOL0     O99272  11.842   2.205   2.502  1.3003 -0.7056 -0.3979
  736MOL0     C99273  11.590   2.089   2.478  0.4223 -0.4453  0.8026
  736MOL0     C99274  11.459   2.032   2.455 -0.2575 -0.2829  0.6775
  736MOL0     N99275  10.687   1.837   2.274 -0.9876 -0.6232 -0.0851
  736MOL0     N99276  10.654   1.712   2.240 -0.5458 -0.4761  1.3902
  736MOL0     C99277  10.199   1.449   3.023  0.1555 -0.0542  0.3995
  736MOL0     C99278  10.089   1.463   3.103  0.2489  0.5013 -0.5210
  736MOL0     C99279   9.621   1.372   3.141  0.0756  0.3063 -0.9821
  736MOL0     C99280   9.583   1.435   3.264  0.4122 -0.6303  0.3382
  736MOL0     C99281   9.462   1.401   3.327 -0.7292  0.5759  0.9010
  736MOL0     C99282   9.377   1.312   3.268 -0.1965 -0.0541  0.2760
  736MOL0     O99283   9.251   1.298   3.330  0.3024  0.2423  0.7820
  736MOL0     C99284   9.237   1.223   3.446 -0.6319 -0.4782  0.0995
  736MOL0     C99285   9.102   1.248   3.513  0.3776 -1.0566  0.2609
  736MOL0     C99286   9.075   1.389   3.561 -0.2600  0.5020  0.0418
  736MOL0     C99287   8.929   1.419   3.557 -0.1586  0.9130  0.5487
  736MOL0     C99288   8.860   1.365   3.681  0.2168  0.0028  0.0275
  736MOL0     C99289   8.821   1.311   3.785 -0.5087 -1.0023  0.4878
  736MOL0     C99290   9.408   1.245   3.150 -0.4336 -0.6392 -0.0532
  736MOL0     C99291   9.533   1.276   3.082  0.9872  0.9977 -0.0417
  736MOL0     C99292   9.556   1.187   2.956 -0.0139 -0.2226  0.5811
  736MOL0     H99293   9.890   1.224   2.948  0.0619 -0.0548  0.8752
  736MOL0     H99294  10.093   1.194   2.823  0.0942 -0.0530  0.6732
  736MOL0     H99295  10.206   1.307   2.675  0.9248 -0.7870 -0.4614
  736MOL0     H99296  10.307   1.449   2.652  2.6639 -0.1751 -1.6455
  736MOL0     H99297  10.428   1.182   2.705  0.4001 -1.2699 -1.7169
  736MOL0     H99298  10.499   1.344   2.654 -0.0709 -0.9778 -0.0720
  736MOL0     H99299  10.333   1.170   2.474  0.0110 -0.2433  1.0333
  736MOL0     H99300  10.517   1.181   2.466 -0.4011 -0.1052  0.3015
  736MOL0     H99301  10.343   1.410   2.428 -0.1044 -1.3228  1.6741
  736MOL0     H99302  10.516   1.410   2.442  0.7293 -0.0613 -0.7326
  736MOL0     H99303  10.492   1.222   2.238 -1.5553 -0.5945 -1.7734
  736MOL0     H99304  10.338   1.287   2.224  0.2666 -2.3070 -0.0817
  736MOL0     H99305  10.434   1.414   2.073  0.9805  1.1825 -0.8533
  736MOL0     H99306  10.463   1.529   2.212 -3.9976 -0.8385 -0.2255
  736MOL0     H99307  10.667   1.335   2.092 -2.3240  0.5634 -2.2411
  736MOL0     H99308  10.681   1.425   2.246 -2.6360 -1.8544  0.6981
  736MOL0     H99309  10.783   1.508   2.012  0.8474  1.4619  1.1883
  736MOL0     H99310  10.616   1.568   1.982 -0.0770  0.3809  0.5166
  736MOL0     H99311  10.871   1.772   2.005 -0.8223 -0.5169 -1.0513
  736MOL0     H99312  10.909   2.044   2.123  1.2170  1.2709  0.7110
  736MOL0     H99313  10.807   2.073   2.254  0.1324 -0.4790  1.8119
  736MOL0     H99314  10.974   2.065   2.386  0.3171  0.0513  1.1907
  736MOL0     H99315  10.923   1.896   2.397 -2.7715  2.3423  0.6302
  736MOL0     H99316  11.133   2.018   2.209  2.5066 -0.0265 -0.2025
  736MOL0     H99317  11.102   1.843   2.217  1.7571  0.0011  1.3371
  736MOL0     H99318  11.167   1.831   2.457  3.5701 -2.0584 -0.2411
  736MOL0     H99319  11.201   2.009   2.436  1.9709 -1.4049 -0.3588
  736MOL0     H99320  11.511   1.867   2.160  0.7495  0.0781  0.1824
  736MOL0     H99321  11.731   1.972   2.194  1.9049  4.4896  0.3698
  736MOL0     H99322  12.026   2.323   2.339  0.9435 -0.0208 -2.7283
  736MOL0     H99323  12.264   2.369   2.406 -1.4293  0.2711  0.8371
  736MOL0     H99324  12.510   2.357   2.337  4.4843 -0.0718 -1.2126
  736MOL0     H99325  12.487   2.354   2.520  2.5159  2.0574 -0.5331
  736MOL0     H99326  12.719   2.365   2.496  1.2634  0.2810 -1.9149
  736MOL0     H99327  12.674   2.205   2.534  2.3765  2.1543  2.7861
  736MOL0     H99328  12.762   2.137   2.316  2.7385  0.5285  1.5728
  736MOL0     H99329  12.717   2.291   2.241 -0.5356  1.3429  1.2156
  736MOL0     H99330  12.949   2.247   2.435  1.7494  1.3999  0.0951
  736MOL0     H99331  12.898   2.396   2.377 -1.2721 -0.0703  0.0810
  736MOL0     H99332  12.935   2.310   2.139  0.3966 -0.6197 -0.5574
  736MOL0     H99333  12.988   2.151   2.199 -1.4830 -0.2278 -1.2320
  736MOL0     H99334  13.122   2.425   2.207 -2.1703  1.1317 -2.1039
  736MOL0     H99335  13.144   2.308   2.348 -0.8025  2.5743 -0.3101
  736MOL0     H99336  13.182   2.232   2.055 -1.9904  0.0547  0.7586
  736MOL0     H99337  13.245   2.149   2.204 -1.4084 -0.2969  0.2481
  736MOL0     H99338  13.429   2.245   2.089  0.9281  2.0602 -1.2097
  736MOL0     H99339  13.364   2.404   2.076 -0.2120 -0.1554 -0.2298
  736MOL0     H99340  12.335   1.946   2.376 -3.4288 -2.3376  2.1729
  736MOL0     H99341  12.100   1.912   2.354  1.0877 -1.2428  0.9918
  736MOL0     H99342  11.610   2.121   2.580 -2.0381  1.7063  0.7149
  736MOL0     H99343  11.382   2.040   2.532 -0.1265  0.5237  0.7349
  736MOL0     H99344  10.292   1.499   3.049  1.6317  0.7610 -5.1521
  736MOL0     H99345  10.081   1.531   3.187  1.8585 -0.5259  0.5147
  736MOL0     H99346   9.650   1.506   3.313 -0.0640 -1.5043  2.3405
  736MOL0     H99347   9.438   1.460   3.416  0.8750  0.5152  1.4186
  736MOL0     H99348   9.321   1.236   3.514 -1.3002  1.7575  0.5653
  736MOL0     H99349   9.236   1.116   3.423 -0.4773 -0.5770  0.5438
  736MOL0     H99350   9.097   1.180   3.598  2.9197  0.5936  1.8535
  736MOL0     H99351   9.027   1.211   3.442 -1.5006  0.0362  1.5906
  736MOL0     H99352   9.121   1.470   3.504  1.4106  0.6182  1.4554
  736MOL0     H99353   9.121   1.404   3.659 -2.7792  2.0057  1.0820
  736MOL0     H99354   8.905   1.525   3.565 -3.5910  0.4182 -1.2988
  736MOL0     H99355   8.889   1.374   3.466 -0.2199  0.8404  0.6114
  736MOL0     H99356   8.794   1.282   3.884 -2.6861  4.0839  1.7309
  736MOL0     H99357   9.339   1.171   3.111 -2.5808 -0.1017  2.4410
  736MOL0     H99358   9.649   1.219   2.907 -1.1635  1.2901 -0.6762
  736MOL0     H99359   9.576   1.088   2.999  0.0121  0.1484  1.4324
  736MOL0     H99360   9.470   1.188   2.889 -0.9585 -1.4212  1.7219
  737MOL0     O99361   1.184   5.399   8.153  0.4002 -0.2948 -0.4720
  737MOL0     C99362   1.255   5.301   8.126 -0.2327 -0.2598 -0.0199
  737MOL0     O99363   1.386   5.277   8.154  0.1282  0.1292  0.3831
  737MOL0     C99364   1.460   5.383   8.198 -0.8153 -0.2081  0.1941
  737MOL0     C99365   1.556   5.346   8.301  0.1476 -0.1995 -0.0138
  737MOL0     C99366   1.651   5.439   8.345  0.3991 -0.4041 -0.1216
  737MOL0     C99367   1.656   5.568   8.292 -0.0635 -0.0187 -0.3822
  737MOL0     O99368   1.739   5.670   8.329  0.5676 -0.3499  0.6174
  737MOL0     C99369   1.870   5.626   8.353 -0.2100 -0.0438  0.0139
  737MOL0     C99370   1.964   5.741   8.338 -0.3378 -0.6143 -0.2678
  737MOL0     C99371   1.973   5.776   8.189 -0.2668 -0.7818 -0.2977
  737MOL0     C99372   1.858   5.868   8.145  0.3862  0.6060 -0.4308
  737MOL0     C99373   1.884   5.963   8.027 -0.9527 -0.0745  0.6259
  737MOL0     C99374   1.755   6.015   7.966  0.4509 -0.5583 -0.0550
  737MOL0     C99375   1.793   6.125   7.860  0.6190  0.0801  0.7253
  737MOL0     C99376   1.853   6.067   7.737  0.4411 -0.0632  0.1161
  737MOL0     N99377   1.853   6.151   7.618  0.3981 -0.0628 -0.3586
  737MOL0     C99378   1.923   6.269   7.611 -0.5784  0.2023 -0.1805
  737MOL0     C99379   1.898   6.304   7.481 -0.0981  0.1117  0.8780
  737MOL0     C99380   1.934   6.429   7.404  0.0533  0.2343 -0.1897
  737MOL0     C99381   2.035   6.391   7.286 -0.8184 -0.2172 -0.1683
  737MOL0     C99382   2.175   6.366   7.334 -0.6052 -0.1148  0.0334
  737MOL0     C99383   2.270   6.313   7.227 -0.0877 -0.3123 -0.3640
  737MOL0     O99384   2.367   6.233   7.292 -0.4380 -0.4611  0.6417
  737MOL0     C99385   2.492   6.241   7.244 -0.3515  0.3145 -0.4782
  737MOL0     C99386   2.592   6.213   7.335  0.4275  1.1720  1.2128
  737MOL0     C99387   2.726   6.204   7.285 -0.3485 -0.2760 -0.2146
  737MOL0     C99388   2.759   6.245   7.157 -0.6834  0.4353 -0.1701
  737MOL0     C99389   2.898   6.238   7.102  0.2272 -0.2790 -0.0810
  737MOL0     O99390   2.906   6.210   6.967  0.1677  0.1536  0.0855
  737MOL0     C99391   3.026   6.225   6.905  0.1509  0.1271 -0.5240
  737MOL0     C99392   3.072   6.124   6.813  0.1559  0.0441  0.8085
  737MOL0     C99393   3.193   6.119   6.754 -0.0249  0.7873  0.3986
  737MOL0     C99394   3.278   6.217   6.772 -0.0653 -0.9582 -0.7046
  737MOL0     O99395   3.400   6.237   6.719  0.4302  0.0013  0.8294
  737MOL0     C99396   3.460   6.109   6.672 -0.2191 -1.1458  0.9433
  737MOL0     C99397   3.592   6.138   6.616 -0.0002 -0.0317  0.3079
  737MOL0     C99398   3.584   6.244   6.500  0.2647 -0.9031 -0.8021
  737MOL0     C99399   3.567   6.175   6.362  0.4773 -0.5127  0.0819
  737MOL0     C99400   3.703   6.115   6.297  0.0364 -0.3875 -0.4187
  737MOL0     C99401   3.808   6.229   6.267 -0.4532  1.1002  0.7622
  737MOL0     C99402   3.884   6.204   6.128 -0.0601 -1.0207  0.9481
  737MOL0     C99403   3.800   6.208   6.000  0.9876 -0.1796 -0.0313
  737MOL0    Cl99404   3.736   6.381   5.974 -0.4331 -0.1929 -0.3081
  737MOL0     C99405   3.246   6.318   6.862  0.9037 -0.0711  0.2277
  737MOL0     C99406   3.121   6.322   6.936 -0.0459  0.3324 -1.0143
  737MOL0     O99407   2.988   6.252   7.180 -0.6160  0.3605 -0.1300
  737MOL0     C99408   2.658   6.275   7.066  0.5580 -0.5947 -0.3796
  737MOL0     C99409   2.523   6.271   7.112 -0.4501  0.5241  0.2249
  737MOL0     N99410   1.817   6.212   7.418 -0.1761  0.4019 -0.7820
  737MOL0     N99411   1.795   6.119   7.501  0.5705 -0.6345 -0.0835
  737MOL0     C99412   1.562   5.600   8.186  0.7898 -0.1446  0.3373
  737MOL0     C99413   1.467   5.505   8.135  0.4828  0.2089 -0.2722
  737MOL0     C99414   1.176   5.184   8.080  0.1694  0.6345  0.9699
  737MOL0     C99415   1.213   5.052   8.112 -0.1812  0.7921 -0.3801
  737MOL0     C99416   1.151   4.941   8.060 -0.0419 -0.0612 -0.6940
  737MOL0     C99417   1.057   4.948   7.964 -1.2904 -0.2922 -0.2249
  737MOL0     O99418   1.022   4.835   7.908 -0.3452  0.0138 -0.0391
  737MOL0     C99419   0.926   4.836   7.804  0.7980  0.2882  0.6022
  737MOL0     C99420   0.873   4.692   7.778 -0.0461  0.3812 -0.1054
  737MOL0     C99421   0.873   4.591   7.895  0.8798 -0.4794  0.9534
  737MOL0     C99422   0.863   4.446   7.836 -0.0203 -0.1898 -0.2813
  737MOL0     C99423   0.743   4.422   7.763  0.0683  0.1222 -0.0835
  737MOL0     C99424   0.647   4.375   7.698 -0.6510 -0.1560  0.4977
  737MOL0     C99425   1.017   5.072   7.930 -0.1393 -1.1122 -0.5613
  737MOL0     C99426   1.075   5.190   7.982  0.0485 -0.9027  0.3761
  737MOL0     C99427   1.012   5.321   7.919 -0.3521  0.1494  0.0135
  737MOL0     H99428   1.552   5.252   8.354 -0.1435  1.2632  2.7453
  737MOL0     H99429   1.713   5.417   8.431 -1.9754  2.0437  2.4214
  737MOL0     H99430   1.899   5.597   8.455 -1.2660  0.0885  0.3649
  737MOL0     H99431   1.889   5.540   8.289 -1.2913  0.5986 -1.2217
  737MOL0     H99432   2.069   5.719   8.363  0.3049  2.1731 -0.1799
  737MOL0     H99433   1.933   5.826   8.400 -0.7416 -1.9511  1.4324
  737MOL0     H99434   1.965   5.688   8.123  0.7121 -0.6713 -0.5749
  737MOL0     H99435   2.066   5.830   8.168  2.9649 -5.3268  0.6701
  737MOL0     H99436   1.772   5.808   8.117  0.6947 -0.9604  1.7026
  737MOL0     H99437   1.821   5.934   8.224 -1.8668 -3.9130  2.6939
  737MOL0     H99438   1.952   6.045   8.050 -0.7832  0.1571 -0.6616
  737MOL0     H99439   1.940   5.911   7.949 -0.5639 -0.2125  0.9915
  737MOL0     H99440   1.687   5.936   7.933  1.9285 -1.5906 -0.7648
  737MOL0     H99441   1.705   6.068   8.047  0.6257  1.1981 -1.0400
  737MOL0     H99442   1.858   6.205   7.896  0.3234  0.5512  0.2222
  737MOL0     H99443   1.704   6.183   7.834 -1.1119 -2.5816  0.2626
  737MOL0     H99444   1.953   6.054   7.779  0.0796 -0.9479  0.7431
  737MOL0     H99445   1.811   5.971   7.703 -1.2518  0.5777  0.3199
  737MOL0     H99446   1.982   6.326   7.682 -0.8641 -0.9096  1.0026
  737MOL0     H99447   1.843   6.470   7.359 -0.5146  0.2647  0.9635
  737MOL0     H99448   1.977   6.499   7.476 -2.1795 -0.8216  2.3339
  737MOL0     H99449   1.996   6.308   7.226 -1.7707  1.4509 -2.0078
  737MOL0     H99450   2.047   6.468   7.210  2.8584 -1.0143 -0.5548
  737MOL0     H99451   2.170   6.291   7.414 -2.0076 -0.8757 -0.7234
  737MOL0     H99452   2.213   6.465   7.357 -1.7051  0.2161  0.4946
  737MOL0     H99453   2.302   6.391   7.157  0.3895  1.7132  1.9918
  737MOL0     H99454   2.218   6.237   7.169 -0.3981 -0.9399  0.7102
  737MOL0     H99455   2.574   6.203   7.442  2.2589  2.9739  1.7424
  737MOL0     H99456   2.798   6.173   7.360 -0.0784 -1.5110 -0.9653
  737MOL0     H99457   3.005   6.041   6.795  1.1405 -0.3077 -1.6580
  737MOL0     H99458   3.222   6.027   6.705 -2.5866  0.4900 -0.7440
  737MOL0     H99459   3.475   6.038   6.754  2.0604 -0.7574  0.9224
  737MOL0     H99460   3.402   6.062   6.592 -0.6876 -1.5444  1.5117
  737MOL0     H99461   3.650   6.183   6.697  0.1767  4.0250 -1.8580
  737MOL0     H99462   3.644   6.044   6.593  0.8403  0.5655 -0.2650
  737MOL0     H99463   3.511   6.324   6.518 -0.0522 -0.4255 -3.7454
  737MOL0     H99464   3.679   6.298   6.493  0.3331 -1.2010 -2.8268
  737MOL0     H99465   3.537   6.256   6.294  0.7418  0.8878  1.5776
  737MOL0     H99466   3.483   6.106   6.354  0.7573 -0.6182 -3.3215
  737MOL0     H99467   3.676   6.068   6.202  2.5309 -1.3997 -0.7207
  737MOL0     H99468   3.764   6.045   6.356 -0.1624  0.0887  0.3638
  737MOL0     H99469   3.764   6.329   6.261  0.9220  1.6435 -2.2848
  737MOL0     H99470   3.890   6.235   6.339 -0.3718  0.1252  0.7740
  737MOL0     H99471   3.934   6.107   6.131 -0.9816 -1.8176 -3.3179
  737MOL0     H99472   3.957   6.284   6.108 -1.7810  0.0188 -1.8340
  737MOL0     H99473   3.873   6.180   5.924  2.5203  0.6365  1.0813
  737MOL0     H99474   3.718   6.135   6.003 -1.9478  2.8813  1.5544
  737MOL0     H99475   3.322   6.396   6.872 -0.7448  1.7220 -0.5883
  737MOL0     H99476   3.099   6.396   7.013  0.6518 -0.9628  0.4879
  737MOL0     H99477   2.682   6.308   6.965  2.3781  2.9830  1.0686
  737MOL0     H99478   2.443   6.286   7.041  0.5766  3.6009 -0.4423
  737MOL0     H99479   1.544   5.700   8.147 -0.2001  0.0977  1.3423
  737MOL0     H99480   1.403   5.506   8.047  1.0133 -1.3642 -0.7176
  737MOL0     H99481   1.281   5.029   8.192 -0.4325  1.8170  0.1519
  737MOL0     H99482   1.174   4.841   8.095  1.9210  1.6899  3.7035
  737MOL0     H99483   0.960   4.877   7.709  0.9117 -0.7715  0.1703
  737MOL0     H99484   0.840   4.895   7.837 -0.7276 -0.2784 -2.0723
  737MOL0     H99485   0.950   4.667   7.705 -1.9207  0.9533 -2.3763
  737MOL0     H99486   0.783   4.699   7.716 -1.4265  2.4922  1.9537
  737MOL0     H99487   0.785   4.615   7.956  0.3084  0.5164 -0.2220
  737MOL0     H99488   0.969   4.609   7.944  1.8076  2.3549 -1.5845
  737MOL0     H99489   0.949   4.432   7.770 -1.8106  0.2288 -2.8774
  737MOL0     H99490   0.857   4.377   7.921  1.1754 -2.7597 -2.1696
  737MOL0     H99491   0.561   4.332   7.650  0.0200 -1.1941  0.1987
  737MOL0     H99492   0.936   5.080   7.858  0.6704  3.3337 -1.3109
  737MOL0     H99493   1.013   5.399   7.996 -3.1438 -0.3655  0.6834
  737MOL0     H99494   1.066   5.361   7.832 -0.7096 -0.3226 -0.4291
  737MOL0     H99495   0.907   5.310   7.892 -0.7561 -1.9098  2.1460
  738MOL0     O99496   6.484   3.495   9.722 -0.1863  0.0380 -0.4500
  738MOL0     C99497   6.425   3.590   9.764 -0.5893  0.8221  0.5203
  738MOL0     O99498   6.290   3.608   9.742 -0.5777 -0.0053 -1.4172
  738MOL0     C99499   6.215   3.510   9.684 -1.0414 -0.5260 -0.8962
  738MOL0     C99500   6.148   3.539   9.567  0.2206  0.4097  0.1189
  738MOL0     C99501   6.056   3.446   9.515  0.1069  0.0662 -0.5318
  738MOL0     C99502   6.051   3.313   9.557  0.4748  0.4614 -0.0982
  738MOL0     O99503   5.976   3.216   9.483 -0.0725  0.0790 -0.7048
  738MOL0     C99504   6.032   3.087   9.455 -0.2759 -0.4635 -0.0941
  738MOL0     C99505   5.935   3.012   9.366  0.1049 -0.2216 -0.2584
  738MOL0     C99506   5.924   3.094   9.232  0.1387 -0.0300  0.0782
  738MOL0     C99507   5.863   3.003   9.119  0.5184  0.3631  0.7123
  738MOL0     C99508   5.866   3.060   8.968  0.5869 -0.0806  0.1704
  738MOL0     C99509   5.824   2.959   8.873  0.1919  0.0709 -0.2815
  738MOL0     C99510   5.855   2.996   8.730 -0.4295 -0.3047  0.7584
  738MOL0     C99511   5.821   2.888   8.626  0.1501  1.1402  0.4912
  738MOL0     N99512   5.874   2.918   8.492 -0.1864  0.0208  0.2831
  738MOL0     C99513   5.853   3.037   8.418  0.0816  0.1254 -0.6730
  738MOL0     C99514   5.914   3.022   8.300 -0.0557 -0.8054 -0.7560
  738MOL0     C99515   5.936   3.138   8.202 -0.0210 -0.1845  0.4095
  738MOL0     C99516   6.043   3.232   8.266  0.4956 -1.1077  0.5331
  738MOL0     C99517   6.047   3.358   8.181 -0.2310 -0.4357 -0.2322
  738MOL0     C99518   6.167   3.445   8.230  0.2666  0.5258  0.8054
  738MOL0     O99519   6.167   3.558   8.147  0.1010 -0.1618 -0.0046
  738MOL0     C99520   6.275   3.641   8.131  0.6556 -0.1497 -1.4350
  738MOL0     C99521   6.388   3.642   8.220  0.1810 -0.1768 -0.5000
  738MOL0     C99522   6.481   3.744   8.213 -0.6280  0.1500  0.1148
  738MOL0     C99523   6.480   3.844   8.108  0.0000 -0.5412 -0.3181
  738MOL0     C99524   6.566   3.967   8.106  0.3831 -0.2707  0.1469
  738MOL0     O99525   6.674   3.962   8.189  0.1662  0.4254 -0.3764
  738MOL0     C99526   6.763   4.063   8.181 -0.4854 -0.0023 -0.7388
  738MOL0     C99527   6.810   4.108   8.303 -0.1109 -0.1345 -0.3821
  738MOL0     C99528   6.930   4.192   8.305 -0.0999  0.6268 -0.5663
  738MOL0     C99529   6.993   4.227   8.186  0.4031  0.4429 -0.7168
  738MOL0     O99530   7.079   4.334   8.182  0.0179 -0.3222  0.3086
  738MOL0     C99531   7.213   4.318   8.121 -0.0539  0.6327 -0.3969
  738MOL0     C99532   7.326   4.378   8.198  0.1333  0.5583 -0.2456
  738MOL0     C99533   7.456   4.376   8.117  0.2667 -0.5789  0.0249
  738MOL0     C99534   7.526   4.242   8.112 -0.1286  1.0546  1.3598
  738MOL0     C99535   7.674   4.254   8.047  0.1854  0.2997  0.1566
  738MOL0     C99536   7.757   4.127   8.054 -0.4340 -0.3024  0.9928
  738MOL0     C99537   7.682   4.018   7.980 -0.9146 -0.2193 -0.6551
  738MOL0     C99538   7.784   3.921   7.917 -0.0807 -0.1775 -0.0857
  738MOL0    Cl99539   7.881   3.829   8.043 -0.1248 -0.3726  0.2059
  738MOL0     C99540   6.941   4.181   8.066 -0.0104  0.1283  0.0120
  738MOL0     C99541   6.830   4.101   8.061  0.5717 -0.2333  0.0589
  738MOL0     O99542   6.527   4.072   8.049 -1.1315  0.3887  0.0300
  738MOL0     C99543   6.371   3.838   8.016  0.6196  1.1646  0.9255
  738MOL0     C99544   6.274   3.736   8.029 -0.2244  0.2631  0.3928
  738MOL0     N99545   5.972   2.899   8.301  0.2573  0.3320  0.7853
  738MOL0     N99546   5.957   2.839   8.415  0.1454  1.0131 -0.3631
  738MOL0     C99547   6.126   3.281   9.671 -0.2634  0.9528  0.8176
  738MOL0     C99548   6.201   3.378   9.740 -1.3070  0.2280  0.5805
  738MOL0     C99549   6.485   3.696   9.850  0.0042  1.1115  0.0273
  738MOL0     C99550   6.394   3.743   9.952  0.0385  0.9195 -1.4395
  738MOL0     C99551   6.427   3.863  10.016 -0.6267 -0.8606 -0.4736
  738MOL0     C99552   6.550   3.927  10.001 -0.5128 -0.3568 -0.1263
  738MOL0     O99553   6.590   4.022  10.088  0.3346 -0.6094 -0.3983
  738MOL0     C99554   6.704   4.103  10.059 -0.4787 -1.0787  0.0720
  738MOL0     C99555   6.730   4.220  10.163  0.9396  0.0594 -0.4890
  738MOL0     C99556   6.858   4.297  10.124  0.5100  0.6876 -0.6953
  738MOL0     C99557   6.985   4.221  10.124 -0.3348  0.9396 -0.5023
  738MOL0     C99558   7.011   4.150  10.252  0.2907 -0.2538  0.4374
  738MOL0     C99559   7.014   4.093  10.356 -0.0446 -0.2596  0.0112
  738MOL0     C99560   6.641   3.872   9.908  0.4753 -0.3101  0.3297
  738MOL0     C99561   6.611   3.759   9.833 -0.9609  0.1221 -0.1823
  738MOL0     C99562   6.711   3.722   9.732  0.9915  0.4987  0.4041
  738MOL0     H99563   6.150   3.628   9.506  0.6549  0.5781  0.3731
  738MOL0     H99564   5.983   3.442   9.435 -3.5356 -0.5864  2.4987
  738MOL0     H99565   6.130   3.102   9.409 -0.6979  2.4624 -0.2469
  738MOL0     H99566   6.043   3.025   9.544 -0.1592 -3.9325 -2.3284
  738MOL0     H99567   5.835   3.020   9.410 -0.6704  1.3069 -2.1272
  738MOL0     H99568   5.974   2.911   9.354  0.4605 -0.3448  1.6711
  738MOL0     H99569   6.023   3.108   9.188  0.1995 -1.0751 -0.1304
  738MOL0     H99570   5.866   3.187   9.230  0.1609 -0.0191 -0.1643
  738MOL0     H99571   5.906   2.902   9.120  0.0300  0.1606  1.8366
  738MOL0     H99572   5.759   2.979   9.141  0.3413  0.0912 -0.3358
  738MOL0     H99573   5.821   3.159   8.956  1.5541  0.4134  0.4848
  738MOL0     H99574   5.971   3.078   8.941  0.4799  1.3145  0.5706
  738MOL0     H99575   5.880   2.867   8.892 -0.3556 -0.2582 -0.2047
  738MOL0     H99576   5.719   2.930   8.887 -0.1355  1.9444  1.4946
  738MOL0     H99577   5.959   3.029   8.729 -1.1277  2.1324 -0.8421
  738MOL0     H99578   5.804   3.088   8.699  0.5943  0.0525  0.0807
  738MOL0     H99579   5.868   2.798   8.666 -1.3947  0.2881  0.4780
  738MOL0     H99580   5.713   2.875   8.614  0.0493  0.1093  2.1856
  738MOL0     H99581   5.794   3.125   8.442 -1.8519 -1.2023 -0.2701
  738MOL0     H99582   5.970   3.115   8.100  0.4466  1.5466  0.1380
  738MOL0     H99583   5.840   3.188   8.185  0.3272  0.5770  0.6394
  738MOL0     H99584   6.028   3.260   8.370 -3.7259  4.8853 -1.1706
  738MOL0     H99585   6.139   3.185   8.242  0.8061  0.2742 -1.2083
  738MOL0     H99586   5.957   3.419   8.194  0.3785  0.6515 -0.9704
  738MOL0     H99587   6.072   3.326   8.079  3.0774 -2.1688  0.9739
  738MOL0     H99588   6.254   3.384   8.204 -0.8403 -1.3830  1.4418
  738MOL0     H99589   6.151   3.482   8.332 -0.6640  0.4302  0.7027
  738MOL0     H99590   6.390   3.558   8.288 -1.3583 -1.9258 -2.4969
  738MOL0     H99591   6.559   3.751   8.288  1.2284  4.3084 -1.8769
  738MOL0     H99592   6.751   4.073   8.387 -0.3955 -3.4394 -1.8336
  738MOL0     H99593   6.968   4.246   8.392 -0.3251  0.7494 -0.5439
  738MOL0     H99594   7.233   4.215   8.088 -0.5374  1.6178 -4.2080
  738MOL0     H99595   7.221   4.370   8.026  1.1531 -2.4710 -2.1517
  738MOL0     H99596   7.319   4.486   8.214 -2.3375  0.7278 -1.9584
  738MOL0     H99597   7.338   4.332   8.296  0.0581  0.8157 -0.1145
  738MOL0     H99598   7.437   4.399   8.012  1.3140  4.1978  0.6423
  738MOL0     H99599   7.520   4.459   8.146 -0.4654  0.3871 -1.0544
  738MOL0     H99600   7.468   4.170   8.052  0.4416 -0.2911  2.3751
  738MOL0     H99601   7.534   4.194   8.210 -0.7087 -1.5125  0.2352
  738MOL0     H99602   7.733   4.333   8.094  0.9463 -0.1592 -0.0083
  738MOL0     H99603   7.669   4.287   7.942  3.1667  0.0397 -0.1675
  738MOL0     H99604   7.852   4.162   8.012 -1.6775  1.2689 -0.6585
  738MOL0     H99605   7.767   4.100   8.160 -0.5812 -0.4825  0.9613
  738MOL0     H99606   7.628   4.070   7.900  2.5796  3.8886 -0.6965
  738MOL0     H99607   7.619   3.955   8.043  1.4376 -2.8854 -0.7744
  738MOL0     H99608   7.724   3.849   7.860 -2.7863 -0.0698  2.3799
  738MOL0     H99609   7.845   3.985   7.853 -1.5565  1.8535  0.4637
  738MOL0     H99610   6.989   4.197   7.970  1.0185  0.9125  0.6462
  738MOL0     H99611   6.802   4.056   7.966  0.9412 -0.2404 -0.0484
  738MOL0     H99612   6.368   3.916   7.941  0.6185  0.5712  0.2980
  738MOL0     H99613   6.195   3.728   7.954  0.5770  0.5389 -0.4964
  738MOL0     H99614   6.122   3.180   9.712 -0.4011  0.8252  0.4984
  738MOL0     H99615   6.268   3.343   9.819  2.9784  4.2894 -0.7885
  738MOL0     H99616   6.296   3.698   9.965 -0.8406  1.2910 -5.4704
  738MOL0     H99617   6.343   3.902  10.072 -0.9346 -0.6721 -1.0605
  738MOL0     H99618   6.689   4.156   9.965 -0.7516 -0.7410  0.3048
  738MOL0     H99619   6.790   4.036  10.069  2.4399  2.2954 -0.5010
  738MOL0     H99620   6.725   4.171  10.261  1.4555  2.2446  0.7051
  738MOL0     H99621   6.643   4.287  10.167 -1.0680 -2.4312  1.4788
  738MOL0     H99622   6.876   4.382  10.191  1.8677  1.3009 -1.7745
  738MOL0     H99623   6.852   4.346  10.027 -0.6933  1.2422 -0.3568
  738MOL0     H99624   6.984   4.152  10.039  0.6443  0.7064 -0.3398
  738MOL0     H99625   7.070   4.288  10.105  2.2648 -1.7128  0.9623
  738MOL0     H99626   7.032   4.040  10.447 -0.1334  1.3272  1.0087
  738MOL0     H99627   6.719   3.937   9.869  0.0392 -0.3481 -0.6209
  738MOL0     H99628   6.813   3.705   9.768  0.4267  0.4470  2.0563
  738MOL0     H99629   6.674   3.633   9.681 -3.3660  1.7094  1.0345
  738MOL0     H99630   6.717   3.791   9.647 -0.8656 -3.8520 -3.7521
  739MOL0     O99631   6.565   1.800   7.451 -0.0228  0.0212  1.0532
  739MOL0     C99632   6.494   1.801   7.552 -0.3404  0.3296 -0.6295
  739MOL0     O99633   6.530   1.757   7.679  0.0749  0.0807 -0.0629
  739MOL0     C99634   6.661   1.731   7.722  1.1740  0.0219  1.0973
  739MOL0     C99635   6.674   1.688   7.849  0.2636  0.1987  0.5204
  739MOL0     C99636   6.800   1.695   7.919  0.3783  0.4824 -0.2324
  739MOL0     C99637   6.922   1.731   7.859 -1.3413  0.3892 -0.0175
  739MOL0     O99638   7.045   1.723   7.915 -0.2241  0.0630 -0.1961
  739MOL0     C99639   7.084   1.624   8.005 -0.8801  0.0765  0.0380
  739MOL0     C99640   7.238   1.645   8.021  0.9718  0.1824  0.3315
  739MOL0     C99641   7.292   1.516   8.093  0.0759 -0.3989  0.2173
  739MOL0     C99642   7.443   1.538   8.127 -0.8759  0.5010 -0.2893
  739MOL0     C99643   7.501   1.407   8.189  0.1604 -0.1407 -0.6298
  739MOL0     C99644   7.649   1.419   8.233  0.2224 -0.4819  0.9909
  739MOL0     C99645   7.768   1.449   8.131  0.3977 -0.2166  0.4841
  739MOL0     C99646   7.832   1.316   8.087 -0.6354  0.0837  0.9530
  739MOL0     N99647   7.945   1.328   7.998  0.2637  1.2135  0.3341
  739MOL0     C99648   7.990   1.230   7.914 -0.1838  0.1951 -0.8002
  739MOL0     C99649   8.103   1.275   7.844  1.1097 -0.4414  0.0963
  739MOL0     C99650   8.177   1.186   7.755  0.1363 -0.3274 -0.1145
  739MOL0     C99651   8.088   1.131   7.648 -0.9346 -0.9918  0.1030
  739MOL0     C99652   8.066   1.246   7.553 -0.6524  0.3839 -0.8081
  739MOL0     C99653   7.969   1.212   7.442  0.6793  0.1004 -0.0373
  739MOL0     O99654   8.030   1.121   7.354 -0.0681  1.1344 -0.7893
  739MOL0     C99655   8.110   1.162   7.254  1.3677 -1.0325 -0.1591
  739MOL0     C99656   8.193   1.072   7.200 -0.1656  0.2210  0.4959
  739MOL0     C99657   8.269   1.091   7.087  0.7781  0.3448 -0.5969
  739MOL0     C99658   8.269   1.220   7.027 -0.8413  0.0756  0.7622
  739MOL0     C99659   8.366   1.240   6.920 -1.0126 -0.1366  0.4458
  739MOL0     O99660   8.453   1.137   6.884  0.3523  0.0751  0.3550
  739MOL0     C99661   8.519   1.126   6.758 -0.1219  0.0197 -0.7300
  739MOL0     C99662   8.635   1.048   6.759 -0.6638  0.8995  0.3500
  739MOL0     C99663   8.700   1.018   6.636  0.1556  0.3801  0.2675
  739MOL0     C99664   8.662   1.087   6.519 -0.3209 -0.2149  0.2829
  739MOL0     O99665   8.715   1.063   6.397  0.1309 -0.5725  0.3482
  739MOL0     C99666   8.848   1.016   6.384  1.3552  0.0970  0.6196
  739MOL0     C99667   8.926   1.106   6.289  0.4694  0.2294  0.1576
  739MOL0     C99668   9.062   1.039   6.258 -0.6832  0.0365 -0.2310
  739MOL0     C99669   9.169   1.030   6.364  0.5234 -0.3627 -0.1231
  739MOL0     C99670   9.284   0.953   6.310 -0.5843  0.6753  0.0452
  739MOL0     C99671   9.393   0.915   6.411  1.0735 -0.2845  1.3854
  739MOL0     C99672   9.353   0.840   6.529 -0.1234  0.1004  1.0747
  739MOL0     C99673   9.468   0.828   6.633  0.4553 -0.0496 -0.1586
  739MOL0    Cl99674   9.384   0.759   6.780  0.1543  0.2543  0.7524
  739MOL0     C99675   8.553   1.162   6.519  0.0368  0.1523 -0.4007
  739MOL0     C99676   8.475   1.179   6.639  0.0563 -0.3683  0.1750
  739MOL0     O99677   8.369   1.345   6.861 -0.1837 -0.1127 -0.3267
  739MOL0     C99678   8.186   1.321   7.081  0.5196 -0.0443 -0.8463
  739MOL0     C99679   8.104   1.287   7.191  0.7118  0.1057 -0.1456
  739MOL0     N99680   8.130   1.409   7.887 -0.3453  0.4457  0.1966
  739MOL0     N99681   8.026   1.432   7.964  0.7848  0.4001 -0.5088
  739MOL0     C99682   6.909   1.760   7.715 -0.9050  0.3751 -0.2784
  739MOL0     C99683   6.782   1.766   7.656 -1.3438 -1.0049  0.3174
  739MOL0     C99684   6.362   1.868   7.543  0.2345  0.6016  0.8763
  739MOL0     C99685   6.345   1.977   7.630 -0.6376 -0.4646 -0.2489
  739MOL0     C99686   6.227   2.056   7.631  1.3590 -0.3663 -0.2861
  739MOL0     C99687   6.118   2.017   7.548 -0.9850  0.3033 -0.5839
  739MOL0     O99688   6.006   2.081   7.549 -0.4041 -0.0329  1.0815
  739MOL0     C99689   5.897   2.013   7.615  0.1209  0.0180 -0.9130
  739MOL0     C99690   5.830   2.106   7.719  0.8096 -0.0533  0.1082
  739MOL0     C99691   5.785   2.237   7.657 -0.6759  0.0981 -0.0231
  739MOL0     C99692   5.690   2.317   7.748 -0.3623  0.0269 -0.1408
  739MOL0     C99693   5.555   2.268   7.752 -0.5772 -0.3718  1.0298
  739MOL0     C99694   5.445   2.221   7.764 -0.0934  0.6413 -0.8181
  739MOL0     C99695   6.132   1.908   7.470 -0.0505  0.2330  0.0412
  739MOL0     C99696   6.251   1.835   7.457  0.5011  0.5639 -0.3730
  739MOL0     C99697   6.248   1.706   7.379  0.1216 -0.2804  0.8100
  739MOL0     H99698   6.589   1.649   7.904  1.3533 -2.7086  0.3617
  739MOL0     H99699   6.796   1.666   8.024 -3.2510  0.0311 -0.3636
  739MOL0     H99700   7.043   1.640   8.106  2.2746  0.0547  1.4291
  739MOL0     H99701   7.053   1.528   7.962 -0.2225 -0.6690  1.1708
  739MOL0     H99702   7.261   1.736   8.079 -0.3536  0.4560  0.4436
  739MOL0     H99703   7.283   1.647   7.921 -1.3643 -1.5278 -0.8342
  739MOL0     H99704   7.264   1.423   8.044 -1.0608 -2.0797  3.7040
  739MOL0     H99705   7.243   1.503   8.190 -0.3334 -1.5018 -0.1276
  739MOL0     H99706   7.500   1.555   8.035 -2.2066 -0.4969 -1.3342
  739MOL0     H99707   7.458   1.614   8.204  0.9627 -2.1692  2.1837
  739MOL0     H99708   7.432   1.370   8.266 -0.2991 -3.5127 -2.4343
  739MOL0     H99709   7.495   1.326   8.116  2.9018 -0.4216 -0.6472
  739MOL0     H99710   7.648   1.501   8.305 -2.3173 -0.4986  1.0791
  739MOL0     H99711   7.676   1.334   8.296  2.2294  1.0131  2.2476
  739MOL0     H99712   7.846   1.516   8.170 -0.5552  0.7202  0.8203
  739MOL0     H99713   7.719   1.506   8.052 -1.3971 -0.9519  1.0117
  739MOL0     H99714   7.877   1.255   8.166  0.7290 -1.0875 -0.6385
  739MOL0     H99715   7.762   1.247   8.038  2.6514 -1.7330 -1.6795
  739MOL0     H99716   7.935   1.136   7.907 -0.8039  0.6299 -2.2121
  739MOL0     H99717   8.254   1.234   7.694  1.1822 -2.9248 -0.9956
  739MOL0     H99718   8.225   1.104   7.808  1.8488  0.5688 -0.1994
  739MOL0     H99719   8.132   1.043   7.601 -1.9686  0.0797 -3.1117
  739MOL0     H99720   7.994   1.092   7.689 -0.0762 -2.2657  0.9881
  739MOL0     H99721   8.165   1.267   7.511 -1.1393  0.3357 -2.0297
  739MOL0     H99722   8.015   1.325   7.607 -1.1213 -0.7736  0.5099
  739MOL0     H99723   7.938   1.305   7.395  0.1125  0.6900  1.4289
  739MOL0     H99724   7.876   1.171   7.482  2.1088 -2.1778  1.2017
  739MOL0     H99725   8.207   0.969   7.232  0.3323  0.2964  0.5296
  739MOL0     H99726   8.326   1.007   7.049 -0.9624 -1.1299 -0.0865
  739MOL0     H99727   8.666   0.990   6.845  0.2963 -2.1961 -1.9103
  739MOL0     H99728   8.783   0.949   6.645 -0.6426 -1.4035 -3.6904
  739MOL0     H99729   8.897   1.001   6.480 -0.8934 -2.5447  1.4984
  739MOL0     H99730   8.829   0.914   6.349 -0.5533  0.2198  1.2191
  739MOL0     H99731   8.877   1.128   6.195 -0.7239  4.2344  1.4880
  739MOL0     H99732   8.940   1.201   6.343 -0.5291  0.6254 -0.2729
  739MOL0     H99733   9.038   0.938   6.223 -2.1499  0.5396 -0.7532
  739MOL0     H99734   9.111   1.091   6.176 -0.0012 -3.2997 -2.1236
  739MOL0     H99735   9.137   1.010   6.466  0.2957  1.4446  0.1810
  739MOL0     H99736   9.193   1.135   6.379 -0.0917 -0.3347  0.7519
  739MOL0     H99737   9.330   0.995   6.220  3.1187  1.4681  2.1462
  739MOL0     H99738   9.257   0.854   6.271  0.5503 -0.3267  1.6775
  739MOL0     H99739   9.474   0.857   6.366  0.3176 -1.7524  1.8602
  739MOL0     H99740   9.438   1.008   6.447 -0.2727  1.8639 -2.0053
  739MOL0     H99741   9.330   0.741   6.488  0.3689  1.1519 -2.0784
  739MOL0     H99742   9.264   0.890   6.570 -0.0438  0.8692  0.3494
  739MOL0     H99743   9.547   0.759   6.602  1.1503  0.9033 -0.5588
  739MOL0     H99744   9.513   0.924   6.658 -3.6439  3.1633 -3.6639
  739MOL0     H99745   8.514   1.196   6.423 -1.4284 -1.2987 -0.3630
  739MOL0     H99746   8.380   1.231   6.636  0.6510  0.7160 -1.9380
  739MOL0     H99747   8.184   1.420   7.035  2.9999  0.1151 -0.7257
  739MOL0     H99748   8.038   1.369   7.217  0.0776 -0.5331  0.2774
  739MOL0     H99749   6.996   1.788   7.657 -1.2636  1.2768 -0.4083
  739MOL0     H99750   6.774   1.801   7.554 -1.0159  1.4313  1.0668
  739MOL0     H99751   6.427   2.021   7.687 -0.6568  1.7882 -1.8308
  739MOL0     H99752   6.220   2.141   7.699 -2.0206  1.8909 -3.0712
  739MOL0     H99753   5.926   1.925   7.673  1.5183 -1.3232 -3.4603
  739MOL0     H99754   5.815   1.990   7.546 -1.7854  0.8552  0.9741
  739MOL0     H99755   5.903   2.131   7.797 -1.0791  0.8749  1.6522
  739MOL0     H99756   5.751   2.055   7.774  3.1188 -0.5533  3.2506
  739MOL0     H99757   5.727   2.227   7.565  1.3118  2.5421 -1.6838
  739MOL0     H99758   5.874   2.297   7.639 -1.2373  0.6237 -1.1937
  739MOL0     H99759   5.725   2.331   7.850 -0.4528 -2.5678  0.2999
  739MOL0     H99760   5.684   2.419   7.708  2.1583 -0.3573 -1.6966
  739MOL0     H99761   5.343   2.190   7.773 -1.0327  3.6672  0.2216
  739MOL0     H99762   6.047   1.880   7.409 -2.0258  0.8404  2.3900
  739MOL0     H99763   6.275   1.732   7.276  4.5499  1.8264  2.2567
  739MOL0     H99764   6.323   1.635   7.413 -0.6192 -3.2131 -2.9093
  739MOL0     H99765   6.162   1.640   7.395  1.0563 -1.6975  0.2749
  740MOL0     O99766   4.805   5.620   9.808  0.2433 -0.3918 -0.1689
  740MOL0     C99767   4.773   5.519   9.868  0.2877 -0.0407  0.5569
  740MOL0     O99768   4.826   5.392   9.835  0.4918  0.2933 -0.0724
  740MOL0     C99769   4.859   5.377   9.699 -0.6409  0.6752 -0.2754
  740MOL0     C99770   4.762   5.338   9.605 -0.6624  0.3039  0.1572
  740MOL0     C99771   4.808   5.319   9.472  0.7211 -0.4318  0.4209
  740MOL0     C99772   4.940   5.329   9.431 -0.1812 -0.6302 -0.2875
  740MOL0     O99773   4.989   5.320   9.307  0.7326  0.7132 -0.3533
  740MOL0     C99774   4.993   5.438   9.232  0.4317 -1.3633  0.1591
  740MOL0     C99775   5.141   5.486   9.225 -0.3844 -0.0330 -0.3043
  740MOL0     C99776   5.142   5.637   9.182 -0.1622 -0.6020 -0.2099
  740MOL0     C99777   5.087   5.656   9.043 -0.7976 -0.6730  0.7791
  740MOL0     C99778   5.105   5.791   8.981  0.3832 -0.0370 -0.1624
  740MOL0     C99779   5.249   5.814   8.941  0.3523 -0.6799 -0.2465
  740MOL0     C99780   5.271   5.880   8.800  0.2436 -0.7091 -0.5800
  740MOL0     C99781   5.251   6.032   8.812  0.4238 -0.3007  0.4465
  740MOL0     N99782   5.368   6.107   8.846 -0.4567 -0.5687  0.5166
  740MOL0     C99783   5.503   6.057   8.846 -0.0058 -0.6254 -0.1364
  740MOL0     C99784   5.584   6.157   8.892 -0.3681 -0.0797  0.4411
  740MOL0     C99785   5.732   6.144   8.911  0.3537  1.1338 -0.5134
  740MOL0     C99786   5.807   6.264   8.846  0.0474 -0.4998 -0.0021
  740MOL0     C99787   5.965   6.237   8.858  0.4039 -0.0568 -0.0031
  740MOL0     C99788   6.057   6.353   8.843 -1.1091  0.1078 -0.3617
  740MOL0     O99789   6.186   6.303   8.877  0.2072 -0.1837  0.7670
  740MOL0     C99790   6.296   6.348   8.810 -1.1377 -0.2164  0.0361
  740MOL0     C99791   6.295   6.431   8.702  0.2240 -0.1036  0.1723
  740MOL0     C99792   6.414   6.482   8.646 -0.2544 -0.6823  0.0255
  740MOL0     C99793   6.535   6.436   8.694 -0.9735 -0.0102 -0.1064
  740MOL0     C99794   6.664   6.487   8.639  0.4699  0.1329  0.2012
  740MOL0     O99795   6.650   6.607   8.571  0.7765 -0.2708 -0.0844
  740MOL0     C99796   6.764   6.671   8.525  0.1684 -0.6355 -0.5221
  740MOL0     C99797   6.780   6.702   8.389  0.2262 -0.3149 -0.7841
  740MOL0     C99798   6.890   6.766   8.347 -0.0613  1.3540 -0.0007
  740MOL0     C99799   7.001   6.786   8.428  0.4810 -0.4914 -0.1651
  740MOL0     O99800   7.116   6.831   8.364  0.0473 -0.2332  0.2917
  740MOL0     C99801   7.247   6.829   8.437 -0.3972  0.5525  0.5189
  740MOL0     C99802   7.346   6.771   8.336  0.2935  0.4508  0.6149
  740MOL0     C99803   7.310   6.627   8.309  0.0116 -0.6252 -0.2205
  740MOL0     C99804   7.427   6.549   8.239  0.1971  0.1284  0.1733
  740MOL0     C99805   7.481   6.606   8.106 -0.0208 -0.2208  0.1548
  740MOL0     C99806   7.561   6.498   8.028  0.1385 -0.6801 -0.0245
  740MOL0     C99807   7.582   6.542   7.876 -0.4006 -0.0610  0.0177
  740MOL0     C99808   7.650   6.427   7.786 -0.5240 -0.3204  0.0074
  740MOL0    Cl99809   7.654   6.470   7.619  0.3214 -0.1017  0.4459
  740MOL0     C99810   6.992   6.755   8.567 -0.1825 -0.6661 -0.2026
  740MOL0     C99811   6.873   6.705   8.613  0.1678 -0.1861 -0.2724
  740MOL0     O99812   6.775   6.439   8.681  1.1081 -0.5278  0.5014
  740MOL0     C99813   6.542   6.341   8.805  0.7685 -0.2187 -0.2733
  740MOL0     C99814   6.414   6.301   8.859 -0.0159  0.0954 -0.1803
  740MOL0     N99815   5.511   6.270   8.930  0.1901  0.6877  0.5069
  740MOL0     N99816   5.383   6.234   8.901 -0.3968 -0.8246 -0.0136
  740MOL0     C99817   5.032   5.369   9.532 -0.0024  0.3627 -0.3601
  740MOL0     C99818   4.991   5.398   9.663  0.8926  0.8614  0.4737
  740MOL0     C99819   4.681   5.530   9.990  0.4062  0.1991  0.4536
  740MOL0     C99820   4.665   5.410  10.066 -0.3066 -0.6634  0.9564
  740MOL0     C99821   4.585   5.399  10.177  0.6781 -0.0850 -0.4822
  740MOL0     C99822   4.512   5.521  10.210  0.4183  0.4580 -0.8100
  740MOL0     O99823   4.430   5.497  10.313 -0.2061 -0.2195 -0.0379
  740MOL0     C99824   4.289   5.523  10.288 -0.5867  0.3969  0.6656
  740MOL0     C99825   4.212   5.401  10.251 -0.4665 -0.3129  0.6303
  740MOL0     C99826   4.063   5.428  10.232 -0.8920 -0.3921 -0.2824
  740MOL0     C99827   4.008   5.498  10.352 -0.0823 -0.3579 -0.6473
  740MOL0     C99828   3.860   5.488  10.364 -0.5067  0.5258 -0.4965
  740MOL0     C99829   3.741   5.503  10.379 -0.3620  0.0520 -0.6570
  740MOL0     C99830   4.528   5.643  10.146 -0.4579  0.3963 -0.3392
  740MOL0     C99831   4.620   5.648  10.035  0.4771  0.1002  0.2228
  740MOL0     C99832   4.626   5.791   9.974  0.3040 -0.5269  0.4410
  740MOL0     H99833   4.659   5.315   9.626 -1.1564 -0.0532 -2.3007
  740MOL0     H99834   4.745   5.287   9.389  0.7665 -0.6279  0.4629
  740MOL0     H99835   4.957   5.420   9.130 -1.4292  1.2849  0.2641
  740MOL0     H99836   4.936   5.519   9.279 -0.4006 -1.3923 -0.7836
  740MOL0     H99837   5.190   5.415   9.157 -0.9603 -1.0874  0.3373
  740MOL0     H99838   5.189   5.479   9.323 -2.1503 -1.9061  0.5270
  740MOL0     H99839   5.235   5.694   9.192 -0.6394  0.3626 -1.0311
  740MOL0     H99840   5.074   5.690   9.248 -2.7815 -2.4822 -1.2252
  740MOL0     H99841   5.132   5.579   8.980  1.7956  1.7678 -0.5578
  740MOL0     H99842   4.979   5.635   9.051 -1.0353 -0.6234 -1.4454
  740MOL0     H99843   5.028   5.790   8.903 -1.0589  0.5167  1.2013
  740MOL0     H99844   5.072   5.872   9.047  1.2103 -2.3210  3.3221
  740MOL0     H99845   5.305   5.865   9.020 -1.9352  1.7127 -0.0663
  740MOL0     H99846   5.287   5.711   8.931 -0.3390 -0.7540 -2.7407
  740MOL0     H99847   5.197   5.840   8.729  1.0225 -0.1644 -1.7105
  740MOL0     H99848   5.373   5.858   8.770 -0.5685 -2.6303 -2.1706
  740MOL0     H99849   5.220   6.059   8.711  0.8242 -0.9768  0.1335
  740MOL0     H99850   5.164   6.056   8.873  1.0192  0.4429  1.0274
  740MOL0     H99851   5.536   5.958   8.816 -2.3955 -0.4245 -4.1327
  740MOL0     H99852   5.745   6.138   9.020  1.6903  0.6999 -0.6783
  740MOL0     H99853   5.763   6.049   8.868 -0.1161 -0.5175  2.5465
  740MOL0     H99854   5.777   6.278   8.742  0.2015 -3.5204 -0.5227
  740MOL0     H99855   5.773   6.351   8.904 -3.3901 -0.4971 -1.7744
  740MOL0     H99856   6.000   6.167   8.782  0.1276  1.3989 -1.5109
  740MOL0     H99857   5.987   6.181   8.950  0.6083 -0.6106 -0.3861
  740MOL0     H99858   6.031   6.440   8.904  0.1007  0.1919  0.0380
  740MOL0     H99859   6.060   6.385   8.738  0.4238  0.7921 -0.1255
  740MOL0     H99860   6.204   6.475   8.661  0.8014  0.2635 -0.7488
  740MOL0     H99861   6.416   6.556   8.566  0.2596 -1.8772 -1.1156
  740MOL0     H99862   6.712   6.667   8.311 -0.6399  0.5902 -0.4567
  740MOL0     H99863   6.902   6.780   8.240  1.4501  0.7080  0.0597
  740MOL0     H99864   7.268   6.931   8.471 -0.6086  0.7075  0.1935
  740MOL0     H99865   7.242   6.756   8.518 -1.0316  0.7689  0.6798
  740MOL0     H99866   7.337   6.828   8.243 -0.6507  1.8234  1.5043
  740MOL0     H99867   7.440   6.780   8.390  1.3085 -0.9521 -0.8214
  740MOL0     H99868   7.291   6.575   8.404  0.0135 -0.7278 -0.2760
  740MOL0     H99869   7.229   6.630   8.237  0.2121  0.1744 -0.4193
  740MOL0     H99870   7.385   6.448   8.230 -2.7521  1.2241  0.3789
  740MOL0     H99871   7.509   6.537   8.311 -1.3620 -1.4059  1.8033
  740MOL0     H99872   7.551   6.686   8.128  1.7148 -1.7257  0.3389
  740MOL0     H99873   7.394   6.627   8.043  0.5264  1.2315 -0.1451
  740MOL0     H99874   7.658   6.500   8.078 -0.3108  2.2663  0.9001
  740MOL0     H99875   7.519   6.397   8.034 -1.8820  0.0721 -0.4616
  740MOL0     H99876   7.647   6.630   7.885 -0.7598 -0.0129  3.6869
  740MOL0     H99877   7.485   6.571   7.836  1.2331  2.8914 -2.1732
  740MOL0     H99878   7.751   6.397   7.818 -0.2912 -0.2865 -0.6905
  740MOL0     H99879   7.591   6.335   7.791  0.1786 -0.8600 -1.1661
  740MOL0     H99880   7.076   6.771   8.633  1.0346 -0.7190 -1.6643
  740MOL0     H99881   6.869   6.669   8.715  2.2458 -5.4446 -1.7180
  740MOL0     H99882   6.639   6.309   8.844  2.0963  1.5460 -1.9335
  740MOL0     H99883   6.414   6.230   8.941 -0.9006  1.4429  1.0381
  740MOL0     H99884   5.138   5.363   9.508 -0.0563  1.2579 -0.8821
  740MOL0     H99885   5.067   5.425   9.736  0.3772  0.9506  0.9804
  740MOL0     H99886   4.736   5.331  10.045  2.4416  2.0397 -0.7053
  740MOL0     H99887   4.579   5.307  10.233 -2.2844 -0.9083 -1.9500
  740MOL0     H99888   4.279   5.600  10.211 -2.5662 -1.0502 -0.6487
  740MOL0     H99889   4.266   5.570  10.383 -2.7599  2.0240 -0.5734
  740MOL0     H99890   4.223   5.332  10.336  1.1987 -0.4914  0.3056
  740MOL0     H99891   4.235   5.348  10.159 -0.8536  0.7876 -0.1265
  740MOL0     H99892   4.009   5.333  10.225 -0.5966 -0.6304  0.6106
  740MOL0     H99893   4.063   5.491  10.142  0.5755  1.1579  0.7284
  740MOL0     H99894   4.042   5.445  10.441  1.3763 -0.9263 -1.5081
  740MOL0     H99895   4.035   5.603  10.365  1.3921 -0.9794  2.0333
  740MOL0     H99896   3.635   5.512  10.368 -0.7512 -0.9584  1.6739
  740MOL0     H99897   4.481   5.732  10.185  0.2563  0.6318 -0.0066
  740MOL0     H99898   4.706   5.813   9.902 -1.3297  0.9474 -1.0457
  740MOL0     H99899   4.534   5.822   9.922  1.0713  0.3084 -0.4743
  740MOL0     H99900   4.640   5.862  10.056  0.1629 -1.2204  1.0753
  741MOL0     O99901  10.170   2.432   7.809  0.4932 -0.1790 -0.7910
  741MOL0     C99902  10.123   2.506   7.899  0.2810 -0.4140  0.8641
  741MOL0     O99903  10.187   2.607   7.966  0.2593 -0.3657 -0.1794
  741MOL0     C99904  10.313   2.627   7.923 -0.4904 -0.4500  0.2248
  741MOL0     C99905  10.421   2.539   7.969 -0.6754 -0.1277  0.4648
  741MOL0     C99906  10.550   2.543   7.919  0.7476 -0.3585 -0.2628
  741MOL0     C99907  10.576   2.639   7.827  0.2932  0.3349 -0.3124
  741MOL0     O99908  10.704   2.658   7.774  0.1389 -0.7862 -0.2230
  741MOL0     C99909  10.801   2.555   7.781  0.0029  0.6811 -0.9890
  741MOL0     C99910  10.914   2.576   7.684 -0.8679 -0.3938 -0.1264
  741MOL0     C99911  10.879   2.534   7.537 -0.7289  0.0543 -0.3696
  741MOL0     C99912  10.751   2.591   7.483  0.6874 -0.4430  0.2292
  741MOL0     C99913  10.694   2.534   7.351 -0.7701  0.1878  0.8655
  741MOL0     C99914  10.780   2.533   7.231  0.0392 -0.3768  0.5388
  741MOL0     C99915  10.842   2.674   7.203  0.9894 -0.0130  0.4893
  741MOL0     C99916  10.930   2.680   7.077 -0.0913 -0.1655  0.3711
  741MOL0     N99917  11.078   2.633   7.090 -0.0248 -0.7381 -0.8013
  741MOL0     C99918  11.113   2.517   7.136 -0.3338 -0.1683  0.7451
  741MOL0     C99919  11.250   2.531   7.149 -0.1634  0.1561 -0.5615
  741MOL0     C99920  11.340   2.419   7.199 -0.7490  0.0008 -0.6245
  741MOL0     C99921  11.451   2.481   7.297  0.3350  0.6781 -0.2463
  741MOL0     C99922  11.512   2.369   7.372  0.1839  0.3664 -0.7722
  741MOL0     C99923  11.653   2.408   7.438  0.6888 -0.1376  0.3281
  741MOL0     O99924  11.640   2.512   7.536  0.7422 -0.3235 -0.4964
  741MOL0     C99925  11.755   2.579   7.586  0.4060  0.6304  0.2550
  741MOL0     C99926  11.719   2.688   7.656 -0.1089 -1.2776 -0.4827
  741MOL0     C99927  11.815   2.749   7.729 -0.6445 -0.3587 -0.9801
  741MOL0     C99928  11.953   2.708   7.723  0.0005 -0.4369 -0.0731
  741MOL0     C99929  12.058   2.769   7.807  0.8272  0.6807  0.1223
  741MOL0     O99930  12.192   2.736   7.790  0.0147 -0.8233 -0.6088
  741MOL0     C99931  12.292   2.781   7.880  0.4355 -0.3481 -0.0471
  741MOL0     C99932  12.273   2.820   8.014  0.1024 -0.1505  0.5873
  741MOL0     C99933  12.392   2.856   8.085 -0.2624 -0.4299 -0.4794
  741MOL0     C99934  12.520   2.856   8.029 -0.2718  0.0388  0.4493
  741MOL0     O99935  12.645   2.865   8.092 -0.1600 -0.0730 -0.1075
  741MOL0     C99936  12.644   2.916   8.233 -0.3248  0.2648 -0.4852
  741MOL0     C99937  12.789   2.959   8.268 -0.1703 -0.3849 -0.5162
  741MOL0     C99938  12.893   2.843   8.250 -0.8217 -0.0981 -0.9454
  741MOL0     C99939  13.026   2.888   8.321 -0.2172  0.1227  0.7276
  741MOL0     C99940  13.108   2.766   8.358  0.6235 -0.1961  0.3529
  741MOL0     C99941  13.208   2.801   8.464 -0.3541 -0.4642  0.3593
  741MOL0     C99942  13.326   2.873   8.398  0.3620 -0.3528  0.5841
  741MOL0     C99943  13.456   2.875   8.482  0.7529  1.2455 -0.0816
  741MOL0    Cl99944  13.578   2.967   8.412 -0.0839  0.3585 -0.0812
  741MOL0     C99945  12.539   2.826   7.894 -0.8278  0.3506  0.1057
  741MOL0     C99946  12.420   2.786   7.824 -0.7205 -0.8116  0.1141
  741MOL0     O99947  12.015   2.853   7.888  0.0370  0.6589 -0.3358
  741MOL0     C99948  11.985   2.598   7.644  0.4574  0.2409  0.2567
  741MOL0     C99949  11.884   2.524   7.571 -0.4055 -0.3043 -1.6362
  741MOL0     N99950  11.297   2.649   7.107  0.7213 -0.3848  0.2606
  741MOL0     N99951  11.195   2.714   7.066  0.3928 -0.0550  0.1774
  741MOL0     C99952  10.472   2.726   7.789 -0.1679 -0.5528 -0.2149
  741MOL0     C99953  10.339   2.718   7.828 -0.7142 -0.1719  0.3237
  741MOL0     C99954   9.972   2.505   7.933  0.4566 -0.3313 -0.9465
  741MOL0     C99955   9.928   2.570   8.050 -0.3645 -0.4220 -0.5586
  741MOL0     C99956   9.792   2.563   8.084 -0.7498 -0.0167  0.7561
  741MOL0     C99957   9.691   2.516   8.001 -0.4758  0.7483  0.3243
  741MOL0     O99958   9.564   2.541   8.041  0.7112  0.5190 -0.2066
  741MOL0     C99959   9.505   2.421   8.087 -0.4493  0.6273 -0.7960
  741MOL0     C99960   9.354   2.435   8.091 -0.0650  0.5070  0.0431
  741MOL0     C99961   9.302   2.526   8.201  0.3101 -0.7288 -0.4467
  741MOL0     C99962   9.147   2.511   8.227 -0.0180  0.4210  0.4630
  741MOL0     C99963   9.093   2.622   8.288  0.1938  0.3509  0.0800
  741MOL0     C99964   9.027   2.716   8.331 -0.4484 -0.5151 -0.1673
  741MOL0     C99965   9.733   2.448   7.890 -1.0626  0.1480  0.5430
  741MOL0     C99966   9.873   2.436   7.861 -0.4392 -0.0523 -0.3433
  741MOL0     C99967   9.900   2.388   7.717 -0.0081  0.5865  0.5144
  741MOL0     H99968  10.394   2.473   8.051 -0.3579  1.3194  1.7890
  741MOL0     H99969  10.633   2.478   7.945  1.5564  0.2868 -1.1828
  741MOL0     H99970  10.832   2.540   7.885 -1.3845  1.8043 -0.3731
  741MOL0     H99971  10.751   2.462   7.750  0.3150  0.4728 -0.8694
  741MOL0     H99972  11.008   2.527   7.709 -0.8119 -0.4799 -0.4889
  741MOL0     H99973  10.939   2.683   7.686  0.8357 -0.7694  1.6424
  741MOL0     H99974  10.875   2.425   7.547  1.3752 -0.0494 -0.2938
  741MOL0     H99975  10.959   2.567   7.470 -0.5590 -0.4837 -0.4357
  741MOL0     H99976  10.668   2.570   7.552 -2.0503  0.8654 -2.4224
  741MOL0     H99977  10.767   2.699   7.477 -0.0607 -0.1116  2.8730
  741MOL0     H99978  10.665   2.430   7.372 -1.2535  0.0165 -0.5536
  741MOL0     H99979  10.603   2.589   7.324 -2.2726 -3.1671 -1.7095
  741MOL0     H99980  10.864   2.474   7.269  1.8456  1.5285 -0.3008
  741MOL0     H99981  10.729   2.486   7.146 -1.2415 -0.5060  1.3527
  741MOL0     H99982  10.905   2.712   7.284  0.8826 -0.6619  0.8877
  741MOL0     H99983  10.770   2.754   7.184  2.6645  1.1861 -1.2115
  741MOL0     H99984  10.875   2.622   7.002  0.5242  0.8993 -0.9438
  741MOL0     H99985  10.938   2.774   7.022  1.6219 -1.8139 -2.4573
  741MOL0     H99986  11.042   2.442   7.167 -1.3880  0.9714  1.1926
  741MOL0     H99987  11.289   2.339   7.254  0.5216 -1.6305 -1.7361
  741MOL0     H99988  11.394   2.371   7.117  0.1218 -3.7285  1.8893
  741MOL0     H99989  11.523   2.531   7.231 -1.0747  0.8309 -1.7601
  741MOL0     H99990  11.396   2.544   7.368 -2.7795  0.6597 -2.4342
  741MOL0     H99991  11.535   2.290   7.299 -2.3724  0.4159 -1.7284
  741MOL0     H99992  11.444   2.337   7.451 -1.4882  3.2347 -0.9100
  741MOL0     H99993  11.718   2.449   7.360 -0.9496  2.9429  0.4482
  741MOL0     H99994  11.699   2.319   7.484 -0.3417  0.3935  2.5295
  741MOL0     H99995  11.617   2.725   7.648  0.4813  1.1292  1.7241
  741MOL0     H99996  11.789   2.831   7.794 -0.6035 -0.8269 -0.3670
  741MOL0     H99997  12.176   2.812   8.061 -1.6514  0.9383 -2.5413
  741MOL0     H99998  12.382   2.867   8.193 -0.2075  0.5258 -0.5560
  741MOL0     H99999  12.569   2.996   8.243 -1.5085 -0.7786 -0.7053
  741MOL0     H    0  12.610   2.838   8.302 -1.5672  0.9810 -0.2540
  741MOL0     H    1  12.816   3.045   8.206 -0.1681 -1.9543 -2.8383
  741MOL0     H    2  12.780   2.987   8.373 -1.0609  2.1388 -1.1916
  741MOL0     H    3  12.847   2.756   8.298  0.0061  0.6554  1.3612
  741MOL0     H    4  12.920   2.810   8.149  3.1408 -0.4525  0.0522
  741MOL0     H    5  12.999   2.936   8.416 -2.1832 -3.8078  2.3658
  741MOL0     H    6  13.083   2.966   8.269  0.1315  1.5743  3.1166
  741MOL0     H    7  13.163   2.717   8.277 -0.9014  2.4385 -2.4941
  741MOL0     H    8  13.048   2.693   8.414  1.1097  0.7358  2.1499
  741MOL0     H    9  13.159   2.861   8.541 -2.0890 -0.5160 -0.6592
  741MOL0     H   10  13.238   2.711   8.518  2.0008  0.9295  1.5744
  741MOL0     H   11  13.302   2.976   8.371  3.4235  0.3659  0.2383
  741MOL0     H   12  13.346   2.828   8.301  0.1366 -3.5228  1.8776
  741MOL0     H   13  13.426   2.922   8.576  0.1786  1.0153 -0.1410
  741MOL0     H   14  13.492   2.775   8.509 -1.1898  0.4838 -0.1217
  741MOL0     H   15  12.633   2.815   7.841 -0.9425 -1.5688  0.2252
  741MOL0     H   16  12.437   2.746   7.725 -1.8742 -0.2865 -0.3047
  741MOL0     H   17  12.081   2.562   7.610  0.4563  1.4251 -1.1165
  741MOL0     H   18  11.912   2.431   7.524 -1.4410 -1.6217  0.2147
  741MOL0     H   19  10.502   2.801   7.717 -0.9652  2.2636  2.1962
  741MOL0     H   20  10.261   2.785   7.793 -1.2831 -2.0736 -2.3418
  741MOL0     H   21  10.006   2.605   8.116  0.4066 -1.1448 -1.0618
  741MOL0     H   22   9.765   2.601   8.182 -0.3629  0.7668  0.5742
  741MOL0     H   23   9.555   2.402   8.182 -1.9789  2.5038  0.4617
  741MOL0     H   24   9.533   2.337   8.023  1.4803  0.8317 -0.2964
  741MOL0     H   25   9.309   2.338   8.115 -0.5324  0.5197 -0.7525
  741MOL0     H   26   9.315   2.461   7.992  2.1990 -0.3712 -1.1538
  741MOL0     H   27   9.315   2.626   8.160  0.3074 -0.9125 -0.9041
  741MOL0     H   28   9.359   2.531   8.294 -2.0875  5.3648  1.1473
  741MOL0     H   29   9.102   2.491   8.129  1.1965  0.9289 -0.2226
  741MOL0     H   30   9.140   2.423   8.292  3.4795 -0.8541 -0.6361
  741MOL0     H   31   8.951   2.787   8.360  0.6897 -0.3513  2.7524
  741MOL0     H   32   9.657   2.406   7.825  1.3422 -0.2946 -2.1802
  741MOL0     H   33   9.950   2.470   7.665  1.9356 -0.2653  0.9367
  741MOL0     H   34   9.964   2.299   7.726 -0.0683  0.4449 -0.4284
  741MOL0     H   35   9.808   2.370   7.662  1.4433 -2.0613 -1.2829
  742MOL0     O   36   1.939   7.123   9.327  0.2924 -0.4280  0.4642
  742MOL0     C   37   1.851   7.185   9.268  0.4662 -0.5441  0.0233
  742MOL0     O   38   1.863   7.280   9.162 -0.3884 -0.9661  0.6141
  742MOL0     C   39   1.988   7.306   9.127 -0.4663  0.6750 -0.3980
  742MOL0     C   40   2.045   7.230   9.023 -0.0136 -0.2964 -0.5919
  742MOL0     C   41   2.173   7.270   8.976  0.4274 -0.4603 -0.0926
  742MOL0     C   42   2.231   7.395   9.011 -0.1060 -0.6249  0.4554
  742MOL0     O   43   2.349   7.427   8.947  0.2812  0.1899 -0.2446
  742MOL0     C   44   2.353   7.523   8.845 -0.8433 -0.5238  0.0906
  742MOL0     C   45   2.462   7.476   8.746 -0.7756  0.4478 -0.3540
  742MOL0     C   46   2.488   7.569   8.636 -2.1443 -0.2334  0.0455
  742MOL0     C   47   2.608   7.534   8.547  0.5373 -0.1009 -0.0450
  742MOL0     C   48   2.616   7.645   8.437 -0.0998  0.4695  0.3594
  742MOL0     C   49   2.745   7.647   8.363  0.6161  0.3431  0.2653
  742MOL0     C   50   2.744   7.756   8.247  0.4873  0.2778 -0.3294
  742MOL0     C   51   2.819   7.707   8.120 -0.5286  0.5991  0.9293
  742MOL0     N   52   2.955   7.653   8.137 -0.8575 -0.1365 -0.4957
  742MOL0     C   53   3.044   7.708   8.229 -0.7854  0.2325  0.0997
  742MOL0     C   54   3.164   7.659   8.184 -0.4872  0.1437 -0.0790
  742MOL0     C   55   3.301   7.676   8.256 -1.2634  0.4488  0.0384
  742MOL0     C   56   3.394   7.787   8.207  0.2680  0.0972  0.2308
  742MOL0     C   57   3.443   7.782   8.063 -0.4450  0.2001 -0.6051
  742MOL0     C   58   3.522   7.914   8.035 -0.2010 -0.4385  0.0304
  742MOL0     O   59   3.642   7.915   8.112  0.1173 -0.4017 -0.5119
  742MOL0     C   60   3.758   7.904   8.045 -0.5705 -0.1172  0.8317
  742MOL0     C   61   3.866   7.989   8.089  0.0016  0.1382  0.5409
  742MOL0     C   62   3.990   7.975   8.032 -0.1209 -0.3787  0.0960
  742MOL0     C   63   4.015   7.887   7.929  0.5179  0.4387  0.2725
  742MOL0     C   64   4.150   7.860   7.886 -0.2264 -0.3700 -0.0462
  742MOL0     O   65   4.174   7.772   7.782  0.4129 -0.9311 -0.0009
  742MOL0     C   66   4.291   7.741   7.723  0.2555 -0.3831  1.0843
  742MOL0     C   67   4.304   7.612   7.683 -0.7303 -0.8964 -0.2859
  742MOL0     C   68   4.430   7.578   7.629 -1.2274 -0.9870 -0.0057
  742MOL0     C   69   4.529   7.680   7.594  0.1784  0.6683  0.5908
  742MOL0     O   70   4.643   7.637   7.522 -0.5597 -0.1206 -0.5095
  742MOL0     C   71   4.706   7.742   7.442  0.4614  0.4713 -0.0647
  742MOL0     C   72   4.802   7.685   7.335 -0.9149 -0.3992 -0.2173
  742MOL0     C   73   4.910   7.598   7.390 -0.1877 -0.1685 -0.3042
  742MOL0     C   74   4.988   7.674   7.503  0.3071  0.2720  0.4922
  742MOL0     C   75   5.114   7.599   7.555  0.6072  0.7649 -0.8874
  742MOL0     C   76   5.226   7.691   7.598  0.1330  0.1993 -0.0935
  742MOL0     C   77   5.342   7.607   7.654  0.2148 -0.9808  0.4092
  742MOL0     C   78   5.461   7.692   7.691  0.0736 -0.7665  0.0893
  742MOL0    Cl   79   5.427   7.798   7.833  0.2697 -0.6139 -0.9080
  742MOL0     C   80   4.500   7.818   7.624 -0.1585  0.5430 -0.2841
  742MOL0     C   81   4.385   7.846   7.693 -0.6504  0.4200  0.8318
  742MOL0     O   82   4.240   7.920   7.944  0.8794 -0.7325  0.1366
  742MOL0     C   83   3.903   7.824   7.867 -0.0934  0.2987 -1.4600
  742MOL0     C   84   3.776   7.840   7.924  0.4637  0.7026  0.2728
  742MOL0     N   85   3.148   7.597   8.065 -0.8096  0.2092 -0.3356
  742MOL0     N   86   3.021   7.584   8.036  0.6573 -0.7294  0.4479
  742MOL0     C   87   2.172   7.469   9.112 -0.3863 -0.9254 -0.3237
  742MOL0     C   88   2.050   7.424   9.176  0.1313  0.2392 -0.2846
  742MOL0     C   89   1.708   7.170   9.323  0.2481 -0.4834 -0.1835
  742MOL0     C   90   1.654   7.286   9.389  0.3821  0.9294 -0.7736
  742MOL0     C   91   1.531   7.271   9.456  0.3793  0.4612  0.9067
  742MOL0     C   92   1.455   7.146   9.451  0.2081 -0.5863  0.6927
  742MOL0     O   93   1.324   7.119   9.502 -0.7425 -0.5890  0.3742
  742MOL0     C   94   1.244   7.235   9.539  0.1740 -0.8008 -0.0488
  742MOL0     C   95   1.183   7.290   9.414  0.2692  0.5674  1.1139
  742MOL0     C   96   1.081   7.190   9.359 -0.1047 -0.7829 -0.0798
  742MOL0     C   97   0.941   7.211   9.436 -0.5966 -0.8553  0.4595
  742MOL0     C   98   0.923   7.092   9.519  0.0504  0.6318 -0.2175
  742MOL0     C   99   0.911   6.987   9.585 -0.4266  0.9197  0.0158
  742MOL0     C  100   1.524   7.039   9.391  0.3872 -0.0778  0.4608
  742MOL0     C  101   1.647   7.044   9.330  0.8402  0.3478 -0.0555
  742MOL0     C  102   1.709   6.918   9.284  0.1738  0.0875  0.4037
  742MOL0     H  103   1.995   7.149   8.972 -0.4008 -0.6045  0.2760
  742MOL0     H  104   2.215   7.226   8.886  1.4940  0.0746  0.1211
  742MOL0     H  105   2.259   7.516   8.788  0.1594 -2.8259 -1.4360
  742MOL0     H  106   2.387   7.621   8.879  1.5119 -0.6497 -1.6992
  742MOL0     H  107   2.421   7.384   8.703 -0.1775  0.2981 -0.6024
  742MOL0     H  108   2.549   7.447   8.804 -1.9479 -1.6048  0.4906
  742MOL0     H  109   2.513   7.668   8.675  2.3899 -0.7098 -1.0731
  742MOL0     H  110   2.403   7.579   8.568 -1.0556 -0.0153 -1.3352
  742MOL0     H  111   2.691   7.524   8.617 -0.9966 -2.9401  1.5814
  742MOL0     H  112   2.581   7.440   8.499 -0.4773  1.8605 -3.6989
  742MOL0     H  113   2.537   7.628   8.364  0.4623 -0.0155 -0.1401
  742MOL0     H  114   2.608   7.743   8.485  1.2555  0.4762  0.6079
  742MOL0     H  115   2.830   7.649   8.432  1.1600 -0.4306 -0.3618
  742MOL0     H  116   2.765   7.548   8.321  2.6244  1.5122 -1.7006
  742MOL0     H  117   2.770   7.854   8.289  0.5217 -0.6912  2.0159
  742MOL0     H  118   2.642   7.763   8.206 -0.3124 -0.7329  1.4010
  742MOL0     H  119   2.762   7.622   8.080  0.4400  0.1109  0.5413
  742MOL0     H  120   2.812   7.787   8.047 -2.2039  1.4802  1.9976
  742MOL0     H  121   3.024   7.778   8.309  0.4598  0.6984  0.0204
  742MOL0     H  122   3.284   7.693   8.362  0.3858 -1.5082  0.6766
  742MOL0     H  123   3.351   7.579   8.254  0.7736  1.4370 -0.6753
  742MOL0     H  124   3.341   7.882   8.222  1.9360  0.8864  1.4694
  742MOL0     H  125   3.486   7.771   8.264 -0.6886 -1.2883  1.4618
  742MOL0     H  126   3.355   7.760   8.002  0.1592 -0.2419 -1.3480
  742MOL0     H  127   3.512   7.698   8.053 -3.3431 -2.4700  0.4240
  742MOL0     H  128   3.459   8.000   8.058 -2.2396 -1.5161 -1.2703
  742MOL0     H  129   3.535   7.914   7.927 -2.9429 -1.7586 -0.3802
  742MOL0     H  130   3.849   8.054   8.174 -0.7920 -0.4265  0.8237
  742MOL0     H  131   4.060   8.043   8.079 -0.4077  2.2439 -2.8873
  742MOL0     H  132   4.229   7.539   7.713 -2.2464  0.8192  0.2667
  742MOL0     H  133   4.435   7.472   7.605 -2.3543 -0.8531 -0.9560
  742MOL0     H  134   4.633   7.803   7.387  0.8933  0.5567 -0.5503
  742MOL0     H  135   4.766   7.812   7.500  0.1230  0.1202  0.7163
  742MOL0     H  136   4.740   7.621   7.271  0.1755  1.2080 -3.0477
  742MOL0     H  137   4.836   7.769   7.275 -1.8767 -0.5142 -0.9388
  742MOL0     H  138   4.870   7.503   7.427 -3.4921  0.3605 -2.1224
  742MOL0     H  139   4.980   7.573   7.309  0.5508  2.3986 -0.5500
  742MOL0     H  140   4.918   7.685   7.587 -1.5852  0.8124 -1.0580
  742MOL0     H  141   5.015   7.772   7.462 -1.6435  1.3082  1.5112
  742MOL0     H  142   5.155   7.541   7.471 -0.6353  1.9302 -2.3662
  742MOL0     H  143   5.093   7.529   7.636  1.7391  0.7835 -0.5540
  742MOL0     H  144   5.241   7.755   7.511 -0.3752  0.1944 -0.1888
  742MOL0     H  145   5.184   7.746   7.683  0.3983 -0.5777  0.5455
  742MOL0     H  146   5.375   7.546   7.569 -1.6097 -2.0006  0.3770
  742MOL0     H  147   5.315   7.544   7.739 -1.4288 -1.0148 -0.1086
  742MOL0     H  148   5.551   7.633   7.713  1.9023  0.9961 -2.1216
  742MOL0     H  149   5.496   7.752   7.606  2.3262 -2.6318 -0.3800
  742MOL0     H  150   4.577   7.892   7.604  0.3066  0.1174 -0.0883
  742MOL0     H  151   4.364   7.951   7.713 -3.8278  0.1429 -0.4599
  742MOL0     H  152   3.911   7.764   7.777 -1.5386 -0.7783 -0.9090
  742MOL0     H  153   3.695   7.784   7.878 -0.2233  0.7564  1.3679
  742MOL0     H  154   2.211   7.562   9.152 -2.6044  0.0781 -0.3081
  742MOL0     H  155   2.005   7.474   9.261  3.0661  1.8179  0.4912
  742MOL0     H  156   1.715   7.376   9.385  1.8550 -0.0700 -2.3401
  742MOL0     H  157   1.494   7.348   9.523  3.5712  0.3592  3.0064
  742MOL0     H  158   1.296   7.306   9.604 -2.1438 -1.5990  2.9560
  742MOL0     H  159   1.160   7.209   9.605  0.2101 -0.7186  0.0307
  742MOL0     H  160   1.249   7.289   9.328 -2.3379 -0.5393 -1.0224
  742MOL0     H  161   1.132   7.386   9.427  0.8510  0.7028  2.5902
  742MOL0     H  162   1.112   7.085   9.360  3.7086  0.1984  1.6726
  742MOL0     H  163   1.056   7.229   9.260 -4.8127 -1.6823  0.5293
  742MOL0     H  164   0.929   7.305   9.489  2.5658  0.1024 -0.2900
  742MOL0     H  165   0.862   7.202   9.361 -0.3955  3.4271 -0.5210
  742MOL0     H  166   0.903   6.890   9.629  2.4992  0.4912 -0.1986
  742MOL0     H  167   1.489   6.937   9.402 -0.4885  0.4343  3.4445
  742MOL0     H  168   1.641   6.846   9.239  1.0352  1.6539 -3.8716
  742MOL0     H  169   1.767   6.942   9.194 -0.7206 -0.7466 -0.4172
  742MOL0     H  170   1.774   6.882   9.365 -0.9910 -0.1132  1.2790
  743MOL0     O  171   2.165   3.371   1.540 -0.7529 -0.9787 -0.3982
  743MOL0     C  172   2.190   3.262   1.594  0.9090 -0.8627  0.3667
  743MOL0     O  173   2.303   3.222   1.655  0.6947  0.1125 -0.5298
  743MOL0     C  174   2.415   3.301   1.658 -0.2923  0.5695 -0.1698
  743MOL0     C  175   2.464   3.322   1.787 -0.1805  0.1097 -0.2390
  743MOL0     C  176   2.577   3.406   1.798 -0.2475  0.5639  0.1604
  743MOL0     C  177   2.627   3.481   1.690 -0.6580  0.0775  0.3432
  743MOL0     O  178   2.730   3.566   1.708  0.1634  0.7968 -0.0369
  743MOL0     C  179   2.743   3.678   1.620 -0.1082  0.2887  0.0285
  743MOL0     C  180   2.800   3.801   1.689  0.8643  0.0210 -0.3043
  743MOL0     C  181   2.954   3.771   1.712 -0.1793  1.4211  0.7382
  743MOL0     C  182   3.016   3.875   1.806 -0.3673 -0.3530 -0.0367
  743MOL0     C  183   3.165   3.869   1.805  0.2793 -0.1974  0.7510
  743MOL0     C  184   3.228   3.984   1.892  0.4207  0.7894  0.2440
  743MOL0     C  185   3.227   4.120   1.832  0.6568 -0.2025 -0.3611
  743MOL0     C  186   3.275   4.237   1.922  0.2561  0.0820  1.2818
  743MOL0     N  187   3.417   4.236   1.942 -0.5306 -0.6016  0.2489
  743MOL0     C  188   3.489   4.137   1.995  0.5734  0.8104 -0.1182
  743MOL0     C  189   3.615   4.185   2.003 -1.0311 -0.4983 -0.4345
  743MOL0     C  190   3.742   4.110   2.053  1.0129 -0.7375  0.0761
  743MOL0     C  191   3.812   4.032   1.946 -0.4802 -0.6698  0.4918
  743MOL0     C  192   3.906   4.106   1.831  0.3210  0.0644 -0.0785
  743MOL0     C  193   4.031   4.168   1.888 -0.3983 -0.0616  0.2795
  743MOL0     O  194   4.117   4.073   1.949 -0.2077  0.9007 -0.2411
  743MOL0     C  195   4.239   4.104   1.999 -0.3620  0.1702 -0.5336
  743MOL0     C  196   4.290   4.232   1.995  0.0072 -0.9415 -0.2807
  743MOL0     C  197   4.412   4.256   2.050 -0.2715 -1.0073 -0.2980
  743MOL0     C  198   4.473   4.163   2.130  0.0179  0.3164  0.4987
  743MOL0     C  199   4.594   4.215   2.198  0.0405 -0.1992 -0.2809
  743MOL0     O  200   4.643   4.341   2.171  0.0299 -0.4489 -0.2443
  743MOL0     C  201   4.768   4.375   2.217 -0.1814 -0.2438  0.1550
  743MOL0     C  202   4.786   4.438   2.337 -0.1775 -0.0098 -0.5490
  743MOL0     C  203   4.912   4.454   2.386  0.5706 -0.7007  0.6374
  743MOL0     C  204   5.023   4.416   2.312  0.3811  0.2796 -0.0531
  743MOL0     O  205   5.147   4.426   2.374  0.2210 -0.5981 -0.2888
  743MOL0     C  206   5.262   4.348   2.329  0.0190  1.1382 -0.1179
  743MOL0     C  207   5.341   4.391   2.214 -0.7332 -0.5359 -0.0557
  743MOL0     C  208   5.419   4.516   2.233  0.6319 -0.4205 -0.3297
  743MOL0     C  209   5.510   4.550   2.119 -0.4839 -1.0825  0.2251
  743MOL0     C  210   5.619   4.647   2.166  0.1142 -0.4045 -0.2511
  743MOL0     C  211   5.704   4.693   2.044  0.2904  0.0168 -0.2553
  743MOL0     C  212   5.836   4.751   2.092 -0.0438 -0.1268 -0.6169
  743MOL0     C  213   5.821   4.895   2.112 -0.1935  0.2429 -0.4065
  743MOL0    Cl  214   5.983   4.960   2.152  0.0889 -0.0816 -0.2261
  743MOL0     C  215   5.002   4.361   2.183 -0.5657  0.1611 -0.2384
  743MOL0     C  216   4.876   4.326   2.139 -0.4117  0.6435 -0.4339
  743MOL0     O  217   4.645   4.139   2.278 -0.2248  0.1068 -0.4447
  743MOL0     C  218   4.430   4.026   2.134 -0.3535  0.0090 -0.3094
  743MOL0     C  219   4.316   4.002   2.060  0.5994  0.3994 -0.3004
  743MOL0     N  220   3.619   4.311   1.956  0.0645  0.3166 -0.4266
  743MOL0     N  221   3.499   4.339   1.920 -0.5258 -0.3366 -0.4769
  743MOL0     C  222   2.588   3.448   1.557  0.5886  0.1068 -0.1801
  743MOL0     C  223   2.481   3.361   1.544  0.1123 -0.2990 -0.6603
  743MOL0     C  224   2.083   3.161   1.589 -0.8120  0.0103 -0.3973
  743MOL0     C  225   2.121   3.023   1.575  0.5172  0.2299 -0.5206
  743MOL0     C  226   2.018   2.927   1.570 -0.4014 -0.1354 -0.1975
  743MOL0     C  227   1.888   2.967   1.574  0.6370 -0.0425  1.3854
  743MOL0     O  228   1.786   2.867   1.570  0.0656  0.3662 -0.5636
  743MOL0     C  229   1.653   2.900   1.534 -0.7661 -0.1000  0.0581
  743MOL0     C  230   1.559   2.883   1.654 -0.2782  0.3877 -1.2962
  743MOL0     C  231   1.423   2.939   1.637 -0.2904  0.0893 -0.0697
  743MOL0     C  232   1.404   3.085   1.633  1.2192  0.4129 -0.4752
  743MOL0     C  233   1.496   3.154   1.719  0.4503 -0.5671 -0.1074
  743MOL0     C  234   1.576   3.207   1.791  0.2878  0.0124 -0.4658
  743MOL0     C  235   1.852   3.095   1.576  0.2487  0.1086 -0.8511
  743MOL0     C  236   1.948   3.195   1.595  0.0522 -0.1810  0.1986
  743MOL0     C  237   1.895   3.335   1.616 -0.2723 -0.7088  0.5702
  743MOL0     H  238   2.409   3.279   1.870  0.0106 -1.0356 -0.6966
  743MOL0     H  239   2.625   3.418   1.894  0.5755  1.0130 -0.2927
  743MOL0     H  240   2.796   3.661   1.527  0.4081 -0.2083  0.4044
  743MOL0     H  241   2.644   3.711   1.588 -0.4836  2.9290  3.2786
  743MOL0     H  242   2.741   3.820   1.778  0.6339 -0.7963 -0.2715
  743MOL0     H  243   2.798   3.891   1.627 -2.9036  2.0604  2.4105
  743MOL0     H  244   3.000   3.763   1.614 -2.7435  0.6987 -0.5110
  743MOL0     H  245   2.957   3.671   1.757 -1.0342  0.1647 -1.8165
  743MOL0     H  246   2.977   3.970   1.767 -2.2671 -1.7333 -1.6887
  743MOL0     H  247   2.975   3.881   1.908  1.4763  2.2115  0.6724
  743MOL0     H  248   3.185   3.774   1.855 -0.7717  0.5935  2.7983
  743MOL0     H  249   3.215   3.864   1.708 -1.8510  2.4732 -0.6249
  743MOL0     H  250   3.178   3.974   1.989 -0.5355 -0.3104 -0.3415
  743MOL0     H  251   3.334   3.959   1.898  0.6301  0.7095 -2.5463
  743MOL0     H  252   3.123   4.150   1.815  1.0428  1.1014 -0.5834
  743MOL0     H  253   3.283   4.128   1.738 -0.3667  1.2293 -0.9069
  743MOL0     H  254   3.228   4.334   1.905 -2.2955 -0.9261  2.1134
  743MOL0     H  255   3.230   4.215   2.019 -1.5060  0.6590  0.6240
  743MOL0     H  256   3.471   4.039   2.037  1.4148  1.0187  0.7549
  743MOL0     H  257   3.805   4.184   2.102 -1.1041  1.1615  0.0916
  743MOL0     H  258   3.730   4.043   2.138  0.8470 -0.7609  0.0354
  743MOL0     H  259   3.889   3.974   1.998 -0.7912  0.9553  2.9468
  743MOL0     H  260   3.733   3.975   1.897 -0.6103 -1.9666  2.1313
  743MOL0     H  261   3.844   4.183   1.786  1.7270  0.2381 -1.8404
  743MOL0     H  262   3.932   4.031   1.755  0.8814  2.1121 -2.0160
  743MOL0     H  263   3.998   4.236   1.967  0.3782 -1.2712  1.7047
  743MOL0     H  264   4.083   4.226   1.811  0.5975 -1.2666  0.0029
  743MOL0     H  265   4.237   4.317   1.954  1.9600  2.2159  3.1444
  743MOL0     H  266   4.450   4.357   2.039  1.5456 -1.1264  3.4697
  743MOL0     H  267   4.694   4.467   2.387  0.3989 -1.3290  1.4121
  743MOL0     H  268   4.938   4.498   2.481  0.1466  0.2522  0.3211
  743MOL0     H  269   5.332   4.336   2.412 -3.4987 -2.4410  2.7584
  743MOL0     H  270   5.220   4.248   2.311 -1.5802  1.6411  0.6917
  743MOL0     H  271   5.412   4.316   2.178  0.1105 -0.0362  0.5378
  743MOL0     H  272   5.279   4.412   2.126 -1.6531 -0.7364  0.5288
  743MOL0     H  273   5.344   4.592   2.254  1.0521 -0.3206  0.8482
  743MOL0     H  274   5.475   4.499   2.325  0.8555  1.8459 -0.0112
  743MOL0     H  275   5.452   4.613   2.051  4.1618  3.1514 -0.3751
  743MOL0     H  276   5.551   4.461   2.071 -1.4009 -0.9484 -0.8489
  743MOL0     H  277   5.679   4.591   2.238 -0.8394 -2.4863 -0.9996
  743MOL0     H  278   5.582   4.735   2.221  1.1711  0.1322 -0.3728
  743MOL0     H  279   5.726   4.607   1.981  0.6660  0.3828 -0.6375
  743MOL0     H  280   5.647   4.768   1.987 -1.0365  1.7010  3.0335
  743MOL0     H  281   5.913   4.729   2.017  0.8278 -3.5830  1.0512
  743MOL0     H  282   5.875   4.700   2.180 -0.8239 -0.2268 -0.3200
  743MOL0     H  283   5.802   4.934   2.012  2.1945  0.4841 -0.8190
  743MOL0     H  284   5.749   4.918   2.191  0.5023 -1.0139  0.6400
  743MOL0     H  285   5.089   4.341   2.121 -1.2342  1.4107 -1.6187
  743MOL0     H  286   4.868   4.269   2.047 -1.7916 -1.4385  0.8775
  743MOL0     H  287   4.498   3.954   2.178  0.0710  1.0524  0.7821
  743MOL0     H  288   4.280   3.901   2.044 -2.3691  1.6325 -2.4336
  743MOL0     H  289   2.624   3.498   1.468  1.7408  0.1372  0.2906
  743MOL0     H  290   2.443   3.350   1.443  2.0585 -0.1163 -1.4453
  743MOL0     H  291   2.227   2.997   1.576  0.0947 -1.7122 -1.1660
  743MOL0     H  292   2.044   2.822   1.581  0.6033  0.1448  0.1829
  743MOL0     H  293   1.628   2.825   1.458 -0.1368 -1.2355  0.9396
  743MOL0     H  294   1.641   2.995   1.481 -1.8160 -2.0422 -3.5758
  743MOL0     H  295   1.616   2.920   1.740  1.7584 -2.5693 -1.2102
  743MOL0     H  296   1.545   2.780   1.687  0.9265  0.2173 -1.2404
  743MOL0     H  297   1.364   2.907   1.723  2.2646 -2.8128  0.7962
  743MOL0     H  298   1.378   2.898   1.546 -1.2896 -4.0304  2.0277
  743MOL0     H  299   1.421   3.119   1.530 -2.9205 -1.0950 -1.8691
  743MOL0     H  300   1.298   3.102   1.651  0.8470 -0.4713 -1.6674
  743MOL0     H  301   1.661   3.251   1.837  0.5612 -0.0950 -0.8590
  743MOL0     H  302   1.749   3.111   1.604  0.7347  2.0180  0.0222
  743MOL0     H  303   1.893   3.405   1.531  2.9487  0.5753  1.3991
  743MOL0     H  304   1.797   3.331   1.664  0.0848  0.1196  1.3960
  743MOL0     H  305   1.958   3.390   1.686 -0.4267 -0.8262  0.8018
  744MOL0     O  306   1.614   0.960   8.475 -0.1765  0.0556  0.1570
  744MOL0     C  307   1.522   0.916   8.406 -0.2576 -0.3126  0.7971
  744MOL0     O  308   1.523   0.788   8.357 -0.8300  0.5517  0.0793
  744MOL0     C  309   1.646   0.723   8.352 -0.3676  0.5478 -0.1972
  744MOL0     C  310   1.749   0.768   8.264 -0.0327 -0.1635 -0.4467
  744MOL0     C  311   1.872   0.706   8.253 -0.0579  0.3215  0.0653
  744MOL0     C  312   1.891   0.582   8.317  0.0688  0.4060 -1.3009
  744MOL0     O  313   2.018   0.524   8.302  0.1259 -0.2388  0.8142
  744MOL0     C  314   2.048   0.398   8.351 -0.2461  0.3363  0.0330
  744MOL0     C  315   2.195   0.357   8.353  0.6623 -0.5669  0.0351
  744MOL0     C  316   2.288   0.450   8.440 -0.4879  0.7985  0.8874
  744MOL0     C  317   2.429   0.410   8.396 -0.1914 -0.1589  0.1447
  744MOL0     C  318   2.526   0.470   8.491  0.3191  0.2141 -0.0925
  744MOL0     C  319   2.664   0.455   8.436 -0.1495  0.8270  0.3028
  744MOL0     C  320   2.763   0.526   8.532  0.2684 -0.1241  0.8411
  744MOL0     C  321   2.891   0.555   8.451  0.3241 -0.3098 -0.3086
  744MOL0     N  322   2.996   0.587   8.539 -0.4509 -0.1759 -0.4776
  744MOL0     C  323   3.019   0.696   8.627 -0.6567 -0.4779  0.8961
  744MOL0     C  324   3.157   0.712   8.633 -0.0729  0.2011 -0.4183
  744MOL0     C  325   3.230   0.823   8.694 -0.3478  0.6635  0.4995
  744MOL0     C  326   3.311   0.780   8.820 -0.6532  0.1251 -0.0293
  744MOL0     C  327   3.465   0.771   8.784 -1.0948 -0.2765  0.4340
  744MOL0     C  328   3.536   0.728   8.917  0.6255 -0.1234 -0.1530
  744MOL0     O  329   3.493   0.614   8.997 -0.1446  0.4818  0.7419
  744MOL0     C  330   3.571   0.583   9.109 -0.7743  0.1704  0.3455
  744MOL0     C  331   3.560   0.446   9.156  1.1987 -1.1696 -0.4740
  744MOL0     C  332   3.628   0.406   9.269 -0.0843  0.8363  0.1934
  744MOL0     C  333   3.719   0.488   9.339  0.8264  0.3210  0.1714
  744MOL0     C  334   3.794   0.431   9.460 -0.2644  0.4657  0.6815
  744MOL0     O  335   3.749   0.314   9.513 -0.3809 -0.1414  0.4059
  744MOL0     C  336   3.778   0.277   9.642  0.8414  0.5593 -0.5807
  744MOL0     C  337   3.686   0.188   9.703  0.0690  1.1515  1.1124
  744MOL0     C  338   3.708   0.136   9.828  0.5157  0.1758  0.7659
  744MOL0     C  339   3.821   0.170   9.902 -0.0987  0.0357 -0.3261
  744MOL0     O  340   3.854   0.117  10.021 -0.3627  0.2075 -0.1468
  744MOL0     C  341   3.746   0.052  10.089  0.6501 -0.1911  0.8855
  744MOL0     C  342   3.821   0.019  10.216  0.0818  1.0873 -0.5012
  744MOL0     C  343   3.934  -0.082  10.213 -0.8365 -0.9657  1.3365
  744MOL0     C  344   3.988  -0.116  10.348  0.4668  0.1030  0.5198
  744MOL0     C  345   4.113  -0.197  10.343 -0.6664 -0.3825 -0.1214
  744MOL0     C  346   4.122  -0.318  10.256  0.5921  0.3743  0.5794
  744MOL0     C  347   4.245  -0.404  10.298 -0.3247  0.5520  0.7748
  744MOL0     C  348   4.243  -0.477  10.431 -0.4571  0.3226  0.5852
  744MOL0    Cl  349   4.119  -0.604  10.412  0.0833  0.2235 -0.2863
  744MOL0     C  350   3.920   0.257   9.836  0.4865  0.1732 -0.3064
  744MOL0     C  351   3.892   0.310   9.714  0.8149 -0.0274 -0.2262
  744MOL0     O  352   3.880   0.503   9.505  0.1346  0.1352 -0.2608
  744MOL0     C  353   3.736   0.624   9.293  0.5281 -1.3432  0.3851
  744MOL0     C  354   3.669   0.665   9.179 -0.1926 -0.2281 -0.4554
  744MOL0     N  355   3.213   0.596   8.578 -0.1770 -0.4259 -0.4244
  744MOL0     N  356   3.116   0.531   8.535 -0.2719  0.8562 -0.5391
  744MOL0     C  357   1.794   0.538   8.412 -0.2433 -0.7222  0.3790
  744MOL0     C  358   1.669   0.607   8.420 -0.3801 -0.2094  0.3560
  744MOL0     C  359   1.393   0.994   8.403  0.3508  0.7775  0.7352
  744MOL0     C  360   1.399   1.136   8.427 -0.4530  1.0496  0.0200
  744MOL0     C  361   1.287   1.211   8.426 -0.3064  0.4552  0.2059
  744MOL0     C  362   1.164   1.151   8.395  0.1009  0.1799 -0.6097
  744MOL0     O  363   1.050   1.229   8.394  0.5189  0.0475 -0.0631
  744MOL0     C  364   0.922   1.182   8.348  0.7175  0.8816 -0.3385
  744MOL0     C  365   0.815   1.300   8.377 -0.6854  0.2533  0.4520
  744MOL0     C  366   0.782   1.330   8.524 -0.1330 -0.2266  1.0808
  744MOL0     C  367   0.662   1.417   8.547  0.7802  0.6918 -0.0826
  744MOL0     C  368   0.685   1.556   8.522 -0.0425 -1.2883 -0.2469
  744MOL0     C  369   0.694   1.676   8.509 -0.2113 -0.3653  0.4095
  744MOL0     C  370   1.160   1.021   8.353  0.3951  1.1558 -0.1349
  744MOL0     C  371   1.269   0.936   8.363  1.4724  0.4489  0.1637
  744MOL0     C  372   1.239   0.790   8.345 -0.0147 -0.1408  0.4811
  744MOL0     H  373   1.737   0.864   8.215 -2.6962 -0.9111 -1.4391
  744MOL0     H  374   1.944   0.752   8.186  0.4637 -1.4927 -0.6889
  744MOL0     H  375   2.023   0.397   8.458 -2.9770  4.1379 -0.3608
  744MOL0     H  376   1.982   0.327   8.301 -0.4757  3.0856 -4.0453
  744MOL0     H  377   2.229   0.349   8.250  0.1844 -2.3044 -0.0174
  744MOL0     H  378   2.215   0.260   8.400  3.4307 -0.1205 -0.0570
  744MOL0     H  379   2.274   0.432   8.547 -0.3444 -0.6555  0.6797
  744MOL0     H  380   2.272   0.557   8.425 -1.1743  0.8174  1.6623
  744MOL0     H  381   2.447   0.302   8.387  1.1124  0.1348 -1.2111
  744MOL0     H  382   2.452   0.458   8.300  0.1471 -0.1985  0.2046
  744MOL0     H  383   2.500   0.576   8.503 -0.3482  0.2323 -1.5284
  744MOL0     H  384   2.516   0.419   8.587 -2.7249 -0.2594 -0.5895
  744MOL0     H  385   2.690   0.350   8.421  0.3375  1.2838 -2.5652
  744MOL0     H  386   2.671   0.495   8.334  0.9085  2.0031  0.8037
  744MOL0     H  387   2.780   0.465   8.620 -2.3189 -0.2751  1.3370
  744MOL0     H  388   2.718   0.620   8.566 -1.1100  0.2381 -1.6679
  744MOL0     H  389   2.923   0.456   8.416 -0.0638 -0.4531 -0.2618
  744MOL0     H  390   2.880   0.623   8.366  3.3515 -1.5148 -1.8166
  744MOL0     H  391   2.935   0.748   8.671 -0.1987  1.0841  0.0009
  744MOL0     H  392   3.296   0.878   8.625 -0.3273  1.5766  1.2322
  744MOL0     H  393   3.163   0.895   8.740 -1.5851 -1.1340  1.6607
  744MOL0     H  394   3.287   0.850   8.901 -2.2808 -0.6666  0.2254
  744MOL0     H  395   3.271   0.683   8.852  0.6439 -0.3464  0.2372
  744MOL0     H  396   3.509   0.866   8.752 -1.5852 -0.2185 -0.0668
  744MOL0     H  397   3.472   0.694   8.707 -1.3214  1.8290 -1.7901
  744MOL0     H  398   3.513   0.808   8.989 -1.1228 -0.3467 -0.4196
  744MOL0     H  399   3.645   0.728   8.914  0.6330  0.6140 -0.0439
  744MOL0     H  400   3.508   0.362   9.111  1.3191 -1.1629 -0.6282
  744MOL0     H  401   3.618   0.304   9.305  2.9579  1.0419  1.9168
  744MOL0     H  402   3.597   0.166   9.645  0.4208  0.4628  0.8220
  744MOL0     H  403   3.639   0.065   9.871 -2.1947  1.9486 -0.4252
  744MOL0     H  404   3.665   0.120  10.118  3.0818  2.5313  1.7068
  744MOL0     H  405   3.700  -0.033  10.037 -0.5795  1.4596 -0.9355
  744MOL0     H  406   3.849   0.100  10.283  0.0619  0.5268  0.2046
  744MOL0     H  407   3.747  -0.030  10.280  0.1634 -0.7077 -1.6923
  744MOL0     H  408   3.901  -0.164  10.148  0.4012 -0.7982  0.4531
  744MOL0     H  409   4.009  -0.028  10.155 -0.9498 -0.4795  1.6350
  744MOL0     H  410   3.909  -0.169  10.403 -0.5974  0.0764 -0.9962
  744MOL0     H  411   4.018  -0.028  10.405 -0.9376 -0.4504  2.2095
  744MOL0     H  412   4.132  -0.223  10.447 -1.0654 -5.0059 -0.9768
  744MOL0     H  413   4.181  -0.121  10.305 -0.6452 -0.2412  0.1961
  744MOL0     H  414   4.025  -0.364  10.273  0.4028  1.1828  1.7537
  744MOL0     H  415   4.118  -0.292  10.150 -1.3704 -2.3909 -0.1389
  744MOL0     H  416   4.332  -0.339  10.300  1.7560 -2.0502  0.6809
  744MOL0     H  417   4.260  -0.478  10.218  2.3250  0.3114  1.4089
  744MOL0     H  418   4.341  -0.525  10.434 -0.4325  0.3926  0.8667
  744MOL0     H  419   4.232  -0.417  10.521 -1.6421 -1.1668  1.4822
  744MOL0     H  420   4.014   0.270   9.888  0.5509 -3.7259  0.8599
  744MOL0     H  421   3.967   0.378   9.676  0.4499  1.1159  1.0145
  744MOL0     H  422   3.801   0.694   9.343  0.0732  0.7799 -1.8184
  744MOL0     H  423   3.707   0.754   9.129  0.0489  0.0767  0.2598
  744MOL0     H  424   1.819   0.449   8.469  0.9627 -1.3239 -1.0352
  744MOL0     H  425   1.584   0.572   8.477 -0.0521 -1.2763  0.2073
  744MOL0     H  426   1.498   1.167   8.459 -0.1067 -2.1453  2.6051
  744MOL0     H  427   1.294   1.317   8.450  0.5876  0.2568  0.8682
  744MOL0     H  428   0.903   1.090   8.405 -3.0918  0.4163 -2.0724
  744MOL0     H  429   0.913   1.149   8.244 -1.6174 -0.7414  0.3001
  744MOL0     H  430   0.717   1.275   8.335  0.0849 -1.9355 -0.1881
  744MOL0     H  431   0.848   1.396   8.334  0.5801  1.0924  3.0967
  744MOL0     H  432   0.865   1.379   8.576 -1.1497  2.7187  0.1669
  744MOL0     H  433   0.757   1.235   8.572 -1.0919 -1.5740 -1.8417
  744MOL0     H  434   0.594   1.383   8.468  2.6127 -2.5100 -0.4528
  744MOL0     H  435   0.622   1.392   8.646  2.9976 -0.1225  0.6560
  744MOL0     H  436   0.686   1.778   8.476 -4.5913 -0.7566 -0.3709
  744MOL0     H  437   1.068   0.964   8.342  1.8703 -1.7221  1.3956
  744MOL0     H  438   1.255   0.765   8.240 -1.5429 -0.8941  0.4016
  744MOL0     H  439   1.316   0.726   8.390  0.8808  1.2509  1.0060
  744MOL0     H  440   1.146   0.756   8.392 -0.3969  0.3213  0.0634
  745MOL0     O  441   3.999   0.480   5.939 -0.1629 -0.6077  0.4633
  745MOL0     C  442   3.976   0.601   5.929 -0.1879 -0.3704  0.1574
  745MOL0     O  443   4.069   0.701   5.903  0.6641  0.7656 -0.2460
  745MOL0     C  444   4.199   0.678   5.954  0.2530 -0.1143 -0.1947
  745MOL0     C  445   4.298   0.753   5.890 -0.3659  0.2810 -0.8779
  745MOL0     C  446   4.436   0.751   5.923  0.1215  0.0443  0.0204
  745MOL0     C  447   4.476   0.660   6.020  0.2538 -0.3000  0.6118
  745MOL0     O  448   4.611   0.649   6.037 -0.7968 -0.4793 -0.0151
  745MOL0     C  449   4.645   0.585   6.164  0.1533 -0.5461 -0.0556
  745MOL0     C  450   4.797   0.584   6.181 -0.3753  0.3137 -0.5731
  745MOL0     C  451   4.850   0.496   6.065 -0.3675 -0.4894 -0.5522
  745MOL0     C  452   5.006   0.524   6.064 -0.8512  0.1694 -0.1715
  745MOL0     C  453   5.088   0.435   5.967 -0.8026  0.2194 -0.2245
  745MOL0     C  454   5.225   0.482   5.946 -0.8483 -0.3606 -1.0263
  745MOL0     C  455   5.300   0.389   5.859 -0.2797 -0.3749  0.3163
  745MOL0     C  456   5.432   0.462   5.825  0.7873  0.1780  0.1636
  745MOL0     N  457   5.511   0.508   5.947  0.5835  0.4001  0.6356
  745MOL0     C  458   5.540   0.424   6.045  0.0411 -0.4606  0.2633
  745MOL0     C  459   5.598   0.500   6.135  0.8214  0.1155  0.2338
  745MOL0     C  460   5.669   0.459   6.265  0.4315 -0.1369  0.4128
  745MOL0     C  461   5.812   0.422   6.237  0.0520  0.0153 -0.5153
  745MOL0     C  462   5.886   0.357   6.356  0.6658  0.1795 -0.4177
  745MOL0     C  463   6.035   0.348   6.326  0.0447 -0.4068 -0.0810
  745MOL0     O  464   6.093   0.287   6.446 -0.0852 -0.1041 -0.0104
  745MOL0     C  465   6.223   0.292   6.459 -0.5280  0.0109 -0.2368
  745MOL0     C  466   6.313   0.356   6.380  0.6620 -0.3017  0.0148
  745MOL0     C  467   6.448   0.340   6.390  0.3767  0.6326  1.1986
  745MOL0     C  468   6.502   0.267   6.496 -0.4444  0.3046 -0.0346
  745MOL0     C  469   6.647   0.249   6.511  0.0497  0.1211 -0.2464
  745MOL0     O  470   6.692   0.164   6.611  0.1081 -0.5240  0.0933
  745MOL0     C  471   6.824   0.140   6.619 -0.2523 -0.5936  0.4301
  745MOL0     C  472   6.925   0.239   6.644  0.0525  0.2239  0.2482
  745MOL0     C  473   7.061   0.201   6.646 -0.1445 -0.3666 -0.7915
  745MOL0     C  474   7.093   0.067   6.632 -0.4830 -0.7112 -0.5459
  745MOL0     O  475   7.225   0.015   6.633  0.2853 -0.9729  0.2590
  745MOL0     C  476   7.334   0.093   6.591 -0.8187  0.7204  0.6889
  745MOL0     C  477   7.433  -0.000   6.506  1.3385 -0.5567 -0.0392
  745MOL0     C  478   7.570   0.067   6.485 -0.1251  0.2011 -0.0188
  745MOL0     C  479   7.577   0.174   6.378 -0.4107  0.0034  0.2066
  745MOL0     C  480   7.720   0.236   6.382  0.1606  0.6000 -0.4386
  745MOL0     C  481   7.757   0.289   6.240  0.5233  0.8046 -0.6382
  745MOL0     C  482   7.900   0.334   6.230  0.1886  0.2403  0.8009
  745MOL0     C  483   7.923   0.409   6.102 -0.8434 -0.8546  0.6468
  745MOL0    Cl  484   7.842   0.572   6.118 -0.2887 -0.4504 -0.0550
  745MOL0     C  485   6.991  -0.029   6.621 -0.0497  0.5806 -0.1103
  745MOL0     C  486   6.862   0.010   6.612 -0.2434 -0.7430 -0.6327
  745MOL0     O  487   6.718   0.324   6.442 -0.2339 -0.2741  0.6680
  745MOL0     C  488   6.414   0.199   6.582 -0.4284 -0.2769  0.3779
  745MOL0     C  489   6.274   0.206   6.562 -1.8561 -0.0903  0.0749
  745MOL0     N  490   5.586   0.637   6.102  0.2708  0.6778 -0.2397
  745MOL0     N  491   5.539   0.641   5.988  0.5189 -0.3596  1.1747
  745MOL0     C  492   4.379   0.578   6.080  1.2319 -0.6530  0.0031
  745MOL0     C  493   4.243   0.590   6.053  0.8282 -0.0119 -0.0973
  745MOL0     C  494   3.842   0.649   5.898  0.0079  0.1317  0.6766
  745MOL0     C  495   3.824   0.765   5.818  0.5106 -0.0976  0.0655
  745MOL0     C  496   3.696   0.823   5.796  0.0011  0.9493 -0.1866
  745MOL0     C  497   3.574   0.763   5.840 -0.1867  1.4198  0.2600
  745MOL0     O  498   3.454   0.810   5.796  0.1885 -0.0687  0.8357
  745MOL0     C  499   3.365   0.713   5.737  0.3046 -0.7190 -0.7682
  745MOL0     C  500   3.310   0.790   5.621 -0.2597  0.3773 -0.3583
  745MOL0     C  501   3.410   0.871   5.537 -0.0283 -0.0465 -0.0501
  745MOL0     C  502   3.372   0.902   5.393  0.8009  0.2564  0.6123
  745MOL0     C  503   3.493   0.935   5.329  0.2971 -0.8745 -0.1634
  745MOL0     C  504   3.599   0.961   5.277 -0.0089 -0.3387 -0.3319
  745MOL0     C  505   3.586   0.641   5.914 -0.2622  0.6370 -0.1990
  745MOL0     C  506   3.712   0.589   5.944 -0.4216  0.2443 -0.1431
  745MOL0     C  507   3.714   0.466   6.030 -0.4041  0.0423  0.7110
  745MOL0     H  508   4.273   0.833   5.821  0.4486  2.0726  0.7998
  745MOL0     H  509   4.498   0.826   5.875  1.1477  2.1233  4.1207
  745MOL0     H  510   4.608   0.650   6.244 -1.7661  0.8851 -1.9970
  745MOL0     H  511   4.605   0.484   6.177 -0.2241 -0.2467  1.2132
  745MOL0     H  512   4.827   0.554   6.282  0.6857  0.8881 -0.6973
  745MOL0     H  513   4.851   0.679   6.189 -0.5106  0.3071  0.4348
  745MOL0     H  514   4.807   0.519   5.967 -1.9675  5.0878  1.1054
  745MOL0     H  515   4.840   0.390   6.091 -0.2390 -0.3350  0.1401
  745MOL0     H  516   5.018   0.627   6.028  1.5469  0.9394  2.3962
  745MOL0     H  517   5.049   0.527   6.165 -2.1488 -0.6851  0.4304
  745MOL0     H  518   5.078   0.328   5.985  0.4407  0.1415  0.0647
  745MOL0     H  519   5.047   0.457   5.868 -0.9338 -0.0912 -0.2387
  745MOL0     H  520   5.223   0.579   5.896 -6.5588  0.6161  0.3570
  745MOL0     H  521   5.270   0.482   6.046 -1.6794 -2.3190 -0.6135
  745MOL0     H  522   5.244   0.364   5.768 -0.5090  1.8934 -0.2298
  745MOL0     H  523   5.316   0.296   5.913 -2.8863 -1.7271 -1.0705
  745MOL0     H  524   5.489   0.392   5.763  1.2363  1.0361 -0.4175
  745MOL0     H  525   5.409   0.553   5.768  1.0747  1.0600  1.4043
  745MOL0     H  526   5.527   0.317   6.057 -0.3324 -0.3956  0.4571
  745MOL0     H  527   5.664   0.537   6.342  0.0255  0.5224 -0.2580
  745MOL0     H  528   5.609   0.377   6.304 -0.6737  0.1965 -0.5381
  745MOL0     H  529   5.829   0.360   6.148 -0.0292 -2.5087  1.1308
  745MOL0     H  530   5.863   0.516   6.209  1.3461 -0.5546 -0.1549
  745MOL0     H  531   5.845   0.258   6.379  1.2233 -0.1419 -0.7990
  745MOL0     H  532   5.869   0.408   6.452 -1.0065 -2.1679  0.6370
  745MOL0     H  533   6.075   0.448   6.306  1.6971  0.1778  4.7810
  745MOL0     H  534   6.054   0.287   6.238  0.6011  0.5750 -0.6634
  745MOL0     H  535   6.276   0.410   6.293 -2.2598 -0.8562  0.7963
  745MOL0     H  536   6.503   0.395   6.314  1.3386 -0.5891  0.9889
  745MOL0     H  537   6.905   0.345   6.657  0.9649  0.2563  1.7015
  745MOL0     H  538   7.131   0.276   6.681 -0.3806  0.3656 -1.8206
  745MOL0     H  539   7.301   0.177   6.529 -2.1420 -1.9814 -2.6066
  745MOL0     H  540   7.395   0.137   6.670  1.2420 -0.6115 -0.0865
  745MOL0     H  541   7.449  -0.094   6.560 -1.4100 -2.4907 -2.2531
  745MOL0     H  542   7.391  -0.033   6.411  1.9614 -0.2324 -0.4273
  745MOL0     H  543   7.605   0.107   6.580 -2.3148  0.4011  0.7716
  745MOL0     H  544   7.636  -0.015   6.456  2.5718  2.1971  0.1585
  745MOL0     H  545   7.504   0.251   6.407  1.4118  1.2517  1.7457
  745MOL0     H  546   7.548   0.137   6.279 -1.0800 -2.2714  1.2061
  745MOL0     H  547   7.787   0.151   6.398 -0.4259  0.2016 -0.0373
  745MOL0     H  548   7.742   0.299   6.469  3.8288  0.3555 -1.0367
  745MOL0     H  549   7.732   0.206   6.173 -0.3218  1.7744 -1.5511
  745MOL0     H  550   7.683   0.367   6.221 -0.4749  0.4440  1.3997
  745MOL0     H  551   7.964   0.246   6.243 -1.1299 -1.1322 -1.3940
  745MOL0     H  552   7.908   0.400   6.317 -1.1237  3.1888 -1.1754
  745MOL0     H  553   8.030   0.416   6.083 -0.5362 -3.1499  1.2303
  745MOL0     H  554   7.875   0.352   6.022 -2.7426 -2.1049  2.5430
  745MOL0     H  555   7.014  -0.135   6.615 -2.4000  0.0865 -2.9468
  745MOL0     H  556   6.785  -0.066   6.617 -2.6697  1.6309  1.9005
  745MOL0     H  557   6.458   0.136   6.659  3.5420 -0.2615 -1.6064
  745MOL0     H  558   6.198   0.163   6.626 -1.5414  3.8860  3.5264
  745MOL0     H  559   4.408   0.502   6.152  2.3369 -0.1705  0.0909
  745MOL0     H  560   4.176   0.523   6.107 -0.0454  1.2435  0.4244
  745MOL0     H  561   3.901   0.818   5.763 -1.4280  0.8125 -1.9269
  745MOL0     H  562   3.685   0.904   5.724  0.5628  2.9484  1.8704
  745MOL0     H  563   3.279   0.688   5.801  1.4052 -0.4566  0.8879
  745MOL0     H  564   3.425   0.625   5.713  1.8844  0.2521 -0.4939
  745MOL0     H  565   3.237   0.858   5.666 -0.5321 -1.2609  1.8252
  745MOL0     H  566   3.263   0.714   5.557  1.5315 -2.2768  1.2740
  745MOL0     H  567   3.511   0.831   5.552 -0.0924  0.2293  1.1782
  745MOL0     H  568   3.420   0.968   5.587 -2.7707  0.8561 -1.0803
  745MOL0     H  569   3.333   0.811   5.347  0.3187  1.3362 -1.2517
  745MOL0     H  570   3.298   0.983   5.388  2.9027  2.3728  1.5127
  745MOL0     H  571   3.697   0.974   5.237  0.3269 -1.9118 -0.0785
  745MOL0     H  572   3.503   0.584   5.954  3.0353 -1.9340  3.8789
  745MOL0     H  573   3.628   0.401   6.010  0.2315 -0.5917 -0.0479
  745MOL0     H  574   3.801   0.400   6.029 -1.7788 -1.8633  0.0669
  745MOL0     H  575   3.691   0.491   6.134  0.5237 -0.5549  1.0677
  746MOL0     O  576   1.047   2.087  10.627  0.4871 -0.3684  0.4627
  746MOL0     C  577   1.117   2.148  10.538  0.8319  0.6735  0.2644
  746MOL0     O  578   1.069   2.184  10.414 -0.1611  0.0958 -0.9155
  746MOL0     C  579   0.932   2.194  10.393 -1.0538 -0.0439 -0.3068
  746MOL0     C  580   0.888   2.184  10.259  0.2948 -0.3835  0.3638
  746MOL0     C  581   0.750   2.190  10.220  0.7881 -0.3271  0.1621
  746MOL0     C  582   0.644   2.212  10.314  0.6986  0.9604 -0.2390
  746MOL0     O  583   0.510   2.203  10.277 -0.0782  0.0431 -0.1788
  746MOL0     C  584   0.417   2.147  10.365  0.5320  0.1336  0.2714
  746MOL0     C  585   0.282   2.138  10.297 -0.4242  0.5340 -0.7649
  746MOL0     C  586   0.179   2.070  10.388  0.1662  0.3492 -0.4006
  746MOL0     C  587   0.207   1.923  10.418  0.8456  0.6586 -0.6423
  746MOL0     C  588   0.091   1.844  10.485 -1.0609 -0.0116  0.2942
  746MOL0     C  589   0.148   1.713  10.534  0.1054 -0.0161 -0.7005
  746MOL0     C  590   0.175   1.619  10.416 -0.7092 -0.5287 -0.0357
  746MOL0     C  591   0.219   1.479  10.473  0.3770  0.2033  0.1711
  746MOL0     N  592   0.268   1.391  10.371 -1.0447  0.6961 -0.0978
  746MOL0     C  593   0.384   1.408  10.285  0.1421  0.4659 -0.3534
  746MOL0     C  594   0.405   1.286  10.240 -0.0669  0.8500  0.2473
  746MOL0     C  595   0.515   1.250  10.143  0.0395  0.4127 -0.3960
  746MOL0     C  596   0.486   1.274   9.999 -0.4326  0.5100 -0.0651
  746MOL0     C  597   0.568   1.189   9.898 -0.2613  0.9604 -0.3647
  746MOL0     C  598   0.716   1.174   9.934 -0.2074 -0.6892  0.0254
  746MOL0     O  599   0.777   1.079   9.841 -0.2323  0.2015 -0.0443
  746MOL0     C  600   0.909   1.073   9.830 -0.6851  0.4267  0.1677
  746MOL0     C  601   0.951   0.985   9.737 -0.5796  0.1020 -0.6414
  746MOL0     C  602   1.088   0.968   9.717 -0.3120 -0.1364  0.2556
  746MOL0     C  603   1.187   1.030   9.796  0.9688 -0.8489  0.9996
  746MOL0     C  604   1.331   0.994   9.781  0.7512 -0.2055  0.2288
  746MOL0     O  605   1.362   0.887   9.708 -0.0488 -1.2643 -0.3041
  746MOL0     C  606   1.480   0.828   9.733 -0.1483  0.1030 -0.4060
  746MOL0     C  607   1.519   0.755   9.630 -0.0559  0.1990  0.4726
  746MOL0     C  608   1.624   0.662   9.645 -0.2639 -0.0677 -0.6732
  746MOL0     C  609   1.690   0.651   9.770 -0.0722 -0.7025 -0.4497
  746MOL0     O  610   1.789   0.562   9.812  0.3965  0.3398  0.0935
  746MOL0     C  611   1.801   0.445   9.729  0.1581  0.5484 -1.1752
  746MOL0     C  612   1.929   0.366   9.774 -0.0726 -0.1679  0.2119
  746MOL0     C  613   1.961   0.248   9.679  0.8236 -0.4702 -0.6487
  746MOL0     C  614   2.089   0.177   9.729 -0.0209  0.4579 -0.3120
  746MOL0     C  615   2.118   0.052   9.649 -1.0945 -1.1884 -0.4532
  746MOL0     C  616   2.258   0.003   9.684 -0.1412 -0.5010 -0.6683
  746MOL0     C  617   2.291  -0.121   9.599  0.4029 -1.3280 -0.3402
  746MOL0     C  618   2.436  -0.153   9.595  0.4787 -0.7741  0.5276
  746MOL0    Cl  619   2.471  -0.201   9.760 -0.0272  0.2557  0.1680
  746MOL0     C  620   1.649   0.735   9.876 -0.2132  0.0507  0.9188
  746MOL0     C  621   1.539   0.815   9.860  0.7295  1.3768  0.4295
  746MOL0     O  622   1.412   1.059   9.844 -0.5586 -0.1416  0.2665
  746MOL0     C  623   1.142   1.121   9.889 -0.0838  0.9945  0.1729
  746MOL0     C  624   1.011   1.140   9.904 -0.5501  0.4796  1.2668
  746MOL0     N  625   0.311   1.196  10.295  0.1882  0.7199 -0.5776
  746MOL0     N  626   0.238   1.257  10.374 -0.1816 -0.1825  0.3580
  746MOL0     C  627   0.690   2.226  10.447  1.1351  0.7616  0.1377
  746MOL0     C  628   0.824   2.219  10.486  0.1781 -0.1738 -0.7830
  746MOL0     C  629   1.264   2.157  10.575  0.4236  0.0733 -0.0444
  746MOL0     C  630   1.324   2.061  10.661  0.4362  0.4207 -0.0160
  746MOL0     C  631   1.447   2.070  10.692 -0.4946  0.3332 -0.3004
  746MOL0     C  632   1.528   2.167  10.643 -0.3624 -0.2636 -0.3412
  746MOL0     O  633   1.660   2.163  10.671  0.4953 -0.4697  0.6038
  746MOL0     C  634   1.765   2.264  10.638 -0.2135  0.2385 -0.4663
  746MOL0     C  635   1.837   2.257  10.505  0.3303  0.3777  0.3034
  746MOL0     C  636   1.914   2.122  10.484  0.9751  0.2297 -0.5378
  746MOL0     C  637   2.004   2.120  10.349  0.2562 -0.0166  0.1908
  746MOL0     C  638   2.102   2.231  10.348  0.0294  0.4057 -0.3769
  746MOL0     C  639   2.174   2.327  10.334 -1.1904 -0.4019 -0.1108
  746MOL0     C  640   1.473   2.261  10.548  0.2837  1.0851 -0.5615
  746MOL0     C  641   1.339   2.265  10.512  0.1280 -0.0263 -0.4969
  746MOL0     C  642   1.282   2.380  10.427  0.4551 -0.8385  0.2011
  746MOL0     H  643   0.959   2.183  10.177 -1.3762 -0.4769 -1.1337
  746MOL0     H  644   0.719   2.179  10.117 -3.5029  1.2910  1.0610
  746MOL0     H  645   0.455   2.046  10.387  0.7105  0.6932  2.9158
  746MOL0     H  646   0.407   2.186  10.467  1.8132  0.2799  0.3588
  746MOL0     H  647   0.290   2.076  10.207 -0.8266 -1.9913  0.8412
  746MOL0     H  648   0.248   2.237  10.267  0.2747  1.3169  0.8778
  746MOL0     H  649   0.082   2.062  10.337  0.4434 -1.3220 -0.7151
  746MOL0     H  650   0.160   2.126  10.480  2.1250  0.3093  0.0652
  746MOL0     H  651   0.237   1.879  10.322  1.1948 -3.2061  1.0444
  746MOL0     H  652   0.293   1.902  10.482  0.0776  0.9576  0.5287
  746MOL0     H  653   0.055   1.903  10.571 -2.2011 -0.1639 -0.0614
  746MOL0     H  654   0.015   1.831  10.408 -3.7334  0.5625  2.6293
  746MOL0     H  655   0.218   1.720  10.618 -1.3345 -1.3147  0.6743
  746MOL0     H  656   0.067   1.665  10.590  1.2366  2.9636  4.1046
  746MOL0     H  657   0.256   1.668  10.361 -0.4052  0.0235  0.8872
  746MOL0     H  658   0.084   1.610  10.356  0.1985  1.6436 -1.8990
  746MOL0     H  659   0.296   1.489  10.550 -0.6181 -0.7650  1.3250
  746MOL0     H  660   0.129   1.432  10.512 -0.8585  3.3723  1.3843
  746MOL0     H  661   0.442   1.500  10.280  0.3162  0.4515  0.9938
  746MOL0     H  662   0.615   1.288  10.170  0.9529 -1.7093 -0.6042
  746MOL0     H  663   0.537   1.145  10.162 -0.1611  0.1735 -1.4468
  746MOL0     H  664   0.381   1.263   9.973 -0.5938 -0.5287  0.9715
  746MOL0     H  665   0.520   1.377   9.987 -2.1935  0.9750 -1.4965
  746MOL0     H  666   0.566   1.234   9.799 -1.4925  1.3548 -0.1718
  746MOL0     H  667   0.525   1.089   9.884  1.0885  0.2354  0.4293
  746MOL0     H  668   0.727   1.128  10.032 -0.6980 -0.5860  0.1324
  746MOL0     H  669   0.765   1.270   9.949 -2.5581  0.3499  1.8684
  746MOL0     H  670   0.870   0.940   9.679  0.0496 -1.0148 -0.6894
  746MOL0     H  671   1.120   0.891   9.648  0.9050 -0.5107  1.2101
  746MOL0     H  672   1.455   0.770   9.543  1.0414 -0.2395 -0.4332
  746MOL0     H  673   1.655   0.595   9.565 -1.2938 -0.6789 -0.5757
  746MOL0     H  674   1.706   0.391   9.738 -0.9504  2.7246  3.0707
  746MOL0     H  675   1.821   0.479   9.627 -0.7564 -0.7513 -1.8053
  746MOL0     H  676   2.008   0.442   9.762 -0.9995  0.6431 -1.1410
  746MOL0     H  677   1.923   0.349   9.881  0.1852  3.5301  0.9718
  746MOL0     H  678   1.870   0.189   9.665  1.3111 -1.3507 -0.2031
  746MOL0     H  679   1.978   0.289   9.579 -1.7115 -1.4184 -1.5340
  746MOL0     H  680   2.069   0.151   9.833 -0.6016 -1.4688 -0.8621
  746MOL0     H  681   2.182   0.235   9.730  0.8906 -0.9618 -0.0798
  746MOL0     H  682   2.117   0.079   9.543  1.2269 -2.2381 -0.8030
  746MOL0     H  683   2.044  -0.023   9.679  0.8093 -1.9724  2.7740
  746MOL0     H  684   2.341   0.072   9.666  1.2842 -2.4122 -1.6434
  746MOL0     H  685   2.248  -0.020   9.790 -3.0141 -0.0997 -0.7554
  746MOL0     H  686   2.258  -0.097   9.497 -0.7251  2.3968  0.7516
  746MOL0     H  687   2.232  -0.203   9.640 -0.6888 -1.2319 -1.6403
  746MOL0     H  688   2.470  -0.221   9.517  2.2321  1.5213 -0.8557
  746MOL0     H  689   2.485  -0.059   9.568 -2.1487  0.3305 -0.7507
  746MOL0     H  690   1.701   0.724   9.971  1.8894 -0.2637 -0.1983
  746MOL0     H  691   1.495   0.870   9.942 -1.2672  1.9130 -0.9153
  746MOL0     H  692   1.209   1.174   9.956 -0.8127  1.1704  0.7780
  746MOL0     H  693   0.990   1.215   9.980  0.7757  1.4622  0.7136
  746MOL0     H  694   0.616   2.231  10.526 -0.4040  1.4271 -1.3061
  746MOL0     H  695   0.854   2.223  10.590  1.3605  0.3372 -1.1266
  746MOL0     H  696   1.253   1.988  10.696 -2.4074  2.2174 -1.6148
  746MOL0     H  697   1.490   1.997  10.761 -0.9385 -0.9467 -1.3256
  746MOL0     H  698   1.848   2.254  10.708  0.9058 -0.0207 -1.7995
  746MOL0     H  699   1.731   2.367  10.655  1.2031  1.1577 -2.7956
  746MOL0     H  700   1.895   2.349  10.514 -0.0816  0.5210  1.7623
  746MOL0     H  701   1.761   2.258  10.426  2.9663 -0.4086 -2.4585
  746MOL0     H  702   1.844   2.038  10.490  4.2236 -2.6943 -0.2656
  746MOL0     H  703   1.977   2.116  10.573 -0.4210  1.5541  0.6027
  746MOL0     H  704   2.064   2.029  10.341 -2.4834 -2.1411  1.9769
  746MOL0     H  705   1.942   2.121  10.259  1.3765  2.3235 -0.6486
  746MOL0     H  706   2.226   2.420  10.344 -3.3906  0.7213  1.9768
  746MOL0     H  707   1.539   2.326  10.493 -0.1155  2.3243  0.3565
  746MOL0     H  708   1.196   2.423  10.480 -0.6089 -1.8659 -0.6480
  746MOL0     H  709   1.358   2.451  10.393  1.0194 -1.0799  0.9587
  746MOL0     H  710   1.235   2.355  10.331  0.6490  0.3869 -0.2244
  747MOL0     O  711  10.346   5.805   6.121 -0.1509  0.5855  0.1164
  747MOL0     C  712  10.395   5.796   6.004  0.1120  0.3413 -0.3674
  747MOL0     O  713  10.502   5.730   5.973  0.2255  0.1215 -0.2554
  747MOL0     C  714  10.610   5.722   6.064  0.0218  0.4414 -0.4150
  747MOL0     C  715  10.693   5.605   6.052 -0.0674 -0.1460 -0.8297
  747MOL0     C  716  10.797   5.583   6.149 -0.3505  0.5554  0.3106
  747MOL0     C  717  10.823   5.669   6.253 -0.5576  0.2835 -0.1861
  747MOL0     O  718  10.908   5.626   6.350  0.8772 -0.1760 -1.2678
  747MOL0     C  719  10.890   5.677   6.486  0.5087  0.3567 -0.1579
  747MOL0     C  720  10.948   5.591   6.600  0.3638  0.3352  0.8012
  747MOL0     C  721  11.098   5.588   6.594  0.1052 -0.0955 -0.4741
  747MOL0     C  722  11.141   5.457   6.526 -0.3894  0.2166 -0.1363
  747MOL0     C  723  11.294   5.446   6.511 -0.4028 -0.6792  0.4380
  747MOL0     C  724  11.307   5.334   6.398  0.3088  0.3479 -0.0951
  747MOL0     C  725  11.451   5.275   6.403  0.1303  0.0153  0.5734
  747MOL0     C  726  11.469   5.158   6.308 -0.0573  0.0621 -0.3434
  747MOL0     N  727  11.609   5.120   6.295 -0.7400  0.2100 -0.0092
  747MOL0     C  728  11.697   5.091   6.399  0.3966 -0.3962 -0.4845
  747MOL0     C  729  11.819   5.085   6.339  0.6023 -0.5615  1.2798
  747MOL0     C  730  11.945   5.079   6.420  0.1852  0.1816  0.3415
  747MOL0     C  731  12.072   5.057   6.328 -0.1422  0.5265  0.0060
  747MOL0     C  732  12.109   4.903   6.300  0.9857  0.4160  0.4580
  747MOL0     C  733  12.221   4.900   6.189 -0.3846 -0.0055 -0.4185
  747MOL0     O  734  12.332   4.955   6.258 -0.5087 -1.1448 -0.1231
  747MOL0     C  735  12.457   4.952   6.197 -0.2243 -0.0533 -0.7495
  747MOL0     C  736  12.561   4.995   6.281 -0.0269 -1.3969  1.1157
  747MOL0     C  737  12.687   4.997   6.242  0.1102  0.3917  0.1363
  747MOL0     C  738  12.731   4.953   6.116  0.1652  0.1196  0.1798
  747MOL0     C  739  12.876   4.971   6.080  0.1269 -0.1859  0.0122
  747MOL0     O  740  12.964   5.009   6.187 -0.5203  0.3875 -0.4905
  747MOL0     C  741  13.101   5.008   6.164  0.0869  0.0428  0.7514
  747MOL0     C  742  13.166   5.132   6.151 -0.6678 -0.1616  0.4434
  747MOL0     C  743  13.306   5.140   6.124  0.8459  0.6236 -0.9756
  747MOL0     C  744  13.376   5.014   6.110  0.0603  0.1208  0.0231
  747MOL0     O  745  13.508   4.993   6.078  0.4245 -0.5705 -0.6213
  747MOL0     C  746  13.595   5.092   6.101 -1.3888 -0.4357  0.0363
  747MOL0     C  747  13.736   5.060   6.036 -0.0378 -0.1084 -0.6125
  747MOL0     C  748  13.801   4.958   6.133 -0.6301 -0.4837 -0.5120
  747MOL0     C  749  13.949   4.945   6.094  0.1721 -0.0910 -0.9145
  747MOL0     C  750  14.040   5.063   6.126 -0.0122 -0.3612 -0.5577
  747MOL0     C  751  14.186   5.033   6.100 -0.3324 -0.3802  0.5848
  747MOL0     C  752  14.274   5.160   6.099 -0.3074 -0.9703 -0.7205
  747MOL0     C  753  14.412   5.132   6.159 -0.1385 -0.3675 -0.1644
  747MOL0    Cl  754  14.448   5.280   6.257  0.3200 -0.3276  0.1858
  747MOL0     C  755  13.313   4.890   6.138 -0.2223  0.2432  0.5693
  747MOL0     C  756  13.180   4.885   6.163 -0.5018  0.5550 -0.2030
  747MOL0     O  757  12.917   4.945   5.965 -0.2004 -0.0545 -0.2617
  747MOL0     C  758  12.632   4.898   6.034 -0.3749  0.1589  0.8933
  747MOL0     C  759  12.496   4.897   6.078  0.1436  0.5878  0.3276
  747MOL0     N  760  11.797   5.106   6.196  0.2034  0.2230 -0.3515
  747MOL0     N  761  11.679   5.132   6.179  0.4606  1.1747 -0.1254
  747MOL0     C  762  10.755   5.792   6.250  0.6400  0.1896 -0.4145
  747MOL0     C  763  10.651   5.806   6.164 -0.9559 -1.2179  0.0931
  747MOL0     C  764  10.302   5.837   5.895 -0.4708  0.3782  0.2815
  747MOL0     C  765  10.348   5.809   5.768  0.6759 -0.0666  0.8402
  747MOL0     C  766  10.273   5.832   5.654  0.7032  0.4084 -0.5808
  747MOL0     C  767  10.144   5.897   5.669 -0.5758  1.0186 -0.2552
  747MOL0     O  768  10.071   5.906   5.552 -0.4057  0.2148 -0.5963
  747MOL0     C  769   9.923   5.929   5.557 -0.0624  0.4355  0.0605
  747MOL0     C  770   9.880   5.857   5.435 -0.7579  0.0920  0.3474
  747MOL0     C  771   9.734   5.871   5.403  1.1335 -0.3151 -0.6027
  747MOL0     C  772   9.678   5.738   5.359  0.8021  0.1193  0.1763
  747MOL0     C  773   9.532   5.743   5.321  1.0816 -0.1559  0.3062
  747MOL0     C  774   9.421   5.718   5.283 -0.0136  0.1970 -0.1511
  747MOL0     C  775  10.095   5.937   5.797 -0.0484  0.0931 -0.4711
  747MOL0     C  776  10.177   5.916   5.912  0.6887  0.8687 -0.0503
  747MOL0     C  777  10.121   5.967   6.046  0.2467  0.0818 -0.0695
  747MOL0     H  778  10.670   5.524   5.982  1.0683 -1.7151  0.5331
  747MOL0     H  779  10.844   5.486   6.155 -2.1910 -0.3903  0.1599
  747MOL0     H  780  10.926   5.779   6.501 -0.8048  0.3353  4.9490
  747MOL0     H  781  10.786   5.703   6.509  0.7662  2.2110 -0.9267
  747MOL0     H  782  10.903   5.492   6.607 -3.1609  1.7596  0.5321
  747MOL0     H  783  10.916   5.651   6.685  1.7414  1.9622  0.2413
  747MOL0     H  784  11.143   5.593   6.694  1.1818  0.2838 -0.9661
  747MOL0     H  785  11.144   5.671   6.540  1.3763 -0.0138  0.6927
  747MOL0     H  786  11.101   5.372   6.582  0.9553  0.1094  0.7084
  747MOL0     H  787  11.101   5.460   6.425 -1.0204 -0.9733  0.0597
  747MOL0     H  788  11.334   5.536   6.465 -1.3577 -0.4575 -0.0003
  747MOL0     H  789  11.356   5.435   6.600  4.0085  2.2750 -1.9357
  747MOL0     H  790  11.234   5.257   6.424 -0.2402  1.4048  1.6697
  747MOL0     H  791  11.292   5.372   6.297 -1.3269  1.0942  0.4011
  747MOL0     H  792  11.489   5.256   6.504  0.9281 -0.6035  0.1689
  747MOL0     H  793  11.520   5.349   6.361  1.8434 -1.6108  0.3608
  747MOL0     H  794  11.415   5.070   6.345 -1.3055  0.4007 -1.2858
  747MOL0     H  795  11.436   5.178   6.206  1.1106  1.1069 -0.5340
  747MOL0     H  796  11.663   5.090   6.502  1.2186  2.6947 -0.0669
  747MOL0     H  797  11.962   5.173   6.474 -0.6595  0.3640  0.3200
  747MOL0     H  798  11.936   5.012   6.506  3.5362  0.3035  0.9106
  747MOL0     H  799  12.070   5.114   6.235 -1.6679  0.7844  0.1740
  747MOL0     H  800  12.158   5.090   6.387  1.7316 -1.0313 -1.6953
  747MOL0     H  801  12.023   4.844   6.266  0.4105  1.0958  0.6971
  747MOL0     H  802  12.156   4.873   6.393 -3.7775  2.1776  3.8449
  747MOL0     H  803  12.188   4.965   6.107 -0.8603  2.7091  1.7610
  747MOL0     H  804  12.235   4.795   6.161 -0.8485  0.4417 -2.4546
  747MOL0     H  805  12.526   5.035   6.375  1.0557 -2.4451  1.9866
  747MOL0     H  806  12.761   5.035   6.311 -2.3668  2.4350  1.8858
  747MOL0     H  807  13.109   5.224   6.158  3.1092  2.6828 -2.0270
  747MOL0     H  808  13.355   5.235   6.111 -0.1892  1.1852 -0.9047
  747MOL0     H  809  13.563   5.181   6.047 -1.1036  1.0171  2.1081
  747MOL0     H  810  13.616   5.115   6.206  3.4274  1.6047 -1.0828
  747MOL0     H  811  13.717   5.007   5.942 -0.0928  0.2915 -0.8308
  747MOL0     H  812  13.795   5.150   6.017  1.5929 -1.2986 -1.4573
  747MOL0     H  813  13.801   4.988   6.238  1.9877 -1.4496 -0.1675
  747MOL0     H  814  13.746   4.865   6.115  0.9853 -2.0366  1.9736
  747MOL0     H  815  13.962   4.922   5.988  4.5403 -2.3895 -0.1426
  747MOL0     H  816  13.988   4.865   6.158 -2.9151  0.2778  1.6704
  747MOL0     H  817  14.038   5.095   6.230 -0.5117  1.2107 -1.0177
  747MOL0     H  818  14.015   5.158   6.077 -0.7527  0.2806  1.0160
  747MOL0     H  819  14.221   4.961   6.175 -0.7309 -1.3315 -0.1188
  747MOL0     H  820  14.204   4.987   6.002  0.3910  2.0331 -0.4792
  747MOL0     H  821  14.219   5.226   6.166 -0.7899 -2.4972  0.4139
  747MOL0     H  822  14.273   5.201   5.997 -0.5337 -0.3089 -0.4612
  747MOL0     H  823  14.419   5.047   6.227 -0.3241 -2.0044 -2.0943
  747MOL0     H  824  14.471   5.118   6.068  2.3636  2.8433  0.7708
  747MOL0     H  825  13.381   4.806   6.145  0.8574  1.0790  0.4320
  747MOL0     H  826  13.112   4.805   6.190 -1.4286  1.6806  0.9560
  747MOL0     H  827  12.657   4.864   5.934 -1.4656 -1.1461  1.0146
  747MOL0     H  828  12.429   4.851   6.006 -2.1264  1.1315  1.9938
  747MOL0     H  829  10.766   5.855   6.337  1.4774 -0.2320 -0.2056
  747MOL0     H  830  10.587   5.892   6.181 -0.1962 -1.1615  3.4933
  747MOL0     H  831  10.447   5.776   5.738 -1.1717 -3.7631 -2.0208
  747MOL0     H  832  10.304   5.811   5.553 -1.7080 -0.4310 -1.2090
  747MOL0     H  833   9.915   6.038   5.551  1.3834  0.5099 -0.9551
  747MOL0     H  834   9.879   5.878   5.644 -3.9857 -0.2566 -2.1037
  747MOL0     H  835   9.915   5.753   5.429 -1.2127 -0.0032 -0.9663
  747MOL0     H  836   9.942   5.893   5.353 -2.1133  2.0579  0.1260
  747MOL0     H  837   9.717   5.953   5.332  1.2593 -0.2388 -0.5454
  747MOL0     H  838   9.695   5.880   5.504  3.8548 -2.9737  0.8393
  747MOL0     H  839   9.735   5.707   5.271 -1.2284 -2.1800 -0.4442
  747MOL0     H  840   9.706   5.667   5.438  3.1902 -0.0940 -0.7647
  747MOL0     H  841   9.323   5.691   5.249 -0.1229  0.5784 -0.1428
  747MOL0     H  842  10.000   5.983   5.818  0.6639  1.8307 -0.9213
  747MOL0     H  843  10.033   6.031   6.039  1.8207  2.2680 -1.0160
  747MOL0     H  844  10.088   5.890   6.116  0.2217 -0.0636 -0.2408
  747MOL0     H  845  10.194   6.031   6.095  1.8601 -0.5765 -1.5136
  748MOL0     O  846   2.733   0.795   5.058  0.1674 -0.3667 -0.1583
  748MOL0     C  847   2.711   0.902   5.122  0.0543  0.0057  0.3583
  748MOL0     O  848   2.707   0.911   5.255  0.2945  0.5711 -0.0326
  748MOL0     C  849   2.765   0.810   5.317  0.1136 -0.0165  0.9106
  748MOL0     C  850   2.907   0.808   5.334 -0.2285 -0.6082 -0.0598
  748MOL0     C  851   2.964   0.704   5.408  0.0842 -0.0549  0.1825
  748MOL0     C  852   2.887   0.615   5.480 -0.1419  0.6519 -0.3155
  748MOL0     O  853   2.944   0.520   5.555 -1.2483  0.1241 -0.3777
  748MOL0     C  854   2.905   0.525   5.686  0.4042 -0.3547 -0.8216
  748MOL0     C  855   3.017   0.579   5.772  0.7524  0.5126  1.6447
  748MOL0     C  856   2.965   0.588   5.917 -0.4277  0.3620  0.5925
  748MOL0     C  857   3.082   0.645   6.010 -0.4706  0.4104  0.6031
  748MOL0     C  858   3.026   0.658   6.151 -0.5342 -0.2848 -0.5080
  748MOL0     C  859   3.110   0.742   6.244 -0.0497  0.9979 -0.1736
  748MOL0     C  860   3.109   0.701   6.393  0.2522 -0.2622 -0.3914
  748MOL0     C  861   3.219   0.777   6.461  0.4144 -0.6482 -1.0989
  748MOL0     N  862   3.352   0.739   6.407  0.6782 -0.4460 -0.3569
  748MOL0     C  863   3.450   0.833   6.397 -0.1311 -0.1762  0.0733
  748MOL0     C  864   3.564   0.758   6.382  0.9273  1.0258 -0.1817
  748MOL0     C  865   3.712   0.800   6.371 -0.6985 -0.7681  0.0963
  748MOL0     C  866   3.814   0.715   6.448  0.4604  0.7314  0.2185
  748MOL0     C  867   3.851   0.584   6.375  0.5741 -0.3068 -0.6751
  748MOL0     C  868   3.991   0.525   6.388 -0.4612  0.0182 -0.0406
  748MOL0     O  869   4.098   0.620   6.385 -0.3872 -0.0736 -0.5137
  748MOL0     C  870   4.219   0.574   6.430  1.2367 -1.2475 -0.6795
  748MOL0     C  871   4.317   0.674   6.431 -0.0172  0.4863  0.4430
  748MOL0     C  872   4.453   0.647   6.468  0.4892 -0.7750  0.0555
  748MOL0     C  873   4.497   0.515   6.504  0.8791  0.4971 -0.7859
  748MOL0     C  874   4.635   0.460   6.536  0.2874 -0.8832 -0.3195
  748MOL0     O  875   4.664   0.325   6.532  0.5949 -0.2047 -0.1683
  748MOL0     C  876   4.783   0.263   6.578  0.5952 -0.1670 -0.5512
  748MOL0     C  877   4.860   0.300   6.690 -0.2469  0.1712  0.2692
  748MOL0     C  878   4.963   0.220   6.737 -0.0600 -0.1531 -0.7273
  748MOL0     C  879   4.991   0.099   6.674  0.9092 -0.3670  0.0943
  748MOL0     O  880   5.091   0.012   6.702  0.0202  0.1617  0.7990
  748MOL0     C  881   5.148   0.011   6.827 -0.7999 -0.8181 -0.2442
  748MOL0     C  882   5.269  -0.082   6.821 -0.6685  0.7226  0.1634
  748MOL0     C  883   5.390  -0.026   6.744 -0.7811 -0.2782  1.6203
  748MOL0     C  884   5.530  -0.071   6.800  0.1900  0.8641 -0.0992
  748MOL0     C  885   5.636  -0.035   6.700 -1.0576 -0.4521 -0.0525
  748MOL0     C  886   5.777  -0.064   6.759 -0.2475 -0.0125 -1.0585
  748MOL0     C  887   5.885   0.027   6.700  1.3022 -0.7717  0.1517
  748MOL0     C  888   5.908  -0.012   6.552  0.4537  1.3384  0.6184
  748MOL0    Cl  889   5.937  -0.203   6.550  0.7922 -0.2646 -0.4434
  748MOL0     C  890   4.908   0.050   6.570  0.8937 -0.1031 -0.5104
  748MOL0     C  891   4.805   0.132   6.527  0.3319  0.2954 -0.1840
  748MOL0     O  892   4.727   0.548   6.558  0.0238 -0.3312 -0.2426
  748MOL0     C  893   4.388   0.414   6.511 -0.6428  0.3207  0.3202
  748MOL0     C  894   4.256   0.445   6.468  0.3322  0.6426 -0.2589
  748MOL0     N  895   3.532   0.628   6.384  0.3991 -0.3847 -0.0449
  748MOL0     N  896   3.403   0.613   6.400  0.2198  0.1029 -0.5722
  748MOL0     C  897   2.743   0.623   5.469  0.1281 -0.1184 -0.6856
  748MOL0     C  898   2.685   0.717   5.387  0.3683  0.5757  0.4871
  748MOL0     C  899   2.688   1.024   5.038  0.0532  0.8998 -1.0312
  748MOL0     C  900   2.745   1.150   5.074 -0.2634  0.4380  0.7344
  748MOL0     C  901   2.754   1.259   4.993 -0.5093  0.5321 -0.3553
  748MOL0     C  902   2.696   1.247   4.869  0.6742 -0.6473  0.8270
  748MOL0     O  903   2.713   1.340   4.768 -0.9531 -0.7335 -0.0496
  748MOL0     C  904   2.676   1.475   4.802  0.6041  0.4310 -0.1601
  748MOL0     C  905   2.525   1.462   4.819 -0.3204  0.3772  0.5235
  748MOL0     C  906   2.475   1.608   4.818 -0.7415 -0.4978  0.6745
  748MOL0     C  907   2.342   1.622   4.895  0.3215  0.0236 -0.1605
  748MOL0     C  908   2.316   1.759   4.933 -0.4669  0.1000 -0.9308
  748MOL0     C  909   2.301   1.879   4.948 -0.7029 -0.1509  0.2224
  748MOL0     C  910   2.643   1.122   4.825 -0.4700 -0.0968  0.1579
  748MOL0     C  911   2.628   1.009   4.909 -0.2421 -0.7612 -0.5251
  748MOL0     C  912   2.567   0.890   4.842  0.4405 -0.0742  0.6845
  748MOL0     H  913   2.965   0.885   5.283 -1.0903  0.6419  0.7867
  748MOL0     H  914   3.073   0.705   5.411  0.0617  0.5221  2.7366
  748MOL0     H  915   2.817   0.589   5.703  0.6718  0.5893 -2.7163
  748MOL0     H  916   2.870   0.429   5.725 -0.7098  1.7423  4.2783
  748MOL0     H  917   3.047   0.678   5.736  0.6854 -0.1135 -0.2486
  748MOL0     H  918   3.103   0.510   5.772 -0.0358 -0.4925  1.5810
  748MOL0     H  919   2.940   0.486   5.946  0.3088 -0.2197 -0.7365
  748MOL0     H  920   2.881   0.658   5.929 -1.0481 -0.0632 -0.9559
  748MOL0     H  921   3.181   0.597   6.004 -0.8891 -0.5599  1.0848
  748MOL0     H  922   3.102   0.746   5.975  0.3923 -0.0174 -0.1889
  748MOL0     H  923   2.925   0.701   6.151 -0.3437  0.1924  0.4481
  748MOL0     H  924   3.018   0.558   6.195  4.5262 -0.1351  1.3595
  748MOL0     H  925   3.213   0.738   6.208 -0.0562  2.6987 -0.5063
  748MOL0     H  926   3.076   0.847   6.243 -2.4675  0.2781 -1.0585
  748MOL0     H  927   3.120   0.594   6.412  3.8334  0.1013  0.2091
  748MOL0     H  928   3.017   0.745   6.432 -0.8147 -0.4327 -2.5313
  748MOL0     H  929   3.202   0.885   6.451 -0.7945 -0.7028  0.0740
  748MOL0     H  930   3.221   0.762   6.569 -2.4787 -2.1887 -1.1609
  748MOL0     H  931   3.450   0.940   6.417 -0.5066 -0.2521  0.4795
  748MOL0     H  932   3.730   0.787   6.264  0.3700  0.0435  0.1672
  748MOL0     H  933   3.721   0.902   6.408 -2.0813 -1.3308  2.2027
  748MOL0     H  934   3.908   0.768   6.466 -1.1754  4.1686 -0.5442
  748MOL0     H  935   3.775   0.700   6.549 -1.7795  0.6880 -0.6037
  748MOL0     H  936   3.861   0.599   6.267 -0.5617 -2.2945 -1.0942
  748MOL0     H  937   3.772   0.508   6.375  1.0168 -0.8174 -2.6462
  748MOL0     H  938   3.999   0.451   6.307  0.4170 -2.9712  2.5609
  748MOL0     H  939   3.999   0.453   6.470 -1.7755 -3.2714 -2.5686
  748MOL0     H  940   4.275   0.768   6.398 -0.0896  0.3885  0.2537
  748MOL0     H  941   4.526   0.726   6.480  0.1929  0.1178 -3.1095
  748MOL0     H  942   4.830   0.392   6.740  1.4100  0.5798  0.5518
  748MOL0     H  943   5.006   0.253   6.831 -0.8262 -2.1204  0.3840
  748MOL0     H  944   5.177   0.112   6.860  0.4061 -0.6286 -1.7892
  748MOL0     H  945   5.075  -0.036   6.894 -2.4792 -0.7726 -1.9819
  748MOL0     H  946   5.297  -0.081   6.927 -3.1173  0.3280  0.8822
  748MOL0     H  947   5.242  -0.183   6.790  1.7141 -0.0079  0.2867
  748MOL0     H  948   5.372  -0.067   6.644 -2.2008  2.0701  0.8084
  748MOL0     H  949   5.386   0.079   6.713 -0.9988 -1.2909 -2.2151
  748MOL0     H  950   5.532  -0.180   6.808  1.2714  0.7532 -1.5562
  748MOL0     H  951   5.546  -0.021   6.896 -2.2611  1.5532  0.0105
  748MOL0     H  952   5.628   0.070   6.671  0.7216 -0.6602 -1.4852
  748MOL0     H  953   5.621  -0.097   6.612 -1.1345  0.3015 -0.5764
  748MOL0     H  954   5.771  -0.043   6.866  1.4331 -2.2545 -0.4405
  748MOL0     H  955   5.808  -0.168   6.768 -1.3464 -0.4986 -2.5283
  748MOL0     H  956   5.982   0.001   6.744  2.2657  0.9595 -0.8587
  748MOL0     H  957   5.867   0.135   6.703  0.3744 -0.9391  1.5800
  748MOL0     H  958   5.822   0.011   6.489  1.0013  2.6504  0.3327
  748MOL0     H  959   5.996   0.045   6.522  0.1650  0.2830 -2.6416
  748MOL0     H  960   4.936  -0.041   6.518  1.2968 -0.0365 -0.4136
  748MOL0     H  961   4.757   0.102   6.435  0.9938  1.3348 -0.8821
  748MOL0     H  962   4.389   0.308   6.532 -2.5990  0.1809 -0.1380
  748MOL0     H  963   4.189   0.360   6.454  0.3864  0.8387 -1.9738
  748MOL0     H  964   2.674   0.554   5.517  2.8412 -0.6328  2.9409
  748MOL0     H  965   2.578   0.725   5.370  0.5066  1.0043 -0.2373
  748MOL0     H  966   2.784   1.162   5.174 -3.6243 -0.5477  2.2919
  748MOL0     H  967   2.801   1.344   5.042 -3.9306  2.3079  0.1785
  748MOL0     H  968   2.693   1.533   4.711 -0.3361  3.4603  1.4480
  748MOL0     H  969   2.717   1.522   4.892  0.9581 -1.5913  0.8052
  748MOL0     H  970   2.510   1.421   4.919 -0.0927 -1.0148  0.0028
  748MOL0     H  971   2.475   1.404   4.741  3.2321 -3.8166  1.0095
  748MOL0     H  972   2.468   1.638   4.713 -1.3363 -0.8695  0.6070
  748MOL0     H  973   2.549   1.672   4.867  1.3873 -0.9210 -1.7672
  748MOL0     H  974   2.253   1.582   4.847  0.2930 -0.0557 -0.0427
  748MOL0     H  975   2.345   1.560   4.985 -0.6407  1.7713  1.1284
  748MOL0     H  976   2.285   1.979   4.983 -2.4085 -1.1993  2.7611
  748MOL0     H  977   2.618   1.133   4.721  0.5727  3.2971  0.1596
  748MOL0     H  978   2.639   0.834   4.781  1.9418  2.1268  0.3318
  748MOL0     H  979   2.506   0.831   4.911  0.1289 -1.6695 -0.8925
  748MOL0     H  980   2.492   0.937   4.778 -1.1965 -1.3491  1.5866
  749MOL0     O  981   6.463   5.606   6.839 -0.5365 -0.6080  1.2438
  749MOL0     C  982   6.446   5.717   6.786 -0.7203  0.9766 -0.6721
  749MOL0     O  983   6.538   5.780   6.710  0.3498  0.4662  0.0753
  749MOL0     C  984   6.634   5.711   6.644 -0.0886 -0.9542  0.0603
  749MOL0     C  985   6.644   5.576   6.621 -0.5203 -0.4396 -0.6304
  749MOL0     C  986   6.756   5.527   6.552  0.3947 -0.7240 -0.4253
  749MOL0     C  987   6.853   5.605   6.497  1.1302  0.4674 -0.3276
  749MOL0     O  988   6.953   5.556   6.426  0.4590  0.1379  0.3000
  749MOL0     C  989   7.003   5.424   6.457 -0.2672  0.4784 -0.2073
  749MOL0     C  990   7.159   5.429   6.434 -0.2006 -0.7657 -0.0552
  749MOL0     C  991   7.185   5.471   6.294  0.6769  0.4980 -0.3766
  749MOL0     C  992   7.324   5.448   6.241  0.4851  0.2737  0.9877
  749MOL0     C  993   7.418   5.559   6.298 -0.2401  0.4354  0.1217
  749MOL0     C  994   7.570   5.528   6.284 -0.4852  0.3381 -1.0910
  749MOL0     C  995   7.673   5.642   6.308 -0.3550 -0.2877  0.3926
  749MOL0     C  996   7.624   5.760   6.398 -0.3466  0.2559  0.1907
  749MOL0     N  997   7.737   5.849   6.431 -0.6166  0.2180 -0.2091
  749MOL0     C  998   7.829   5.802   6.526  0.5740  0.1704  1.1916
  749MOL0     C  999   7.944   5.874   6.494  0.1298  0.1313 -0.2574
  749MOL0     C 1000   8.071   5.858   6.567 -0.1167 -1.1974 -0.3729
  749MOL0     C 1001   8.060   5.786   6.711 -0.4361 -0.5467  0.6558
  749MOL0     C 1002   8.192   5.795   6.781 -0.4904  0.1530  0.1034
  749MOL0     C 1003   8.204   5.727   6.918 -0.2556  0.7596  0.2210
  749MOL0     O 1004   8.286   5.606   6.881  0.0111 -0.0663  0.3832
  749MOL0     C 1005   8.424   5.596   6.872  0.4456 -0.3420  0.4736
  749MOL0     C 1006   8.507   5.707   6.881 -0.3578  0.3271  0.4622
  749MOL0     C 1007   8.645   5.688   6.878 -0.2782  0.0941 -0.2924
  749MOL0     C 1008   8.697   5.557   6.861 -0.1082 -0.3614  0.4142
  749MOL0     C 1009   8.841   5.543   6.847 -0.1245  0.6484 -0.6709
  749MOL0     O 1010   8.916   5.656   6.829  0.2185  0.0242  0.2380
  749MOL0     C 1011   9.051   5.642   6.866  0.1516 -1.1202 -0.2455
  749MOL0     C 1012   9.152   5.624   6.762  0.0419 -0.1440  0.1275
  749MOL0     C 1013   9.291   5.615   6.788  0.4621 -0.7095 -0.6039
  749MOL0     C 1014   9.328   5.585   6.917  0.1923  0.1428 -0.8607
  749MOL0     O 1015   9.457   5.547   6.935 -0.5502 -0.4126 -0.0323
  749MOL0     C 1016   9.510   5.609   7.045 -0.7895 -1.0574  0.9670
  749MOL0     C 1017   9.664   5.585   7.050  0.0501 -0.2300  0.5272
  749MOL0     C 1018   9.697   5.437   7.088  0.7907  0.5529 -0.0979
  749MOL0     C 1019   9.849   5.421   7.066  0.4188  0.3587 -0.1111
  749MOL0     C 1020   9.896   5.276   7.068 -0.7476 -0.7606 -0.5606
  749MOL0     C 1021  10.039   5.277   7.004 -0.9528 -0.5416  0.3120
  749MOL0     C 1022  10.115   5.143   7.022  0.9316  0.6994 -0.1035
  749MOL0     C 1023  10.261   5.141   7.008  0.2976  0.3349 -1.1064
  749MOL0    Cl 1024  10.325   5.205   7.164 -0.1376 -0.2677 -0.0985
  749MOL0     C 1025   9.227   5.597   7.022 -0.0721  0.4234 -0.0342
  749MOL0     C 1026   9.091   5.629   6.998 -0.4504 -0.6873 -0.1100
  749MOL0     O 1027   8.886   5.424   6.864  0.1650 -0.4335  0.4854
  749MOL0     C 1028   8.615   5.454   6.847  0.2973  0.0948  0.0125
  749MOL0     C 1029   8.476   5.467   6.853  0.4601 -0.6879  0.5693
  749MOL0     N 1030   7.922   5.952   6.384 -0.0692 -0.0656  0.0181
  749MOL0     N 1031   7.796   5.950   6.357  0.3177  0.3675 -0.1027
  749MOL0     C 1032   6.838   5.737   6.511  0.4288 -0.2771  0.2503
  749MOL0     C 1033   6.739   5.795   6.594 -0.0848  0.7690 -0.0159
  749MOL0     C 1034   6.337   5.794   6.851  1.1601 -0.9407 -0.0985
  749MOL0     C 1035   6.351   5.932   6.853 -0.6100  0.0381 -0.2615
  749MOL0     C 1036   6.250   6.019   6.902 -0.2072  0.2122 -1.3948
  749MOL0     C 1037   6.141   5.963   6.976  1.1651  0.6986 -0.7394
  749MOL0     O 1038   6.044   6.027   7.048 -0.0829  0.4435 -0.0788
  749MOL0     C 1039   6.013   6.169   7.025 -0.2042  0.4870  0.4730
  749MOL0     C 1040   5.861   6.195   7.053 -1.4007 -0.0520  0.4817
  749MOL0     C 1041   5.785   6.125   6.947 -0.0119 -0.6945  0.7697
  749MOL0     C 1042   5.634   6.148   6.982  0.0285 -0.0119 -0.9595
  749MOL0     C 1043   5.532   6.067   6.912  0.4402 -0.5636  0.3402
  749MOL0     C 1044   5.473   5.981   6.843  0.0273 -0.3346 -0.3399
  749MOL0     C 1045   6.132   5.827   6.982 -0.1292  0.3897 -0.4409
  749MOL0     C 1046   6.225   5.745   6.931  1.1401  0.1408  0.1253
  749MOL0     C 1047   6.209   5.598   6.967 -0.2042 -0.1495 -0.4240
  749MOL0     H 1048   6.567   5.502   6.645  2.0781 -2.0911  3.7889
  749MOL0     H 1049   6.755   5.423   6.523 -1.5859 -0.1015 -2.9867
  749MOL0     H 1050   6.994   5.393   6.561  1.9729  0.1707 -0.0466
  749MOL0     H 1051   6.950   5.343   6.406 -5.0934  2.1571  1.6288
  749MOL0     H 1052   7.206   5.331   6.447  2.2249 -0.3074 -3.8042
  749MOL0     H 1053   7.199   5.508   6.498 -1.4168  0.2921 -0.5605
  749MOL0     H 1054   7.163   5.578   6.287 -1.3113  0.3089  1.8269
  749MOL0     H 1055   7.114   5.421   6.228  1.2708 -0.9430  0.0470
  749MOL0     H 1056   7.369   5.354   6.274  3.6242  1.6215  0.9188
  749MOL0     H 1057   7.327   5.453   6.132  0.9447  0.1305  0.9920
  749MOL0     H 1058   7.401   5.649   6.238  1.6362 -0.8057 -2.4334
  749MOL0     H 1059   7.403   5.581   6.405 -0.5131 -1.4927  0.5081
  749MOL0     H 1060   7.597   5.439   6.342 -0.2645  1.3476  0.3972
  749MOL0     H 1061   7.575   5.505   6.177 -1.9320  0.1804 -1.1453
  749MOL0     H 1062   7.697   5.686   6.211 -0.7362  1.1223  0.9201
  749MOL0     H 1063   7.763   5.600   6.352  0.8596  0.1178 -1.5976
  749MOL0     H 1064   7.546   5.808   6.339  0.6999 -0.7290 -2.1319
  749MOL0     H 1065   7.579   5.720   6.489 -0.1903  0.7161  0.4734
  749MOL0     H 1066   7.806   5.724   6.598 -0.0520  0.1203  0.9436
  749MOL0     H 1067   8.147   5.814   6.503 -0.8914 -2.5126 -0.4213
  749MOL0     H 1068   8.109   5.959   6.585  2.1170 -1.9875 -0.3102
  749MOL0     H 1069   7.979   5.829   6.769 -1.1031  1.1221 -1.3666
  749MOL0     H 1070   8.045   5.679   6.696  4.2005 -1.3101 -0.0990
  749MOL0     H 1071   8.201   5.901   6.807  0.6102  0.0020  0.3917
  749MOL0     H 1072   8.272   5.770   6.710 -1.0332  3.1952 -1.7690
  749MOL0     H 1073   8.105   5.704   6.960  0.0837  0.2924  0.7845
  749MOL0     H 1074   8.263   5.781   6.992  2.6277 -2.8786  0.9276
  749MOL0     H 1075   8.462   5.806   6.880 -2.0785 -0.4002  1.8617
  749MOL0     H 1076   8.708   5.775   6.892  0.6523 -0.6934  0.4832
  749MOL0     H 1077   9.129   5.633   6.656 -1.6874 -1.1203  0.3958
  749MOL0     H 1078   9.357   5.608   6.702 -0.4342  0.3506 -1.4084
  749MOL0     H 1079   9.487   5.715   7.059  2.4028 -0.4745  2.6115
  749MOL0     H 1080   9.483   5.561   7.140 -2.5999 -0.8879  0.5794
  749MOL0     H 1081   9.695   5.602   6.946  0.3982  0.6755  0.7667
  749MOL0     H 1082   9.719   5.668   7.096  0.3306  1.7313 -2.9953
  749MOL0     H 1083   9.677   5.414   7.194  2.0454 -0.9189 -0.1500
  749MOL0     H 1084   9.633   5.368   7.032 -1.9826 -0.0850  3.4017
  749MOL0     H 1085   9.898   5.472   7.149 -1.7036  1.4035  0.5707
  749MOL0     H 1086   9.876   5.481   6.978  2.8838  1.1987  1.1105
  749MOL0     H 1087   9.824   5.214   7.013 -1.0147  0.5407 -1.7410
  749MOL0     H 1088   9.887   5.234   7.168 -3.3779  4.9878  2.0780
  749MOL0     H 1089  10.037   5.315   6.902  1.7951  1.7342  0.9807
  749MOL0     H 1090  10.106   5.345   7.057  2.9490 -2.4622 -1.6936
  749MOL0     H 1091  10.074   5.070   6.952 -0.2760 -0.6168  1.8943
  749MOL0     H 1092  10.080   5.102   7.117  0.1283 -0.8186 -1.0198
  749MOL0     H 1093  10.294   5.037   7.003 -1.3878 -0.3501  1.0506
  749MOL0     H 1094  10.289   5.200   6.920 -1.3967 -0.6489 -2.3606
  749MOL0     H 1095   9.251   5.584   7.127 -1.5608 -1.7448  0.0940
  749MOL0     H 1096   9.019   5.614   7.078 -0.7686 -1.4059 -0.5178
  749MOL0     H 1097   8.666   5.359   6.833 -0.6457 -0.3796 -0.3437
  749MOL0     H 1098   8.414   5.378   6.849  1.3845 -1.3469  0.3071
  749MOL0     H 1099   6.901   5.803   6.452 -1.2781  1.3197  0.1671
  749MOL0     H 1100   6.732   5.903   6.603  1.2849  0.7577  1.9402
  749MOL0     H 1101   6.442   5.978   6.818 -0.2388 -0.6261 -0.1839
  749MOL0     H 1102   6.266   6.126   6.908  2.2944 -0.1922  1.6250
  749MOL0     H 1103   6.030   6.193   6.920  0.1497  2.2787  0.8998
  749MOL0     H 1104   6.070   6.235   7.091  0.8468  0.7874 -0.7082
  749MOL0     H 1105   5.853   6.303   7.062  1.9973  0.4051 -0.5666
  749MOL0     H 1106   5.831   6.164   7.153 -0.8856  0.2854  0.7422
  749MOL0     H 1107   5.811   6.019   6.940 -0.6912 -0.9186  1.4220
  749MOL0     H 1108   5.808   6.182   6.857 -0.6812  2.0651  2.2169
  749MOL0     H 1109   5.610   6.144   7.089 -0.8919  1.5841 -1.0744
  749MOL0     H 1110   5.622   6.254   6.956  0.8390  0.0671 -1.0296
  749MOL0     H 1111   5.419   5.898   6.801 -1.6843 -0.2417  1.4713
  749MOL0     H 1112   6.049   5.784   7.037  0.5454  2.0534  2.0750
  749MOL0     H 1113   6.234   5.541   6.877  2.7906  2.0415 -1.1183
  749MOL0     H 1114   6.271   5.584   7.055 -1.3516 -0.3526  0.3724
  749MOL0     H 1115   6.106   5.590   7.003 -0.9802  2.6631 -1.6966
  750MOL0     O 1116   7.951   3.802   4.499 -0.5420 -0.5861  0.0979
  750MOL0     C 1117   7.888   3.756   4.595  0.2558  1.2805  0.5080
  750MOL0     O 1118   7.765   3.706   4.589 -0.3492 -0.3547  0.6403
  750MOL0     C 1119   7.692   3.716   4.475 -0.1617  0.5928 -0.5439
  750MOL0     C 1120   7.552   3.739   4.477 -0.1202 -0.8783 -0.0381
  750MOL0     C 1121   7.479   3.711   4.368  0.5127  0.0266 -0.1711
  750MOL0     C 1122   7.538   3.654   4.255  0.0138  0.3174 -0.0343
  750MOL0     O 1123   7.476   3.637   4.131  0.2700 -0.2063 -0.2745
  750MOL0     C 1124   7.339   3.684   4.099  0.6054  0.6306 -0.4736
  750MOL0     C 1125   7.326   3.844   4.097 -1.1178  0.5979 -0.4836
  750MOL0     C 1126   7.184   3.894   4.112 -0.1573  0.9492 -0.0748
  750MOL0     C 1127   7.079   3.803   4.036  0.1314 -0.5970  0.5252
  750MOL0     C 1128   6.947   3.868   4.006 -0.4945 -0.2411  0.0395
  750MOL0     C 1129   6.915   3.892   3.856  0.1371  0.1669  0.6309
  750MOL0     C 1130   6.904   3.751   3.787 -0.1315  0.0120 -0.3670
  750MOL0     C 1131   6.882   3.778   3.638  0.0338 -0.1044  0.0913
  750MOL0     N 1132   6.787   3.674   3.583  0.8646  0.8780  0.4556
  750MOL0     C 1133   6.658   3.643   3.626 -0.5007  1.4462  0.5484
  750MOL0     C 1134   6.613   3.550   3.546 -0.6141 -0.2371  0.0492
  750MOL0     C 1135   6.485   3.466   3.558 -1.4117 -0.4618  0.0862
  750MOL0     C 1136   6.462   3.408   3.695  0.0136  0.2252 -0.1144
  750MOL0     C 1137   6.562   3.290   3.729 -0.0973  0.1035 -0.0651
  750MOL0     C 1138   6.710   3.326   3.757 -0.7785 -0.0436  0.1593
  750MOL0     O 1139   6.717   3.399   3.881  0.3871 -0.1297  1.1865
  750MOL0     C 1140   6.830   3.388   3.968 -0.3547 -0.1337 -0.0025
  750MOL0     C 1141   6.804   3.427   4.099  0.5161  0.0635 -0.2219
  750MOL0     C 1142   6.906   3.421   4.195 -0.5076 -0.6590 -0.7010
  750MOL0     C 1143   7.031   3.375   4.165  0.4106  0.2088 -0.7583
  750MOL0     C 1144   7.134   3.369   4.277 -0.0991  0.3989 -0.0411
  750MOL0     O 1145   7.249   3.314   4.244 -0.1968 -0.3507  0.2659
  750MOL0     C 1146   7.344   3.317   4.346 -0.1016  0.5196  0.3356
  750MOL0     C 1147   7.363   3.394   4.464  0.0377  0.6896 -0.2592
  750MOL0     C 1148   7.473   3.356   4.552 -0.3499  0.3378  0.4005
  750MOL0     C 1149   7.552   3.236   4.528 -0.6947  0.8591  0.0847
  750MOL0     O 1150   7.672   3.199   4.590 -0.0825  0.2697  0.3235
  750MOL0     C 1151   7.732   3.298   4.680  0.6004  1.2312 -0.6559
  750MOL0     C 1152   7.850   3.229   4.744 -0.2282 -0.2332  0.3273
  750MOL0     C 1153   7.933   3.331   4.827 -0.3581 -0.8359  0.3130
  750MOL0     C 1154   8.060   3.281   4.882  0.3990  0.4126  0.1769
  750MOL0     C 1155   8.109   3.386   4.979  0.5033  0.2717  0.6296
  750MOL0     C 1156   8.231   3.338   5.055  0.3147  0.2262  0.0173
  750MOL0     C 1157   8.360   3.365   4.973 -0.5338 -0.0715  0.6509
  750MOL0     C 1158   8.477   3.291   5.042 -0.3268 -0.0160 -0.4187
  750MOL0    Cl 1159   8.455   3.115   4.989 -0.0886 -0.0648 -0.1751
  750MOL0     C 1160   7.527   3.168   4.409 -0.7386 -0.7271 -0.4533
  750MOL0     C 1161   7.422   3.203   4.327 -0.1944  1.1048  0.1193
  750MOL0     O 1162   7.094   3.387   4.393 -0.2922 -0.3883  0.3211
  750MOL0     C 1163   7.065   3.336   4.027  0.4979 -0.2817 -1.1073
  750MOL0     C 1164   6.958   3.343   3.932 -0.7154  0.2874  0.2865
  750MOL0     N 1165   6.717   3.517   3.460  0.2969 -0.0949  0.0533
  750MOL0     N 1166   6.823   3.592   3.486  1.0388 -0.5080  0.6874
  750MOL0     C 1167   7.664   3.621   4.247 -0.5986 -0.0058  0.4383
  750MOL0     C 1168   7.741   3.660   4.356  0.2306 -0.6885  0.4423
  750MOL0     C 1169   7.960   3.741   4.719  0.1745 -0.7159  0.5221
  750MOL0     C 1170   7.897   3.763   4.840 -0.1458 -0.4313 -0.6492
  750MOL0     C 1171   7.967   3.753   4.965 -0.0567 -0.1845  0.2538
  750MOL0     C 1172   8.111   3.742   4.965  0.4106  0.2669 -0.1310
  750MOL0     O 1173   8.190   3.766   5.077 -0.0504 -0.0818 -0.1135
  750MOL0     C 1174   8.129   3.804   5.205 -0.6052 -0.6029 -0.8528
  750MOL0     C 1175   8.250   3.829   5.306 -0.1628 -0.0134 -0.4500
  750MOL0     C 1176   8.321   3.693   5.353  0.6397 -0.5699  0.5690
  750MOL0     C 1177   8.430   3.632   5.262 -0.2455 -0.1367  1.0709
  750MOL0     C 1178   8.515   3.522   5.321 -0.1755  0.0930 -0.0704
  750MOL0     C 1179   8.596   3.438   5.361 -0.1388 -0.1248  0.0516
  750MOL0     C 1180   8.173   3.710   4.847 -0.4829 -1.4531 -0.3936
  750MOL0     C 1181   8.097   3.707   4.729  0.2493  1.1893 -0.2820
  750MOL0     C 1182   8.181   3.669   4.595  0.3387  0.6192 -0.0306
  750MOL0     H 1183   7.497   3.783   4.559  1.3667 -2.7813  2.0806
  750MOL0     H 1184   7.373   3.726   4.381  0.1190 -2.6513  0.2848
  750MOL0     H 1185   7.315   3.648   3.999 -2.9252  1.9081 -0.2301
  750MOL0     H 1186   7.269   3.651   4.176  0.4708  1.3306 -0.2847
  750MOL0     H 1187   7.378   3.880   4.008 -0.1739  2.8194  0.8764
  750MOL0     H 1188   7.392   3.887   4.173 -0.4114 -0.4001 -0.5131
  750MOL0     H 1189   7.178   3.993   4.065 -0.1311  0.9045 -0.1738
  750MOL0     H 1190   7.152   3.904   4.216 -1.0773  0.9965 -0.3533
  750MOL0     H 1191   7.116   3.758   3.943 -3.5491 -0.0183 -1.3931
  750MOL0     H 1192   7.055   3.720   4.103  0.1029 -1.1734 -0.1861
  750MOL0     H 1193   6.869   3.799   4.038 -0.2053 -0.0735  1.1409
  750MOL0     H 1194   6.928   3.960   4.063  1.1954  0.0762  0.1461
  750MOL0     H 1195   6.815   3.936   3.854  0.0579 -0.0247  0.1905
  750MOL0     H 1196   6.981   3.959   3.800 -0.8919 -1.7962 -3.2469
  750MOL0     H 1197   6.817   3.700   3.830  0.9320 -0.0185  1.9101
  750MOL0     H 1198   6.994   3.689   3.791  1.0575  1.5959 -1.0767
  750MOL0     H 1199   6.850   3.879   3.609 -2.3425 -0.9432 -0.3949
  750MOL0     H 1200   6.979   3.770   3.589 -0.1460 -0.2627 -0.2421
  750MOL0     H 1201   6.606   3.691   3.708 -2.3370  0.1469  0.1992
  750MOL0     H 1202   6.396   3.531   3.552 -0.1948  1.2049 -0.9987
  750MOL0     H 1203   6.476   3.400   3.471 -0.6457  0.1354 -0.4582
  750MOL0     H 1204   6.458   3.482   3.775  0.0397  0.3335 -0.2127
  750MOL0     H 1205   6.359   3.371   3.700 -1.3208  3.6503  0.3881
  750MOL0     H 1206   6.550   3.213   3.652 -5.6315 -0.1766  0.6541
  750MOL0     H 1207   6.519   3.245   3.819  2.0642 -0.6391  0.6473
  750MOL0     H 1208   6.748   3.385   3.674  0.4383  0.0712  0.7689
  750MOL0     H 1209   6.764   3.231   3.759  0.1677  0.4432 -1.0650
  750MOL0     H 1210   6.716   3.481   4.133  1.9991  1.4080  1.7611
  750MOL0     H 1211   6.895   3.463   4.294 -3.6150  1.5133 -1.8346
  750MOL0     H 1212   7.288   3.469   4.488 -1.2078 -0.1842 -1.2495
  750MOL0     H 1213   7.490   3.413   4.643 -2.4083 -0.1376  1.1253
  750MOL0     H 1214   7.758   3.390   4.626 -0.3089  1.3921 -0.8347
  750MOL0     H 1215   7.658   3.313   4.760  1.0595  1.4147 -0.2625
  750MOL0     H 1216   7.814   3.147   4.807 -1.2109  1.0130  1.4624
  750MOL0     H 1217   7.911   3.192   4.662 -2.9256 -3.9360 -0.2972
  750MOL0     H 1218   7.952   3.409   4.753 -0.3758 -0.7003  0.4480
  750MOL0     H 1219   7.873   3.379   4.905  3.4062  0.1586  2.8773
  750MOL0     H 1220   8.131   3.266   4.800  1.0867  1.8227  0.4877
  750MOL0     H 1221   8.038   3.188   4.934 -1.7437  0.8074  0.0846
  750MOL0     H 1222   8.031   3.406   5.053  1.0898 -1.3065  1.7326
  750MOL0     H 1223   8.125   3.482   4.929  1.7298  0.0808  0.6300
  750MOL0     H 1224   8.242   3.402   5.143  1.6642 -0.7272  0.5817
  750MOL0     H 1225   8.223   3.235   5.092 -1.7219 -0.7606 -2.8011
  750MOL0     H 1226   8.374   3.474   4.974 -0.3881 -0.0935  1.2436
  750MOL0     H 1227   8.351   3.322   4.872 -2.2317 -2.2602  1.6631
  750MOL0     H 1228   8.570   3.328   4.999 -0.6544 -0.2745 -1.3804
  750MOL0     H 1229   8.483   3.303   5.151 -2.1358 -0.2803 -0.2491
  750MOL0     H 1230   7.598   3.088   4.389  0.3878  0.1994 -0.2744
  750MOL0     H 1231   7.420   3.138   4.240  2.1868 -2.5716  2.5223
  750MOL0     H 1232   7.158   3.290   3.996 -0.9195 -3.5908 -0.8935
  750MOL0     H 1233   6.976   3.299   3.835  0.7608  1.0226  0.2113
  750MOL0     H 1234   7.701   3.566   4.161  2.2112 -0.6301  1.9052
  750MOL0     H 1235   7.843   3.624   4.351 -1.2019 -5.1065 -2.4615
  750MOL0     H 1236   7.789   3.778   4.845 -0.2727 -0.0625 -3.0834
  750MOL0     H 1237   7.916   3.780   5.057  3.2599  3.7392  1.2494
  750MOL0     H 1238   8.059   3.730   5.244  0.0893 -1.8843 -1.9370
  750MOL0     H 1239   8.082   3.902   5.198 -3.2562 -1.7696 -0.4457
  750MOL0     H 1240   8.200   3.879   5.390 -0.3434 -0.5034 -0.2617
  750MOL0     H 1241   8.330   3.889   5.263  2.3233 -1.5054  1.7876
  750MOL0     H 1242   8.241   3.621   5.370 -1.1282  1.2819  0.4841
  750MOL0     H 1243   8.363   3.710   5.453  0.5947  1.8828  0.2440
  750MOL0     H 1244   8.376   3.590   5.176  0.8186  1.8503 -0.6712
  750MOL0     H 1245   8.499   3.704   5.216 -2.6620  0.6492 -1.6630
  750MOL0     H 1246   8.670   3.381   5.413  1.5504 -0.5807 -2.6498
  750MOL0     H 1247   8.279   3.692   4.862 -0.2450  1.5902  2.5659
  750MOL0     H 1248   8.274   3.619   4.625 -0.7938 -0.3031  2.1037
  750MOL0     H 1249   8.130   3.610   4.519 -3.0146 -0.4811  2.8401
  750MOL0     H 1250   8.219   3.758   4.544 -0.9522  0.1194 -1.9908
  751MOL0     O 1251   3.134   8.955   5.946 -0.7099  0.0503 -0.1780
  751MOL0     C 1252   3.135   8.835   5.932  0.0042 -0.1748 -0.6790
  751MOL0     O 1253   3.229   8.756   5.865 -0.2900 -0.0274  0.0040
  751MOL0     C 1254   3.307   8.820   5.772 -0.1610  0.6633  0.5851
  751MOL0     C 1255   3.409   8.733   5.718 -0.0406  0.1984 -0.2432
  751MOL0     C 1256   3.501   8.780   5.626  0.1438  0.5876  0.1638
  751MOL0     C 1257   3.497   8.917   5.582  0.3619  0.7853  0.8965
  751MOL0     O 1258   3.595   8.973   5.501  0.4810  0.2928  0.1608
  751MOL0     C 1259   3.710   8.901   5.488  0.0071 -0.1555  0.7482
  751MOL0     C 1260   3.792   8.940   5.376 -0.6015 -1.0522  0.3680
  751MOL0     C 1261   3.745   8.879   5.234 -0.5715 -0.4530 -0.5088
  751MOL0     C 1262   3.857   8.905   5.131 -0.0616 -0.1490  0.0039
  751MOL0     C 1263   3.850   9.052   5.089  0.8355  0.3375  0.1322
  751MOL0     C 1264   3.936   9.081   4.972 -0.1943  0.6697  0.1674
  751MOL0     C 1265   3.942   9.224   4.949 -0.3737 -0.3482  0.3780
  751MOL0     C 1266   4.011   9.278   4.822 -0.1542  0.2643 -0.5897
  751MOL0     N 1267   4.141   9.214   4.786 -0.3023 -0.3631  0.1591
  751MOL0     C 1268   4.158   9.111   4.698 -0.5611  1.1108 -0.5323
  751MOL0     C 1269   4.293   9.083   4.700 -0.0416 -0.6126  0.4788
  751MOL0     C 1270   4.351   8.971   4.629  0.0396 -0.1052 -0.0569
  751MOL0     C 1271   4.460   8.890   4.705  0.3673  0.1866 -0.8402
  751MOL0     C 1272   4.516   8.771   4.618  0.0927 -0.5861  0.2504
  751MOL0     C 1273   4.619   8.686   4.701  0.6812  0.2149  0.4400
  751MOL0     O 1274   4.677   8.575   4.633 -0.2781 -0.2284  0.5900
  751MOL0     C 1275   4.748   8.588   4.515 -0.3208 -0.0005  0.4212
  751MOL0     C 1276   4.824   8.696   4.473  0.2783 -0.5750 -0.2656
  751MOL0     C 1277   4.906   8.696   4.364 -0.2718 -0.1541  0.4206
  751MOL0     C 1278   4.930   8.582   4.288  0.4927  0.2845 -0.2944
  751MOL0     C 1279   5.015   8.575   4.176  0.6005  0.7105  0.8599
  751MOL0     O 1280   5.122   8.666   4.172  0.1093 -0.3216  0.0832
  751MOL0     C 1281   5.205   8.670   4.063  0.9678  0.4779 -0.3585
  751MOL0     C 1282   5.163   8.698   3.933  0.6218  0.6282  0.3143
  751MOL0     C 1283   5.246   8.690   3.824 -0.2377  0.2324  0.8274
  751MOL0     C 1284   5.385   8.669   3.845  0.3545 -0.2702  0.5574
  751MOL0     O 1285   5.473   8.667   3.736 -0.3831 -0.0673 -0.0710
  751MOL0     C 1286   5.617   8.666   3.768 -0.2887  0.5837 -0.1156
  751MOL0     C 1287   5.662   8.522   3.771  1.1017 -0.4729 -1.0879
  751MOL0     C 1288   5.807   8.496   3.813  0.3518 -0.2231 -0.5226
  751MOL0     C 1289   5.910   8.556   3.713  0.4055 -0.5783  0.1579
  751MOL0     C 1290   6.049   8.531   3.777 -0.8093  0.1510  0.4780
  751MOL0     C 1291   6.149   8.574   3.671 -0.0303 -0.7641 -0.0292
  751MOL0     C 1292   6.298   8.561   3.718 -0.7541 -0.1868  0.0799
  751MOL0     C 1293   6.358   8.414   3.707  0.0668  1.2752  0.5074
  751MOL0    Cl 1294   6.524   8.405   3.772  0.6325  0.2107 -0.2042
  751MOL0     C 1295   5.431   8.645   3.968  0.6914 -0.5856 -0.0942
  751MOL0     C 1296   5.338   8.645   4.079  0.4013 -0.7872 -1.0020
  751MOL0     O 1297   4.995   8.487   4.090 -0.3106  0.9565  0.2618
  751MOL0     C 1298   4.842   8.470   4.324 -0.2047  0.2449  1.4546
  751MOL0     C 1299   4.757   8.476   4.431  0.8436  0.4217 -1.2807
  751MOL0     N 1300   4.355   9.163   4.782 -1.4308  0.6918 -0.2365
  751MOL0     N 1301   4.269   9.247   4.822 -0.3474  0.2968  0.4653
  751MOL0     C 1302   3.386   9.000   5.615 -0.1368  0.7597 -0.0337
  751MOL0     C 1303   3.292   8.953   5.709 -0.0581  0.3243  0.1538
  751MOL0     C 1304   3.012   8.763   5.987 -0.8374 -0.5228 -0.5981
  751MOL0     C 1305   2.978   8.648   5.924  0.5182  0.5624 -0.5317
  751MOL0     C 1306   2.878   8.565   5.981 -0.0987  0.1455  1.2610
  751MOL0     C 1307   2.806   8.594   6.097 -0.2416  0.2760  0.4481
  751MOL0     O 1308   2.716   8.512   6.164  0.4553 -0.8456  0.1115
  751MOL0     C 1309   2.654   8.398   6.101 -0.5535  0.5063  0.4968
  751MOL0     C 1310   2.527   8.358   6.155  0.0480  0.9541 -0.3743
  751MOL0     C 1311   2.416   8.460   6.108 -1.0191 -0.0757  0.1580
  751MOL0     C 1312   2.281   8.461   6.191 -0.1949 -0.1256  0.6545
  751MOL0     C 1313   2.183   8.539   6.108 -0.3382 -0.0340  0.3236
  751MOL0     C 1314   2.099   8.599   6.045 -0.7995 -0.4300 -0.5415
  751MOL0     C 1315   2.841   8.713   6.159  0.3523  0.0861 -0.4170
  751MOL0     C 1316   2.937   8.805   6.103 -0.2524  0.9137  0.7088
  751MOL0     C 1317   2.962   8.930   6.180  0.1925 -0.1828  0.9610
  751MOL0     H 1318   3.408   8.630   5.753 -1.3733  0.8401  1.7612
  751MOL0     H 1319   3.566   8.708   5.576 -1.8544 -0.4266 -1.1125
  751MOL0     H 1320   3.772   8.925   5.576  2.1787  3.5494 -1.5193
  751MOL0     H 1321   3.696   8.794   5.471  0.0882  0.0512 -0.7156
  751MOL0     H 1322   3.892   8.896   5.384  0.6263  1.3564 -0.7612
  751MOL0     H 1323   3.817   9.046   5.369 -0.6928 -1.0334 -5.6880
  751MOL0     H 1324   3.647   8.925   5.213 -1.4764 -2.2273 -0.3906
  751MOL0     H 1325   3.724   8.772   5.240 -2.5834 -0.0432  1.4053
  751MOL0     H 1326   3.958   8.877   5.160 -0.3559  1.1779  2.5375
  751MOL0     H 1327   3.832   8.839   5.047  1.6849 -2.0539  0.8864
  751MOL0     H 1328   3.748   9.079   5.064  1.4825  1.7820 -1.0756
  751MOL0     H 1329   3.882   9.112   5.175  0.2173  0.9358 -0.0505
  751MOL0     H 1330   4.035   9.043   4.998  0.2708  1.3258 -0.6006
  751MOL0     H 1331   3.894   9.029   4.885 -3.4800 -0.0670  2.0483
  751MOL0     H 1332   3.999   9.275   5.027 -1.5514  2.2795 -0.3771
  751MOL0     H 1333   3.840   9.264   4.941 -0.1867 -0.2324 -2.9636
  751MOL0     H 1334   3.939   9.279   4.740 -1.8496 -0.0882  0.8189
  751MOL0     H 1335   4.032   9.385   4.833 -0.9762  0.3180  0.7220
  751MOL0     H 1336   4.082   9.053   4.646  0.0954 -0.0070 -0.2828
  751MOL0     H 1337   4.266   8.905   4.609 -0.5442 -0.2052  2.4414
  751MOL0     H 1338   4.401   8.995   4.535  0.6725  1.5088  0.6458
  751MOL0     H 1339   4.543   8.955   4.734 -1.1726  1.5315  0.7602
  751MOL0     H 1340   4.408   8.848   4.791  0.6378  1.9003  0.1933
  751MOL0     H 1341   4.556   8.794   4.519 -0.4449 -0.0303  0.1531
  751MOL0     H 1342   4.433   8.702   4.600 -1.4545  1.0389  0.7871
  751MOL0     H 1343   4.570   8.651   4.792  1.1518 -0.1001  0.5788
  751MOL0     H 1344   4.705   8.745   4.735 -0.2064  1.2526  0.9317
  751MOL0     H 1345   4.807   8.786   4.531 -3.4324 -0.9203 -0.6073
  751MOL0     H 1346   4.955   8.787   4.329 -2.1477 -0.2116 -2.7234
  751MOL0     H 1347   5.059   8.722   3.914  0.3384  2.5924  3.4703
  751MOL0     H 1348   5.206   8.695   3.723  0.9659  0.3608  0.3366
  751MOL0     H 1349   5.676   8.710   3.687  0.1990  1.4906  0.7171
  751MOL0     H 1350   5.642   8.722   3.858 -5.0180  1.7666  0.7412
  751MOL0     H 1351   5.592   8.471   3.838 -1.2579  1.3663 -2.0031
  751MOL0     H 1352   5.648   8.494   3.667 -1.7431  0.5816 -1.0573
  751MOL0     H 1353   5.819   8.550   3.908 -0.1880 -0.2015 -0.4673
  751MOL0     H 1354   5.822   8.389   3.828 -0.5380 -0.0910  1.7101
  751MOL0     H 1355   5.901   8.665   3.718  0.0615 -0.6663  1.9794
  751MOL0     H 1356   5.910   8.518   3.610  1.0937 -3.2375  1.0732
  751MOL0     H 1357   6.070   8.425   3.797 -1.2530 -0.2836 -1.2654
  751MOL0     H 1358   6.061   8.582   3.873  0.5266 -0.0902  0.4589
  751MOL0     H 1359   6.136   8.527   3.574 -2.4411 -0.6526  0.1890
  751MOL0     H 1360   6.124   8.679   3.651 -1.3142 -1.1172 -0.3602
  751MOL0     H 1361   6.298   8.582   3.826  2.2391  0.3436  0.0565
  751MOL0     H 1362   6.352   8.629   3.653  1.0950 -1.5238  0.1421
  751MOL0     H 1363   6.289   8.343   3.754 -0.3379 -1.8650 -4.1635
  751MOL0     H 1364   6.363   8.389   3.601 -3.0754  0.5736  0.4479
  751MOL0     H 1365   5.531   8.636   4.008  0.5448  0.5878  0.5702
  751MOL0     H 1366   5.355   8.627   4.185 -1.3472  0.9814 -0.3434
  751MOL0     H 1367   4.846   8.378   4.267 -1.0192 -0.3731  2.3450
  751MOL0     H 1368   4.705   8.387   4.465  2.5668  0.8209  3.1144
  751MOL0     H 1369   3.378   9.101   5.576 -3.3353  1.0215  1.0421
  751MOL0     H 1370   3.213   9.021   5.742  0.6135 -0.4771  3.7710
  751MOL0     H 1371   3.029   8.610   5.836  1.4073 -0.8461  0.5445
  751MOL0     H 1372   2.857   8.464   5.946  0.4079  1.2553 -2.7579
  751MOL0     H 1373   2.725   8.315   6.111  2.1696  2.2517 -2.3856
  751MOL0     H 1374   2.639   8.415   5.994 -2.8485  0.4231  0.7584
  751MOL0     H 1375   2.540   8.351   6.263  2.4278 -1.7523 -0.7221
  751MOL0     H 1376   2.491   8.261   6.120 -0.5500  0.4473  1.5067
  751MOL0     H 1377   2.387   8.441   6.004 -1.1849  2.8551 -0.4347
  751MOL0     H 1378   2.461   8.559   6.120 -0.1588 -0.7127  2.5075
  751MOL0     H 1379   2.249   8.357   6.208  0.4605 -0.3676  0.4508
  751MOL0     H 1380   2.297   8.509   6.288  0.1722  0.3108  0.3765
  751MOL0     H 1381   2.035   8.661   5.985 -0.5593  0.1663 -0.2016
  751MOL0     H 1382   2.787   8.730   6.252 -2.0251 -0.7212 -1.5833
  751MOL0     H 1383   2.940   9.018   6.119  2.6540 -0.3940 -0.3545
  751MOL0     H 1384   2.901   8.922   6.270  0.1539  0.5293  1.0056
  751MOL0     H 1385   3.068   8.940   6.204  1.0935 -1.7774 -1.8278
  752MOL0     O 1386   3.215   8.929   2.625 -0.0427 -0.0907  0.6982
  752MOL0     C 1387   3.284   9.027   2.593  0.5323 -0.7124 -0.7793
  752MOL0     O 1388   3.245   9.159   2.593 -0.2763  1.2022 -0.0243
  752MOL0     C 1389   3.117   9.204   2.605 -0.0137  0.2695  1.0125
  752MOL0     C 1390   3.071   9.305   2.519 -0.1642 -0.1379 -0.2122
  752MOL0     C 1391   2.944   9.357   2.539 -0.6737 -0.4383  0.0758
  752MOL0     C 1392   2.869   9.320   2.648 -0.0620 -0.5567 -0.7730
  752MOL0     O 1393   2.744   9.367   2.660  0.7298 -0.3691  0.1223
  752MOL0     C 1394   2.644   9.304   2.573 -0.2255  0.9263 -0.1140
  752MOL0     C 1395   2.523   9.396   2.527 -0.3984 -0.9396 -0.3521
  752MOL0     C 1396   2.419   9.327   2.447 -0.6333  0.0868 -0.0769
  752MOL0     C 1397   2.274   9.397   2.452  0.2061  0.9519 -0.1360
  752MOL0     C 1398   2.184   9.391   2.327  0.6506 -0.6603  0.5731
  752MOL0     C 1399   2.055   9.467   2.360 -0.0669  0.8592 -0.1030
  752MOL0     C 1400   1.948   9.462   2.250 -0.5126 -0.0663  0.2923
  752MOL0     C 1401   1.863   9.590   2.249  0.0287 -0.0089 -0.9951
  752MOL0     N 1402   1.774   9.582   2.359  0.2597 -0.2241  0.4950
  752MOL0     C 1403   1.639   9.573   2.356 -0.1596  1.0241  0.1052
  752MOL0     C 1404   1.589   9.570   2.483 -0.1971  0.5259 -0.0933
  752MOL0     C 1405   1.448   9.542   2.523 -0.2505  0.9757  0.3378
  752MOL0     C 1406   1.392   9.412   2.460  0.9728  0.1672  0.1701
  752MOL0     C 1407   1.480   9.288   2.475  0.4995  0.3026 -0.2920
  752MOL0     C 1408   1.482   9.237   2.618  0.0513  0.5032  0.2518
  752MOL0     O 1409   1.558   9.111   2.617  0.0574 -0.4609 -0.0688
  752MOL0     C 1410   1.683   9.109   2.664  1.3025 -0.5972  0.1832
  752MOL0     C 1411   1.770   9.221   2.648 -0.5980 -0.1611 -0.6366
  752MOL0     C 1412   1.896   9.222   2.694 -0.0188 -0.3094  0.2057
  752MOL0     C 1413   1.936   9.110   2.758 -1.2243  0.2874  0.5602
  752MOL0     C 1414   2.078   9.109   2.814  0.1066  0.6494 -0.1753
  752MOL0     O 1415   2.142   9.226   2.829 -0.1980 -0.4740  0.2766
  752MOL0     C 1416   2.257   9.222   2.902 -0.9416  0.5129 -0.2785
  752MOL0     C 1417   2.263   9.272   3.037  0.3935  0.7682 -0.0171
  752MOL0     C 1418   2.380   9.284   3.106 -0.8318  0.4270 -0.4556
  752MOL0     C 1419   2.495   9.246   3.057 -0.2081  0.4967 -0.1909
  752MOL0     O 1420   2.607   9.257   3.142 -0.3313  0.2247  0.5131
  752MOL0     C 1421   2.701   9.363   3.097 -0.5643  0.3613 -0.3699
  752MOL0     C 1422   2.826   9.374   3.186  0.1267 -0.7472 -0.0311
  752MOL0     C 1423   2.926   9.255   3.175  0.0004  0.0073 -0.2897
  752MOL0     C 1424   3.066   9.304   3.211 -0.0390  0.4328 -0.5184
  752MOL0     C 1425   3.174   9.209   3.144 -0.1290  0.1028  0.2219
  752MOL0     C 1426   3.318   9.263   3.174  0.3944  0.3430 -0.5389
  752MOL0     C 1427   3.417   9.160   3.112 -0.3592  0.3605  0.0729
  752MOL0     C 1428   3.459   9.172   2.963 -0.6014  0.0682 -0.1465
  752MOL0    Cl 1429   3.589   9.035   2.924 -0.2268  0.0888 -0.2288
  752MOL0     C 1430   2.500   9.187   2.926  0.5362  0.0726  0.6829
  752MOL0     C 1431   2.380   9.173   2.847 -0.3942  0.1370  0.4101
  752MOL0     O 1432   2.116   8.999   2.855  0.1109 -0.3885  0.4952
  752MOL0     C 1433   1.861   8.992   2.763 -0.6909 -0.1493  0.4818
  752MOL0     C 1434   1.734   8.994   2.716  0.3916  0.6609 -0.3433
  752MOL0     N 1435   1.700   9.593   2.565 -0.0988 -0.3524 -0.7828
  752MOL0     N 1436   1.811   9.598   2.493  0.3871  0.9099  0.0475
  752MOL0     C 1437   2.912   9.228   2.742 -0.3769 -0.2237  0.1542
  752MOL0     C 1438   3.034   9.162   2.712  0.3254 -0.5113 -0.2213
  752MOL0     C 1439   3.425   9.013   2.561  0.3737 -0.4786 -0.5802
  752MOL0     C 1440   3.480   9.105   2.468  0.1161  0.2092  0.2371
  752MOL0     C 1441   3.624   9.099   2.443  0.0426 -0.5222 -0.2626
  752MOL0     C 1442   3.704   9.002   2.505 -0.0907 -0.3754 -0.9697
  752MOL0     O 1443   3.834   8.984   2.477  0.3690  0.0825 -0.1776
  752MOL0     C 1444   3.909   9.098   2.489 -0.8267 -0.2411  0.2944
  752MOL0     C 1445   4.056   9.050   2.551  0.9387  0.1121  0.0309
  752MOL0     C 1446   4.125   8.938   2.460  0.7588 -0.6084 -0.0827
  752MOL0     C 1447   4.223   8.993   2.349 -0.0680  0.1128  0.3441
  752MOL0     C 1448   4.363   9.002   2.401 -0.6928 -0.7266  0.4773
  752MOL0     C 1449   4.480   9.009   2.439 -0.4025 -0.1875 -0.1035
  752MOL0     C 1450   3.650   8.917   2.603 -0.0886 -0.6467  0.3122
  752MOL0     C 1451   3.512   8.923   2.623 -0.6093  0.1444 -0.9875
  752MOL0     C 1452   3.467   8.829   2.729  0.6778 -0.0444 -1.3178
  752MOL0     H 1453   3.125   9.345   2.433  2.4528  1.1895  1.8767
  752MOL0     H 1454   2.896   9.411   2.458  0.6393 -3.3330 -2.8699
  752MOL0     H 1455   2.700   9.285   2.481  0.7888  1.9808  0.2694
  752MOL0     H 1456   2.597   9.213   2.612 -1.5499  0.9575 -1.5348
  752MOL0     H 1457   2.566   9.483   2.476  0.2131 -1.7101 -1.1773
  752MOL0     H 1458   2.464   9.427   2.614  0.8245  0.9707 -0.1177
  752MOL0     H 1459   2.429   9.220   2.471 -0.5798  0.2454  0.6493
  752MOL0     H 1460   2.441   9.327   2.340  0.3158  1.7966  0.0890
  752MOL0     H 1461   2.213   9.361   2.536 -0.4368  0.7952 -0.6613
  752MOL0     H 1462   2.299   9.499   2.485  3.9074  0.2743 -0.4240
  752MOL0     H 1463   2.236   9.440   2.244  0.0816 -1.5308 -0.3172
  752MOL0     H 1464   2.162   9.287   2.300 -0.3584 -0.3390  0.0948
  752MOL0     H 1465   2.010   9.427   2.452  1.3540  1.8464  1.0580
  752MOL0     H 1466   2.085   9.570   2.379 -0.2390  1.2072 -1.5732
  752MOL0     H 1467   1.885   9.372   2.258  1.4340 -1.4103  1.2510
  752MOL0     H 1468   1.999   9.460   2.154  0.9358 -0.0537  1.0394
  752MOL0     H 1469   1.933   9.674   2.253  0.8582 -0.3422 -4.8239
  752MOL0     H 1470   1.805   9.598   2.156 -0.2492  0.3089 -0.7977
  752MOL0     H 1471   1.592   9.569   2.258 -0.9135  0.3892  0.4786
  752MOL0     H 1472   1.449   9.546   2.633 -2.7004  3.2010  0.3894
  752MOL0     H 1473   1.393   9.634   2.499  0.8476  2.1933  2.1766
  752MOL0     H 1474   1.293   9.394   2.502  0.5274  0.9902 -0.5065
  752MOL0     H 1475   1.379   9.433   2.354 -0.7012  1.3858  0.5750
  752MOL0     H 1476   1.582   9.308   2.438  1.3197  0.7044  2.0365
  752MOL0     H 1477   1.443   9.205   2.415  1.2092 -1.3845  1.5097
  752MOL0     H 1478   1.378   9.212   2.642 -0.3594  0.9550 -0.9675
  752MOL0     H 1479   1.522   9.316   2.682  1.6250  0.2927 -0.4273
  752MOL0     H 1480   1.735   9.313   2.603  1.2124  0.7735 -0.2398
  752MOL0     H 1481   1.955   9.313   2.694 -0.7488  0.2182  2.1511
  752MOL0     H 1482   2.174   9.320   3.076  0.5135 -0.8737  2.4985
  752MOL0     H 1483   2.388   9.327   3.205  1.8119 -1.0037  0.0458
  752MOL0     H 1484   2.738   9.358   2.994 -0.2969  2.1873 -0.3991
  752MOL0     H 1485   2.639   9.453   3.089 -2.5075 -0.9732 -1.1278
  752MOL0     H 1486   2.881   9.461   3.148  1.3120 -1.1661  0.6838
  752MOL0     H 1487   2.812   9.396   3.292 -0.6037  0.4959 -0.3662
  752MOL0     H 1488   2.898   9.172   3.241  1.7085 -2.0685 -2.0347
  752MOL0     H 1489   2.932   9.216   3.073 -3.4416 -0.8069 -0.3121
  752MOL0     H 1490   3.078   9.301   3.320  3.7344 -1.8104 -0.8026
  752MOL0     H 1491   3.076   9.409   3.184  0.9608  0.2820 -0.7868
  752MOL0     H 1492   3.158   9.208   3.035  3.2798  2.5080 -0.4943
  752MOL0     H 1493   3.155   9.111   3.187  3.1081 -1.1476 -0.9097
  752MOL0     H 1494   3.338   9.364   3.137 -4.3040  1.6225 -0.2507
  752MOL0     H 1495   3.344   9.273   3.280  0.5132 -0.7459 -0.4529
  752MOL0     H 1496   3.362   9.066   3.117 -2.6595  1.6250  0.0103
  752MOL0     H 1497   3.504   9.153   3.178  0.8228 -1.0497 -1.5332
  752MOL0     H 1498   3.368   9.162   2.903  0.8125 -1.5833 -2.1224
  752MOL0     H 1499   3.510   9.265   2.938 -2.1105  0.6913 -1.0568
  752MOL0     H 1500   2.596   9.146   2.895  0.1519  0.5832 -1.3005
  752MOL0     H 1501   2.370   9.127   2.749 -2.4325 -0.5069  0.8833
  752MOL0     H 1502   1.898   8.895   2.792 -2.5344 -0.6321  1.4172
  752MOL0     H 1503   1.687   8.896   2.725  2.8290 -0.4613  1.1719
  752MOL0     H 1504   2.853   9.202   2.828 -0.1362  1.4198  0.8665
  752MOL0     H 1505   3.061   9.079   2.777 -1.9693  0.5091  2.2339
  752MOL0     H 1506   3.408   9.174   2.425 -1.1666 -0.6562  0.9404
  752MOL0     H 1507   3.663   9.167   2.367 -1.5636 -1.0936 -1.6691
  752MOL0     H 1508   3.870   9.175   2.557 -3.8322 -0.1458 -1.3934
  752MOL0     H 1509   3.937   9.142   2.393  1.0279  0.4570  1.1043
  752MOL0     H 1510   4.043   9.004   2.650 -1.6940 -0.9779 -0.7055
  752MOL0     H 1511   4.115   9.141   2.561 -0.3718  0.8134  2.1989
  752MOL0     H 1512   4.042   8.884   2.412 -0.9384  1.7927 -0.0638
  752MOL0     H 1513   4.178   8.868   2.525 -1.4981 -1.2304  1.1962
  752MOL0     H 1514   4.217   8.930   2.260  2.7400 -0.6184  0.5613
  752MOL0     H 1515   4.194   9.090   2.308 -0.1057 -1.7242 -4.6104
  752MOL0     H 1516   4.578   9.018   2.481  0.3494 -2.0800 -1.3503
  752MOL0     H 1517   3.727   8.857   2.650 -1.5973 -3.0847 -0.1821
  752MOL0     H 1518   3.557   8.791   2.779  0.6424  1.4164 -0.1045
  752MOL0     H 1519   3.405   8.885   2.799  1.5237  2.9895 -2.8145
  752MOL0     H 1520   3.409   8.749   2.682 -0.9738  0.1065  0.4040
  753MOL0     O 1521   2.806  10.992   3.005 -0.3449  0.1964  0.1681
  753MOL0     C 1522   2.852  10.919   2.926 -0.5127  0.6506  0.3423
  753MOL0     O 1523   2.784  10.851   2.827  0.0748  0.1950  0.3181
  753MOL0     C 1524   2.648  10.871   2.799 -0.7505 -0.2117  0.8881
  753MOL0     C 1525   2.590  10.780   2.705 -0.9073  0.2080 -0.1298
  753MOL0     C 1526   2.450  10.769   2.694  0.6749  0.3361 -0.7353
  753MOL0     C 1527   2.366  10.865   2.750  0.9232 -0.0968 -0.5286
  753MOL0     O 1528   2.230  10.851   2.732  0.3774  0.6230  0.7985
  753MOL0     C 1529   2.148  10.969   2.743  0.1224  0.1574  0.5554
  753MOL0     C 1530   2.055  10.965   2.859  0.2627  0.4606  0.1301
  753MOL0     C 1531   1.967  11.092   2.889 -0.4733  0.5965 -0.4756
  753MOL0     C 1532   1.879  11.071   3.015 -1.4611  0.5241  0.1883
  753MOL0     C 1533   1.828  11.191   3.087 -0.6539  0.2030 -0.4601
  753MOL0     C 1534   1.937  11.295   3.131  0.7662 -0.5392  0.2974
  753MOL0     C 1535   1.870  11.423   3.194  0.1687  0.3913 -0.4669
  753MOL0     C 1536   1.783  11.507   3.102 -0.7902 -0.5404 -0.6169
  753MOL0     N 1537   1.845  11.551   2.978  0.4594  0.4963 -0.1583
  753MOL0     C 1538   1.846  11.472   2.863 -0.4555  1.1803 -0.2386
  753MOL0     C 1539   1.911  11.548   2.768 -0.3230  0.6925  0.2505
  753MOL0     C 1540   1.933  11.514   2.617  0.5667 -0.4007 -0.4332
  753MOL0     C 1541   2.084  11.493   2.591  0.4445  0.1296  0.5499
  753MOL0     C 1542   2.151  11.387   2.682 -0.3419  0.3041 -0.6476
  753MOL0     C 1543   2.308  11.417   2.680  0.2033 -0.0897 -0.2693
  753MOL0     O 1544   2.390  11.301   2.717  0.0253 -0.1143  0.3692
  753MOL0     C 1545   2.517  11.330   2.758  0.4481  0.9338  0.2415
  753MOL0     C 1546   2.599  11.428   2.699 -0.5712  0.4974  1.1265
  753MOL0     C 1547   2.722  11.463   2.757 -0.8182 -0.1174  0.0285
  753MOL0     C 1548   2.762  11.400   2.879  0.8546  0.4705 -0.2303
  753MOL0     C 1549   2.906  11.421   2.933 -0.5171  0.0522  0.4876
  753MOL0     O 1550   2.935  11.366   3.053  0.4405 -0.0246 -0.3642
  753MOL0     C 1551   3.062  11.345   3.089 -0.5344  0.1057 -0.1121
  753MOL0     C 1552   3.075  11.344   3.230  0.0116  0.2665 -0.4324
  753MOL0     C 1553   3.198  11.309   3.291 -0.2127 -0.5647  0.1588
  753MOL0     C 1554   3.312  11.292   3.214  1.1718  0.1672 -0.0204
  753MOL0     O 1555   3.435  11.269   3.273  0.0300 -0.0591 -0.1071
  753MOL0     C 1556   3.471  11.129   3.269  0.1511  0.7619 -0.1200
  753MOL0     C 1557   3.628  11.118   3.257  0.1215 -0.0193 -0.3018
  753MOL0     C 1558   3.685  11.236   3.193 -1.2303  0.8883  0.3667
  753MOL0     C 1559   3.834  11.200   3.161 -0.1845  0.0044  0.8197
  753MOL0     C 1560   3.900  11.315   3.081  0.4621 -0.6731  0.7896
  753MOL0     C 1561   4.060  11.304   3.064  1.2523  0.5873 -0.4228
  753MOL0     C 1562   4.121  11.309   3.203 -0.1034  0.2014 -0.0330
  753MOL0     C 1563   4.266  11.341   3.182 -0.0881 -0.6796 -0.0611
  753MOL0    Cl 1564   4.346  11.299   3.332  0.3009  0.6399  0.3280
  753MOL0     C 1565   3.303  11.299   3.072  0.1760 -0.5093  0.5760
  753MOL0     C 1566   3.179  11.316   3.010  0.3803 -0.0116  0.2374
  753MOL0     O 1567   2.984  11.467   2.853 -0.0036 -0.0791  0.0258
  753MOL0     C 1568   2.670  11.321   2.941 -0.4025  0.1905 -0.5620
  753MOL0     C 1569   2.553  11.286   2.889  0.6078 -0.0208  0.7196
  753MOL0     N 1570   1.938  11.665   2.832 -0.8790 -0.7142  0.6244
  753MOL0     N 1571   1.891  11.678   2.947 -0.2285  0.2352 -0.1062
  753MOL0     C 1572   2.425  10.955   2.839  0.1580 -0.4313  0.0250
  753MOL0     C 1573   2.558  10.948   2.868 -0.9218 -0.3990 -0.1848
  753MOL0     C 1574   3.002  10.887   2.920  0.1238 -0.0841  0.0734
  753MOL0     C 1575   3.058  10.846   2.797  0.1083  0.7153  0.3413
  753MOL0     C 1576   3.194  10.834   2.779  0.5698 -0.0732 -0.5164
  753MOL0     C 1577   3.284  10.863   2.880 -0.2808  0.0238  0.6482
  753MOL0     O 1578   3.422  10.856   2.863 -0.4118  0.0889 -0.5645
  753MOL0     C 1579   3.478  10.988   2.841  0.3789  0.5825  1.1818
  753MOL0     C 1580   3.630  10.976   2.866  0.0267 -0.2080 -0.5549
  753MOL0     C 1581   3.698  10.890   2.769 -0.3871  0.8313  0.2162
  753MOL0     C 1582   3.834  10.827   2.813 -0.0618  0.3780  0.2426
  753MOL0     C 1583   3.937  10.924   2.786  0.9541  0.8859  0.3077
  753MOL0     C 1584   4.026  11.006   2.780 -0.4589  0.3257  0.6223
  753MOL0     C 1585   3.228  10.898   3.006  0.5429  0.6333  0.3459
  753MOL0     C 1586   3.095  10.905   3.029  0.2578 -0.2867  0.1123
  753MOL0     C 1587   3.057  10.960   3.167  1.0820 -0.0965  0.3602
  753MOL0     H 1588   2.651  10.703   2.659  0.9137  0.2514  2.0497
  753MOL0     H 1589   2.400  10.682   2.651  0.9935  0.2753 -0.9832
  753MOL0     H 1590   2.212  11.057   2.740  1.5321 -0.8604 -2.5714
  753MOL0     H 1591   2.082  10.984   2.657 -0.4524 -1.9190  0.5828
  753MOL0     H 1592   2.112  10.933   2.947 -1.7888 -0.9570  1.0384
  753MOL0     H 1593   1.983  10.886   2.834 -0.5703  0.8050  1.3568
  753MOL0     H 1594   1.897  11.127   2.813 -3.2298  0.0363  1.6349
  753MOL0     H 1595   2.049  11.162   2.909  1.7400 -1.5019 -1.7613
  753MOL0     H 1596   1.796  11.007   2.986  2.3209 -4.0683 -1.8090
  753MOL0     H 1597   1.931  11.021   3.097  0.0348  0.5143 -0.7198
  753MOL0     H 1598   1.755  11.245   3.025 -0.2542  0.8295 -0.4019
  753MOL0     H 1599   1.770  11.156   3.173 -1.4329  2.2745 -0.0724
  753MOL0     H 1600   2.005  11.241   3.197  2.9493  0.6551 -0.8403
  753MOL0     H 1601   2.006  11.324   3.051 -1.1888 -2.0973 -2.1006
  753MOL0     H 1602   1.948  11.492   3.227  1.0059  1.0230 -3.4292
  753MOL0     H 1603   1.808  11.398   3.280 -0.0984  2.2378 -0.0669
  753MOL0     H 1604   1.688  11.454   3.092 -1.2924 -0.0870  1.2655
  753MOL0     H 1605   1.752  11.596   3.156 -0.6638 -1.3853  0.9002
  753MOL0     H 1606   1.807  11.371   2.856 -0.3520  0.8852  2.3763
  753MOL0     H 1607   1.876  11.428   2.580  0.3154 -0.1870 -0.5444
  753MOL0     H 1608   1.907  11.610   2.573 -0.2404  0.6751  2.1566
  753MOL0     H 1609   2.096  11.463   2.487 -1.1646  2.4857 -0.4094
  753MOL0     H 1610   2.128  11.593   2.600 -1.8766  1.3334 -0.6480
  753MOL0     H 1611   2.130  11.288   2.642  3.4955 -0.6014 -0.8215
  753MOL0     H 1612   2.123  11.398   2.787  0.5744 -1.1330 -0.2419
  753MOL0     H 1613   2.320  11.495   2.757  1.7719 -0.9025  0.3533
  753MOL0     H 1614   2.340  11.457   2.584 -0.6053  2.5984  0.4747
  753MOL0     H 1615   2.567  11.484   2.612 -1.7137  0.9184  1.7822
  753MOL0     H 1616   2.791  11.526   2.701 -0.2129 -0.6284  0.1843
  753MOL0     H 1617   2.991  11.370   3.293 -1.1241  0.6963 -2.0452
  753MOL0     H 1618   3.205  11.301   3.399 -0.4840 -1.6043  0.1048
  753MOL0     H 1619   3.424  11.080   3.355 -4.4547  2.7848 -1.1818
  753MOL0     H 1620   3.432  11.082   3.178 -0.2039  0.1581  0.3340
  753MOL0     H 1621   3.670  11.112   3.358 -1.2007 -2.1136  0.1986
  753MOL0     H 1622   3.649  11.029   3.197  2.7261  1.0053 -1.0419
  753MOL0     H 1623   3.631  11.249   3.098 -1.5595  0.6154  0.5124
  753MOL0     H 1624   3.684  11.323   3.259  2.0255 -0.1194  1.9562
  753MOL0     H 1625   3.844  11.104   3.109 -3.0145 -1.5300  2.8372
  753MOL0     H 1626   3.878  11.193   3.260  1.2596  0.8524  0.2714
  753MOL0     H 1627   3.863  11.406   3.128 -0.9613  0.0055 -1.5163
  753MOL0     H 1628   3.854  11.315   2.982  2.2447 -0.8740 -0.0693
  753MOL0     H 1629   4.082  11.206   3.019 -0.8640 -0.7826  1.3333
  753MOL0     H 1630   4.098  11.377   2.993 -1.2783  2.2800 -0.1579
  753MOL0     H 1631   4.105  11.209   3.245  0.2428  0.5269  0.8917
  753MOL0     H 1632   4.066  11.384   3.260 -1.9476 -1.5226  0.5632
  753MOL0     H 1633   4.300  11.285   3.095 -0.8783 -0.4673 -0.5183
  753MOL0     H 1634   4.285  11.449   3.178 -1.3234 -0.4628 -0.4400
  753MOL0     H 1635   3.392  11.289   3.011  0.2496  3.2154 -0.1596
  753MOL0     H 1636   3.162  11.308   2.903 -0.9080 -0.4378  0.4464
  753MOL0     H 1637   2.689  11.268   3.034  0.7271 -0.5263 -1.1835
  753MOL0     H 1638   2.482  11.226   2.945 -0.8075  2.6640  2.0136
  753MOL0     H 1639   2.365  11.036   2.881  0.0125 -0.0651 -0.8689
  753MOL0     H 1640   2.573  11.021   2.947  0.0542 -0.6616 -0.1147
  753MOL0     H 1641   2.994  10.825   2.712 -1.6671  0.2396  1.7130
  753MOL0     H 1642   3.229  10.828   2.676  2.1246  0.9702 -0.0781
  753MOL0     H 1643   3.427  11.056   2.911 -1.3129 -0.2347  0.7869
  753MOL0     H 1644   3.451  11.016   2.739  0.7511  0.9537  1.1836
  753MOL0     H 1645   3.654  10.944   2.968 -1.3226  0.8637  0.1458
  753MOL0     H 1646   3.671  11.077   2.858 -1.3011  0.4951  0.9034
  753MOL0     H 1647   3.700  10.942   2.672 -0.6529 -0.9555 -0.8037
  753MOL0     H 1648   3.638  10.801   2.747  2.1778 -0.5468 -1.7538
  753MOL0     H 1649   3.834  10.802   2.919 -1.5538 -0.5379  0.0567
  753MOL0     H 1650   3.842  10.740   2.747 -0.5046 -1.1472  2.1228
  753MOL0     H 1651   4.106  11.077   2.788 -0.4402  0.6573 -1.7931
  753MOL0     H 1652   3.293  10.916   3.091 -1.1577 -2.4022  2.5129
  753MOL0     H 1653   3.023  10.886   3.240  0.0973  0.9684  1.0168
  753MOL0     H 1654   3.144  11.005   3.215  2.6564 -2.4781 -0.0745
  753MOL0     H 1655   2.975  11.032   3.165  0.6272 -0.5039  2.1550
  754MOL0     O 1656   2.177   1.148   0.903 -0.0941  0.1804 -0.4629
  754MOL0     C 1657   2.196   1.265   0.929  0.4895  0.4349  0.0750
  754MOL0     O 1658   2.312   1.328   0.950 -0.4332 -0.4249  0.0376
  754MOL0     C 1659   2.437   1.270   0.954  0.1881 -0.0166  0.0904
  754MOL0     C 1660   2.543   1.359   0.939  0.5661  0.4044  0.5565
  754MOL0     C 1661   2.673   1.311   0.945  0.2318 -0.2386 -0.9034
  754MOL0     C 1662   2.697   1.177   0.998  0.3850  0.7847 -0.1425
  754MOL0     O 1663   2.825   1.121   1.002 -0.6102  0.0968  0.7330
  754MOL0     C 1664   2.860   1.003   1.073 -0.4797  0.8589  0.8564
  754MOL0     C 1665   3.007   0.996   1.091 -0.4856  0.3025  0.2201
  754MOL0     C 1666   3.048   1.129   1.172  0.1436  0.1068  0.7017
  754MOL0     C 1667   3.195   1.136   1.206 -0.6728 -0.5417 -0.2119
  754MOL0     C 1668   3.218   1.232   1.327 -0.7177 -0.2549 -0.7301
  754MOL0     C 1669   3.369   1.240   1.358 -0.1285 -1.2445  0.1195
  754MOL0     C 1670   3.428   1.125   1.448  0.3191  0.5311  0.5193
  754MOL0     C 1671   3.588   1.139   1.455  0.0196 -0.1334 -0.6108
  754MOL0     N 1672   3.663   1.032   1.534 -0.2820 -0.1817  0.2020
  754MOL0     C 1673   3.650   0.900   1.509  0.4029  1.1561 -0.5254
  754MOL0     C 1674   3.721   0.841   1.604  0.1353  0.7560  0.2553
  754MOL0     C 1675   3.729   0.686   1.640  0.8077 -1.3407  0.6600
  754MOL0     C 1676   3.812   0.620   1.538 -0.6634 -0.5767 -0.3662
  754MOL0     C 1677   3.962   0.608   1.567 -0.6620  0.2474  0.1917
  754MOL0     C 1678   4.046   0.597   1.437 -0.3185 -0.6534 -0.4524
  754MOL0     O 1679   4.042   0.705   1.350 -0.5610 -1.0700  0.2969
  754MOL0     C 1680   4.134   0.798   1.387  0.1522  0.0785  0.4819
  754MOL0     C 1681   4.271   0.773   1.358  0.3187 -0.2750 -0.2439
  754MOL0     C 1682   4.368   0.856   1.398 -0.7146 -0.2202  0.3790
  754MOL0     C 1683   4.329   0.979   1.463 -0.4389  0.5223  0.2122
  754MOL0     C 1684   4.435   1.075   1.505  0.7433  0.3635  0.0704
  754MOL0     O 1685   4.391   1.204   1.509 -0.5636 -0.2374 -0.3461
  754MOL0     C 1686   4.489   1.299   1.531  0.3295 -0.7889 -0.2238
  754MOL0     C 1687   4.469   1.392   1.628  0.5902 -0.3286  0.5953
  754MOL0     C 1688   4.565   1.487   1.654 -0.0848 -0.6387 -0.7382
  754MOL0     C 1689   4.685   1.496   1.581 -0.2532 -0.1088  0.3656
  754MOL0     O 1690   4.774   1.599   1.614  0.3734 -0.8507  0.4800
  754MOL0     C 1691   4.895   1.591   1.547 -0.5681 -1.0698 -0.2250
  754MOL0     C 1692   4.990   1.708   1.593  1.1305  0.6325 -0.2517
  754MOL0     C 1693   5.111   1.718   1.514 -0.3192 -0.3066  0.1695
  754MOL0     C 1694   5.210   1.831   1.570 -0.3038  0.6880  0.1455
  754MOL0     C 1695   5.330   1.835   1.467 -0.0059  0.6834 -0.1832
  754MOL0     C 1696   5.420   1.963   1.491 -0.2165 -0.7007 -0.2035
  754MOL0     C 1697   5.527   1.986   1.387 -0.3128  0.3657  0.6935
  754MOL0     C 1698   5.634   2.074   1.454  0.0166  0.8719 -0.8180
  754MOL0    Cl 1699   5.560   2.227   1.511 -0.2307 -0.4403 -0.3379
  754MOL0     C 1700   4.702   1.404   1.474 -0.6670  0.2731 -0.3953
  754MOL0     C 1701   4.605   1.308   1.449  0.3048 -0.4732 -0.3702
  754MOL0     O 1702   4.544   1.035   1.539 -0.6394  0.9132 -0.9197
  754MOL0     C 1703   4.191   1.010   1.472 -0.2542 -0.2264  0.0217
  754MOL0     C 1704   4.093   0.920   1.431 -0.4940  0.2011 -0.3594
  754MOL0     N 1705   3.765   0.938   1.693  1.6021  0.3148 -0.5648
  754MOL0     N 1706   3.736   1.055   1.646 -0.3565 -0.2189  0.1234
  754MOL0     C 1707   2.583   1.098   1.038  0.0066 -0.7150  1.2453
  754MOL0     C 1708   2.456   1.151   1.014 -0.0996  1.1345  0.2414
  754MOL0     C 1709   2.075   1.342   0.930  0.1582  0.4060  0.2241
  754MOL0     C 1710   1.963   1.281   0.981 -0.8088  1.0873 -0.4634
  754MOL0     C 1711   1.842   1.351   1.004 -0.1295  0.6542 -0.1773
  754MOL0     C 1712   1.839   1.488   0.963 -0.2914  0.0997  0.3440
  754MOL0     O 1713   1.717   1.546   0.981  0.4911 -0.0606  0.7079
  754MOL0     C 1714   1.694   1.671   0.922 -0.2722 -0.7682 -0.0569
  754MOL0     C 1715   1.765   1.786   0.997 -0.6678  0.0981  0.3757
  754MOL0     C 1716   1.749   1.918   0.927  0.4132 -0.0411  0.0033
  754MOL0     C 1717   1.846   2.023   0.995 -0.1475 -0.7428 -0.0232
  754MOL0     C 1718   1.822   2.152   0.926  1.0909  0.1609 -0.8834
  754MOL0     C 1719   1.798   2.251   0.865  0.1744 -0.1612 -0.5572
  754MOL0     C 1720   1.951   1.550   0.914 -0.5641  0.0389 -0.3243
  754MOL0     C 1721   2.067   1.480   0.891  0.2893  0.7851 -0.2866
  754MOL0     C 1722   2.179   1.539   0.811  0.3765  0.1613 -0.6306
  754MOL0     H 1723   2.523   1.461   0.907 -2.3267  0.6604  2.7004
  754MOL0     H 1724   2.750   1.373   0.901 -1.0851  0.1497 -2.7900
  754MOL0     H 1725   2.818   0.997   1.174 -1.2587  0.1337  0.4979
  754MOL0     H 1726   2.830   0.915   1.016  3.3379  0.3547 -0.6766
  754MOL0     H 1727   3.062   0.985   0.998  0.2026  3.8986  0.0735
  754MOL0     H 1728   3.028   0.904   1.147 -1.2270  0.0649  0.1177
  754MOL0     H 1729   2.988   1.138   1.262 -2.1020 -2.4252 -0.4093
  754MOL0     H 1730   3.026   1.215   1.108  2.5371  0.8832  0.8258
  754MOL0     H 1731   3.219   1.036   1.244  3.4748 -0.1651 -1.3606
  754MOL0     H 1732   3.251   1.155   1.115  0.3640 -2.1907  0.0361
  754MOL0     H 1733   3.199   1.339   1.314  3.0462  0.6720  0.2652
  754MOL0     H 1734   3.155   1.199   1.411 -0.8326 -0.5471 -0.9285
  754MOL0     H 1735   3.416   1.245   1.259 -0.2408  1.3942  0.1184
  754MOL0     H 1736   3.387   1.333   1.412 -2.9199 -0.7907  0.4048
  754MOL0     H 1737   3.402   1.029   1.404  0.2270  0.4439  0.7653
  754MOL0     H 1738   3.381   1.144   1.544  1.0810 -0.1496  1.0431
  754MOL0     H 1739   3.637   1.141   1.357  2.8116 -0.7810  0.6574
  754MOL0     H 1740   3.601   1.241   1.492 -2.2437  0.4333 -1.2203
  754MOL0     H 1741   3.595   0.851   1.430  1.7918 -1.6503  0.1463
  754MOL0     H 1742   3.778   0.685   1.738  1.2497  0.0326  0.4769
  754MOL0     H 1743   3.629   0.642   1.642 -1.7987  3.9017  1.3459
  754MOL0     H 1744   3.779   0.517   1.527 -2.0497 -0.2270  0.2807
  754MOL0     H 1745   3.797   0.668   1.441  1.2047 -1.2339 -1.0184
  754MOL0     H 1746   3.988   0.524   1.631  2.0292  2.3006  2.0155
  754MOL0     H 1747   3.985   0.701   1.619  2.9238 -0.6439  0.4536
  754MOL0     H 1748   4.008   0.510   1.382 -1.0270 -1.6770  1.5673
  754MOL0     H 1749   4.149   0.583   1.470  0.7703  4.3233 -0.8769
  754MOL0     H 1750   4.298   0.681   1.307 -0.5484  0.0044 -1.2479
  754MOL0     H 1751   4.471   0.823   1.398 -0.3798  0.7815  1.1697
  754MOL0     H 1752   4.386   1.385   1.698  0.3656 -2.8087  0.1874
  754MOL0     H 1753   4.546   1.565   1.728  2.6226  0.4902 -1.1079
  754MOL0     H 1754   4.937   1.492   1.566  0.7754 -0.3811  0.5229
  754MOL0     H 1755   4.870   1.597   1.441 -0.2331 -5.4722 -0.7388
  754MOL0     H 1756   4.938   1.804   1.587 -0.5617 -0.2545 -0.5951
  754MOL0     H 1757   5.015   1.687   1.698  0.7645  0.4516 -0.2001
  754MOL0     H 1758   5.163   1.622   1.523 -3.8028 -2.7703 -2.7871
  754MOL0     H 1759   5.095   1.739   1.408 -1.7527  1.1007  0.6302
  754MOL0     H 1760   5.242   1.801   1.669 -3.2101  1.8283  1.5721
  754MOL0     H 1761   5.164   1.930   1.581 -0.8665  0.6033 -1.2026
  754MOL0     H 1762   5.298   1.841   1.363  0.2523  1.0882 -0.2426
  754MOL0     H 1763   5.390   1.745   1.483 -0.0642  0.9085  1.5626
  754MOL0     H 1764   5.346   2.043   1.485 -3.1685 -2.9754  2.4626
  754MOL0     H 1765   5.465   1.967   1.590 -1.8204 -3.3648  0.7436
  754MOL0     H 1766   5.487   2.042   1.302 -0.0517 -0.1945  0.1917
  754MOL0     H 1767   5.555   1.889   1.343  1.4830  0.7106  1.0150
  754MOL0     H 1768   5.662   2.016   1.542 -1.2952 -1.3513 -1.7686
  754MOL0     H 1769   5.710   2.104   1.382  0.6483 -0.0655 -0.5501
  754MOL0     H 1770   4.785   1.407   1.404 -0.3527  3.3656 -0.0054
  754MOL0     H 1771   4.613   1.233   1.371 -0.0153 -1.1730  0.2553
  754MOL0     H 1772   4.157   1.103   1.515  0.9010 -0.1422  0.7975
  754MOL0     H 1773   3.988   0.941   1.451 -0.9344 -2.3137  0.2956
  754MOL0     H 1774   2.603   0.997   1.072  2.6287 -0.9717 -0.7263
  754MOL0     H 1775   2.368   1.093   1.039 -2.1550  1.6684 -4.6820
  754MOL0     H 1776   1.972   1.178   1.014 -0.1206  0.9553 -1.0373
  754MOL0     H 1777   1.759   1.315   1.063  0.6118 -0.0441  0.4698
  754MOL0     H 1778   1.587   1.687   0.909  0.2282  3.7055 -0.4797
  754MOL0     H 1779   1.726   1.678   0.818 -3.1731  5.5482 -0.9967
  754MOL0     H 1780   1.871   1.769   1.015 -0.3917  0.9330 -0.3878
  754MOL0     H 1781   1.713   1.796   1.093  2.6626 -1.9373  2.5883
  754MOL0     H 1782   1.646   1.953   0.920 -0.1545 -1.9443 -2.6754
  754MOL0     H 1783   1.787   1.907   0.825 -0.5964 -2.0047 -0.2061
  754MOL0     H 1784   1.823   2.040   1.100 -0.3907  1.5739 -0.3881
  754MOL0     H 1785   1.951   1.999   0.979  0.2184  0.0244  1.1132
  754MOL0     H 1786   1.756   2.330   0.807 -1.0614 -0.8083 -0.5829
  754MOL0     H 1787   1.953   1.647   0.865  2.9095  0.6841  0.8204
  754MOL0     H 1788   2.266   1.571   0.870  0.0840  2.5458 -1.3942
  754MOL0     H 1789   2.212   1.471   0.732 -3.1088  0.0087 -2.1211
  754MOL0     H 1790   2.141   1.627   0.760  2.3615  1.3654 -0.1386
  755MOL0     O 1791  11.151   5.378   5.318  1.0541  0.8937 -0.3954
  755MOL0     C 1792  11.044   5.342   5.258 -0.2432 -0.4413 -0.1619
  755MOL0     O 1793  11.048   5.274   5.133 -0.1658 -0.0454  0.8117
  755MOL0     C 1794  11.173   5.253   5.081 -0.6189 -0.3907  1.3576
  755MOL0     C 1795  11.196   5.291   4.943 -0.3816  0.1736  0.4813
  755MOL0     C 1796  11.321   5.275   4.887  0.6822  0.1014  0.7338
  755MOL0     C 1797  11.421   5.211   4.956 -0.2971  0.3803  0.5028
  755MOL0     O 1798  11.550   5.200   4.893 -0.0129 -0.0011 -0.7246
  755MOL0     C 1799  11.655   5.125   4.955 -0.1832 -0.9026  0.4812
  755MOL0     C 1800  11.771   5.172   4.878 -0.5601 -0.4233  0.0494
  755MOL0     C 1801  11.905   5.105   4.913 -0.1191  1.2065  0.4498
  755MOL0     C 1802  12.013   5.144   4.813  0.7901  0.4523 -0.4638
  755MOL0     C 1803  12.146   5.094   4.868  0.2140 -0.2561 -0.6711
  755MOL0     C 1804  12.255   5.095   4.758  0.8401 -0.0122 -0.6263
  755MOL0     C 1805  12.383   5.032   4.819 -0.4062 -0.2968 -0.4845
  755MOL0     C 1806  12.483   4.988   4.717 -0.0771  0.5547 -0.4282
  755MOL0     N 1807  12.529   5.082   4.616 -0.3123 -0.6676 -0.2061
  755MOL0     C 1808  12.583   5.045   4.496  0.4384 -0.1139  0.5358
  755MOL0     C 1809  12.640   5.156   4.442 -0.2714  0.1967  0.0302
  755MOL0     C 1810  12.724   5.164   4.317 -0.2735 -0.7032  0.6365
  755MOL0     C 1811  12.874   5.197   4.326  0.4639  0.1431 -0.4290
  755MOL0     C 1812  12.953   5.127   4.211  0.3981 -0.0731  0.3716
  755MOL0     C 1813  13.093   5.167   4.206 -0.0494 -0.1221 -0.5185
  755MOL0     O 1814  13.182   5.066   4.248 -0.0409 -0.2260  0.4355
  755MOL0     C 1815  13.234   4.961   4.176  0.4024  0.4010  0.4097
  755MOL0     C 1816  13.234   4.950   4.035  0.5416 -0.3902 -0.1033
  755MOL0     C 1817  13.304   4.841   3.972  0.7760 -1.3274  0.3398
  755MOL0     C 1818  13.385   4.756   4.042 -0.1559  0.0284  0.2037
  755MOL0     C 1819  13.477   4.665   3.977  0.9632 -0.0930 -0.2624
  755MOL0     O 1820  13.455   4.652   3.849 -0.1376 -0.2676 -0.2775
  755MOL0     C 1821  13.550   4.601   3.767  0.4005  0.6677  0.1523
  755MOL0     C 1822  13.692   4.601   3.787  0.5003  0.0135  0.3239
  755MOL0     C 1823  13.780   4.547   3.682  0.8296 -0.6518  0.5066
  755MOL0     C 1824  13.730   4.503   3.557  0.0992 -0.9015 -1.5317
  755MOL0     O 1825  13.826   4.441   3.473  0.8894 -0.7080 -0.5753
  755MOL0     C 1826  13.778   4.400   3.339 -0.5463 -1.0931  0.0479
  755MOL0     C 1827  13.891   4.396   3.231 -0.1292 -0.6287 -0.6056
  755MOL0     C 1828  14.005   4.296   3.261 -0.3708  0.3017 -0.1140
  755MOL0     C 1829  14.117   4.304   3.145  0.0334  0.0415 -0.5027
  755MOL0     C 1830  14.078   4.220   3.018  0.1800  0.5507 -0.7448
  755MOL0     C 1831  14.183   4.216   2.909  0.2308 -0.2319  0.2928
  755MOL0     C 1832  14.199   4.355   2.849 -1.2100 -0.3199  0.5329
  755MOL0     C 1833  14.294   4.351   2.719 -0.6914  0.0917  0.1906
  755MOL0    Cl 1834  14.315   4.521   2.683 -0.0341  0.1754 -0.0474
  755MOL0     C 1835  13.590   4.489   3.546 -0.0521 -0.0402  0.1202
  755MOL0     C 1836  13.506   4.540   3.650 -0.0583 -0.9244  0.5344
  755MOL0     O 1837  13.559   4.595   4.044 -0.1923 -1.0985  0.4713
  755MOL0     C 1838  13.380   4.760   4.185  0.5137 -0.2543  0.2333
  755MOL0     C 1839  13.297   4.856   4.248 -0.3876  0.4199  0.4190
  755MOL0     N 1840  12.609   5.259   4.523  0.1328  0.2492  0.0277
  755MOL0     N 1841  12.559   5.211   4.630  0.5603  0.4794 -0.1539
  755MOL0     C 1842  11.404   5.173   5.090  0.1220 -0.3746 -0.4251
  755MOL0     C 1843  11.277   5.194   5.150  0.1833 -0.6820 -0.7552
  755MOL0     C 1844  10.909   5.367   5.326 -0.7422 -0.1690 -0.2616
  755MOL0     C 1845  10.797   5.332   5.253  0.7333 -0.0245 -0.0270
  755MOL0     C 1846  10.668   5.345   5.304  0.7213  0.3761 -0.1219
  755MOL0     C 1847  10.638   5.402   5.428 -0.0488 -0.0417  0.4944
  755MOL0     O 1848  10.504   5.400   5.457 -0.1977 -0.7126  0.0651
  755MOL0     C 1849  10.457   5.452   5.579  0.8571 -0.0508 -0.7916
  755MOL0     C 1850  10.303   5.449   5.579  0.1808  0.9042  0.2931
  755MOL0     C 1851  10.249   5.307   5.597  0.3682  0.7207  0.2074
  755MOL0     C 1852  10.249   5.230   5.466 -0.2822  0.4780 -0.5574
  755MOL0     C 1853  10.177   5.101   5.486 -0.2978  1.0753  0.4455
  755MOL0     C 1854  10.130   4.991   5.522 -0.1087  0.2090 -0.0687
  755MOL0     C 1855  10.751   5.429   5.506 -0.3318 -0.1838  1.0048
  755MOL0     C 1856  10.883   5.418   5.459 -1.3380  0.8183  0.1045
  755MOL0     C 1857  10.999   5.441   5.548 -0.4309 -0.8915 -0.0529
  755MOL0     H 1858  11.116   5.338   4.887 -0.1540  1.2732  1.0500
  755MOL0     H 1859  11.341   5.318   4.790 -0.1018 -0.5998  0.2491
  755MOL0     H 1860  11.672   5.144   5.061  1.7452 -3.6275  0.7667
  755MOL0     H 1861  11.644   5.018   4.935  0.2702 -1.0128  0.8114
  755MOL0     H 1862  11.779   5.279   4.900  1.5289 -0.1183 -1.8476
  755MOL0     H 1863  11.759   5.163   4.770  0.4639  1.3429 -0.2601
  755MOL0     H 1864  11.898   4.996   4.915 -0.3335  1.2178  0.3992
  755MOL0     H 1865  11.939   5.112   5.017  2.0765 -3.0357  0.2156
  755MOL0     H 1866  11.996   5.094   4.718  1.7642  0.2765 -0.5619
  755MOL0     H 1867  12.005   5.253   4.801 -0.8380  0.2644 -1.2585
  755MOL0     H 1868  12.169   5.147   4.960  0.4233 -0.5246 -0.5705
  755MOL0     H 1869  12.123   4.990   4.893  1.0379 -0.8574 -2.2776
  755MOL0     H 1870  12.217   5.039   4.672  1.2032  2.4460 -2.5132
  755MOL0     H 1871  12.270   5.199   4.726  0.5878  0.0202 -0.6388
  755MOL0     H 1872  12.349   4.950   4.883 -1.8482  0.1003 -0.7275
  755MOL0     H 1873  12.432   5.100   4.890 -0.7507 -0.6259  0.0744
  755MOL0     H 1874  12.573   4.951   4.769 -0.8682 -1.1053 -0.1675
  755MOL0     H 1875  12.433   4.903   4.669 -2.1902  1.7336 -0.4239
  755MOL0     H 1876  12.587   4.949   4.445 -0.2281 -0.7159  1.5762
  755MOL0     H 1877  12.719   5.063   4.277  2.3639  0.2610 -2.6645
  755MOL0     H 1878  12.666   5.231   4.253 -1.2277 -0.4281  1.7524
  755MOL0     H 1879  12.879   5.306   4.317  3.0006 -0.0043 -1.6835
  755MOL0     H 1880  12.899   5.170   4.429  0.5272 -0.8869 -0.6994
  755MOL0     H 1881  12.905   5.142   4.115 -0.4876 -1.7240  0.5154
  755MOL0     H 1882  12.955   5.018   4.225 -0.7549 -0.1915 -0.3545
  755MOL0     H 1883  13.102   5.263   4.257  0.3318 -1.0623  1.3012
  755MOL0     H 1884  13.117   5.195   4.103 -0.5180 -1.6533 -1.0795
  755MOL0     H 1885  13.186   5.028   3.977 -3.0088  0.4160  3.5189
  755MOL0     H 1886  13.287   4.843   3.864 -0.9940  1.1558  0.5643
  755MOL0     H 1887  13.726   4.642   3.882  1.4132  0.3564 -0.1442
  755MOL0     H 1888  13.888   4.551   3.692  0.9234 -0.1106 -0.5527
  755MOL0     H 1889  13.720   4.309   3.352 -1.6307 -0.0307  3.7536
  755MOL0     H 1890  13.702   4.470   3.304 -1.6090 -1.8472  0.8009
  755MOL0     H 1891  13.859   4.375   3.128  3.2780 -1.6735 -1.5606
  755MOL0     H 1892  13.941   4.493   3.223  2.6973 -1.9981 -0.7629
  755MOL0     H 1893  14.048   4.325   3.357  1.4036 -1.3270 -0.3524
  755MOL0     H 1894  13.973   4.191   3.261  0.5839  0.0008  0.6115
  755MOL0     H 1895  14.220   4.281   3.177 -0.5087 -0.0306  1.3003
  755MOL0     H 1896  14.109   4.409   3.117 -3.7326 -0.2371 -0.9560
  755MOL0     H 1897  13.990   4.265   2.972 -1.3879 -1.0600  0.5036
  755MOL0     H 1898  14.056   4.120   3.056  3.4363  1.2707  4.0056
  755MOL0     H 1899  14.276   4.175   2.948  1.6920  2.9357  0.4093
  755MOL0     H 1900  14.137   4.153   2.832  2.4009 -0.8187 -0.5875
  755MOL0     H 1901  14.239   4.430   2.918 -4.5776  1.9460  0.2274
  755MOL0     H 1902  14.101   4.392   2.817 -1.0139 -0.9280 -0.8241
  755MOL0     H 1903  14.384   4.296   2.749  0.4889 -0.4511 -3.8108
  755MOL0     H 1904  14.252   4.298   2.633  0.7439 -0.7008 -0.0696
  755MOL0     H 1905  13.547   4.438   3.460 -0.6531  1.5224 -0.5352
  755MOL0     H 1906  13.398   4.537   3.634 -0.2967 -1.8581  2.0761
  755MOL0     H 1907  13.439   4.697   4.251  2.9687 -1.1884 -2.6458
  755MOL0     H 1908  13.292   4.854   4.357  1.3727 -0.7698  0.5326
  755MOL0     H 1909  11.485   5.132   5.150  1.4239  3.0942  0.4221
  755MOL0     H 1910  11.253   5.164   5.251  0.3187 -0.1236 -0.5505
  755MOL0     H 1911  10.799   5.322   5.145  1.7968  1.0732 -0.1347
  755MOL0     H 1912  10.589   5.319   5.234 -0.5840 -1.2981  1.8780
  755MOL0     H 1913  10.483   5.558   5.591 -0.4350  0.1951  0.1179
  755MOL0     H 1914  10.504   5.398   5.662  1.2124 -1.4079 -1.8486
  755MOL0     H 1915  10.253   5.500   5.496 -0.2217  1.8407  1.0957
  755MOL0     H 1916  10.271   5.501   5.669 -0.4524 -1.2071  1.3466
  755MOL0     H 1917  10.149   5.320   5.638  0.8164  1.8168  1.0307
  755MOL0     H 1918  10.313   5.256   5.671 -1.5178 -1.4520  0.4378
  755MOL0     H 1919  10.204   5.289   5.386 -1.1079 -2.7706 -2.7062
  755MOL0     H 1920  10.354   5.207   5.444  0.2553 -0.3897  2.5319
  755MOL0     H 1921  10.086   4.894   5.540  1.1589 -0.8326 -2.2309
  755MOL0     H 1922  10.738   5.470   5.605  2.6010  0.7954  1.0815
  755MOL0     H 1923  10.961   5.470   5.647  1.4077  0.6331  0.2719
  755MOL0     H 1924  11.060   5.353   5.565  0.5378 -0.4787 -1.2556
  755MOL0     H 1925  11.066   5.519   5.511  0.1214 -1.9080 -1.2252
  756MOL0     O 1926   4.433   8.143  10.031  0.0093  0.1921 -0.0603
  756MOL0     C 1927   4.335   8.195  10.081  0.4088  0.0940 -0.9874
  756MOL0     O 1928   4.328   8.326  10.126 -1.0604  0.7020 -0.2645
  756MOL0     C 1929   4.437   8.405  10.133  0.0984  0.2921 -0.0774
  756MOL0     C 1930   4.577   8.367  10.131 -0.5987  0.0213  0.1252
  756MOL0     C 1931   4.672   8.467  10.135 -0.3013  0.5935 -0.1298
  756MOL0     C 1932   4.646   8.603  10.156  0.4460  0.4729  0.7033
  756MOL0     O 1933   4.758   8.680  10.140  0.0691 -0.0094  0.2126
  756MOL0     C 1934   4.755   8.816  10.196 -0.4846  0.8817  0.2500
  756MOL0     C 1935   4.785   8.793  10.345 -0.3537 -0.5604 -0.6600
  756MOL0     C 1936   4.932   8.771  10.371 -0.0543  0.7038  0.0265
  756MOL0     C 1937   4.952   8.741  10.518 -0.1856  0.6161  1.2928
  756MOL0     C 1938   5.102   8.740  10.549  0.4705 -0.5699  0.0526
  756MOL0     C 1939   5.125   8.702  10.693  0.1005  0.4476  0.6972
  756MOL0     C 1940   5.277   8.723  10.732 -0.6075  0.5682 -0.0559
  756MOL0     C 1941   5.309   8.693  10.884  1.0323 -0.9861  0.3974
  756MOL0     N 1942   5.451   8.682  10.924 -0.7290  0.4015  0.5323
  756MOL0     C 1943   5.553   8.616  10.854  0.0831 -0.1870 -1.3465
  756MOL0     C 1944   5.667   8.630  10.923  0.1694 -0.2640  0.3389
  756MOL0     C 1945   5.812   8.584  10.890  0.0287 -0.4558  0.1586
  756MOL0     C 1946   5.828   8.445  10.960  0.6054 -0.7129 -0.1354
  756MOL0     C 1947   5.964   8.371  10.944  0.0193 -0.4229 -0.3332
  756MOL0     C 1948   5.955   8.243  11.020  0.4821 -1.4906  0.3288
  756MOL0     O 1949   5.894   8.150  10.932 -0.2635  0.5498  0.5558
  756MOL0     C 1950   5.949   8.029  10.925  0.0904 -0.6116  0.0282
  756MOL0     C 1951   5.874   7.915  10.888 -0.5593 -0.0925  0.0406
  756MOL0     C 1952   5.925   7.786  10.867  1.4407  0.1979  0.0079
  756MOL0     C 1953   6.059   7.771  10.867 -0.3383 -0.5829  0.8047
  756MOL0     C 1954   6.124   7.639  10.839  0.1061  0.4091 -0.4697
  756MOL0     O 1955   6.261   7.631  10.853  0.2548  0.4342 -0.2763
  756MOL0     C 1956   6.342   7.524  10.821 -0.2217  0.0928  0.4302
  756MOL0     C 1957   6.473   7.533  10.861 -0.5782  0.0343 -0.8439
  756MOL0     C 1958   6.569   7.432  10.825  0.7193 -0.8736  0.4787
  756MOL0     C 1959   6.537   7.324  10.750  0.4522  0.1529  1.7070
  756MOL0     O 1960   6.612   7.216  10.705  0.2854 -0.1713 -0.0325
  756MOL0     C 1961   6.753   7.220  10.758 -0.7840 -0.3565  1.2854
  756MOL0     C 1962   6.809   7.075  10.726 -0.5407 -0.6475  0.5755
  756MOL0     C 1963   6.964   7.081  10.720 -0.2722  0.3838 -0.0983
  756MOL0     C 1964   7.005   6.934  10.722 -0.0896 -0.1918  0.8296
  756MOL0     C 1965   7.148   6.929  10.667  1.3002 -1.0296 -0.5208
  756MOL0     C 1966   7.201   6.794  10.682 -0.6610 -0.8686 -0.5399
  756MOL0     C 1967   7.343   6.784  10.620  0.5692  0.3198 -0.7707
  756MOL0     C 1968   7.420   6.658  10.662  0.3352  0.3668  0.0861
  756MOL0    Cl 1969   7.577   6.690  10.580 -0.1171  0.5460  0.0260
  756MOL0     C 1970   6.400   7.306  10.719 -0.1524  0.6480  0.1791
  756MOL0     C 1971   6.304   7.405  10.744  0.1431  0.3243 -0.5108
  756MOL0     O 1972   6.052   7.543  10.816 -0.1433 -0.1777  0.0906
  756MOL0     C 1973   6.147   7.880  10.890 -0.0287  0.1324  0.5762
  756MOL0     C 1974   6.085   8.007  10.922 -0.3568 -0.0969  0.0453
  756MOL0     N 1975   5.645   8.709  11.035  0.4228 -0.5873 -0.4400
  756MOL0     N 1976   5.513   8.748  11.029 -1.0552  0.6291  0.1439
  756MOL0     C 1977   4.512   8.638  10.169 -0.2894 -0.1189  0.0547
  756MOL0     C 1978   4.407   8.543  10.154 -0.7630  0.9710  1.2311
  756MOL0     C 1979   4.194   8.127  10.064 -0.8941 -0.3960 -0.1792
  756MOL0     C 1980   4.083   8.209  10.065  0.6916  0.2749 -0.4571
  756MOL0     C 1981   3.952   8.163  10.046  0.4791  0.6410 -0.4237
  756MOL0     C 1982   3.927   8.027  10.021 -0.9476 -0.4528 -0.1380
  756MOL0     O 1983   3.802   7.973   9.989 -0.1512  0.7309  0.4684
  756MOL0     C 1984   3.690   8.046  10.032  0.3919 -0.8463  0.5733
  756MOL0     C 1985   3.572   7.947  10.000  0.2454  0.2261 -0.4329
  756MOL0     C 1986   3.430   7.986  10.055  0.2236 -0.8949 -0.1062
  756MOL0     C 1987   3.312   7.918   9.977 -0.4789 -0.1349 -0.0184
  756MOL0     C 1988   3.194   7.936  10.064  0.0114  0.0141 -0.8080
  756MOL0     C 1989   3.104   7.952  10.142  0.2388 -0.1277  0.7135
  756MOL0     C 1990   4.039   7.943  10.025 -0.2013  0.1531  0.3576
  756MOL0     C 1991   4.170   7.995  10.041  0.5220  0.5529  0.2127
  756MOL0     C 1992   4.287   7.893  10.047  0.7983  0.9689  0.1443
  756MOL0     H 1993   4.611   8.265  10.115 -1.1464 -0.3582  1.2618
  756MOL0     H 1994   4.775   8.442  10.110 -0.5197  0.5554 -1.0208
  756MOL0     H 1995   4.830   8.875  10.142 -0.5735  0.3358 -0.4764
  756MOL0     H 1996   4.658   8.867  10.201 -1.4309 -0.4695 -2.5005
  756MOL0     H 1997   4.720   8.715  10.385 -3.3048  0.5766 -2.8779
  756MOL0     H 1998   4.756   8.886  10.394 -1.8996 -0.6062 -1.4028
  756MOL0     H 1999   4.984   8.856  10.326  0.8625 -1.5088 -3.4173
  756MOL0     H 2000   4.945   8.681  10.311 -1.4277 -0.4918  1.4239
  756MOL0     H 2001   4.902   8.815  10.582  1.7217  0.4359  3.1347
  756MOL0     H 2002   4.906   8.645  10.541 -1.4807  0.7171 -0.6482
  756MOL0     H 2003   5.152   8.671  10.480  0.0232  0.6714 -1.5556
  756MOL0     H 2004   5.135   8.843  10.534 -4.4602  0.9057 -2.7687
  756MOL0     H 2005   5.069   8.752  10.773 -0.0590 -2.3624  2.4833
  756MOL0     H 2006   5.097   8.596  10.705 -3.2833  1.1277 -0.0469
  756MOL0     H 2007   5.314   8.823  10.705 -2.4243  1.1426 -0.6187
  756MOL0     H 2008   5.329   8.656  10.664  1.5853 -0.1983  2.2428
  756MOL0     H 2009   5.270   8.769  10.953 -0.7617 -0.9112 -0.6490
  756MOL0     H 2010   5.271   8.593  10.904  2.6872 -2.1137 -1.6983
  756MOL0     H 2011   5.542   8.563  10.759  0.6554 -1.0934 -0.9099
  756MOL0     H 2012   5.828   8.592  10.782 -1.0233  1.5372  0.1018
  756MOL0     H 2013   5.897   8.641  10.930  3.2123 -4.5992  0.0004
  756MOL0     H 2014   5.801   8.452  11.065  0.0298 -0.0107 -0.3210
  756MOL0     H 2015   5.753   8.375  10.921  0.3630 -0.6353  0.1879
  756MOL0     H 2016   6.046   8.435  10.978 -2.0144  0.7483  2.8074
  756MOL0     H 2017   5.980   8.340  10.840 -2.0535 -2.8051 -0.0345
  756MOL0     H 2018   5.894   8.257  11.110  0.8544 -1.6079  0.6077
  756MOL0     H 2019   6.058   8.217  11.049  0.8072 -0.8982 -0.2726
  756MOL0     H 2020   5.766   7.908  10.881 -0.7044  2.1940 -0.7127
  756MOL0     H 2021   5.861   7.699  10.856  1.8287 -0.1119  0.1658
  756MOL0     H 2022   6.504   7.623  10.913  0.5833 -1.3400  0.9725
  756MOL0     H 2023   6.670   7.446  10.863  0.3041  2.5037  0.6350
  756MOL0     H 2024   6.813   7.299  10.712  1.1015 -0.3361  3.5962
  756MOL0     H 2025   6.760   7.232  10.866 -0.4967 -0.0358  1.2317
  756MOL0     H 2026   6.780   7.008  10.808 -0.8746 -1.7093 -0.3831
  756MOL0     H 2027   6.770   7.027  10.636 -1.2078 -1.6050  1.3529
  756MOL0     H 2028   7.007   7.135  10.635  1.7458 -0.2881  0.4594
  756MOL0     H 2029   7.012   7.147  10.792 -0.8710  0.8464 -0.1120
  756MOL0     H 2030   6.938   6.869  10.664  2.2762 -2.5770  0.5958
  756MOL0     H 2031   7.004   6.893  10.824 -3.7290 -1.2760  0.5212
  756MOL0     H 2032   7.198   6.991  10.741 -2.2524 -1.6185  2.7045
  756MOL0     H 2033   7.151   6.964  10.563 -1.3917 -4.7990 -2.1421
  756MOL0     H 2034   7.205   6.759  10.785  1.3274 -4.5421 -1.6984
  756MOL0     H 2035   7.140   6.722  10.627 -2.3015  0.7636 -0.9590
  756MOL0     H 2036   7.400   6.873  10.648  0.5548  0.2458 -0.5082
  756MOL0     H 2037   7.328   6.789  10.511  0.4739  6.2156 -0.8273
  756MOL0     H 2038   7.450   6.643  10.766  0.6377 -1.5675 -0.2282
  756MOL0     H 2039   7.363   6.571  10.628 -0.4768  1.8135 -2.5324
  756MOL0     H 2040   6.372   7.225  10.652 -1.3701  2.3361 -1.4708
  756MOL0     H 2041   6.206   7.380  10.707  0.3553 -1.9495  0.3134
  756MOL0     H 2042   6.256   7.876  10.890  0.1270  2.0735 -1.5589
  756MOL0     H 2043   6.154   8.087  10.944 -0.4850 -0.8769  3.8800
  756MOL0     H 2044   4.470   8.738  10.182 -2.5548 -0.6797 -2.1233
  756MOL0     H 2045   4.301   8.552  10.175 -0.4449  1.1559  2.9053
  756MOL0     H 2046   4.086   8.315  10.091 -3.3244  0.1917  1.1009
  756MOL0     H 2047   3.866   8.228  10.050 -1.1657 -1.4866  0.5898
  756MOL0     H 2048   3.688   8.143   9.982  3.2155 -0.7605  0.4597
  756MOL0     H 2049   3.703   8.062  10.140 -0.2467  2.4722  0.2691
  756MOL0     H 2050   3.592   7.852  10.050 -0.0027  0.8463  0.8951
  756MOL0     H 2051   3.564   7.940   9.891  0.9235 -2.1832 -0.3700
  756MOL0     H 2052   3.418   8.094  10.044  2.0524 -0.5997  0.4805
  756MOL0     H 2053   3.422   7.961  10.162 -1.7923 -0.8762 -0.2142
  756MOL0     H 2054   3.302   7.971   9.882  1.8145  0.7030  0.1683
  756MOL0     H 2055   3.340   7.814   9.958 -1.5132 -0.4737  0.2275
  756MOL0     H 2056   3.011   7.957  10.194  0.7293 -2.5117  1.9724
  756MOL0     H 2057   4.015   7.837  10.020 -0.4080  0.0622  2.4824
  756MOL0     H 2058   4.337   7.886   9.950  0.8158  1.9279  0.0766
  756MOL0     H 2059   4.358   7.920  10.125  2.1401  3.3097 -1.7765
  756MOL0     H 2060   4.247   7.791  10.059  0.6160  1.2631  2.5664
  757MOL0     O 2061   5.992   0.507   1.027  0.2418 -0.4903 -0.0513
  757MOL0     C 2062   5.952   0.443   0.933 -0.5255  0.1799 -0.3901
  757MOL0     O 2063   6.034   0.375   0.843 -0.3799  0.4608  0.5423
  757MOL0     C 2064   6.169   0.362   0.866  1.1410  0.5055  0.0737
  757MOL0     C 2065   6.242   0.427   0.766 -0.4482 -0.0227  0.2532
  757MOL0     C 2066   6.382   0.417   0.774 -0.8042 -0.3444  0.5608
  757MOL0     C 2067   6.445   0.350   0.871 -0.0967  0.2617 -0.3604
  757MOL0     O 2068   6.583   0.332   0.864  0.4349 -0.5648  0.7176
  757MOL0     C 2069   6.655   0.337   0.987 -0.1971 -0.2006 -0.1744
  757MOL0     C 2070   6.809   0.335   0.979 -0.1908  0.5049 -0.0286
  757MOL0     C 2071   6.856   0.414   0.854  0.3170  0.7320  0.0110
  757MOL0     C 2072   7.003   0.459   0.863 -0.1934  0.1505  0.1727
  757MOL0     C 2073   7.040   0.527   0.726  0.8527  0.8446 -0.5219
  757MOL0     C 2074   7.119   0.659   0.740 -0.6778  0.2471 -0.5488
  757MOL0     C 2075   7.258   0.629   0.801  0.8041 -0.7572  0.5113
  757MOL0     C 2076   7.339   0.530   0.724  0.0607 -0.5056  0.2266
  757MOL0     N 2077   7.462   0.486   0.795 -0.9114 -0.4450  0.3489
  757MOL0     C 2078   7.587   0.542   0.783 -0.4008 -0.1767 -0.9029
  757MOL0     C 2079   7.668   0.479   0.866 -1.0862  0.0723 -0.4945
  757MOL0     C 2080   7.826   0.500   0.878  0.4998  0.4819 -0.1208
  757MOL0     C 2081   7.897   0.464   0.751  0.8590  0.5049  0.1977
  757MOL0     C 2082   8.043   0.458   0.762  0.3066  0.3410 -0.5862
  757MOL0     C 2083   8.096   0.367   0.646  0.8390 -0.3286  0.0231
  757MOL0     O 2084   8.229   0.350   0.663 -0.0333 -0.4931  0.4809
  757MOL0     C 2085   8.319   0.363   0.557  0.1066  1.1522  0.1136
  757MOL0     C 2086   8.296   0.401   0.429 -0.7472 -0.2998 -0.4854
  757MOL0     C 2087   8.395   0.438   0.342 -0.7674 -0.0093 -0.6533
  757MOL0     C 2088   8.530   0.411   0.374 -0.2200 -0.6079 -0.1681
  757MOL0     C 2089   8.643   0.418   0.276  0.1713 -0.3515  0.4098
  757MOL0     O 2090   8.767   0.417   0.330 -0.1354  0.1934  0.2266
  757MOL0     C 2091   8.879   0.435   0.252  0.6427  0.7025 -0.7561
  757MOL0     C 2092   8.892   0.552   0.182 -0.2242 -0.7023  0.1069
  757MOL0     C 2093   9.001   0.568   0.100  0.7077  0.2125 -0.1552
  757MOL0     C 2094   9.104   0.468   0.105 -0.0083  0.4560 -0.2649
  757MOL0     O 2095   9.216   0.487   0.028 -0.8184 -0.0552  0.7650
  757MOL0     C 2096   9.346   0.492   0.094 -0.1716 -0.0112  0.7069
  757MOL0     C 2097   9.437   0.600   0.038 -0.0474  0.4010 -0.3666
  757MOL0     C 2098   9.570   0.610   0.115  0.3855  1.1727 -0.6052
  757MOL0     C 2099   9.698   0.564   0.042 -0.6859 -0.5224  0.3918
  757MOL0     C 2100   9.838   0.574   0.104 -0.2435  1.0869 -0.5580
  757MOL0     C 2101   9.886   0.712   0.141 -0.1578  0.1990 -0.2522
  757MOL0     C 2102  10.022   0.700   0.214 -0.8931  0.5621  0.3500
  757MOL0     C 2103  10.069   0.840   0.273  0.3064  0.8566 -0.6803
  757MOL0    Cl 2104  10.247   0.838   0.324  0.2132 -0.1009  0.7420
  757MOL0     C 2105   9.086   0.348   0.180 -0.5161 -0.0073  1.2642
  757MOL0     C 2106   8.968   0.334   0.248  0.9688  0.8299  0.7708
  757MOL0     O 2107   8.619   0.419   0.154  0.0946 -0.2207 -0.3329
  757MOL0     C 2108   8.557   0.360   0.503 -0.5226  0.7990  0.4252
  757MOL0     C 2109   8.449   0.335   0.592 -0.7445 -0.3039  0.1847
  757MOL0     N 2110   7.598   0.375   0.921  0.2955 -0.0732 -0.3188
  757MOL0     N 2111   7.478   0.379   0.871 -0.3473 -0.3733  0.6266
  757MOL0     C 2112   6.366   0.292   0.982 -0.5426 -0.1868 -0.3285
  757MOL0     C 2113   6.224   0.302   0.975 -0.0126 -0.2537 -0.3876
  757MOL0     C 2114   5.810   0.459   0.893  0.3737  0.1450  0.2538
  757MOL0     C 2115   5.718   0.370   0.950  0.2155  0.3844  0.4000
  757MOL0     C 2116   5.576   0.398   0.939 -0.6633  0.8583  0.5986
  757MOL0     C 2117   5.533   0.509   0.862  0.0453  0.2005 -0.7041
  757MOL0     O 2118   5.400   0.543   0.845 -0.6251  0.5639 -0.1876
  757MOL0     C 2119   5.294   0.445   0.862 -0.1043 -0.3673  0.0860
  757MOL0     C 2120   5.161   0.484   0.805 -0.2664 -0.6067  0.0506
  757MOL0     C 2121   5.050   0.378   0.829  0.4885  0.5804 -0.6742
  757MOL0     C 2122   4.928   0.426   0.746  0.2835  0.5347  0.1573
  757MOL0     C 2123   4.808   0.366   0.792 -0.4687 -0.1655 -0.2787
  757MOL0     C 2124   4.696   0.317   0.820 -1.1976 -0.7488 -0.6368
  757MOL0     C 2125   5.631   0.591   0.794  0.2793 -0.2293 -0.6791
  757MOL0     C 2126   5.769   0.573   0.815  0.8704  0.3213  0.5012
  757MOL0     C 2127   5.859   0.665   0.741  0.0283 -0.4287 -0.2327
  757MOL0     H 2128   6.179   0.478   0.694 -2.2328  2.0845  3.0840
  757MOL0     H 2129   6.433   0.466   0.691 -2.4118 -0.3054 -0.4521
  757MOL0     H 2130   6.624   0.424   1.046  2.8241 -0.1564  1.5662
  757MOL0     H 2131   6.627   0.249   1.045 -0.9259 -1.0257 -1.7143
  757MOL0     H 2132   6.853   0.235   0.975  2.4391  1.5953 -0.8210
  757MOL0     H 2133   6.828   0.385   1.075 -1.2481  0.1508  0.3720
  757MOL0     H 2134   6.794   0.500   0.827 -0.7137 -0.1884 -0.6729
  757MOL0     H 2135   6.839   0.343   0.772 -0.2705  0.4592  0.3603
  757MOL0     H 2136   7.002   0.529   0.947 -0.5141  0.6803 -0.2639
  757MOL0     H 2137   7.068   0.374   0.884 -0.1049  0.0390 -0.5103
  757MOL0     H 2138   7.097   0.452   0.670 -0.7298 -2.1281  1.5742
  757MOL0     H 2139   6.948   0.545   0.670 -0.1793 -2.1935  0.0055
  757MOL0     H 2140   7.130   0.704   0.641 -1.9496 -2.2247 -1.9041
  757MOL0     H 2141   7.059   0.729   0.800 -2.2292 -0.9394 -0.6492
  757MOL0     H 2142   7.244   0.600   0.905 -0.7563  1.4854  1.0090
  757MOL0     H 2143   7.319   0.720   0.799 -0.0283 -0.1039  2.3522
  757MOL0     H 2144   7.279   0.440   0.707 -2.4453  1.2611 -0.7433
  757MOL0     H 2145   7.370   0.575   0.629  2.1896 -1.0197  0.6218
  757MOL0     H 2146   7.620   0.604   0.701 -0.8599  1.1135 -0.1385
  757MOL0     H 2147   7.849   0.605   0.901  0.4143  0.4368  0.1769
  757MOL0     H 2148   7.851   0.439   0.965 -0.6760 -1.1180 -0.8641
  757MOL0     H 2149   7.857   0.364   0.730  0.3412  0.1553  2.5188
  757MOL0     H 2150   7.855   0.537   0.682 -2.3049 -0.0799  1.3364
  757MOL0     H 2151   8.068   0.411   0.858 -1.7596 -3.6488 -1.7792
  757MOL0     H 2152   8.088   0.557   0.754  0.7579  0.0531 -1.7152
  757MOL0     H 2153   8.057   0.417   0.557  0.7246 -0.4889 -0.0168
  757MOL0     H 2154   8.048   0.270   0.660 -1.2935  0.6092 -0.3302
  757MOL0     H 2155   8.191   0.418   0.406 -1.2748 -3.2028 -0.6198
  757MOL0     H 2156   8.395   0.481   0.242  2.3761 -1.1582 -1.2769
  757MOL0     H 2157   8.816   0.630   0.186 -0.8861 -1.2089 -1.5036
  757MOL0     H 2158   9.018   0.654   0.037 -1.9727  1.8070  1.1208
  757MOL0     H 2159   9.342   0.514   0.201  0.8806  2.0445  0.3593
  757MOL0     H 2160   9.392   0.394   0.079 -2.7930 -1.4307  1.3221
  757MOL0     H 2161   9.452   0.585  -0.070 -1.3240  0.8976 -0.6321
  757MOL0     H 2162   9.390   0.699   0.044 -1.0462 -0.1036  0.2105
  757MOL0     H 2163   9.577   0.714   0.149  0.7227  1.3708 -1.2774
  757MOL0     H 2164   9.552   0.562   0.212  0.4416  1.2658 -0.5487
  757MOL0     H 2165   9.711   0.625  -0.047 -1.4580 -2.1751 -0.9146
  757MOL0     H 2166   9.687   0.458   0.016 -1.2282 -1.2055  3.0262
  757MOL0     H 2167   9.910   0.533   0.032 -0.9429  0.6897 -1.0444
  757MOL0     H 2168   9.840   0.505   0.189 -1.0052  1.1854 -0.4531
  757MOL0     H 2169   9.901   0.760   0.045 -0.7205  1.1540  0.1248
  757MOL0     H 2170   9.802   0.764   0.189 -0.1494  1.3477 -1.4490
  757MOL0     H 2171  10.104   0.671   0.147 -1.0412 -0.6128  0.6534
  757MOL0     H 2172  10.002   0.632   0.297  3.7321  1.3060  2.3777
  757MOL0     H 2173  10.060   0.918   0.196  1.1062  3.6687  1.9122
  757MOL0     H 2174  10.006   0.870   0.357  1.9599  0.6498  0.6854
  757MOL0     H 2175   9.161   0.269   0.173  0.8321  1.3942 -1.6962
  757MOL0     H 2176   8.942   0.248   0.309  0.1141 -1.3946 -2.4449
  757MOL0     H 2177   8.657   0.348   0.542 -0.8991  0.1182  1.2212
  757MOL0     H 2178   8.461   0.298   0.693  1.3776 -0.4504 -0.0757
  757MOL0     H 2179   6.405   0.235   1.066 -2.4911 -2.8960 -1.1438
  757MOL0     H 2180   6.168   0.268   1.062  0.8245 -2.2904 -0.5775
  757MOL0     H 2181   5.746   0.287   1.015  0.8819  0.5545  0.3328
  757MOL0     H 2182   5.525   0.321   0.997  1.6933 -0.6878  0.7799
  757MOL0     H 2183   5.281   0.427   0.970  1.8538 -3.1454 -0.0265
  757MOL0     H 2184   5.332   0.356   0.812  3.3827  2.0963 -2.0682
  757MOL0     H 2185   5.178   0.499   0.698  0.0035 -0.8083  0.0655
  757MOL0     H 2186   5.133   0.584   0.840  0.6825  1.1431 -3.6699
  757MOL0     H 2187   5.022   0.375   0.935 -3.5486 -0.9312 -1.6213
  757MOL0     H 2188   5.074   0.275   0.804  0.3769 -1.2663  5.2570
  757MOL0     H 2189   4.912   0.532   0.768  0.1600  0.0600  2.6438
  757MOL0     H 2190   4.938   0.398   0.640 -1.0790 -1.9259  0.5993
  757MOL0     H 2191   4.602   0.267   0.829 -1.5487  0.1484  0.9368
  757MOL0     H 2192   5.591   0.682   0.752  0.3467  0.2832  0.3421
  757MOL0     H 2193   5.902   0.624   0.649  2.8140  2.8556 -0.6101
  757MOL0     H 2194   5.802   0.750   0.702 -1.8899 -1.3440  0.4149
  757MOL0     H 2195   5.943   0.704   0.799  1.5457 -0.6238 -2.1744
  758MOL0     O 2196   2.977   7.441   4.304 -0.3773 -0.7244 -0.3501
  758MOL0     C 2197   2.948   7.414   4.416  0.3289 -0.9473  1.1028
  758MOL0     O 2198   3.037   7.389   4.521 -0.2265  0.7412  0.0073
  758MOL0     C 2199   3.148   7.303   4.493  0.1067  0.8650 -0.2555
  758MOL0     C 2200   3.278   7.353   4.508 -0.1008  1.3991 -0.9311
  758MOL0     C 2201   3.390   7.269   4.472  0.5995  0.6317  0.8020
  758MOL0     C 2202   3.369   7.136   4.442  0.3525  0.3132 -0.0098
  758MOL0     O 2203   3.478   7.051   4.410  1.4033  0.0973  0.0792
  758MOL0     C 2204   3.601   7.122   4.382 -0.7213  0.1052  0.2888
  758MOL0     C 2205   3.712   7.035   4.323 -0.2593 -0.2128  0.3168
  758MOL0     C 2206   3.745   6.914   4.418 -0.0503  0.1300  0.1215
  758MOL0     C 2207   3.808   6.806   4.333  0.8027  0.8671 -0.9677
  758MOL0     C 2208   3.697   6.712   4.277 -0.1643 -0.4447  0.9410
  758MOL0     C 2209   3.766   6.584   4.227 -0.0218 -0.1912 -0.6487
  758MOL0     C 2210   3.673   6.487   4.151 -0.2455 -0.1570  0.9287
  758MOL0     C 2211   3.543   6.444   4.213  0.0071  0.0946  0.3867
  758MOL0     N 2212   3.446   6.362   4.128 -0.0240  0.0833  0.3886
  758MOL0     C 2213   3.429   6.224   4.116 -0.2096  0.5356 -0.1385
  758MOL0     C 2214   3.347   6.208   4.016  0.5743 -0.3668 -0.5025
  758MOL0     C 2215   3.297   6.073   3.955 -0.6618  0.6665 -0.0264
  758MOL0     C 2216   3.400   6.000   3.861 -0.4336 -0.5954  0.9592
  758MOL0     C 2217   3.543   6.066   3.846 -0.0242  0.2562 -0.8423
  758MOL0     C 2218   3.618   5.986   3.737 -0.6720  0.5128 -1.4204
  758MOL0     O 2219   3.754   6.032   3.750 -0.2649  0.2118 -0.5172
  758MOL0     C 2220   3.832   5.954   3.836  0.0249  0.2191 -0.1181
  758MOL0     C 2221   3.972   5.971   3.832 -0.2914 -0.1629 -0.4703
  758MOL0     C 2222   4.066   5.894   3.906 -0.7136  0.2691 -0.5806
  758MOL0     C 2223   4.022   5.801   4.008  0.1046  0.5982  0.4876
  758MOL0     C 2224   4.115   5.730   4.096  0.4382 -0.0569  0.6477
  758MOL0     O 2225   4.068   5.701   4.224  0.5823  0.5183 -0.1054
  758MOL0     C 2226   4.157   5.641   4.314  0.8053 -0.2545 -0.1636
  758MOL0     C 2227   4.205   5.510   4.301 -0.6952 -0.6190  0.1686
  758MOL0     C 2228   4.290   5.448   4.401 -0.3739  0.4116  0.8809
  758MOL0     C 2229   4.331   5.518   4.512  0.0161 -0.0334 -0.1329
  758MOL0     O 2230   4.402   5.472   4.612 -0.1105  0.3004 -0.4752
  758MOL0     C 2231   4.441   5.340   4.608 -0.3722  0.6734 -0.3760
  758MOL0     C 2232   4.517   5.319   4.732 -0.0872 -0.4610 -0.4406
  758MOL0     C 2233   4.651   5.402   4.742  0.8606 -0.0642 -0.1591
  758MOL0     C 2234   4.721   5.343   4.861 -0.1370 -0.0293 -0.7499
  758MOL0     C 2235   4.847   5.409   4.908  0.1979 -0.7061 -0.5286
  758MOL0     C 2236   4.958   5.349   4.827 -0.2991  0.0473 -0.0823
  758MOL0     C 2237   5.102   5.391   4.868 -0.4354  0.1463 -0.7651
  758MOL0     C 2238   5.141   5.323   4.998 -0.1368  0.5222 -1.2348
  758MOL0    Cl 2239   5.312   5.342   5.040 -0.1426  0.1895 -0.4294
  758MOL0     C 2240   4.278   5.648   4.529  0.1693 -0.5887  0.1750
  758MOL0     C 2241   4.185   5.705   4.440  0.8421  0.3366  0.1628
  758MOL0     O 2242   4.220   5.697   4.043  0.2412  0.3062  0.5246
  758MOL0     C 2243   3.886   5.786   4.017  0.2776  0.4230  0.1965
  758MOL0     C 2244   3.794   5.852   3.926  0.1216  0.4549  0.5226
  758MOL0     N 2245   3.308   6.330   3.972 -0.3231  0.5660  0.0711
  758MOL0     N 2246   3.368   6.430   4.042  0.3237 -0.1158 -0.1559
  758MOL0     C 2247   3.243   7.081   4.460  1.2630  0.0877 -1.0197
  758MOL0     C 2248   3.125   7.165   4.479  0.2465  0.1499 -1.1040
  758MOL0     C 2249   2.800   7.414   4.460 -0.4253  1.3548 -0.6037
  758MOL0     C 2250   2.705   7.461   4.365  0.0438  0.2358 -0.2220
  758MOL0     C 2251   2.570   7.450   4.391 -0.1287  0.5346  0.7023
  758MOL0     C 2252   2.527   7.405   4.505 -0.8173 -0.4668 -0.1848
  758MOL0     O 2253   2.399   7.375   4.530  0.9550 -0.2746 -0.3102
  758MOL0     C 2254   2.287   7.445   4.470  0.0861 -0.4605 -0.0732
  758MOL0     C 2255   2.287   7.595   4.495 -0.0859 -0.1665 -0.4304
  758MOL0     C 2256   2.320   7.632   4.641  0.5729 -0.7485 -0.4608
  758MOL0     C 2257   2.315   7.786   4.654 -0.3974  0.2026  0.3005
  758MOL0     C 2258   2.434   7.855   4.607  1.4734  0.9276 -0.6037
  758MOL0     C 2259   2.519   7.929   4.568  0.7882 -0.3585 -1.5209
  758MOL0     C 2260   2.612   7.372   4.611 -0.2763  0.0385 -0.2201
  758MOL0     C 2261   2.747   7.371   4.591 -0.5455  0.7097  1.1898
  758MOL0     C 2262   2.836   7.323   4.705  0.2712  0.0146  0.3660
  758MOL0     H 2263   3.287   7.457   4.534 -0.4226  1.1254  0.3267
  758MOL0     H 2264   3.493   7.301   4.483  0.5099  0.8301  1.0575
  758MOL0     H 2265   3.585   7.198   4.306  2.3131  1.5510  0.9514
  758MOL0     H 2266   3.647   7.161   4.473  2.7250 -0.9497 -0.8536
  758MOL0     H 2267   3.806   7.090   4.311  0.0636 -0.4634  1.5540
  758MOL0     H 2268   3.674   7.003   4.225  0.2006  0.4916 -0.1056
  758MOL0     H 2269   3.654   6.876   4.467 -0.8297  2.2524  0.4547
  758MOL0     H 2270   3.813   6.947   4.497  0.0578 -1.9595  0.9689
  758MOL0     H 2271   3.863   6.842   4.246 -1.2766 -0.8906 -3.1614
  758MOL0     H 2272   3.865   6.746   4.404 -2.2794 -0.7172  0.3795
  758MOL0     H 2273   3.621   6.689   4.352 -3.0737  0.7199 -1.4514
  758MOL0     H 2274   3.642   6.762   4.196  1.1167  0.3150  0.5003
  758MOL0     H 2275   3.851   6.592   4.159 -0.8013 -2.0615 -1.9380
  758MOL0     H 2276   3.806   6.527   4.312  0.8442  0.0355 -0.8981
  758MOL0     H 2277   3.725   6.398   4.116 -0.2607  0.3427 -0.4137
  758MOL0     H 2278   3.645   6.524   4.052  3.7313 -1.8956 -1.1046
  758MOL0     H 2279   3.576   6.370   4.287 -2.6320 -2.1737 -0.5064
  758MOL0     H 2280   3.483   6.525   4.255  0.1455  0.0040  0.7647
  758MOL0     H 2281   3.482   6.147   4.170  1.3279  0.5187 -1.5836
  758MOL0     H 2282   3.273   6.006   4.038 -0.1388 -0.1584 -0.5262
  758MOL0     H 2283   3.205   6.094   3.900 -0.7561 -0.9082 -0.5446
  758MOL0     H 2284   3.409   5.898   3.899  1.1900 -1.1983 -0.8604
  758MOL0     H 2285   3.349   5.984   3.765  2.4957 -2.6810 -0.4580
  758MOL0     H 2286   3.598   6.065   3.941 -0.5543 -0.9354 -0.5350
  758MOL0     H 2287   3.518   6.166   3.809 -2.0684  0.2502  0.3909
  758MOL0     H 2288   3.578   6.009   3.638  0.9728  1.3566 -1.9345
  758MOL0     H 2289   3.616   5.878   3.752  0.6172  0.6243 -0.2573
  758MOL0     H 2290   4.001   6.054   3.769  0.6762  0.6901  1.0574
  758MOL0     H 2291   4.172   5.913   3.889 -0.6858  3.1390  1.8852
  758MOL0     H 2292   4.174   5.459   4.211  0.0807  0.3889 -0.6898
  758MOL0     H 2293   4.327   5.346   4.395  0.9915  0.9700 -1.0736
  758MOL0     H 2294   4.361   5.265   4.609 -0.3000  0.5279 -2.1613
  758MOL0     H 2295   4.491   5.313   4.514  1.8957 -0.7714  1.1384
  758MOL0     H 2296   4.453   5.344   4.817  0.2126  0.8581 -0.5766
  758MOL0     H 2297   4.536   5.212   4.738  1.1059 -0.2078  0.7769
  758MOL0     H 2298   4.716   5.403   4.654  2.9418 -1.1638  1.2959
  758MOL0     H 2299   4.611   5.502   4.762 -2.8765 -1.0320 -1.8416
  758MOL0     H 2300   4.745   5.241   4.831  1.1092  0.7967 -2.7885
  758MOL0     H 2301   4.655   5.330   4.947 -0.5967  0.1167 -1.0754
  758MOL0     H 2302   4.859   5.387   5.015  0.2382 -1.2821 -0.6526
  758MOL0     H 2303   4.844   5.518   4.899  0.0583 -0.2806  3.0204
  758MOL0     H 2304   4.958   5.240   4.826  1.3360  0.0237 -0.8855
  758MOL0     H 2305   4.949   5.374   4.721  2.6240  2.3513  0.0580
  758MOL0     H 2306   5.111   5.499   4.888 -1.0357 -0.0753  0.7675
  758MOL0     H 2307   5.178   5.373   4.791  2.6896 -1.5189  2.4274
  758MOL0     H 2308   5.088   5.364   5.085  0.8967 -0.8942  0.1204
  758MOL0     H 2309   5.123   5.216   4.988 -2.4935  0.5148  1.5824
  758MOL0     H 2310   4.296   5.697   4.624 -0.8423  1.3762 -0.5839
  758MOL0     H 2311   4.130   5.796   4.461 -1.5586 -1.4433  2.1904
  758MOL0     H 2312   3.837   5.719   4.087  0.0427 -0.1625 -0.5150
  758MOL0     H 2313   3.697   5.806   3.938  0.9170 -1.5177 -0.2416
  758MOL0     H 2314   3.235   6.974   4.448 -1.5958  0.1284 -0.3391
  758MOL0     H 2315   3.026   7.123   4.488  1.6767 -3.5395 -0.7494
  758MOL0     H 2316   2.743   7.481   4.266 -0.1081  0.6466 -0.2019
  758MOL0     H 2317   2.498   7.471   4.312 -3.6925  0.3195  3.5975
  758MOL0     H 2318   2.193   7.404   4.507 -0.4958 -0.2678 -1.2881
  758MOL0     H 2319   2.280   7.433   4.361 -2.4000  2.0127 -0.2922
  758MOL0     H 2320   2.187   7.630   4.469  1.0437  0.8850 -3.9120
  758MOL0     H 2321   2.352   7.651   4.426  2.2591  1.7635  3.0171
  758MOL0     H 2322   2.422   7.607   4.673  1.9654  1.5835 -2.7449
  758MOL0     H 2323   2.251   7.588   4.714  0.3396  3.1644  1.9364
  758MOL0     H 2324   2.227   7.825   4.601  2.0251  1.7369 -2.9252
  758MOL0     H 2325   2.318   7.812   4.760  1.8875  1.4975 -0.0062
  758MOL0     H 2326   2.585   8.004   4.530 -0.9362  2.8551  1.2267
  758MOL0     H 2327   2.563   7.334   4.700 -0.3135 -2.1918 -1.1119
  758MOL0     H 2328   2.774   7.313   4.795 -3.3761 -1.3097 -2.0696
  758MOL0     H 2329   2.869   7.224   4.672 -1.8737 -1.0552  1.2312
  758MOL0     H 2330   2.912   7.395   4.737 -0.2851 -0.9654  4.4922
  759MOL0     O 2331   4.062   6.870   0.231  0.1740  0.0954 -0.5410
  759MOL0     C 2332   4.055   6.782   0.318 -0.1394 -0.5933 -0.3918
  759MOL0     O 2333   4.158   6.744   0.401 -0.2112  0.1113 -0.1230
  759MOL0     C 2334   4.279   6.809   0.387  0.1000 -0.5881  0.3618
  759MOL0     C 2335   4.303   6.919   0.475 -0.0743 -0.0544  0.7026
  759MOL0     C 2336   4.428   6.981   0.478  0.0639  0.3715 -0.3781
  759MOL0     C 2337   4.530   6.927   0.395  0.8562  0.5283 -0.3817
  759MOL0     O 2338   4.660   6.973   0.404 -0.6569  0.2564  0.2108
  759MOL0     C 2339   4.680   7.074   0.297 -0.3081 -0.1385  0.0401
  759MOL0     C 2340   4.816   7.151   0.314  0.1107 -1.2128  0.6430
  759MOL0     C 2341   4.941   7.062   0.275 -0.4860 -0.7562  0.1253
  759MOL0     C 2342   5.054   7.066   0.377 -0.1554  1.0456  0.2286
  759MOL0     C 2343   5.183   7.009   0.306 -0.2408  0.4165  1.0221
  759MOL0     C 2344   5.306   7.000   0.409 -0.3003 -0.1243  0.5618
  759MOL0     C 2345   5.382   7.135   0.433 -0.7149  0.3096  0.2513
  759MOL0     C 2346   5.480   7.118   0.555  0.6711  0.0429  0.0380
  759MOL0     N 2347   5.561   6.998   0.572  0.1864  0.3506 -0.0536
  759MOL0     C 2348   5.664   6.946   0.490  0.1657 -0.4737  0.0557
  759MOL0     C 2349   5.696   6.822   0.545  0.0922  0.0370  0.4875
  759MOL0     C 2350   5.807   6.723   0.504 -0.0811 -0.0127 -0.3740
  759MOL0     C 2351   5.938   6.791   0.515  0.1874 -0.1560 -0.7527
  759MOL0     C 2352   5.964   6.862   0.655 -0.2681 -0.3423 -0.0206
  759MOL0     C 2353   5.951   6.769   0.769  0.7599  0.6655  0.3921
  759MOL0     O 2354   6.079   6.706   0.795  1.0740  0.3661  0.1602
  759MOL0     C 2355   6.150   6.763   0.890 -0.8819 -0.3094 -0.0736
  759MOL0     C 2356   6.229   6.677   0.965 -0.5380 -0.2274  0.4451
  759MOL0     C 2357   6.327   6.727   1.065 -0.0298 -0.2915 -0.6760
  759MOL0     C 2358   6.339   6.864   1.084 -0.2563 -1.1595  0.7153
  759MOL0     C 2359   6.442   6.920   1.175 -0.5069  0.1826 -0.3524
  759MOL0     O 2360   6.547   6.835   1.197 -0.1852 -0.4467 -0.0752
  759MOL0     C 2361   6.647   6.881   1.281  0.7177 -0.3231  0.0859
  759MOL0     C 2362   6.619   6.881   1.417  0.2716 -0.8013  0.1189
  759MOL0     C 2363   6.700   6.933   1.514 -0.2408  0.9867 -0.2730
  759MOL0     C 2364   6.817   6.994   1.473 -0.3250  0.6280  0.2111
  759MOL0     O 2365   6.901   7.039   1.569 -0.9824 -0.4812 -0.0244
  759MOL0     C 2366   6.897   7.175   1.578  0.0209  0.0238  0.5074
  759MOL0     C 2367   6.976   7.230   1.691 -0.4348 -0.0418 -0.6955
  759MOL0     C 2368   7.126   7.227   1.650  0.5359 -0.3002  0.1124
  759MOL0     C 2369   7.224   7.283   1.755  0.7989 -0.6790  0.6263
  759MOL0     C 2370   7.368   7.260   1.724 -0.4185 -0.5918  0.2236
  759MOL0     C 2371   7.465   7.358   1.791 -0.5402 -0.1604 -0.0101
  759MOL0     C 2372   7.462   7.489   1.724 -0.0816 -0.3383  0.5098
  759MOL0     C 2373   7.556   7.597   1.789  0.5481  0.6342  0.2327
  759MOL0    Cl 2374   7.704   7.526   1.868  0.1440  0.0625 -0.2011
  759MOL0     C 2375   6.842   7.011   1.336  0.3830  0.2741  0.1620
  759MOL0     C 2376   6.759   6.949   1.241 -0.2394  0.4035  0.0419
  759MOL0     O 2377   6.441   7.039   1.198 -0.3344 -0.7885 -0.3837
  759MOL0     C 2378   6.249   6.953   1.009 -0.5380  0.6423 -0.1746
  759MOL0     C 2379   6.156   6.904   0.921 -0.0472  0.4646  0.9726
  759MOL0     N 2380   5.607   6.800   0.654 -0.2775  0.0741  0.4991
  759MOL0     N 2381   5.531   6.901   0.664 -0.1904  0.5265  0.0888
  759MOL0     C 2382   4.507   6.819   0.299 -0.0387  0.0386 -0.3295
  759MOL0     C 2383   4.376   6.764   0.297 -0.2057 -1.0720 -1.2873
  759MOL0     C 2384   3.916   6.737   0.338  0.6310  0.7227  0.4719
  759MOL0     C 2385   3.900   6.658   0.449  0.0551 -0.0446  0.5504
  759MOL0     C 2386   3.776   6.605   0.490  0.9936 -0.3517 -0.2543
  759MOL0     C 2387   3.661   6.634   0.409  0.2431  0.1783  0.5108
  759MOL0     O 2388   3.533   6.585   0.428  0.5779 -0.2208 -0.5460
  759MOL0     C 2389   3.515   6.538   0.564  1.0451  1.5155 -0.8491
  759MOL0     C 2390   3.375   6.478   0.577  0.0197 -0.1838 -0.5249
  759MOL0     C 2391   3.336   6.424   0.710 -0.4014 -0.5904 -0.8706
  759MOL0     C 2392   3.455   6.368   0.794 -0.0224  0.3703  0.3278
  759MOL0     C 2393   3.403   6.319   0.922 -0.2003  0.4091 -0.1293
  759MOL0     C 2394   3.366   6.279   1.030  0.1869  0.0702  0.0856
  759MOL0     C 2395   3.678   6.711   0.291 -0.1737 -0.1334 -0.1027
  759MOL0     C 2396   3.806   6.762   0.252  1.0654  0.2779 -0.1378
  759MOL0     C 2397   3.815   6.813   0.103  0.6359  0.0083  0.2447
  759MOL0     H 2398   4.218   6.963   0.527  0.9223  1.0112  1.4716
  759MOL0     H 2399   4.440   7.073   0.535 -1.7959 -2.5661  5.5761
  759MOL0     H 2400   4.696   7.037   0.196  0.9576  2.0699 -0.6137
  759MOL0     H 2401   4.596   7.145   0.293 -0.4506 -0.3576 -1.3879
  759MOL0     H 2402   4.812   7.182   0.419  1.4114  0.4679  0.2397
  759MOL0     H 2403   4.822   7.232   0.240  2.0804 -2.2716 -0.4410
  759MOL0     H 2404   4.974   7.101   0.178 -1.7606  1.1082  0.4077
  759MOL0     H 2405   4.916   6.955   0.266  2.1755 -1.3849 -0.7687
  759MOL0     H 2406   5.076   7.170   0.404 -1.8634  1.4102  0.3631
  759MOL0     H 2407   5.034   7.006   0.466  0.4505 -1.0908 -1.0081
  759MOL0     H 2408   5.147   6.912   0.269  0.1255  0.9444 -0.8199
  759MOL0     H 2409   5.210   7.069   0.218  0.5278  2.0742  2.3384
  759MOL0     H 2410   5.262   6.963   0.502 -1.0132 -1.1704 -0.1646
  759MOL0     H 2411   5.372   6.923   0.369 -0.3277  0.6629 -1.0896
  759MOL0     H 2412   5.315   7.221   0.446 -0.3859  0.2434  2.8985
  759MOL0     H 2413   5.445   7.157   0.346 -1.3346 -0.0221 -0.2881
  759MOL0     H 2414   5.555   7.198   0.554 -0.6117  1.3628  1.9535
  759MOL0     H 2415   5.433   7.131   0.654 -0.3551  1.5052 -0.6097
  759MOL0     H 2416   5.701   6.997   0.402  2.7166  0.1777  1.4034
  759MOL0     H 2417   5.808   6.634   0.567 -1.1610 -0.1553 -0.5479
  759MOL0     H 2418   5.780   6.695   0.402  0.5676 -0.2153 -0.4972
  759MOL0     H 2419   6.015   6.716   0.494 -1.5745 -3.7798  4.0121
  759MOL0     H 2420   5.940   6.864   0.433 -0.6609 -1.6947 -2.1877
  759MOL0     H 2421   5.906   6.952   0.681 -0.7700 -0.6801  0.0348
  759MOL0     H 2422   6.063   6.909   0.651 -0.7925  1.5139  3.5912
  759MOL0     H 2423   5.871   6.696   0.752  0.9571  0.8537 -1.5624
  759MOL0     H 2424   5.914   6.823   0.857 -1.9571 -1.9014  0.9882
  759MOL0     H 2425   6.220   6.572   0.936 -0.9902  0.0272 -0.3872
  759MOL0     H 2426   6.380   6.649   1.118 -0.7542  0.4881  1.2492
  759MOL0     H 2427   6.523   6.838   1.442 -1.6486  2.9526  0.0460
  759MOL0     H 2428   6.678   6.934   1.621  2.2776 -1.6256  0.4028
  759MOL0     H 2429   6.917   7.230   1.485 -3.8854  1.1128  0.1163
  759MOL0     H 2430   6.797   7.205   1.611  0.8645 -0.1485  3.4812
  759MOL0     H 2431   6.944   7.333   1.706  0.1413  0.3721 -2.1327
  759MOL0     H 2432   6.960   7.164   1.777 -1.5506 -0.5384 -1.2587
  759MOL0     H 2433   7.155   7.125   1.621 -1.4718 -0.4261 -1.7133
  759MOL0     H 2434   7.139   7.287   1.559 -0.8116  1.1688  0.8491
  759MOL0     H 2435   7.196   7.249   1.855 -1.2359 -0.9692  0.0169
  759MOL0     H 2436   7.198   7.389   1.743 -0.9881 -1.0560  0.8999
  759MOL0     H 2437   7.382   7.272   1.616 -0.2669  2.1804  0.4789
  759MOL0     H 2438   7.397   7.156   1.739 -1.3242 -1.6444 -3.9910
  759MOL0     H 2439   7.441   7.366   1.898  3.5313  1.4535  0.9641
  759MOL0     H 2440   7.564   7.312   1.786 -0.6305 -0.5847  1.3884
  759MOL0     H 2441   7.356   7.514   1.718  0.4323  1.6542 -1.4886
  759MOL0     H 2442   7.487   7.478   1.618  0.3953 -0.6190  0.6492
  759MOL0     H 2443   7.586   7.662   1.706 -2.6075 -2.2263 -3.5709
  759MOL0     H 2444   7.488   7.644   1.861 -1.7165 -2.4852  0.3543
  759MOL0     H 2445   6.937   7.061   1.320  0.6140  0.3027  1.4430
  759MOL0     H 2446   6.786   6.945   1.136 -0.5224 -1.3833  0.0022
  759MOL0     H 2447   6.255   7.060   1.023  1.2159  0.9687 -2.7970
  759MOL0     H 2448   6.096   6.970   0.860 -0.5615 -1.0800 -0.2520
  759MOL0     H 2449   4.582   6.786   0.228  2.0283 -0.3040  1.9039
  759MOL0     H 2450   4.350   6.669   0.251  0.9462 -2.6364  1.0927
  759MOL0     H 2451   3.989   6.633   0.507 -0.1420 -2.4575 -0.0563
  759MOL0     H 2452   3.763   6.550   0.583 -1.3424  0.4832 -0.0125
  759MOL0     H 2453   3.552   6.604   0.643  3.6451 -2.0495  1.1561
  759MOL0     H 2454   3.590   6.460   0.574  2.4635  2.7452 -1.3928
  759MOL0     H 2455   3.373   6.394   0.507  2.9338 -2.1070  1.4759
  759MOL0     H 2456   3.300   6.549   0.542 -0.7240 -0.7579 -0.1041
  759MOL0     H 2457   3.251   6.356   0.697 -0.2848 -0.9969  0.3046
  759MOL0     H 2458   3.299   6.508   0.770  0.4676 -1.5050  1.0355
  759MOL0     H 2459   3.507   6.289   0.739 -0.9781 -0.7665  1.0089
  759MOL0     H 2460   3.523   6.451   0.818 -1.5539  0.7427  4.0368
  759MOL0     H 2461   3.313   6.255   1.119 -0.6594 -1.7014 -0.8292
  759MOL0     H 2462   3.592   6.747   0.236 -1.2110  1.0675  2.1830
  759MOL0     H 2463   3.728   6.794   0.039  0.8433 -1.3410  0.3201
  759MOL0     H 2464   3.828   6.921   0.101  2.6272 -0.1430  2.0686
  759MOL0     H 2465   3.900   6.773   0.048  0.4536 -0.8774  0.5782
  760MOL0     O 2466   2.804   8.063   4.353  0.7644 -0.3406  0.3507
  760MOL0     C 2467   2.924   8.054   4.343  0.5248  1.4409 -0.0247
  760MOL0     O 2468   3.009   7.995   4.441  0.3060 -0.0217 -0.8051
  760MOL0     C 2469   2.955   7.932   4.546  0.7533 -0.5877  0.4469
  760MOL0     C 2470   2.922   8.013   4.656  0.0057  0.1206  0.0483
  760MOL0     C 2471   2.854   7.956   4.764  0.9808  0.0002 -0.0102
  760MOL0     C 2472   2.825   7.818   4.768  0.0934  0.4648 -0.5619
  760MOL0     O 2473   2.763   7.771   4.877  0.7472 -0.2677 -0.1407
  760MOL0     C 2474   2.709   7.638   4.890 -0.8391 -0.1968 -0.2170
  760MOL0     C 2475   2.666   7.624   5.040 -0.2256 -0.0909 -0.2081
  760MOL0     C 2476   2.598   7.745   5.102 -0.2159 -0.2980  0.4785
  760MOL0     C 2477   2.467   7.781   5.040 -0.0307  0.5383 -0.3704
  760MOL0     C 2478   2.417   7.925   5.055 -0.0452 -0.1313 -0.7328
  760MOL0     C 2479   2.519   8.024   4.986 -0.1857  0.3927 -0.4710
  760MOL0     C 2480   2.449   8.156   4.952  0.7457  0.0601  0.4241
  760MOL0     C 2481   2.532   8.279   4.903 -0.3764  0.2734 -0.4692
  760MOL0     N 2482   2.650   8.306   4.973 -0.1528  0.7513  0.1044
  760MOL0     C 2483   2.658   8.338   5.109  0.9612 -0.1078 -0.0261
  760MOL0     C 2484   2.782   8.296   5.147  0.0468  1.7154  0.1254
  760MOL0     C 2485   2.827   8.257   5.291  0.2910 -0.5317 -0.1989
  760MOL0     C 2486   2.812   8.109   5.324 -0.3102 -0.0920 -0.0037
  760MOL0     C 2487   2.923   8.027   5.257  0.3990  0.0986 -0.5181
  760MOL0     C 2488   2.913   7.879   5.297 -0.5600  0.5502  0.2479
  760MOL0     O 2489   2.922   7.871   5.443  0.1338  0.2831  0.4829
  760MOL0     C 2490   3.047   7.842   5.498  0.2806  0.0810  0.0879
  760MOL0     C 2491   3.174   7.853   5.439 -0.1040  0.4673 -0.1618
  760MOL0     C 2492   3.296   7.843   5.509 -0.2500  0.4120  0.0976
  760MOL0     C 2493   3.292   7.819   5.652  0.9299  0.0146 -0.3491
  760MOL0     C 2494   3.413   7.801   5.732  0.8889  0.2929 -0.7410
  760MOL0     O 2495   3.529   7.836   5.673  0.1049  0.9297 -0.6424
  760MOL0     C 2496   3.641   7.857   5.748 -0.1791 -0.4224  0.7672
  760MOL0     C 2497   3.686   7.754   5.829 -0.5406  0.2171  0.4855
  760MOL0     C 2498   3.784   7.775   5.911 -0.8084 -0.6771 -0.4022
  760MOL0     C 2499   3.857   7.894   5.923  0.4213  0.2151  0.4239
  760MOL0     O 2500   3.963   7.910   6.000  0.2852 -0.3110 -0.4793
  760MOL0     C 2501   4.028   8.034   6.026  0.6913 -1.0891 -0.1971
  760MOL0     C 2502   4.154   8.058   5.949 -0.4957 -0.1716 -0.7395
  760MOL0     C 2503   4.257   7.943   5.960  0.3484  0.1981  0.4771
  760MOL0     C 2504   4.390   7.967   5.884 -1.4896  0.2617  0.3810
  760MOL0     C 2505   4.501   7.847   5.889  0.5395  0.0053 -0.4194
  760MOL0     C 2506   4.621   7.909   5.808 -0.1121  0.0930 -0.2793
  760MOL0     C 2507   4.746   7.817   5.807 -0.8134 -0.0419 -0.6421
  760MOL0     C 2508   4.864   7.894   5.749  0.2937 -0.7740 -0.0492
  760MOL0    Cl 2509   5.020   7.794   5.780  0.1117 -0.0608  0.0620
  760MOL0     C 2510   3.821   7.998   5.831 -0.5756  0.5584  0.6217
  760MOL0     C 2511   3.706   7.977   5.745  0.0015  0.0177  0.1723
  760MOL0     O 2512   3.397   7.754   5.844  0.2790  0.6287  0.1225
  760MOL0     C 2513   3.164   7.811   5.709 -0.4048 -0.0832 -0.5535
  760MOL0     C 2514   3.052   7.821   5.638 -0.5417  0.2604 -0.4119
  760MOL0     N 2515   2.853   8.253   5.029  1.0461  0.5969  0.6856
  760MOL0     N 2516   2.772   8.260   4.925 -0.2966 -0.9270 -1.0824
  760MOL0     C 2517   2.882   7.733   4.673  0.8509  0.1072 -0.5504
  760MOL0     C 2518   2.945   7.795   4.566  0.0571  1.1237  0.2553
  760MOL0     C 2519   2.997   8.106   4.222 -0.4415 -0.2550 -0.6025
  760MOL0     C 2520   3.128   8.062   4.194 -0.6190  0.7273 -0.1274
  760MOL0     C 2521   3.199   8.117   4.083  0.4908 -0.1379  0.1586
  760MOL0     C 2522   3.145   8.218   3.998 -0.1352  0.6430  0.2074
  760MOL0     O 2523   3.223   8.263   3.890  0.0325  0.4040 -0.7949
  760MOL0     C 2524   3.172   8.372   3.814  0.0244 -0.4751 -0.8396
  760MOL0     C 2525   3.268   8.409   3.693 -0.7130  0.2968  0.2674
  760MOL0     C 2526   3.305   8.293   3.600 -0.3194  0.5653  0.1537
  760MOL0     C 2527   3.363   8.355   3.467 -0.8116 -0.6202  0.6245
  760MOL0     C 2528   3.272   8.428   3.388 -0.6993 -0.0156 -0.5596
  760MOL0     C 2529   3.191   8.505   3.333 -0.8150  1.1923  0.5745
  760MOL0     C 2530   3.014   8.250   4.026 -0.4124 -0.7733  0.9054
  760MOL0     C 2531   2.935   8.192   4.129 -0.7881  0.1835  0.3607
  760MOL0     C 2532   2.791   8.247   4.138  0.4946  0.6349 -0.1535
  760MOL0     H 2533   2.953   8.116   4.643 -0.5463  0.2943  0.0991
  760MOL0     H 2534   2.837   8.024   4.847 -4.0255  0.5142 -1.1753
  760MOL0     H 2535   2.625   7.623   4.822  1.0742 -1.0264 -2.5885
  760MOL0     H 2536   2.786   7.564   4.867 -1.7229 -1.2558  0.1748
  760MOL0     H 2537   2.754   7.604   5.101  0.5326 -1.2789 -1.6190
  760MOL0     H 2538   2.604   7.534   5.051  1.8805 -1.4228  1.5787
  760MOL0     H 2539   2.670   7.827   5.095  0.1236 -0.6991 -1.0384
  760MOL0     H 2540   2.590   7.729   5.210  2.9584 -3.1117  0.4686
  760MOL0     H 2541   2.458   7.744   4.937 -1.4685 -3.8079  1.0705
  760MOL0     H 2542   2.384   7.722   5.082  1.1191 -2.9293 -2.5647
  760MOL0     H 2543   2.323   7.943   5.002 -1.4527 -1.7580  1.1034
  760MOL0     H 2544   2.406   7.951   5.160  1.8633  1.5083 -0.8740
  760MOL0     H 2545   2.599   8.043   5.058 -0.5387 -0.5942  0.2165
  760MOL0     H 2546   2.562   7.981   4.895 -1.4085 -1.8374 -0.0824
  760MOL0     H 2547   2.390   8.181   5.041 -0.5787 -2.5652  0.3702
  760MOL0     H 2548   2.384   8.146   4.864 -0.4180  2.1005  0.9946
  760MOL0     H 2549   2.554   8.259   4.797 -0.1661  0.1828 -0.4074
  760MOL0     H 2550   2.469   8.369   4.902  0.4507  0.8714  0.0963
  760MOL0     H 2551   2.585   8.372   5.181  1.6942 -1.2562  1.3235
  760MOL0     H 2552   2.933   8.282   5.299  1.1554 -3.2752 -1.5200
  760MOL0     H 2553   2.766   8.306   5.368 -0.0093  1.0670 -1.4110
  760MOL0     H 2554   2.830   8.110   5.431  2.7843  0.4813 -0.4354
  760MOL0     H 2555   2.713   8.070   5.296  0.1534 -2.7038  1.6560
  760MOL0     H 2556   3.022   8.068   5.279  1.5699 -2.4474 -0.7683
  760MOL0     H 2557   2.918   8.027   5.148 -1.0325  1.0615 -0.4892
  760MOL0     H 2558   2.990   7.817   5.251 -0.5254 -0.9664  2.2142
  760MOL0     H 2559   2.819   7.832   5.267 -1.5056  1.8322  1.0739
  760MOL0     H 2560   3.196   7.873   5.334  3.2788 -0.9893  0.1479
  760MOL0     H 2561   3.392   7.851   5.460 -0.6849 -0.1146 -0.8774
  760MOL0     H 2562   3.644   7.657   5.806  0.2886  0.1417 -0.7928
  760MOL0     H 2563   3.828   7.692   5.966 -1.0170 -0.8500 -0.4953
  760MOL0     H 2564   3.959   8.119   6.018  1.2905 -0.3050  2.0877
  760MOL0     H 2565   4.060   8.031   6.130  0.3621  0.3409 -0.0242
  760MOL0     H 2566   4.131   8.074   5.843  1.5596 -1.2045 -1.4007
  760MOL0     H 2567   4.206   8.148   5.984  2.7097 -2.0145 -0.3688
  760MOL0     H 2568   4.270   7.932   6.068 -1.3876  0.4517  0.7470
  760MOL0     H 2569   4.215   7.851   5.919  1.5399 -0.2228  0.1714
  760MOL0     H 2570   4.440   8.060   5.909 -2.1895  0.7801 -0.1041
  760MOL0     H 2571   4.372   7.983   5.777 -0.2519  1.0581  0.2709
  760MOL0     H 2572   4.466   7.756   5.839  1.0378 -1.5107  1.8487
  760MOL0     H 2573   4.533   7.823   5.990  4.8154  2.7698 -0.8726
  760MOL0     H 2574   4.588   7.940   5.708 -1.1300 -1.0179 -0.3163
  760MOL0     H 2575   4.651   8.004   5.852  0.8346  0.2520 -1.2026
  760MOL0     H 2576   4.733   7.728   5.744 -1.5572 -0.1913 -0.2927
  760MOL0     H 2577   4.773   7.788   5.909 -2.0975  2.8193  0.6211
  760MOL0     H 2578   4.856   7.920   5.643  0.0773  0.5591  0.2721
  760MOL0     H 2579   4.872   7.990   5.800  1.7861 -0.0294 -1.5638
  760MOL0     H 2580   3.875   8.091   5.814 -0.2474 -0.1659 -3.0807
  760MOL0     H 2581   3.672   8.056   5.679  0.6319  0.1827  0.0385
  760MOL0     H 2582   3.161   7.809   5.818  2.5802  0.0274 -0.3870
  760MOL0     H 2583   2.960   7.815   5.694 -0.0668 -0.3825  0.3168
  760MOL0     H 2584   2.865   7.626   4.668  0.2052  0.2128 -0.7464
  760MOL0     H 2585   2.975   7.734   4.481 -2.6485  0.1782 -0.1349
  760MOL0     H 2586   3.180   7.990   4.256 -0.9255  0.6509  0.0460
  760MOL0     H 2587   3.302   8.085   4.071  0.1785 -2.1348  2.1856
  760MOL0     H 2588   3.169   8.461   3.878  0.1238 -1.0563 -0.0012
  760MOL0     H 2589   3.080   8.347   3.761 -0.0746  0.6782 -1.2257
  760MOL0     H 2590   3.359   8.449   3.738 -0.8762  1.1772 -0.1658
  760MOL0     H 2591   3.224   8.489   3.632 -3.2496  0.9701  2.7388
  760MOL0     H 2592   3.230   8.216   3.580  2.5943 -1.8709 -2.2965
  760MOL0     H 2593   3.388   8.234   3.639 -1.0792  0.0806  1.0716
  760MOL0     H 2594   3.445   8.419   3.499 -2.3897  1.2926  1.0488
  760MOL0     H 2595   3.413   8.277   3.409  0.8531  0.3372  0.7001
  760MOL0     H 2596   3.124   8.566   3.277 -0.8981 -1.5343 -2.6132
  760MOL0     H 2597   2.968   8.319   3.955  0.1126 -0.4673  0.8584
  760MOL0     H 2598   2.724   8.163   4.119  0.7467 -0.0463  1.7133
  760MOL0     H 2599   2.764   8.295   4.233 -2.0570  1.5038 -1.2333
  760MOL0     H 2600   2.769   8.326   4.067 -1.3196  0.2331 -0.0829
  761MOL0     O 2601   3.075  10.490   9.509 -0.0292  0.2200  0.2664
  761MOL0     C 2602   3.029  10.385   9.460  0.0834  0.3962 -0.6821
  761MOL0     O 2603   3.108  10.277   9.433 -1.0702 -0.4078  0.4612
  761MOL0     C 2604   3.243  10.305   9.412 -0.2133 -0.0055  0.4696
  761MOL0     C 2605   3.289  10.328   9.283 -0.3876  0.5427  0.0119
  761MOL0     C 2606   3.426  10.360   9.262  0.1040  0.1453 -0.0696
  761MOL0     C 2607   3.510  10.385   9.370  0.7531  0.3983 -0.2704
  761MOL0     O 2608   3.643  10.414   9.358  0.5158 -0.2438  0.4854
  761MOL0     C 2609   3.668  10.516   9.261 -1.1730 -0.7584  0.2535
  761MOL0     C 2610   3.818  10.543   9.241 -0.1545  0.2607  0.2068
  761MOL0     C 2611   3.904  10.414   9.246  0.0358 -0.1421 -0.1732
  761MOL0     C 2612   4.054  10.450   9.265 -0.2383  0.1054 -0.8625
  761MOL0     C 2613   4.155  10.334   9.290  0.6227  0.5918  0.1354
  761MOL0     C 2614   4.293  10.392   9.262  0.1623  1.0124  0.3519
  761MOL0     C 2615   4.395  10.289   9.227 -0.8362  0.9073  0.4381
  761MOL0     C 2616   4.461  10.242   9.357 -0.2637  0.0559 -0.4546
  761MOL0     N 2617   4.589  10.169   9.345 -0.2664 -0.4787 -0.1851
  761MOL0     C 2618   4.713  10.227   9.343 -0.8436 -0.5626 -0.8178
  761MOL0     C 2619   4.797  10.128   9.345 -0.5250 -0.3269  0.3050
  761MOL0     C 2620   4.956  10.131   9.344  0.3324  0.4327 -0.4559
  761MOL0     C 2621   5.017  10.108   9.483 -0.1336 -0.0581 -0.6095
  761MOL0     C 2622   5.001   9.960   9.547  0.3582 -0.6589 -0.0839
  761MOL0     C 2623   5.055   9.848   9.454  0.3017  0.7558  0.2842
  761MOL0     O 2624   5.190   9.882   9.402  0.1497  0.4335  0.0369
  761MOL0     C 2625   5.303   9.870   9.486 -0.2320 -0.3008  0.6547
  761MOL0     C 2626   5.313   9.810   9.611  0.4031  0.2659  1.0662
  761MOL0     C 2627   5.431   9.813   9.681 -0.6181 -0.5336 -0.7604
  761MOL0     C 2628   5.547   9.883   9.635  0.6220  0.9821  0.1304
  761MOL0     C 2629   5.670   9.907   9.716  0.4204  0.3068 -0.4196
  761MOL0     O 2630   5.656   9.873   9.841 -0.1488 -0.4359 -0.4650
  761MOL0     C 2631   5.763   9.883   9.933  0.0418  0.5393 -0.2444
  761MOL0     C 2632   5.814   9.997   9.978 -0.4671 -0.9655 -0.8150
  761MOL0     C 2633   5.941   9.998  10.050  1.9403 -1.0209 -1.1454
  761MOL0     C 2634   6.014   9.881  10.072  0.2033  0.1385  0.7284
  761MOL0     O 2635   6.133   9.885  10.133 -0.1136  0.3975 -0.5389
  761MOL0     C 2636   6.214  10.004  10.144  1.2695 -0.1933 -0.7071
  761MOL0     C 2637   6.350   9.980  10.210 -0.0307 -1.0019 -0.4133
  761MOL0     C 2638   6.421  10.119  10.235 -0.1735  0.5053  0.4988
  761MOL0     C 2639   6.538  10.110  10.333  1.1187  0.0196 -0.6123
  761MOL0     C 2640   6.596  10.255  10.361  0.5088  0.6790 -0.0621
  761MOL0     C 2641   6.667  10.303  10.235 -0.6540 -0.4872 -0.0024
  761MOL0     C 2642   6.764  10.419  10.280 -0.0063 -0.6010  0.0396
  761MOL0     C 2643   6.836  10.475  10.156 -0.7258 -0.6065  0.2665
  761MOL0    Cl 2644   6.740  10.566  10.045  0.1255 -0.0885 -0.1884
  761MOL0     C 2645   5.954   9.760  10.042 -0.0638  0.3540  0.0581
  761MOL0     C 2646   5.828   9.756   9.968 -0.7220 -0.7819  0.5442
  761MOL0     O 2647   5.769   9.945   9.661  0.2867  0.3257  0.8313
  761MOL0     C 2648   5.547   9.924   9.503 -0.0501  0.9293 -0.5109
  761MOL0     C 2649   5.422   9.927   9.426  0.0126 -0.3969 -0.7073
  761MOL0     N 2650   4.726  10.008   9.335  0.8117 -0.4838 -0.1814
  761MOL0     N 2651   4.602  10.036   9.331 -0.7213 -0.5260  0.1765
  761MOL0     C 2652   3.457  10.361   9.493  0.4275 -0.2507  0.1100
  761MOL0     C 2653   3.332  10.314   9.512  0.1424 -0.3028 -0.1280
  761MOL0     C 2654   2.885  10.367   9.440  0.4670  0.5310  0.3866
  761MOL0     C 2655   2.807  10.344   9.553  0.6581 -0.3964  0.5419
  761MOL0     C 2656   2.669  10.316   9.555  0.4598 -0.1621 -0.5145
  761MOL0     C 2657   2.596  10.317   9.435  0.2700  0.2790 -0.5667
  761MOL0     O 2658   2.464  10.297   9.410  0.3289  0.3229  1.1421
  761MOL0     C 2659   2.379  10.322   9.515  0.7941 -0.2231 -0.4907
  761MOL0     C 2660   2.235  10.299   9.467  0.3736  0.4056  0.4486
  761MOL0     C 2661   2.117  10.342   9.558 -0.1749 -0.1972 -0.5036
  761MOL0     C 2662   1.994  10.341   9.474 -0.8257 -0.1452  0.0427
  761MOL0     C 2663   1.882  10.368   9.555  0.7729 -0.4905  0.1011
  761MOL0     C 2664   1.781  10.380   9.619  0.2457  0.4358  0.1657
  761MOL0     C 2665   2.675  10.337   9.317  0.3923  0.0186 -0.0152
  761MOL0     C 2666   2.810  10.363   9.321 -0.3319  0.4803  0.5734
  761MOL0     C 2667   2.880  10.408   9.182 -0.0977 -0.9180 -0.1890
  761MOL0     H 2668   3.223  10.300   9.201 -0.2624  1.6841 -0.5086
  761MOL0     H 2669   3.468  10.363   9.162 -2.3967 -1.2421 -1.2850
  761MOL0     H 2670   3.633  10.489   9.161  0.9462 -0.1159 -0.7112
  761MOL0     H 2671   3.628  10.611   9.298 -0.3104 -0.1912 -0.2432
  761MOL0     H 2672   3.854  10.603   9.326  5.4198 -4.1940  1.6461
  761MOL0     H 2673   3.841  10.590   9.145 -1.9657 -1.2013 -1.0055
  761MOL0     H 2674   3.885  10.359   9.153  0.4055  0.3876 -0.5680
  761MOL0     H 2675   3.874  10.348   9.328  0.9038  0.1751  0.4150
  761MOL0     H 2676   4.074  10.506   9.173 -2.1654 -0.9941 -2.0219
  761MOL0     H 2677   4.068  10.522   9.346  2.3122  1.6100 -2.5448
  761MOL0     H 2678   4.157  10.307   9.396  1.2950  3.1261  0.8460
  761MOL0     H 2679   4.152  10.240   9.234  0.8011  0.8724 -0.3497
  761MOL0     H 2680   4.287  10.466   9.181 -0.4158 -0.7919 -1.3242
  761MOL0     H 2681   4.332  10.449   9.347  0.6488  0.9934  0.1487
  761MOL0     H 2682   4.459  10.328   9.147  1.0015  2.4772  2.5814
  761MOL0     H 2683   4.347  10.204   9.177  3.0480 -1.1473 -0.1652
  761MOL0     H 2684   4.466  10.324   9.430  1.1039 -0.1567 -0.2833
  761MOL0     H 2685   4.393  10.169   9.402  0.0201 -2.1655 -3.3227
  761MOL0     H 2686   4.736  10.333   9.346 -4.1802  0.2514  0.8269
  761MOL0     H 2687   4.987  10.056   9.271 -5.4644  0.0613 -3.0811
  761MOL0     H 2688   4.984  10.227   9.300  1.7247  0.6096  0.7478
  761MOL0     H 2689   5.124  10.131   9.480 -0.1697  0.1699 -0.2533
  761MOL0     H 2690   4.979  10.176   9.561  1.5953  0.0720  0.1605
  761MOL0     H 2691   4.899   9.936   9.576 -0.3533  1.7597 -0.3232
  761MOL0     H 2692   5.057   9.967   9.640  0.2572  0.9277 -0.1169
  761MOL0     H 2693   4.985   9.843   9.371 -1.2150  2.1951  1.4070
  761MOL0     H 2694   5.057   9.748   9.499 -0.0691  0.8270  0.4610
  761MOL0     H 2695   5.229   9.779   9.673  2.8429 -1.1638  3.9583
  761MOL0     H 2696   5.432   9.764   9.778 -0.5290 -0.0376 -0.5073
  761MOL0     H 2697   5.755  10.087   9.960  1.8445  1.1815  1.4473
  761MOL0     H 2698   5.980  10.092  10.086 -2.6902 -0.1068  2.4325
  761MOL0     H 2699   6.233  10.052  10.048 -0.7113  2.4232  0.1006
  761MOL0     H 2700   6.154  10.075  10.202 -2.6496 -3.7342  0.0614
  761MOL0     H 2701   6.357   9.930  10.307  1.4795 -2.3797 -1.1868
  761MOL0     H 2702   6.415   9.921  10.144 -2.6903 -2.5356 -1.8392
  761MOL0     H 2703   6.461  10.146  10.137  0.2433  0.1238  0.5622
  761MOL0     H 2704   6.343  10.193  10.257 -2.4002 -0.5895 -2.9319
  761MOL0     H 2705   6.614  10.042  10.292 -0.1840 -2.3516  0.6712
  761MOL0     H 2706   6.496  10.061  10.421 -2.3178 -1.1262 -2.7063
  761MOL0     H 2707   6.672  10.255  10.439  0.1270  1.3692  0.3159
  761MOL0     H 2708   6.508  10.315  10.384 -0.0439  0.1607 -0.7575
  761MOL0     H 2709   6.728  10.224  10.191  1.6501  1.4459 -0.5285
  761MOL0     H 2710   6.590  10.336  10.166  0.8306  2.8606 -0.2455
  761MOL0     H 2711   6.835  10.377  10.352 -0.0571 -0.9520 -0.1104
  761MOL0     H 2712   6.712  10.504  10.325  0.9399  2.0326 -3.4427
  761MOL0     H 2713   6.919  10.543  10.178 -0.4827 -0.0903 -1.9912
  761MOL0     H 2714   6.871  10.384  10.107  0.6347 -1.4158  2.5503
  761MOL0     H 2715   6.011   9.671  10.067  0.5885  0.6962 -0.1922
  761MOL0     H 2716   5.787   9.666   9.923 -2.0623 -1.2819  2.6121
  761MOL0     H 2717   5.641   9.952   9.456  0.2520 -1.3925 -1.4231
  761MOL0     H 2718   5.431   9.959   9.323  1.2314  0.1225 -0.4614
  761MOL0     H 2719   3.530  10.364   9.574 -0.1565  0.0617  0.6351
  761MOL0     H 2720   3.297  10.278   9.609 -3.4717  0.6378 -0.9402
  761MOL0     H 2721   2.854  10.337   9.651  0.6417 -0.8722  0.5183
  761MOL0     H 2722   2.616  10.305   9.649  0.5035 -0.8301 -0.5618
  761MOL0     H 2723   2.377  10.425   9.554 -0.0936 -0.4984  0.2249
  761MOL0     H 2724   2.400  10.252   9.596  1.9908  0.5637 -0.0970
  761MOL0     H 2725   2.226  10.198   9.426 -0.3784 -0.1550  1.9300
  761MOL0     H 2726   2.227  10.365   9.380 -1.7058  1.1389  1.1285
  761MOL0     H 2727   2.138  10.441   9.601 -2.2047 -0.4923  1.3609
  761MOL0     H 2728   2.114  10.284   9.651  0.6589  1.1573  0.4154
  761MOL0     H 2729   1.992  10.427   9.407 -1.1150  1.1697  1.6815
  761MOL0     H 2730   1.984  10.243   9.426  0.7481  0.3551 -1.3913
  761MOL0     H 2731   1.693  10.404   9.675  0.8411 -0.0321  1.3267
  761MOL0     H 2732   2.636  10.345   9.215  1.1585  0.8095 -0.2637
  761MOL0     H 2733   2.981  10.442   9.206 -0.5136 -0.6174  1.2539
  761MOL0     H 2734   2.876  10.326   9.109 -2.4636 -0.5506 -0.5476
  761MOL0     H 2735   2.820  10.485   9.134 -0.8585 -1.8476 -0.7658
  762MOL0     O 2736   6.314   1.061   0.381  0.2853  0.0556  0.4413
  762MOL0     C 2737   6.267   1.097   0.490 -0.9598 -0.3365 -0.5880
  762MOL0     O 2738   6.149   1.053   0.549  0.5501  0.2012  0.1428
  762MOL0     C 2739   6.087   0.944   0.487  0.5105 -0.2703 -0.0632
  762MOL0     C 2740   6.145   0.819   0.473 -0.1135 -0.2195  0.3859
  762MOL0     C 2741   6.071   0.705   0.447 -0.0266 -0.5561  0.1636
  762MOL0     C 2742   5.932   0.712   0.413 -0.1164  0.0293  0.0701
  762MOL0     O 2743   5.857   0.599   0.385  0.2098 -0.2698 -0.4987
  762MOL0     C 2744   5.909   0.466   0.399  0.5459 -0.2228 -0.4060
  762MOL0     C 2745   6.003   0.421   0.280  0.0349 -0.4814 -0.2608
  762MOL0     C 2746   6.119   0.323   0.327  0.0052  0.0858 -0.2159
  762MOL0     C 2747   6.164   0.228   0.220  0.5327  0.5174  0.7467
  762MOL0     C 2748   6.268   0.121   0.270 -0.4267 -0.4427 -0.5783
  762MOL0     C 2749   6.300   0.011   0.169  0.7212 -0.4458  0.4407
  762MOL0     C 2750   6.422  -0.071   0.236  0.1145 -1.1461  0.0830
  762MOL0     C 2751   6.451  -0.202   0.164 -0.0944 -0.2683 -0.2524
  762MOL0     N 2752   6.473  -0.176   0.021  0.2226 -0.2198 -0.0657
  762MOL0     C 2753   6.580  -0.110  -0.027 -0.3355 -0.7364 -0.7611
  762MOL0     C 2754   6.555  -0.097  -0.157 -0.5704 -1.4375 -0.3668
  762MOL0     C 2755   6.650  -0.023  -0.254 -0.5919 -0.1765 -0.2476
  762MOL0     C 2756   6.776  -0.095  -0.290 -0.4691  0.2162  0.2890
  762MOL0     C 2757   6.869  -0.023  -0.391 -0.6067  0.0796  0.7287
  762MOL0     C 2758   6.926   0.103  -0.324  0.2864  0.9012  0.2275
  762MOL0     O 2759   7.069   0.096  -0.341 -0.3128  0.4392 -0.1683
  762MOL0     C 2760   7.135   0.198  -0.276  0.4153 -0.4201  0.4644
  762MOL0     C 2761   7.088   0.316  -0.206  0.5673 -0.0869 -0.0044
  762MOL0     C 2762   7.174   0.396  -0.126  0.4504 -0.3017  0.4976
  762MOL0     C 2763   7.313   0.379  -0.135  0.2849  0.2047  0.9790
  762MOL0     C 2764   7.406   0.471  -0.074 -0.1926  1.0068  0.1399
  762MOL0     O 2765   7.533   0.429  -0.082  0.2105 -0.3154 -0.3849
  762MOL0     C 2766   7.620   0.491   0.000 -0.7460  0.0607  0.0843
  762MOL0     C 2767   7.716   0.572  -0.059  0.0207  0.2162 -0.5806
  762MOL0     C 2768   7.820   0.626   0.021  0.5834 -0.5425  0.3524
  762MOL0     C 2769   7.828   0.601   0.160  0.0522  0.4458 -0.4385
  762MOL0     O 2770   7.920   0.656   0.244  0.0692  0.2608 -0.0295
  762MOL0     C 2771   8.056   0.633   0.207 -0.5591  0.3355 -0.0173
  762MOL0     C 2772   8.151   0.713   0.295 -0.5989  0.2168 -0.0315
  762MOL0     C 2773   8.145   0.864   0.279  0.1953 -0.2827  0.6610
  762MOL0     C 2774   8.234   0.947   0.368 -0.0990  0.3895 -0.4492
  762MOL0     C 2775   8.205   0.936   0.521  0.0915  0.1939  0.7900
  762MOL0     C 2776   8.321   0.886   0.603 -0.4542 -0.7339  0.1570
  762MOL0     C 2777   8.350   0.737   0.586 -0.2375  0.6019  0.1256
  762MOL0     C 2778   8.442   0.690   0.708 -0.1432 -0.8178 -0.3131
  762MOL0    Cl 2779   8.582   0.799   0.756 -0.3757 -0.1367 -0.2655
  762MOL0     C 2780   7.729   0.512   0.218 -1.2066 -0.2139  0.4348
  762MOL0     C 2781   7.628   0.462   0.137 -0.6561  0.4136 -0.0436
  762MOL0     O 2782   7.369   0.581  -0.038 -0.4345 -1.0181 -0.2523
  762MOL0     C 2783   7.352   0.282  -0.234  0.1988 -0.0594  0.6976
  762MOL0     C 2784   7.274   0.191  -0.300 -0.4191 -0.7022 -0.0435
  762MOL0     N 2785   6.436  -0.160  -0.185  0.1826 -0.0803  0.4997
  762MOL0     N 2786   6.395  -0.213  -0.078  0.0412 -0.3371  0.5354
  762MOL0     C 2787   5.869   0.832   0.420 -0.3562 -0.7497  0.3486
  762MOL0     C 2788   5.944   0.948   0.463  1.2960 -0.3123  0.0547
  762MOL0     C 2789   6.352   1.193   0.562  0.1669 -0.1228 -0.0994
  762MOL0     C 2790   6.331   1.191   0.700 -0.1411  0.4113  0.2824
  762MOL0     C 2791   6.412   1.268   0.788 -0.3376  0.7562  0.0349
  762MOL0     C 2792   6.517   1.339   0.737 -0.7593 -0.3613 -0.1806
  762MOL0     O 2793   6.602   1.402   0.815  0.0347  0.7478 -0.5141
  762MOL0     C 2794   6.613   1.373   0.961  0.8143 -0.0304  0.7265
  762MOL0     C 2795   6.719   1.468   1.031  0.0358  0.8523  0.0292
  762MOL0     C 2796   6.843   1.489   0.950 -0.8563  1.1450 -0.4073
  762MOL0     C 2797   6.915   1.352   0.946 -0.0254  0.3394  0.5141
  762MOL0     C 2798   7.054   1.361   0.889  0.3452  0.3562 -0.1545
  762MOL0     C 2799   7.169   1.358   0.867 -0.7834 -0.7325 -0.1225
  762MOL0     C 2800   6.535   1.345   0.599 -0.1961  0.8538 -0.8775
  762MOL0     C 2801   6.451   1.277   0.504  0.4790 -0.0464  0.3833
  762MOL0     C 2802   6.470   1.315   0.354 -1.2698  0.2626 -0.2150
  762MOL0     H 2803   6.253   0.817   0.488 -0.4391 -2.3220  3.4216
  762MOL0     H 2804   6.126   0.611   0.442  0.8585 -0.0683  0.6924
  762MOL0     H 2805   5.959   0.455   0.496 -3.3215 -3.7641  1.4922
  762MOL0     H 2806   5.819   0.405   0.408  1.3808 -1.3821  0.4276
  762MOL0     H 2807   6.044   0.509   0.229  1.8450  0.0874  1.9692
  762MOL0     H 2808   5.954   0.361   0.204 -2.1337  0.1366  0.5720
  762MOL0     H 2809   6.086   0.265   0.414 -0.5736 -1.0562 -1.1837
  762MOL0     H 2810   6.207   0.381   0.359  0.8621 -2.2652  2.0323
  762MOL0     H 2811   6.079   0.181   0.170  3.2684 -3.7418 -0.4492
  762MOL0     H 2812   6.214   0.277   0.136 -1.7490 -0.0451 -1.0603
  762MOL0     H 2813   6.356   0.181   0.292 -1.1027  0.5103 -0.3951
  762MOL0     H 2814   6.232   0.075   0.363 -2.3856 -1.8227 -1.9271
  762MOL0     H 2815   6.213  -0.050   0.145  0.2087 -0.5389  2.4180
  762MOL0     H 2816   6.337   0.062   0.079  1.9649  2.8833  2.6278
  762MOL0     H 2817   6.394  -0.090   0.340  0.3207  1.6936  0.7244
  762MOL0     H 2818   6.513  -0.010   0.247  4.1741 -6.2348 -1.0688
  762MOL0     H 2819   6.536  -0.248   0.215 -0.6613  1.7445  2.8219
  762MOL0     H 2820   6.365  -0.270   0.170 -2.1775  2.2999  1.9812
  762MOL0     H 2821   6.664  -0.069   0.028 -0.7589 -0.8058 -0.0448
  762MOL0     H 2822   6.611   0.024  -0.345  0.1609  2.3954  0.6860
  762MOL0     H 2823   6.682   0.057  -0.187  0.1372 -1.4818  1.0169
  762MOL0     H 2824   6.837  -0.112  -0.201 -0.6547 -2.2702 -0.0052
  762MOL0     H 2825   6.757  -0.194  -0.333 -1.2401  0.1962  0.6750
  762MOL0     H 2826   6.817  -0.001  -0.485  1.3443 -3.1671 -1.3119
  762MOL0     H 2827   6.944  -0.093  -0.430 -1.5308 -0.3484 -0.3680
  762MOL0     H 2828   6.883   0.102  -0.223 -1.3633 -0.1394 -0.4483
  762MOL0     H 2829   6.883   0.194  -0.367 -2.6706 -0.4667  0.0256
  762MOL0     H 2830   6.981   0.329  -0.224  0.1791  1.2249  2.7626
  762MOL0     H 2831   7.141   0.476  -0.061  1.4829  1.2206 -0.7794
  762MOL0     H 2832   7.705   0.571  -0.167  0.9190  0.6979 -0.6875
  762MOL0     H 2833   7.884   0.700  -0.024 -0.5375  0.4363  0.3330
  762MOL0     H 2834   8.080   0.529   0.228  1.6492  0.0156 -3.2599
  762MOL0     H 2835   8.089   0.653   0.104  3.4569 -0.3050  0.9776
  762MOL0     H 2836   8.111   0.694   0.395  1.0962 -0.3401  0.5825
  762MOL0     H 2837   8.253   0.674   0.282  0.7062  3.5339 -0.9957
  762MOL0     H 2838   8.154   0.895   0.175 -1.1163 -0.7580  0.3865
  762MOL0     H 2839   8.042   0.882   0.310  0.2763 -0.9989  1.3852
  762MOL0     H 2840   8.215   1.046   0.326 -0.0556 -0.4364 -2.5299
  762MOL0     H 2841   8.338   0.918   0.353 -0.1264 -1.4155  2.1165
  762MOL0     H 2842   8.116   0.875   0.540 -0.6471 -0.5216 -3.7624
  762MOL0     H 2843   8.162   1.032   0.552 -1.7790  0.0369 -1.1085
  762MOL0     H 2844   8.407   0.950   0.578 -2.4366  1.9260 -0.2182
  762MOL0     H 2845   8.304   0.897   0.710  0.5052  0.7365  0.1846
  762MOL0     H 2846   8.409   0.716   0.496  2.0470  0.7687  1.5009
  762MOL0     H 2847   8.262   0.673   0.575 -0.0777 -0.2818  3.2472
  762MOL0     H 2848   8.377   0.688   0.796  0.9806  3.7114  0.8847
  762MOL0     H 2849   8.484   0.589   0.698  3.0494  0.4999 -1.5902
  762MOL0     H 2850   7.724   0.485   0.323 -2.4050  2.3267  1.1091
  762MOL0     H 2851   7.555   0.401   0.190  0.1317  1.1757  2.0071
  762MOL0     H 2852   7.459   0.271  -0.252  0.0746 -0.3044  0.0869
  762MOL0     H 2853   7.316   0.114  -0.364  0.7684  0.8591 -1.2569
  762MOL0     H 2854   5.763   0.835   0.400 -0.6211  0.4038  1.7366
  762MOL0     H 2855   5.899   1.043   0.493 -0.2699 -0.2608 -2.2601
  762MOL0     H 2856   6.249   1.140   0.749 -0.1536  0.3001  0.1426
  762MOL0     H 2857   6.377   1.270   0.891  0.2423  0.0955  0.2543
  762MOL0     H 2858   6.650   1.270   0.966  2.4230  0.4131 -1.1671
  762MOL0     H 2859   6.519   1.385   1.017  0.9099  1.5901  0.5968
  762MOL0     H 2860   6.741   1.431   1.131 -0.8965 -1.2507 -0.4796
  762MOL0     H 2861   6.669   1.565   1.037  2.1391  1.9897  0.0087
  762MOL0     H 2862   6.900   1.570   0.996 -1.9148  2.0749 -0.7003
  762MOL0     H 2863   6.828   1.531   0.850  0.5404  0.0833 -1.1116
  762MOL0     H 2864   6.924   1.309   1.046  0.8252 -1.6963 -0.3709
  762MOL0     H 2865   6.861   1.280   0.883  0.1248  0.8765 -0.2435
  762MOL0     H 2866   7.272   1.338   0.848 -0.2600  0.2829  1.4543
  762MOL0     H 2867   6.618   1.402   0.558  2.1215 -0.2450  1.9294
  762MOL0     H 2868   6.565   1.269   0.323 -1.3829 -0.1054 -0.0234
  762MOL0     H 2869   6.396   1.279   0.282 -0.3535 -3.2506  0.3689
  762MOL0     H 2870   6.476   1.422   0.335  0.2128 -0.3319 -4.0516
  763MOL0     O 2871   2.440   9.047   8.473  0.4208  0.3763 -0.1883
  763MOL0     C 2872   2.441   8.953   8.547 -0.0998 -0.4530  1.2378
  763MOL0     O 2873   2.544   8.916   8.620 -0.2202  0.1960 -0.2393
  763MOL0     C 2874   2.670   8.972   8.624 -0.3118 -0.5959  0.0413
  763MOL0     C 2875   2.748   8.983   8.740 -0.4736 -0.2698 -0.3688
  763MOL0     C 2876   2.885   9.001   8.742 -0.2643 -0.7679  0.1938
  763MOL0     C 2877   2.945   9.024   8.620  0.0431  0.1378 -0.3281
  763MOL0     O 2878   3.076   9.051   8.601  0.6100  0.6658  0.5712
  763MOL0     C 2879   3.160   9.045   8.721 -0.1258  0.3877  0.5013
  763MOL0     C 2880   3.319   9.056   8.688  0.3878  0.5953 -0.1666
  763MOL0     C 2881   3.354   9.199   8.660  0.7466 -0.8686 -0.2610
  763MOL0     C 2882   3.503   9.218   8.619 -0.1094 -0.1016 -0.6822
  763MOL0     C 2883   3.548   9.353   8.574  0.6015 -1.0968 -0.3660
  763MOL0     C 2884   3.691   9.344   8.538 -1.0029 -0.1324  0.2193
  763MOL0     C 2885   3.733   9.249   8.430 -0.5424  0.6970  0.3211
  763MOL0     C 2886   3.875   9.260   8.373  0.0081  0.4258  1.2091
  763MOL0     N 2887   3.987   9.256   8.469  0.1585 -0.4458 -0.8032
  763MOL0     C 2888   4.027   9.148   8.543 -0.1698  0.1076 -0.4482
  763MOL0     C 2889   4.118   9.201   8.626  0.0898  0.0108  0.3078
  763MOL0     C 2890   4.205   9.128   8.730  0.5988  0.3200 -0.0571
  763MOL0     C 2891   4.139   9.144   8.870  0.1543 -0.4288 -0.6316
  763MOL0     C 2892   4.152   9.280   8.940 -0.1214  0.7159  0.0335
  763MOL0     C 2893   4.295   9.327   8.941 -0.4251  0.0660 -0.1641
  763MOL0     O 2894   4.363   9.224   9.017 -0.4369 -0.2854 -0.5016
  763MOL0     C 2895   4.500   9.210   8.995 -0.1730  0.3384 -0.8420
  763MOL0     C 2896   4.589   9.323   8.997 -0.2850 -0.5057 -0.6038
  763MOL0     C 2897   4.723   9.302   8.980  0.1233  0.9750  1.0237
  763MOL0     C 2898   4.781   9.170   8.980  0.2522  0.3734 -0.5806
  763MOL0     C 2899   4.929   9.168   8.960  0.1657  0.1293  0.5752
  763MOL0     O 2900   4.995   9.281   8.913 -0.0865 -0.1441  0.3503
  763MOL0     C 2901   5.127   9.296   8.912 -0.4986 -0.6691  0.2795
  763MOL0     C 2902   5.172   9.392   8.822  0.2014 -0.4545  0.7513
  763MOL0     C 2903   5.311   9.408   8.817  0.9966 -0.3358 -1.1014
  763MOL0     C 2904   5.401   9.325   8.890  0.6135 -0.3206 -0.2024
  763MOL0     O 2905   5.537   9.317   8.885  0.0370  0.0560 -0.1906
  763MOL0     C 2906   5.614   9.379   8.775  1.0290  0.4333 -0.4115
  763MOL0     C 2907   5.749   9.329   8.740 -0.9415 -0.4082 -0.6588
  763MOL0     C 2908   5.773   9.186   8.717  0.0284  0.3452  0.9711
  763MOL0     C 2909   5.929   9.167   8.680  0.7987  0.6353 -0.6473
  763MOL0     C 2910   5.943   9.019   8.643  0.5813  0.6958 -1.0102
  763MOL0     C 2911   6.080   8.998   8.578  0.3475  0.4598  0.6960
  763MOL0     C 2912   6.092   8.853   8.529 -0.6567 -0.6105 -0.0659
  763MOL0     C 2913   6.209   8.772   8.587  0.0089  0.0647 -0.6324
  763MOL0    Cl 2914   6.243   8.800   8.761 -0.2912  0.5369  0.0766
  763MOL0     C 2915   5.351   9.227   8.974 -0.9156 -0.3066 -0.7393
  763MOL0     C 2916   5.217   9.219   8.990 -0.6993  0.0852 -0.4309
  763MOL0     O 2917   4.988   9.069   9.003 -0.1790 -0.2405  0.3296
  763MOL0     C 2918   4.698   9.062   8.995  0.2308  0.4429  1.1436
  763MOL0     C 2919   4.555   9.077   9.006 -0.9660 -0.2505  0.7313
  763MOL0     N 2920   4.131   9.332   8.606 -0.7638 -0.9917 -0.9153
  763MOL0     N 2921   4.050   9.371   8.516  0.1041 -0.4272 -0.0672
  763MOL0     C 2922   2.871   9.018   8.501 -0.4109  0.0595 -0.6196
  763MOL0     C 2923   2.736   8.998   8.505 -0.5882 -0.3451  0.3617
  763MOL0     C 2924   2.317   8.876   8.566 -1.1605 -0.7795 -1.3421
  763MOL0     C 2925   2.333   8.746   8.620 -0.2063  0.0321 -0.0930
  763MOL0     C 2926   2.227   8.655   8.632 -0.0466 -0.5254  0.5246
  763MOL0     C 2927   2.097   8.698   8.609  0.3608  0.0793  0.6924
  763MOL0     O 2928   2.005   8.606   8.637 -0.1345 -0.1671  0.0093
  763MOL0     C 2929   1.870   8.643   8.601 -0.7575  0.3745  0.5335
  763MOL0     C 2930   1.824   8.655   8.455  0.4610 -0.0817 -0.2323
  763MOL0     C 2931   1.664   8.673   8.424  0.9988  0.5320  0.0779
  763MOL0     C 2932   1.609   8.809   8.481  0.0652 -0.3945  0.0924
  763MOL0     C 2933   1.691   8.937   8.465 -0.8905 -0.0361  0.4609
  763MOL0     C 2934   1.745   9.044   8.460  0.8325 -0.6276 -0.2744
  763MOL0     C 2935   2.076   8.830   8.551 -1.1094 -0.0071 -0.3078
  763MOL0     C 2936   2.193   8.909   8.521  0.3233  0.0600 -0.0402
  763MOL0     C 2937   2.160   9.027   8.437  0.2767 -0.1980 -1.2324
  763MOL0     H 2938   2.689   8.969   8.830 -2.7190 -0.2193 -1.7814
  763MOL0     H 2939   2.943   9.004   8.833 -2.0118 -2.8209  1.4485
  763MOL0     H 2940   3.120   9.117   8.793 -1.6482 -1.8575  2.0218
  763MOL0     H 2941   3.144   8.954   8.779 -0.5696  1.3601  1.9732
  763MOL0     H 2942   3.339   9.001   8.596 -0.2302  1.3467 -0.7707
  763MOL0     H 2943   3.376   9.025   8.776  0.4513 -0.2300 -0.4912
  763MOL0     H 2944   3.326   9.267   8.740 -0.6334  1.0070 -2.2369
  763MOL0     H 2945   3.280   9.224   8.583  0.7145 -3.8657 -1.3373
  763MOL0     H 2946   3.567   9.189   8.704  0.6261 -2.7814 -2.0339
  763MOL0     H 2947   3.531   9.146   8.542  2.0217 -0.8430  0.6738
  763MOL0     H 2948   3.481   9.370   8.489  0.5259  0.5127 -0.0218
  763MOL0     H 2949   3.515   9.418   8.655 -1.5214 -1.1243 -1.1364
  763MOL0     H 2950   3.733   9.445   8.526 -2.5001  0.5004  0.0811
  763MOL0     H 2951   3.748   9.303   8.622  1.1628  0.5498 -0.8426
  763MOL0     H 2952   3.669   9.265   8.342  0.8760  2.3449 -0.4759
  763MOL0     H 2953   3.735   9.143   8.457  0.7918 -0.0084 -2.1329
  763MOL0     H 2954   3.890   9.180   8.299 -0.3264  3.3951 -2.3942
  763MOL0     H 2955   3.885   9.347   8.307  1.0867 -0.8383 -0.3730
  763MOL0     H 2956   3.992   9.046   8.532  0.1252 -0.1243  0.6207
  763MOL0     H 2957   4.209   9.024   8.698  2.0524  0.7275 -1.3117
  763MOL0     H 2958   4.310   9.156   8.733  0.6118  0.2307  1.6070
  763MOL0     H 2959   4.034   9.117   8.854 -0.1104  0.5001 -0.5101
  763MOL0     H 2960   4.185   9.071   8.938  0.9739  0.1008 -0.6106
  763MOL0     H 2961   4.122   9.264   9.044 -0.8792 -0.1550 -0.3036
  763MOL0     H 2962   4.088   9.356   8.893 -1.2180  0.1069  0.5048
  763MOL0     H 2963   4.310   9.425   8.986  3.4144 -0.4830  0.1157
  763MOL0     H 2964   4.336   9.342   8.840 -1.6620  3.0711 -0.3182
  763MOL0     H 2965   4.547   9.421   9.017  1.3211 -0.1530  1.4055
  763MOL0     H 2966   4.781   9.393   8.967  0.7272  0.5714  0.8289
  763MOL0     H 2967   5.116   9.460   8.759 -0.7112 -2.1382 -0.3259
  763MOL0     H 2968   5.351   9.490   8.757 -0.3645  2.0563  1.0693
  763MOL0     H 2969   5.557   9.359   8.684  0.5366 -0.2000  0.0251
  763MOL0     H 2970   5.622   9.488   8.776 -1.3095  0.6740  1.2406
  763MOL0     H 2971   5.777   9.398   8.660 -1.5560  1.6287  0.8121
  763MOL0     H 2972   5.822   9.362   8.815 -1.8503  1.4305 -0.5309
  763MOL0     H 2973   5.733   9.128   8.801 -2.1468 -3.4700 -2.3458
  763MOL0     H 2974   5.710   9.164   8.631 -2.4156  1.6837  2.3324
  763MOL0     H 2975   5.990   9.203   8.764  0.3714  0.4637 -0.2597
  763MOL0     H 2976   5.946   9.227   8.590  2.3555 -0.6986 -1.2869
  763MOL0     H 2977   5.861   8.988   8.579 -0.5599  1.1042  0.2063
  763MOL0     H 2978   5.932   8.954   8.731 -0.6602  0.8385 -1.0394
  763MOL0     H 2979   6.085   9.065   8.491 -0.3081 -0.0133  0.2907
  763MOL0     H 2980   6.160   9.026   8.647  0.9928 -0.4969  0.3599
  763MOL0     H 2981   6.084   8.852   8.420 -2.5669 -1.4584  0.0472
  763MOL0     H 2982   6.000   8.798   8.552 -2.1024  1.6173 -0.2204
  763MOL0     H 2983   6.183   8.667   8.576  0.6106 -0.3811  1.6809
  763MOL0     H 2984   6.298   8.808   8.533  1.4332  0.5425  1.9059
  763MOL0     H 2985   5.414   9.160   9.031  0.1244  0.8561 -0.4742
  763MOL0     H 2986   5.197   9.140   9.062  2.2526  0.1807  0.6485
  763MOL0     H 2987   4.729   8.958   8.990 -2.7390 -0.7992  4.3536
  763MOL0     H 2988   4.491   8.989   9.014 -1.5128 -0.1347 -1.5775
  763MOL0     H 2989   2.918   9.042   8.406  1.1194  0.5093  0.2059
  763MOL0     H 2990   2.685   8.993   8.410  0.7307 -1.7315 -0.3110
  763MOL0     H 2991   2.433   8.712   8.644 -0.1298  0.4151  0.1298
  763MOL0     H 2992   2.242   8.549   8.645  1.8240 -0.4263 -0.4724
  763MOL0     H 2993   1.859   8.741   8.647  1.4928  0.7469  0.4251
  763MOL0     H 2994   1.805   8.563   8.639 -1.4074 -0.1232 -1.4859
  763MOL0     H 2995   1.860   8.560   8.414 -0.8649 -0.4671 -0.5403
  763MOL0     H 2996   1.866   8.741   8.403  0.5648 -1.2634 -2.1834
  763MOL0     H 2997   1.614   8.585   8.466  0.0217 -0.0201 -2.0928
  763MOL0     H 2998   1.649   8.685   8.317  1.7178  1.6662  0.0901
  763MOL0     H 2999   1.519   8.819   8.420  2.5426 -3.1357 -4.5570
  763MOL0     H 3000   1.593   8.803   8.589  0.8954 -0.4118  0.2218
  763MOL0     H 3001   1.793   9.139   8.449 -0.3823  0.1473  0.8577
  763MOL0     H 3002   1.978   8.854   8.510 -2.5933 -2.6427  1.4200
  763MOL0     H 3003   2.056   9.060   8.447 -0.1509 -2.1144  1.6736
  763MOL0     H 3004   2.216   9.120   8.447 -0.2444  0.4052 -3.3571
  763MOL0     H 3005   2.166   9.012   8.328  0.4571 -0.2119 -1.2206
  764MOL0     O 3006   8.841   8.134   1.186  0.1662 -0.1399  0.8094
  764MOL0     C 3007   8.789   8.235   1.231  0.3088  0.1288  0.8590
  764MOL0     O 3008   8.857   8.336   1.289  0.1622 -0.0953  0.6462
  764MOL0     C 3009   8.995   8.321   1.316 -0.2208 -0.3400  0.0324
  764MOL0     C 3010   9.086   8.405   1.255 -0.1743 -0.3008  0.8334
  764MOL0     C 3011   9.221   8.391   1.298 -0.1574 -0.9771  0.2111
  764MOL0     C 3012   9.261   8.296   1.398  0.9818 -0.6527  0.0666
  764MOL0     O 3013   9.388   8.279   1.442  0.8811  0.7241 -0.4508
  764MOL0     C 3014   9.484   8.348   1.373 -0.1605 -0.5695  0.3439
  764MOL0     C 3015   9.625   8.348   1.439  0.1547  1.1218 -0.1388
  764MOL0     C 3016   9.629   8.417   1.578  0.3185 -0.2996 -0.1494
  764MOL0     C 3017   9.776   8.450   1.617  0.7970 -0.2382 -0.5932
  764MOL0     C 3018   9.851   8.319   1.646  0.0380  0.5224 -0.3312
  764MOL0     C 3019   9.983   8.358   1.714  1.2476  0.6936  0.5034
  764MOL0     C 3020  10.051   8.244   1.787  0.0772 -0.6094 -0.6996
  764MOL0     C 3021  10.182   8.290   1.836 -0.1837  0.3233 -0.4235
  764MOL0     N 3022  10.255   8.184   1.913  1.2744  0.3188 -0.5187
  764MOL0     C 3023  10.300   8.060   1.874 -0.0707  0.6652  0.3491
  764MOL0     C 3024  10.405   8.031   1.950 -0.3395  0.6725 -0.5129
  764MOL0     C 3025  10.511   7.927   1.917 -0.3510  0.1676 -0.6438
  764MOL0     C 3026  10.643   7.991   1.872 -0.1042  0.3499  0.2992
  764MOL0     C 3027  10.761   7.907   1.832 -0.3161  0.1718  0.2382
  764MOL0     C 3028  10.836   7.815   1.925 -0.2685  0.6121 -0.2785
  764MOL0     O 3029  10.903   7.714   1.853  0.4734 -0.0427  0.4115
  764MOL0     C 3030  11.034   7.738   1.822  0.8968 -0.6407  0.4219
  764MOL0     C 3031  11.105   7.630   1.763  0.2824  0.3442 -0.2540
  764MOL0     C 3032  11.238   7.645   1.720  0.0962  0.4811 -0.3815
  764MOL0     C 3033  11.305   7.770   1.728  0.1804 -0.0577  0.7233
  764MOL0     C 3034  11.431   7.794   1.654 -0.3413  1.1267 -0.0383
  764MOL0     O 3035  11.491   7.689   1.598 -0.2100 -0.5591 -0.1783
  764MOL0     C 3036  11.607   7.674   1.528 -0.0404 -0.5626  0.5734
  764MOL0     C 3037  11.631   7.551   1.470 -0.4584 -0.5710  0.5374
  764MOL0     C 3038  11.747   7.534   1.388 -0.0999  0.8366 -0.2679
  764MOL0     C 3039  11.836   7.631   1.366  0.8250 -0.6830 -0.0564
  764MOL0     O 3040  11.955   7.608   1.299 -0.1164 -0.2715 -0.0928
  764MOL0     C 3041  11.996   7.482   1.227  0.6600 -0.1979  0.7893
  764MOL0     C 3042  12.054   7.391   1.326 -0.5836 -0.2939  0.6303
  764MOL0     C 3043  12.111   7.264   1.264  0.0762  0.6560 -0.0431
  764MOL0     C 3044  12.217   7.217   1.360 -0.3062 -0.2675 -0.7248
  764MOL0     C 3045  12.157   7.157   1.484  0.5145 -0.1473  0.2159
  764MOL0     C 3046  12.237   7.175   1.616 -0.3850 -0.4646  0.2359
  764MOL0     C 3047  12.382   7.112   1.599  0.6869 -0.2851  1.2654
  764MOL0     C 3048  12.467   7.129   1.726 -1.0272  0.1151 -0.2130
  764MOL0    Cl 3049  12.373   7.093   1.880  0.3437  0.6617 -0.4920
  764MOL0     C 3050  11.816   7.755   1.436 -0.0449 -0.1861 -0.1383
  764MOL0     C 3051  11.706   7.773   1.515  0.0533  0.3710 -0.6703
  764MOL0     O 3052  11.477   7.910   1.659  0.2755  0.7298 -0.3008
  764MOL0     C 3053  11.232   7.878   1.785  0.6572  0.2598  0.4366
  764MOL0     C 3054  11.105   7.851   1.843 -0.8560 -0.8040 -0.0532
  764MOL0     N 3055  10.418   8.133   2.036 -0.0457 -0.7708 -0.2037
  764MOL0     N 3056  10.325   8.226   2.021 -0.4370  0.3897  0.5897
  764MOL0     C 3057   9.157   8.219   1.457  0.0346 -0.3551  0.7484
  764MOL0     C 3058   9.038   8.227   1.407  0.8476 -0.2235 -1.2203
  764MOL0     C 3059   8.639   8.244   1.231  0.5740  0.3770  0.3774
  764MOL0     C 3060   8.585   8.374   1.244 -0.4177  0.4100  0.1440
  764MOL0     C 3061   8.453   8.398   1.260 -0.3843  0.3510  0.8534
  764MOL0     C 3062   8.357   8.296   1.253  0.3387 -0.8695 -0.0738
  764MOL0     O 3063   8.223   8.335   1.266  0.6111  0.4999 -0.1128
  764MOL0     C 3064   8.117   8.250   1.226 -0.1789  0.2135  0.9755
  764MOL0     C 3065   8.069   8.161   1.346 -0.0029 -0.2802  0.4814
  764MOL0     C 3066   7.967   8.226   1.439 -0.6609  0.0540  0.7256
  764MOL0     C 3067   7.903   8.121   1.527 -0.4045  0.1308  0.8072
  764MOL0     C 3068   7.795   8.188   1.600 -0.1901 -0.2807  0.2779
  764MOL0     C 3069   7.706   8.235   1.667  0.1466 -0.2819  0.5584
  764MOL0     C 3070   8.407   8.163   1.237  0.3335 -0.3905 -0.1257
  764MOL0     C 3071   8.544   8.139   1.212  0.0745  0.5889  0.0593
  764MOL0     C 3072   8.591   7.995   1.210 -0.6962  0.7508 -0.0345
  764MOL0     H 3073   9.054   8.478   1.182 -0.6698 -0.5619  0.7880
  764MOL0     H 3074   9.280   8.468   1.249 -3.4840  3.4859  2.5410
  764MOL0     H 3075   9.477   8.315   1.269 -2.6941 -0.2173  0.3292
  764MOL0     H 3076   9.460   8.454   1.385  2.1087  0.1718 -1.0788
  764MOL0     H 3077   9.692   8.401   1.371  0.0706  1.8190  0.3099
  764MOL0     H 3078   9.664   8.248   1.419 -0.4715  0.7514  0.4331
  764MOL0     H 3079   9.583   8.354   1.655  0.7290 -0.6806 -0.2137
  764MOL0     H 3080   9.579   8.514   1.568  0.2512 -0.3271 -0.0811
  764MOL0     H 3081   9.822   8.504   1.533 -0.6836  1.4345 -0.3953
  764MOL0     H 3082   9.772   8.518   1.702 -0.3577 -2.0322  0.8634
  764MOL0     H 3083   9.792   8.255   1.713  0.3306 -1.6291 -2.0319
  764MOL0     H 3084   9.869   8.255   1.560 -3.0095 -1.4450  0.3154
  764MOL0     H 3085  10.041   8.397   1.630 -1.3318  0.9875 -1.2567
  764MOL0     H 3086   9.969   8.443   1.782  1.7873  1.3683 -0.2063
  764MOL0     H 3087  10.062   8.153   1.728  3.4887 -2.4765  2.3417
  764MOL0     H 3088   9.989   8.225   1.876 -0.6324  0.7527 -0.8911
  764MOL0     H 3089  10.250   8.316   1.754 -1.8668 -0.2347 -2.0589
  764MOL0     H 3090  10.160   8.379   1.896 -3.6430 -2.4418  2.9195
  764MOL0     H 3091  10.256   8.006   1.791  0.9860 -0.5553  0.5555
  764MOL0     H 3092  10.525   7.856   2.000 -0.2173  2.4282  1.3854
  764MOL0     H 3093  10.473   7.862   1.838 -1.8322  1.1166 -0.7487
  764MOL0     H 3094  10.630   8.052   1.782  2.9290  0.4984 -0.1586
  764MOL0     H 3095  10.672   8.059   1.952 -0.8364  1.2193 -0.1521
  764MOL0     H 3096  10.838   7.981   1.811 -0.1107 -0.1555 -0.1785
  764MOL0     H 3097  10.738   7.848   1.743  1.4796 -2.6652  1.4897
  764MOL0     H 3098  10.764   7.760   1.987 -0.7808  0.2585 -1.1628
  764MOL0     H 3099  10.900   7.871   1.993  0.0005  0.6007 -0.5185
  764MOL0     H 3100  11.063   7.529   1.763 -0.6773  0.6944 -2.0665
  764MOL0     H 3101  11.284   7.564   1.663  0.0113  1.1486 -1.4288
  764MOL0     H 3102  11.561   7.470   1.492 -1.6026  0.1949 -0.1670
  764MOL0     H 3103  11.750   7.444   1.327 -1.6790 -0.3333  1.2647
  764MOL0     H 3104  11.906   7.444   1.178 -0.0221 -0.9221  2.5055
  764MOL0     H 3105  12.066   7.484   1.143  1.1992 -0.4845  1.2239
  764MOL0     H 3106  12.139   7.449   1.366 -2.2804  2.0735  1.0348
  764MOL0     H 3107  11.977   7.370   1.399 -1.9563 -0.0203 -0.6837
  764MOL0     H 3108  12.043   7.183   1.238  1.7002 -1.2968  1.4445
  764MOL0     H 3109  12.163   7.277   1.169 -0.0931 -1.7513 -0.5253
  764MOL0     H 3110  12.287   7.297   1.387 -1.1780  0.1169  0.4991
  764MOL0     H 3111  12.281   7.139   1.318  0.3374 -2.2549  3.4871
  764MOL0     H 3112  12.141   7.051   1.463 -1.7417 -0.3819  2.5989
  764MOL0     H 3113  12.058   7.200   1.501  1.9874  2.6689  2.4580
  764MOL0     H 3114  12.237   7.282   1.639 -0.0760 -0.4003 -0.0460
  764MOL0     H 3115  12.171   7.130   1.691  0.2707  0.8119  1.6332
  764MOL0     H 3116  12.435   7.162   1.517 -3.0802  3.2604  0.6719
  764MOL0     H 3117  12.361   7.005   1.587 -3.7581  0.4403  0.8169
  764MOL0     H 3118  12.555   7.065   1.713 -0.8640  0.8140 -3.1109
  764MOL0     H 3119  12.511   7.228   1.735 -0.9616  0.0591  0.1053
  764MOL0     H 3120  11.896   7.828   1.441  2.5402 -2.7204 -1.5219
  764MOL0     H 3121  11.688   7.868   1.565 -0.3332  0.9735 -1.9042
  764MOL0     H 3122  11.272   7.979   1.796  0.0618  0.4232  1.2107
  764MOL0     H 3123  11.072   7.945   1.887 -1.4021 -1.4302  0.9173
  764MOL0     H 3124   9.175   8.147   1.537 -3.9782 -1.2907  1.0492
  764MOL0     H 3125   8.970   8.157   1.456  0.9979  1.9541  2.4977
  764MOL0     H 3126   8.649   8.460   1.257 -1.2647  0.7472  2.6612
  764MOL0     H 3127   8.422   8.495   1.294 -0.0828  0.9856 -0.5953
  764MOL0     H 3128   8.149   8.191   1.140 -2.5865  0.7203 -0.3596
  764MOL0     H 3129   8.034   8.315   1.194  0.7078  0.1147 -1.7555
  764MOL0     H 3130   8.154   8.123   1.403 -0.2860 -3.0156 -0.7265
  764MOL0     H 3131   8.031   8.065   1.310 -1.4041  0.5890 -0.4374
  764MOL0     H 3132   7.892   8.271   1.373 -0.1193 -1.4377 -0.9879
  764MOL0     H 3133   8.024   8.309   1.483  2.4734 -0.7482 -1.4434
  764MOL0     H 3134   7.859   8.035   1.474 -1.3629  2.1985 -1.9647
  764MOL0     H 3135   7.968   8.086   1.608 -1.9808  1.3702  2.7212
  764MOL0     H 3136   7.631   8.290   1.722  0.1195  1.3118 -0.9775
  764MOL0     H 3137   8.334   8.083   1.229 -2.1023  1.8168 -1.7047
  764MOL0     H 3138   8.508   7.932   1.240  0.1410 -0.7509 -0.7600
  764MOL0     H 3139   8.614   7.948   1.114 -1.7137  2.4435 -1.1611
  764MOL0     H 3140   8.674   7.983   1.281 -0.0973  0.6020 -0.7426
  765MOL0     O 3141   0.887   1.046   6.396  0.5041 -0.4033  0.0462
  765MOL0     C 3142   0.887   0.928   6.426  0.2152  0.1084 -0.8499
  765MOL0     O 3143   0.995   0.849   6.449 -0.5648 -0.6132 -0.2019
  765MOL0     C 3144   1.120   0.903   6.414 -0.0239  0.7669  0.0239
  765MOL0     C 3145   1.215   0.880   6.514 -0.6943 -0.3063  0.9158
  765MOL0     C 3146   1.343   0.939   6.488 -0.1656  0.3107 -0.0198
  765MOL0     C 3147   1.372   1.005   6.370 -0.6696 -0.2441 -0.3538
  765MOL0     O 3148   1.488   1.074   6.354 -0.5068  0.2609  0.0266
  765MOL0     C 3149   1.614   1.007   6.372 -0.0298  0.1341 -0.4110
  765MOL0     C 3150   1.697   1.010   6.240 -0.1830 -0.4288 -0.6644
  765MOL0     C 3151   1.837   0.951   6.272 -1.2942  0.4739 -0.2494
  765MOL0     C 3152   1.919   0.931   6.141 -0.4953  0.5656 -0.3099
  765MOL0     C 3153   2.016   1.043   6.091  0.1521 -0.3197 -0.6974
  765MOL0     C 3154   1.938   1.180   6.060 -1.2656  0.5985 -0.2601
  765MOL0     C 3155   2.054   1.256   5.979  0.3138  0.1705  0.3989
  765MOL0     C 3156   2.002   1.381   5.898 -0.7336 -0.8211 -0.2505
  765MOL0     N 3157   2.105   1.476   5.858 -0.8228  0.0989  0.8905
  765MOL0     C 3158   2.184   1.455   5.744 -0.2816  0.2818 -0.1083
  765MOL0     C 3159   2.230   1.582   5.715 -0.2534  0.5233 -0.0735
  765MOL0     C 3160   2.317   1.634   5.606 -0.0941 -0.6211  0.2116
  765MOL0     C 3161   2.422   1.534   5.553 -0.1656 -0.5565  0.7209
  765MOL0     C 3162   2.364   1.433   5.445  0.1119 -0.0639 -0.5678
  765MOL0     C 3163   2.458   1.320   5.429  0.8483  0.4772  0.1052
  765MOL0     O 3164   2.587   1.387   5.401 -0.4019  0.5463  0.4446
  765MOL0     C 3165   2.705   1.328   5.432  0.5264  0.6906  0.1826
  765MOL0     C 3166   2.818   1.409   5.452 -0.4805 -0.2511  0.1082
  765MOL0     C 3167   2.942   1.356   5.475  0.2139  0.8536  0.0226
  765MOL0     C 3168   2.960   1.216   5.487 -0.2768  0.4216 -0.0785
  765MOL0     C 3169   3.097   1.175   5.521 -0.3891  0.9501 -0.4985
  765MOL0     O 3170   3.205   1.263   5.507  0.4186  0.0678 -0.0602
  765MOL0     C 3171   3.331   1.232   5.557 -0.0535  0.1207  0.2611
  765MOL0     C 3172   3.360   1.203   5.689  0.5738  0.0975  0.1985
  765MOL0     C 3173   3.494   1.197   5.724 -0.8129 -0.4370  0.2874
  765MOL0     C 3174   3.602   1.201   5.629 -0.0252  0.1390  0.8835
  765MOL0     O 3175   3.737   1.182   5.656  0.4203  0.4579 -0.0790
  765MOL0     C 3176   3.763   1.213   5.795  0.2253  0.4248 -0.7485
  765MOL0     C 3177   3.917   1.229   5.817  0.3503  0.3583  0.7385
  765MOL0     C 3178   3.994   1.322   5.717  0.8129  0.2925  0.3521
  765MOL0     C 3179   4.136   1.341   5.766 -0.1446  0.7213 -0.1478
  765MOL0     C 3180   4.213   1.213   5.779  0.1045  0.0369 -0.4578
  765MOL0     C 3181   4.360   1.246   5.775  0.2937  0.3769  0.4045
  765MOL0     C 3182   4.449   1.115   5.768  0.0827 -0.8781 -0.0794
  765MOL0     C 3183   4.600   1.143   5.750  0.0412 -0.3503 -0.5251
  765MOL0    Cl 3184   4.710   1.004   5.793 -0.2511 -0.3240  0.0382
  765MOL0     C 3185   3.566   1.230   5.497  0.4141  0.0183 -0.3524
  765MOL0     C 3186   3.429   1.238   5.459 -0.5512  0.8763 -0.0713
  765MOL0     O 3187   3.099   1.064   5.578 -0.2275 -0.0590 -0.4623
  765MOL0     C 3188   2.846   1.133   5.479 -0.7561  0.2601 -0.3223
  765MOL0     C 3189   2.715   1.190   5.453 -0.2620  0.3485  0.2228
  765MOL0     N 3190   2.173   1.670   5.811  0.0168 -0.5962  1.1494
  765MOL0     N 3191   2.107   1.603   5.896  0.1447 -0.8103 -0.0162
  765MOL0     C 3192   1.281   1.003   6.263  0.1934  0.1959 -0.5209
  765MOL0     C 3193   1.157   0.943   6.282 -0.2806 -0.2056  0.2429
  765MOL0     C 3194   0.752   0.872   6.450  0.5908 -0.0192  0.1401
  765MOL0     C 3195   0.644   0.913   6.369 -0.3338 -0.7941 -0.0343
  765MOL0     C 3196   0.514   0.863   6.383  0.2003  0.2879  0.4567
  765MOL0     C 3197   0.490   0.768   6.476  0.6409  1.0223  0.2224
  765MOL0     O 3198   0.377   0.689   6.489 -0.7209  0.0178  0.1862
  765MOL0     C 3199   0.246   0.729   6.506  0.7978 -0.3582  0.4394
  765MOL0     C 3200   0.142   0.623   6.442 -0.4175  0.1934  0.1566
  765MOL0     C 3201   0.107   0.494   6.536  0.0844 -0.5442 -0.2025
  765MOL0     C 3202   0.035   0.542   6.673 -0.0083 -0.3059 -0.0491
  765MOL0     C 3203  -0.076   0.629   6.638  0.5776  0.3205 -0.4576
  765MOL0     C 3204  -0.170   0.704   6.623 -0.1073  0.5405 -0.7509
  765MOL0     C 3205   0.597   0.714   6.551  0.7718 -0.2257 -0.1871
  765MOL0     C 3206   0.726   0.768   6.544  0.0199 -0.3401  0.1487
  765MOL0     C 3207   0.825   0.723   6.643 -1.0911  0.0728  0.2286
  765MOL0     H 3208   1.198   0.813   6.598 -0.6438  0.2265  1.3598
  765MOL0     H 3209   1.425   0.931   6.558 -0.3983 -0.7431  0.1435
  765MOL0     H 3210   1.679   1.044   6.452 -1.2742 -0.2625  0.8060
  765MOL0     H 3211   1.591   0.903   6.395  1.0929 -0.0708 -0.1630
  765MOL0     H 3212   1.708   1.113   6.203 -2.0562 -0.5354 -1.5950
  765MOL0     H 3213   1.647   0.968   6.153 -2.5916  3.3689 -1.3719
  765MOL0     H 3214   1.839   0.859   6.330 -0.6948  0.6814  0.0818
  765MOL0     H 3215   1.891   1.025   6.334  1.7289 -0.4588 -1.5644
  765MOL0     H 3216   1.982   0.842   6.151  3.2244  2.9651 -0.6163
  765MOL0     H 3217   1.852   0.921   6.055  0.0288 -0.8249 -0.5892
  765MOL0     H 3218   2.104   1.048   6.156  0.1153  3.4410 -0.7356
  765MOL0     H 3219   2.062   1.007   5.999  0.0847 -2.3997  0.0281
  765MOL0     H 3220   1.849   1.175   5.996 -1.0380  0.4796 -0.5683
  765MOL0     H 3221   1.918   1.240   6.149  1.9035  1.6798 -0.1431
  765MOL0     H 3222   2.090   1.186   5.902 -1.2690 -1.5938  1.1828
  765MOL0     H 3223   2.140   1.284   6.041 -0.3496  1.9807  0.5540
  765MOL0     H 3224   1.958   1.364   5.799 -2.0891 -0.2721  0.2315
  765MOL0     H 3225   1.931   1.439   5.957 -2.1240  0.1089 -2.6607
  765MOL0     H 3226   2.184   1.361   5.689 -0.9733 -0.2376  0.7493
  765MOL0     H 3227   2.253   1.668   5.524 -0.2419  0.1122  0.6249
  765MOL0     H 3228   2.371   1.725   5.637  0.5632 -0.5713 -0.9908
  765MOL0     H 3229   2.511   1.584   5.514 -1.3471  1.4592  0.4543
  765MOL0     H 3230   2.453   1.478   5.642  0.1481 -2.1577 -0.3718
  765MOL0     H 3231   2.345   1.479   5.347 -2.2505 -1.4468 -0.8480
  765MOL0     H 3232   2.273   1.388   5.487  0.0599  0.3228 -0.2565
  765MOL0     H 3233   2.428   1.257   5.345  0.5525 -1.0507  1.3077
  765MOL0     H 3234   2.455   1.259   5.520 -1.1144 -0.7057 -0.6761
  765MOL0     H 3235   2.812   1.516   5.435  4.5339  0.1821 -0.4955
  765MOL0     H 3236   3.012   1.439   5.475  0.9239  0.3483 -2.4774
  765MOL0     H 3237   3.275   1.193   5.755 -0.0344 -0.6283 -0.6842
  765MOL0     H 3238   3.522   1.197   5.828  0.8383  1.3524 -0.0930
  765MOL0     H 3239   3.721   1.309   5.825 -0.8268 -0.0488 -0.6664
  765MOL0     H 3240   3.735   1.127   5.856 -1.0297  1.0308 -0.4300
  765MOL0     H 3241   3.933   1.259   5.921  3.1730  1.0409  0.1970
  765MOL0     H 3242   3.943   1.125   5.801  0.7527  0.5392  0.2204
  765MOL0     H 3243   3.996   1.270   5.621  1.1517  0.6418  0.1688
  765MOL0     H 3244   3.945   1.419   5.708 -2.4828 -1.2749 -0.0485
  765MOL0     H 3245   4.146   1.388   5.864 -0.4163 -0.7703  0.6210
  765MOL0     H 3246   4.192   1.409   5.701  3.3825 -1.4690  0.3267
  765MOL0     H 3247   4.195   1.143   5.696 -0.8182 -1.5170  0.9883
  765MOL0     H 3248   4.183   1.173   5.876  0.0213 -0.7019 -0.7863
  765MOL0     H 3249   4.388   1.308   5.689  0.5201  2.0082  1.6016
  765MOL0     H 3250   4.389   1.298   5.867 -1.4376  1.6031  0.2916
  765MOL0     H 3251   4.417   1.066   5.676 -1.3872  0.6127 -0.4005
  765MOL0     H 3252   4.433   1.054   5.858  0.5966  0.9732  1.3563
  765MOL0     H 3253   4.619   1.181   5.649  0.0015  1.1029 -0.0100
  765MOL0     H 3254   4.620   1.227   5.817 -2.3245  0.3250 -0.5757
  765MOL0     H 3255   3.646   1.227   5.423  2.7999 -0.5282  2.0927
  765MOL0     H 3256   3.415   1.250   5.352  0.1099 -1.4026 -0.4796
  765MOL0     H 3257   2.858   1.026   5.493  0.4659 -0.0309 -2.8802
  765MOL0     H 3258   2.633   1.119   5.454  0.4932 -0.5930 -1.0053
  765MOL0     H 3259   1.309   1.055   6.171 -2.0071 -0.2285 -1.4961
  765MOL0     H 3260   1.087   0.946   6.199 -0.9053  0.9045  0.7940
  765MOL0     H 3261   0.649   0.992   6.294 -0.3944 -0.2310  0.5424
  765MOL0     H 3262   0.434   0.890   6.315  1.9474  0.5652 -1.6020
  765MOL0     H 3263   0.236   0.829   6.463 -0.9791 -0.6511  0.1031
  765MOL0     H 3264   0.236   0.732   6.615  2.3773  2.3326  0.6000
  765MOL0     H 3265   0.185   0.588   6.348 -1.6748 -0.3861 -0.2252
  765MOL0     H 3266   0.048   0.676   6.424 -0.5788  0.9877  2.8804
  765MOL0     H 3267   0.193   0.433   6.568 -0.3363 -0.9840  0.1062
  765MOL0     H 3268   0.041   0.426   6.481 -0.6305 -1.4892  1.6933
  765MOL0     H 3269   0.005   0.454   6.730  1.6242 -1.6047 -1.1238
  765MOL0     H 3270   0.104   0.598   6.738  1.9842  3.6297 -4.8583
  765MOL0     H 3271  -0.251   0.775   6.616  0.1167  0.7538 -1.1901
  765MOL0     H 3272   0.577   0.625   6.609 -0.5269 -0.7140 -1.3221
  765MOL0     H 3273   0.778   0.648   6.708  3.3167 -1.9255  1.5270
  765MOL0     H 3274   0.913   0.669   6.607 -1.6113 -0.0175 -0.9549
  765MOL0     H 3275   0.857   0.799   6.715  0.7383 -1.5698  1.2578
  766MOL0     O 3276   1.293   3.908   8.669 -1.0335  0.0672  0.3538
  766MOL0     C 3277   1.200   3.963   8.612  0.0003 -0.2001 -1.0828
  766MOL0     O 3278   1.187   4.097   8.592  0.2255  0.0902 -0.1134
  766MOL0     C 3279   1.299   4.170   8.557  0.1932  0.2917 -0.5152
  766MOL0     C 3280   1.294   4.311   8.582 -0.2496  0.3665  0.1038
  766MOL0     C 3281   1.406   4.382   8.552 -0.1504 -0.1321 -1.1635
  766MOL0     C 3282   1.519   4.334   8.485  0.1075  0.6159 -0.6213
  766MOL0     O 3283   1.621   4.422   8.478  1.2117 -0.7829  0.1703
  766MOL0     C 3284   1.761   4.392   8.442  0.2862  0.4833 -0.4748
  766MOL0     C 3285   1.843   4.329   8.545  0.2659  0.0014 -0.1797
  766MOL0     C 3286   1.995   4.324   8.508  0.6762 -0.1740 -0.0480
  766MOL0     C 3287   2.070   4.244   8.612 -0.6968 -0.1882 -0.3520
  766MOL0     C 3288   2.212   4.214   8.559 -0.0977 -0.1186  0.3213
  766MOL0     C 3289   2.307   4.120   8.647 -0.1423 -0.3737 -0.2480
  766MOL0     C 3290   2.444   4.082   8.573  0.1507 -0.2033  0.1685
  766MOL0     C 3291   2.544   3.994   8.653 -0.2624 -0.3059  0.0354
  766MOL0     N 3292   2.683   3.985   8.594  0.5739  0.3122 -0.3211
  766MOL0     C 3293   2.715   3.943   8.469  0.4421  0.3192 -0.0367
  766MOL0     C 3294   2.849   3.955   8.457 -0.8383  0.8650  1.1076
  766MOL0     C 3295   2.934   3.913   8.331  0.7562  0.4904 -0.2247
  766MOL0     C 3296   3.079   3.917   8.359  1.1129  0.4349 -0.2160
  766MOL0     C 3297   3.148   3.864   8.234  0.4010  0.3750 -0.5164
  766MOL0     C 3298   3.293   3.831   8.254  0.3575  0.2223  0.5778
  766MOL0     O 3299   3.300   3.721   8.341 -0.5519  0.5230  0.4052
  766MOL0     C 3300   3.425   3.670   8.347 -0.6353  0.8294  0.6777
  766MOL0     C 3301   3.540   3.725   8.292 -0.4814  0.4393  0.4644
  766MOL0     C 3302   3.666   3.661   8.297 -0.0288 -0.5902  0.6355
  766MOL0     C 3303   3.685   3.537   8.362 -0.2484 -0.9079  0.4759
  766MOL0     C 3304   3.806   3.466   8.375  0.1263 -0.0488  0.5437
  766MOL0     O 3305   3.921   3.542   8.346  0.6706 -0.7568  0.5522
  766MOL0     C 3306   4.042   3.515   8.402  1.0824 -0.5320  0.0333
  766MOL0     C 3307   4.055   3.525   8.539 -0.2811  0.2450 -0.1218
  766MOL0     C 3308   4.191   3.503   8.592 -0.0746  1.1913 -1.0741
  766MOL0     C 3309   4.294   3.468   8.512 -0.8518  0.5567 -0.8662
  766MOL0     O 3310   4.413   3.451   8.577 -0.2782  0.3881 -0.1184
  766MOL0     C 3311   4.527   3.531   8.522 -0.4458  0.4092  0.5745
  766MOL0     C 3312   4.655   3.448   8.540  0.4656  0.5572  0.5209
  766MOL0     C 3313   4.791   3.511   8.477  0.0514 -0.6071 -0.2130
  766MOL0     C 3314   4.868   3.595   8.589  0.2029  0.1912  0.3334
  766MOL0     C 3315   4.984   3.671   8.518  1.1110 -0.0861  0.0866
  766MOL0     C 3316   5.085   3.727   8.613 -0.4640  0.5281 -0.8790
  766MOL0     C 3317   5.186   3.614   8.652 -0.1191 -0.7156  0.1517
  766MOL0     C 3318   5.305   3.688   8.727 -0.5338  0.3792  0.4785
  766MOL0    Cl 3319   5.463   3.700   8.643  0.1799  0.4218  0.4116
  766MOL0     C 3320   4.274   3.443   8.377  0.1514 -0.2849 -0.1596
  766MOL0     C 3321   4.153   3.475   8.318  0.5367  0.3822 -0.1918
  766MOL0     O 3322   3.809   3.346   8.397  0.4395 -0.9350 -0.9159
  766MOL0     C 3323   3.565   3.493   8.426 -0.2150  0.4981  1.5067
  766MOL0     C 3324   3.440   3.547   8.414 -0.7874  0.6967  0.1777
  766MOL0     N 3325   2.900   4.010   8.572  0.6024  0.3398  0.6670
  766MOL0     N 3326   2.796   4.027   8.651 -0.2810 -1.0652  0.0572
  766MOL0     C 3327   1.527   4.194   8.446  0.0859  0.2394  0.5411
  766MOL0     C 3328   1.409   4.120   8.484 -0.8028 -0.5399 -0.2898
  766MOL0     C 3329   1.080   3.877   8.592  0.0163 -0.2736  0.1990
  766MOL0     C 3330   0.955   3.927   8.621  1.1070  0.2825 -0.7709
  766MOL0     C 3331   0.838   3.868   8.576  0.0720  0.0696  0.3223
  766MOL0     C 3332   0.848   3.759   8.497  0.5282 -1.2261 -0.4374
  766MOL0     O 3333   0.747   3.695   8.438 -0.6650 -0.2120 -0.3575
  766MOL0     C 3334   0.612   3.702   8.486  0.2234 -0.5015  0.2641
  766MOL0     C 3335   0.544   3.567   8.461  0.2666 -0.2703 -0.7298
  766MOL0     C 3336   0.388   3.592   8.438 -0.1275  0.4879 -0.1186
  766MOL0     C 3337   0.330   3.469   8.366  0.2282  0.5222  0.1399
  766MOL0     C 3338   0.180   3.483   8.360 -0.3110  0.3790 -0.0511
  766MOL0     C 3339   0.062   3.487   8.366 -0.2631  0.0593 -0.6087
  766MOL0     C 3340   0.969   3.693   8.476  0.1404  0.3244  0.0457
  766MOL0     C 3341   1.090   3.760   8.514 -0.4870  0.3332  0.5101
  766MOL0     C 3342   1.221   3.687   8.486  0.0129 -0.0322  0.3016
  766MOL0     H 3343   1.219   4.362   8.641 -0.0207 -0.6898  1.3722
  766MOL0     H 3344   1.409   4.488   8.577  0.3569 -0.5904  0.8748
  766MOL0     H 3345   1.760   4.324   8.356 -2.1331 -0.8646  0.5049
  766MOL0     H 3346   1.811   4.483   8.407 -1.5511  1.7189 -0.0228
  766MOL0     H 3347   1.809   4.226   8.563 -0.1326  0.0936 -0.3815
  766MOL0     H 3348   1.836   4.383   8.640  0.9037 -0.7787  0.3207
  766MOL0     H 3349   2.030   4.427   8.493  0.1356  0.0539  0.2376
  766MOL0     H 3350   2.003   4.272   8.412  0.2997 -1.4818  0.6132
  766MOL0     H 3351   2.079   4.290   8.711  0.5205 -3.4733  1.2242
  766MOL0     H 3352   2.027   4.146   8.632  0.1620 -0.7056 -0.9951
  766MOL0     H 3353   2.199   4.157   8.466  1.1747 -0.2567  0.2152
  766MOL0     H 3354   2.263   4.309   8.544  1.8480 -1.2416 -0.5988
  766MOL0     H 3355   2.331   4.177   8.738  1.9340 -1.8673  0.2358
  766MOL0     H 3356   2.260   4.025   8.674 -1.5678  0.5310  0.5650
  766MOL0     H 3357   2.483   4.180   8.542 -0.1895  0.1608  0.8747
  766MOL0     H 3358   2.419   4.030   8.480 -1.4361 -1.1951  1.1115
  766MOL0     H 3359   2.549   4.017   8.760  0.4157  1.4822 -0.3442
  766MOL0     H 3360   2.505   3.892   8.644 -0.5633 -0.0160 -5.6959
  766MOL0     H 3361   2.647   3.910   8.391  0.0107  0.4799  0.2681
  766MOL0     H 3362   2.901   3.813   8.302 -0.5567  0.4184  1.3595
  766MOL0     H 3363   2.907   3.976   8.246  1.0330  2.2111  0.9099
  766MOL0     H 3364   3.110   4.020   8.377 -1.1799  2.0256 -4.1210
  766MOL0     H 3365   3.102   3.845   8.438 -2.1045  0.6707  1.1118
  766MOL0     H 3366   3.135   3.947   8.164  2.4298  2.9975  1.9458
  766MOL0     H 3367   3.099   3.773   8.198 -2.8356  2.3991 -1.6578
  766MOL0     H 3368   3.343   3.922   8.288  0.0361  1.6381 -2.3562
  766MOL0     H 3369   3.325   3.801   8.153 -2.2502 -0.0851 -0.2326
  766MOL0     H 3370   3.548   3.822   8.244 -0.6684  1.1504  1.8413
  766MOL0     H 3371   3.753   3.701   8.247 -0.6636 -1.1854 -1.0229
  766MOL0     H 3372   3.973   3.559   8.601  1.1929  2.7625  0.5827
  766MOL0     H 3373   4.200   3.520   8.699 -2.8062  0.7193 -0.7154
  766MOL0     H 3374   4.521   3.560   8.416  0.7684  2.0300  0.9092
  766MOL0     H 3375   4.538   3.628   8.570 -1.0812  0.7679  0.0172
  766MOL0     H 3376   4.665   3.432   8.648  1.1243  1.2501  0.5700
  766MOL0     H 3377   4.637   3.354   8.487  4.7278  0.1923 -0.6588
  766MOL0     H 3378   4.855   3.436   8.430 -1.2857 -0.7771 -1.8567
  766MOL0     H 3379   4.771   3.590   8.403  2.1895 -1.0714 -1.3920
  766MOL0     H 3380   4.907   3.528   8.667 -2.0192 -0.7644  0.7086
  766MOL0     H 3381   4.805   3.667   8.641 -0.3501  0.1416 -0.2609
  766MOL0     H 3382   4.937   3.747   8.455  2.7993  1.2004  0.2759
  766MOL0     H 3383   5.038   3.606   8.448  0.6599  2.6538 -3.0582
  766MOL0     H 3384   5.130   3.811   8.559 -1.4770  0.4693 -1.8772
  766MOL0     H 3385   5.040   3.764   8.705 -2.5889 -0.2973 -1.5167
  766MOL0     H 3386   5.229   3.584   8.557 -0.7985  0.9235 -0.7142
  766MOL0     H 3387   5.135   3.529   8.698 -0.7662  0.1271  1.0377
  766MOL0     H 3388   5.267   3.787   8.755 -3.4410  0.3538 -2.7248
  766MOL0     H 3389   5.333   3.623   8.810  0.0927 -1.9312 -1.4177
  766MOL0     H 3390   4.356   3.432   8.307 -1.8951 -1.8489 -2.5086
  766MOL0     H 3391   4.148   3.461   8.210 -2.6220 -2.8188  0.1984
  766MOL0     H 3392   3.574   3.400   8.481 -2.9971  0.4345  1.9895
  766MOL0     H 3393   3.369   3.498   8.480 -2.5725  4.7439  1.5690
  766MOL0     H 3394   1.613   4.155   8.393  0.0591  0.4112  0.3716
  766MOL0     H 3395   1.417   4.017   8.451  4.5083 -0.6498  0.5359
  766MOL0     H 3396   0.950   4.016   8.682  2.5159  0.9801 -1.6061
  766MOL0     H 3397   0.735   3.896   8.599 -0.7068 -0.5266 -2.1295
  766MOL0     H 3398   0.565   3.787   8.435 -0.4446 -1.8313 -1.4410
  766MOL0     H 3399   0.608   3.719   8.594  0.1266  2.3898 -0.1010
  766MOL0     H 3400   0.564   3.496   8.542  0.8307 -0.9539 -1.4450
  766MOL0     H 3401   0.582   3.517   8.371 -2.3763 -1.9811 -1.0038
  766MOL0     H 3402   0.376   3.678   8.372 -3.3161 -1.6407 -2.6100
  766MOL0     H 3403   0.332   3.603   8.532  2.3517 -1.8115  1.8292
  766MOL0     H 3404   0.366   3.461   8.263  0.8300  1.0250  0.3010
  766MOL0     H 3405   0.344   3.379   8.426 -0.6926  0.9343  1.0195
  766MOL0     H 3406  -0.044   3.488   8.375 -0.3506 -1.0169 -1.3026
  766MOL0     H 3407   0.970   3.604   8.413 -2.5704  2.6743 -3.7775
  766MOL0     H 3408   1.221   3.665   8.379  1.8636  1.9894 -0.1964
  766MOL0     H 3409   1.315   3.740   8.509 -0.3516 -0.5193  3.3976
  766MOL0     H 3410   1.225   3.591   8.538 -1.8810  1.3963  3.3427
  767MOL0     O 3411   1.413   2.532   1.841  0.1273 -0.6601 -0.0397
  767MOL0     C 3412   1.447   2.585   1.945 -0.5608  0.9358 -0.0379
  767MOL0     O 3413   1.584   2.624   1.983  0.8056 -0.8720 -0.0889
  767MOL0     C 3414   1.681   2.586   1.897  0.4172  1.2314  0.3458
  767MOL0     C 3415   1.772   2.681   1.856 -0.0031  0.6223 -0.6100
  767MOL0     C 3416   1.891   2.644   1.793  0.1784  0.1562 -0.1306
  767MOL0     C 3417   1.923   2.509   1.776 -0.0262 -0.2667 -0.3273
  767MOL0     O 3418   2.048   2.482   1.732  0.7453 -0.6561  0.2099
  767MOL0     C 3419   2.091   2.339   1.734 -0.6104  0.3780  0.5879
  767MOL0     C 3420   2.243   2.338   1.713  0.3373  0.5111 -0.2411
  767MOL0     C 3421   2.322   2.384   1.830 -0.0534  0.0510  0.1111
  767MOL0     C 3422   2.472   2.360   1.809 -0.1410  0.0303  0.0145
  767MOL0     C 3423   2.540   2.456   1.906  0.3260  0.5825  0.3947
  767MOL0     C 3424   2.691   2.466   1.878 -0.3721  0.4144  0.3034
  767MOL0     C 3425   2.783   2.347   1.926 -0.0493  1.0334 -0.8111
  767MOL0     C 3426   2.936   2.381   1.921 -0.6647 -0.3766  0.4188
  767MOL0     N 3427   2.985   2.505   1.991 -0.0752 -0.2939 -0.4587
  767MOL0     C 3428   3.020   2.629   1.931  0.3963 -0.1207 -0.5845
  767MOL0     C 3429   3.072   2.709   2.030 -0.1617 -0.4166  0.3439
  767MOL0     C 3430   3.127   2.843   1.998  0.8534 -0.1646 -0.3732
  767MOL0     C 3431   3.279   2.855   2.025 -0.4390  0.5472  0.1275
  767MOL0     C 3432   3.352   2.940   1.920 -0.4376  0.5059 -0.6999
  767MOL0     C 3433   3.497   2.913   1.908  0.6220 -1.1636 -0.6434
  767MOL0     O 3434   3.554   3.018   1.820 -0.0000 -0.1037 -0.6754
  767MOL0     C 3435   3.612   3.135   1.866 -1.2260  2.0797 -0.1426
  767MOL0     C 3436   3.664   3.221   1.769 -0.5371 -1.5922  0.4263
  767MOL0     C 3437   3.718   3.349   1.805 -0.3473 -0.1897 -0.5169
  767MOL0     C 3438   3.730   3.380   1.940 -0.6064  0.0128 -0.2183
  767MOL0     C 3439   3.809   3.494   1.987  0.0426 -0.2973 -0.4379
  767MOL0     O 3440   3.782   3.543   2.116 -0.0810  0.1397 -0.2550
  767MOL0     C 3441   3.841   3.656   2.167 -0.0302 -0.4954 -0.2776
  767MOL0     C 3442   3.970   3.714   2.140 -0.1111  0.5057  0.6255
  767MOL0     C 3443   4.021   3.813   2.216  0.0829  0.2935 -0.3642
  767MOL0     C 3444   3.957   3.848   2.329  0.1648  0.4360 -1.1505
  767MOL0     O 3445   4.011   3.926   2.428 -0.0697  1.0277 -0.3450
  767MOL0     C 3446   4.153   3.951   2.425 -0.0050 -0.3829 -0.7819
  767MOL0     C 3447   4.191   4.006   2.567  0.7565  0.5658  0.8486
  767MOL0     C 3448   4.327   4.056   2.586 -1.0668  0.7737  1.2018
  767MOL0     C 3449   4.439   3.950   2.547 -0.5200  0.3084  0.2260
  767MOL0     C 3450   4.577   4.004   2.595 -0.4862  0.3490  0.5850
  767MOL0     C 3451   4.700   3.925   2.555  0.1748  0.3204  0.0735
  767MOL0     C 3452   4.832   3.982   2.589  0.5558 -0.3295 -0.4000
  767MOL0     C 3453   4.856   4.114   2.508 -0.2507  0.0862  1.1662
  767MOL0    Cl 3454   5.005   4.192   2.560 -0.4810  0.4544  0.6066
  767MOL0     C 3455   3.825   3.796   2.357 -0.0241  0.6208  0.4162
  767MOL0     C 3456   3.765   3.701   2.274 -0.2180 -0.2579 -0.5333
  767MOL0     O 3457   3.886   3.546   1.905 -0.5369  0.0312 -0.4382
  767MOL0     C 3458   3.681   3.293   2.036 -0.7025  0.3412 -0.8948
  767MOL0     C 3459   3.614   3.176   1.995 -0.0246 -0.6432  0.3892
  767MOL0     N 3460   3.074   2.626   2.141 -0.1649 -0.0109  0.4976
  767MOL0     N 3461   3.031   2.510   2.115  0.1074 -0.3712 -1.0176
  767MOL0     C 3462   1.821   2.420   1.819 -0.7151 -1.0134  0.2593
  767MOL0     C 3463   1.703   2.453   1.879  1.0658 -0.2087 -0.4617
  767MOL0     C 3464   1.331   2.599   2.042  0.2060  0.0135  0.4731
  767MOL0     C 3465   1.360   2.610   2.177 -0.3108  0.4873  0.5702
  767MOL0     C 3466   1.260   2.620   2.273 -0.3881  0.3529 -0.3150
  767MOL0     C 3467   1.131   2.624   2.236 -0.2586 -0.8485  0.9017
  767MOL0     O 3468   1.033   2.641   2.333  0.5449  0.2077  0.6493
  767MOL0     C 3469   1.076   2.674   2.466  0.0777 -0.6909 -0.9209
  767MOL0     C 3470   0.964   2.689   2.565  0.9399 -0.3451 -0.9730
  767MOL0     C 3471   1.008   2.769   2.691 -0.5677 -0.3528  0.1589
  767MOL0     C 3472   0.893   2.829   2.777  0.0003 -0.3779  0.3845
  767MOL0     C 3473   0.951   2.941   2.863  0.4809 -0.3724  0.5072
  767MOL0     C 3474   0.999   3.034   2.929  0.1004  2.0039  0.0029
  767MOL0     C 3475   1.095   2.622   2.097  0.0859  0.4939  0.0056
  767MOL0     C 3476   1.193   2.602   1.999  0.1980 -0.3103 -0.1171
  767MOL0     C 3477   1.145   2.596   1.870 -0.1382 -0.4230  1.5352
  767MOL0     H 3478   1.756   2.783   1.891  1.7983  0.2656  1.4469
  767MOL0     H 3479   1.972   2.708   1.759  1.7210 -2.2048 -1.1423
  767MOL0     H 3480   2.068   2.288   1.829  0.3515 -2.2210 -0.4837
  767MOL0     H 3481   2.042   2.284   1.653  1.6129 -3.8066  1.8032
  767MOL0     H 3482   2.267   2.395   1.623  0.0346  0.8237 -0.1234
  767MOL0     H 3483   2.262   2.231   1.699  1.0046  0.5457  0.3638
  767MOL0     H 3484   2.281   2.330   1.916 -0.0332  0.2747  0.2622
  767MOL0     H 3485   2.294   2.490   1.840 -0.1509  0.2267 -1.7559
  767MOL0     H 3486   2.501   2.256   1.830  0.1884 -0.4722 -2.6249
  767MOL0     H 3487   2.494   2.376   1.703 -4.6274  0.1204 -1.1213
  767MOL0     H 3488   2.509   2.559   1.889 -1.5806 -0.2551 -1.5956
  767MOL0     H 3489   2.519   2.412   2.004 -3.6386 -3.0085 -1.7297
  767MOL0     H 3490   2.706   2.460   1.770  0.4315 -0.3357  0.4435
  767MOL0     H 3491   2.722   2.564   1.914 -1.5464  0.4061  1.3892
  767MOL0     H 3492   2.767   2.250   1.878  0.1178 -1.0850  3.0098
  767MOL0     H 3493   2.756   2.330   2.031  0.4180 -0.1687 -0.8767
  767MOL0     H 3494   2.984   2.294   1.966 -0.0859  0.7768  2.1135
  767MOL0     H 3495   2.947   2.385   1.812  0.7166 -0.4742  0.5342
  767MOL0     H 3496   3.010   2.657   1.827  2.0813 -2.0036 -1.3192
  767MOL0     H 3497   3.098   2.861   1.894 -2.8557  1.6158  0.7855
  767MOL0     H 3498   3.067   2.914   2.056  1.0358  1.5858 -2.2304
  767MOL0     H 3499   3.296   2.894   2.126  1.1971  3.2399 -1.0634
  767MOL0     H 3500   3.326   2.757   2.020 -0.2088  0.5868  1.1936
  767MOL0     H 3501   3.341   3.041   1.960  0.0015 -0.9161  3.5071
  767MOL0     H 3502   3.310   2.922   1.820  2.3604 -0.6895 -1.7910
  767MOL0     H 3503   3.507   2.813   1.865  0.5765 -2.7737  2.8059
  767MOL0     H 3504   3.559   2.913   1.997  1.0624 -0.8027 -0.9473
  767MOL0     H 3505   3.661   3.201   1.662 -0.0352  1.7610 -0.3329
  767MOL0     H 3506   3.765   3.415   1.732 -1.4353  0.5998 -0.5277
  767MOL0     H 3507   4.036   3.674   2.065 -1.1773  0.7772 -0.4909
  767MOL0     H 3508   4.124   3.845   2.205  0.4295  0.1182  1.9336
  767MOL0     H 3509   4.202   3.855   2.404  0.0054 -0.3138 -1.0800
  767MOL0     H 3510   4.180   4.033   2.359  2.3336 -0.0207  0.5081
  767MOL0     H 3511   4.123   4.089   2.593 -1.1554  0.0283 -1.9316
  767MOL0     H 3512   4.179   3.926   2.640 -3.0486 -0.9033 -1.1080
  767MOL0     H 3513   4.349   4.149   2.532 -0.3430 -0.5625 -0.9174
  767MOL0     H 3514   4.359   4.074   2.690  2.0707 -0.3979  0.5689
  767MOL0     H 3515   4.452   3.929   2.440  2.4492  0.5088  0.4634
  767MOL0     H 3516   4.427   3.854   2.598  3.7320 -1.1899 -1.1532
  767MOL0     H 3517   4.576   4.016   2.704  0.9234 -2.7567  1.0513
  767MOL0     H 3518   4.599   4.099   2.544 -1.8854 -0.4093 -1.5964
  767MOL0     H 3519   4.694   3.825   2.599 -0.6532 -0.4109 -1.6437
  767MOL0     H 3520   4.708   3.906   2.448  0.9425  0.7123  0.0524
  767MOL0     H 3521   4.905   3.902   2.571  0.6994 -0.3401  0.2057
  767MOL0     H 3522   4.830   3.996   2.698  0.8348 -1.5182 -0.2258
  767MOL0     H 3523   4.869   4.074   2.407  1.4937  2.1539  0.4820
  767MOL0     H 3524   4.779   4.192   2.512 -0.8600 -0.4535  0.2841
  767MOL0     H 3525   3.770   3.829   2.444 -0.4706  0.4533  0.2000
  767MOL0     H 3526   3.673   3.652   2.303 -0.2951 -0.6428 -1.4281
  767MOL0     H 3527   3.691   3.325   2.139  1.2586 -2.8097  0.0250
  767MOL0     H 3528   3.577   3.113   2.075 -0.9966  0.6804  1.0113
  767MOL0     H 3529   1.853   2.318   1.800 -1.6101 -1.2211 -0.1749
  767MOL0     H 3530   1.645   2.371   1.920  1.7788 -2.0852 -2.9051
  767MOL0     H 3531   1.465   2.597   2.201  0.2033 -0.8718 -2.0684
  767MOL0     H 3532   1.297   2.613   2.374 -1.4694 -0.9566  0.0283
  767MOL0     H 3533   1.125   2.772   2.465 -1.5271  0.1369 -0.7806
  767MOL0     H 3534   1.145   2.594   2.493 -0.6764 -2.0226 -2.7125
  767MOL0     H 3535   0.921   2.590   2.586 -2.7393  0.8392 -2.1706
  767MOL0     H 3536   0.878   2.739   2.521 -0.7120 -1.0941  1.2437
  767MOL0     H 3537   1.067   2.855   2.659 -1.2461  1.2284  2.8669
  767MOL0     H 3538   1.072   2.717   2.763  0.0237  1.5305  1.0405
  767MOL0     H 3539   0.816   2.865   2.708 -1.3135  1.2353  2.5397
  767MOL0     H 3540   0.843   2.757   2.843 -0.8807 -1.5961 -1.5389
  767MOL0     H 3541   1.052   3.115   2.976  1.9068  0.7712  0.2054
  767MOL0     H 3542   0.990   2.625   2.068 -0.4183  0.2846  1.6926
  767MOL0     H 3543   1.147   2.493   1.834 -1.3119  0.1309 -0.2851
  767MOL0     H 3544   1.042   2.633   1.860  0.4601  0.7882 -1.2539
  767MOL0     H 3545   1.183   2.666   1.795  1.5180 -1.6116  1.2155
  768MOL0     O 3546   5.668   5.777   6.434  0.6404  0.9016 -1.1479
  768MOL0     C 3547   5.596   5.876   6.439  0.2035 -0.2339 -0.4264
  768MOL0     O 3548   5.631   6.010   6.439 -0.0622  0.6180  0.7683
  768MOL0     C 3549   5.768   6.017   6.450 -0.2932  0.4656 -0.1805
  768MOL0     C 3550   5.844   6.039   6.337  0.0192 -0.1486  0.0150
  768MOL0     C 3551   5.983   6.076   6.349  0.5266 -0.2015  0.0246
  768MOL0     C 3552   6.036   6.086   6.474 -0.5197  0.5760 -0.1591
  768MOL0     O 3553   6.170   6.119   6.472  0.5093  0.2201  0.3937
  768MOL0     C 3554   6.250   6.031   6.557  1.1378 -0.2012  0.8147
  768MOL0     C 3555   6.387   6.006   6.488 -0.0558  0.4143 -0.7091
  768MOL0     C 3556   6.443   6.121   6.421  0.4097 -0.7043  0.2228
  768MOL0     C 3557   6.579   6.093   6.365  0.8039  0.6807  0.9621
  768MOL0     C 3558   6.592   5.966   6.277 -0.4153  0.0251  0.0077
  768MOL0     C 3559   6.733   5.977   6.212 -0.8344 -0.4389 -0.0171
  768MOL0     C 3560   6.762   5.858   6.132  0.6843  1.2510  0.9094
  768MOL0     C 3561   6.706   5.852   5.999  0.1065 -0.0003 -0.0490
  768MOL0     N 3562   6.754   5.949   5.898 -0.1924 -0.4118  0.7263
  768MOL0     C 3563   6.769   5.909   5.763  0.1710 -0.3950  0.0526
  768MOL0     C 3564   6.828   6.011   5.708 -1.1894 -0.0725  0.3265
  768MOL0     C 3565   6.867   6.006   5.562 -0.9116  0.3198 -0.6067
  768MOL0     C 3566   6.989   5.917   5.537  0.4106 -0.3820 -0.6679
  768MOL0     C 3567   7.113   5.944   5.636 -0.0504 -0.2427 -0.0889
  768MOL0     C 3568   7.223   5.842   5.604  0.6056  0.1458 -0.1506
  768MOL0     O 3569   7.283   5.835   5.471  0.6511 -0.6535 -0.1463
  768MOL0     C 3570   7.324   5.954   5.419 -0.5397  0.7174 -0.0890
  768MOL0     C 3571   7.403   6.048   5.482  0.3179 -0.0403 -0.6304
  768MOL0     C 3572   7.448   6.162   5.413  0.4265  0.1399 -0.1654
  768MOL0     C 3573   7.438   6.171   5.270 -0.9606 -1.0480 -0.2968
  768MOL0     C 3574   7.509   6.284   5.194  0.5884  0.5887 -0.7461
  768MOL0     O 3575   7.580   6.375   5.257 -0.3826 -0.5715  0.0817
  768MOL0     C 3576   7.639   6.484   5.199  1.7580  0.1258 -0.2560
  768MOL0     C 3577   7.559   6.571   5.129  0.3816 -0.2975 -0.4650
  768MOL0     C 3578   7.603   6.698   5.084 -0.3278  0.6330  0.0815
  768MOL0     C 3579   7.743   6.731   5.111 -0.5211 -0.7945  0.6721
  768MOL0     O 3580   7.796   6.842   5.057 -0.4897 -0.6288 -0.1466
  768MOL0     C 3581   7.897   6.915   5.137  0.0595  1.1003 -0.5203
  768MOL0     C 3582   8.023   6.920   5.047  0.4809 -0.4548  0.2632
  768MOL0     C 3583   8.142   6.981   5.123  0.5481 -0.5323 -0.7620
  768MOL0     C 3584   8.259   6.985   5.025  0.0120  0.4292 -0.5289
  768MOL0     C 3585   8.363   7.089   5.072 -0.6509  0.7390  0.3080
  768MOL0     C 3586   8.452   7.052   5.190 -0.5613  0.2534 -0.5639
  768MOL0     C 3587   8.574   7.133   5.186 -0.2323 -0.0929 -0.3168
  768MOL0     C 3588   8.671   7.113   5.299  0.0026 -0.7745  0.4257
  768MOL0    Cl 3589   8.811   7.201   5.256 -0.2066  0.4393 -0.2871
  768MOL0     C 3590   7.826   6.640   5.176 -0.2399  0.3384  0.0058
  768MOL0     C 3591   7.769   6.518   5.219  0.1016  0.3151  0.2454
  768MOL0     O 3592   7.508   6.279   5.072  0.3934 -0.2997 -0.1994
  768MOL0     C 3593   7.376   6.068   5.203 -0.6448 -0.1756 -1.3591
  768MOL0     C 3594   7.302   5.974   5.285  0.0317  0.0961  0.8136
  768MOL0     N 3595   6.867   6.113   5.798 -0.2040  0.5420 -0.0640
  768MOL0     N 3596   6.812   6.074   5.911 -0.6765 -0.3927  0.0034
  768MOL0     C 3597   5.960   6.058   6.589 -0.8398  0.3204 -0.4647
  768MOL0     C 3598   5.826   6.021   6.577 -0.8955  0.4289  0.4966
  768MOL0     C 3599   5.449   5.861   6.443  0.5294 -0.9615 -0.0208
  768MOL0     C 3600   5.371   5.948   6.370  0.3241 -0.7099 -0.7228
  768MOL0     C 3601   5.227   5.944   6.382 -1.0325  0.0144  0.3506
  768MOL0     C 3602   5.163   5.844   6.451 -0.1708  0.5653  0.2274
  768MOL0     O 3603   5.026   5.821   6.463  0.2178 -0.8099  0.3844
  768MOL0     C 3604   4.936   5.913   6.394 -0.0322  0.1039  0.4077
  768MOL0     C 3605   4.790   5.894   6.448 -0.8885  0.5400  0.6826
  768MOL0     C 3606   4.724   5.764   6.406 -0.2893 -0.4439  0.5606
  768MOL0     C 3607   4.703   5.734   6.258  0.0625  0.9814 -0.5865
  768MOL0     C 3608   4.690   5.861   6.179 -0.0433  0.1145 -0.5645
  768MOL0     C 3609   4.677   5.968   6.122  0.6486  0.1948  0.1387
  768MOL0     C 3610   5.243   5.756   6.519 -0.0543 -0.7029  0.1210
  768MOL0     C 3611   5.380   5.771   6.528 -0.2760  0.1513 -0.2654
  768MOL0     C 3612   5.451   5.677   6.630 -0.3123  0.1581  1.1241
  768MOL0     H 3613   5.792   6.042   6.242 -2.4064 -0.9379  1.2391
  768MOL0     H 3614   6.042   6.111   6.265  0.2026  2.0457  0.6650
  768MOL0     H 3615   6.254   6.084   6.653 -0.1347  1.0684  0.2098
  768MOL0     H 3616   6.209   5.931   6.571 -1.6710  0.6375 -0.6314
  768MOL0     H 3617   6.383   5.936   6.404  1.8885  0.7311 -1.1224
  768MOL0     H 3618   6.456   5.967   6.564 -0.8986 -0.1606 -0.2226
  768MOL0     H 3619   6.449   6.208   6.487 -0.4843  1.5914 -2.4963
  768MOL0     H 3620   6.372   6.156   6.345  0.5915  2.2039  1.2419
  768MOL0     H 3621   6.617   6.175   6.304  0.4299  0.1275 -0.0430
  768MOL0     H 3622   6.654   6.085   6.444  1.7361  0.1381  0.0610
  768MOL0     H 3623   6.579   5.877   6.338 -1.1635  2.5837  4.0126
  768MOL0     H 3624   6.513   5.980   6.204  0.6205  1.4037 -0.9196
  768MOL0     H 3625   6.756   6.066   6.152 -3.1272 -0.8991 -1.7355
  768MOL0     H 3626   6.808   5.980   6.291 -0.3782  0.3162 -0.4581
  768MOL0     H 3627   6.717   5.772   6.183  3.9495 -2.4854 -1.8473
  768MOL0     H 3628   6.870   5.843   6.125  0.8379  2.8529 -1.6413
  768MOL0     H 3629   6.716   5.748   5.963  0.3545  0.0929 -0.2575
  768MOL0     H 3630   6.598   5.867   6.010  0.3253  2.0164 -0.3295
  768MOL0     H 3631   6.722   5.822   5.717 -0.4078  1.1578 -2.4677
  768MOL0     H 3632   6.786   5.968   5.499  1.7198 -1.9646 -2.9432
  768MOL0     H 3633   6.884   6.111   5.533 -2.2540  0.2799 -1.6316
  768MOL0     H 3634   6.959   5.814   5.555 -1.4764  0.3169  0.5543
  768MOL0     H 3635   7.003   5.928   5.429 -2.1429 -1.0368 -1.1315
  768MOL0     H 3636   7.080   5.919   5.738  1.4418 -1.5189  0.1022
  768MOL0     H 3637   7.146   6.049   5.640  4.3146 -1.3004 -2.2947
  768MOL0     H 3638   7.178   5.743   5.617  2.4950 -0.8237 -0.6760
  768MOL0     H 3639   7.297   5.864   5.682 -0.8687  0.5491  1.1956
  768MOL0     H 3640   7.446   6.029   5.580  2.7403  0.2291 -1.5751
  768MOL0     H 3641   7.516   6.235   5.454  1.4032 -1.4387  1.1495
  768MOL0     H 3642   7.455   6.543   5.120  1.4414 -4.3016 -2.7595
  768MOL0     H 3643   7.539   6.768   5.032  1.2495  1.0608 -1.3849
  768MOL0     H 3644   7.857   7.016   5.155 -2.4462  0.0472  0.3402
  768MOL0     H 3645   7.920   6.876   5.236  0.2352  1.7530 -0.2956
  768MOL0     H 3646   8.041   6.818   5.013 -1.3999 -0.1156 -2.0513
  768MOL0     H 3647   7.996   6.987   4.964 -0.0381 -0.9423  0.0334
  768MOL0     H 3648   8.113   7.075   5.171 -3.5576 -2.0209  0.0074
  768MOL0     H 3649   8.169   6.909   5.201  2.1272  0.4035 -0.3917
  768MOL0     H 3650   8.235   6.998   4.919  2.4845  1.8514 -0.9789
  768MOL0     H 3651   8.306   6.886   5.028 -0.6964  0.0699 -0.8694
  768MOL0     H 3652   8.304   7.180   5.083 -1.7632  0.5186 -2.7248
  768MOL0     H 3653   8.428   7.104   4.985 -1.5179 -0.4464 -0.5954
  768MOL0     H 3654   8.400   7.060   5.286  0.4646 -1.0886  0.1323
  768MOL0     H 3655   8.475   6.946   5.198  1.7983  0.6878 -0.7732
  768MOL0     H 3656   8.552   7.240   5.195  0.7487 -0.0402  2.1753
  768MOL0     H 3657   8.628   7.120   5.091  2.4907  1.7562  0.8359
  768MOL0     H 3658   8.630   7.153   5.392 -1.3387  3.0220 -1.5763
  768MOL0     H 3659   8.694   7.007   5.314 -2.6039 -1.4430  0.2181
  768MOL0     H 3660   7.934   6.650   5.183  0.3439 -3.1941 -1.5255
  768MOL0     H 3661   7.823   6.452   5.285 -0.0926  0.7437  0.8484
  768MOL0     H 3662   7.382   6.051   5.096 -1.0255  1.5910 -1.6846
  768MOL0     H 3663   7.247   5.902   5.225 -1.2063  2.2617 -0.7805
  768MOL0     H 3664   6.017   6.050   6.681  0.1366  1.1660 -0.9808
  768MOL0     H 3665   5.763   5.997   6.662 -3.6740 -2.6711 -2.1376
  768MOL0     H 3666   5.413   6.024   6.305  0.8444 -1.8360 -1.7250
  768MOL0     H 3667   5.182   6.031   6.335  3.3334  2.6692  0.5263
  768MOL0     H 3668   4.945   5.896   6.287 -1.4884 -1.5850  0.5086
  768MOL0     H 3669   4.969   6.015   6.416  0.1560  0.4279 -1.2764
  768MOL0     H 3670   4.731   5.976   6.407 -0.1019  0.4739 -0.6441
  768MOL0     H 3671   4.778   5.910   6.556  0.4209  1.0776  0.7570
  768MOL0     H 3672   4.618   5.757   6.434 -0.6230  1.3124 -0.1138
  768MOL0     H 3673   4.776   5.676   6.444  0.8883 -0.2828 -0.6160
  768MOL0     H 3674   4.787   5.671   6.225 -0.3132 -0.8734  1.7341
  768MOL0     H 3675   4.617   5.668   6.248  1.5431 -1.3656  1.1860
  768MOL0     H 3676   4.670   6.058   6.065 -0.1554  1.6645  2.4230
  768MOL0     H 3677   5.186   5.682   6.573 -1.4040 -0.5366 -1.0192
  768MOL0     H 3678   5.459   5.571   6.604 -0.7371 -0.3114  2.7601
  768MOL0     H 3679   5.550   5.716   6.656 -0.3964  2.4575 -1.6421
  768MOL0     H 3680   5.384   5.677   6.717 -1.3274 -0.5038  0.3586
  769MOL0     O 3681   1.287   4.913   2.060  0.4708 -0.1550  0.4486
  769MOL0     C 3682   1.245   4.941   1.948  0.3260  0.6633 -0.0217
  769MOL0     O 3683   1.285   5.051   1.878  0.0867  0.6563  1.2947
  769MOL0     C 3684   1.395   5.124   1.905  0.3283 -0.4634  0.3468
  769MOL0     C 3685   1.384   5.254   1.845 -0.2951 -0.9749  0.4884
  769MOL0     C 3686   1.496   5.346   1.849  0.5790 -0.9184 -0.1121
  769MOL0     C 3687   1.607   5.322   1.932 -0.0870  0.1400  0.5245
  769MOL0     O 3688   1.714   5.409   1.954  0.1786  1.0739  0.1102
  769MOL0     C 3689   1.684   5.551   1.946 -0.6081 -0.1005 -0.2802
  769MOL0     C 3690   1.770   5.634   2.042 -0.5892 -0.6228 -0.3611
  769MOL0     C 3691   1.918   5.622   2.035  1.1040 -0.0910  0.0861
  769MOL0     C 3692   1.959   5.493   2.113 -1.2830 -0.7003  0.6159
  769MOL0     C 3693   2.107   5.485   2.166  0.0667 -0.5046  0.7341
  769MOL0     C 3694   2.152   5.351   2.234  1.2236 -0.4726  0.1310
  769MOL0     C 3695   2.295   5.351   2.269 -0.3059 -0.4642 -0.4536
  769MOL0     C 3696   2.346   5.202   2.278 -0.2428  0.3063  0.4894
  769MOL0     N 3697   2.488   5.193   2.292 -0.8722 -0.3347 -0.3646
  769MOL0     C 3698   2.581   5.161   2.191 -0.6185 -1.1766 -0.3600
  769MOL0     C 3699   2.697   5.180   2.255 -0.1662  0.2227  0.2214
  769MOL0     C 3700   2.831   5.151   2.191  0.6188 -0.0429 -0.3934
  769MOL0     C 3701   2.884   5.274   2.115 -0.2822 -0.1401 -0.4176
  769MOL0     C 3702   2.934   5.370   2.224  0.6446 -0.7402 -0.0995
  769MOL0     C 3703   2.978   5.505   2.184 -0.0022  0.1722  0.7692
  769MOL0     O 3704   3.058   5.493   2.061  0.1243 -0.0830 -0.0159
  769MOL0     C 3705   3.150   5.587   2.035  1.0069  0.1791  0.1055
  769MOL0     C 3706   3.122   5.722   2.049 -0.6521  0.0641 -0.9479
  769MOL0     C 3707   3.209   5.822   2.011 -0.7332 -0.3976 -0.5559
  769MOL0     C 3708   3.324   5.790   1.940  1.2731  0.0690  0.5905
  769MOL0     C 3709   3.424   5.905   1.900  0.6847 -0.0851 -0.5269
  769MOL0     O 3710   3.380   6.030   1.916  0.1331 -0.4587  0.4931
  769MOL0     C 3711   3.441   6.146   1.874 -0.1495  0.2777  0.1386
  769MOL0     C 3712   3.567   6.164   1.909  0.2295  1.4784 -0.3152
  769MOL0     C 3713   3.624   6.282   1.883  0.5371 -0.6791 -0.8044
  769MOL0     C 3714   3.552   6.386   1.835  0.1854 -0.1547  0.6147
  769MOL0     O 3715   3.588   6.520   1.846  0.4547 -0.0440  0.5768
  769MOL0     C 3716   3.724   6.550   1.871 -0.6943 -0.4295  0.4300
  769MOL0     C 3717   3.738   6.696   1.830 -0.6792 -0.2218  0.0097
  769MOL0     C 3718   3.879   6.744   1.841  0.4837 -0.4250 -1.1364
  769MOL0     C 3719   3.898   6.890   1.796  0.3301 -0.1256  0.5868
  769MOL0     C 3720   4.038   6.939   1.851  0.9390  0.4252 -0.0196
  769MOL0     C 3721   4.145   6.911   1.751 -0.4632  0.5157  0.5082
  769MOL0     C 3722   4.268   7.002   1.781  0.4248 -0.2042  0.5107
  769MOL0     C 3723   4.322   6.978   1.922 -0.3824 -0.1116 -0.1002
  769MOL0    Cl 3724   4.485   7.028   1.930  0.0261 -0.3944  0.1097
  769MOL0     C 3725   3.417   6.363   1.785 -0.3296  0.4242 -0.5626
  769MOL0     C 3726   3.360   6.240   1.809  0.3024 -0.3733 -0.3122
  769MOL0     O 3727   3.520   5.871   1.841 -0.3418  0.4641 -0.0609
  769MOL0     C 3728   3.352   5.657   1.924  0.3399 -0.1790  0.4961
  769MOL0     C 3729   3.263   5.555   1.964  0.1376  0.0928  0.0526
  769MOL0     N 3730   2.684   5.209   2.385 -0.6972  0.0209  0.2593
  769MOL0     N 3731   2.556   5.228   2.410 -0.0463 -0.1353  0.0252
  769MOL0     C 3732   1.609   5.197   2.001  0.8156  0.3205 -0.1559
  769MOL0     C 3733   1.502   5.104   1.989 -0.6815  0.1671 -0.0791
  769MOL0     C 3734   1.135   4.867   1.876  0.5685  0.4375 -0.4464
  769MOL0     C 3735   1.071   4.931   1.765 -0.5881  0.3008  1.2459
  769MOL0     C 3736   0.979   4.858   1.681 -0.5045  0.6862  0.2031
  769MOL0     C 3737   0.950   4.725   1.700  0.0567 -0.7745 -1.1132
  769MOL0     O 3738   0.867   4.666   1.617  0.3077 -0.7035 -0.6184
  769MOL0     C 3739   0.790   4.557   1.667 -0.8149 -0.5883  0.4064
  769MOL0     C 3740   0.673   4.516   1.582  0.0310  1.0873  0.2946
  769MOL0     C 3741   0.726   4.459   1.449  0.4810 -0.8064  0.1030
  769MOL0     C 3742   0.611   4.425   1.362 -0.0777 -0.4911  0.3614
  769MOL0     C 3743   0.672   4.387   1.231  0.5192 -0.1423 -0.5863
  769MOL0     C 3744   0.707   4.361   1.120  0.3323  0.6265 -0.5055
  769MOL0     C 3745   1.012   4.664   1.809  0.4281  0.5882 -0.1164
  769MOL0     C 3746   1.100   4.733   1.900  0.6672 -0.9197 -0.6395
  769MOL0     C 3747   1.160   4.659   2.017  0.1318 -1.2008  0.1141
  769MOL0     H 3748   1.303   5.294   1.786  0.4598  0.8343  0.6074
  769MOL0     H 3749   1.496   5.442   1.797  3.5471 -0.0517  1.2590
  769MOL0     H 3750   1.713   5.590   1.848  1.3911  0.1707  0.3738
  769MOL0     H 3751   1.577   5.569   1.957 -0.7497 -0.1332 -1.4536
  769MOL0     H 3752   1.744   5.607   2.144  0.1447  0.4405  0.1266
  769MOL0     H 3753   1.745   5.739   2.025  1.1398 -0.2648 -0.9528
  769MOL0     H 3754   1.970   5.707   2.080 -1.1359  1.1581  0.4807
  769MOL0     H 3755   1.960   5.626   1.935  2.4292 -1.7096  0.5308
  769MOL0     H 3756   1.893   5.477   2.199 -1.2000 -0.0740  0.7998
  769MOL0     H 3757   1.960   5.401   2.054  2.7283  0.3308 -1.2829
  769MOL0     H 3758   2.170   5.507   2.079 -0.5726  2.7428  0.9562
  769MOL0     H 3759   2.134   5.566   2.235  0.7501 -1.6248  1.8171
  769MOL0     H 3760   2.103   5.342   2.331  3.2426 -0.6790  1.1844
  769MOL0     H 3761   2.123   5.270   2.166 -2.8504  0.4312  0.5582
  769MOL0     H 3762   2.312   5.404   2.363  2.2625  1.8406 -2.0801
  769MOL0     H 3763   2.357   5.408   2.200  2.5219 -2.5077  0.2177
  769MOL0     H 3764   2.291   5.145   2.354 -1.3636  0.5608 -0.1169
  769MOL0     H 3765   2.326   5.154   2.182 -3.0343 -2.1191  2.0914
  769MOL0     H 3766   2.555   5.127   2.092  3.4239 -2.2041 -1.2415
  769MOL0     H 3767   2.899   5.121   2.272  0.3876  0.3255 -0.0560
  769MOL0     H 3768   2.831   5.064   2.125  1.1544  0.1550 -0.6597
  769MOL0     H 3769   2.967   5.237   2.054  0.4690 -0.9130  1.0124
  769MOL0     H 3770   2.809   5.324   2.052  0.2020 -2.3593 -2.9478
  769MOL0     H 3771   3.011   5.316   2.279  0.6254 -0.0758  0.5938
  769MOL0     H 3772   2.858   5.387   2.301  3.9827  1.7679  2.9704
  769MOL0     H 3773   3.034   5.550   2.266  2.1957 -0.8755 -0.0797
  769MOL0     H 3774   2.891   5.569   2.163 -0.1169  0.0299  0.8115
  769MOL0     H 3775   3.040   5.743   2.117 -0.6840  1.2443 -1.3344
  769MOL0     H 3776   3.175   5.924   2.024 -3.4351 -1.1954 -0.7234
  769MOL0     H 3777   3.618   6.088   1.968 -2.5975  0.4164  0.9767
  769MOL0     H 3778   3.726   6.286   1.921 -0.2918  0.6968  1.4763
  769MOL0     H 3779   3.739   6.554   1.979  2.2084  2.4832  0.0682
  769MOL0     H 3780   3.786   6.480   1.814 -1.6762 -0.3395 -0.8093
  769MOL0     H 3781   3.713   6.699   1.723  2.2084  1.5219 -0.7195
  769MOL0     H 3782   3.661   6.757   1.878  0.5074  0.7734  0.7181
  769MOL0     H 3783   3.910   6.730   1.945 -0.9391  0.7835 -0.5158
  769MOL0     H 3784   3.936   6.680   1.773 -1.6418 -1.4788 -2.0011
  769MOL0     H 3785   3.820   6.956   1.834 -2.0288  0.3334 -4.2223
  769MOL0     H 3786   3.890   6.885   1.687 -1.2570  0.4968  0.6418
  769MOL0     H 3787   4.072   6.899   1.948 -1.6691  3.1727  2.2136
  769MOL0     H 3788   4.028   7.046   1.867 -2.1207  0.1003  0.7722
  769MOL0     H 3789   4.175   6.805   1.748 -0.4093  0.5510 -1.2439
  769MOL0     H 3790   4.119   6.938   1.649 -0.6365  0.9497  0.6661
  769MOL0     H 3791   4.232   7.104   1.771  0.4562  0.6602  6.0819
  769MOL0     H 3792   4.345   6.996   1.703  0.3717 -0.9139  0.5055
  769MOL0     H 3793   4.266   7.026   2.002  0.0740  1.9582 -0.9556
  769MOL0     H 3794   4.316   6.868   1.926 -3.7209 -0.2933 -3.9140
  769MOL0     H 3795   3.368   6.452   1.747 -1.7702 -0.3919 -0.6684
  769MOL0     H 3796   3.257   6.219   1.781  0.0119 -0.0631  0.5125
  769MOL0     H 3797   3.442   5.633   1.868 -0.5330 -4.6798  0.6994
  769MOL0     H 3798   3.285   5.451   1.942  1.2934  0.2174  0.5708
  769MOL0     H 3799   1.693   5.185   2.069  0.8706 -0.8254 -0.4009
  769MOL0     H 3800   1.517   5.005   2.029  1.8128 -0.4984 -2.3663
  769MOL0     H 3801   1.095   5.033   1.737 -0.2625 -0.0942  0.0303
  769MOL0     H 3802   0.941   4.924   1.603 -0.4676 -1.4191 -1.6715
  769MOL0     H 3803   0.749   4.587   1.763  0.7227  0.6584  0.7250
  769MOL0     H 3804   0.854   4.469   1.678 -0.3630 -0.7743 -2.7194
  769MOL0     H 3805   0.612   4.603   1.556 -3.8469 -2.2600 -3.0165
  769MOL0     H 3806   0.612   4.449   1.643  1.8671 -2.6892 -1.6548
  769MOL0     H 3807   0.784   4.367   1.464 -2.4101 -3.5086 -3.4627
  769MOL0     H 3808   0.784   4.542   1.409 -2.6912  1.2803 -0.5100
  769MOL0     H 3809   0.545   4.356   1.415 -0.9927  1.0649  1.3268
  769MOL0     H 3810   0.561   4.521   1.348  4.2316  2.0202  0.1859
  769MOL0     H 3811   0.732   4.318   1.026 -2.2265 -0.4618 -0.7721
  769MOL0     H 3812   0.988   4.558   1.808 -0.8697  0.8601 -1.6637
  769MOL0     H 3813   1.269   4.650   2.019  0.0536 -2.3010  2.2513
  769MOL0     H 3814   1.133   4.717   2.106  1.0713  1.8501 -1.4553
  769MOL0     H 3815   1.126   4.555   2.012 -0.8710 -0.9148  0.5852
  770MOL0     O 3816   2.197   6.233   6.651  0.1529 -0.0809  0.0697
  770MOL0     C 3817   2.215   6.316   6.739  0.1236  0.3133  0.5230
  770MOL0     O 3818   2.336   6.381   6.755  0.1117  0.2045 -0.4279
  770MOL0     C 3819   2.446   6.314   6.708 -0.7338  0.6879  0.1329
  770MOL0     C 3820   2.526   6.373   6.601  0.1037  0.5032  0.6212
  770MOL0     C 3821   2.635   6.305   6.547  0.3186 -1.3733 -0.7253
  770MOL0     C 3822   2.687   6.188   6.605 -0.1065  0.9434  0.5625
  770MOL0     O 3823   2.798   6.119   6.562 -0.3193 -0.4142  0.3772
  770MOL0     C 3824   2.890   6.190   6.478 -0.4811  1.0655  0.5127
  770MOL0     C 3825   2.993   6.092   6.418  0.0156 -0.0887 -0.8283
  770MOL0     C 3826   2.930   5.984   6.328 -0.7686  0.3146  0.5949
  770MOL0     C 3827   2.968   6.002   6.186 -0.1958 -0.6358  0.3284
  770MOL0     C 3828   2.908   5.904   6.087  1.4578  0.5297 -0.5078
  770MOL0     C 3829   2.937   5.760   6.121  0.8580  0.0816 -0.0575
  770MOL0     C 3830   2.881   5.659   6.015 -0.0220 -0.2525  0.4472
  770MOL0     C 3831   2.960   5.650   5.886  0.0108  0.2221 -0.3786
  770MOL0     N 3832   3.099   5.608   5.920  0.2037  0.4678 -0.2077
  770MOL0     C 3833   3.134   5.484   5.971  0.6211  0.1848 -0.3797
  770MOL0     C 3834   3.267   5.481   5.970 -0.3573  0.5143 -0.1339
  770MOL0     C 3835   3.340   5.356   6.030  0.1454 -0.4611 -0.6847
  770MOL0     C 3836   3.492   5.374   6.008  0.1414  0.0858  0.8144
  770MOL0     C 3837   3.568   5.252   6.061 -0.2286  0.6159 -0.6274
  770MOL0     C 3838   3.564   5.250   6.209  0.0166  0.6812  0.0933
  770MOL0     O 3839   3.650   5.152   6.275 -0.2982  0.5450 -0.0275
  770MOL0     C 3840   3.602   5.030   6.289 -0.1387  0.2278 -0.0171
  770MOL0     C 3841   3.663   4.964   6.398  0.0479 -0.1036 -0.4249
  770MOL0     C 3842   3.630   4.830   6.428 -1.0976 -0.2567 -0.1093
  770MOL0     C 3843   3.529   4.767   6.363  0.8094 -0.2293  0.8082
  770MOL0     C 3844   3.482   4.637   6.401 -0.4273 -1.0022  0.1102
  770MOL0     O 3845   3.509   4.593   6.532  0.0606  0.5011 -0.6175
  770MOL0     C 3846   3.483   4.458   6.548 -0.2900  0.2592  0.5383
  770MOL0     C 3847   3.438   4.410   6.666  0.1418  0.0239  0.0700
  770MOL0     C 3848   3.444   4.268   6.702  0.3033 -0.8093  0.6460
  770MOL0     C 3849   3.490   4.176   6.607  0.2975  0.1005  0.5062
  770MOL0     O 3850   3.509   4.054   6.660  0.1793  0.3752  0.1830
  770MOL0     C 3851   3.520   3.934   6.581 -0.3330  0.0463  0.1600
  770MOL0     C 3852   3.668   3.901   6.539  0.6078 -0.0882 -0.4098
  770MOL0     C 3853   3.747   3.847   6.657 -0.1508 -0.4143  0.1249
  770MOL0     C 3854   3.883   3.803   6.592 -0.4365 -0.0272  0.0706
  770MOL0     C 3855   3.990   3.778   6.697 -0.3987 -0.9639 -0.5123
  770MOL0     C 3856   4.119   3.744   6.623 -0.8995  0.0903  0.1290
  770MOL0     C 3857   4.215   3.665   6.717  0.1487  0.4483 -0.0497
  770MOL0     C 3858   4.358   3.688   6.668  0.6949 -1.1054  0.2766
  770MOL0    Cl 3859   4.390   3.620   6.511 -0.1198  0.0191 -0.1180
  770MOL0     C 3860   3.540   4.218   6.490  0.8758 -1.4594  0.9110
  770MOL0     C 3861   3.538   4.361   6.458  0.2157  0.0616  0.5084
  770MOL0     O 3862   3.435   4.572   6.311 -0.3847  0.2498  0.6858
  770MOL0     C 3863   3.472   4.829   6.251  0.2911  0.3141  0.6689
  770MOL0     C 3864   3.496   4.961   6.220 -1.3771 -0.2501  0.9279
  770MOL0     N 3865   3.308   5.588   5.893  0.5228 -0.1826 -0.7736
  770MOL0     N 3866   3.210   5.665   5.873  0.1728  0.5309 -0.5206
  770MOL0     C 3867   2.621   6.140   6.722  0.9664  0.0188 -0.0377
  770MOL0     C 3868   2.504   6.197   6.770  0.4974  0.8097 -0.6108
  770MOL0     C 3869   2.102   6.375   6.810 -0.1291  0.1077 -0.4176
  770MOL0     C 3870   2.123   6.492   6.887  0.1420  0.8894  0.3817
  770MOL0     C 3871   2.029   6.557   6.959  0.7858 -0.6038  0.1434
  770MOL0     C 3872   1.900   6.502   6.958 -0.1236 -0.0092  0.5245
  770MOL0     O 3873   1.819   6.583   7.024 -0.2030  0.1037 -0.2822
  770MOL0     C 3874   1.680   6.565   7.011 -0.3476  0.2228  0.9869
  770MOL0     C 3875   1.636   6.708   6.993 -0.1405 -0.1769 -0.5596
  770MOL0     C 3876   1.485   6.726   7.005  1.1904 -0.1303 -0.9708
  770MOL0     C 3877   1.426   6.871   7.016 -0.5158 -0.4129 -0.0435
  770MOL0     C 3878   1.429   6.931   6.882  0.0925  1.2588 -0.3309
  770MOL0     C 3879   1.411   6.973   6.771  0.6402  0.9311 -0.0862
  770MOL0     C 3880   1.880   6.383   6.895  0.0274  0.2400 -0.0592
  770MOL0     C 3881   1.975   6.321   6.815  0.0789 -0.2788  0.2174
  770MOL0     C 3882   1.918   6.214   6.727  0.3392  0.1120 -0.4897
  770MOL0     H 3883   2.478   6.454   6.547  1.1471 -0.1655 -1.3927
  770MOL0     H 3884   2.687   6.351   6.464  0.6629  2.2400  1.2493
  770MOL0     H 3885   2.848   6.242   6.392 -0.1691  0.0715 -0.2514
  770MOL0     H 3886   2.946   6.260   6.541 -1.0038  1.8941  0.0663
  770MOL0     H 3887   3.045   6.049   6.504  0.6205  4.2695  1.2537
  770MOL0     H 3888   3.076   6.143   6.368 -0.2034  0.1433 -0.9560
  770MOL0     H 3889   2.821   5.983   6.341 -0.8460 -1.5112  0.1311
  770MOL0     H 3890   2.952   5.883   6.365 -1.8812 -0.2415 -0.2042
  770MOL0     H 3891   2.942   6.106   6.162 -1.7114 -0.3085  2.9125
  770MOL0     H 3892   3.077   5.997   6.183 -0.1594  0.2694 -0.6804
  770MOL0     H 3893   2.803   5.911   6.056  1.0563 -2.5810 -0.1640
  770MOL0     H 3894   2.953   5.929   5.991 -0.3103  5.3798 -0.3252
  770MOL0     H 3895   3.041   5.730   6.124  0.0253 -3.0356  0.5446
  770MOL0     H 3896   2.889   5.742   6.218 -0.8788  0.4724 -0.7971
  770MOL0     H 3897   2.778   5.694   6.000  0.3024  1.6104  2.0663
  770MOL0     H 3898   2.863   5.562   6.063 -2.2615 -1.1820 -2.0127
  770MOL0     H 3899   2.912   5.577   5.821 -2.1720  1.4580 -0.2590
  770MOL0     H 3900   2.967   5.748   5.838 -1.2314 -0.0200 -1.1070
  770MOL0     H 3901   3.068   5.405   6.004  0.2266 -0.6141 -2.9044
  770MOL0     H 3902   3.314   5.339   6.135 -1.7043  0.4854 -0.9472
  770MOL0     H 3903   3.297   5.265   5.988 -2.7602  0.6783 -0.4407
  770MOL0     H 3904   3.509   5.386   5.900  2.6755 -1.6137  0.9662
  770MOL0     H 3905   3.529   5.464   6.058  0.8737 -1.3849  3.0544
  770MOL0     H 3906   3.674   5.247   6.035  0.1525 -3.8772  0.9077
  770MOL0     H 3907   3.525   5.163   6.015  0.1361  1.2918 -2.3383
  770MOL0     H 3908   3.463   5.225   6.243  0.2578 -1.9320 -0.8921
  770MOL0     H 3909   3.599   5.349   6.241 -1.3236  1.3256 -0.3665
  770MOL0     H 3910   3.733   5.015   6.464 -0.7761  0.1245  0.2907
  770MOL0     H 3911   3.683   4.778   6.506 -0.9967  0.5274  0.3571
  770MOL0     H 3912   3.413   4.473   6.751 -0.7655 -1.4495  0.9401
  770MOL0     H 3913   3.422   4.242   6.806  0.5572 -3.2055  0.1651
  770MOL0     H 3914   3.486   3.839   6.623 -0.5977 -1.3285 -2.9023
  770MOL0     H 3915   3.468   3.940   6.486  1.8786 -2.4661 -1.3653
  770MOL0     H 3916   3.654   3.826   6.461 -1.2871  0.5309 -0.7167
  770MOL0     H 3917   3.710   3.993   6.497  0.4843  0.0031 -0.3323
  770MOL0     H 3918   3.770   3.930   6.724  0.9577  0.1954 -0.9832
  770MOL0     H 3919   3.696   3.757   6.692 -0.3290 -0.7918 -1.0584
  770MOL0     H 3920   3.921   3.890   6.539  0.0647 -1.5553 -2.2158
  770MOL0     H 3921   3.885   3.723   6.517  3.0297 -1.3612  1.3766
  770MOL0     H 3922   3.974   3.693   6.764  0.6160 -1.2128 -0.5582
  770MOL0     H 3923   4.019   3.867   6.755 -1.7312  0.1177 -1.4443
  770MOL0     H 3924   4.095   3.684   6.535 -1.1672  0.5588 -0.1243
  770MOL0     H 3925   4.170   3.834   6.587 -1.6854  0.2676 -0.5889
  770MOL0     H 3926   4.183   3.560   6.728  0.2863  0.6208  2.7276
  770MOL0     H 3927   4.213   3.701   6.821  4.2559 -2.5118  1.3535
  770MOL0     H 3928   4.377   3.796   6.674 -2.0499 -0.4629 -1.0507
  770MOL0     H 3929   4.422   3.632   6.737 -0.3984 -0.3985  1.9249
  770MOL0     H 3930   3.600   4.147   6.434 -1.6472 -3.4155  0.5151
  770MOL0     H 3931   3.586   4.393   6.367 -0.8459  1.2517  0.3318
  770MOL0     H 3932   3.393   4.779   6.196  2.5714 -2.0424 -0.6547
  770MOL0     H 3933   3.443   4.995   6.131 -0.2478 -2.6079 -0.7695
  770MOL0     H 3934   2.667   6.050   6.761  0.4716  0.8972  2.7949
  770MOL0     H 3935   2.456   6.148   6.854 -1.5478  2.4070 -0.7554
  770MOL0     H 3936   2.211   6.556   6.879  1.3424 -0.6416  0.8085
  770MOL0     H 3937   2.043   6.656   7.001  0.8777  0.4084 -2.1156
  770MOL0     H 3938   1.630   6.524   7.099 -3.1844 -4.9339 -2.4598
  770MOL0     H 3939   1.643   6.516   6.921  1.9655 -1.5663  0.8973
  770MOL0     H 3940   1.670   6.738   6.893  1.6311 -1.0063 -0.2475
  770MOL0     H 3941   1.684   6.769   7.070 -2.5882 -0.8778  1.6639
  770MOL0     H 3942   1.475   6.689   7.107  2.8409  0.2925 -0.6297
  770MOL0     H 3943   1.430   6.668   6.931 -0.2889  2.9332 -2.4418
  770MOL0     H 3944   1.323   6.863   7.050 -0.0130  0.0831  1.6802
  770MOL0     H 3945   1.488   6.930   7.084 -1.8717  0.3004  0.6183
  770MOL0     H 3946   1.408   7.018   6.673 -2.6068  0.3409 -0.3734
  770MOL0     H 3947   1.782   6.337   6.902  0.5509 -0.6449  2.1341
  770MOL0     H 3948   1.984   6.128   6.715 -0.6055 -0.5755 -0.8766
  770MOL0     H 3949   1.819   6.180   6.760  1.1445 -1.0481  0.8104
  770MOL0     H 3950   1.903   6.261   6.629  0.0020  0.1708 -0.4117
  771MOL0     O 3951  10.432   8.476   3.403 -0.0096 -0.5181 -0.5888
  771MOL0     C 3952  10.424   8.595   3.409 -0.0623 -0.5214  0.9566
  771MOL0     O 3953  10.474   8.680   3.503 -1.3360 -0.0771  0.1040
  771MOL0     C 3954  10.563   8.632   3.595  1.0121  0.6796 -0.8055
  771MOL0     C 3955  10.523   8.524   3.681 -0.2938  0.3905 -0.2602
  771MOL0     C 3956  10.604   8.483   3.789 -0.3042 -0.5880  0.0901
  771MOL0     C 3957  10.731   8.538   3.809 -0.1193  0.8860 -0.5094
  771MOL0     O 3958  10.812   8.489   3.912  0.8552  0.1047 -0.1851
  771MOL0     C 3959  10.950   8.491   3.878 -0.0517 -0.3335 -0.3361
  771MOL0     C 3960  11.023   8.602   3.949 -0.7335 -0.1143 -1.6395
  771MOL0     C 3961  11.039   8.570   4.099 -0.3530 -0.4654 -0.4407
  771MOL0     C 3962  11.149   8.650   4.176  1.2692  0.8420 -1.2931
  771MOL0     C 3963  11.158   8.802   4.139 -0.3846 -0.5077  1.0248
  771MOL0     C 3964  11.213   8.886   4.255 -0.2215 -0.1449  0.2862
  771MOL0     C 3965  11.365   8.881   4.263 -0.3918 -0.5478  0.5755
  771MOL0     C 3966  11.449   8.975   4.167  0.3387  0.6786 -0.1905
  771MOL0     N 3967  11.426   9.119   4.171  0.8066 -0.8731 -0.8115
  771MOL0     C 3968  11.454   9.205   4.278 -1.0819  0.4055  1.1355
  771MOL0     C 3969  11.382   9.322   4.242 -0.1039 -1.3125 -0.3312
  771MOL0     C 3970  11.410   9.448   4.323  0.2124  0.3093  0.1190
  771MOL0     C 3971  11.539   9.509   4.273 -0.3526 -0.2527  1.2684
  771MOL0     C 3972  11.528   9.562   4.125 -0.1996  0.7860  1.0887
  771MOL0     C 3973  11.629   9.669   4.095  0.1985 -0.9799 -0.0825
  771MOL0     O 3974  11.762   9.611   4.107  0.5894  0.6226  0.8096
  771MOL0     C 3975  11.871   9.692   4.083  0.2056 -0.0569  0.1607
  771MOL0     C 3976  11.883   9.824   4.050  0.6906 -0.0667  0.5323
  771MOL0     C 3977  11.998   9.902   4.046  0.1102 -0.2566  0.3768
  771MOL0     C 3978  12.120   9.840   4.073  0.3155 -0.0076  0.3666
  771MOL0     C 3979  12.244   9.910   4.079 -0.0012  0.4262 -0.6729
  771MOL0     O 3980  12.249  10.024   4.010 -0.4993  0.1740  0.2882
  771MOL0     C 3981  12.365  10.081   3.963  0.5652 -0.0173 -0.8851
  771MOL0     C 3982  12.490  10.018   3.942  0.0557 -0.1026  0.7470
  771MOL0     C 3983  12.591  10.091   3.878 -0.2248  0.6303  0.0791
  771MOL0     C 3984  12.576  10.226   3.847 -0.6434  0.4861 -0.9490
  771MOL0     O 3985  12.674  10.287   3.776  0.8059 -0.3908  0.5345
  771MOL0     C 3986  12.749  10.375   3.851  0.1643 -0.0632  0.3704
  771MOL0     C 3987  12.820  10.466   3.759  0.0693 -0.4560  0.3875
  771MOL0     C 3988  12.741  10.550   3.657  0.2119 -0.3162  0.0209
  771MOL0     C 3989  12.659  10.660   3.728  0.1779 -0.1040  0.2777
  771MOL0     C 3990  12.741  10.789   3.741  0.0629  0.2468  0.6858
  771MOL0     C 3991  12.748  10.877   3.611  0.6257 -0.8469 -0.9399
  771MOL0     C 3992  12.612  10.931   3.549  0.2261  0.1370  0.5537
  771MOL0     C 3993  12.618  11.060   3.461  0.3871  0.8762  0.5276
  771MOL0    Cl 3994  12.443  11.135   3.473  0.7553  0.1474 -0.1398
  771MOL0     C 3995  12.451  10.281   3.863  0.5536  0.3030  0.2407
  771MOL0     C 3996  12.350  10.216   3.933 -0.5768  0.2607  0.8894
  771MOL0     O 3997  12.336   9.861   4.145 -0.4779 -0.5371 -0.8751
  771MOL0     C 3998  12.119   9.701   4.100  0.4287  0.0323 -0.2159
  771MOL0     C 3999  11.997   9.632   4.118  0.6795 -0.1231  1.0312
  771MOL0     N 4000  11.314   9.310   4.111 -0.1269  0.2854 -0.1213
  771MOL0     N 4001  11.348   9.185   4.080  0.3368 -0.0072  1.5986
  771MOL0     C 4002  10.771   8.645   3.721 -0.1748 -0.2429  0.1274
  771MOL0     C 4003  10.682   8.696   3.626 -0.2823 -0.1688  0.6897
  771MOL0     C 4004  10.359   8.664   3.303  1.2188  0.7778  0.1573
  771MOL0     C 4005  10.412   8.787   3.253  0.1393 -0.5265 -0.2584
  771MOL0     C 4006  10.352   8.858   3.152  0.3648  0.1868  0.2608
  771MOL0     C 4007  10.231   8.817   3.105  0.0603 -0.1507  0.4852
  771MOL0     O 4008  10.169   8.889   3.003 -0.0315 -0.0349  0.5027
  771MOL0     C 4009  10.034   8.866   2.962  0.5554  0.0450 -0.3133
  771MOL0     C 4010   9.982   9.001   2.895  0.3771  0.0291 -0.1838
  771MOL0     C 4011   9.865   8.974   2.811 -0.8244 -0.4360  1.1187
  771MOL0     C 4012   9.804   9.096   2.738 -0.5212  1.3921 -0.2393
  771MOL0     C 4013   9.901   9.197   2.700  0.1963 -0.0269  0.3380
  771MOL0     C 4014   9.979   9.282   2.662 -0.6854 -0.8687 -0.0442
  771MOL0     C 4015  10.176   8.695   3.148 -0.7007 -0.2502  0.5493
  771MOL0     C 4016  10.240   8.612   3.244 -0.2284  0.5977 -0.6311
  771MOL0     C 4017  10.197   8.469   3.255  0.1665 -0.1112 -0.1797
  771MOL0     H 4018  10.430   8.474   3.655  0.1667 -1.2110  0.9894
  771MOL0     H 4019  10.575   8.399   3.853  1.0888 -3.0646 -2.3002
  771MOL0     H 4020  10.997   8.401   3.919  2.9253  1.4673  0.5684
  771MOL0     H 4021  10.976   8.489   3.772  0.6990  1.2454 -0.2091
  771MOL0     H 4022  10.974   8.699   3.943  0.6844  0.8777  1.0433
  771MOL0     H 4023  11.119   8.615   3.898  0.0263  1.4956  0.0687
  771MOL0     H 4024  11.055   8.465   4.122 -0.1081  0.0241  1.8520
  771MOL0     H 4025  10.944   8.599   4.146  0.6179 -0.3675  1.5497
  771MOL0     H 4026  11.133   8.640   4.284 -2.7659 -1.5090 -1.9050
  771MOL0     H 4027  11.244   8.599   4.153  2.1988  1.0714  1.6554
  771MOL0     H 4028  11.214   8.819   4.046 -0.5536 -2.4634  0.5341
  771MOL0     H 4029  11.059   8.839   4.110 -0.4017 -0.5365  1.0508
  771MOL0     H 4030  11.190   8.990   4.231 -1.9602  0.0508  2.4848
  771MOL0     H 4031  11.181   8.858   4.356 -0.2463  0.7777  0.5471
  771MOL0     H 4032  11.394   8.779   4.236  4.5368  0.5502  0.7188
  771MOL0     H 4033  11.387   8.907   4.368 -0.0156  2.8979 -0.2240
  771MOL0     H 4034  11.556   8.956   4.182  0.0562 -1.5971 -0.7234
  771MOL0     H 4035  11.436   8.946   4.062 -0.6316  2.2734 -0.5494
  771MOL0     H 4036  11.524   9.173   4.355  2.0146 -4.4227 -3.0637
  771MOL0     H 4037  11.331   9.517   4.292  2.1478  1.8741 -1.6294
  771MOL0     H 4038  11.404   9.425   4.430 -1.3185  0.3148  0.0514
  771MOL0     H 4039  11.579   9.596   4.327 -2.6719  1.8213 -0.1197
  771MOL0     H 4040  11.619   9.435   4.268  0.0723  0.2358 -1.7831
  771MOL0     H 4041  11.424   9.596   4.110  0.4471  2.0952 -0.9986
  771MOL0     H 4042  11.543   9.483   4.051 -0.6228 -1.5239  3.3384
  771MOL0     H 4043  11.621   9.757   4.160  0.9980  1.1371 -2.6713
  771MOL0     H 4044  11.610   9.717   3.999  2.7169  0.1241 -0.1100
  771MOL0     H 4045  11.789   9.876   4.035  1.8284  2.5638  1.8288
  771MOL0     H 4046  11.991  10.007   4.024 -0.1631  0.2958  2.7669
  771MOL0     H 4047  12.512   9.913   3.960  2.3809  0.2614  0.2788
  771MOL0     H 4048  12.683  10.043   3.847  0.8049  1.4757  1.6504
  771MOL0     H 4049  12.698  10.421   3.936  0.6963  0.2597  0.5184
  771MOL0     H 4050  12.828  10.323   3.906 -0.8170 -0.6696  1.2388
  771MOL0     H 4051  12.885  10.533   3.816 -1.1172  1.5841 -0.5207
  771MOL0     H 4052  12.879  10.402   3.693 -0.1332  0.9014 -1.1921
  771MOL0     H 4053  12.798  10.595   3.575 -0.6111  1.3594  0.3321
  771MOL0     H 4054  12.668  10.482   3.613  0.3351 -1.5566  1.6239
  771MOL0     H 4055  12.624  10.616   3.822 -2.7708  0.1196 -0.6472
  771MOL0     H 4056  12.570  10.688   3.672  1.0602  1.6937 -0.3238
  771MOL0     H 4057  12.843  10.769   3.773  1.1122 -2.1071 -3.4371
  771MOL0     H 4058  12.700  10.851   3.822 -3.5605 -0.9116 -0.0809
  771MOL0     H 4059  12.798  10.967   3.649  1.0885 -1.4703 -0.0289
  771MOL0     H 4060  12.816  10.830   3.540  3.7202  0.9585  0.6231
  771MOL0     H 4061  12.538  10.952   3.627 -0.5930  0.6802 -0.3438
  771MOL0     H 4062  12.574  10.856   3.480 -1.0686  2.1571 -1.0793
  771MOL0     H 4063  12.704  11.124   3.483  1.9303 -0.0626 -2.3054
  771MOL0     H 4064  12.632  11.021   3.360  2.2763  3.4797 -0.3291
  771MOL0     H 4065  12.440  10.383   3.827 -1.6908 -0.7198 -2.3572
  771MOL0     H 4066  12.253  10.265   3.946 -1.7343 -2.0258  1.4042
  771MOL0     H 4067  12.213   9.650   4.112  0.7670  0.8508  0.7373
  771MOL0     H 4068  12.002   9.533   4.164  6.1239 -1.6110 -1.8840
  771MOL0     H 4069  10.854   8.715   3.727 -1.7693  1.6042  2.2643
  771MOL0     H 4070  10.713   8.784   3.571 -0.2223 -1.6469 -1.7406
  771MOL0     H 4071  10.509   8.821   3.289  0.1073 -1.3334  0.6468
  771MOL0     H 4072  10.389   8.954   3.120  0.5500 -0.0559 -0.2675
  771MOL0     H 4073   9.980   8.834   3.052  0.2524 -2.6230 -1.3361
  771MOL0     H 4074  10.023   8.780   2.895  0.9275  0.3349 -0.7466
  771MOL0     H 4075  10.067   9.046   2.843  1.2621  0.6148  1.6945
  771MOL0     H 4076   9.959   9.067   2.978  1.0167 -0.8614  0.7213
  771MOL0     H 4077   9.785   8.929   2.871 -1.1844 -2.4933 -0.7934
  771MOL0     H 4078   9.892   8.894   2.742  1.3408  2.1030 -1.2257
  771MOL0     H 4079   9.748   9.068   2.648 -0.7571 -0.0975  0.3416
  771MOL0     H 4080   9.730   9.140   2.805 -3.6485 -1.5890 -1.3928
  771MOL0     H 4081  10.060   9.351   2.650 -1.3989  0.6648  2.9158
  771MOL0     H 4082  10.083   8.665   3.100 -0.2472  0.3719 -0.7771
  771MOL0     H 4083  10.104   8.465   3.197 -0.8530 -1.6347  1.4707
  771MOL0     H 4084  10.263   8.398   3.204 -1.1723 -0.6362 -1.2263
  771MOL0     H 4085  10.177   8.444   3.359  0.6922 -0.4309 -0.1513
  772MOL0     O 4086   8.920   2.751   7.291 -0.4581  0.0973  0.3866
  772MOL0     C 4087   8.926   2.810   7.403 -0.0191 -0.2545  0.1323
  772MOL0     O 4088   9.041   2.817   7.484  0.2739 -0.1979  0.5661
  772MOL0     C 4089   9.158   2.771   7.430  0.4037 -0.1533 -0.8400
  772MOL0     C 4090   9.266   2.856   7.407  0.0699  0.1060 -0.4688
  772MOL0     C 4091   9.394   2.808   7.358 -0.5131  1.2207  0.8955
  772MOL0     C 4092   9.407   2.670   7.321  0.5529  0.5883 -0.4011
  772MOL0     O 4093   9.516   2.636   7.245  0.1434  0.4783 -0.5364
  772MOL0     C 4094   9.562   2.496   7.228  0.8876 -0.0975 -1.2658
  772MOL0     C 4095   9.574   2.435   7.368  0.4452  0.8627  0.7274
  772MOL0     C 4096   9.682   2.323   7.380  0.5466  0.5420  0.0705
  772MOL0     C 4097   9.821   2.376   7.334 -0.0583 -0.5544 -0.1424
  772MOL0     C 4098   9.936   2.286   7.367  0.0205 -1.0745  0.5924
  772MOL0     C 4099   9.942   2.188   7.251 -0.6693 -0.5524 -0.3594
  772MOL0     C 4100  10.003   2.057   7.287  0.2670 -0.4516 -0.2272
  772MOL0     C 4101  10.012   1.965   7.174  0.0917  0.1493 -1.0024
  772MOL0     N 4102  10.054   1.840   7.222  0.0364 -0.6434  0.8916
  772MOL0     C 4103  10.171   1.808   7.280 -0.1609 -0.0422 -0.2886
  772MOL0     C 4104  10.168   1.678   7.306  0.1208 -0.8813 -0.4506
  772MOL0     C 4105  10.276   1.582   7.358 -0.5604 -0.4869 -0.5064
  772MOL0     C 4106  10.398   1.636   7.428 -0.9432  0.7910  0.8868
  772MOL0     C 4107  10.522   1.539   7.424  0.5387 -0.4617  0.4648
  772MOL0     C 4108  10.656   1.607   7.441 -0.0647 -0.2761 -0.9283
  772MOL0     O 4109  10.676   1.627   7.581  0.4374 -0.3747 -0.0320
  772MOL0     C 4110  10.806   1.637   7.627  0.3497  0.2991 -0.1757
  772MOL0     C 4111  10.900   1.703   7.557 -0.0142 -0.3767 -0.4365
  772MOL0     C 4112  11.024   1.717   7.620 -0.5206 -0.1957  0.5535
  772MOL0     C 4113  11.053   1.663   7.745 -0.1667  0.8906 -0.3097
  772MOL0     C 4114  11.187   1.680   7.815  0.2861 -0.4656  0.4683
  772MOL0     O 4115  11.183   1.666   7.950 -0.9659  0.5792 -0.8074
  772MOL0     C 4116  11.310   1.683   8.017  0.1855  0.3310  0.5195
  772MOL0     C 4117  11.394   1.570   8.028 -0.1121 -1.0325 -0.4185
  772MOL0     C 4118  11.523   1.582   8.086  0.0109 -0.4449  0.0839
  772MOL0     C 4119  11.563   1.707   8.137  1.0485 -0.0546 -0.4261
  772MOL0     O 4120  11.677   1.740   8.209  0.9486  0.2854  0.0879
  772MOL0     C 4121  11.777   1.642   8.229 -0.0797 -0.0562  0.5669
  772MOL0     C 4122  11.850   1.617   8.104  0.4752 -0.3326 -0.4546
  772MOL0     C 4123  11.988   1.545   8.127  1.2365 -0.4078 -0.6461
  772MOL0     C 4124  12.078   1.550   8.008  0.7294  0.1756  1.0715
  772MOL0     C 4125  12.201   1.454   8.038 -0.0243 -1.0516 -0.3124
  772MOL0     C 4126  12.326   1.531   8.096 -0.1129  0.0240  0.2997
  772MOL0     C 4127  12.456   1.457   8.074 -0.5136 -0.1182  0.1812
  772MOL0     C 4128  12.560   1.515   8.178 -0.5433 -0.1978 -0.5993
  772MOL0    Cl 4129  12.594   1.689   8.147  0.1139  0.3881  0.3211
  772MOL0     C 4130  11.476   1.819   8.118 -0.2082 -0.5102  0.4914
  772MOL0     C 4131  11.346   1.813   8.057 -0.1514  0.2990 -0.6661
  772MOL0     O 4132  11.287   1.708   7.747  0.3546  0.3026 -0.2930
  772MOL0     C 4133  10.957   1.584   7.806  0.6514 -0.0390 -1.0200
  772MOL0     C 4134  10.829   1.573   7.743 -0.3699 -0.2864 -0.3586
  772MOL0     N 4135  10.051   1.630   7.263 -0.4180  0.2363 -0.8714
  772MOL0     N 4136   9.984   1.720   7.211 -0.8817 -0.6706  0.3395
  772MOL0     C 4137   9.297   2.590   7.333  0.1022 -0.4050  0.1235
  772MOL0     C 4138   9.181   2.638   7.391  0.3527 -1.0951 -0.4117
  772MOL0     C 4139   8.793   2.867   7.455 -0.7583 -0.7419  0.1306
  772MOL0     C 4140   8.806   2.948   7.566  0.3755  0.1189  0.4614
  772MOL0     C 4141   8.690   3.007   7.623  0.5651  0.8138  0.0088
  772MOL0     C 4142   8.564   3.000   7.572 -0.5888  0.3854  0.0447
  772MOL0     O 4143   8.454   3.065   7.623  0.4027 -0.2043  0.0140
  772MOL0     C 4144   8.324   3.016   7.588 -0.1347 -0.9408  0.1770
  772MOL0     C 4145   8.220   3.041   7.711  0.4980  0.0471 -0.0569
  772MOL0     C 4146   8.081   3.036   7.661  0.4692  0.5698  0.1540
  772MOL0     C 4147   7.985   3.055   7.776 -0.2440 -0.2602 -0.6017
  772MOL0     C 4148   7.850   3.046   7.726  0.1782 -0.0936  0.2975
  772MOL0     C 4149   7.742   3.024   7.681  0.2988  0.1733  0.1056
  772MOL0     C 4150   8.556   2.920   7.453 -0.3006  0.5964 -0.8844
  772MOL0     C 4151   8.666   2.851   7.395 -0.1248 -0.1801 -0.6654
  772MOL0     C 4152   8.628   2.754   7.287 -0.2434 -0.0093 -0.3722
  772MOL0     H 4153   9.245   2.958   7.436 -3.0665 -0.7899  0.9080
  772MOL0     H 4154   9.483   2.867   7.340  0.2222 -0.1704 -0.2157
  772MOL0     H 4155   9.485   2.441   7.173 -1.2273  1.6945 -0.2385
  772MOL0     H 4156   9.648   2.516   7.163 -2.2852  1.3327 -5.4874
  772MOL0     H 4157   9.475   2.393   7.386  1.0854 -0.7135  0.6764
  772MOL0     H 4158   9.599   2.513   7.442 -1.6326 -0.7584  3.3167
  772MOL0     H 4159   9.650   2.235   7.322  1.3762 -0.8862  1.6939
  772MOL0     H 4160   9.677   2.269   7.475  0.0716 -0.4721 -0.5027
  772MOL0     H 4161   9.816   2.411   7.231  0.4948 -0.3461 -0.1016
  772MOL0     H 4162   9.834   2.463   7.398 -0.5974  0.2623 -1.1118
  772MOL0     H 4163  10.030   2.343   7.367  0.1812 -1.3300  1.1408
  772MOL0     H 4164   9.924   2.242   7.467  0.8549  0.2361  1.2955
  772MOL0     H 4165   9.840   2.169   7.216 -0.1057  1.2085 -3.3259
  772MOL0     H 4166   9.980   2.227   7.156  1.2274 -1.2283  0.0876
  772MOL0     H 4167   9.950   2.009   7.370  3.7448 -4.3035  0.1549
  772MOL0     H 4168  10.106   2.081   7.315  0.2562 -0.1248 -0.4745
  772MOL0     H 4169   9.914   1.942   7.131 -1.5910  1.8606  1.6740
  772MOL0     H 4170  10.083   1.998   7.097  3.3802 -0.2324  1.6590
  772MOL0     H 4171  10.250   1.877   7.305 -1.3724  1.6295 -0.8970
  772MOL0     H 4172  10.235   1.517   7.436 -1.2805  1.1642  0.5444
  772MOL0     H 4173  10.303   1.521   7.271  1.6661  0.9617 -0.9076
  772MOL0     H 4174  10.430   1.724   7.372  0.4228 -0.7903 -0.9287
  772MOL0     H 4175  10.384   1.657   7.534 -0.2169 -0.8221  1.3305
  772MOL0     H 4176  10.528   1.494   7.324 -2.1816  0.5267 -0.2527
  772MOL0     H 4177  10.499   1.462   7.498 -4.6116  0.0678 -0.1611
  772MOL0     H 4178  10.667   1.703   7.391 -0.5133  0.5346  0.4672
  772MOL0     H 4179  10.730   1.537   7.401  1.3133 -0.5304  1.8287
  772MOL0     H 4180  10.894   1.756   7.462  1.9643 -0.4804 -0.6685
  772MOL0     H 4181  11.097   1.772   7.561  2.3825 -2.9101  1.3385
  772MOL0     H 4182  11.360   1.478   7.983  0.3815 -2.1249  1.3176
  772MOL0     H 4183  11.589   1.498   8.069  0.7174  0.3121 -0.9903
  772MOL0     H 4184  11.835   1.690   8.308  1.1820  1.1785 -1.0155
  772MOL0     H 4185  11.748   1.549   8.277  2.5588 -1.5356 -0.5008
  772MOL0     H 4186  11.787   1.556   8.038 -0.9087  0.8202 -0.2517
  772MOL0     H 4187  11.878   1.716   8.065 -1.0602  0.1342 -0.4588
  772MOL0     H 4188  12.044   1.588   8.210  0.2596 -3.6854  1.9174
  772MOL0     H 4189  11.960   1.443   8.152  0.9632  0.0355  0.9486
  772MOL0     H 4190  12.117   1.651   7.995  1.8015 -0.0565  2.2365
  772MOL0     H 4191  12.026   1.519   7.917  0.3622 -0.3228  1.4399
  772MOL0     H 4192  12.225   1.412   7.940  1.3282 -0.5239 -0.2296
  772MOL0     H 4193  12.171   1.372   8.104 -0.7761 -1.0435 -0.6418
  772MOL0     H 4194  12.322   1.629   8.047 -1.5811 -0.9369 -1.6213
  772MOL0     H 4195  12.306   1.536   8.203 -1.1442 -1.4655  0.1994
  772MOL0     H 4196  12.494   1.472   7.972 -0.6121 -0.4696  0.0895
  772MOL0     H 4197  12.449   1.350   8.094  2.6013 -0.8126 -1.7495
  772MOL0     H 4198  12.525   1.508   8.281  1.2459 -0.7669  0.0188
  772MOL0     H 4199  12.649   1.451   8.175 -0.9331 -0.8187  0.6596
  772MOL0     H 4200  11.519   1.917   8.137  0.5885 -0.3764 -1.7138
  772MOL0     H 4201  11.293   1.903   8.028  0.2469 -0.7211 -5.2354
  772MOL0     H 4202  10.974   1.529   7.898 -3.5226  1.0200  0.6202
  772MOL0     H 4203  10.755   1.511   7.793  1.6195 -0.2789  2.8801
  772MOL0     H 4204   9.297   2.490   7.292  0.9828 -1.1773  1.9027
  772MOL0     H 4205   9.100   2.568   7.402 -2.9330  2.3610 -0.4589
  772MOL0     H 4206   8.905   2.968   7.604  2.1278 -4.6233 -0.9015
  772MOL0     H 4207   8.699   3.057   7.718 -0.9088  0.8183  0.1727
  772MOL0     H 4208   8.323   2.910   7.560  2.0074 -1.2312  0.9747
  772MOL0     H 4209   8.302   3.075   7.499  1.1834  0.6982  0.8821
  772MOL0     H 4210   8.238   3.143   7.746 -1.5073  0.7535 -0.9331
  772MOL0     H 4211   8.251   2.982   7.798  0.5147  1.5476  0.9863
  772MOL0     H 4212   8.062   2.934   7.626  0.9053  0.3430  0.5757
  772MOL0     H 4213   8.065   3.114   7.585  2.2135  1.6067  0.7955
  772MOL0     H 4214   8.005   2.981   7.854 -1.2663 -1.7215 -1.6722
  772MOL0     H 4215   8.010   3.154   7.817  6.6100 -1.7424  0.1342
  772MOL0     H 4216   7.645   2.995   7.648  1.0842 -0.1332 -2.0724
  772MOL0     H 4217   8.460   2.912   7.403 -2.2419 -0.3172  2.6693
  772MOL0     H 4218   8.637   2.798   7.187 -1.7506 -1.8540 -1.3797
  772MOL0     H 4219   8.692   2.665   7.287  0.1230  0.0124  4.3604
  772MOL0     H 4220   8.529   2.713   7.307 -0.1865 -0.1807 -0.4414
  773MOL0     O 4221   6.570   9.374  10.663 -0.1707 -0.0870  0.0348
  773MOL0     C 4222   6.573   9.340  10.546 -0.2085  0.5064 -0.3256
  773MOL0     O 4223   6.680   9.350  10.466 -0.5256  0.1019  0.1525
  773MOL0     C 4224   6.798   9.414  10.502  0.1826 -0.6958 -0.2113
  773MOL0     C 4225   6.878   9.395  10.611  0.1354 -0.5347 -0.7808
  773MOL0     C 4226   6.977   9.482  10.655 -0.8998 -0.3099  0.2191
  773MOL0     C 4227   7.024   9.584  10.567  0.5334  0.0320 -0.3003
  773MOL0     O 4228   7.131   9.675  10.595  0.8457  0.7170  0.2689
  773MOL0     C 4229   7.163   9.776  10.499 -0.0113 -0.7661  0.5504
  773MOL0     C 4230   7.290   9.851  10.551  0.7076  0.8436  0.5708
  773MOL0     C 4231   7.347   9.953  10.454 -0.9731 -0.6344 -0.7200
  773MOL0     C 4232   7.491   9.975  10.494  0.4363  0.7803  0.3958
  773MOL0     C 4233   7.562  10.082  10.405 -0.1183  0.1144  0.2857
  773MOL0     C 4234   7.702  10.126  10.451  1.2164 -0.1362 -0.4136
  773MOL0     C 4235   7.690  10.192  10.590 -0.0105 -0.1969  0.7231
  773MOL0     C 4236   7.785  10.313  10.605 -1.0639  0.4107  0.3872
  773MOL0     N 4237   7.756  10.423  10.522  0.4521 -0.6538 -1.0964
  773MOL0     C 4238   7.836  10.489  10.432 -0.4248  0.7466  0.1083
  773MOL0     C 4239   7.764  10.600  10.394 -0.4470 -0.3611 -0.2394
  773MOL0     C 4240   7.803  10.702  10.280 -0.2194 -0.0226  0.6878
  773MOL0     C 4241   7.949  10.743  10.302  0.5736 -0.6052 -0.0699
  773MOL0     C 4242   7.998  10.804  10.170 -0.0303  0.2722 -0.2337
  773MOL0     C 4243   8.144  10.771  10.150  0.2666 -0.4422 -0.0270
  773MOL0     O 4244   8.228  10.847  10.229 -0.5170 -0.2135 -0.6265
  773MOL0     C 4245   8.360  10.814  10.226 -0.3198 -0.4053  0.6069
  773MOL0     C 4246   8.443  10.783  10.110  0.4085 -0.8488 -1.0022
  773MOL0     C 4247   8.583  10.771  10.124  0.2763 -0.0627 -0.1004
  773MOL0     C 4248   8.648  10.780  10.249  0.0949 -0.1016  0.2762
  773MOL0     C 4249   8.797  10.782  10.259  0.5704 -1.5340 -0.5044
  773MOL0     O 4250   8.853  10.831  10.371 -0.7325  0.1981 -0.0878
  773MOL0     C 4251   8.991  10.846  10.365  0.1692  0.5183 -1.0601
  773MOL0     C 4252   9.038  10.959  10.426  0.1159 -0.7752 -0.1458
  773MOL0     C 4253   9.174  10.990  10.432  0.0157  0.6434  0.5590
  773MOL0     C 4254   9.268  10.892  10.382 -0.7109  0.1875 -0.1625
  773MOL0     O 4255   9.400  10.909  10.391  0.4176  0.3099 -0.7417
  773MOL0     C 4256   9.452  11.038  10.436 -0.2825 -0.5961 -0.2367
  773MOL0     C 4257   9.600  11.030  10.483  0.7850  0.7484  0.4648
  773MOL0     C 4258   9.624  10.901  10.575  0.5530  0.5658  0.5402
  773MOL0     C 4259   9.531  10.893  10.695  0.8695  0.1814  0.3200
  773MOL0     C 4260   9.552  10.756  10.777  0.6097  0.2239  0.3622
  773MOL0     C 4261   9.524  10.629  10.701 -0.2831  0.5189 -0.1093
  773MOL0     C 4262   9.378  10.613  10.660 -0.1597  0.3593 -0.3255
  773MOL0     C 4263   9.270  10.645  10.767  1.0144 -0.1637  0.3346
  773MOL0    Cl 4264   9.103  10.598  10.718  0.0526 -0.3079 -0.2706
  773MOL0     C 4265   9.223  10.768  10.328  0.9707  0.0774  0.1473
  773MOL0     C 4266   9.081  10.751  10.313 -0.1420  0.1681  0.3982
  773MOL0     O 4267   8.850  10.752  10.154  0.1255 -0.0215 -1.0282
  773MOL0     C 4268   8.562  10.814  10.358  0.4373  0.1927  0.2641
  773MOL0     C 4269   8.421  10.832  10.351 -0.7250  0.4027 -0.4395
  773MOL0     N 4270   7.642  10.597  10.448  0.2396 -0.7492 -0.0035
  773MOL0     N 4271   7.638  10.496  10.518 -0.0783  0.6492  0.0971
  773MOL0     C 4272   6.952   9.605  10.441 -0.2090  0.5271 -1.0148
  773MOL0     C 4273   6.835   9.525  10.420  0.4089 -0.3802 -0.3976
  773MOL0     C 4274   6.452   9.286  10.481  0.4612  0.9979 -0.1713
  773MOL0     C 4275   6.439   9.303  10.343 -0.0970 -0.2612 -1.0914
  773MOL0     C 4276   6.329   9.273  10.272  0.0422 -0.8061 -0.0929
  773MOL0     C 4277   6.226   9.198  10.329 -0.3244 -0.4241 -0.4737
  773MOL0     O 4278   6.123   9.150  10.255  0.6420  0.2529 -0.4697
  773MOL0     C 4279   6.035   9.056  10.321 -0.5016  0.0451  0.0659
  773MOL0     C 4280   5.941   9.003  10.219 -0.4799  0.3751  0.2620
  773MOL0     C 4281   6.024   8.906  10.124  0.0448 -0.1721 -0.5332
  773MOL0     C 4282   5.938   8.884   9.999 -0.2488 -0.6239 -0.3487
  773MOL0     C 4283   5.828   8.787  10.002 -0.4198 -0.1285 -0.0434
  773MOL0     C 4284   5.753   8.691  10.012  0.0608 -0.2506 -0.0609
  773MOL0     C 4285   6.231   9.186  10.469  0.3554  0.0177 -0.0777
  773MOL0     C 4286   6.345   9.223  10.549  1.3772  0.2316  0.2139
  773MOL0     C 4287   6.335   9.207  10.695  0.2151  0.5962 -0.1190
  773MOL0     H 4288   6.841   9.309  10.666 -2.0224  0.0635 -1.1955
  773MOL0     H 4289   7.039   9.477  10.743  0.0591  1.8791 -0.2529
  773MOL0     H 4290   7.185   9.745  10.396  1.0298  0.3366  0.4164
  773MOL0     H 4291   7.081   9.847  10.484  1.5982  0.7450 -1.9446
  773MOL0     H 4292   7.363   9.774  10.575  1.4607  0.3347 -2.8642
  773MOL0     H 4293   7.272   9.907  10.644 -0.2386  2.1776 -0.3654
  773MOL0     H 4294   7.294  10.048  10.447  1.6455  0.8643 -1.4487
  773MOL0     H 4295   7.342   9.911  10.353 -0.6546 -2.0083 -0.1843
  773MOL0     H 4296   7.491  10.013  10.597 -1.3886  0.9890  0.3599
  773MOL0     H 4297   7.545   9.881  10.486 -0.9998 -0.1218  0.9773
  773MOL0     H 4298   7.582  10.046  10.303 -1.1411  0.3742 -0.0141
  773MOL0     H 4299   7.494  10.166  10.394  0.4893  0.6119  0.2909
  773MOL0     H 4300   7.762  10.035  10.456 -0.5746 -1.3129  0.8527
  773MOL0     H 4301   7.724  10.195  10.368 -3.2357  3.3071  0.8261
  773MOL0     H 4302   7.718  10.120  10.668  0.0323  1.5777  2.4171
  773MOL0     H 4303   7.587  10.214  10.619 -1.1627 -2.3629 -1.3664
  773MOL0     H 4304   7.787  10.339  10.711  1.4633 -3.8526  1.6429
  773MOL0     H 4305   7.893  10.297  10.596 -0.8104  1.3884  1.4199
  773MOL0     H 4306   7.938  10.462  10.411 -0.1700  0.8116  1.1911
  773MOL0     H 4307   7.798  10.656  10.181  2.0728 -0.4484  0.7130
  773MOL0     H 4308   7.734  10.787  10.292 -0.6455  0.0854 -1.9753
  773MOL0     H 4309   7.955  10.818  10.381  0.4566  1.5151 -1.9473
  773MOL0     H 4310   8.014  10.660  10.331  0.1163  0.1404  3.4380
  773MOL0     H 4311   7.991  10.913  10.182 -1.1478  0.3399 -1.2931
  773MOL0     H 4312   7.940  10.767  10.085 -0.7046 -0.5204  0.5440
  773MOL0     H 4313   8.159  10.788  10.043 -2.1994  0.1961 -0.3338
  773MOL0     H 4314   8.165  10.664  10.157  2.9535 -0.1296 -1.6650
  773MOL0     H 4315   8.391  10.767  10.016 -0.5626  0.5418 -0.7280
  773MOL0     H 4316   8.642  10.773  10.033 -0.1120  0.8631 -0.3459
  773MOL0     H 4317   8.968  11.034  10.462 -1.3648 -3.1588  2.3420
  773MOL0     H 4318   9.200  11.089  10.469 -0.1278  0.3027  1.6270
  773MOL0     H 4319   9.459  11.109  10.353  3.8633  1.2378  1.3905
  773MOL0     H 4320   9.395  11.079  10.521 -1.1205  2.5860 -2.1583
  773MOL0     H 4321   9.668  11.017  10.398  3.3435 -3.7303  2.8418
  773MOL0     H 4322   9.629  11.117  10.543 -0.4328  2.7554 -1.6998
  773MOL0     H 4323   9.596  10.809  10.522 -2.1304  1.3104  0.5063
  773MOL0     H 4324   9.726  10.908  10.613 -0.2985  2.0257  2.8153
  773MOL0     H 4325   9.425  10.887  10.671  0.7234 -0.2069  1.0480
  773MOL0     H 4326   9.546  10.979  10.761  1.9563 -0.0146  0.3462
  773MOL0     H 4327   9.473  10.757  10.853 -1.5501  1.5935 -1.7276
  773MOL0     H 4328   9.656  10.755  10.809 -0.1495 -1.1505  3.0667
  773MOL0     H 4329   9.591  10.629  10.615 -2.0014  0.4839 -1.5013
  773MOL0     H 4330   9.548  10.554  10.777 -0.8362  2.0573  1.6763
  773MOL0     H 4331   9.359  10.509  10.629 -1.1676 -0.2996  2.2812
  773MOL0     H 4332   9.366  10.676  10.571 -2.3573  0.3653 -0.0854
  773MOL0     H 4333   9.295  10.609  10.867 -1.3583  1.7175  1.7234
  773MOL0     H 4334   9.272  10.754  10.774 -1.1746  0.0172 -0.8704
  773MOL0     H 4335   9.293  10.693  10.291 -0.9017 -1.6348 -0.0625
  773MOL0     H 4336   9.056  10.655  10.270 -1.8052  0.5193  0.5022
  773MOL0     H 4337   8.607  10.814  10.456  2.5765 -2.7040 -0.5985
  773MOL0     H 4338   8.362  10.847  10.440  1.1657  2.4603  0.5747
  773MOL0     H 4339   6.969   9.684  10.369 -6.3313  0.4797 -3.1026
  773MOL0     H 4340   6.766   9.545  10.338 -2.7277  1.7582  2.4597
  773MOL0     H 4341   6.524   9.341  10.288  0.0399 -0.5017 -1.0447
  773MOL0     H 4342   6.335   9.281  10.164  0.4478 -3.8453 -0.4036
  773MOL0     H 4343   5.965   9.100  10.394 -2.5075 -0.4641 -1.4697
  773MOL0     H 4344   6.091   8.973  10.364 -1.7418 -0.9750 -0.2387
  773MOL0     H 4345   5.911   9.094  10.166  2.0145  1.5553  0.7052
  773MOL0     H 4346   5.859   8.955  10.273  1.2311 -0.2417  2.4748
  773MOL0     H 4347   6.045   8.810  10.171 -2.2796 -0.2385  0.5310
  773MOL0     H 4348   6.113   8.958  10.088 -1.4649  0.6259 -3.4103
  773MOL0     H 4349   5.906   8.976   9.948 -0.4758 -0.0271  0.8278
  773MOL0     H 4350   6.005   8.848   9.920  0.6082 -0.7871  0.4335
  773MOL0     H 4351   5.682   8.611  10.005 -0.2142  0.1223 -1.9776
  773MOL0     H 4352   6.155   9.138  10.530  0.7953  1.0435  1.3323
  773MOL0     H 4353   6.431   9.176  10.738  0.6034 -0.3048 -1.5517
  773MOL0     H 4354   6.296   9.302  10.732  0.3505  0.5583  0.1170
  773MOL0     H 4355   6.257   9.135  10.721  1.7578 -0.8422  0.7777
  774MOL0     O 4356   6.235   6.834   4.210  0.6757  0.2803  0.6919
  774MOL0     C 4357   6.258   6.857   4.328 -0.0858  0.0646 -0.1207
  774MOL0     O 4358   6.382   6.868   4.370  0.2593  0.4345  0.2044
  774MOL0     C 4359   6.500   6.875   4.289  0.1668  0.0897 -0.0539
  774MOL0     C 4360   6.622   6.906   4.356 -0.2107 -0.3606 -0.5785
  774MOL0     C 4361   6.743   6.915   4.287 -0.3846 -0.0819 -0.2490
  774MOL0     C 4362   6.751   6.901   4.150 -0.2001 -0.1769 -0.1773
  774MOL0     O 4363   6.869   6.922   4.081  0.7492  0.1061 -0.3052
  774MOL0     C 4364   6.866   7.050   4.030 -0.0328 -0.7913 -0.0088
  774MOL0     C 4365   6.986   7.068   3.939 -0.3222 -0.0831 -1.0073
  774MOL0     C 4366   7.100   7.084   4.033 -0.5907  0.4127 -0.3182
  774MOL0     C 4367   7.229   7.133   3.952  0.1096 -0.1212  0.1105
  774MOL0     C 4368   7.351   7.092   4.031 -0.6107  0.0517  0.9469
  774MOL0     C 4369   7.481   7.116   3.946  0.1935  0.5805 -0.0108
  774MOL0     C 4370   7.595   7.087   4.038 -0.9972  0.1003 -0.0157
  774MOL0     C 4371   7.728   7.125   3.974 -0.8723 -0.4048 -0.7349
  774MOL0     N 4372   7.828   7.108   4.078 -0.2214 -0.9160  0.7902
  774MOL0     C 4373   7.866   7.205   4.160 -0.4460 -0.5563 -0.3439
  774MOL0     C 4374   7.989   7.170   4.195 -0.8726  0.3203  0.5597
  774MOL0     C 4375   8.095   7.256   4.250  0.7780 -0.2387  0.2837
  774MOL0     C 4376   8.113   7.235   4.401 -1.3367  0.3242 -0.5787
  774MOL0     C 4377   8.225   7.315   4.468 -0.1006  0.4193 -0.0965
  774MOL0     C 4378   8.350   7.311   4.378 -0.1232  0.5695  0.6892
  774MOL0     O 4379   8.476   7.314   4.445 -0.7001  0.0070 -0.0334
  774MOL0     C 4380   8.532   7.435   4.479 -0.1272 -0.6989  0.0095
  774MOL0     C 4381   8.665   7.455   4.492 -1.3201 -0.1437  0.7547
  774MOL0     C 4382   8.726   7.578   4.520  0.0343  0.1021 -0.0333
  774MOL0     C 4383   8.654   7.695   4.524  0.8433 -1.0998 -0.0599
  774MOL0     C 4384   8.718   7.832   4.537  0.0664  0.9468  0.0021
  774MOL0     O 4385   8.853   7.831   4.546  1.0288 -0.4006  0.1175
  774MOL0     C 4386   8.913   7.946   4.592 -0.0664 -1.0584  0.0519
  774MOL0     C 4387   8.855   8.052   4.669  0.1055  0.2588 -0.3714
  774MOL0     C 4388   8.930   8.161   4.709 -0.0229 -0.6352  0.4909
  774MOL0     C 4389   9.058   8.174   4.686 -0.2837 -0.0032 -1.0804
  774MOL0     O 4390   9.127   8.291   4.726  0.5466  0.1088  0.7986
  774MOL0     C 4391   9.243   8.265   4.808  0.3235  0.4872  0.5220
  774MOL0     C 4392   9.326   8.393   4.829  0.0918 -0.5582 -0.3386
  774MOL0     C 4393   9.464   8.378   4.885 -0.7593  0.4809 -0.1340
  774MOL0     C 4394   9.520   8.523   4.904 -0.4207  0.1326  0.0565
  774MOL0     C 4395   9.661   8.522   4.966  0.2316  0.0679  0.3885
  774MOL0     C 4396   9.708   8.658   4.994  0.1179 -0.6148  0.0969
  774MOL0     C 4397   9.859   8.647   4.999  0.5150 -0.2093 -0.5353
  774MOL0     C 4398   9.927   8.780   4.987  0.0955  0.0185  0.9455
  774MOL0    Cl 4399  10.093   8.727   5.041  0.0841 -0.1607 -0.2019
  774MOL0     C 4400   9.116   8.079   4.609  0.4277 -0.9633 -0.3779
  774MOL0     C 4401   9.050   7.961   4.574 -0.5375  0.6731  0.4043
  774MOL0     O 4402   8.645   7.930   4.530  0.1804 -0.4117 -0.4821
  774MOL0     C 4403   8.514   7.680   4.507  0.6599 -0.1906 -0.2467
  774MOL0     C 4404   8.452   7.550   4.490  0.5352 -0.1962  0.3946
  774MOL0     N 4405   8.020   7.053   4.124 -0.9756 -0.3946  0.6790
  774MOL0     N 4406   7.919   7.019   4.054 -1.1453  0.9891 -0.1660
  774MOL0     C 4407   6.636   6.855   4.084  0.0767 -0.4863 -0.7105
  774MOL0     C 4408   6.511   6.843   4.151  0.4283 -0.5404 -0.3644
  774MOL0     C 4409   6.146   6.863   4.430  0.2017  0.2950  0.0817
  774MOL0     C 4410   6.011   6.836   4.395 -0.1792 -0.3318  0.0419
  774MOL0     C 4411   5.904   6.848   4.484  0.5115  0.4180  0.4636
  774MOL0     C 4412   5.926   6.866   4.621 -0.1759  0.4485 -0.1567
  774MOL0     O 4413   5.821   6.850   4.710 -0.1187 -0.4323  0.8212
  774MOL0     C 4414   5.851   6.743   4.810  0.9043  0.0900  0.5614
  774MOL0     C 4415   5.732   6.732   4.910 -0.6238  0.1289  0.0219
  774MOL0     C 4416   5.784   6.757   5.052 -0.4126  0.5765  0.2984
  774MOL0     C 4417   5.675   6.734   5.154  0.4322 -0.5554  0.8486
  774MOL0     C 4418   5.581   6.844   5.138  0.0651 -0.1392 -0.1566
  774MOL0     C 4419   5.506   6.939   5.124 -0.1260  0.0656 -0.6257
  774MOL0     C 4420   6.058   6.892   4.664 -0.4302 -0.0499 -1.1211
  774MOL0     C 4421   6.167   6.889   4.573  0.3375 -0.1178  0.0149
  774MOL0     C 4422   6.308   6.921   4.639  0.2847  0.2261  0.4286
  774MOL0     H 4423   6.627   6.902   4.465  2.2935 -2.0247 -0.6484
  774MOL0     H 4424   6.834   6.930   4.342 -0.4491 -1.2241  0.1807
  774MOL0     H 4425   6.782   7.063   3.960 -3.6941  0.6443  4.1452
  774MOL0     H 4426   6.863   7.133   4.101 -0.7856  0.7385 -1.7294
  774MOL0     H 4427   6.986   7.158   3.878  1.4207 -1.8275 -3.8352
  774MOL0     H 4428   7.004   6.988   3.867  0.1875 -1.5820  0.6909
  774MOL0     H 4429   7.109   6.987   4.082 -4.6104 -0.4698 -0.9780
  774MOL0     H 4430   7.083   7.157   4.112 -2.0250 -0.4898  0.2254
  774MOL0     H 4431   7.221   7.073   3.861 -3.0829  1.7236 -0.9725
  774MOL0     H 4432   7.217   7.240   3.931 -1.0914  0.3936  3.0079
  774MOL0     H 4433   7.354   7.133   4.133  1.0553  1.9622  0.2005
  774MOL0     H 4434   7.341   6.984   4.047  2.5155 -0.3831  0.7368
  774MOL0     H 4435   7.481   7.066   3.849 -1.1143 -0.2803  0.3981
  774MOL0     H 4436   7.492   7.223   3.926  1.1760  0.3072 -1.0049
  774MOL0     H 4437   7.595   6.981   4.066  0.7176  0.6261  2.3070
  774MOL0     H 4438   7.585   7.131   4.138 -0.9618 -0.1092  0.0803
  774MOL0     H 4439   7.750   7.056   3.892  0.4836  0.0484 -0.7645
  774MOL0     H 4440   7.734   7.223   3.926  0.2587 -0.5270 -0.8569
  774MOL0     H 4441   7.824   7.299   4.194 -0.2012 -1.5978  3.3841
  774MOL0     H 4442   8.188   7.245   4.194  1.3059 -0.7085  1.2162
  774MOL0     H 4443   8.058   7.356   4.231  0.3527 -0.2276  1.1068
  774MOL0     H 4444   8.025   7.255   4.463  1.7079  2.6454  3.4310
  774MOL0     H 4445   8.132   7.128   4.413  0.4237  0.7424  0.5483
  774MOL0     H 4446   8.246   7.289   4.572  0.2459 -0.1706 -0.3099
  774MOL0     H 4447   8.183   7.416   4.471 -0.3403  0.3021  1.9983
  774MOL0     H 4448   8.355   7.390   4.303  0.3070  0.1308  0.2431
  774MOL0     H 4449   8.349   7.215   4.324 -3.1071  1.2913 -0.7815
  774MOL0     H 4450   8.719   7.362   4.477 -0.9496  0.2103 -0.1750
  774MOL0     H 4451   8.831   7.587   4.546 -0.6707  2.5218  2.4331
  774MOL0     H 4452   8.749   8.049   4.692 -0.1041 -1.4699 -1.3871
  774MOL0     H 4453   8.888   8.243   4.767 -0.9781 -0.5196 -0.3323
  774MOL0     H 4454   9.221   8.220   4.906 -0.5844  0.5871  0.3707
  774MOL0     H 4455   9.308   8.195   4.755  2.6457  0.8504  2.6982
  774MOL0     H 4456   9.330   8.446   4.734 -0.4057 -1.2128 -0.7379
  774MOL0     H 4457   9.271   8.449   4.905 -1.7326 -1.7447 -0.7226
  774MOL0     H 4458   9.467   8.320   4.978  1.3486 -1.6055 -1.3851
  774MOL0     H 4459   9.523   8.322   4.812 -1.5914 -1.8535  0.8565
  774MOL0     H 4460   9.458   8.576   4.977  0.3368  3.5336 -1.5613
  774MOL0     H 4461   9.529   8.583   4.813  0.9675 -0.7860 -0.4289
  774MOL0     H 4462   9.729   8.472   4.897  1.6085  0.9911  1.0378
  774MOL0     H 4463   9.651   8.468   5.060  0.8704 -0.0371  0.3993
  774MOL0     H 4464   9.679   8.731   4.918  4.6125  0.4494 -0.9310
  774MOL0     H 4465   9.680   8.690   5.094  2.4066 -0.9701  0.9077
  774MOL0     H 4466   9.900   8.590   4.916 -0.6394 -0.1085 -1.2057
  774MOL0     H 4467   9.879   8.594   5.092 -1.2127  0.3955  0.2160
  774MOL0     H 4468   9.938   8.817   4.885 -2.9967  1.9393  1.1882
  774MOL0     H 4469   9.894   8.855   5.059  1.8515 -1.5979  3.6124
  774MOL0     H 4470   9.215   8.099   4.568  0.5167 -0.1250  0.2257
  774MOL0     H 4471   9.106   7.890   4.513 -2.3107 -1.0887  0.7357
  774MOL0     H 4472   8.451   7.764   4.535 -0.5966 -0.8302 -1.0712
  774MOL0     H 4473   8.344   7.549   4.480  0.5130  2.7051 -0.3690
  774MOL0     H 4474   6.638   6.838   3.977 -0.2908  0.1471 -0.8198
  774MOL0     H 4475   6.437   6.809   4.080 -0.4893  1.3240 -0.3343
  774MOL0     H 4476   5.993   6.830   4.288  2.7864 -1.3143 -0.4840
  774MOL0     H 4477   5.800   6.829   4.459  1.4273 -2.3905 -1.8348
  774MOL0     H 4478   5.949   6.770   4.850  1.2133  0.0584 -0.1464
  774MOL0     H 4479   5.863   6.649   4.755 -1.6855  0.9283 -1.6732
  774MOL0     H 4480   5.706   6.627   4.897 -0.5465 -0.0752  1.4200
  774MOL0     H 4481   5.660   6.811   4.888  0.1825  0.7650 -0.4037
  774MOL0     H 4482   5.831   6.856   5.061 -0.0391  0.2338  3.1798
  774MOL0     H 4483   5.859   6.682   5.079 -1.5747 -1.3014 -1.4369
  774MOL0     H 4484   5.615   6.645   5.134 -0.4963 -0.0596  1.3661
  774MOL0     H 4485   5.710   6.730   5.258 -1.4453 -2.6210  1.4769
  774MOL0     H 4486   5.425   7.007   5.101  1.5936  2.1709 -0.8088
  774MOL0     H 4487   6.075   6.892   4.771 -0.8293 -1.4471 -1.0339
  774MOL0     H 4488   6.295   6.974   4.734  0.4700  0.0093  0.5732
  774MOL0     H 4489   6.365   6.828   4.648  2.0700  0.8645 -2.6493
  774MOL0     H 4490   6.374   6.980   4.574 -1.7288 -0.2619 -2.2804
  775MOL0     O 4491   4.168   0.079   9.858 -0.1608 -0.2374 -0.4781
  775MOL0     C 4492   4.285   0.057   9.872 -0.4572 -0.0676  0.5764
  775MOL0     O 4493   4.388   0.140   9.831  0.0373  0.6539  0.3600
  775MOL0     C 4494   4.352   0.265   9.783  0.1939 -0.2997 -0.1329
  775MOL0     C 4495   4.257   0.280   9.688 -0.4217  0.0995 -0.3224
  775MOL0     C 4496   4.228   0.404   9.633 -0.2225 -0.1767 -0.6633
  775MOL0     C 4497   4.302   0.514   9.665 -0.5514  0.6636  0.0260
  775MOL0     O 4498   4.289   0.644   9.621 -0.1352 -0.5562  0.5950
  775MOL0     C 4499   4.197   0.670   9.518  0.3584  0.1305 -0.1107
  775MOL0     C 4500   4.163   0.822   9.520 -0.1736  0.0785 -0.9048
  775MOL0     C 4501   4.073   0.866   9.400  0.4985 -0.3851 -0.2561
  775MOL0     C 4502   4.073   1.012   9.349  0.8326  0.1982 -0.0131
  775MOL0     C 4503   3.985   1.020   9.228  0.1823  0.5346 -0.0480
  775MOL0     C 4504   3.988   1.153   9.163 -0.1138 -0.5052 -0.5961
  775MOL0     C 4505   3.950   1.144   9.013 -0.0599 -0.3694  0.2106
  775MOL0     C 4506   3.810   1.094   8.986  0.0193 -0.2441  0.0708
  775MOL0     N 4507   3.794   1.078   8.842 -0.0678  0.1909  0.6968
  775MOL0     C 4508   3.807   1.174   8.739 -0.3727 -0.2159 -0.4898
  775MOL0     C 4509   3.770   1.121   8.629  0.0883 -0.7390  0.3133
  775MOL0     C 4510   3.783   1.182   8.498  0.5804 -0.1983  0.1742
  775MOL0     C 4511   3.700   1.321   8.488 -0.0626 -0.0027  0.4275
  775MOL0     C 4512   3.664   1.381   8.343  0.1241 -0.3858  0.7197
  775MOL0     C 4513   3.594   1.524   8.348 -0.8867 -0.5420  0.2266
  775MOL0     O 4514   3.573   1.568   8.220  0.0459 -0.3761  0.1357
  775MOL0     C 4515   3.644   1.676   8.179  0.2849  0.7988 -0.2839
  775MOL0     C 4516   3.580   1.742   8.072 -1.1410  0.0487  0.2107
  775MOL0     C 4517   3.651   1.839   8.006 -0.2038  0.1732 -0.1456
  775MOL0     C 4518   3.782   1.880   8.039 -0.0242 -0.3174  0.1400
  775MOL0     C 4519   3.842   1.992   7.964 -0.3967  0.0359  0.3670
  775MOL0     O 4520   3.973   2.021   8.000  0.1251 -0.5268  0.0750
  775MOL0     C 4521   4.021   2.142   7.979  0.3018 -0.7714 -0.2404
  775MOL0     C 4522   4.109   2.176   7.875  0.5585  0.6296  0.1462
  775MOL0     C 4523   4.167   2.297   7.871  0.4452  0.2033 -0.8698
  775MOL0     C 4524   4.131   2.405   7.954 -0.1339 -0.1726 -0.2296
  775MOL0     O 4525   4.186   2.523   7.930 -0.1033  0.4018  0.1921
  775MOL0     C 4526   4.084   2.621   7.896 -0.1964 -0.4410 -0.0514
  775MOL0     C 4527   4.164   2.734   7.851  0.1241 -0.4504 -0.1952
  775MOL0     C 4528   4.078   2.862   7.837 -0.3769  0.4298  0.0097
  775MOL0     C 4529   3.965   2.852   7.735 -0.4115  0.5396 -0.0832
  775MOL0     C 4530   3.881   2.984   7.738  0.0497 -0.0843 -0.5570
  775MOL0     C 4531   3.755   2.978   7.658  0.2319  0.6745 -0.6157
  775MOL0     C 4532   3.656   3.093   7.693  0.3975 -0.0334 -0.5929
  775MOL0     C 4533   3.508   3.059   7.660  0.2216 -0.1456 -0.6952
  775MOL0    Cl 4534   3.405   3.137   7.776 -0.1283 -0.0232  0.1208
  775MOL0     C 4535   4.043   2.381   8.059  1.5326  0.6707 -0.1169
  775MOL0     C 4536   4.003   2.244   8.078 -0.1613 -0.4899  0.4349
  775MOL0     O 4537   3.776   2.052   7.883 -0.9262 -0.6868  0.1261
  775MOL0     C 4538   3.832   1.818   8.156  0.4367 -0.0348  0.2213
  775MOL0     C 4539   3.767   1.718   8.226 -0.4602  0.7003 -0.5258
  775MOL0     N 4540   3.738   0.991   8.642 -0.3110 -0.3669  0.1972
  775MOL0     N 4541   3.751   0.964   8.771 -0.1509  0.2694 -0.6612
  775MOL0     C 4542   4.400   0.500   9.764  0.0485 -0.5236  0.1245
  775MOL0     C 4543   4.424   0.380   9.820  0.5057 -0.0763 -1.6225
  775MOL0     C 4544   4.326  -0.075   9.927  0.8782 -0.6182 -0.3564
  775MOL0     C 4545   4.452  -0.074   9.989 -0.7345  0.2264  0.0311
  775MOL0     C 4546   4.511  -0.200  10.021 -0.4270  0.1877 -1.0671
  775MOL0     C 4547   4.452  -0.327  10.025  0.0991  0.1021  1.0213
  775MOL0     O 4548   4.499  -0.449  10.060  0.2717 -0.0451  0.1788
  775MOL0     C 4549   4.628  -0.462  10.118  0.4963 -0.4569 -0.3601
  775MOL0     C 4550   4.679  -0.606  10.114  0.0645  0.2649 -0.1799
  775MOL0     C 4551   4.635  -0.695  10.238 -0.2390  0.8413  0.7875
  775MOL0     C 4552   4.708  -0.822  10.224  0.5537 -0.2227  0.5582
  775MOL0     C 4553   4.848  -0.804  10.242 -0.7322  0.8367  0.7805
  775MOL0     C 4554   4.963  -0.795  10.283 -0.5374 -0.4606 -0.1809
  775MOL0     C 4555   4.324  -0.326   9.965 -0.3792 -0.4299 -0.4268
  775MOL0     C 4556   4.255  -0.203   9.925  0.1213  0.1440  0.0791
  775MOL0     C 4557   4.122  -0.218   9.854  0.4427  0.6319  0.6277
  775MOL0     H 4558   4.194   0.198   9.654 -1.9407 -0.1887  2.7750
  775MOL0     H 4559   4.143   0.408   9.565  0.3309 -1.4353 -1.4552
  775MOL0     H 4560   4.245   0.656   9.421  1.0115 -1.3368  0.3870
  775MOL0     H 4561   4.105   0.612   9.531 -1.1440  2.5874  1.0041
  775MOL0     H 4562   4.262   0.867   9.508 -0.6410  1.6230  0.5336
  775MOL0     H 4563   4.118   0.858   9.613 -1.0826 -4.1180  0.4801
  775MOL0     H 4564   3.968   0.850   9.424 -1.0260 -0.5221 -5.6102
  775MOL0     H 4565   4.095   0.803   9.313  0.0289 -1.6805  0.5480
  775MOL0     H 4566   4.024   1.074   9.425  0.8641 -3.2662  3.1132
  775MOL0     H 4567   4.176   1.044   9.328  0.4189  2.0836  0.6291
  775MOL0     H 4568   4.027   0.947   9.158  0.4885  0.8967 -0.2447
  775MOL0     H 4569   3.882   0.989   9.252  1.4610 -1.8803  3.1118
  775MOL0     H 4570   3.920   1.217   9.220  2.3323  0.8580  0.9236
  775MOL0     H 4571   4.089   1.192   9.172 -0.5477  0.7868 -1.0430
  775MOL0     H 4572   4.027   1.083   8.964 -0.1240 -0.3813  0.1251
  775MOL0     H 4573   3.972   1.240   8.967  0.3928 -1.1073 -1.1778
  775MOL0     H 4574   3.798   0.996   9.033 -0.4091 -0.7809 -1.1021
  775MOL0     H 4575   3.746   1.176   9.018  1.4371  1.5037 -1.3372
  775MOL0     H 4576   3.838   1.277   8.746  0.1430 -0.3602 -0.5884
  775MOL0     H 4577   3.887   1.201   8.472  1.0410 -1.5898  0.9487
  775MOL0     H 4578   3.745   1.106   8.429 -1.5016  1.3572 -0.5192
  775MOL0     H 4579   3.608   1.301   8.544  0.4648  0.5038  1.4887
  775MOL0     H 4580   3.758   1.393   8.545  1.3286 -1.3398  0.7694
  775MOL0     H 4581   3.592   1.311   8.300  0.8962  0.3181 -1.9370
  775MOL0     H 4582   3.749   1.385   8.275 -0.4148 -0.6734  0.0203
  775MOL0     H 4583   3.645   1.595   8.414  0.0101 -0.1130 -0.8898
  775MOL0     H 4584   3.500   1.516   8.404  0.5584 -1.9368  2.6194
  775MOL0     H 4585   3.479   1.709   8.053 -1.6295  2.2040 -1.2383
  775MOL0     H 4586   3.599   1.883   7.921 -1.2981  1.0590  0.9467
  775MOL0     H 4587   4.118   2.103   7.795 -1.5150  1.3889 -0.8699
  775MOL0     H 4588   4.240   2.324   7.795  1.1590 -0.6762 -0.5236
  775MOL0     H 4589   4.020   2.581   7.817  0.5426 -0.2258 -0.7774
  775MOL0     H 4590   4.024   2.650   7.983 -1.4403 -1.6504 -0.4736
  775MOL0     H 4591   4.232   2.750   7.935  0.4861  0.8507 -0.7155
  775MOL0     H 4592   4.204   2.735   7.749 -1.2077  1.6786 -0.7768
  775MOL0     H 4593   4.049   2.895   7.938  2.7622  2.7974  0.2713
  775MOL0     H 4594   4.130   2.950   7.799 -0.9967  0.1879 -1.4535
  775MOL0     H 4595   3.901   2.766   7.757 -1.2714  1.1746 -0.0433
  775MOL0     H 4596   4.004   2.829   7.635 -0.6735  0.2617 -0.1232
  775MOL0     H 4597   3.925   3.074   7.692 -2.6477  1.9127  0.5214
  775MOL0     H 4598   3.858   3.001   7.844  0.8110 -3.1561  0.2076
  775MOL0     H 4599   3.789   2.988   7.554  5.0481  1.3269  0.7824
  775MOL0     H 4600   3.708   2.879   7.668 -2.0194  1.7246 -0.2347
  775MOL0     H 4601   3.686   3.187   7.647  1.4048 -0.0707 -0.0279
  775MOL0     H 4602   3.666   3.112   7.800  1.9990 -2.1555 -0.3005
  775MOL0     H 4603   3.490   3.106   7.562 -0.3335  2.1345  0.4263
  775MOL0     H 4604   3.492   2.951   7.659 -2.9150  0.2230 -1.2679
  775MOL0     H 4605   4.009   2.454   8.132  1.1707 -0.7978  1.2473
  775MOL0     H 4606   3.944   2.223   8.166  1.1867 -0.9083  1.2613
  775MOL0     H 4607   3.926   1.867   8.181  0.3059 -0.1080  0.8902
  775MOL0     H 4608   3.812   1.703   8.323 -0.1136  1.3798 -0.5717
  775MOL0     H 4609   4.457   0.590   9.788 -0.3836 -0.5751  1.4273
  775MOL0     H 4610   4.504   0.348   9.885  0.5433 -1.0894 -2.1475
  775MOL0     H 4611   4.514   0.012  10.009  2.8493 -2.3247  0.8765
  775MOL0     H 4612   4.614  -0.203  10.055 -0.0204  2.2084 -2.0070
  775MOL0     H 4613   4.617  -0.434  10.224 -1.0114  0.9559 -0.8596
  775MOL0     H 4614   4.698  -0.398  10.063 -0.7721  1.5494  0.2443
  775MOL0     H 4615   4.789  -0.603  10.108  0.4551 -4.5461  0.6938
  775MOL0     H 4616   4.650  -0.651  10.019  2.4379 -1.7613 -0.0671
  775MOL0     H 4617   4.530  -0.726  10.232  0.3827 -1.1898 -1.2725
  775MOL0     H 4618   4.649  -0.647  10.335 -2.5854  0.2880  1.4797
  775MOL0     H 4619   4.664  -0.890  10.298  1.0247 -0.3470  0.7265
  775MOL0     H 4620   4.695  -0.871  10.127 -1.4313 -0.1384  0.7252
  775MOL0     H 4621   5.062  -0.787  10.322 -0.5448 -0.1309 -0.2258
  775MOL0     H 4622   4.272  -0.421   9.954  0.0081 -0.7536  0.3809
  775MOL0     H 4623   4.137  -0.188   9.750  0.9272 -1.5280  0.0397
  775MOL0     H 4624   4.076  -0.316   9.850  1.1987  0.2604 -4.1600
  775MOL0     H 4625   4.048  -0.150   9.897 -0.7409 -0.2405 -0.0006
  776MOL0     O 4626   7.746   8.187   9.749 -0.3110  0.1253  0.0788
  776MOL0     C 4627   7.739   8.272   9.657  0.0192 -0.4812  0.4035
  776MOL0     O 4628   7.847   8.351   9.616  0.0305  0.2409 -0.0850
  776MOL0     C 4629   7.973   8.327   9.661 -0.6767  1.0137 -0.8443
  776MOL0     C 4630   8.015   8.299   9.795 -0.5053  0.8710 -0.1958
  776MOL0     C 4631   8.151   8.277   9.835 -0.4191 -0.5927 -0.2008
  776MOL0     C 4632   8.251   8.277   9.737  0.8986 -0.3351 -0.1317
  776MOL0     O 4633   8.384   8.254   9.772  0.5635  1.3836  0.0786
  776MOL0     C 4634   8.415   8.174   9.886  0.6750 -0.5163  0.6292
  776MOL0     C 4635   8.555   8.117   9.869 -0.0687 -0.4990  0.3314
  776MOL0     C 4636   8.568   8.026   9.749  0.1196 -0.2270  0.5699
  776MOL0     C 4637   8.691   7.944   9.762  0.6068 -0.0007  0.3034
  776MOL0     C 4638   8.737   7.882   9.633 -1.0030  0.0572 -0.4502
  776MOL0     C 4639   8.641   7.779   9.583  1.3881 -0.1888  0.4440
  776MOL0     C 4640   8.620   7.649   9.658 -0.0207 -0.0486 -0.1041
  776MOL0     C 4641   8.743   7.560   9.643 -0.2880  0.1634 -0.8029
  776MOL0     N 4642   8.847   7.586   9.745 -1.2919 -0.0512  0.4350
  776MOL0     C 4643   8.844   7.625   9.876  0.5429  0.4408 -0.9315
  776MOL0     C 4644   8.976   7.653   9.899 -0.1273  0.4112 -0.2229
  776MOL0     C 4645   9.030   7.711  10.027 -0.1086  0.0024  0.6049
  776MOL0     C 4646   9.179   7.715  10.050 -0.2526 -0.3225 -0.3044
  776MOL0     C 4647   9.228   7.811  10.171 -0.3642  0.6210 -0.5141
  776MOL0     C 4648   9.380   7.817  10.169 -0.5680  0.3894  0.9355
  776MOL0     O 4649   9.422   7.884  10.292 -0.5550 -0.5048  0.2737
  776MOL0     C 4650   9.555   7.896  10.314  0.4691 -0.4046 -0.2123
  776MOL0     C 4651   9.662   7.827  10.253  0.3606  0.2678  0.5253
  776MOL0     C 4652   9.797   7.844  10.295  0.3174 -0.1256 -0.8939
  776MOL0     C 4653   9.818   7.927  10.404  0.1779 -0.0022 -1.7309
  776MOL0     C 4654   9.956   7.948  10.454 -0.2012  0.0478  0.1596
  776MOL0     O 4655   9.971   8.057  10.543  0.5113  0.1134  0.2525
  776MOL0     C 4656  10.087   8.109  10.587 -0.6924  0.4171  0.1129
  776MOL0     C 4657  10.201   8.036  10.608 -0.5702 -0.3689  0.3291
  776MOL0     C 4658  10.320   8.090  10.654  0.1119  0.8743 -0.5862
  776MOL0     C 4659  10.317   8.228  10.686 -0.2560  0.6988 -0.5327
  776MOL0     O 4660  10.430   8.275  10.747 -0.4636 -0.1663 -0.3939
  776MOL0     C 4661  10.472   8.400  10.698 -0.0602 -0.5840 -0.3874
  776MOL0     C 4662  10.598   8.440  10.775 -0.0629 -0.9018  0.6034
  776MOL0     C 4663  10.702   8.531  10.703  0.0424 -0.9147 -0.1741
  776MOL0     C 4664  10.851   8.506  10.736  0.0735 -0.5674  0.1181
  776MOL0     C 4665  10.958   8.603  10.676 -0.7894 -1.1193  0.3741
  776MOL0     C 4666  10.958   8.591  10.521  0.3767  0.5873 -0.1545
  776MOL0     C 4667  10.886   8.712  10.457  0.2226 -0.6020  0.0602
  776MOL0     C 4668  10.919   8.714  10.315  0.0781 -0.4717  0.2286
  776MOL0    Cl 4669  10.878   8.565  10.223  0.3954  0.2543  0.2316
  776MOL0     C 4670  10.195   8.297  10.677 -0.1483 -0.5845  0.0281
  776MOL0     C 4671  10.080   8.237  10.626 -0.0781 -0.7035 -0.7199
  776MOL0     O 4672  10.040   7.867  10.436 -0.9946 -0.3465 -0.2914
  776MOL0     C 4673   9.715   8.005  10.457  0.1292  0.2136  0.4162
  776MOL0     C 4674   9.584   7.985  10.414 -0.1947 -0.2037 -0.1529
  776MOL0     N 4675   9.054   7.637   9.785  0.2155 -0.6319 -0.0689
  776MOL0     N 4676   8.972   7.599   9.695  0.1576  0.2671 -0.4455
  776MOL0     C 4677   8.213   8.303   9.604  0.2391 -0.4806 -0.1549
  776MOL0     C 4678   8.075   8.324   9.564 -1.3854  0.3091 -0.2773
  776MOL0     C 4679   7.600   8.304   9.614 -0.1841 -0.0143 -0.3449
  776MOL0     C 4680   7.580   8.427   9.552 -1.4528 -0.0851 -0.1930
  776MOL0     C 4681   7.461   8.465   9.497  0.0537  0.3817  0.5339
  776MOL0     C 4682   7.350   8.391   9.512  0.6287 -0.0462 -1.2871
  776MOL0     O 4683   7.229   8.435   9.456  0.2087 -0.2370 -0.3687
  776MOL0     C 4684   7.100   8.376   9.480  0.2785  0.5059  0.9521
  776MOL0     C 4685   6.985   8.441   9.396 -0.0591  0.4751 -0.2831
  776MOL0     C 4686   6.963   8.583   9.456  0.0967  0.1667  0.1936
  776MOL0     C 4687   7.065   8.694   9.411  0.2832 -0.2133  0.4387
  776MOL0     C 4688   7.063   8.708   9.263 -0.3069  0.4321 -0.8486
  776MOL0     C 4689   7.068   8.711   9.146 -0.0424 -0.6458 -0.1272
  776MOL0     C 4690   7.360   8.272   9.574 -0.5808 -0.8520 -0.5881
  776MOL0     C 4691   7.489   8.221   9.618  0.9720  0.8448 -0.0079
  776MOL0     C 4692   7.513   8.078   9.666 -0.0019 -0.0360 -0.4962
  776MOL0     H 4693   7.944   8.275   9.873  0.4143 -1.2412  0.0546
  776MOL0     H 4694   8.167   8.257   9.940  3.3194  1.2798 -0.2412
  776MOL0     H 4695   8.412   8.239   9.974 -0.4121 -1.7890  1.5650
  776MOL0     H 4696   8.347   8.089   9.895 -0.3068  0.3286  1.4790
  776MOL0     H 4697   8.566   8.047   9.953  0.3210 -0.8259  0.0100
  776MOL0     H 4698   8.640   8.186   9.864  1.4156 -2.3451 -1.3200
  776MOL0     H 4699   8.566   8.067   9.648  0.7556 -2.7292 -0.5364
  776MOL0     H 4700   8.482   7.960   9.759 -2.1208  2.6341  1.4565
  776MOL0     H 4701   8.774   8.002   9.802 -0.0857  1.4355 -0.2704
  776MOL0     H 4702   8.662   7.864   9.831 -0.0220  1.3567  1.6650
  776MOL0     H 4703   8.767   7.965   9.569  0.7740 -0.4968 -0.3895
  776MOL0     H 4704   8.829   7.829   9.659 -0.8697 -0.8664 -2.5542
  776MOL0     H 4705   8.540   7.820   9.579 -0.7895 -4.7321  1.9042
  776MOL0     H 4706   8.678   7.746   9.485  0.1714 -0.6591  0.1259
  776MOL0     H 4707   8.537   7.601   9.604  1.0919 -1.2361 -0.8139
  776MOL0     H 4708   8.591   7.679   9.759 -1.5839  2.4083 -1.1816
  776MOL0     H 4709   8.705   7.458   9.658  1.1691 -0.0960  1.6076
  776MOL0     H 4710   8.793   7.569   9.547  2.2745 -2.7945  0.0845
  776MOL0     H 4711   8.760   7.637   9.944  0.3488 -0.9764 -0.8979
  776MOL0     H 4712   8.998   7.816  10.029 -1.3660 -0.3065 -0.9377
  776MOL0     H 4713   8.988   7.650  10.107  0.5295  0.0187  0.9511
  776MOL0     H 4714   9.200   7.613  10.083  0.0107 -0.0525  0.3804
  776MOL0     H 4715   9.237   7.726   9.958 -1.3446 -1.5522 -1.1813
  776MOL0     H 4716   9.190   7.765  10.263 -1.0232  1.2380 -0.4660
  776MOL0     H 4717   9.191   7.914  10.167  0.8810  1.3083  2.5549
  776MOL0     H 4718   9.420   7.867  10.081 -0.0822  1.0414  1.5150
  776MOL0     H 4719   9.422   7.716  10.163 -2.9784 -0.6201 -0.2314
  776MOL0     H 4720   9.642   7.764  10.167  2.1649  0.4897 -0.1009
  776MOL0     H 4721   9.861   7.784  10.231 -4.4096 -4.9753 -1.8588
  776MOL0     H 4722  10.199   7.930  10.583 -1.9886 -1.2181  3.6061
  776MOL0     H 4723  10.413   8.042  10.682  1.8699  3.0168 -2.4034
  776MOL0     H 4724  10.496   8.409  10.592 -1.3937  2.1320 -0.5394
  776MOL0     H 4725  10.394   8.475  10.718 -0.6046 -1.8196  2.6319
  776MOL0     H 4726  10.577   8.465  10.879  0.9393  1.8658  0.2294
  776MOL0     H 4727  10.649   8.343  10.783 -0.1290 -1.2200 -1.9989
  776MOL0     H 4728  10.697   8.522  10.594  1.4352  1.8665 -0.5833
  776MOL0     H 4729  10.685   8.639  10.716 -0.1722 -0.9764  0.0577
  776MOL0     H 4730  10.880   8.404  10.710 -1.2613 -0.8598 -0.3085
  776MOL0     H 4731  10.856   8.520  10.845 -0.6318  0.3104  0.0474
  776MOL0     H 4732  11.062   8.586  10.705  1.3632  0.3367 -5.2011
  776MOL0     H 4733  10.933   8.709  10.692 -0.4774 -1.1734  1.2859
  776MOL0     H 4734  11.063   8.581  10.491 -0.2221 -1.3443 -1.8858
  776MOL0     H 4735  10.901   8.504  10.487 -2.6876  1.6314  1.8574
  776MOL0     H 4736  10.932   8.799  10.506 -1.7405  1.3439 -1.3613
  776MOL0     H 4737  10.779   8.706  10.478  0.1403  0.1355 -0.1077
  776MOL0     H 4738  10.872   8.800  10.267 -0.0914  0.7813  2.5340
  776MOL0     H 4739  11.028   8.726  10.308  0.6627 -3.5860  2.3122
  776MOL0     H 4740  10.178   8.402  10.697  0.7202 -0.0107 -2.0823
  776MOL0     H 4741   9.995   8.302  10.610  1.4117  1.9626  1.3905
  776MOL0     H 4742   9.749   8.080  10.528  1.8999  1.3734 -1.5249
  776MOL0     H 4743   9.513   8.029  10.484  1.5919  0.9609  1.0489
  776MOL0     H 4744   8.294   8.339   9.542 -1.2399  1.3119 -1.1684
  776MOL0     H 4745   8.046   8.348   9.463 -1.7681  0.9494 -0.0260
  776MOL0     H 4746   7.658   8.502   9.545 -0.4798 -0.8374  1.8692
  776MOL0     H 4747   7.455   8.565   9.455  0.7035 -0.6231 -2.1164
  776MOL0     H 4748   7.079   8.396   9.585  1.1710  1.7954  0.9069
  776MOL0     H 4749   7.094   8.272   9.447  1.2898  1.2290 -1.7734
  776MOL0     H 4750   6.894   8.384   9.412 -0.6321  0.5256 -3.0016
  776MOL0     H 4751   6.994   8.436   9.287 -0.6752 -1.2133 -0.2824
  776MOL0     H 4752   6.955   8.568   9.564 -1.6085 -1.4885 -0.1275
  776MOL0     H 4753   6.864   8.621   9.431  1.0540  2.7669 -0.0853
  776MOL0     H 4754   7.031   8.791   9.447 -0.4822 -0.1579 -0.3825
  776MOL0     H 4755   7.170   8.676   9.439  0.6679 -2.2233 -1.8872
  776MOL0     H 4756   7.088   8.721   9.041  0.1524  0.6126  0.0079
  776MOL0     H 4757   7.276   8.203   9.584 -0.9644 -0.1297  1.9409
  776MOL0     H 4758   7.426   8.013   9.653  0.6573 -0.9251 -0.5448
  776MOL0     H 4759   7.590   8.040   9.599  0.5286  0.8270 -0.3810
  776MOL0     H 4760   7.540   8.076   9.772 -1.0379  0.3397 -0.2119
  777MOL0     O 4761   4.715   4.662   0.347 -0.0988  0.0695  0.4281
  777MOL0     C 4762   4.679   4.548   0.324  0.1842 -0.0542  0.2261
  777MOL0     O 4763   4.751   4.467   0.242  0.0322  0.4945  0.0697
  777MOL0     C 4764   4.879   4.516   0.203  0.1675 -0.1760  0.4333
  777MOL0     C 4765   4.910   4.575   0.079 -0.9754  0.1322  0.1062
  777MOL0     C 4766   5.043   4.617   0.059  0.8046  0.4525 -0.0782
  777MOL0     C 4767   5.143   4.601   0.149 -0.2283  0.4556  0.3870
  777MOL0     O 4768   5.268   4.642   0.118 -0.3160 -0.4201  0.0181
  777MOL0     C 4769   5.380   4.615   0.202 -0.0206  0.1931  0.0204
  777MOL0     C 4770   5.488   4.712   0.162  0.7706 -0.4933 -0.5156
  777MOL0     C 4771   5.466   4.855   0.220 -0.5598  0.9780  0.2480
  777MOL0     C 4772   5.600   4.922   0.207 -0.1291  0.7354  0.6196
  777MOL0     C 4773   5.578   5.077   0.217 -0.0061 -0.9663  0.1373
  777MOL0     C 4774   5.620   5.122   0.364  0.0152  0.0571  0.5548
  777MOL0     C 4775   5.773   5.105   0.387  0.4980 -0.2637 -0.0313
  777MOL0     C 4776   5.866   5.194   0.290  0.1912 -0.4496  0.2113
  777MOL0     N 4777   5.838   5.335   0.264  0.3078  0.9716  0.8439
  777MOL0     C 4778   5.792   5.416   0.357  1.0271 -0.2834 -0.0801
  777MOL0     C 4779   5.797   5.535   0.302  0.1448 -0.7228  0.3646
  777MOL0     C 4780   5.757   5.654   0.382 -0.3163 -0.2416 -0.3318
  777MOL0     C 4781   5.835   5.766   0.325  1.1352  0.2879  0.6556
  777MOL0     C 4782   5.771   5.902   0.361  0.3886  0.1948 -0.6485
  777MOL0     C 4783   5.874   6.011   0.345 -0.0576  0.2115  0.0753
  777MOL0     O 4784   5.930   5.995   0.221 -0.4056  0.1709 -0.7291
  777MOL0     C 4785   6.061   6.035   0.198  0.8427  0.9680 -0.0060
  777MOL0     C 4786   6.124   5.969   0.094  0.0200 -0.4392 -0.2239
  777MOL0     C 4787   6.265   5.983   0.074  0.9414 -0.0495  0.2838
  777MOL0     C 4788   6.343   6.055   0.162 -0.2203 -0.3793  0.0340
  777MOL0     C 4789   6.494   6.052   0.142 -0.3986 -0.0903 -0.2088
  777MOL0     O 4790   6.559   6.137   0.231  0.2399  0.4945  0.6537
  777MOL0     C 4791   6.696   6.152   0.228  0.6518 -0.3416  0.4086
  777MOL0     C 4792   6.780   6.039   0.235  0.0941 -0.3860 -0.3946
  777MOL0     C 4793   6.920   6.060   0.246  0.7234 -0.2952 -0.0897
  777MOL0     C 4794   6.981   6.185   0.243  0.0407  0.2052 -0.0210
  777MOL0     O 4795   7.120   6.187   0.252  0.9382 -0.7814 -0.3912
  777MOL0     C 4796   7.181   6.321   0.251  0.1526  0.9490  0.0395
  777MOL0     C 4797   7.324   6.321   0.290  0.2466  0.0262 -0.1637
  777MOL0     C 4798   7.407   6.440   0.228  0.7154 -0.3864  0.0490
  777MOL0     C 4799   7.476   6.394   0.091 -0.1710 -0.3015  0.4660
  777MOL0     C 4800   7.539   6.521   0.033  0.1073 -0.5599  1.5967
  777MOL0     C 4801   7.595   6.484  -0.115  0.5278 -0.1879  0.3517
  777MOL0     C 4802   7.514   6.554  -0.228 -0.5158  0.4469 -0.4643
  777MOL0     C 4803   7.380   6.496  -0.264 -0.2118  0.3089 -0.1179
  777MOL0    Cl 4804   7.247   6.540  -0.143  0.0896  0.1688  0.1000
  777MOL0     C 4805   6.892   6.291   0.236 -0.2362 -0.2254  0.6656
  777MOL0     C 4806   6.750   6.281   0.224 -1.0909 -0.1896  0.7545
  777MOL0     O 4807   6.546   6.004   0.040 -0.0866 -0.5316 -0.6583
  777MOL0     C 4808   6.278   6.123   0.259 -0.2896 -0.2301 -0.1595
  777MOL0     C 4809   6.145   6.108   0.283  0.4841 -0.1467 -0.4016
  777MOL0     N 4810   5.829   5.523   0.164  0.9606  0.7064 -0.3160
  777MOL0     N 4811   5.861   5.396   0.143 -0.3739  0.2765  0.5437
  777MOL0     C 4812   5.118   4.510   0.260 -0.4694 -0.5037 -0.3256
  777MOL0     C 4813   4.986   4.469   0.284  0.4369  0.1767 -0.5966
  777MOL0     C 4814   4.556   4.491   0.382  0.2713 -0.5042  1.3737
  777MOL0     C 4815   4.535   4.349   0.356  0.1999 -0.1859 -0.9781
  777MOL0     C 4816   4.419   4.285   0.418  0.6143 -0.2343 -0.4448
  777MOL0     C 4817   4.314   4.355   0.471 -0.7967 -0.4103  0.0466
  777MOL0     O 4818   4.201   4.284   0.503 -0.0959  0.0794 -0.2594
  777MOL0     C 4819   4.123   4.325   0.619 -0.4298  0.8197 -0.0159
  777MOL0     C 4820   3.989   4.247   0.623 -0.4973  0.4527 -0.6309
  777MOL0     C 4821   4.001   4.116   0.544  0.2759  0.2967 -0.5221
  777MOL0     C 4822   3.868   4.048   0.538  0.5776  0.5232 -0.1740
  777MOL0     C 4823   3.873   3.900   0.561 -0.2447  0.1424  0.3337
  777MOL0     C 4824   3.891   3.781   0.575 -0.3437 -0.0830  0.2631
  777MOL0     C 4825   4.342   4.496   0.486  0.1681  0.6412  1.0237
  777MOL0     C 4826   4.454   4.565   0.448 -0.0289 -0.4089  0.3327
  777MOL0     C 4827   4.459   4.704   0.484 -0.4511 -0.0241  0.4291
  777MOL0     H 4828   4.841   4.591  -0.003  3.2301  1.9281 -3.4834
  777MOL0     H 4829   5.066   4.685  -0.023  2.5420 -0.6742 -0.5915
  777MOL0     H 4830   5.351   4.632   0.306 -1.8388  1.2264 -0.5920
  777MOL0     H 4831   5.404   4.509   0.194 -0.3452 -0.2083  3.1917
  777MOL0     H 4832   5.488   4.710   0.053  1.4137  1.8729 -0.5940
  777MOL0     H 4833   5.589   4.675   0.185  0.8019 -1.1618 -1.6768
  777MOL0     H 4834   5.444   4.843   0.327 -2.9790  1.3657 -0.1521
  777MOL0     H 4835   5.378   4.907   0.182  0.3468  0.7649 -2.3157
  777MOL0     H 4836   5.675   4.873   0.270 -0.2005 -1.7082 -1.0325
  777MOL0     H 4837   5.633   4.902   0.104 -3.2118  2.2193 -0.7845
  777MOL0     H 4838   5.646   5.119   0.142 -0.2564 -0.0708  0.4065
  777MOL0     H 4839   5.475   5.112   0.206  0.9568  2.4898  1.0662
  777MOL0     H 4840   5.604   5.230   0.376 -0.2091  0.2707 -1.2954
  777MOL0     H 4841   5.561   5.073   0.442 -0.5396  0.1889  0.2275
  777MOL0     H 4842   5.809   5.003   0.374 -0.6712 -0.9040  1.4693
  777MOL0     H 4843   5.790   5.140   0.490  1.7070  4.2125 -1.5240
  777MOL0     H 4844   5.971   5.180   0.316  1.3308  3.4899 -1.6755
  777MOL0     H 4845   5.851   5.156   0.188 -1.1622 -0.0680  0.2527
  777MOL0     H 4846   5.772   5.401   0.462  1.1842 -1.2764 -0.1882
  777MOL0     H 4847   5.648   5.664   0.384 -0.5567 -2.2483 -1.1890
  777MOL0     H 4848   5.797   5.636   0.482  1.1491 -0.1421 -0.8630
  777MOL0     H 4849   5.937   5.778   0.363  0.2186  3.0121  2.5555
  777MOL0     H 4850   5.855   5.759   0.217  4.0489  0.1609  1.1128
  777MOL0     H 4851   5.738   5.892   0.465  1.6256  0.5216 -0.2042
  777MOL0     H 4852   5.686   5.920   0.294  0.6618  2.5466 -0.4799
  777MOL0     H 4853   5.942   6.004   0.430  1.6114  2.4597 -0.9727
  777MOL0     H 4854   5.841   6.114   0.362  0.9094  0.2079  2.1843
  777MOL0     H 4855   6.076   5.899   0.026  0.9518  1.0922 -2.6031
  777MOL0     H 4856   6.312   5.936  -0.012  1.5189 -1.0090  1.1001
  777MOL0     H 4857   6.730   5.943   0.229 -0.0765 -0.3743  0.5675
  777MOL0     H 4858   6.983   5.972   0.249 -1.6442 -2.0725 -0.4294
  777MOL0     H 4859   7.162   6.362   0.152 -2.8813 -0.4200 -0.0595
  777MOL0     H 4860   7.129   6.387   0.321  0.2939  2.4465 -1.2221
  777MOL0     H 4861   7.326   6.334   0.398 -1.3569  1.3120 -0.2571
  777MOL0     H 4862   7.368   6.224   0.264 -1.4199 -0.9902  0.6874
  777MOL0     H 4863   7.342   6.528   0.222 -0.4675 -1.1798  0.7629
  777MOL0     H 4864   7.497   6.461   0.286 -1.0225  2.2401  2.0636
  777MOL0     H 4865   7.390   6.357   0.035 -0.3812 -1.4309  1.4984
  777MOL0     H 4866   7.551   6.315   0.102 -1.1340 -2.0490 -3.5914
  777MOL0     H 4867   7.619   6.562   0.096  0.3351 -0.5669  1.3183
  777MOL0     H 4868   7.479   6.613   0.031  0.7941 -0.0957  1.8984
  777MOL0     H 4869   7.699   6.515  -0.125  0.4288  0.2564  0.6571
  777MOL0     H 4870   7.587   6.377  -0.133  1.0937 -0.1502 -0.1741
  777MOL0     H 4871   7.586   6.557  -0.309  0.0403 -0.9829 -0.0581
  777MOL0     H 4872   7.494   6.656  -0.195  1.6099  0.4736  0.9097
  777MOL0     H 4873   7.363   6.543  -0.362 -0.1735 -0.9921 -0.7595
  777MOL0     H 4874   7.375   6.388  -0.279  2.9259  0.0397  0.1184
  777MOL0     H 4875   6.932   6.392   0.246  0.0884 -0.4550  1.8279
  777MOL0     H 4876   6.682   6.366   0.217 -0.6826 -0.0130 -2.5494
  777MOL0     H 4877   6.346   6.180   0.321 -1.4666  0.6227  0.3743
  777MOL0     H 4878   6.095   6.171   0.357 -0.4079  0.7667 -1.7314
  777MOL0     H 4879   5.199   4.476   0.324  1.9104  0.5337 -2.5979
  777MOL0     H 4880   4.972   4.386   0.353  3.3611 -0.0536 -0.1577
  777MOL0     H 4881   4.612   4.295   0.302  1.8774 -2.5015  3.2802
  777MOL0     H 4882   4.397   4.179   0.413  0.3449 -0.4028  2.5042
  777MOL0     H 4883   4.102   4.432   0.614 -0.6434  0.7319 -4.1325
  777MOL0     H 4884   4.188   4.301   0.704  2.0000  1.4476 -1.5790
  777MOL0     H 4885   3.917   4.309   0.569  2.4403  1.6045 -3.5444
  777MOL0     H 4886   3.949   4.223   0.722 -1.1019 -3.5520 -1.6641
  777MOL0     H 4887   4.078   4.054   0.591 -1.1750 -0.2851  1.2167
  777MOL0     H 4888   4.030   4.125   0.439 -0.1653  0.2106 -0.6545
  777MOL0     H 4889   3.802   4.094   0.612  1.7229  2.5619 -0.3337
  777MOL0     H 4890   3.824   4.059   0.438  2.0052 -0.9440 -1.0241
  777MOL0     H 4891   3.908   3.678   0.598  0.9120  0.7625  3.7665
  777MOL0     H 4892   4.260   4.551   0.531 -3.5319 -3.8319  0.4475
  777MOL0     H 4893   4.368   4.750   0.523 -0.8342  0.5595 -1.0732
  777MOL0     H 4894   4.551   4.731   0.536  0.9587  2.0977 -2.8454
  777MOL0     H 4895   4.475   4.760   0.391  3.1649  2.4643  2.3341
  778MOL0     O 4896   3.347   6.191   4.426 -0.3739 -0.2479  0.7182
  778MOL0     C 4897   3.346   6.065   4.441  0.3483 -0.8771  0.2175
  778MOL0     O 4898   3.452   5.986   4.426  0.5074  0.1661 -0.1647
  778MOL0     C 4899   3.574   6.042   4.400 -0.4088 -0.3525  0.1260
  778MOL0     C 4900   3.616   6.163   4.458 -1.0414 -0.3328 -0.4367
  778MOL0     C 4901   3.745   6.205   4.431 -0.0770 -0.6045  0.1963
  778MOL0     C 4902   3.825   6.147   4.329 -0.4214 -0.2558 -0.5326
  778MOL0     O 4903   3.958   6.189   4.296 -0.0592 -0.2690 -0.0223
  778MOL0     C 4904   4.008   6.293   4.374 -0.3962  0.1597  0.0298
  778MOL0     C 4905   4.136   6.339   4.325  1.1608 -0.0909 -0.1353
  778MOL0     C 4906   4.240   6.227   4.321  0.3750  0.7377  0.1513
  778MOL0     C 4907   4.266   6.174   4.180 -0.3964  0.8362 -0.0203
  778MOL0     C 4908   4.376   6.066   4.174 -0.0462  0.1315  1.2758
  778MOL0     C 4909   4.344   5.941   4.258  0.2690  0.0123  0.0678
  778MOL0     C 4910   4.443   5.826   4.233 -0.6044 -0.1193 -0.5631
  778MOL0     C 4911   4.587   5.866   4.260 -0.3179 -0.0070 -0.5496
  778MOL0     N 4912   4.622   5.907   4.400  0.6126  0.3933  0.0753
  778MOL0     C 4913   4.630   5.824   4.510  1.2270 -0.3121 -0.2323
  778MOL0     C 4914   4.674   5.912   4.615 -0.9937 -0.9560  0.5809
  778MOL0     C 4915   4.691   5.863   4.757  0.2895 -0.4072  0.1785
  778MOL0     C 4916   4.817   5.784   4.776  0.3211  0.4572 -0.1684
  778MOL0     C 4917   4.938   5.871   4.749  0.8769  0.1682 -0.2733
  778MOL0     C 4918   5.068   5.786   4.755  0.8245  0.2278 -0.4691
  778MOL0     O 4919   5.067   5.679   4.658 -0.2027  0.3657  0.6314
  778MOL0     C 4920   5.177   5.633   4.594  1.1233  0.3291 -0.6034
  778MOL0     C 4921   5.171   5.524   4.509 -0.2782 -0.5242  0.1442
  778MOL0     C 4922   5.292   5.481   4.446 -0.0705 -0.0813 -1.0645
  778MOL0     C 4923   5.410   5.560   4.444  0.6481  0.2088  0.6498
  778MOL0     C 4924   5.523   5.544   4.340  0.5714  0.3057 -0.4835
  778MOL0     O 4925   5.634   5.620   4.362  0.2598  0.6067 -0.3956
  778MOL0     C 4926   5.742   5.612   4.280 -0.8353  0.6535  0.0318
  778MOL0     C 4927   5.809   5.726   4.256 -0.8541 -0.5168  0.2373
  778MOL0     C 4928   5.912   5.738   4.165 -0.3931  0.6036  0.7504
  778MOL0     C 4929   5.979   5.626   4.114  0.5837  0.7309 -0.4075
  778MOL0     O 4930   6.086   5.663   4.036  0.5494  0.0981  0.0722
  778MOL0     C 4931   6.181   5.555   4.007  0.3317 -0.7696 -0.0490
  778MOL0     C 4932   6.300   5.632   3.952  0.3563  0.4512  0.1558
  778MOL0     C 4933   6.409   5.533   3.913 -0.3823 -0.7988 -0.5725
  778MOL0     C 4934   6.549   5.603   3.930 -0.4922 -0.9402 -0.5294
  778MOL0     C 4935   6.670   5.546   3.851  1.2030 -0.4100 -0.2788
  778MOL0     C 4936   6.705   5.412   3.903 -0.0432  0.5122 -0.3143
  778MOL0     C 4937   6.847   5.376   3.861  0.3124 -0.3141 -0.3222
  778MOL0     C 4938   6.949   5.444   3.953  0.2372  0.1567  0.3920
  778MOL0    Cl 4939   7.102   5.464   3.876 -0.3406  0.0661  0.4015
  778MOL0     C 4940   5.923   5.499   4.156 -0.2404  0.0983 -0.4635
  778MOL0     C 4941   5.800   5.496   4.229 -0.5930 -0.1917 -0.2040
  778MOL0     O 4942   5.501   5.469   4.244  0.5377 -0.0994  0.7030
  778MOL0     C 4943   5.406   5.670   4.525  0.0082  1.1243 -0.0001
  778MOL0     C 4944   5.297   5.701   4.605 -0.5036 -0.3864 -0.0309
  778MOL0     N 4945   4.689   6.042   4.560  0.2329  0.4509  0.3657
  778MOL0     N 4946   4.642   6.035   4.446  0.3787  0.3944  1.1843
  778MOL0     C 4947   3.777   6.024   4.270 -0.5503 -0.0739  0.2983
  778MOL0     C 4948   3.654   5.970   4.309  0.1874  0.0719 -0.5654
  778MOL0     C 4949   3.207   6.011   4.467 -0.4574  0.5210 -0.1358
  778MOL0     C 4950   3.104   6.070   4.393  0.2602 -0.7200 -0.8771
  778MOL0     C 4951   2.974   6.033   4.421  0.2578 -0.0346  0.3990
  778MOL0     C 4952   2.942   5.939   4.519 -0.3657 -0.5273 -1.2293
  778MOL0     O 4953   2.817   5.901   4.556 -0.0141 -0.1235 -0.4534
  778MOL0     C 4954   2.709   5.951   4.483  0.9370  0.0107 -0.5886
  778MOL0     C 4955   2.580   5.918   4.563  0.1799  0.4881  0.3626
  778MOL0     C 4956   2.472   6.019   4.506 -0.2867  0.4877  0.1181
  778MOL0     C 4957   2.341   5.978   4.581 -0.4911  0.6554 -0.8700
  778MOL0     C 4958   2.296   5.848   4.530  0.1161 -0.5456  0.7724
  778MOL0     C 4959   2.253   5.747   4.484 -0.2197 -0.3016 -0.4318
  778MOL0     C 4960   3.047   5.887   4.600  0.5244 -0.0700  0.1544
  778MOL0     C 4961   3.182   5.926   4.577 -0.3626  0.0545 -0.1606
  778MOL0     C 4962   3.293   5.867   4.656  0.0759 -0.0676 -0.0807
  778MOL0     H 4963   3.563   6.218   4.535  1.5840 -0.5502  1.6919
  778MOL0     H 4964   3.768   6.286   4.500 -2.2020 -1.2225  1.7347
  778MOL0     H 4965   3.937   6.375   4.358  1.3547  1.7268  0.0021
  778MOL0     H 4966   4.012   6.269   4.481 -2.9482 -0.3140  0.0825
  778MOL0     H 4967   4.167   6.421   4.392  2.2777 -2.0499  1.8701
  778MOL0     H 4968   4.119   6.368   4.221 -1.4565  1.1746  0.5685
  778MOL0     H 4969   4.199   6.141   4.375 -1.3723  0.9208 -0.8134
  778MOL0     H 4970   4.334   6.259   4.368  0.0309  0.5792  0.9486
  778MOL0     H 4971   4.173   6.128   4.144  0.8125 -3.8202  2.0349
  778MOL0     H 4972   4.293   6.253   4.109 -2.8499 -0.4472 -2.5717
  778MOL0     H 4973   4.385   6.032   4.071 -1.8714  3.0009  0.0429
  778MOL0     H 4974   4.471   6.108   4.208 -1.3985  0.7765  4.6697
  778MOL0     H 4975   4.329   5.969   4.362  0.5084  2.8265 -0.5849
  778MOL0     H 4976   4.249   5.911   4.212  0.1466  0.8944 -0.2799
  778MOL0     H 4977   4.424   5.781   4.135  0.7872 -1.7865 -0.1049
  778MOL0     H 4978   4.418   5.734   4.286 -1.4355  0.2664 -0.2682
  778MOL0     H 4979   4.645   5.781   4.223 -2.7381 -1.9622 -0.1071
  778MOL0     H 4980   4.606   5.956   4.200  0.5676  0.3123  0.1852
  778MOL0     H 4981   4.593   5.722   4.516 -4.0690  1.3901  2.4078
  778MOL0     H 4982   4.698   5.957   4.814  0.0178  1.4931 -2.7038
  778MOL0     H 4983   4.602   5.809   4.790  0.3380 -1.8267 -1.8669
  778MOL0     H 4984   4.813   5.744   4.878 -0.5134 -1.8023 -1.0210
  778MOL0     H 4985   4.815   5.699   4.707  1.3783 -0.2629  0.6662
  778MOL0     H 4986   4.941   5.950   4.825 -0.8776 -0.5959  0.6455
  778MOL0     H 4987   4.925   5.915   4.650 -2.3060 -1.7010 -0.8111
  778MOL0     H 4988   5.088   5.744   4.854 -1.2871  3.2503  1.4227
  778MOL0     H 4989   5.155   5.853   4.755  0.9342  0.0996 -1.3852
  778MOL0     H 4990   5.076   5.473   4.504 -0.5228 -0.3662  2.2250
  778MOL0     H 4991   5.286   5.398   4.377 -2.6193 -0.5029 -0.4415
  778MOL0     H 4992   5.772   5.814   4.309  0.4353 -0.4976  1.1816
  778MOL0     H 4993   5.955   5.834   4.140 -1.8065  1.1801  0.4508
  778MOL0     H 4994   6.207   5.499   4.097  1.1776  0.9755  0.8411
  778MOL0     H 4995   6.134   5.496   3.928  0.7141 -0.9206 -0.1632
  778MOL0     H 4996   6.267   5.680   3.859  1.3433  0.5499 -0.1649
  778MOL0     H 4997   6.337   5.705   4.025  1.9690 -0.5248  0.3848
  778MOL0     H 4998   6.400   5.444   3.977 -1.0702 -0.9038 -0.8146
  778MOL0     H 4999   6.392   5.510   3.807  2.3286  0.6498 -1.4188
  778MOL0     H 5000   6.572   5.594   4.037 -0.2150  0.6757 -0.4248
  778MOL0     H 5001   6.539   5.710   3.909  2.0963 -0.7933 -1.3501
  778MOL0     H 5002   6.755   5.614   3.861  1.9378 -1.2618 -0.5991
  778MOL0     H 5003   6.650   5.541   3.744  1.8181  0.2216 -0.4260
  778MOL0     H 5004   6.696   5.416   4.012 -3.1015 -1.4585 -0.3626
  778MOL0     H 5005   6.626   5.341   3.875 -2.2599  2.5459  0.4466
  778MOL0     H 5006   6.861   5.422   3.763  0.3924 -0.8105 -0.5437
  778MOL0     H 5007   6.864   5.268   3.853  0.5150 -0.1774 -2.0042
  778MOL0     H 5008   6.914   5.543   3.983  1.6594  0.9443 -0.4784
  778MOL0     H 5009   6.963   5.387   4.046 -1.2247 -0.7091  0.1157
  778MOL0     H 5010   5.973   5.406   4.134 -1.9448 -1.2001  0.8422
  778MOL0     H 5011   5.755   5.400   4.254  0.5429 -0.3488  1.3886
  778MOL0     H 5012   5.485   5.744   4.532 -0.4229  1.5819  0.1419
  778MOL0     H 5013   5.307   5.787   4.671  1.1297 -0.0666 -0.6579
  778MOL0     H 5014   3.855   5.983   4.207  0.7719 -0.6803  2.2380
  778MOL0     H 5015   3.610   5.880   4.268  0.9708 -1.7907  2.3522
  778MOL0     H 5016   3.135   6.139   4.316 -2.2988  1.3608 -0.2000
  778MOL0     H 5017   2.901   6.081   4.357 -0.4240  1.6789  2.3211
  778MOL0     H 5018   2.701   5.905   4.384 -0.3053 -0.1042 -0.4561
  778MOL0     H 5019   2.703   6.059   4.475 -0.0673  0.1380  1.2717
  778MOL0     H 5020   2.594   5.929   4.671 -1.6522 -1.6277  0.8859
  778MOL0     H 5021   2.545   5.815   4.554  0.0249  0.5052  0.7569
  778MOL0     H 5022   2.456   6.008   4.398  1.9321  0.9323 -0.2969
  778MOL0     H 5023   2.496   6.123   4.530 -1.0575  0.2962  1.8029
  778MOL0     H 5024   2.362   5.956   4.686  2.2306  0.9426 -1.2603
  778MOL0     H 5025   2.258   6.049   4.583 -0.5081  0.6236 -0.2704
  778MOL0     H 5026   2.202   5.667   4.436 -2.1090 -0.9756  2.4121
  778MOL0     H 5027   3.010   5.818   4.676  0.2353 -0.3621 -0.2448
  778MOL0     H 5028   3.350   5.799   4.591 -0.9543 -1.0567  0.0330
  778MOL0     H 5029   3.351   5.948   4.702 -0.3044 -0.7429  1.6421
  778MOL0     H 5030   3.267   5.810   4.745  1.3934 -2.0592 -0.8861
  779MOL0     O 5031   2.942   7.498   5.873  0.4887  0.3822 -0.3867
  779MOL0     C 5032   2.935   7.513   5.753  0.0583  0.1899  0.2329
  779MOL0     O 5033   3.038   7.474   5.662 -0.7091 -0.1625 -0.1215
  779MOL0     C 5034   3.162   7.433   5.700  0.3320 -0.6400  0.6726
  779MOL0     C 5035   3.226   7.354   5.609 -0.4568  0.5946 -0.4057
  779MOL0     C 5036   3.362   7.322   5.634 -0.7850 -1.7700 -0.7004
  779MOL0     C 5037   3.425   7.366   5.759 -0.4426 -0.1310 -0.1821
  779MOL0     O 5038   3.554   7.339   5.785 -0.5751 -0.1406 -0.1328
  779MOL0     C 5039   3.642   7.319   5.669  1.0287 -0.1036  0.0631
  779MOL0     C 5040   3.781   7.362   5.698  0.3644 -0.2122  0.3050
  779MOL0     C 5041   3.825   7.295   5.822  0.0841  0.3129  0.6462
  779MOL0     C 5042   3.973   7.323   5.843  1.1240  0.4016 -0.1640
  779MOL0     C 5043   4.033   7.260   5.966  0.2464 -0.7255 -0.7009
  779MOL0     C 5044   4.176   7.314   5.986 -0.4772  0.4668 -0.2623
  779MOL0     C 5045   4.170   7.430   6.083 -0.2306 -0.1049 -0.2581
  779MOL0     C 5046   4.291   7.522   6.099 -1.0012  0.7509 -0.6262
  779MOL0     N 5047   4.401   7.453   6.158 -0.5775  0.0064  0.4510
  779MOL0     C 5048   4.440   7.450   6.287 -0.0175 -0.6001 -0.0170
  779MOL0     C 5049   4.547   7.372   6.289 -0.6189 -0.2297  0.4143
  779MOL0     C 5050   4.633   7.358   6.417  0.0906 -0.4411  0.2742
  779MOL0     C 5051   4.697   7.221   6.420  0.2389 -0.3859  0.6724
  779MOL0     C 5052   4.778   7.223   6.545 -0.5629 -0.1809 -0.6080
  779MOL0     C 5053   4.857   7.099   6.566 -0.7412  0.1829 -0.2551
  779MOL0     O 5054   4.927   7.075   6.450 -0.0387  0.5933 -0.0198
  779MOL0     C 5055   5.048   7.138   6.436 -0.5404  1.0765  0.9209
  779MOL0     C 5056   5.109   7.109   6.312 -0.2214 -0.1976 -0.4277
  779MOL0     C 5057   5.238   7.169   6.277  0.0978  0.1737 -0.8716
  779MOL0     C 5058   5.311   7.237   6.378 -0.2020 -0.2708  0.1641
  779MOL0     C 5059   5.433   7.301   6.342 -0.4178  0.5196  0.4246
  779MOL0     O 5060   5.519   7.244   6.251  0.4746  1.2280  0.5602
  779MOL0     C 5061   5.648   7.278   6.212 -0.0120 -0.1778 -0.4499
  779MOL0     C 5062   5.712   7.196   6.119 -0.6756  0.4157  0.4290
  779MOL0     C 5063   5.831   7.237   6.058  0.6509 -0.0741 -0.4511
  779MOL0     C 5064   5.890   7.356   6.087 -0.0138 -0.2803 -0.2485
  779MOL0     O 5065   5.997   7.413   6.035  0.3887  0.3559 -0.8430
  779MOL0     C 5066   6.113   7.370   6.108  0.3598  0.0306 -0.3734
  779MOL0     C 5067   6.222   7.415   6.021 -0.8707 -1.2630  0.5950
  779MOL0     C 5068   6.239   7.340   5.888 -0.4124  0.4635 -0.8872
  779MOL0     C 5069   6.342   7.394   5.798 -0.1794 -0.6726 -0.4525
  779MOL0     C 5070   6.292   7.528   5.733 -0.4093  1.9560 -0.3460
  779MOL0     C 5071   6.407   7.593   5.657 -0.2067  0.3938 -1.0932
  779MOL0     C 5072   6.463   7.500   5.553  0.2067 -0.2667 -0.4905
  779MOL0     C 5073   6.570   7.575   5.465  0.7814 -0.8663 -0.0057
  779MOL0    Cl 5074   6.491   7.697   5.366  0.0052 -0.0029  0.2041
  779MOL0     C 5075   5.827   7.437   6.187  0.2886 -0.1577  0.0588
  779MOL0     C 5076   5.708   7.398   6.244 -0.2653 -0.3606 -0.6243
  779MOL0     O 5077   5.472   7.390   6.419  0.2826 -0.7387  0.7381
  779MOL0     C 5078   5.235   7.274   6.497 -0.4841 -0.3064  0.0739
  779MOL0     C 5079   5.106   7.222   6.524 -0.3340  0.1433 -0.4699
  779MOL0     N 5080   4.579   7.326   6.158 -0.0278  0.6459 -0.4652
  779MOL0     N 5081   4.486   7.375   6.087 -0.0414 -0.3544  0.3770
  779MOL0     C 5082   3.346   7.424   5.852 -0.0352 -0.0787  0.4403
  779MOL0     C 5083   3.218   7.466   5.827 -0.1905 -0.0294 -0.1638
  779MOL0     C 5084   2.815   7.577   5.701  0.4095  0.3312  0.4551
  779MOL0     C 5085   2.741   7.674   5.771 -0.1365  0.0024 -0.4570
  779MOL0     C 5086   2.624   7.740   5.722  0.5146  0.0062 -0.5853
  779MOL0     C 5087   2.566   7.695   5.606  1.0010  0.0400  0.1857
  779MOL0     O 5088   2.439   7.745   5.576  0.2457  0.2978 -0.3340
  779MOL0     C 5089   2.384   7.688   5.458 -0.4362  0.4807  0.6129
  779MOL0     C 5090   2.253   7.764   5.433  1.3002  0.9845  0.0506
  779MOL0     C 5091   2.144   7.713   5.525  0.3523  0.2075  0.4446
  779MOL0     C 5092   2.009   7.790   5.513  0.6415  0.1172  0.3965
  779MOL0     C 5093   1.919   7.713   5.599  0.3449 -0.4073 -0.1711
  779MOL0     C 5094   1.848   7.673   5.689  0.6561 -1.3817 -0.5272
  779MOL0     C 5095   2.635   7.597   5.532  0.3551  0.0583  0.1345
  779MOL0     C 5096   2.762   7.544   5.572 -0.5621  0.3082 -0.3968
  779MOL0     C 5097   2.816   7.437   5.488  0.4030  0.3197 -0.0136
  779MOL0     H 5098   3.179   7.308   5.523  0.5130  2.0327 -1.7495
  779MOL0     H 5099   3.422   7.256   5.572  2.1375 -2.2902  2.3457
  779MOL0     H 5100   3.645   7.216   5.632 -0.6332 -0.7390  1.5754
  779MOL0     H 5101   3.601   7.380   5.588 -0.5444 -0.9861  0.1627
  779MOL0     H 5102   3.793   7.470   5.708  0.0162 -0.2985  2.0082
  779MOL0     H 5103   3.834   7.334   5.606 -0.8032 -0.9621 -0.1551
  779MOL0     H 5104   3.813   7.187   5.813  2.8451  0.1253 -4.1273
  779MOL0     H 5105   3.782   7.331   5.917  0.3464 -2.6852  2.0141
  779MOL0     H 5106   4.015   7.293   5.746 -1.7387  3.1074 -2.4737
  779MOL0     H 5107   3.977   7.433   5.845 -2.0590  0.5902  0.9473
  779MOL0     H 5108   3.965   7.281   6.049  0.7444 -1.4505 -0.0932
  779MOL0     H 5109   4.031   7.151   5.956  1.5310 -0.9054  0.5728
  779MOL0     H 5110   4.243   7.241   6.033  0.2279  1.2832  0.0211
  779MOL0     H 5111   4.224   7.343   5.893 -0.7746 -0.7449 -0.8126
  779MOL0     H 5112   4.130   7.395   6.178 -1.5533 -2.3350 -1.5473
  779MOL0     H 5113   4.096   7.504   6.050  0.4236  2.0991  2.7520
  779MOL0     H 5114   4.343   7.545   6.006  0.2880  1.3516  0.2043
  779MOL0     H 5115   4.271   7.614   6.154 -1.6101  0.6971 -0.7549
  779MOL0     H 5116   4.398   7.507   6.369  3.0244  1.2680  0.4349
  779MOL0     H 5117   4.709   7.435   6.432  2.2258 -1.8908 -2.2445
  779MOL0     H 5118   4.565   7.363   6.502 -2.4617  1.3104 -1.6748
  779MOL0     H 5119   4.631   7.134   6.416 -0.9195  0.4731  0.3922
  779MOL0     H 5120   4.768   7.221   6.337 -0.1080 -4.9772  0.1450
  779MOL0     H 5121   4.714   7.242   6.632  1.1260  1.0005  0.4352
  779MOL0     H 5122   4.851   7.303   6.534 -0.2009 -0.7970 -3.6061
  779MOL0     H 5123   4.793   7.012   6.584 -1.6130  0.2123 -2.8304
  779MOL0     H 5124   4.917   7.096   6.658 -0.3396  0.1219 -0.5160
  779MOL0     H 5125   5.055   7.042   6.247 -0.7128 -0.7356  0.5008
  779MOL0     H 5126   5.293   7.151   6.185  0.7767  2.2822 -0.9180
  779MOL0     H 5127   5.688   7.091   6.100 -0.2980 -0.4385  3.8927
  779MOL0     H 5128   5.871   7.179   5.976  0.0884 -1.6863  0.3670
  779MOL0     H 5129   6.120   7.415   6.208  1.6821  1.4868 -1.0652
  779MOL0     H 5130   6.124   7.262   6.122  0.0123 -0.0068 -0.3805
  779MOL0     H 5131   6.209   7.522   6.004  1.2382 -1.1195 -0.5601
  779MOL0     H 5132   6.317   7.399   6.073 -0.2486  2.2226  0.7413
  779MOL0     H 5133   6.271   7.238   5.915 -0.0868  0.6009 -0.7470
  779MOL0     H 5134   6.142   7.340   5.838 -0.2891 -1.8269 -1.2325
  779MOL0     H 5135   6.365   7.318   5.723 -3.4299 -1.1205 -1.1411
  779MOL0     H 5136   6.428   7.420   5.859 -1.1855 -0.1539  0.7893
  779MOL0     H 5137   6.247   7.592   5.810 -1.7667 -3.6832  4.2706
  779MOL0     H 5138   6.217   7.494   5.661 -0.9272 -2.0560  1.8097
  779MOL0     H 5139   6.365   7.682   5.608 -1.9401 -0.3592 -1.0481
  779MOL0     H 5140   6.486   7.611   5.730 -2.5237  4.2920  0.7773
  779MOL0     H 5141   6.390   7.457   5.484 -1.0088 -1.6355  1.5355
  779MOL0     H 5142   6.510   7.412   5.597 -0.8613 -0.7691 -0.3169
  779MOL0     H 5143   6.645   7.619   5.532  0.8970 -0.3712 -0.4604
  779MOL0     H 5144   6.629   7.515   5.395  2.8706  2.6064 -1.4616
  779MOL0     H 5145   5.874   7.533   6.211  1.6544 -0.1060 -2.5043
  779MOL0     H 5146   5.667   7.469   6.315  4.6676  0.6724  1.5912
  779MOL0     H 5147   5.280   7.349   6.561 -0.1212  0.3561 -0.9320
  779MOL0     H 5148   5.056   7.248   6.617 -1.8813 -2.2976 -0.5337
  779MOL0     H 5149   3.386   7.432   5.952  3.9755  1.0554 -1.0316
  779MOL0     H 5150   3.171   7.515   5.912 -3.7612  0.7633 -2.3945
  779MOL0     H 5151   2.787   7.709   5.863 -1.3860  4.6281 -1.3461
  779MOL0     H 5152   2.584   7.817   5.787  0.8293 -1.0588  0.9343
  779MOL0     H 5153   2.370   7.580   5.467 -1.8462  0.4970 -0.8600
  779MOL0     H 5154   2.441   7.720   5.370 -2.0227 -1.0382 -1.0403
  779MOL0     H 5155   2.212   7.744   5.333 -2.8828 -0.1528  1.8069
  779MOL0     H 5156   2.262   7.872   5.449  1.5011  1.2114 -1.3726
  779MOL0     H 5157   2.179   7.724   5.628  3.9605  1.4002 -0.7426
  779MOL0     H 5158   2.126   7.608   5.498  1.9224 -0.5604  2.1787
  779MOL0     H 5159   2.015   7.896   5.540 -1.6543  1.4506 -3.4685
  779MOL0     H 5160   1.974   7.787   5.409 -0.2089  0.7886  0.6495
  779MOL0     H 5161   1.779   7.647   5.767  2.7778 -2.7488  1.0020
  779MOL0     H 5162   2.596   7.554   5.440  0.3637  2.3165 -0.9901
  779MOL0     H 5163   2.893   7.465   5.415  2.4140 -2.4183  0.8617
  779MOL0     H 5164   2.861   7.361   5.553 -1.2399  0.4394  1.3115
  779MOL0     H 5165   2.751   7.385   5.417  1.5461  0.8304 -1.4887
  780MOL0     O 5166   1.164   5.189   0.768  0.2559  0.3709 -0.1962
  780MOL0     C 5167   1.047   5.156   0.776  0.0369 -0.2448  0.3062
  780MOL0     O 5168   0.997   5.033   0.753 -0.1158 -0.4087 -0.3558
  780MOL0     C 5169   1.093   4.930   0.756 -0.0076 -0.4155 -0.6596
  780MOL0     C 5170   1.187   4.920   0.856  0.3906  0.4478 -0.1682
  780MOL0     C 5171   1.290   4.819   0.856 -0.2569  0.1302 -0.1248
  780MOL0     C 5172   1.263   4.706   0.778  0.7085 -0.4459  0.6788
  780MOL0     O 5173   1.336   4.598   0.771  0.7926  0.4488 -0.2821
  780MOL0     C 5174   1.466   4.586   0.820 -0.2239 -0.1177 -0.0408
  780MOL0     C 5175   1.524   4.446   0.791 -0.2508  0.4651  0.7067
  780MOL0     C 5176   1.660   4.414   0.861 -0.6860  0.1753  0.5510
  780MOL0     C 5177   1.772   4.521   0.882  0.7202 -0.0532 -0.8771
  780MOL0     C 5178   1.878   4.511   0.774  0.2433 -0.1711 -0.1108
  780MOL0     C 5179   1.956   4.650   0.763 -0.2861 -0.1812 -0.5169
  780MOL0     C 5180   2.039   4.664   0.635 -0.5816  0.9624 -0.0572
  780MOL0     C 5181   2.108   4.801   0.644 -0.1693  0.2104  0.3669
  780MOL0     N 5182   2.213   4.832   0.545 -0.2202  0.3313 -0.4471
  780MOL0     C 5183   2.192   4.823   0.407  0.1736  0.9263 -1.0983
  780MOL0     C 5184   2.320   4.862   0.358 -0.0641  0.7402 -0.0298
  780MOL0     C 5185   2.338   4.897   0.213  0.0596 -0.3253  0.0540
  780MOL0     C 5186   2.477   4.903   0.162 -0.3611  0.1024  0.7515
  780MOL0     C 5187   2.561   5.025   0.217 -0.7626 -0.3284  0.4087
  780MOL0     C 5188   2.650   5.091   0.112 -0.2175 -0.2510  0.6708
  780MOL0     O 5189   2.711   4.995   0.028 -0.3265  0.7961  0.4136
  780MOL0     C 5190   2.791   5.041  -0.074  0.0552 -0.9334 -0.8936
  780MOL0     C 5191   2.864   4.956  -0.150 -0.7053 -0.6354 -0.1053
  780MOL0     C 5192   2.936   5.001  -0.262 -0.6869 -0.6225  0.4438
  780MOL0     C 5193   2.970   5.133  -0.286 -0.0954 -0.1400 -0.9147
  780MOL0     C 5194   3.069   5.170  -0.389 -0.6877 -0.2612  0.0028
  780MOL0     O 5195   3.149   5.071  -0.439 -0.1243  0.2091  0.9806
  780MOL0     C 5196   3.254   5.093  -0.526  0.3286  0.1978 -0.0410
  780MOL0     C 5197   3.316   5.221  -0.567 -0.9290  0.1238 -0.3779
  780MOL0     C 5198   3.425   5.207  -0.653 -0.7219  0.1927  0.0400
  780MOL0     C 5199   3.476   5.091  -0.702 -0.3288  0.4443  1.1438
  780MOL0     O 5200   3.571   5.094  -0.805  0.4503  0.3310  0.2375
  780MOL0     C 5201   3.679   5.009  -0.790 -0.8813 -0.3239 -0.3655
  780MOL0     C 5202   3.807   5.098  -0.811  0.1502  0.2676 -0.5886
  780MOL0     C 5203   3.947   5.023  -0.806  0.4010 -1.4090 -0.5594
  780MOL0     C 5204   4.038   5.059  -0.925  0.5450  0.0265  0.1927
  780MOL0     C 5205   4.168   4.985  -0.914 -0.2269  0.1723 -0.2007
  780MOL0     C 5206   4.281   5.017  -1.013  0.2157 -0.2952 -0.0787
  780MOL0     C 5207   4.420   4.956  -0.972 -0.1509 -1.0671 -0.3558
  780MOL0     C 5208   4.429   4.805  -0.989  0.4560 -0.4303 -0.5832
  780MOL0    Cl 5209   4.440   4.758  -1.162  0.1245 -0.1831 -0.0804
  780MOL0     C 5210   3.419   4.967  -0.668 -0.3854 -0.0943 -0.2400
  780MOL0     C 5211   3.304   4.973  -0.584 -0.7940  0.5557  0.1030
  780MOL0     O 5212   3.087   5.289  -0.403 -0.4351 -0.3922  0.1007
  780MOL0     C 5213   2.906   5.223  -0.205  0.3612  0.0437 -0.1087
  780MOL0     C 5214   2.819   5.181  -0.108  0.1735  0.7730  0.1571
  780MOL0     N 5215   2.412   4.872   0.463 -0.6305  0.2955 -0.4399
  780MOL0     N 5216   2.344   4.863   0.574 -0.1669  0.1934  0.2110
  780MOL0     C 5217   1.175   4.723   0.675  0.8385 -0.1253  0.1433
  780MOL0     C 5218   1.097   4.838   0.655 -0.3631 -0.9474  0.0251
  780MOL0     C 5219   0.944   5.250   0.825  0.1854  1.1706 -0.5473
  780MOL0     C 5220   0.981   5.373   0.877 -0.0451  0.6250  0.6786
  780MOL0     C 5221   0.890   5.468   0.937 -0.5968  1.0865  0.2527
  780MOL0     C 5222   0.753   5.446   0.941  0.3320  0.2808 -0.6103
  780MOL0     O 5223   0.665   5.521   1.012  0.4541  0.2408 -0.6336
  780MOL0     C 5224   0.704   5.659   1.036  0.0577 -0.4895 -0.5115
  780MOL0     C 5225   0.575   5.748   1.073  0.1053  0.0466  0.2234
  780MOL0     C 5226   0.549   5.752   1.221 -1.2332  0.8131  0.2429
  780MOL0     C 5227   0.478   5.636   1.285 -0.3788  0.1769  0.7607
  780MOL0     C 5228   0.439   5.671   1.416  0.6072  0.2995 -0.6022
  780MOL0     C 5229   0.400   5.708   1.525  0.0919  0.0045  0.2662
  780MOL0     C 5230   0.705   5.320   0.892 -0.2635 -1.6273  0.5792
  780MOL0     C 5231   0.798   5.235   0.829  0.4333  0.5307  1.0348
  780MOL0     C 5232   0.735   5.116   0.774 -0.0521  0.0201 -0.3064
  780MOL0     H 5233   1.205   4.996   0.931 -0.5603 -1.1300  1.7358
  780MOL0     H 5234   1.384   4.807   0.910 -0.8224  0.3111  0.9437
  780MOL0     H 5235   1.537   4.668   0.804 -0.7069  1.3134  3.8840
  780MOL0     H 5236   1.453   4.583   0.929  3.6025  0.0604  0.5671
  780MOL0     H 5237   1.543   4.432   0.685  0.8339 -0.8055  1.0459
  780MOL0     H 5238   1.458   4.370   0.834  1.1848 -0.6096  1.0758
  780MOL0     H 5239   1.714   4.343   0.799  2.0524  2.6365 -0.1031
  780MOL0     H 5240   1.635   4.360   0.953  1.3029 -1.6840  0.0682
  780MOL0     H 5241   1.735   4.623   0.895  2.7193  0.4881  1.2703
  780MOL0     H 5242   1.827   4.492   0.972 -1.0287 -1.0207 -0.0703
  780MOL0     H 5243   1.952   4.434   0.800  3.4492  2.8221  0.5011
  780MOL0     H 5244   1.849   4.483   0.673  1.4367 -2.9106  0.2126
  780MOL0     H 5245   1.879   4.727   0.755 -1.9675 -1.1587  3.5471
  780MOL0     H 5246   2.020   4.678   0.847  1.2217  2.2313 -2.3464
  780MOL0     H 5247   1.993   4.662   0.536  1.5402 -0.1091 -1.0864
  780MOL0     H 5248   2.111   4.582   0.644  1.4310  2.7599  1.0940
  780MOL0     H 5249   2.032   4.878   0.626 -0.8199 -0.4627  0.1798
  780MOL0     H 5250   2.148   4.817   0.745  2.4587 -0.5721 -0.4780
  780MOL0     H 5251   2.111   4.789   0.343 -0.7172 -0.0476  0.4680
  780MOL0     H 5252   2.272   4.831   0.157 -1.1269  0.9900 -0.1678
  780MOL0     H 5253   2.291   4.996   0.209 -1.0683 -0.8634 -0.1717
  780MOL0     H 5254   2.531   4.812   0.191  2.7211  0.9974 -1.5528
  780MOL0     H 5255   2.476   4.897   0.052  2.7233 -0.1644  0.6422
  780MOL0     H 5256   2.621   4.992   0.302  0.2231  0.0889 -0.1047
  780MOL0     H 5257   2.510   5.111   0.263 -0.1622 -0.7452  1.9099
  780MOL0     H 5258   2.719   5.163   0.158 -1.1308  3.4582 -3.0403
  780MOL0     H 5259   2.596   5.158   0.044  3.3634  2.4585  0.1396
  780MOL0     H 5260   2.866   4.848  -0.143  0.0650 -0.6406 -0.3228
  780MOL0     H 5261   2.978   4.923  -0.325  1.8081 -1.4077  2.8755
  780MOL0     H 5262   3.286   5.322  -0.544  0.8180  0.3760  0.9849
  780MOL0     H 5263   3.472   5.293  -0.701  0.4915  0.3902  1.5119
  780MOL0     H 5264   3.688   4.965  -0.691  2.7224 -2.2183 -1.3403
  780MOL0     H 5265   3.667   4.920  -0.853 -0.5061  0.3990 -1.4999
  780MOL0     H 5266   3.794   5.137  -0.912 -0.1574  1.8565  0.0430
  780MOL0     H 5267   3.797   5.186  -0.748 -1.8771  0.6182 -1.3235
  780MOL0     H 5268   3.985   5.052  -0.708 -1.3281  0.4929 -0.3645
  780MOL0     H 5269   3.929   4.916  -0.805  1.4892 -1.6489  2.5930
  780MOL0     H 5270   4.058   5.165  -0.909  0.2969 -0.3347  3.7036
  780MOL0     H 5271   3.984   5.043  -1.019 -0.1516  0.1842  0.5640
  780MOL0     H 5272   4.148   4.878  -0.929  0.9653 -0.4005  1.9704
  780MOL0     H 5273   4.208   4.995  -0.813  1.1647  0.9413 -0.8020
  780MOL0     H 5274   4.245   4.979  -1.109  3.6186  0.4155 -1.7826
  780MOL0     H 5275   4.284   5.126  -1.020 -0.1427 -0.0967  2.1394
  780MOL0     H 5276   4.449   4.997  -0.875  3.2263  1.0554 -2.0698
  780MOL0     H 5277   4.500   5.004  -1.029 -0.3118 -0.5007 -0.1130
  780MOL0     H 5278   4.516   4.761  -0.939  1.0016 -0.2264 -1.3163
  780MOL0     H 5279   4.349   4.758  -0.932 -0.8502  2.3542  0.0438
  780MOL0     H 5280   3.462   4.875  -0.706 -1.3023 -1.7140  2.3297
  780MOL0     H 5281   3.258   4.875  -0.571  2.8043 -1.6287 -2.0248
  780MOL0     H 5282   2.927   5.329  -0.211  0.2939  0.0840  0.3312
  780MOL0     H 5283   2.768   5.259  -0.052  0.9382  2.2612 -1.1284
  780MOL0     H 5284   1.177   4.648   0.597 -0.0891 -3.0665  2.7009
  780MOL0     H 5285   1.030   4.844   0.569  1.3196 -1.9813 -1.4338
  780MOL0     H 5286   1.087   5.397   0.867 -0.1244  0.8714  0.3815
  780MOL0     H 5287   0.934   5.556   0.981 -2.3495  2.8719 -1.3954
  780MOL0     H 5288   0.745   5.707   0.947 -1.2304  0.0838 -0.8171
  780MOL0     H 5289   0.779   5.657   1.116 -1.6745  2.3206  1.3591
  780MOL0     H 5290   0.489   5.702   1.022  1.5119 -2.5327 -0.0464
  780MOL0     H 5291   0.589   5.853   1.046  0.4211 -0.2936 -1.0209
  780MOL0     H 5292   0.493   5.845   1.240 -1.4557  0.6635  0.3272
  780MOL0     H 5293   0.646   5.757   1.272 -0.6634 -1.2260 -0.5601
  780MOL0     H 5294   0.396   5.613   1.217 -1.6483 -0.3697  2.4145
  780MOL0     H 5295   0.548   5.553   1.291 -0.2869  0.2430  0.6121
  780MOL0     H 5296   0.355   5.732   1.620  0.9162 -2.6820  1.4407
  780MOL0     H 5297   0.600   5.304   0.915 -0.3989 -0.1082  1.1566
  780MOL0     H 5298   0.746   5.036   0.847  0.8162  1.8741  1.7279
  780MOL0     H 5299   0.628   5.132   0.761 -0.1472  0.5911  0.9920
  780MOL0     H 5300   0.772   5.078   0.678  4.2129 -0.9925  1.4845
  781MOL0     O 5301   9.637   3.364   0.592  0.1052  0.4752 -0.0477
  781MOL0     C 5302   9.621   3.481   0.566  0.0055 -0.3527  0.3302
  781MOL0     O 5303   9.720   3.563   0.516  0.6780  0.0964  0.5480
  781MOL0     C 5304   9.849   3.516   0.529 -0.2891 -0.8291  0.2888
  781MOL0     C 5305   9.902   3.451   0.426 -0.5502 -0.2647  0.4315
  781MOL0     C 5306  10.039   3.403   0.439 -0.3071 -0.3366  0.6131
  781MOL0     C 5307  10.120   3.429   0.554 -0.3703  0.7756  0.3371
  781MOL0     O 5308  10.253   3.400   0.570 -0.3912  0.0460  1.0030
  781MOL0     C 5309  10.336   3.382   0.455  0.7108  0.0264  0.5253
  781MOL0     C 5310  10.369   3.520   0.408  0.1603 -0.1809  0.4777
  781MOL0     C 5311  10.451   3.606   0.509 -0.8696  0.2761  0.2345
  781MOL0     C 5312  10.586   3.527   0.522  1.2688 -0.2254  0.2406
  781MOL0     C 5313  10.678   3.619   0.587  0.9015  0.3279  0.1528
  781MOL0     C 5314  10.813   3.549   0.623  0.5735 -0.5584 -0.0432
  781MOL0     C 5315  10.800   3.427   0.719  0.6228 -0.4474  0.7022
  781MOL0     C 5316  10.930   3.384   0.785  0.7862 -0.0268  1.0400
  781MOL0     N 5317  10.913   3.267   0.872  0.0781  0.8811  0.3199
  781MOL0     C 5318  10.915   3.269   1.008 -0.8379 -0.5117 -0.7072
  781MOL0     C 5319  10.890   3.151   1.044  0.4989  0.4811  0.0234
  781MOL0     C 5320  10.856   3.099   1.185  0.4561 -0.0355  0.1860
  781MOL0     C 5321  10.961   3.008   1.237  1.7445  0.0537  0.4667
  781MOL0     C 5322  11.081   3.082   1.306  0.4473 -0.1201 -0.1185
  781MOL0     C 5323  11.191   2.997   1.353  0.6749  0.4570 -0.3884
  781MOL0     O 5324  11.135   2.889   1.434 -0.1559 -0.0413 -0.4562
  781MOL0     C 5325  11.199   2.771   1.459  0.1914  0.0644 -0.4766
  781MOL0     C 5326  11.322   2.729   1.405 -0.6814  0.4840 -0.1083
  781MOL0     C 5327  11.373   2.600   1.430 -0.0068  0.1197  0.8800
  781MOL0     C 5328  11.309   2.516   1.527 -0.5951  0.2074  0.3440
  781MOL0     C 5329  11.370   2.391   1.576  0.6319 -0.3309  0.7235
  781MOL0     O 5330  11.297   2.310   1.659  0.3340  0.3091  0.7293
  781MOL0     C 5331  11.344   2.194   1.706  0.0409  0.1122  0.0515
  781MOL0     C 5332  11.407   2.099   1.622  0.0461 -0.7550  0.5202
  781MOL0     C 5333  11.419   1.965   1.660 -0.1846 -0.7664 -0.2351
  781MOL0     C 5334  11.378   1.925   1.785  0.0599 -0.3556  0.4890
  781MOL0     O 5335  11.393   1.794   1.837 -0.2625 -0.1584 -0.0095
  781MOL0     C 5336  11.268   1.725   1.870 -0.2083  0.0010  0.4079
  781MOL0     C 5337  11.260   1.620   1.981 -0.4358  0.1756 -0.0178
  781MOL0     C 5338  11.365   1.513   1.952 -0.1830  0.0617 -0.0241
  781MOL0     C 5339  11.343   1.397   2.049 -1.2930  0.1605  0.0783
  781MOL0     C 5340  11.477   1.331   2.075  0.5011 -0.0072  0.9981
  781MOL0     C 5341  11.546   1.264   1.957  0.1803  0.0554  0.3438
  781MOL0     C 5342  11.503   1.126   1.925 -0.3689 -0.0090  0.9998
  781MOL0     C 5343  11.586   1.073   1.806  0.3141  0.0942 -0.7144
  781MOL0    Cl 5344  11.761   1.048   1.848 -1.1457 -0.2037 -0.4620
  781MOL0     C 5345  11.335   2.022   1.878 -0.4539 -0.0265 -0.1408
  781MOL0     C 5346  11.317   2.155   1.835  0.6451  0.0458  0.2411
  781MOL0     O 5347  11.490   2.379   1.549 -0.1353 -0.2190 -0.5396
  781MOL0     C 5348  11.182   2.565   1.577 -0.4300  0.2567  0.0262
  781MOL0     C 5349  11.129   2.688   1.547  0.5878 -0.7701 -0.1420
  781MOL0     N 5350  10.871   3.074   0.930 -0.5499  0.4331  0.5350
  781MOL0     N 5351  10.890   3.146   0.818  0.3370 -0.1199 -0.5785
  781MOL0     C 5352  10.056   3.497   0.661  0.2096 -0.4283  0.8340
  781MOL0     C 5353   9.916   3.532   0.655 -0.5675  0.4659 -0.2108
  781MOL0     C 5354   9.481   3.531   0.569 -0.3443  0.1205  0.7577
  781MOL0     C 5355   9.460   3.661   0.531 -0.5462 -0.8662 -0.8714
  781MOL0     C 5356   9.341   3.724   0.547 -0.4043 -1.3830  0.8697
  781MOL0     C 5357   9.229   3.663   0.596  0.1079  0.7266  0.2124
  781MOL0     O 5358   9.112   3.733   0.583  0.4896  0.0086  0.4660
  781MOL0     C 5359   8.983   3.680   0.628 -0.4343 -0.4958 -0.4243
  781MOL0     C 5360   8.862   3.767   0.582 -0.5896  0.7485  0.0939
  781MOL0     C 5361   8.857   3.910   0.637 -0.7967 -0.2837  1.1264
  781MOL0     C 5362   8.860   3.918   0.789 -0.0894  0.2038 -0.1753
  781MOL0     C 5363   8.728   3.894   0.855 -0.5724 -0.0772  0.0820
  781MOL0     C 5364   8.623   3.873   0.918  1.0679 -0.2457 -0.0395
  781MOL0     C 5365   9.244   3.522   0.624  0.2085  0.7544  0.2269
  781MOL0     C 5366   9.364   3.456   0.613  0.2585  0.3257 -0.1679
  781MOL0     C 5367   9.366   3.312   0.649 -0.3366  0.5210 -0.5277
  781MOL0     H 5368   9.844   3.438   0.336 -1.9706 -1.5211  1.4795
  781MOL0     H 5369  10.086   3.351   0.356  1.5738 -2.0290  2.6269
  781MOL0     H 5370  10.427   3.327   0.479  1.6885  0.0354 -2.6849
  781MOL0     H 5371  10.287   3.315   0.384  0.9711 -0.7775  1.0821
  781MOL0     H 5372  10.269   3.560   0.393 -1.4453 -3.5316  1.1714
  781MOL0     H 5373  10.416   3.496   0.311  2.2511 -1.2875  1.6863
  781MOL0     H 5374  10.408   3.634   0.605  2.1960  3.6210  0.8281
  781MOL0     H 5375  10.475   3.691   0.445  2.2300 -0.5384  0.1313
  781MOL0     H 5376  10.560   3.437   0.578 -1.7993 -0.7558 -1.7578
  781MOL0     H 5377  10.631   3.503   0.425 -0.8506  1.6786 -1.3357
  781MOL0     H 5378  10.699   3.700   0.516  0.7662  1.6448  1.5667
  781MOL0     H 5379  10.623   3.665   0.669 -0.6378  2.3357 -1.8751
  781MOL0     H 5380  10.859   3.514   0.530 -2.3349 -0.3044 -1.6753
  781MOL0     H 5381  10.876   3.629   0.663 -1.3427  1.2165 -0.3839
  781MOL0     H 5382  10.760   3.342   0.662  0.7691 -1.2047  1.7074
  781MOL0     H 5383  10.726   3.451   0.795 -0.5743  1.1901 -0.8760
  781MOL0     H 5384  10.998   3.355   0.704 -0.9883 -0.2574 -0.4244
  781MOL0     H 5385  10.975   3.466   0.841  0.4420  0.4533  0.6242
  781MOL0     H 5386  10.911   3.358   1.070  0.5352 -1.6718  1.1572
  781MOL0     H 5387  10.835   3.183   1.252  0.5645  1.0723 -1.1336
  781MOL0     H 5388  10.757   3.052   1.181 -1.2669  3.3258 -2.6045
  781MOL0     H 5389  10.918   2.937   1.307  2.3610 -0.5664  0.2262
  781MOL0     H 5390  10.982   2.939   1.155  1.4918  0.2408  0.2415
  781MOL0     H 5391  11.043   3.142   1.389 -0.6759  1.0402 -1.3965
  781MOL0     H 5392  11.131   3.147   1.233  3.3199 -0.5085  1.3590
  781MOL0     H 5393  11.266   3.053   1.411  1.2623  1.5216 -2.0929
  781MOL0     H 5394  11.238   2.949   1.267  0.1143 -1.9088  0.5686
  781MOL0     H 5395  11.373   2.795   1.336  0.5496  0.5841  0.8721
  781MOL0     H 5396  11.474   2.584   1.394  0.0145  1.1387  0.4578
  781MOL0     H 5397  11.443   2.136   1.527  0.2793  2.3453  1.7109
  781MOL0     H 5398  11.464   1.890   1.596 -0.4088 -0.8428 -0.3059
  781MOL0     H 5399  11.183   1.794   1.866 -0.1722 -0.0183 -2.0163
  781MOL0     H 5400  11.248   1.673   1.775 -3.2761  2.5567 -0.5266
  781MOL0     H 5401  11.290   1.660   2.078 -0.3591 -0.7790  0.3651
  781MOL0     H 5402  11.156   1.589   1.987 -0.6788  1.0126  0.1643
  781MOL0     H 5403  11.356   1.475   1.850 -0.8635  1.7859 -0.6594
  781MOL0     H 5404  11.462   1.563   1.962 -0.0637  0.4138 -2.3525
  781MOL0     H 5405  11.263   1.330   2.015  0.2863 -0.3163 -3.0247
  781MOL0     H 5406  11.306   1.442   2.142 -2.3029 -1.1016  0.3196
  781MOL0     H 5407  11.476   1.252   2.151  1.5567  0.6307  1.7114
  781MOL0     H 5408  11.547   1.403   2.120  1.1028 -0.3266  0.5908
  781MOL0     H 5409  11.536   1.330   1.871  0.0148  0.6844  0.8345
  781MOL0     H 5410  11.653   1.264   1.979  0.5196 -0.3201 -1.2400
  781MOL0     H 5411  11.396   1.142   1.908  0.3137  5.8900  0.0949
  781MOL0     H 5412  11.518   1.060   2.011  1.2665 -1.1759 -0.1244
  781MOL0     H 5413  11.542   0.979   1.771  3.1750 -1.4045 -0.5582
  781MOL0     H 5414  11.590   1.144   1.723  3.0391  0.3999 -0.4169
  781MOL0     H 5415  11.325   1.986   1.980  2.2171 -0.1042  0.1647
  781MOL0     H 5416  11.276   2.234   1.898 -0.3254  1.1840 -1.7088
  781MOL0     H 5417  11.123   2.492   1.631  2.1515 -3.0732 -1.2663
  781MOL0     H 5418  11.031   2.710   1.588  0.7888  0.5291 -0.3234
  781MOL0     H 5419  10.119   3.507   0.749  2.1895  0.2568 -0.5898
  781MOL0     H 5420   9.871   3.587   0.736 -0.5065 -3.1436  2.5582
  781MOL0     H 5421   9.545   3.723   0.503 -2.6223  1.0818 -3.4874
  781MOL0     H 5422   9.345   3.831   0.534  5.6629 -1.3661 -0.0209
  781MOL0     H 5423   8.982   3.658   0.735 -2.5907 -1.1464 -0.5388
  781MOL0     H 5424   8.971   3.585   0.576 -2.1497  0.6760 -2.3099
  781MOL0     H 5425   8.766   3.719   0.604 -0.5182  0.1344 -0.8710
  781MOL0     H 5426   8.867   3.781   0.474  3.8906  3.0181  0.3789
  781MOL0     H 5427   8.764   3.957   0.603 -1.1881  0.6161  3.2634
  781MOL0     H 5428   8.935   3.973   0.594 -0.5664  1.6572  4.1172
  781MOL0     H 5429   8.930   3.856   0.846  1.8932  2.6250  0.2116
  781MOL0     H 5430   8.884   4.016   0.832  1.2760 -0.3931  0.4782
  781MOL0     H 5431   8.525   3.878   0.960  1.4327  2.3226  0.6859
  781MOL0     H 5432   9.146   3.482   0.651 -0.8107  3.0624  0.2135
  781MOL0     H 5433   9.442   3.303   0.727 -1.0663  1.0822  0.2614
  781MOL0     H 5434   9.273   3.284   0.698 -0.7566  1.9804 -0.4420
  781MOL0     H 5435   9.385   3.250   0.561 -1.4146 -0.7492  0.1181
  782MOL0     O 5436   4.315   2.973   6.616  0.3435 -0.7680  0.0442
  782MOL0     C 5437   4.346   3.077   6.560  0.6179  0.8712  0.4487
  782MOL0     O 5438   4.473   3.109   6.541 -0.5720  1.0904 -0.3741
  782MOL0     C 5439   4.570   3.010   6.552  0.2843  0.3571 -0.0761
  782MOL0     C 5440   4.609   2.948   6.676 -0.0577 -0.4021  0.2306
  782MOL0     C 5441   4.712   2.849   6.679 -0.1936 -0.6531 -0.1493
  782MOL0     C 5442   4.776   2.816   6.559 -0.4788 -1.0196  0.1580
  782MOL0     O 5443   4.882   2.730   6.550  0.3478 -0.9500  1.0335
  782MOL0     C 5444   4.996   2.763   6.622 -0.1371  0.0064 -0.3068
  782MOL0     C 5445   5.084   2.868   6.566 -0.5969  0.1685 -0.5372
  782MOL0     C 5446   5.140   2.814   6.435 -0.3899  0.4593  0.0372
  782MOL0     C 5447   5.183   2.926   6.344 -0.2071  0.0383  0.4236
  782MOL0     C 5448   5.079   2.967   6.243 -0.3036 -0.4877  0.6085
  782MOL0     C 5449   5.127   3.091   6.164  0.5903 -0.5889  0.0748
  782MOL0     C 5450   5.024   3.151   6.078  0.9130  0.3570 -0.0588
  782MOL0     C 5451   5.078   3.274   5.997  0.3057  0.3987 -0.0707
  782MOL0     N 5452   5.191   3.225   5.920 -0.0170  0.1631  0.1867
  782MOL0     C 5453   5.327   3.234   5.952  0.1124  0.3819 -1.1581
  782MOL0     C 5454   5.393   3.198   5.838 -0.0949 -0.2673 -0.2437
  782MOL0     C 5455   5.538   3.178   5.836  0.3180  0.3800 -0.1655
  782MOL0     C 5456   5.586   3.164   5.693  0.7440  0.0582 -0.1032
  782MOL0     C 5457   5.736   3.144   5.681 -0.0059  0.1311  0.1675
  782MOL0     C 5458   5.784   3.121   5.535 -0.3351  0.2527 -0.2040
  782MOL0     O 5459   5.852   3.239   5.496 -0.8597  0.1528  0.0790
  782MOL0     C 5460   5.984   3.260   5.511 -0.6071  0.1631 -0.8706
  782MOL0     C 5461   6.031   3.379   5.464 -0.0862  0.1598 -0.1428
  782MOL0     C 5462   6.161   3.418   5.477  0.3580  0.4861 -0.3283
  782MOL0     C 5463   6.254   3.335   5.552 -0.3424 -0.6379  0.0513
  782MOL0     C 5464   6.397   3.386   5.558 -1.0038  0.5002 -0.1652
  782MOL0     O 5465   6.477   3.323   5.645 -0.1272 -0.3816  0.5321
  782MOL0     C 5466   6.588   3.390   5.697 -1.3773 -1.0348 -0.1023
  782MOL0     C 5467   6.609   3.390   5.835  0.3982 -0.2437  0.4291
  782MOL0     C 5468   6.732   3.439   5.890 -0.4147 -0.5430 -0.3924
  782MOL0     C 5469   6.828   3.502   5.811  0.1454 -0.2410 -0.1319
  782MOL0     O 5470   6.943   3.537   5.881  0.4072 -0.3991  0.1165
  782MOL0     C 5471   7.063   3.540   5.802 -0.2981 -0.3780  0.4242
  782MOL0     C 5472   7.183   3.584   5.890  0.5606 -0.2742  0.2190
  782MOL0     C 5473   7.295   3.600   5.795 -0.5335  0.5449 -0.2156
  782MOL0     C 5474   7.434   3.606   5.864 -0.3296 -0.0257  1.1512
  782MOL0     C 5475   7.557   3.631   5.764  0.3652 -0.4862 -0.2032
  782MOL0     C 5476   7.693   3.608   5.831  0.8291  0.5088 -0.3030
  782MOL0     C 5477   7.803   3.641   5.736 -0.6236 -1.1188  0.8204
  782MOL0     C 5478   7.944   3.616   5.788  1.3622  0.1659 -0.6937
  782MOL0    Cl 5479   8.067   3.619   5.657  0.4425  0.0227  0.0938
  782MOL0     C 5480   6.807   3.498   5.667  0.0389 -0.0124  0.3955
  782MOL0     C 5481   6.687   3.451   5.614  0.6020  0.6294  1.3481
  782MOL0     O 5482   6.428   3.484   5.496 -0.2025  0.1864 -0.2447
  782MOL0     C 5483   6.203   3.222   5.613 -0.2687  0.3347  0.4275
  782MOL0     C 5484   6.073   3.180   5.587 -0.1654  0.8749  0.7368
  782MOL0     N 5485   5.301   3.189   5.732 -1.1551 -0.1366  0.1378
  782MOL0     N 5486   5.181   3.194   5.785 -0.8725  0.0709  0.7293
  782MOL0     C 5487   4.739   2.877   6.448 -0.3811 -0.1868  0.2546
  782MOL0     C 5488   4.635   2.969   6.437 -0.1588  1.1949 -0.4017
  782MOL0     C 5489   4.245   3.166   6.493 -0.2738  0.7047 -0.6975
  782MOL0     C 5490   4.295   3.290   6.446 -0.3560 -0.1262  0.5150
  782MOL0     C 5491   4.209   3.383   6.382 -0.2869  0.3066  0.4367
  782MOL0     C 5492   4.078   3.352   6.378  0.7632  0.0395  0.3157
  782MOL0     O 5493   3.985   3.442   6.320 -0.2883 -0.3852 -0.7726
  782MOL0     C 5494   4.023   3.526   6.212 -0.2390  0.1530 -0.3224
  782MOL0     C 5495   3.901   3.581   6.142 -0.3316 -0.8100  0.0516
  782MOL0     C 5496   3.808   3.467   6.096  0.2910  0.1543 -0.3311
  782MOL0     C 5497   3.694   3.530   6.017 -0.6297  0.2646 -0.3298
  782MOL0     C 5498   3.623   3.437   5.940  0.1957  0.1436 -0.1198
  782MOL0     C 5499   3.558   3.370   5.862  1.1735 -0.5256 -0.5179
  782MOL0     C 5500   4.022   3.236   6.424  0.6225  0.5682  0.8612
  782MOL0     C 5501   4.101   3.138   6.482 -0.7643 -0.5076 -0.1738
  782MOL0     C 5502   4.037   3.020   6.554 -0.8282 -0.3930 -0.1988
  782MOL0     H 5503   4.541   2.949   6.760 -1.1960  2.5712 -0.6047
  782MOL0     H 5504   4.707   2.797   6.775 -7.3947 -0.9177 -0.1141
  782MOL0     H 5505   4.955   2.794   6.719 -0.8598 -2.4793  0.2506
  782MOL0     H 5506   5.056   2.676   6.649  1.3241  0.9290 -0.4958
  782MOL0     H 5507   5.166   2.890   6.634 -1.1822 -4.5469  2.1335
  782MOL0     H 5508   5.013   2.951   6.555 -2.5365 -1.2959  0.2788
  782MOL0     H 5509   5.064   2.765   6.374 -0.8673  1.4554 -0.2003
  782MOL0     H 5510   5.213   2.734   6.451 -1.3266 -0.3367  0.4253
  782MOL0     H 5511   5.230   3.006   6.402  3.4035 -1.6354  0.1181
  782MOL0     H 5512   5.267   2.882   6.290  0.5913  2.3195 -0.2910
  782MOL0     H 5513   5.056   2.883   6.176  2.1554 -0.4324 -0.3895
  782MOL0     H 5514   4.984   2.998   6.289  2.0358  3.0042  3.6643
  782MOL0     H 5515   5.156   3.167   6.237  0.3035 -2.1175  1.8649
  782MOL0     H 5516   5.213   3.059   6.104  3.1497  2.8950  1.5950
  782MOL0     H 5517   4.938   3.179   6.140  0.1018  0.6572 -1.2878
  782MOL0     H 5518   4.984   3.076   6.009  2.0368 -0.9298  0.6417
  782MOL0     H 5519   4.994   3.308   5.935  0.3298  1.0056  0.2198
  782MOL0     H 5520   5.101   3.361   6.060 -1.8645 -0.2113  1.7020
  782MOL0     H 5521   5.377   3.269   6.042  0.8183 -1.3924 -0.8276
  782MOL0     H 5522   5.576   3.270   5.881 -0.1341  0.6939 -0.4093
  782MOL0     H 5523   5.578   3.104   5.905 -1.4928 -0.2701  0.2455
  782MOL0     H 5524   5.528   3.081   5.653  0.2612  0.3367  0.0109
  782MOL0     H 5525   5.568   3.264   5.651  0.9579  0.6061  1.0800
  782MOL0     H 5526   5.771   3.062   5.744 -0.3932  2.7944  4.2287
  782MOL0     H 5527   5.786   3.233   5.721  2.7017 -1.3725  0.3238
  782MOL0     H 5528   5.700   3.114   5.466 -0.3791 -3.0510  0.0214
  782MOL0     H 5529   5.845   3.030   5.524  0.3851  0.6307  0.5847
  782MOL0     H 5530   5.973   3.447   5.403 -0.7946 -0.9639 -0.7543
  782MOL0     H 5531   6.189   3.511   5.429 -0.9963  0.7783 -0.5891
  782MOL0     H 5532   6.540   3.327   5.890 -1.1812 -0.1301 -1.3344
  782MOL0     H 5533   6.753   3.436   5.997  1.8063 -3.9155 -0.7793
  782MOL0     H 5534   7.078   3.436   5.770 -2.2098 -0.1478 -1.4483
  782MOL0     H 5535   7.044   3.598   5.711  0.4743 -0.9827 -0.1384
  782MOL0     H 5536   7.165   3.683   5.932  4.5843  1.4352 -1.5685
  782MOL0     H 5537   7.188   3.521   5.979 -1.3168  1.7483  1.8843
  782MOL0     H 5538   7.301   3.515   5.726 -0.4296  0.4944 -0.1444
  782MOL0     H 5539   7.285   3.696   5.743 -1.4866  1.9520  2.4098
  782MOL0     H 5540   7.451   3.516   5.924 -0.1996  0.6975  2.2388
  782MOL0     H 5541   7.435   3.693   5.931  1.5956  2.4054 -1.7867
  782MOL0     H 5542   7.548   3.730   5.719  0.1690 -0.0464  0.7640
  782MOL0     H 5543   7.547   3.558   5.683  1.1104  1.1365 -1.8342
  782MOL0     H 5544   7.698   3.682   5.911  2.2243 -0.1467  0.2666
  782MOL0     H 5545   7.700   3.502   5.860 -0.1393 -0.0214 -1.8696
  782MOL0     H 5546   7.796   3.747   5.710  2.0797 -0.8646  0.8118
  782MOL0     H 5547   7.790   3.588   5.642  1.2909 -1.7007  0.8376
  782MOL0     H 5548   7.966   3.695   5.861  0.7780 -0.9460  0.7474
  782MOL0     H 5549   7.955   3.518   5.835 -0.5450 -0.3084 -1.1197
  782MOL0     H 5550   6.893   3.517   5.604 -0.2051 -3.6454 -1.3431
  782MOL0     H 5551   6.679   3.449   5.506  0.2094  1.1012  1.3659
  782MOL0     H 5552   6.277   3.168   5.669  0.0676  0.1945 -0.1439
  782MOL0     H 5553   6.043   3.082   5.621 -0.7431  0.3361 -1.1983
  782MOL0     H 5554   4.786   2.857   6.352  1.0398  0.8728  0.7048
  782MOL0     H 5555   4.618   3.012   6.339  2.0724 -0.9656 -1.8430
  782MOL0     H 5556   4.400   3.316   6.453 -0.6258  0.9712  0.6537
  782MOL0     H 5557   4.248   3.479   6.351 -0.1989  0.0201 -0.3480
  782MOL0     H 5558   4.077   3.471   6.135 -2.2352 -2.6068  0.0959
  782MOL0     H 5559   4.082   3.607   6.256 -0.3912  0.1822 -0.1686
  782MOL0     H 5560   3.939   3.642   6.059  3.4658  0.7818  2.6698
  782MOL0     H 5561   3.844   3.651   6.203 -2.0168 -1.5098 -0.6487
  782MOL0     H 5562   3.776   3.410   6.184  0.0529  4.1505  2.4148
  782MOL0     H 5563   3.863   3.402   6.026  0.2072 -1.1013  0.7206
  782MOL0     H 5564   3.625   3.571   6.091  0.6269 -0.3337  1.2298
  782MOL0     H 5565   3.720   3.615   5.954  3.5067  0.6909  1.6056
  782MOL0     H 5566   3.487   3.312   5.805 -2.1394  0.8417  1.8668
  782MOL0     H 5567   3.915   3.229   6.408  0.5430  2.7102  0.2044
  782MOL0     H 5568   4.080   2.923   6.527  0.2195 -0.4189  1.4026
  782MOL0     H 5569   4.058   3.032   6.660 -1.4462  0.4295 -0.1648
  782MOL0     H 5570   3.929   3.031   6.549 -0.8972  0.6822  2.4309
  783MOL0     O 5571   2.696   3.413   2.446 -0.0744  0.9480 -0.0232
  783MOL0     C 5572   2.666   3.359   2.335  0.5643  0.6035 -0.2385
  783MOL0     O 5573   2.721   3.392   2.215 -0.3062  0.0261  0.3291
  783MOL0     C 5574   2.843   3.461   2.218 -0.1509 -0.4052 -0.0745
  783MOL0     C 5575   2.866   3.549   2.112  1.2895 -0.7392 -0.7430
  783MOL0     C 5576   2.985   3.620   2.109  0.1414 -0.5457  0.0908
  783MOL0     C 5577   3.096   3.604   2.200  0.0397  0.9949 -0.6402
  783MOL0     O 5578   3.205   3.677   2.180 -0.2082 -0.0697 -0.5317
  783MOL0     C 5579   3.286   3.716   2.288  0.1500 -1.0473  0.1047
  783MOL0     C 5580   3.374   3.837   2.271  0.2190  0.7826  0.1594
  783MOL0     C 5581   3.449   3.867   2.401 -0.4360 -0.1310 -0.1163
  783MOL0     C 5582   3.513   4.005   2.387  0.5246 -0.3449 -0.0540
  783MOL0     C 5583   3.559   4.050   2.525 -0.4497 -0.0914  0.0753
  783MOL0     C 5584   3.600   4.194   2.538  0.0621  0.6353 -0.0046
  783MOL0     C 5585   3.703   4.239   2.429 -0.5845  0.4308  0.0142
  783MOL0     C 5586   3.752   4.378   2.450  1.3349 -0.2295  0.5686
  783MOL0     N 5587   3.865   4.420   2.366  0.6328  0.0940  0.4538
  783MOL0     C 5588   3.998   4.386   2.387 -0.2167 -0.1946  0.3173
  783MOL0     C 5589   4.065   4.464   2.308  0.5703  0.0697  0.1196
  783MOL0     C 5590   4.209   4.467   2.271 -0.6947 -0.8472 -0.6750
  783MOL0     C 5591   4.264   4.605   2.315 -0.1280  0.4897  0.4594
  783MOL0     C 5592   4.420   4.618   2.283  0.9967  0.3889 -0.8329
  783MOL0     C 5593   4.471   4.752   2.325 -0.0570  0.2310  0.5033
  783MOL0     O 5594   4.613   4.755   2.346 -0.1480  0.2684 -0.1865
  783MOL0     C 5595   4.704   4.757   2.238 -0.9120  0.4800 -0.2538
  783MOL0     C 5596   4.841   4.761   2.266 -0.4831 -0.6419  0.3251
  783MOL0     C 5597   4.926   4.778   2.159  1.0736 -0.3104 -0.0620
  783MOL0     C 5598   4.883   4.781   2.025 -0.1364  0.3445  0.6652
  783MOL0     C 5599   4.985   4.801   1.924 -0.0528  0.8958 -0.8509
  783MOL0     O 5600   5.092   4.874   1.968 -0.1976 -0.1732 -0.0213
  783MOL0     C 5601   5.208   4.887   1.901 -0.6468  0.0330  0.0587
  783MOL0     C 5602   5.263   4.778   1.829  0.2706 -0.1905  0.0649
  783MOL0     C 5603   5.382   4.795   1.766  0.3431 -0.2220 -0.0955
  783MOL0     C 5604   5.467   4.908   1.795 -0.4236 -0.8403  0.2977
  783MOL0     O 5605   5.605   4.913   1.752  0.9003  0.0231  0.3883
  783MOL0     C 5606   5.648   4.821   1.655  0.3764  0.3315  0.0181
  783MOL0     C 5607   5.783   4.873   1.597  0.5255  0.0692  0.0710
  783MOL0     C 5608   5.889   4.860   1.699 -0.2987 -0.0430 -1.4271
  783MOL0     C 5609   6.002   4.962   1.652 -0.7751 -0.1117 -0.9683
  783MOL0     C 5610   6.106   4.982   1.764  0.0295  0.0375 -0.1472
  783MOL0     C 5611   6.216   5.082   1.715 -0.2176 -0.9682  0.3703
  783MOL0     C 5612   6.327   5.110   1.815 -0.6127 -0.3288 -0.8776
  783MOL0     C 5613   6.447   5.178   1.755 -0.8762 -0.3865  0.2499
  783MOL0    Cl 5614   6.585   5.216   1.861  0.0768  0.3106 -0.0276
  783MOL0     C 5615   5.408   5.018   1.855 -0.0860 -0.5195 -1.1663
  783MOL0     C 5616   5.277   5.011   1.907  0.2820 -0.3090  1.1920
  783MOL0     O 5617   4.972   4.753   1.813 -0.1417 -0.5952 -0.1369
  783MOL0     C 5618   4.748   4.766   1.994 -0.6033  0.3160  0.1526
  783MOL0     C 5619   4.661   4.752   2.103  0.0616 -0.9699  0.2565
  783MOL0     N 5620   3.974   4.528   2.219 -0.1405  0.3024  0.6600
  783MOL0     N 5621   3.857   4.505   2.259  0.6840  0.2273  0.5112
  783MOL0     C 5622   3.074   3.505   2.298 -0.1597  0.6339 -0.3898
  783MOL0     C 5623   2.948   3.435   2.308  0.6761 -0.1283 -0.3534
  783MOL0     C 5624   2.572   3.243   2.336  0.0338  0.9647  0.6278
  783MOL0     C 5625   2.487   3.225   2.225  0.0387  0.2035 -0.3070
  783MOL0     C 5626   2.373   3.149   2.233  0.5174  0.6811  0.6597
  783MOL0     C 5627   2.352   3.071   2.347  0.9543  0.4563 -0.3167
  783MOL0     O 5628   2.240   2.987   2.364  0.7313 -0.4397  0.2955
  783MOL0     C 5629   2.150   2.953   2.260 -0.2071 -1.3213  0.2941
  783MOL0     C 5630   2.060   2.844   2.314  0.6999  0.3493 -0.4815
  783MOL0     C 5631   1.975   2.777   2.212 -0.2401  0.9266  0.1308
  783MOL0     C 5632   2.047   2.694   2.105  0.3654  0.2117 -0.3900
  783MOL0     C 5633   2.141   2.759   2.007  1.7072 -1.0816  0.6850
  783MOL0     C 5634   2.197   2.825   1.918  0.2199 -0.6120  0.7012
  783MOL0     C 5635   2.438   3.082   2.455 -0.7928 -0.4264 -0.5449
  783MOL0     C 5636   2.548   3.163   2.449  1.2680  0.2607 -0.8834
  783MOL0     C 5637   2.649   3.144   2.558 -0.3755 -0.0266  0.1534
  783MOL0     H 5638   2.787   3.562   2.038 -0.0380 -0.5112  0.6510
  783MOL0     H 5639   3.000   3.690   2.028  1.5750 -0.1011  0.7028
  783MOL0     H 5640   3.244   3.722   2.388  2.1729  1.0981  0.9113
  783MOL0     H 5641   3.360   3.637   2.305 -1.7327 -2.5826  1.6249
  783MOL0     H 5642   3.314   3.924   2.243 -0.5995  0.2618  0.2770
  783MOL0     H 5643   3.447   3.810   2.194  0.9902  0.7086  0.8978
  783MOL0     H 5644   3.520   3.788   2.428 -0.4021 -0.1882 -0.3694
  783MOL0     H 5645   3.374   3.887   2.479 -0.9343  1.8004 -1.0369
  783MOL0     H 5646   3.599   4.015   2.320 -0.2967  0.4741 -1.0106
  783MOL0     H 5647   3.433   4.073   2.358 -1.3902 -1.0840  3.0304
  783MOL0     H 5648   3.475   4.051   2.596  2.6622  2.2690  4.1636
  783MOL0     H 5649   3.635   3.980   2.561  0.3705 -1.4469 -3.7809
  783MOL0     H 5650   3.502   4.242   2.528  0.2555  0.7559 -1.5650
  783MOL0     H 5651   3.637   4.197   2.640 -0.5390 -4.1056  0.6075
  783MOL0     H 5652   3.654   4.224   2.332  1.4299  0.7654 -1.1203
  783MOL0     H 5653   3.794   4.178   2.426 -0.7512  0.2213 -1.7184
  783MOL0     H 5654   3.672   4.453   2.436  1.4459  0.0457  1.3727
  783MOL0     H 5655   3.769   4.388   2.558 -0.1086  0.1020  0.7942
  783MOL0     H 5656   4.033   4.311   2.458 -1.3656 -1.2399 -0.1802
  783MOL0     H 5657   4.259   4.393   2.334  0.8975 -0.1587 -1.0829
  783MOL0     H 5658   4.222   4.466   2.163  1.4715  0.0447 -0.4717
  783MOL0     H 5659   4.209   4.682   2.259 -1.2899 -0.2422  0.5741
  783MOL0     H 5660   4.235   4.627   2.418  0.4240  0.6461  0.5845
  783MOL0     H 5661   4.433   4.613   2.175 -1.0569  2.4374 -1.2355
  783MOL0     H 5662   4.467   4.537   2.339 -3.4306 -0.3081  2.4126
  783MOL0     H 5663   4.434   4.771   2.427  1.3348 -3.8551  1.9785
  783MOL0     H 5664   4.426   4.836   2.271  1.1888  1.4074  1.2238
  783MOL0     H 5665   4.877   4.758   2.369 -1.0327  0.9571  0.5962
  783MOL0     H 5666   5.029   4.794   2.188  1.1196  0.5384 -0.6662
  783MOL0     H 5667   5.225   4.677   1.821 -0.4921  0.1088 -0.1903
  783MOL0     H 5668   5.416   4.717   1.699 -3.9411 -0.0564 -2.9434
  783MOL0     H 5669   5.661   4.719   1.691 -1.5489  0.8295  2.3677
  783MOL0     H 5670   5.568   4.819   1.579 -2.3632 -0.2957  2.7004
  783MOL0     H 5671   5.793   4.821   1.501 -1.9321 -0.9298  0.2742
  783MOL0     H 5672   5.771   4.978   1.567  0.8532  0.4807  1.3627
  783MOL0     H 5673   5.848   4.889   1.796 -0.0100 -0.4562 -1.1807
  783MOL0     H 5674   5.937   4.762   1.699 -0.6864 -0.2687  0.7553
  783MOL0     H 5675   5.959   5.061   1.639 -1.9596 -0.2774  1.2689
  783MOL0     H 5676   6.058   4.935   1.562 -1.3753 -1.8051 -0.8741
  783MOL0     H 5677   6.154   4.886   1.787 -0.4875 -0.0667  0.5535
  783MOL0     H 5678   6.055   5.004   1.859 -2.1765 -3.2607 -0.3980
  783MOL0     H 5679   6.255   5.064   1.614  2.5020 -0.9406  1.3338
  783MOL0     H 5680   6.174   5.183   1.705  2.0543  0.0782  0.6302
  783MOL0     H 5681   6.361   5.014   1.854 -1.2398 -0.2499 -0.1099
  783MOL0     H 5682   6.293   5.177   1.894 -1.8462 -0.9337 -0.8720
  783MOL0     H 5683   6.482   5.109   1.678  1.1086  1.7292 -0.8637
  783MOL0     H 5684   6.423   5.269   1.698 -1.2975 -1.4715 -1.3757
  783MOL0     H 5685   5.470   5.107   1.858 -0.0946 -0.5073  1.7991
  783MOL0     H 5686   5.224   5.097   1.946 -0.5826 -0.0190 -0.5266
  783MOL0     H 5687   4.716   4.770   1.890 -0.2839 -0.5773  0.0062
  783MOL0     H 5688   4.555   4.753   2.082  0.0459 -2.6072  0.0887
  783MOL0     H 5689   3.156   3.478   2.365 -1.3356  0.9531  1.2575
  783MOL0     H 5690   2.938   3.364   2.389  2.4179  0.7684  0.7108
  783MOL0     H 5691   2.500   3.285   2.135  4.8557  2.7971  1.7374
  783MOL0     H 5692   2.306   3.137   2.149  1.4403  1.0380 -0.1454
  783MOL0     H 5693   2.202   2.922   2.169 -1.9641 -1.3974 -0.7299
  783MOL0     H 5694   2.088   3.039   2.231 -0.9669 -2.8520 -3.1768
  783MOL0     H 5695   1.991   2.894   2.382  1.1526  1.3256 -0.7192
  783MOL0     H 5696   2.115   2.770   2.373  0.7391 -1.3604 -2.5614
  783MOL0     H 5697   1.922   2.855   2.158 -1.2786 -0.3719 -0.7828
  783MOL0     H 5698   1.904   2.711   2.263  1.6275  0.5033  2.4014
  783MOL0     H 5699   2.097   2.613   2.159  1.2325 -0.4647 -2.1139
  783MOL0     H 5700   1.970   2.635   2.056 -1.2477  1.6966  0.2579
  783MOL0     H 5701   2.243   2.868   1.832 -2.3199  0.5803 -0.1559
  783MOL0     H 5702   2.430   3.012   2.538 -2.0450 -0.8135 -0.9635
  783MOL0     H 5703   2.602   3.171   2.653  0.0594 -0.6532  0.5562
  783MOL0     H 5704   2.686   3.041   2.558  1.4983  0.5993  0.0513
  783MOL0     H 5705   2.742   3.202   2.557 -1.4214  1.7112  0.3575
  784MOL0     O 5706   4.716   1.589  10.502 -0.1908  0.1941  0.2416
  784MOL0     C 5707   4.640   1.638  10.420 -0.2497  0.0123 -0.1773
  784MOL0     O 5708   4.683   1.737  10.334 -0.0680 -0.5696 -0.5077
  784MOL0     C 5709   4.806   1.797  10.344  0.1256  0.2335  0.6944
  784MOL0     C 5710   4.811   1.936  10.352 -0.1020  0.6393  0.9822
  784MOL0     C 5711   4.933   2.000  10.364 -0.7034  0.3114  0.0112
  784MOL0     C 5712   5.055   1.919  10.380 -0.6101 -0.4891 -0.8696
  784MOL0     O 5713   5.169   1.985  10.391 -0.4440 -0.3195 -0.1355
  784MOL0     C 5714   5.273   1.921  10.314 -0.9540  0.1879 -0.1659
  784MOL0     C 5715   5.369   2.033  10.253  0.5180  0.9503  0.4814
  784MOL0     C 5716   5.469   1.958  10.164 -0.3256  0.4142  0.6592
  784MOL0     C 5717   5.552   2.035  10.066  0.4928 -1.2177 -0.3244
  784MOL0     C 5718   5.465   2.070   9.946  0.0714 -0.2091  0.7717
  784MOL0     C 5719   5.538   2.132   9.823  0.2909 -0.7537 -0.1066
  784MOL0     C 5720   5.486   2.101   9.686  0.6952 -0.0587  0.0838
  784MOL0     C 5721   5.487   2.220   9.591 -0.8690  0.2303  0.1820
  784MOL0     N 5722   5.621   2.277   9.585  0.3955 -0.0902  0.3822
  784MOL0     C 5723   5.732   2.215   9.536 -0.3460 -0.9906  1.4282
  784MOL0     C 5724   5.830   2.310   9.537 -0.6359  0.1444 -0.1563
  784MOL0     C 5725   5.969   2.293   9.478  0.0149  0.3189 -0.1077
  784MOL0     C 5726   6.048   2.420   9.449 -0.5474 -0.5227 -0.8614
  784MOL0     C 5727   5.972   2.514   9.357 -0.1918 -0.5952 -0.1901
  784MOL0     C 5728   6.055   2.605   9.272 -0.0187 -0.2764  0.2593
  784MOL0     O 5729   6.112   2.699   9.358 -0.5387 -1.0067 -0.4941
  784MOL0     C 5730   6.238   2.741   9.316  0.1209  0.4802 -0.1754
  784MOL0     C 5731   6.342   2.656   9.358  0.2836 -0.8797 -0.2897
  784MOL0     C 5732   6.473   2.693   9.328 -0.1035 -0.1631  0.2127
  784MOL0     C 5733   6.491   2.803   9.239  0.3376 -0.3035 -0.4285
  784MOL0     C 5734   6.624   2.862   9.215  0.6686 -0.7840  1.1081
  784MOL0     O 5735   6.725   2.786   9.235  0.0070  0.0857 -0.1634
  784MOL0     C 5736   6.846   2.821   9.186  0.5788 -0.8583  0.0015
  784MOL0     C 5737   6.938   2.866   9.283  0.3148  0.6684  0.6336
  784MOL0     C 5738   7.057   2.930   9.239  0.0878  0.1525 -0.2018
  784MOL0     C 5739   7.091   2.937   9.108  1.1151  0.0342 -0.5806
  784MOL0     O 5740   7.212   2.979   9.054  0.6520 -0.0076 -0.3732
  784MOL0     C 5741   7.266   3.100   9.117 -0.0331  0.7433  0.2482
  784MOL0     C 5742   7.372   3.165   9.032 -1.5302  0.1218 -0.5597
  784MOL0     C 5743   7.486   3.084   8.984  0.1097 -0.4024  0.4056
  784MOL0     C 5744   7.594   3.164   8.914 -0.0821 -0.2805  0.5355
  784MOL0     C 5745   7.694   3.054   8.874  0.0139 -0.3187 -0.5262
  784MOL0     C 5746   7.803   3.120   8.787  0.4053 -0.4347  0.0380
  784MOL0     C 5747   7.892   3.025   8.704  0.8420  0.0334 -0.5369
  784MOL0     C 5748   7.952   3.091   8.587 -0.1522 -0.7208 -0.7268
  784MOL0    Cl 5749   8.094   2.993   8.534 -0.1961 -0.2960 -0.0771
  784MOL0     C 5750   6.993   2.900   9.017  1.3933 -0.2079 -0.2161
  784MOL0     C 5751   6.877   2.833   9.051 -0.3604 -0.8430  1.3477
  784MOL0     O 5752   6.630   2.973   9.156 -0.0726  0.6846  0.9340
  784MOL0     C 5753   6.387   2.876   9.191 -0.3304  0.2105  0.3188
  784MOL0     C 5754   6.253   2.846   9.229 -0.3296 -0.5506 -1.4532
  784MOL0     N 5755   5.783   2.427   9.586 -0.2554 -0.5233  0.1408
  784MOL0     N 5756   5.660   2.404   9.608 -0.1932  0.3894 -0.2504
  784MOL0     C 5757   5.044   1.778  10.391  0.4074 -0.2154  0.6668
  784MOL0     C 5758   4.922   1.722  10.371  0.1184 -0.2918 -0.7004
  784MOL0     C 5759   4.494   1.585  10.410  0.2581 -0.8127  0.0848
  784MOL0     C 5760   4.412   1.670  10.344  0.2409  0.0908  0.1709
  784MOL0     C 5761   4.278   1.634  10.326 -0.0575 -1.0551  0.1689
  784MOL0     C 5762   4.234   1.508  10.353  0.1223 -0.1013  0.1511
  784MOL0     O 5763   4.102   1.488  10.316 -0.2263 -0.5653  0.4859
  784MOL0     C 5764   4.028   1.390  10.385  0.8429  0.3529  0.2881
  784MOL0     C 5765   3.879   1.400  10.345 -0.5080 -0.9167 -0.7789
  784MOL0     C 5766   3.807   1.523  10.385  0.3200 -0.1636 -0.3258
  784MOL0     C 5767   3.653   1.501  10.391  0.3127  0.3973 -0.4747
  784MOL0     C 5768   3.603   1.391  10.483 -0.1803 -0.6193 -0.6030
  784MOL0     C 5769   3.575   1.308  10.565  0.2870 -0.0893 -0.6013
  784MOL0     C 5770   4.316   1.415  10.420 -0.1620  0.2095 -0.3119
  784MOL0     C 5771   4.448   1.455  10.448  0.8065 -0.4452  0.1411
  784MOL0     C 5772   4.534   1.347  10.502 -0.3503  0.7978  0.4113
  784MOL0     H 5773   4.725   2.000  10.331  0.2554  0.5953 -0.7672
  784MOL0     H 5774   4.942   2.108  10.369 -3.0140  0.6436 -1.4260
  784MOL0     H 5775   5.322   1.843  10.372  2.0658  1.8244 -0.3089
  784MOL0     H 5776   5.232   1.878  10.222 -1.5916 -2.6880  1.3499
  784MOL0     H 5777   5.417   2.098  10.327 -0.4419  2.1660  0.0776
  784MOL0     H 5778   5.302   2.095  10.192 -1.5649 -1.0573  0.5845
  784MOL0     H 5779   5.414   1.880  10.112 -0.3745  0.1564  1.0918
  784MOL0     H 5780   5.542   1.903  10.224 -0.1943  0.2659  0.3674
  784MOL0     H 5781   5.582   2.130  10.110 -2.6446  0.5172 -1.5776
  784MOL0     H 5782   5.637   1.972  10.037 -0.0915 -1.9399 -0.5033
  784MOL0     H 5783   5.435   1.967   9.922 -1.3016  0.4671 -0.5193
  784MOL0     H 5784   5.372   2.123   9.964 -1.6756 -1.0082 -4.2481
  784MOL0     H 5785   5.509   2.236   9.836 -3.3262 -1.6457 -0.0019
  784MOL0     H 5786   5.646   2.113   9.827  0.9781  2.6842  1.2837
  784MOL0     H 5787   5.381   2.072   9.684  0.7430 -0.1922 -0.7472
  784MOL0     H 5788   5.539   2.013   9.647  1.8817  0.7425 -0.1761
  784MOL0     H 5789   5.460   2.197   9.488  0.8355  4.0430 -1.3206
  784MOL0     H 5790   5.423   2.296   9.636  1.1938  1.4277  1.2534
  784MOL0     H 5791   5.745   2.112   9.504  2.1104 -0.5281  0.7600
  784MOL0     H 5792   6.031   2.241   9.552  1.0307  1.7132  0.0551
  784MOL0     H 5793   5.958   2.231   9.388 -0.4826  0.4626 -0.1513
  784MOL0     H 5794   6.063   2.475   9.542 -3.6339  0.1311 -0.6286
  784MOL0     H 5795   6.146   2.393   9.409  0.1937  0.1642  0.4239
  784MOL0     H 5796   5.903   2.580   9.412  1.7496 -0.5569  2.3888
  784MOL0     H 5797   5.916   2.444   9.294  1.5673 -1.4055 -0.9010
  784MOL0     H 5798   5.992   2.656   9.199 -2.1383 -1.1894  1.3646
  784MOL0     H 5799   6.133   2.541   9.229 -0.6294 -1.5245  0.9470
  784MOL0     H 5800   6.341   2.575   9.430 -1.1890 -2.2521 -1.7598
  784MOL0     H 5801   6.562   2.645   9.365  0.5986  0.6367 -0.3997
  784MOL0     H 5802   6.914   2.859   9.388 -1.2435  0.9663  0.3262
  784MOL0     H 5803   7.135   2.949   9.311 -0.1010 -1.1805  0.3872
  784MOL0     H 5804   7.185   3.173   9.128 -0.6297  0.2962 -1.0478
  784MOL0     H 5805   7.303   3.082   9.218  0.5545 -1.4465 -0.3043
  784MOL0     H 5806   7.320   3.201   8.942  0.6231  0.2756 -1.8113
  784MOL0     H 5807   7.403   3.256   9.084 -1.9550  0.3107 -0.6285
  784MOL0     H 5808   7.525   3.033   9.072 -1.4493  1.1772  2.1133
  784MOL0     H 5809   7.445   3.015   8.910  0.9504 -0.4386 -0.0344
  784MOL0     H 5810   7.646   3.233   8.981  1.3831  0.6328 -1.4419
  784MOL0     H 5811   7.549   3.207   8.824  1.0952 -2.7351 -1.3548
  784MOL0     H 5812   7.637   2.978   8.819  2.4066 -1.1535 -2.0024
  784MOL0     H 5813   7.744   3.026   8.967 -1.0716  0.9024  0.4640
  784MOL0     H 5814   7.755   3.190   8.718 -0.6451  0.5848  1.7455
  784MOL0     H 5815   7.862   3.173   8.862  0.9475 -2.8027  1.3717
  784MOL0     H 5816   7.834   2.941   8.664  2.3909  0.0075 -2.8845
  784MOL0     H 5817   7.976   2.998   8.769  1.3563 -0.5690 -1.4320
  784MOL0     H 5818   7.884   3.101   8.502 -0.5441 -3.2433 -0.7861
  784MOL0     H 5819   7.979   3.194   8.613  0.0413 -0.2453 -2.6350
  784MOL0     H 5820   7.006   2.930   8.914  0.1314 -0.9609 -0.6202
  784MOL0     H 5821   6.806   2.814   8.970  3.0860  0.1584 -2.2428
  784MOL0     H 5822   6.393   2.962   9.125 -1.7199 -0.3907 -0.6161
  784MOL0     H 5823   6.173   2.905   9.186 -0.3139  0.0281 -0.7071
  784MOL0     H 5824   5.138   1.725  10.404  0.7110 -0.6296 -2.4252
  784MOL0     H 5825   4.924   1.615  10.390  1.2647  0.3684  4.5601
  784MOL0     H 5826   4.437   1.772  10.315  1.9940 -0.2487  0.3883
  784MOL0     H 5827   4.199   1.697  10.285 -1.0042 -0.6322  2.4794
  784MOL0     H 5828   4.027   1.392  10.494 -0.6499 -0.2508  0.3160
  784MOL0     H 5829   4.071   1.299  10.344 -0.0950  0.5147 -1.1199
  784MOL0     H 5830   3.834   1.309  10.385  0.4433 -0.3083  1.8548
  784MOL0     H 5831   3.887   1.395  10.236 -1.1731  0.3033 -0.8952
  784MOL0     H 5832   3.813   1.598  10.306 -2.7266 -3.1760 -3.7989
  784MOL0     H 5833   3.839   1.561  10.483 -0.3438 -0.1162 -0.1246
  784MOL0     H 5834   3.600   1.595  10.408 -1.2813 -0.7319  1.3000
  784MOL0     H 5835   3.626   1.477  10.288 -0.2741 -0.1489 -0.2054
  784MOL0     H 5836   3.541   1.242  10.642 -1.1378  0.7228 -0.4863
  784MOL0     H 5837   4.275   1.315  10.427 -3.4431  1.5364  1.3626
  784MOL0     H 5838   4.597   1.315  10.418  0.7143  4.6170 -0.4727
  784MOL0     H 5839   4.590   1.391  10.585 -1.8503 -2.2825  3.2747
  784MOL0     H 5840   4.484   1.263  10.551  0.3639  0.0674 -0.0751
  785MOL0     O 5841   6.816  10.231   1.464  0.0463  0.2164  0.0663
  785MOL0     C 5842   6.758  10.322   1.400  0.0957  0.6559 -0.8302
  785MOL0     O 5843   6.803  10.397   1.298  0.2336 -0.3877  0.5764
  785MOL0     C 5844   6.922  10.379   1.225  0.4006 -0.1419 -0.9237
  785MOL0     C 5845   7.015  10.275   1.235 -0.4317 -0.6572  0.2352
  785MOL0     C 5846   7.130  10.266   1.149 -0.8929  0.1223  0.0921
  785MOL0     C 5847   7.157  10.373   1.058 -1.1586  0.6066 -0.8351
  785MOL0     O 5848   7.262  10.374   0.966  0.6638 -0.6383 -0.4720
  785MOL0     C 5849   7.333  10.252   0.946 -0.2413  0.0116  0.3958
  785MOL0     C 5850   7.445  10.275   0.848 -0.1607 -0.2353  0.9489
  785MOL0     C 5851   7.389  10.289   0.705 -0.0557 -0.2281 -0.3953
  785MOL0     C 5852   7.498  10.277   0.594 -0.7166 -0.4832 -0.1809
  785MOL0     C 5853   7.413  10.289   0.453 -0.0227 -0.7416  0.1792
  785MOL0     C 5854   7.499  10.312   0.322 -0.4066  0.1926  0.0577
  785MOL0     C 5855   7.612  10.223   0.303  0.8333 -0.8435  0.0753
  785MOL0     C 5856   7.563  10.088   0.255  0.4120  0.5151 -0.1751
  785MOL0     N 5857   7.675   9.998   0.238 -0.1394 -0.2688 -0.4874
  785MOL0     C 5858   7.755   9.951   0.339  0.7489 -0.1212 -0.4976
  785MOL0     C 5859   7.865   9.906   0.286 -0.5187 -0.5149 -1.2135
  785MOL0     C 5860   7.986   9.847   0.365  0.4958 -0.0742  0.5497
  785MOL0     C 5861   8.092   9.951   0.399 -0.9149 -0.5439  0.3949
  785MOL0     C 5862   8.047  10.033   0.511 -0.1757 -0.2924 -0.6591
  785MOL0     C 5863   8.145  10.152   0.546  0.5901  0.3564  0.2249
  785MOL0     O 5864   8.240  10.104   0.633 -0.6305 -0.4241  0.2174
  785MOL0     C 5865   8.358  10.180   0.629  0.2200  0.6505 -0.6611
  785MOL0     C 5866   8.370  10.323   0.623  0.3828 -0.5437  0.2619
  785MOL0     C 5867   8.492  10.381   0.633  0.1912 -1.1191 -0.2687
  785MOL0     C 5868   8.608  10.296   0.654  0.1398  0.0006  0.0111
  785MOL0     C 5869   8.736  10.361   0.667 -0.9054 -1.2266  0.5717
  785MOL0     O 5870   8.733  10.505   0.673 -0.1480  0.5017 -0.1287
  785MOL0     C 5871   8.854  10.575   0.680  0.0920 -0.9507 -0.9995
  785MOL0     C 5872   8.967  10.531   0.758 -0.1142 -0.0629 -1.1517
  785MOL0     C 5873   9.090  10.611   0.743  0.7085 -0.1850 -0.7817
  785MOL0     C 5874   9.106  10.721   0.667 -0.0101 -0.8973  0.1862
  785MOL0     O 5875   9.221  10.794   0.668 -0.1035  0.1846 -0.2882
  785MOL0     C 5876   9.316  10.806   0.773 -0.2492 -0.4542 -0.1568
  785MOL0     C 5877   9.405  10.924   0.743 -0.2237  0.2743  0.7331
  785MOL0     C 5878   9.502  10.899   0.628 -0.5424 -0.3010 -0.3471
  785MOL0     C 5879   9.646  10.851   0.667  0.1759 -0.3877  0.1670
  785MOL0     C 5880   9.715  10.825   0.534  0.0331  0.0342  0.3383
  785MOL0     C 5881   9.871  10.819   0.534 -0.0328  0.3933  0.3455
  785MOL0     C 5882   9.909  10.715   0.638 -0.1283 -0.1052  0.2924
  785MOL0     C 5883  10.064  10.697   0.659  0.7677  0.8807  0.6386
  785MOL0    Cl 5884  10.082  10.538   0.736  0.3220  0.0305  0.6096
  785MOL0     C 5885   8.984  10.757   0.594  0.5148  0.2614  0.3763
  785MOL0     C 5886   8.861  10.686   0.597  0.3677 -0.4291 -0.2652
  785MOL0     O 5887   8.840  10.293   0.670 -0.1586  0.3682  0.8836
  785MOL0     C 5888   8.595  10.163   0.669 -0.4357  0.0551 -0.9434
  785MOL0     C 5889   8.468  10.104   0.664  0.6002 -0.1187 -0.0030
  785MOL0     N 5890   7.848   9.915   0.146  0.3237  0.2215  0.7864
  785MOL0     N 5891   7.737   9.971   0.122  0.3228 -0.0577  0.5043
  785MOL0     C 5892   7.066  10.484   1.051 -0.9855  0.2052  0.2591
  785MOL0     C 5893   6.957  10.480   1.136 -0.0282  0.0104  0.0512
  785MOL0     C 5894   6.621  10.352   1.458 -0.2150  0.0774 -0.8838
  785MOL0     C 5895   6.588  10.305   1.586 -0.1579  0.0099 -0.6826
  785MOL0     C 5896   6.465  10.340   1.649  0.6071  0.2974 -0.4655
  785MOL0     C 5897   6.365  10.407   1.585 -0.3663 -0.2279  0.6880
  785MOL0     O 5898   6.251  10.450   1.656  0.4478 -0.3649 -0.2203
  785MOL0     C 5899   6.249  10.477   1.793 -0.1173 -0.2747 -0.0552
  785MOL0     C 5900   6.365  10.576   1.820 -0.0356  0.3648  0.1373
  785MOL0     C 5901   6.365  10.698   1.729 -0.4018 -0.5032 -0.0449
  785MOL0     C 5902   6.490  10.783   1.742  0.1794  0.2028  0.5012
  785MOL0     C 5903   6.604  10.718   1.687 -0.2936 -0.2166  0.0185
  785MOL0     C 5904   6.700  10.651   1.653 -0.8423 -0.4022 -1.0661
  785MOL0     C 5905   6.393  10.456   1.462 -0.3664  0.1694  0.3032
  785MOL0     C 5906   6.521  10.427   1.397 -0.9757  0.2174  0.0207
  785MOL0     C 5907   6.530  10.470   1.256 -1.1838 -0.4309 -0.2089
  785MOL0     H 5908   7.003  10.184   1.292  2.2935 -1.2293  0.0681
  785MOL0     H 5909   7.193  10.178   1.144  2.4608  2.1569  2.2379
  785MOL0     H 5910   7.382  10.211   1.035 -0.0349 -3.2449 -1.0702
  785MOL0     H 5911   7.276  10.167   0.906  2.0721 -1.4628  0.0869
  785MOL0     H 5912   7.514  10.191   0.858 -0.0054  0.0652  2.7100
  785MOL0     H 5913   7.508  10.364   0.858  1.8920 -1.3429 -1.3022
  785MOL0     H 5914   7.357  10.394   0.708 -3.0024 -1.0313 -0.6590
  785MOL0     H 5915   7.310  10.215   0.688  1.2812 -1.5338 -1.1529
  785MOL0     H 5916   7.565  10.363   0.605  1.0927 -1.7358 -0.9157
  785MOL0     H 5917   7.562  10.189   0.600 -0.6421 -0.4088  0.1640
  785MOL0     H 5918   7.347  10.203   0.438 -1.1459 -0.3910  2.5097
  785MOL0     H 5919   7.348  10.377   0.468 -2.6383 -2.5560  0.1877
  785MOL0     H 5920   7.442  10.314   0.228  0.5754  6.1831 -0.8386
  785MOL0     H 5921   7.546  10.410   0.338  0.6018 -0.3494  0.4389
  785MOL0     H 5922   7.682  10.221   0.388  0.0984 -1.8371  0.6739
  785MOL0     H 5923   7.678  10.261   0.224  1.3543 -0.7462  0.5461
  785MOL0     H 5924   7.511  10.038   0.337  3.0797 -4.0624 -0.9030
  785MOL0     H 5925   7.518  10.092   0.156 -0.1018 -2.4685 -0.1371
  785MOL0     H 5926   7.735   9.945   0.446 -1.1162  0.0946 -0.8031
  785MOL0     H 5927   7.953   9.799   0.458  2.6394 -0.3115  1.2417
  785MOL0     H 5928   8.025   9.762   0.308  0.0726  0.9714 -1.3785
  785MOL0     H 5929   8.190   9.906   0.416  0.6853  2.1896 -0.8845
  785MOL0     H 5930   8.114  10.020   0.318 -0.7604  2.0551  2.5084
  785MOL0     H 5931   8.053   9.971   0.601 -2.0012 -1.9608 -1.5959
  785MOL0     H 5932   7.941  10.061   0.507 -0.3260 -0.8991 -1.1722
  785MOL0     H 5933   8.083  10.233   0.587 -0.3216  0.4885 -1.3465
  785MOL0     H 5934   8.186  10.188   0.451 -0.0043 -0.6854 -0.4336
  785MOL0     H 5935   8.280  10.381   0.605 -0.1332 -0.4787  2.7014
  785MOL0     H 5936   8.498  10.488   0.644  1.4358 -1.3585  1.9968
  785MOL0     H 5937   8.966  10.440   0.818 -3.9791 -1.2489 -2.7061
  785MOL0     H 5938   9.169  10.580   0.810  1.4889  2.2394 -0.4670
  785MOL0     H 5939   9.274  10.832   0.871 -0.7539  1.9037 -0.9545
  785MOL0     H 5940   9.378  10.716   0.783 -1.5288 -1.6161 -2.1917
  785MOL0     H 5941   9.335  11.004   0.718 -4.3366 -2.1029  3.3991
  785MOL0     H 5942   9.456  10.953   0.835  1.2914  1.5534 -0.4731
  785MOL0     H 5943   9.465  10.831   0.551  1.3201 -1.3533 -0.3534
  785MOL0     H 5944   9.521  10.995   0.579 -0.3223 -1.5653 -2.9095
  785MOL0     H 5945   9.646  10.759   0.725 -0.6632  0.0605  0.9136
  785MOL0     H 5946   9.703  10.931   0.717  0.2282 -0.4295  0.1733
  785MOL0     H 5947   9.686  10.912   0.474 -1.6272 -1.3674 -0.9960
  785MOL0     H 5948   9.663  10.739   0.491 -2.6957  0.5335  2.3529
  785MOL0     H 5949   9.901  10.801   0.431 -0.7665  1.9594 -0.1702
  785MOL0     H 5950   9.916  10.915   0.562 -2.0762  1.0884  1.4469
  785MOL0     H 5951   9.874  10.622   0.593 -1.0207 -0.1542  1.0614
  785MOL0     H 5952   9.865  10.725   0.738 -2.9254 -0.7055 -0.7848
  785MOL0     H 5953  10.110  10.717   0.562 -2.4559  0.2420 -1.1524
  785MOL0     H 5954  10.110  10.763   0.734  0.2246  3.2920 -1.0163
  785MOL0     H 5955   8.985  10.847   0.533 -1.3989 -0.3499 -0.6269
  785MOL0     H 5956   8.772  10.704   0.537  0.6252  0.5636 -0.3536
  785MOL0     H 5957   8.685  10.107   0.694 -1.3308 -1.1131 -0.2842
  785MOL0     H 5958   8.456  10.002   0.697 -0.9935 -0.1704 -0.6590
  785MOL0     H 5959   7.073  10.574   0.991 -0.4742  1.3999  2.0269
  785MOL0     H 5960   6.884  10.561   1.127  1.8690  1.9362  1.1454
  785MOL0     H 5961   6.672  10.270   1.645 -0.1079 -0.2266 -0.8962
  785MOL0     H 5962   6.459  10.310   1.754  1.2851  0.1331 -0.4663
  785MOL0     H 5963   6.256  10.394   1.863  0.1624  1.1267  1.6647
  785MOL0     H 5964   6.155  10.529   1.816 -0.2788 -0.7096  0.2762
  785MOL0     H 5965   6.463  10.527   1.820 -0.8036 -1.2564  1.7143
  785MOL0     H 5966   6.363  10.607   1.924  2.6172 -0.3510  0.4683
  785MOL0     H 5967   6.288  10.757   1.778  0.9689  1.3329 -0.0022
  785MOL0     H 5968   6.341  10.679   1.625  0.5296 -0.8409 -0.2113
  785MOL0     H 5969   6.475  10.878   1.689  4.3641  0.0548 -1.3148
  785MOL0     H 5970   6.505  10.821   1.844  1.1510 -1.2555  0.9263
  785MOL0     H 5971   6.760  10.568   1.620 -0.4100  1.0554 -4.4134
  785MOL0     H 5972   6.323  10.519   1.408  0.4199  1.1849  0.4529
  785MOL0     H 5973   6.610  10.545   1.255 -1.6146  0.3030  3.6226
  785MOL0     H 5974   6.554  10.388   1.188 -1.0972  0.1452 -0.8855
  785MOL0     H 5975   6.437  10.507   1.212 -0.4565  1.7282 -0.0614
  786MOL0     O 5976   6.001   4.069   8.627  0.4547 -0.5014  0.1359
  786MOL0     C 5977   5.932   4.129   8.710 -0.8936 -0.1678 -0.4075
  786MOL0     O 5978   5.988   4.199   8.814  0.7552  0.2970 -0.4487
  786MOL0     C 5979   6.124   4.199   8.829  0.0005 -0.4172 -0.0815
  786MOL0     C 5980   6.189   4.310   8.777  0.4897  0.8763 -0.2945
  786MOL0     C 5981   6.326   4.337   8.799  0.6268  0.0560  0.0579
  786MOL0     C 5982   6.398   4.238   8.862  0.0876  0.3057  0.3054
  786MOL0     O 5983   6.531   4.254   8.887 -0.0818  0.6135 -0.9596
  786MOL0     C 5984   6.606   4.335   8.790  0.5705  0.5430 -0.1365
  786MOL0     C 5985   6.744   4.266   8.787 -0.0351  0.0681  0.4023
  786MOL0     C 5986   6.866   4.360   8.762  0.7493 -0.5667  0.9028
  786MOL0     C 5987   6.988   4.284   8.715  0.2791 -0.1256  0.1099
  786MOL0     C 5988   7.104   4.382   8.710  0.1630  0.0568 -0.3907
  786MOL0     C 5989   7.250   4.321   8.690  0.9628  0.0943 -0.2111
  786MOL0     C 5990   7.359   4.418   8.735  0.0653  0.5969  0.5560
  786MOL0     C 5991   7.503   4.377   8.694  0.4406 -0.0202 -0.0628
  786MOL0     N 5992   7.548   4.259   8.775 -0.4530  0.3837 -0.4727
  786MOL0     C 5993   7.636   4.265   8.886 -0.5211 -0.3584 -0.0184
  786MOL0     C 5994   7.661   4.136   8.917  1.7906 -0.5020 -0.2549
  786MOL0     C 5995   7.758   4.085   9.022 -0.7688 -0.8502  0.2408
  786MOL0     C 5996   7.881   4.027   8.944  0.3389  0.0330 -0.1404
  786MOL0     C 5997   7.975   4.122   8.861  0.6815 -0.3872  0.5282
  786MOL0     C 5998   8.098   4.059   8.811 -0.8176  0.2126  0.3996
  786MOL0     O 5999   8.188   4.159   8.775 -1.7701 -0.4559  0.5565
  786MOL0     C 6000   8.320   4.134   8.776  0.7260  0.2236 -0.2199
  786MOL0     C 6001   8.379   4.004   8.787  0.5170 -0.0592 -0.7133
  786MOL0     C 6002   8.519   3.981   8.797  1.3512 -0.2966  0.2681
  786MOL0     C 6003   8.600   4.096   8.789 -0.4525 -0.0546 -0.0047
  786MOL0     C 6004   8.744   4.080   8.773 -0.5600 -0.0902  0.1937
  786MOL0     O 6005   8.807   4.184   8.716 -0.7609 -0.0638 -0.3910
  786MOL0     C 6006   8.943   4.194   8.673  1.3309  0.4563  0.2005
  786MOL0     C 6007   8.973   4.282   8.567 -0.3656  0.3788 -0.5048
  786MOL0     C 6008   9.098   4.297   8.520  0.0273 -0.6145 -0.1306
  786MOL0     C 6009   9.201   4.217   8.570 -0.4700 -0.9272  0.7315
  786MOL0     O 6010   9.325   4.256   8.513 -0.1256  0.3602  0.3283
  786MOL0     C 6011   9.436   4.156   8.532  0.5091 -0.5941  0.1730
  786MOL0     C 6012   9.556   4.181   8.434  0.5343 -0.6859 -0.8579
  786MOL0     C 6013   9.668   4.260   8.510  0.2291  0.6426  0.0529
  786MOL0     C 6014   9.789   4.297   8.419  0.4647  0.9353 -0.2896
  786MOL0     C 6015   9.894   4.360   8.515  0.1753 -0.2968  0.7657
  786MOL0     C 6016  10.011   4.418   8.426 -0.2083  0.2560 -0.0490
  786MOL0     C 6017  10.088   4.520   8.512 -0.8458 -0.0012  0.5247
  786MOL0     C 6018  10.220   4.567   8.446  0.3916  0.4460 -0.8595
  786MOL0    Cl 6019  10.325   4.412   8.451 -0.0515 -0.0362  0.1369
  786MOL0     C 6020   9.177   4.120   8.667  0.5754  0.5736 -0.3888
  786MOL0     C 6021   9.046   4.117   8.731 -0.0182 -0.1453  0.0113
  786MOL0     O 6022   8.793   3.978   8.813 -0.4759 -0.1057 -0.5945
  786MOL0     C 6023   8.541   4.227   8.783 -0.2483 -0.2786 -0.8058
  786MOL0     C 6024   8.403   4.241   8.765  0.2819  0.0937  0.5315
  786MOL0     N 6025   7.591   4.052   8.826  0.8532 -0.4513 -0.1419
  786MOL0     N 6026   7.518   4.125   8.750  0.0370 -0.0019 -0.4129
  786MOL0     C 6027   6.330   4.122   8.912  0.3709 -0.6794 -0.2695
  786MOL0     C 6028   6.193   4.094   8.893 -1.0191  0.0314 -0.4105
  786MOL0     C 6029   5.791   4.153   8.678 -0.3436 -0.2974 -0.5392
  786MOL0     C 6030   5.738   4.278   8.706  0.1297 -0.1319 -0.0653
  786MOL0     C 6031   5.603   4.304   8.683  0.0966 -0.0364  0.9704
  786MOL0     C 6032   5.516   4.212   8.625 -0.0150  0.1704 -0.3395
  786MOL0     O 6033   5.388   4.251   8.618  0.6919 -0.9450 -0.5573
  786MOL0     C 6034   5.287   4.145   8.627 -0.2878 -0.2877  0.8036
  786MOL0     C 6035   5.141   4.200   8.610 -0.6029  0.8263 -0.4671
  786MOL0     C 6036   5.023   4.097   8.620  0.4343  0.0323  1.0970
  786MOL0     C 6037   4.889   4.157   8.667 -0.1254  0.3193  0.2341
  786MOL0     C 6038   4.825   4.246   8.564  0.1741 -0.1405  0.0737
  786MOL0     C 6039   4.789   4.325   8.479 -0.5164  0.1111 -0.0268
  786MOL0     C 6040   5.567   4.084   8.595 -0.3551 -0.1220  0.2487
  786MOL0     C 6041   5.699   4.055   8.620 -1.2210  0.1996 -0.3670
  786MOL0     C 6042   5.741   3.909   8.576  0.2257 -0.4258 -0.2121
  786MOL0     H 6043   6.137   4.394   8.733  1.4356  1.2347 -0.7546
  786MOL0     H 6044   6.355   4.436   8.765 -0.7505  0.2038 -0.7369
  786MOL0     H 6045   6.564   4.332   8.689  1.8943 -1.2052 -0.6905
  786MOL0     H 6046   6.606   4.439   8.821 -0.5250  1.6515 -3.4286
  786MOL0     H 6047   6.740   4.193   8.705  4.5541 -0.2508  0.1979
  786MOL0     H 6048   6.761   4.215   8.883 -0.8162  2.6057  1.9776
  786MOL0     H 6049   6.903   4.410   8.852  1.9145 -2.0363  1.2852
  786MOL0     H 6050   6.829   4.429   8.686 -3.8945 -1.9173  1.6045
  786MOL0     H 6051   7.020   4.206   8.785  0.9586 -2.2236 -2.3359
  786MOL0     H 6052   6.991   4.218   8.627 -0.1487 -1.1972  0.8697
  786MOL0     H 6053   7.083   4.443   8.622  0.5641  1.7965  0.6532
  786MOL0     H 6054   7.099   4.445   8.800  1.5128 -0.5366  0.1221
  786MOL0     H 6055   7.256   4.229   8.749 -2.3529 -0.6998 -0.9002
  786MOL0     H 6056   7.257   4.293   8.585 -1.0555  0.4919 -0.5001
  786MOL0     H 6057   7.350   4.432   8.843  0.6855 -0.6314  0.7825
  786MOL0     H 6058   7.339   4.511   8.682  1.3630  1.4996  1.5931
  786MOL0     H 6059   7.508   4.346   8.589 -1.2267  1.3601 -0.5998
  786MOL0     H 6060   7.574   4.460   8.692 -1.5866  1.7857 -1.1464
  786MOL0     H 6061   7.687   4.351   8.930 -1.0898  0.8365 -1.5899
  786MOL0     H 6062   7.796   4.166   9.084 -0.3551  0.3395 -1.4838
  786MOL0     H 6063   7.699   4.019   9.087 -0.4579  0.1632  1.5858
  786MOL0     H 6064   7.938   3.963   9.012  2.0922  0.5149 -1.0834
  786MOL0     H 6065   7.851   3.954   8.868  1.4593  0.0117 -0.5846
  786MOL0     H 6066   8.004   4.202   8.929 -0.0612 -0.2520  0.6943
  786MOL0     H 6067   7.920   4.160   8.774 -1.4170 -1.3547  1.3426
  786MOL0     H 6068   8.089   3.992   8.724  1.7299  1.1170 -0.6422
  786MOL0     H 6069   8.135   4.008   8.900 -1.8542 -0.3102  0.5448
  786MOL0     H 6070   8.320   3.913   8.790  2.1138 -1.2083 -1.9063
  786MOL0     H 6071   8.556   3.880   8.809  0.0422 -1.4435 -3.6188
  786MOL0     H 6072   8.895   4.338   8.516  0.9031 -1.0959 -4.5418
  786MOL0     H 6073   9.128   4.352   8.431  0.6240 -0.4853  0.1404
  786MOL0     H 6074   9.474   4.159   8.635  1.3428  0.6141 -0.1465
  786MOL0     H 6075   9.381   4.066   8.503 -0.3414 -0.0841  0.1854
  786MOL0     H 6076   9.604   4.090   8.398  0.4608 -1.3588  0.6784
  786MOL0     H 6077   9.526   4.236   8.344  0.0272 -1.6071 -1.2586
  786MOL0     H 6078   9.625   4.348   8.559  0.7611  1.7815 -1.4470
  786MOL0     H 6079   9.705   4.194   8.589  1.1489  1.2827  0.1696
  786MOL0     H 6080   9.769   4.366   8.336  2.4513 -0.7394 -2.3096
  786MOL0     H 6081   9.829   4.210   8.366 -1.2378  0.5153 -0.9402
  786MOL0     H 6082   9.917   4.280   8.586  1.3471  0.3870  1.1824
  786MOL0     H 6083   9.840   4.438   8.570 -1.2995 -1.7398  1.4816
  786MOL0     H 6084  10.078   4.339   8.392 -1.6075  0.1553 -2.8690
  786MOL0     H 6085   9.966   4.463   8.337 -2.8889  1.5112  1.7888
  786MOL0     H 6086  10.106   4.477   8.611 -1.6162 -0.5733  0.4198
  786MOL0     H 6087  10.030   4.613   8.521 -0.5774  0.1292  0.9481
  786MOL0     H 6088  10.210   4.610   8.346 -3.6615  1.8189 -0.0455
  786MOL0     H 6089  10.262   4.655   8.496  0.0568  0.3438 -0.3934
  786MOL0     H 6090   9.264   4.062   8.697  2.7255  3.8410  0.2123
  786MOL0     H 6091   9.036   4.046   8.812 -0.2916 -0.3574 -0.2085
  786MOL0     H 6092   8.605   4.314   8.789  1.8816 -1.7644 -1.0406
  786MOL0     H 6093   8.349   4.336   8.764  1.2188  0.6495 -1.1133
  786MOL0     H 6094   6.394   4.050   8.962  0.3287 -0.7821 -0.3601
  786MOL0     H 6095   6.154   4.000   8.931  1.3954 -0.7160  0.3825
  786MOL0     H 6096   5.802   4.359   8.739  1.3785 -0.7379 -0.9191
  786MOL0     H 6097   5.560   4.396   8.719 -0.2437 -0.7836  2.5758
  786MOL0     H 6098   5.305   4.082   8.715 -2.7096 -3.6417 -0.9322
  786MOL0     H 6099   5.302   4.078   8.543  0.4643  0.1644  0.5634
  786MOL0     H 6100   5.142   4.256   8.517  0.8628 -1.5561 -2.0010
  786MOL0     H 6101   5.125   4.278   8.685 -2.9146 -0.9124  0.9710
  786MOL0     H 6102   5.050   4.020   8.693 -3.0458 -2.3924  0.0802
  786MOL0     H 6103   5.011   4.045   8.524 -2.0969 -0.1653  1.4477
  786MOL0     H 6104   4.824   4.074   8.696 -2.6247  1.6233 -1.2841
  786MOL0     H 6105   4.915   4.210   8.759  3.2465 -2.5192  1.0907
  786MOL0     H 6106   4.740   4.379   8.401 -1.7190 -3.1673 -1.7159
  786MOL0     H 6107   5.506   3.998   8.572 -0.9472 -0.0278  1.3954
  786MOL0     H 6108   5.670   3.869   8.503 -2.3016  0.6905  1.4862
  786MOL0     H 6109   5.843   3.908   8.536  0.2016  1.2715 -0.3918
  786MOL0     H 6110   5.736   3.845   8.664 -0.4401  0.9677  0.7984
  787MOL0     O 6111   9.824   0.481   4.418 -1.3777  0.8260 -0.5614
  787MOL0     C 6112   9.850   0.589   4.375  0.3835  0.2279 -0.3508
  787MOL0     O 6113   9.922   0.611   4.262  0.0472 -0.1523 -0.6079
  787MOL0     C 6114   9.981   0.510   4.190  0.1939 -0.1537 -0.9353
  787MOL0     C 6115  10.120   0.494   4.196  0.0279  0.2203 -0.1267
  787MOL0     C 6116  10.182   0.396   4.126  0.3027 -0.0318  0.7271
  787MOL0     C 6117  10.113   0.294   4.055  0.8859  0.7532  0.7082
  787MOL0     O 6118  10.179   0.187   3.994 -0.5698 -0.4790  0.4726
  787MOL0     C 6119  10.323   0.179   3.988 -0.6785  0.0844  0.3622
  787MOL0     C 6120  10.375   0.220   3.846  0.0373  0.1194  0.1296
  787MOL0     C 6121  10.314   0.347   3.794  0.1825 -0.4688  0.4279
  787MOL0     C 6122  10.387   0.405   3.669 -0.1061  0.5497  0.6892
  787MOL0     C 6123  10.363   0.557   3.653 -0.2274 -0.5589  0.5311
  787MOL0     C 6124  10.223   0.595   3.624  0.0112  0.3171 -0.1280
  787MOL0     C 6125  10.209   0.747   3.577 -0.0579 -0.3471 -0.3372
  787MOL0     C 6126  10.230   0.766   3.427 -0.9995  0.1637  0.1369
  787MOL0     N 6127  10.366   0.738   3.395  0.1559  0.1463  0.0950
  787MOL0     C 6128  10.473   0.819   3.419 -0.5965  0.7074  0.7723
  787MOL0     C 6129  10.586   0.752   3.366  1.0401  0.5442 -1.5976
  787MOL0     C 6130  10.732   0.795   3.347 -0.0324 -0.8630 -0.0611
  787MOL0     C 6131  10.745   0.902   3.235  0.5395  0.1904 -0.0201
  787MOL0     C 6132  10.713   0.843   3.096 -0.7821  0.7024  0.5231
  787MOL0     C 6133  10.802   0.718   3.063 -0.3747 -1.0049  0.1473
  787MOL0     O 6134  10.936   0.758   3.058 -0.6301 -0.2990  1.3050
  787MOL0     C 6135  11.040   0.665   3.050  0.9071  0.2403 -0.5927
  787MOL0     C 6136  11.021   0.524   3.045 -0.0810  1.0970 -0.3916
  787MOL0     C 6137  11.127   0.431   3.019 -0.4784 -0.3357 -0.5552
  787MOL0     C 6138  11.260   0.477   3.010 -0.0609  0.0979  0.2585
  787MOL0     C 6139  11.373   0.383   3.019  0.0342  0.2258  0.1005
  787MOL0     O 6140  11.378   0.279   3.109  0.1554 -0.4060  0.0380
  787MOL0     C 6141  11.481   0.196   3.102  0.0375 -0.9154  0.1549
  787MOL0     C 6142  11.446   0.066   3.106  0.3429 -0.8128  0.0568
  787MOL0     C 6143  11.538  -0.036   3.080 -0.3822 -0.0613  0.0309
  787MOL0     C 6144  11.675  -0.014   3.071  0.2774 -0.7616  0.1677
  787MOL0     O 6145  11.759  -0.118   3.065  0.6250  1.0017 -0.2511
  787MOL0     C 6146  11.890  -0.094   3.057 -0.9464  0.9001  0.2671
  787MOL0     C 6147  11.952  -0.230   3.051 -0.7213 -0.4483  0.6125
  787MOL0     C 6148  11.936  -0.319   3.171 -0.0088  1.0545  0.6506
  787MOL0     C 6149  11.980  -0.457   3.129  0.6311  0.1587 -0.4529
  787MOL0     C 6150  12.059  -0.527   3.242 -0.9626 -0.2959  0.1262
  787MOL0     C 6151  12.204  -0.492   3.243  0.5826  0.5115 -0.4968
  787MOL0     C 6152  12.284  -0.557   3.357  0.2639 -0.0059 -1.1677
  787MOL0     C 6153  12.321  -0.694   3.311  0.8676 -0.9156 -0.4979
  787MOL0    Cl 6154  12.413  -0.770   3.437 -0.1541  0.3803  0.3674
  787MOL0     C 6155  11.708   0.120   3.073  0.6402  0.3601 -0.0600
  787MOL0     C 6156  11.616   0.218   3.078  0.4141 -0.7095  0.4469
  787MOL0     O 6157  11.467   0.410   2.938  0.4482 -0.0510 -0.4686
  787MOL0     C 6158  11.273   0.615   3.015 -0.7740 -0.6127 -0.0753
  787MOL0     C 6159  11.170   0.704   3.034  0.4589 -0.1658 -0.7865
  787MOL0     N 6160  10.535   0.635   3.303  0.5682  0.1584 -0.7598
  787MOL0     N 6161  10.410   0.637   3.312  0.3326 -0.1907 -0.8595
  787MOL0     C 6162   9.968   0.305   4.058  0.3870  0.0034 -0.7703
  787MOL0     C 6163   9.909   0.416   4.116  0.1340  0.5844 -0.6514
  787MOL0     C 6164   9.803   0.707   4.454 -0.3167  0.1538 -0.8028
  787MOL0     C 6165   9.727   0.683   4.569 -0.5567  0.4610 -0.4259
  787MOL0     C 6166   9.698   0.787   4.661  0.6686  0.3495 -0.9786
  787MOL0     C 6167   9.744   0.916   4.638  0.6041  0.4329  0.1134
  787MOL0     O 6168   9.699   1.002   4.737  0.3008  0.3429 -0.4116
  787MOL0     C 6169   9.759   1.137   4.733  0.7995 -0.3759 -0.3024
  787MOL0     C 6170   9.720   1.225   4.849  0.4149 -0.4770 -0.7563
  787MOL0     C 6171   9.694   1.154   4.986 -0.6745  0.3831  0.0938
  787MOL0     C 6172   9.674   1.249   5.104  0.0603 -0.2227  0.5444
  787MOL0     C 6173   9.555   1.340   5.099 -0.2534  0.0866 -0.7045
  787MOL0     C 6174   9.474   1.425   5.111  0.3061  0.4010  1.2025
  787MOL0     C 6175   9.814   0.938   4.520 -0.9546  0.7993 -0.1468
  787MOL0     C 6176   9.839   0.842   4.426  0.1582 -0.6743  0.2797
  787MOL0     C 6177   9.929   0.886   4.305  0.0270  1.1962 -0.1062
  787MOL0     H 6178  10.188   0.563   4.245  2.0495 -1.6680 -0.1607
  787MOL0     H 6179  10.289   0.406   4.115  0.2201 -0.4800 -0.6112
  787MOL0     H 6180  10.383   0.229   4.065  1.2567 -0.1247 -0.9381
  787MOL0     H 6181  10.353   0.076   4.004 -1.7000 -0.3785 -0.5783
  787MOL0     H 6182  10.363   0.135   3.778 -2.8747 -0.2128  0.9309
  787MOL0     H 6183  10.483   0.235   3.861  0.3786 -2.2721  0.4494
  787MOL0     H 6184  10.317   0.408   3.885  1.3857 -1.4963  1.1001
  787MOL0     H 6185  10.212   0.321   3.763  0.5728  0.1370 -1.5268
  787MOL0     H 6186  10.496   0.397   3.664 -0.2389 -1.4373  0.2000
  787MOL0     H 6187  10.354   0.342   3.586  1.6653  0.8434 -0.2959
  787MOL0     H 6188  10.391   0.607   3.746 -2.1167 -1.3005  1.5517
  787MOL0     H 6189  10.427   0.576   3.566 -0.5621 -2.3204 -0.1453
  787MOL0     H 6190  10.191   0.531   3.542 -0.9090 -1.4871  1.5504
  787MOL0     H 6191  10.159   0.582   3.711 -0.0182 -1.0328 -0.3280
  787MOL0     H 6192  10.281   0.802   3.639  0.6248 -1.9513  0.3504
  787MOL0     H 6193  10.105   0.775   3.598 -0.9835 -1.9731 -2.3876
  787MOL0     H 6194  10.175   0.691   3.369  0.8128 -1.1593  0.0294
  787MOL0     H 6195  10.218   0.870   3.394 -1.9945 -0.4561 -1.6074
  787MOL0     H 6196  10.473   0.912   3.475 -1.0499  0.8436  0.5542
  787MOL0     H 6197  10.771   0.832   3.442 -0.9038 -1.7528  0.6676
  787MOL0     H 6198  10.796   0.707   3.336  2.5273  0.8359  0.2612
  787MOL0     H 6199  10.674   0.983   3.255  1.0532  0.2275  1.8351
  787MOL0     H 6200  10.845   0.945   3.228  0.4143  0.1856 -2.7608
  787MOL0     H 6201  10.736   0.912   3.015  0.9468 -2.8076 -2.2396
  787MOL0     H 6202  10.608   0.814   3.101 -0.6505  0.3476  1.5022
  787MOL0     H 6203  10.771   0.676   2.967 -2.8315  1.3383 -0.2027
  787MOL0     H 6204  10.785   0.638   3.136  0.3336  1.0416  2.6829
  787MOL0     H 6205  10.919   0.490   3.057  0.9991 -2.2207  0.2352
  787MOL0     H 6206  11.094   0.329   3.006  0.4830 -0.5550 -1.4102
  787MOL0     H 6207  11.341   0.043   3.117  0.0516 -0.7446 -2.1655
  787MOL0     H 6208  11.499  -0.137   3.084 -3.9253  1.1239 -0.3687
  787MOL0     H 6209  11.913  -0.040   2.965 -0.6651 -1.6782 -1.2877
  787MOL0     H 6210  11.920  -0.034   3.143 -0.8213  0.6466  0.4038
  787MOL0     H 6211  11.914  -0.278   2.960  1.6304 -0.7099 -0.3173
  787MOL0     H 6212  12.058  -0.217   3.029 -0.9964 -0.4873 -0.8302
  787MOL0     H 6213  12.002  -0.283   3.250  2.1324  2.0334 -1.4659
  787MOL0     H 6214  11.836  -0.327   3.214  0.3134 -2.1389  1.1016
  787MOL0     H 6215  12.049  -0.448   3.046  1.4893  0.5906  0.2880
  787MOL0     H 6216  11.892  -0.520   3.112  1.3406 -0.7963 -0.6847
  787MOL0     H 6217  12.052  -0.635   3.226  1.5382 -0.6180  0.7165
  787MOL0     H 6218  12.010  -0.500   3.336 -0.6589 -1.5598  0.6677
  787MOL0     H 6219  12.255  -0.533   3.155 -0.5825 -0.5556 -0.6993
  787MOL0     H 6220  12.218  -0.384   3.232  0.6190  0.6283  0.5652
  787MOL0     H 6221  12.222  -0.566   3.446  1.2704 -1.6750 -0.5939
  787MOL0     H 6222  12.371  -0.493   3.373 -0.1282  0.1673  0.4378
  787MOL0     H 6223  12.231  -0.749   3.280 -0.1445  0.2453  0.3125
  787MOL0     H 6224  12.379  -0.685   3.219  0.9477 -0.4844 -0.4049
  787MOL0     H 6225  11.810   0.154   3.060  0.7885 -0.2551 -0.5513
  787MOL0     H 6226  11.662   0.315   3.064 -4.2409  1.5498 -1.0169
  787MOL0     H 6227  11.368   0.666   3.015 -0.7714 -0.5946  1.0621
  787MOL0     H 6228  11.193   0.809   3.046  2.1600 -0.7365  1.7721
  787MOL0     H 6229   9.895   0.233   4.021 -2.9130  2.7365 -0.0982
  787MOL0     H 6230   9.801   0.425   4.110  0.0740  3.2258  2.0200
  787MOL0     H 6231   9.697   0.581   4.593 -1.4195  0.7826 -0.1007
  787MOL0     H 6232   9.648   0.768   4.755 -0.9699  1.0313 -1.6871
  787MOL0     H 6233   9.719   1.193   4.648 -0.7826  0.3152  0.8644
  787MOL0     H 6234   9.868   1.134   4.738  0.7582 -2.5278  0.7734
  787MOL0     H 6235   9.640   1.292   4.820  0.3493 -0.0994  0.2774
  787MOL0     H 6236   9.806   1.290   4.865  1.8502 -2.5295  0.4734
  787MOL0     H 6237   9.774   1.081   5.004 -0.8408 -1.5299 -5.1504
  787MOL0     H 6238   9.605   1.090   4.981 -1.5111  1.5097  0.2372
  787MOL0     H 6239   9.653   1.188   5.192 -1.1276 -0.4417  0.1378
  787MOL0     H 6240   9.771   1.300   5.108  0.0049 -0.2056  1.9279
  787MOL0     H 6241   9.397   1.497   5.128 -2.8765 -2.6405  0.8075
  787MOL0     H 6242   9.854   1.038   4.506 -2.4253  1.4291 -0.0846
  787MOL0     H 6243  10.017   0.822   4.309 -0.8975 -0.1401 -0.2473
  787MOL0     H 6244   9.879   0.871   4.209  0.8036  0.9941 -0.4842
  787MOL0     H 6245   9.954   0.992   4.319  1.8060  0.8563 -0.5266
  788MOL0     O 6246   6.090   7.320   6.841 -0.6127 -0.6154 -0.3033
  788MOL0     C 6247   5.982   7.376   6.834  0.2448 -0.4429  0.0766
  788MOL0     O 6248   5.934   7.469   6.744 -1.0371 -0.1989  0.3068
  788MOL0     C 6249   6.016   7.517   6.651 -0.6972  0.2702 -0.1528
  788MOL0     C 6250   5.965   7.555   6.529  0.0922 -0.1255  0.3965
  788MOL0     C 6251   6.053   7.606   6.430 -0.1521  0.4456  0.9732
  788MOL0     C 6252   6.187   7.639   6.455 -0.1261  0.0187 -0.9360
  788MOL0     O 6253   6.272   7.691   6.364 -0.2316 -0.1677  0.0439
  788MOL0     C 6254   6.225   7.805   6.297 -0.7337 -0.1984 -0.1637
  788MOL0     C 6255   6.341   7.871   6.223 -0.4571 -0.8805  0.5221
  788MOL0     C 6256   6.406   7.775   6.118  0.3601 -0.0228 -0.5858
  788MOL0     C 6257   6.510   7.857   6.040  0.1771 -0.2396  0.1598
  788MOL0     C 6258   6.626   7.761   6.000  0.8557  0.0898  0.2840
  788MOL0     C 6259   6.740   7.826   5.927 -0.9581 -0.2488 -0.3727
  788MOL0     C 6260   6.865   7.742   5.885  0.6384 -1.2297 -0.3242
  788MOL0     C 6261   6.965   7.796   5.766 -0.0178 -1.1942 -0.2907
  788MOL0     N 6262   6.986   7.944   5.778  0.2890  0.0328 -0.4549
  788MOL0     C 6263   7.072   8.010   5.859 -0.2651 -0.5746 -0.4239
  788MOL0     C 6264   7.059   8.142   5.841 -0.2449  0.0705  0.1216
  788MOL0     C 6265   7.125   8.245   5.941  0.0002  0.0010 -0.3193
  788MOL0     C 6266   7.273   8.264   5.913  0.1960  0.1797 -0.2369
  788MOL0     C 6267   7.286   8.325   5.770  0.1611  0.1715  0.2685
  788MOL0     C 6268   7.424   8.349   5.721 -0.5409  0.3958  0.1775
  788MOL0     O 6269   7.503   8.423   5.810  0.2300  0.3809  0.0969
  788MOL0     C 6270   7.630   8.453   5.769  0.1590  1.4349  0.2549
  788MOL0     C 6271   7.653   8.520   5.650  0.4251  0.9405 -1.0541
  788MOL0     C 6272   7.777   8.563   5.617 -0.2711 -0.3821 -0.1623
  788MOL0     C 6273   7.885   8.526   5.698 -0.0198 -0.0466 -0.7108
  788MOL0     C 6274   8.021   8.568   5.673 -0.6253 -0.2009 -0.4341
  788MOL0     O 6275   8.052   8.598   5.543  0.2690 -0.6126  0.4494
  788MOL0     C 6276   8.179   8.646   5.524 -0.0272  0.3830 -0.2482
  788MOL0     C 6277   8.268   8.560   5.459  0.0220 -0.7574 -0.3039
  788MOL0     C 6278   8.399   8.605   5.437 -0.0174  0.3574 -0.1948
  788MOL0     C 6279   8.447   8.725   5.493  0.1562 -0.3668  0.1832
  788MOL0     O 6280   8.583   8.771   5.481  0.5532  0.1525  0.6996
  788MOL0     C 6281   8.665   8.691   5.385 -0.3738  0.2024 -0.4992
  788MOL0     C 6282   8.813   8.734   5.403 -0.7810 -0.1093 -0.0195
  788MOL0     C 6283   8.916   8.640   5.360 -0.6169  0.7412 -0.0609
  788MOL0     C 6284   9.058   8.692   5.385 -0.0325 -0.5224  0.1564
  788MOL0     C 6285   9.159   8.597   5.319  0.6190 -0.4051  0.0405
  788MOL0     C 6286   9.308   8.609   5.375  0.3279 -1.0513 -0.4837
  788MOL0     C 6287   9.406   8.503   5.316  0.9023 -0.1198  0.1739
  788MOL0     C 6288   9.542   8.510   5.383 -0.1102  0.5563  0.0009
  788MOL0    Cl 6289   9.609   8.681   5.367 -0.6410  0.1743 -0.2001
  788MOL0     C 6290   8.357   8.808   5.564  0.2882 -0.3948 -0.3031
  788MOL0     C 6291   8.229   8.766   5.579 -0.4009  0.2875 -1.5079
  788MOL0     O 6292   8.096   8.585   5.771  0.2139 -0.5925 -0.2664
  788MOL0     C 6293   7.861   8.454   5.823 -0.7614 -1.0706  0.0582
  788MOL0     C 6294   7.733   8.422   5.853 -0.3013  0.6414  0.0738
  788MOL0     N 6295   6.964   8.158   5.737 -0.8257 -0.4122 -0.3846
  788MOL0     N 6296   6.919   8.041   5.715 -0.8550  0.9875 -0.0730
  788MOL0     C 6297   6.232   7.624   6.587 -0.7583 -0.0748  0.2019
  788MOL0     C 6298   6.155   7.552   6.683  0.5110 -0.9266  0.2865
  788MOL0     C 6299   5.893   7.337   6.954  0.4884 -0.0436  0.2348
  788MOL0     C 6300   5.952   7.304   7.075 -0.2251 -0.5722 -0.6383
  788MOL0     C 6301   5.875   7.259   7.185 -0.7886  0.2205 -0.3969
  788MOL0     C 6302   5.737   7.256   7.174 -0.3073  0.4474 -0.6871
  788MOL0     O 6303   5.648   7.217   7.272 -0.1629  0.5392 -0.1796
  788MOL0     C 6304   5.704   7.154   7.392 -0.0993 -0.4287  0.9291
  788MOL0     C 6305   5.591   7.137   7.488 -0.9851 -0.1552  0.7295
  788MOL0     C 6306   5.487   7.030   7.454  0.0692  0.0431  0.4392
  788MOL0     C 6307   5.364   7.030   7.541 -0.8677 -0.0511  0.1279
  788MOL0     C 6308   5.389   7.014   7.687  0.1721 -1.1246 -0.3367
  788MOL0     C 6309   5.411   7.000   7.809  0.3879  0.7109 -0.4808
  788MOL0     C 6310   5.677   7.293   7.054  0.1879  0.1788 -0.9497
  788MOL0     C 6311   5.752   7.329   6.941 -0.3693 -0.6572 -0.1381
  788MOL0     C 6312   5.683   7.338   6.808  0.4584  0.4643  0.3291
  788MOL0     H 6313   5.858   7.545   6.512  0.2883 -0.7052 -0.5472
  788MOL0     H 6314   6.030   7.639   6.329  3.8437  1.3530  0.1602
  788MOL0     H 6315   6.141   7.775   6.235  0.4242 -1.3215 -1.2434
  788MOL0     H 6316   6.178   7.880   6.362 -1.4979 -0.2319 -0.6694
  788MOL0     H 6317   6.408   7.897   6.305 -2.1851  0.9787  1.4358
  788MOL0     H 6318   6.302   7.960   6.173  0.4942 -2.2399 -2.9231
  788MOL0     H 6319   6.333   7.743   6.043 -0.7284 -0.6452  0.6988
  788MOL0     H 6320   6.448   7.695   6.180 -0.7802  0.1133  0.4127
  788MOL0     H 6321   6.472   7.903   5.948 -1.6436 -2.5732 -0.3422
  788MOL0     H 6322   6.551   7.941   6.097 -1.7546  0.9734 -0.1537
  788MOL0     H 6323   6.661   7.712   6.092 -0.5075 -0.9596  0.2851
  788MOL0     H 6324   6.583   7.677   5.945  2.6974 -1.4436  1.0365
  788MOL0     H 6325   6.701   7.865   5.833 -0.0465  0.6985 -0.3799
  788MOL0     H 6326   6.778   7.907   5.990  2.2483 -0.8681 -1.3569
  788MOL0     H 6327   6.833   7.643   5.851  3.0683 -1.8855 -0.8560
  788MOL0     H 6328   6.916   7.717   5.978 -0.6596 -1.8868  0.2455
  788MOL0     H 6329   7.060   7.742   5.778  0.6267  0.5012  5.5754
  788MOL0     H 6330   6.912   7.779   5.673 -1.5818  2.5196 -0.2454
  788MOL0     H 6331   7.149   7.971   5.924  0.4306 -1.8900 -1.9686
  788MOL0     H 6332   7.082   8.345   5.936 -0.4068 -0.2112 -1.3793
  788MOL0     H 6333   7.108   8.195   6.037  1.9206 -1.0021 -0.4430
  788MOL0     H 6334   7.312   8.332   5.990  1.7259 -1.6955  0.7193
  788MOL0     H 6335   7.323   8.167   5.917 -2.9786 -1.7688 -2.9884
  788MOL0     H 6336   7.234   8.421   5.763 -1.4697 -0.7368 -1.0708
  788MOL0     H 6337   7.240   8.259   5.695 -1.0023  2.5820 -1.2845
  788MOL0     H 6338   7.412   8.403   5.626 -3.7717 -1.7675 -0.8023
  788MOL0     H 6339   7.476   8.256   5.697  3.1650  1.7367  2.1108
  788MOL0     H 6340   7.565   8.544   5.591 -0.1172  0.4669 -0.4572
  788MOL0     H 6341   7.794   8.630   5.533  3.5221  1.8529  2.0987
  788MOL0     H 6342   8.237   8.462   5.426  0.2698 -0.4811 -1.3949
  788MOL0     H 6343   8.464   8.540   5.379  0.0964  1.2234 -1.0598
  788MOL0     H 6344   8.653   8.583   5.395 -2.5009  0.3963 -0.4836
  788MOL0     H 6345   8.637   8.718   5.282 -0.5360 -2.3319 -1.1775
  788MOL0     H 6346   8.832   8.828   5.350  1.9304 -1.1755 -1.1273
  788MOL0     H 6347   8.821   8.749   5.511 -0.5017 -2.1457  0.2684
  788MOL0     H 6348   8.892   8.550   5.417  0.9770  0.2103 -0.1978
  788MOL0     H 6349   8.901   8.613   5.255  2.9977 -2.8778  0.1319
  788MOL0     H 6350   9.085   8.696   5.491  0.9592 -0.8053 -0.0737
  788MOL0     H 6351   9.078   8.794   5.351 -3.5327  0.8551  1.7917
  788MOL0     H 6352   9.161   8.594   5.210 -0.2371 -1.8269  0.0314
  788MOL0     H 6353   9.124   8.498   5.350 -0.2192 -0.9578 -2.4305
  788MOL0     H 6354   9.345   8.711   5.357  2.8762 -1.7150  0.5307
  788MOL0     H 6355   9.301   8.595   5.483 -2.1400 -1.7453 -0.6808
  788MOL0     H 6356   9.416   8.516   5.208 -1.5749 -0.2342 -0.1339
  788MOL0     H 6357   9.364   8.403   5.334 -0.4409 -0.1651 -2.7382
  788MOL0     H 6358   9.536   8.479   5.488 -2.2186 -0.2275 -0.2943
  788MOL0     H 6359   9.608   8.442   5.330  1.1811  1.1381  0.8027
  788MOL0     H 6360   8.391   8.908   5.588 -1.8902  0.5007 -0.6393
  788MOL0     H 6361   8.173   8.829   5.648  0.6277  0.8825 -1.1934
  788MOL0     H 6362   7.951   8.435   5.882 -0.7801 -0.8483  0.1600
  788MOL0     H 6363   7.708   8.368   5.943 -0.8877 -2.5519 -1.8517
  788MOL0     H 6364   6.336   7.650   6.601 -0.7765 -0.8932  2.0595
  788MOL0     H 6365   6.195   7.536   6.782 -0.9614 -2.0740  0.7347
  788MOL0     H 6366   6.057   7.321   7.097 -0.6848  0.3671  1.0257
  788MOL0     H 6367   5.927   7.237   7.278  2.3782 -2.9915 -2.6419
  788MOL0     H 6368   5.779   7.224   7.430 -0.3295  0.3214  0.0444
  788MOL0     H 6369   5.743   7.055   7.368 -0.0144 -0.1683 -0.0348
  788MOL0     H 6370   5.544   7.235   7.496 -1.9362 -0.6956  2.2699
  788MOL0     H 6371   5.626   7.107   7.587  0.1582 -4.6838 -0.7770
  788MOL0     H 6372   5.538   6.934   7.447  0.6202  0.3587  0.0300
  788MOL0     H 6373   5.448   7.052   7.354 -0.8888  0.0627  0.8064
  788MOL0     H 6374   5.305   7.121   7.529 -2.7952 -1.2367  0.2942
  788MOL0     H 6375   5.303   6.947   7.507 -0.8184  0.5140 -1.4089
  788MOL0     H 6376   5.434   6.981   7.912  0.6267 -1.9789 -0.9616
  788MOL0     H 6377   5.576   7.259   7.040 -0.4209  0.5793  1.9468
  788MOL0     H 6378   5.694   7.246   6.750  0.1907  0.7039 -0.1040
  788MOL0     H 6379   5.577   7.362   6.822  0.4968  2.9880 -2.6998
  788MOL0     H 6380   5.724   7.417   6.745  4.1469 -0.9326  0.7461
  789MOL0     O 6381   2.891   2.717  10.396  0.3696 -0.3478 -0.0464
  789MOL0     C 6382   2.826   2.724  10.286  0.2999  0.5724 -0.3109
  789MOL0     O 6383   2.885   2.742  10.164  0.0216  0.0546 -0.5664
  789MOL0     C 6384   3.021   2.716  10.150  0.1653  0.0512  0.7492
  789MOL0     C 6385   3.127   2.741  10.239 -0.8189  0.0076  0.1328
  789MOL0     C 6386   3.260   2.735  10.194  0.1066 -0.3002 -0.5860
  789MOL0     C 6387   3.288   2.674  10.072  0.2441 -0.1422 -0.5188
  789MOL0     O 6388   3.412   2.646  10.030 -0.3222  0.5943 -0.3980
  789MOL0     C 6389   3.512   2.641  10.127  0.2130 -0.0426  0.2157
  789MOL0     C 6390   3.640   2.575  10.076  0.2937  0.5060 -0.3113
  789MOL0     C 6391   3.725   2.677   9.991  0.2150  0.2265 -0.3598
  789MOL0     C 6392   3.867   2.624   9.976 -0.7086 -0.1447 -0.6252
  789MOL0     C 6393   3.952   2.702   9.876  0.2354  0.1082  0.7456
  789MOL0     C 6394   3.910   2.665   9.737 -0.7931  0.5952  0.0690
  789MOL0     C 6395   3.947   2.766   9.623 -0.2021 -0.6906  0.2723
  789MOL0     C 6396   3.903   2.699   9.493  0.1401  0.4731  0.1464
  789MOL0     N 6397   3.989   2.577   9.465 -0.2197 -0.8425  0.2999
  789MOL0     C 6398   4.125   2.595   9.458 -0.4342  0.3757  0.1219
  789MOL0     C 6399   4.169   2.475   9.440  0.2125  0.3088  0.4916
  789MOL0     C 6400   4.306   2.427   9.435  0.3877 -0.4126  0.3127
  789MOL0     C 6401   4.386   2.493   9.312  0.3679 -0.6688 -0.1272
  789MOL0     C 6402   4.530   2.462   9.303 -0.6421 -0.4121 -0.6244
  789MOL0     C 6403   4.583   2.444   9.166 -0.4387 -0.3568 -0.0473
  789MOL0     O 6404   4.575   2.572   9.089  0.5415 -0.0653  0.4550
  789MOL0     C 6405   4.669   2.668   9.108  0.2432  0.3658  1.1512
  789MOL0     C 6406   4.776   2.653   9.193 -0.2802  0.4152  0.3840
  789MOL0     C 6407   4.883   2.738   9.192  0.0632  0.5595  0.4116
  789MOL0     C 6408   4.895   2.856   9.111 -0.1749  0.3095  1.2421
  789MOL0     C 6409   5.008   2.950   9.123 -0.4852  0.4320 -0.4340
  789MOL0     O 6410   4.992   3.069   9.064  0.4289 -0.1981  0.3850
  789MOL0     C 6411   5.053   3.181   9.105 -0.0636 -0.0076  0.3975
  789MOL0     C 6412   5.140   3.243   9.023  0.2261 -0.0532  0.3071
  789MOL0     C 6413   5.207   3.353   9.065 -1.3314  0.1505  1.9673
  789MOL0     C 6414   5.190   3.406   9.186  0.5738 -0.0524 -0.1452
  789MOL0     O 6415   5.278   3.505   9.216 -0.5091  0.1129  0.2381
  789MOL0     C 6416   5.249   3.602   9.313 -0.1347  0.3767 -0.2519
  789MOL0     C 6417   5.359   3.702   9.299  0.0670  0.1087 -0.5466
  789MOL0     C 6418   5.315   3.847   9.345 -0.2622  0.7943  0.5158
  789MOL0     C 6419   5.270   3.863   9.492 -0.3942 -0.5368  0.5594
  789MOL0     C 6420   5.287   4.016   9.531 -0.1500 -1.0299  0.6228
  789MOL0     C 6421   5.198   4.102   9.450  0.1755 -0.0181 -0.7789
  789MOL0     C 6422   5.059   4.090   9.502  1.2934 -0.7457 -0.4057
  789MOL0     C 6423   4.954   4.077   9.385  0.2363 -0.0128 -1.4151
  789MOL0    Cl 6424   4.781   4.074   9.435  0.1861  0.3779  0.2512
  789MOL0     C 6425   5.104   3.346   9.279 -0.1083 -0.0320 -0.2860
  789MOL0     C 6426   5.028   3.238   9.238  0.2229  0.2451  0.2460
  789MOL0     O 6427   5.103   2.916   9.190  0.2753 -0.8530  0.8759
  789MOL0     C 6428   4.778   2.872   9.017 -0.2003 -0.1251 -0.7637
  789MOL0     C 6429   4.672   2.778   9.023 -0.1316 -0.8588  0.7161
  789MOL0     N 6430   4.071   2.378   9.456 -0.3625 -0.9514  0.7138
  789MOL0     N 6431   3.960   2.445   9.463 -0.1129 -0.7480  0.8658
  789MOL0     C 6432   3.189   2.649   9.983  0.3731 -0.2609 -0.8167
  789MOL0     C 6433   3.057   2.668  10.025 -0.0448  0.1380  0.3986
  789MOL0     C 6434   2.664   2.708  10.302 -0.4600  0.1893  0.5698
  789MOL0     C 6435   2.598   2.799  10.218  0.7559 -0.8607  0.2205
  789MOL0     C 6436   2.451   2.806  10.218 -0.6905  0.0252 -0.7099
  789MOL0     C 6437   2.384   2.706  10.293  0.3787  0.7947 -0.2139
  789MOL0     O 6438   2.249   2.678  10.291 -0.1178 -0.5432  0.2216
  789MOL0     C 6439   2.168   2.730  10.184  0.4465  0.4551  0.5361
  789MOL0     C 6440   2.044   2.644  10.153 -0.2646  0.5469  0.2692
  789MOL0     C 6441   1.941   2.650  10.259  1.0308  0.4664 -0.1054
  789MOL0     C 6442   1.837   2.537  10.247  0.2969  0.1564  0.7844
  789MOL0     C 6443   1.714   2.564  10.327 -0.6176  0.5345 -0.5885
  789MOL0     C 6444   1.623   2.603  10.400  0.2026  0.0944  0.1969
  789MOL0     C 6445   2.452   2.634  10.391  1.1711  0.8620 -0.5792
  789MOL0     C 6446   2.590   2.628  10.392 -0.1211 -0.1205  0.6300
  789MOL0     C 6447   2.659   2.521  10.473  0.3585 -0.5128  0.1554
  789MOL0     H 6448   3.112   2.794  10.333  2.5487  0.9811  0.2612
  789MOL0     H 6449   3.351   2.767  10.244  0.5347  0.1941 -1.6543
  789MOL0     H 6450   3.546   2.742  10.152  0.4578 -0.0927  0.0885
  789MOL0     H 6451   3.480   2.578  10.211 -2.9956 -0.9041 -1.5075
  789MOL0     H 6452   3.615   2.482  10.025 -0.1402 -0.6846  1.9413
  789MOL0     H 6453   3.704   2.542  10.158 -0.2757 -0.8434 -0.3940
  789MOL0     H 6454   3.715   2.777  10.035 -4.7162 -0.1801  0.0197
  789MOL0     H 6455   3.660   2.671   9.904  1.3046 -2.3099 -1.1013
  789MOL0     H 6456   3.928   2.642  10.065  0.0198  1.7387 -1.4334
  789MOL0     H 6457   3.859   2.516   9.964  0.2161 -0.2054 -0.7924
  789MOL0     H 6458   3.926   2.808   9.883 -0.7306 -0.1183  0.7536
  789MOL0     H 6459   4.056   2.671   9.889 -0.0140 -0.7175  0.8760
  789MOL0     H 6460   3.962   2.570   9.719 -0.5856  0.7192  0.0074
  789MOL0     H 6461   3.805   2.638   9.734 -1.0090  1.4185 -0.1431
  789MOL0     H 6462   4.054   2.789   9.627 -0.1489 -0.6551  5.2795
  789MOL0     H 6463   3.888   2.858   9.630 -0.9229 -0.7210 -3.4496
  789MOL0     H 6464   3.800   2.669   9.515 -0.3861  3.0460  1.6612
  789MOL0     H 6465   3.912   2.767   9.407 -1.8835  1.5917  0.7290
  789MOL0     H 6466   4.181   2.689   9.461 -4.9525  3.5138 -1.8519
  789MOL0     H 6467   4.352   2.451   9.531  2.4227  2.8410 -1.2982
  789MOL0     H 6468   4.314   2.319   9.421 -3.5126 -0.6573 -1.2130
  789MOL0     H 6469   4.339   2.458   9.220  1.2688 -1.0720 -0.4461
  789MOL0     H 6470   4.393   2.602   9.312 -1.2229 -0.4534 -3.3579
  789MOL0     H 6471   4.566   2.377   9.362  3.5370  0.5437 -1.4479
  789MOL0     H 6472   4.587   2.545   9.346 -1.1218  0.2733 -1.2783
  789MOL0     H 6473   4.526   2.365   9.115 -1.7786  1.3691 -1.3110
  789MOL0     H 6474   4.686   2.408   9.173 -1.0528 -2.8510 -2.0672
  789MOL0     H 6475   4.781   2.570   9.263  3.4000  1.0379  1.0824
  789MOL0     H 6476   4.958   2.734   9.270  0.2038 -0.4295  0.2443
  789MOL0     H 6477   5.156   3.199   8.925 -0.1905 -0.6505  0.5035
  789MOL0     H 6478   5.267   3.408   8.993 -2.7402 -2.7305 -1.7172
  789MOL0     H 6479   5.155   3.644   9.274 -0.4382 -1.2368 -1.3557
  789MOL0     H 6480   5.235   3.573   9.418  2.9732  0.5143  0.2866
  789MOL0     H 6481   5.445   3.679   9.362 -0.1695  0.2389 -0.1758
  789MOL0     H 6482   5.387   3.706   9.193  0.1953  0.3144 -0.5066
  789MOL0     H 6483   5.400   3.912   9.322 -1.5982  1.7220 -2.0974
  789MOL0     H 6484   5.234   3.887   9.284 -0.1788  1.3470  0.7635
  789MOL0     H 6485   5.333   3.817   9.568  0.5498  0.2323  0.2623
  789MOL0     H 6486   5.166   3.829   9.493  0.1389 -2.4318 -1.0800
  789MOL0     H 6487   5.394   4.035   9.515 -0.0422 -0.0616  2.1601
  789MOL0     H 6488   5.265   4.026   9.638 -1.0220  1.3080  0.2908
  789MOL0     H 6489   5.235   4.205   9.464 -1.6379  0.6484 -0.5819
  789MOL0     H 6490   5.199   4.079   9.344  0.8031 -0.1787 -0.7411
  789MOL0     H 6491   5.029   4.173   9.567 -0.5491 -1.6672 -0.0022
  789MOL0     H 6492   5.054   3.996   9.557 -1.3086 -1.6055 -1.9402
  789MOL0     H 6493   4.961   4.164   9.319  3.6820 -0.0044 -1.2382
  789MOL0     H 6494   4.977   3.987   9.327  0.7082  0.7214 -2.3865
  789MOL0     H 6495   5.102   3.389   9.378  1.1639 -0.2801 -0.1371
  789MOL0     H 6496   4.962   3.186   9.307 -0.1326 -0.0027 -0.2680
  789MOL0     H 6497   4.770   2.961   8.955 -0.5540  0.8765  0.6768
  789MOL0     H 6498   4.586   2.800   8.960 -0.0265 -0.4271  0.7189
  789MOL0     H 6499   3.212   2.592   9.894  1.4569 -2.1398  0.5940
  789MOL0     H 6500   2.987   2.635   9.949  1.2731 -2.1181  0.0830
  789MOL0     H 6501   2.651   2.872  10.158 -0.9958  0.3087  0.0103
  789MOL0     H 6502   2.398   2.875  10.154 -0.3540 -1.1785 -2.3661
  789MOL0     H 6503   2.219   2.740  10.087 -2.5777  2.8400 -0.9740
  789MOL0     H 6504   2.132   2.828  10.217 -0.5131 -0.1167  1.2396
  789MOL0     H 6505   2.080   2.541  10.140 -0.0707  0.5148  1.0566
  789MOL0     H 6506   1.981   2.675  10.069 -0.5794  1.9986  1.0255
  789MOL0     H 6507   1.897   2.750  10.271  1.5974  0.4850  2.0802
  789MOL0     H 6508   1.987   2.633  10.356 -0.7623 -0.3144  0.6481
  789MOL0     H 6509   1.799   2.535  10.144 -0.3720  1.1328  0.9992
  789MOL0     H 6510   1.890   2.446  10.275  0.0413 -0.3907 -0.4573
  789MOL0     H 6511   1.545   2.655  10.453 -1.4646 -2.3742  0.3301
  789MOL0     H 6512   2.396   2.560  10.447  0.4679 -0.5269 -2.9572
  789MOL0     H 6513   2.620   2.519  10.575  0.4734 -0.0649  0.2128
  789MOL0     H 6514   2.633   2.431  10.416  0.8988 -0.9898  0.6489
  789MOL0     H 6515   2.768   2.529  10.474  0.3998 -0.7246  2.2429
  790MOL0     O 6516   1.332  10.218   2.215  0.1512 -0.4755  0.4939
  790MOL0     C 6517   1.242  10.300   2.239  0.4633  0.2924 -0.0793
  790MOL0     O 6518   1.229  10.362   2.367 -0.0815  0.0927  0.1174
  790MOL0     C 6519   1.311  10.333   2.469 -0.5541  0.2908 -0.3836
  790MOL0     C 6520   1.259  10.313   2.596  0.9357  0.3118  0.4139
  790MOL0     C 6521   1.330  10.303   2.715 -0.1783 -0.5174  0.4332
  790MOL0     C 6522   1.474  10.277   2.697  0.2688  0.3821 -0.1154
  790MOL0     O 6523   1.548  10.250   2.813 -0.0650 -0.8127  0.1195
  790MOL0     C 6524   1.499  10.147   2.904 -0.1440 -0.1905  0.5665
  790MOL0     C 6525   1.478  10.014   2.837 -0.5062 -0.0283 -0.8171
  790MOL0     C 6526   1.605   9.925   2.847  0.3317  0.1658 -0.6881
  790MOL0     C 6527   1.723   9.992   2.763  0.0045 -0.6285  0.2193
  790MOL0     C 6528   1.850   9.917   2.750 -0.2042 -0.2360 -0.4177
  790MOL0     C 6529   1.944   9.973   2.646  0.0754 -0.6782  0.9495
  790MOL0     C 6530   2.071   9.892   2.627  0.2745  0.6386 -0.5622
  790MOL0     C 6531   2.130   9.906   2.486  0.1519  0.3526 -0.3366
  790MOL0     N 6532   2.279   9.874   2.490 -0.1267 -0.3504 -0.1385
  790MOL0     C 6533   2.379   9.967   2.524  0.2257  0.1184  0.1386
  790MOL0     C 6534   2.494   9.896   2.538  0.6963 -0.2169  1.0053
  790MOL0     C 6535   2.627   9.949   2.598  0.4866  0.5825 -0.4287
  790MOL0     C 6536   2.737   9.870   2.528  0.2314 -0.0448 -0.1909
  790MOL0     C 6537   2.891   9.908   2.571  0.1466  0.2286  1.2291
  790MOL0     C 6538   2.984   9.797   2.539  0.5552  0.2032  0.2636
  790MOL0     O 6539   3.109   9.822   2.614  0.7687  0.1735  0.2296
  790MOL0     C 6540   3.217   9.740   2.603  0.5583 -0.0411 -0.1059
  790MOL0     C 6541   3.321   9.792   2.669 -0.1052 -0.1759 -0.4696
  790MOL0     C 6542   3.440   9.725   2.672  0.6821 -0.3625 -0.8254
  790MOL0     C 6543   3.455   9.598   2.604  0.2746  0.7362  0.1736
  790MOL0     C 6544   3.589   9.532   2.611  0.4020 -0.4932  0.3417
  790MOL0     O 6545   3.696   9.611   2.648  0.4665  0.2726 -0.0352
  790MOL0     C 6546   3.815   9.545   2.675  0.1091  0.9257 -0.3901
  790MOL0     C 6547   3.814   9.445   2.774 -0.3112  0.4037  0.7929
  790MOL0     C 6548   3.940   9.378   2.799  1.1549 -0.3038  0.4710
  790MOL0     C 6549   4.056   9.412   2.736 -0.0698  0.0028  0.0119
  790MOL0     O 6550   4.180   9.352   2.756 -0.1141  0.0502  0.2657
  790MOL0     C 6551   4.196   9.240   2.848  0.6000 -0.6560 -0.1489
  790MOL0     C 6552   4.331   9.173   2.811  1.2321  0.2282  0.3252
  790MOL0     C 6553   4.454   9.226   2.884 -0.0205 -0.6090 -0.0231
  790MOL0     C 6554   4.507   9.350   2.825 -0.2664 -0.4425  0.3711
  790MOL0     C 6555   4.593   9.322   2.694 -0.3448  0.3350 -0.3547
  790MOL0     C 6556   4.739   9.378   2.698 -0.3061  0.8132  0.4408
  790MOL0     C 6557   4.842   9.295   2.773  0.7188  0.3660  0.0111
  790MOL0     C 6558   4.865   9.157   2.718 -0.3356 -0.1652 -0.1686
  790MOL0    Cl 6559   4.933   9.171   2.555 -0.3851  0.0956 -0.0061
  790MOL0     C 6560   4.057   9.515   2.644 -0.8233 -0.1256 -0.1671
  790MOL0     C 6561   3.938   9.584   2.615  0.0738  0.1610 -0.1332
  790MOL0     O 6562   3.600   9.420   2.563  0.1216  1.0950  0.1721
  790MOL0     C 6563   3.340   9.551   2.530 -0.6578 -0.0756 -0.0628
  790MOL0     C 6564   3.221   9.623   2.534  0.2185  1.1709 -0.4902
  790MOL0     N 6565   2.469   9.764   2.501  0.0259  0.1847 -0.1168
  790MOL0     N 6566   2.341   9.755   2.465  0.1491  0.1217 -0.3972
  790MOL0     C 6567   1.529  10.291   2.571  0.1498  0.2972 -0.0288
  790MOL0     C 6568   1.447  10.321   2.456 -0.3860 -0.8175  0.4014
  790MOL0     C 6569   1.154  10.359   2.128 -0.0967  0.7186 -0.7303
  790MOL0     C 6570   1.109  10.494   2.127 -0.1378  0.5229  0.6573
  790MOL0     C 6571   1.041  10.548   2.016  0.2957 -0.8351 -0.1859
  790MOL0     C 6572   1.013  10.480   1.903  0.1666 -0.9655  0.2976
  790MOL0     O 6573   0.936  10.537   1.809 -1.1424  0.5992 -0.4941
  790MOL0     C 6574   0.850  10.469   1.722  0.3137 -0.1334 -0.6318
  790MOL0     C 6575   0.879  10.501   1.576 -1.0215  0.1975 -0.9740
  790MOL0     C 6576   0.766  10.451   1.490 -0.5445 -0.0637 -0.3352
  790MOL0     C 6577   0.819  10.389   1.352 -0.3011  0.2399 -0.1461
  790MOL0     C 6578   0.701  10.369   1.264  0.2600 -1.4628 -0.7584
  790MOL0     C 6579   0.587  10.367   1.214 -0.5852 -0.3032  0.4292
  790MOL0     C 6580   1.063  10.349   1.896  0.3696  0.3105 -0.5972
  790MOL0     C 6581   1.125  10.285   2.010 -0.2809 -0.1353 -0.2323
  790MOL0     C 6582   1.128  10.137   2.017  0.0786  0.5865 -0.5672
  790MOL0     H 6583   1.151  10.321   2.593  1.0195  1.3297 -0.7855
  790MOL0     H 6584   1.274  10.299   2.808  1.0129  0.8026  1.2390
  790MOL0     H 6585   1.570  10.138   2.986 -1.1273 -1.9701  1.2899
  790MOL0     H 6586   1.408  10.177   2.958 -0.6395 -0.5125 -0.0768
  790MOL0     H 6587   1.437  10.032   2.737 -0.7028 -0.7437 -0.8660
  790MOL0     H 6588   1.389   9.968   2.880  0.5975 -0.3441  1.2820
  790MOL0     H 6589   1.571   9.829   2.806 -0.1828 -0.3195  0.7975
  790MOL0     H 6590   1.637   9.912   2.950  2.4558  2.2532 -0.9894
  790MOL0     H 6591   1.682  10.021   2.667 -1.3696 -0.3270  0.8786
  790MOL0     H 6592   1.746  10.081   2.822  0.6416  0.2465 -1.3150
  790MOL0     H 6593   1.905   9.925   2.844  0.6131  1.1789 -0.9841
  790MOL0     H 6594   1.823   9.813   2.728 -1.1032 -0.4767  1.5866
  790MOL0     H 6595   1.893   9.973   2.549 -2.4139  1.6292  2.1301
  790MOL0     H 6596   1.968  10.076   2.673 -0.4162 -0.7540  1.6957
  790MOL0     H 6597   2.051   9.785   2.641 -1.1358  0.8223 -1.0189
  790MOL0     H 6598   2.142   9.925   2.704 -0.5646 -0.2890  0.6448
  790MOL0     H 6599   2.072   9.841   2.420 -0.8813  0.1927  0.7098
  790MOL0     H 6600   2.125  10.012   2.458  0.7173  1.3751  3.0103
  790MOL0     H 6601   2.375  10.074   2.542  0.0591  0.1293  0.0375
  790MOL0     H 6602   2.631  10.058   2.588 -0.5195  0.5681 -1.1196
  790MOL0     H 6603   2.627   9.928   2.706 -0.0596 -0.7611 -0.6757
  790MOL0     H 6604   2.715   9.767   2.557 -0.4310 -0.2150 -1.2345
  790MOL0     H 6605   2.728   9.881   2.419 -1.2243  1.2350  0.0198
  790MOL0     H 6606   2.891   9.925   2.679  2.4183 -1.0369  1.5066
  790MOL0     H 6607   2.916  10.000   2.518 -2.5122 -1.4147 -3.4898
  790MOL0     H 6608   3.013   9.783   2.435  2.5109 -2.3688  1.0257
  790MOL0     H 6609   2.941   9.701   2.569  0.5083 -0.5726 -2.0946
  790MOL0     H 6610   3.317   9.893   2.708  4.6589 -0.4634  1.4494
  790MOL0     H 6611   3.525   9.760   2.728 -1.6322 -1.0036  3.5700
  790MOL0     H 6612   3.722   9.415   2.822  0.3655 -3.9304 -0.1663
  790MOL0     H 6613   3.927   9.307   2.879  0.5268  1.0364  1.6018
  790MOL0     H 6614   4.192   9.276   2.951 -2.6724 -2.8073  0.6138
  790MOL0     H 6615   4.113   9.171   2.832 -0.5937  0.7303 -0.1319
  790MOL0     H 6616   4.322   9.070   2.845  0.4810  0.2136  0.0948
  790MOL0     H 6617   4.346   9.165   2.703 -2.4029  1.8219 -0.4388
  790MOL0     H 6618   4.420   9.240   2.987  0.4553 -0.2829  0.0908
  790MOL0     H 6619   4.533   9.151   2.882  1.4192  0.8846 -0.9523
  790MOL0     H 6620   4.572   9.396   2.901 -0.0207 -2.6753  1.5772
  790MOL0     H 6621   4.432   9.425   2.799  1.4718  2.3127  2.6441
  790MOL0     H 6622   4.547   9.375   2.611 -0.1367 -1.4705 -1.6751
  790MOL0     H 6623   4.578   9.221   2.657  1.7178  1.0220 -3.4748
  790MOL0     H 6624   4.780   9.392   2.598 -0.6762  0.7032  0.2728
  790MOL0     H 6625   4.745   9.475   2.747  0.8588  0.3005  1.3795
  790MOL0     H 6626   4.803   9.300   2.875  2.2297  0.8275  0.5833
  790MOL0     H 6627   4.932   9.355   2.767 -0.8383  2.7236 -1.8099
  790MOL0     H 6628   4.930   9.093   2.778 -0.0638  2.3660  2.4883
  790MOL0     H 6629   4.766   9.111   2.707 -0.6463 -0.3085  2.4900
  790MOL0     H 6630   4.148   9.545   2.593 -0.7768 -1.7420 -1.1276
  790MOL0     H 6631   3.938   9.678   2.561  1.7521 -0.1196 -0.6764
  790MOL0     H 6632   3.339   9.463   2.466  0.7286  0.7391 -1.2559
  790MOL0     H 6633   3.135   9.581   2.483  1.5058 -0.4053 -1.4945
  790MOL0     H 6634   1.634  10.274   2.550 -0.1252  0.0362 -1.3153
  790MOL0     H 6635   1.495  10.332   2.359  4.1472  1.7395  2.6109
  790MOL0     H 6636   1.140  10.552   2.213  0.7137 -0.9172  1.3493
  790MOL0     H 6637   0.999  10.648   2.025  0.0717 -0.4893 -3.7639
  790MOL0     H 6638   0.749  10.510   1.734  0.5701  0.5942 -0.8915
  790MOL0     H 6639   0.840  10.361   1.732  0.9728 -0.2250 -0.9721
  790MOL0     H 6640   0.971  10.450   1.547 -1.0009  0.1150 -0.7662
  790MOL0     H 6641   0.901  10.608   1.569  1.4084 -0.2715 -1.2627
  790MOL0     H 6642   0.697  10.536   1.488  3.8815  4.0622  1.8463
  790MOL0     H 6643   0.711  10.370   1.539 -1.4844 -0.0852 -1.3846
  790MOL0     H 6644   0.889  10.457   1.302 -0.1568  0.1792 -0.0245
  790MOL0     H 6645   0.872  10.296   1.376 -1.4936  0.0939  2.1925
  790MOL0     H 6646   0.487  10.365   1.175 -1.9345  2.3135  3.2898
  790MOL0     H 6647   1.022  10.288   1.817  0.2745 -0.8706  0.3321
  790MOL0     H 6648   1.057  10.091   1.948 -0.9668 -1.1725  1.5465
  790MOL0     H 6649   1.228  10.093   2.007 -0.3143 -0.2824 -0.8387
  790MOL0     H 6650   1.069  10.115   2.106  0.3871  0.8578 -0.2902
  791MOL0     O 6651   9.538   1.203   5.999 -0.5265 -0.1121 -0.3117
  791MOL0     C 6652   9.515   1.277   6.092 -0.0656  0.1003  0.1545
  791MOL0     O 6653   9.604   1.336   6.180 -0.0082  0.6760 -0.7407
  791MOL0     C 6654   9.742   1.302   6.173 -0.4541 -0.3547 -0.3166
  791MOL0     C 6655   9.805   1.220   6.263 -0.6127  0.0172  0.0105
  791MOL0     C 6656   9.932   1.161   6.236 -0.7942 -0.2140  0.9964
  791MOL0     C 6657  10.008   1.210   6.129  0.3697  0.6817  0.1363
  791MOL0     O 6658  10.124   1.142   6.108 -0.6394  0.2190  0.3223
  791MOL0     C 6659  10.179   1.117   5.980 -0.5245 -0.3146  0.0822
  791MOL0     C 6660  10.175   0.965   5.953 -0.2272  0.0735 -0.8132
  791MOL0     C 6661  10.275   0.890   6.045 -0.5365  0.2791  0.1897
  791MOL0     C 6662  10.266   0.735   6.041  0.6497  0.1431 -0.0396
  791MOL0     C 6663  10.393   0.689   6.104 -0.9307  0.5520 -0.0945
  791MOL0     C 6664  10.375   0.531   6.083  0.5647  0.3395 -0.0266
  791MOL0     C 6665  10.464   0.453   6.177  0.6679  0.1615  0.0147
  791MOL0     C 6666  10.466   0.308   6.143  0.0255  0.0405  0.4688
  791MOL0     N 6667  10.585   0.260   6.061 -0.0480 -0.2837 -0.3520
  791MOL0     C 6668  10.614   0.294   5.933 -0.8653 -0.3870  0.1435
  791MOL0     C 6669  10.703   0.206   5.878  0.7384  0.1178 -0.6018
  791MOL0     C 6670  10.759   0.208   5.747 -0.5325  1.2113  0.8115
  791MOL0     C 6671  10.687   0.099   5.666  0.3818  0.3257  0.7326
  791MOL0     C 6672  10.748   0.070   5.521 -0.5535 -0.0700  0.4266
  791MOL0     C 6673  10.680  -0.056   5.462  0.3090 -0.1269  0.2870
  791MOL0     O 6674  10.718  -0.071   5.320 -0.1929  0.4946 -0.8985
  791MOL0     C 6675  10.667   0.014   5.225 -0.2254  0.3703  0.9895
  791MOL0     C 6676  10.750   0.026   5.117 -0.3640 -0.5041  0.5390
  791MOL0     C 6677  10.709   0.104   5.008  0.3477 -0.1050  0.1151
  791MOL0     C 6678  10.595   0.186   5.011 -0.7095 -1.2128  0.5313
  791MOL0     C 6679  10.573   0.284   4.911 -0.0010  0.9032  1.5315
  791MOL0     O 6680  10.668   0.289   4.807 -0.1305 -0.0820 -0.4439
  791MOL0     C 6681  10.655   0.369   4.703 -0.4341  0.1765 -0.0521
  791MOL0     C 6682  10.528   0.406   4.649  0.0113 -0.2910  0.2558
  791MOL0     C 6683  10.521   0.490   4.537 -0.3941  0.1086  0.1239
  791MOL0     C 6684  10.642   0.537   4.476  0.1202 -0.4277  0.5109
  791MOL0     O 6685  10.620   0.620   4.364 -0.8577  0.0223  0.2216
  791MOL0     C 6686  10.733   0.688   4.310  0.0302  0.3427  0.6177
  791MOL0     C 6687  10.804   0.618   4.196  0.6753  0.1810 -0.1265
  791MOL0     C 6688  10.711   0.599   4.073  0.1778  0.1897  0.3885
  791MOL0     C 6689  10.794   0.524   3.957 -0.4936  0.0978  0.4495
  791MOL0     C 6690  10.715   0.532   3.825  0.6794 -0.0841  1.0883
  791MOL0     C 6691  10.804   0.464   3.725  0.3154 -0.0663  0.7995
  791MOL0     C 6692  10.759   0.483   3.578 -0.5823  0.1678  0.0038
  791MOL0     C 6693  10.811   0.382   3.482  0.9334 -1.0447 -0.1120
  791MOL0    Cl 6694  10.991   0.415   3.464 -0.3761 -0.1579 -0.5982
  791MOL0     C 6695  10.771   0.503   4.535  0.5274  0.3838 -0.1614
  791MOL0     C 6696  10.777   0.417   4.641  0.6736  0.2630  1.2611
  791MOL0     O 6697  10.482   0.366   4.926  0.2911  0.5754  1.6044
  791MOL0     C 6698  10.511   0.173   5.124  0.0360  0.0779  0.3847
  791MOL0     C 6699  10.549   0.088   5.227 -0.4329  0.2060 -0.1714
  791MOL0     N 6700  10.723   0.123   5.989 -0.7338 -0.2374 -0.8679
  791MOL0     N 6701  10.658   0.157   6.093  0.2199  1.0492 -0.5468
  791MOL0     C 6702   9.954   1.320   6.055 -0.0264  0.0005 -0.1847
  791MOL0     C 6703   9.818   1.357   6.074 -0.4683 -0.1398 -0.4389
  791MOL0     C 6704   9.374   1.320   6.111 -0.0623 -0.7888 -0.4023
  791MOL0     C 6705   9.321   1.346   6.236 -0.1738  0.7300 -0.4085
  791MOL0     C 6706   9.179   1.375   6.254 -0.0561  0.7651  0.5669
  791MOL0     C 6707   9.091   1.387   6.153  0.3871  0.7491  0.4145
  791MOL0     O 6708   8.955   1.424   6.177 -0.0513  0.1549 -0.4050
  791MOL0     C 6709   8.865   1.444   6.066  0.2553  1.0554 -0.0637
  791MOL0     C 6710   8.742   1.509   6.120 -0.0274 -0.0817  0.9155
  791MOL0     C 6711   8.683   1.450   6.245 -0.0251  0.0177  0.0269
  791MOL0     C 6712   8.529   1.461   6.268  0.0164  0.3104  0.2454
  791MOL0     C 6713   8.452   1.398   6.170  0.1456  0.1972  0.2796
  791MOL0     C 6714   8.379   1.346   6.088  1.1447  0.0733 -0.3409
  791MOL0     C 6715   9.138   1.349   6.028 -0.6723 -0.7428  0.9248
  791MOL0     C 6716   9.276   1.323   6.001 -0.4702 -0.1248 -0.4001
  791MOL0     C 6717   9.305   1.300   5.856  0.2990  0.1527 -0.5156
  791MOL0     H 6718   9.744   1.192   6.348 -1.3244  4.3006  1.1520
  791MOL0     H 6719   9.960   1.102   6.322 -1.5852  1.4602  2.4836
  791MOL0     H 6720  10.127   1.166   5.898 -0.3560 -0.4523 -0.1072
  791MOL0     H 6721  10.276   1.168   5.983 -0.3352 -0.6609 -0.0470
  791MOL0     H 6722  10.196   0.969   5.846  0.5377  1.0807 -0.6443
  791MOL0     H 6723  10.077   0.924   5.977  0.1628 -0.0587  0.6193
  791MOL0     H 6724  10.262   0.910   6.152 -1.8918  3.0203 -0.4115
  791MOL0     H 6725  10.375   0.917   6.009 -0.2910 -2.2224 -1.2485
  791MOL0     H 6726  10.174   0.709   6.095  1.1620 -2.3682 -0.2730
  791MOL0     H 6727  10.256   0.701   5.938 -0.0777  0.9231 -0.2448
  791MOL0     H 6728  10.474   0.742   6.053  0.5503 -1.9725 -0.5352
  791MOL0     H 6729  10.409   0.713   6.209  0.4274  0.9914 -0.3786
  791MOL0     H 6730  10.272   0.493   6.086 -0.0774  1.5683 -2.7357
  791MOL0     H 6731  10.403   0.513   5.979 -0.3081  0.8081 -0.3593
  791MOL0     H 6732  10.420   0.455   6.277  1.7571 -2.2082  0.5998
  791MOL0     H 6733  10.567   0.491   6.178 -0.3947  3.4399 -0.7290
  791MOL0     H 6734  10.476   0.256   6.239  0.9189 -0.5892  0.0486
  791MOL0     H 6735  10.371   0.272   6.103  1.7208 -0.6059 -3.4755
  791MOL0     H 6736  10.561   0.369   5.874 -2.7569 -2.7826 -1.3951
  791MOL0     H 6737  10.744   0.306   5.700 -0.2731  0.2955 -1.3380
  791MOL0     H 6738  10.867   0.192   5.754 -0.3462  1.0536 -1.5614
  791MOL0     H 6739  10.689   0.004   5.720 -1.1125  0.4549  1.0498
  791MOL0     H 6740  10.585   0.137   5.656  1.3815  2.6984 -2.5528
  791MOL0     H 6741  10.854   0.046   5.520 -1.0885 -2.6764  0.0966
  791MOL0     H 6742  10.738   0.156   5.453  4.2520 -0.5723 -1.3107
  791MOL0     H 6743  10.571  -0.044   5.468  0.5627  3.2349  0.2095
  791MOL0     H 6744  10.699  -0.145   5.522 -3.9011  0.5403  3.0526
  791MOL0     H 6745  10.844  -0.028   5.114 -0.5680 -0.8457  0.2956
  791MOL0     H 6746  10.779   0.105   4.924  0.2298 -1.0822 -0.0163
  791MOL0     H 6747  10.431   0.365   4.676 -0.4606  1.3153  1.1188
  791MOL0     H 6748  10.426   0.513   4.491  0.9399  0.5646 -2.6603
  791MOL0     H 6749  10.705   0.787   4.273 -0.8827 -0.5672 -1.2533
  791MOL0     H 6750  10.811   0.722   4.379  0.0205  0.7513  0.4344
  791MOL0     H 6751  10.883   0.687   4.164  0.2244  0.8602  0.2064
  791MOL0     H 6752  10.848   0.527   4.237  0.9088  0.4117  0.1345
  791MOL0     H 6753  10.623   0.535   4.086  0.2887 -0.0792 -0.1400
  791MOL0     H 6754  10.668   0.696   4.047 -1.9964 -1.0130 -0.7736
  791MOL0     H 6755  10.793   0.417   3.979 -0.9610  0.1389  0.6407
  791MOL0     H 6756  10.896   0.555   3.934 -1.1856  1.7445 -0.5660
  791MOL0     H 6757  10.691   0.634   3.793 -1.4310 -0.9037 -0.1290
  791MOL0     H 6758  10.624   0.475   3.843  0.5600 -0.4685 -0.6059
  791MOL0     H 6759  10.905   0.502   3.739  0.4416 -0.2953  0.5254
  791MOL0     H 6760  10.817   0.358   3.747  3.0124  0.2475  1.0047
  791MOL0     H 6761  10.788   0.581   3.539  0.1378 -0.4524 -1.0822
  791MOL0     H 6762  10.650   0.482   3.572 -0.8181  1.2968  2.7721
  791MOL0     H 6763  10.795   0.279   3.517 -1.8699  0.4677  3.8436
  791MOL0     H 6764  10.767   0.393   3.383  0.2837  0.6276  0.3305
  791MOL0     H 6765  10.859   0.538   4.483  0.7685 -0.2664 -0.1977
  791MOL0     H 6766  10.869   0.393   4.693 -0.5310 -0.9268  2.9701
  791MOL0     H 6767  10.412   0.219   5.123 -1.1611 -2.3359 -0.8990
  791MOL0     H 6768  10.498   0.079   5.323  2.6103 -1.5776  1.4657
  791MOL0     H 6769  10.014   1.368   5.978 -2.0643  2.3463 -0.4664
  791MOL0     H 6770   9.759   1.417   6.006  1.6637 -1.6756 -3.9404
  791MOL0     H 6771   9.370   1.332   6.332 -0.6061 -1.6443 -0.4656
  791MOL0     H 6772   9.137   1.394   6.352  0.4640 -3.4526  1.7869
  791MOL0     H 6773   8.833   1.348   6.023  0.0928  0.2200  1.8368
  791MOL0     H 6774   8.908   1.505   5.986 -0.9369 -1.0927 -2.4929
  791MOL0     H 6775   8.674   1.514   6.034 -1.8866  0.4975  2.3545
  791MOL0     H 6776   8.767   1.614   6.137  0.1595 -0.1517  1.0720
  791MOL0     H 6777   8.741   1.503   6.322  3.0455 -1.8411 -0.8108
  791MOL0     H 6778   8.708   1.344   6.253 -2.5095 -0.6012  0.4567
  791MOL0     H 6779   8.498   1.418   6.363 -1.9999 -2.3528 -1.4639
  791MOL0     H 6780   8.505   1.567   6.281  1.0805  0.4385  1.2593
  791MOL0     H 6781   8.309   1.310   6.015  0.8195 -0.7038  0.3326
  791MOL0     H 6782   9.081   1.341   5.937  1.7871  1.4562 -0.9560
  791MOL0     H 6783   9.336   1.196   5.843  1.2017  0.1172  1.4820
  791MOL0     H 6784   9.222   1.316   5.786  0.3603 -1.8716 -1.1249
  791MOL0     H 6785   9.386   1.361   5.816  0.1052 -0.0035 -1.1615
  792MOL0     O 6786   4.298   7.659   4.021 -0.3314 -0.0817 -0.6484
  792MOL0     C 6787   4.269   7.541   4.046 -0.1193  0.3360  0.4932
  792MOL0     O 6788   4.364   7.443   4.047 -0.7433 -0.4505 -0.3635
  792MOL0     C 6789   4.498   7.478   4.056 -0.5719 -0.6602 -0.3457
  792MOL0     C 6790   4.560   7.602   4.097  0.0770 -0.5856 -0.0907
  792MOL0     C 6791   4.695   7.613   4.091 -0.2245 -0.3229 -0.0846
  792MOL0     C 6792   4.778   7.500   4.052  0.3426  0.3422  0.1281
  792MOL0     O 6793   4.916   7.508   4.059  0.2448  0.4829  0.7153
  792MOL0     C 6794   4.966   7.537   4.188 -0.1029  0.0986  0.3716
  792MOL0     C 6795   5.106   7.469   4.203 -0.0748 -0.0565 -0.4607
  792MOL0     C 6796   5.100   7.309   4.189  0.3328 -0.2121 -0.5629
  792MOL0     C 6797   5.221   7.250   4.247  0.6811  0.4793  0.2426
  792MOL0     C 6798   5.226   7.098   4.223  0.5267 -0.1746 -0.0873
  792MOL0     C 6799   5.364   7.052   4.281 -0.6612 -0.3043 -0.5498
  792MOL0     C 6800   5.382   6.906   4.286 -0.2078 -0.3195 -0.4556
  792MOL0     C 6801   5.414   6.836   4.153 -0.4203 -0.1160  0.0902
  792MOL0     N 6802   5.564   6.830   4.129  0.7604 -0.5737  0.5814
  792MOL0     C 6803   5.645   6.933   4.068  0.2434  0.0106  0.8589
  792MOL0     C 6804   5.772   6.878   4.073 -0.2067 -0.3113 -0.4637
  792MOL0     C 6805   5.907   6.940   4.037 -0.0812 -0.3240  0.0643
  792MOL0     C 6806   5.911   7.086   4.081  0.2876 -0.5824  0.3901
  792MOL0     C 6807   6.059   7.126   4.110  0.3145  0.5462 -0.3357
  792MOL0     C 6808   6.167   7.095   3.998 -0.5619  0.2653  0.2426
  792MOL0     O 6809   6.210   7.219   3.951  0.3173 -0.1762  0.6654
  792MOL0     C 6810   6.334   7.228   3.912 -0.0755 -0.5208 -0.0971
  792MOL0     C 6811   6.396   7.349   3.931 -0.1041 -0.1337 -0.8428
  792MOL0     C 6812   6.532   7.367   3.891 -0.3113 -0.2803 -0.3835
  792MOL0     C 6813   6.595   7.264   3.825 -1.4175 -0.1551 -0.6614
  792MOL0     C 6814   6.722   7.280   3.766  0.0005  0.7177  1.2687
  792MOL0     O 6815   6.730   7.228   3.632 -0.5149 -0.0125 -1.3091
  792MOL0     C 6816   6.834   7.277   3.550  0.1293 -0.6602  0.1956
  792MOL0     C 6817   6.882   7.409   3.540 -0.1182 -0.8100 -0.0813
  792MOL0     C 6818   6.980   7.444   3.449 -0.7120 -0.3172  0.6570
  792MOL0     C 6819   7.053   7.344   3.377 -0.8484 -0.0415 -0.2024
  792MOL0     O 6820   7.169   7.370   3.308  0.1601  0.0073 -0.7157
  792MOL0     C 6821   7.279   7.420   3.380  0.2133  0.0670 -0.0159
  792MOL0     C 6822   7.367   7.309   3.433  0.4266 -0.5010  0.2258
  792MOL0     C 6823   7.480   7.386   3.510 -0.3782 -0.1005  0.8430
  792MOL0     C 6824   7.581   7.286   3.572  0.0849  0.0594  0.3410
  792MOL0     C 6825   7.706   7.369   3.623 -0.2822  0.6963 -0.0340
  792MOL0     C 6826   7.680   7.458   3.747  1.0937 -0.2234 -0.5599
  792MOL0     C 6827   7.659   7.609   3.706 -0.2555 -0.0614 -0.0881
  792MOL0     C 6828   7.789   7.687   3.675 -1.4182 -0.6733  0.0274
  792MOL0    Cl 6829   7.830   7.771   3.815 -0.0307  0.1608 -0.5560
  792MOL0     C 6830   7.007   7.209   3.387 -0.3713 -0.3817 -0.1578
  792MOL0     C 6831   6.892   7.183   3.470  0.6350  0.0069  0.3326
  792MOL0     O 6832   6.802   7.345   3.823 -0.6026 -0.0970 -0.2589
  792MOL0     C 6833   6.534   7.137   3.809 -0.9673  0.4901  0.4073
  792MOL0     C 6834   6.407   7.118   3.846 -0.3467 -0.5097 -0.1268
  792MOL0     N 6835   5.758   6.750   4.118 -0.3754  0.6348  0.3398
  792MOL0     N 6836   5.641   6.724   4.157 -0.2661 -0.1167  0.3394
  792MOL0     C 6837   4.717   7.381   4.017 -0.1263  0.2906 -0.2637
  792MOL0     C 6838   4.582   7.374   4.022 -0.1373  0.7887 -0.2754
  792MOL0     C 6839   4.120   7.504   4.050 -1.6010  0.2951  0.0564
  792MOL0     C 6840   4.091   7.366   4.081 -0.0170  0.8219  0.7054
  792MOL0     C 6841   3.960   7.313   4.087 -0.3608  0.6284  0.9056
  792MOL0     C 6842   3.849   7.394   4.068 -0.7433 -0.8490 -0.0064
  792MOL0     O 6843   3.724   7.339   4.065 -0.1226 -0.7993  0.5978
  792MOL0     C 6844   3.616   7.419   4.018  0.4635 -1.6606  0.6317
  792MOL0     C 6845   3.573   7.517   4.128  0.0748  0.0228 -0.5083
  792MOL0     C 6846   3.514   7.642   4.060  0.3704 -1.2783  0.0467
  792MOL0     C 6847   3.465   7.761   4.157  0.2142  0.4345 -1.5134
  792MOL0     C 6848   3.349   7.708   4.235  0.5769  1.0183 -0.1323
  792MOL0     C 6849   3.251   7.663   4.302  1.0121  0.1752  1.2943
  792MOL0     C 6850   3.871   7.535   4.051 -0.1636  0.5611 -0.5447
  792MOL0     C 6851   4.003   7.588   4.042 -0.9051  1.2180 -0.9869
  792MOL0     C 6852   4.023   7.737   4.027 -1.2262 -0.3240 -0.2019
  792MOL0     H 6853   4.505   7.689   4.132  2.1849  0.7753 -0.0511
  792MOL0     H 6854   4.751   7.700   4.123 -0.0987 -0.5762  0.4139
  792MOL0     H 6855   4.965   7.646   4.198  0.5470  0.0393  1.1920
  792MOL0     H 6856   4.897   7.493   4.261 -0.1403 -0.6308 -0.0876
  792MOL0     H 6857   5.149   7.522   4.288 -0.8501  2.7502 -1.6670
  792MOL0     H 6858   5.167   7.503   4.119  0.5246  0.4088  0.1551
  792MOL0     H 6859   5.103   7.289   4.082 -2.5747  0.3524 -0.8376
  792MOL0     H 6860   5.008   7.266   4.230  0.1874 -0.6004 -1.2725
  792MOL0     H 6861   5.307   7.299   4.200  0.2848  0.2595 -0.7268
  792MOL0     H 6862   5.231   7.262   4.355  1.6465  2.3108 -0.0005
  792MOL0     H 6863   5.145   7.051   4.279  1.0362  0.4780  1.2478
  792MOL0     H 6864   5.219   7.069   4.118  2.8947 -1.4374  0.0135
  792MOL0     H 6865   5.448   7.104   4.235  1.2274 -0.5309  2.3550
  792MOL0     H 6866   5.353   7.082   4.386  0.8076 -1.9071  0.0952
  792MOL0     H 6867   5.288   6.868   4.326  0.1305 -0.9615 -0.2419
  792MOL0     H 6868   5.466   6.891   4.356 -0.6668 -0.8613 -0.0114
  792MOL0     H 6869   5.369   6.737   4.156  1.6732 -1.0967  1.1265
  792MOL0     H 6870   5.369   6.886   4.067  2.0425 -0.2603 -1.3767
  792MOL0     H 6871   5.619   7.034   4.038  0.0685  0.3391  2.0460
  792MOL0     H 6872   5.981   6.883   4.093 -1.7449 -1.5962  1.0609
  792MOL0     H 6873   5.922   6.934   3.929 -0.7685 -0.6091 -0.0258
  792MOL0     H 6874   5.877   7.153   4.002 -1.4048 -1.2018  0.5541
  792MOL0     H 6875   5.849   7.099   4.170  1.6874 -0.0764  1.3202
  792MOL0     H 6876   6.087   7.082   4.207 -0.0179 -0.2158 -0.5768
  792MOL0     H 6877   6.065   7.232   4.136 -1.3906 -0.0000  2.8070
  792MOL0     H 6878   6.117   7.050   3.911  0.1655  1.1409 -0.6504
  792MOL0     H 6879   6.249   7.035   4.039 -2.0296 -1.1263  1.2776
  792MOL0     H 6880   6.341   7.431   3.976  0.1966 -0.4051  0.0281
  792MOL0     H 6881   6.581   7.463   3.899  0.5687 -0.7980  0.6369
  792MOL0     H 6882   6.844   7.479   3.614  1.4997 -2.3637  2.3341
  792MOL0     H 6883   7.008   7.549   3.441 -0.0991 -0.2179  3.2319
  792MOL0     H 6884   7.333   7.482   3.308  1.1395 -0.4763  0.1817
  792MOL0     H 6885   7.254   7.485   3.464  1.6154 -1.2537  1.5113
  792MOL0     H 6886   7.306   7.252   3.504 -0.6153 -0.6429 -0.7565
  792MOL0     H 6887   7.403   7.245   3.351  4.7264 -0.5460  1.8934
  792MOL0     H 6888   7.548   7.446   3.449  0.1441 -0.6760  0.8524
  792MOL0     H 6889   7.427   7.453   3.578  0.3648  0.2863  1.0502
  792MOL0     H 6890   7.618   7.233   3.484 -0.8112  0.1968 -0.1396
  792MOL0     H 6891   7.533   7.220   3.644  0.4625  0.2365  0.7619
  792MOL0     H 6892   7.760   7.422   3.544  1.3583 -0.9298 -0.0754
  792MOL0     H 6893   7.775   7.289   3.654 -2.4222 -0.8636  0.9275
  792MOL0     H 6894   7.589   7.421   3.794  1.2201  0.8515  0.5598
  792MOL0     H 6895   7.767   7.456   3.814  2.3822  0.8754 -2.1120
  792MOL0     H 6896   7.618   7.655   3.796  1.9666  1.2088  0.3328
  792MOL0     H 6897   7.581   7.623   3.630 -1.6989 -1.7041  1.0022
  792MOL0     H 6898   7.866   7.623   3.631 -0.8701  0.9864 -1.5738
  792MOL0     H 6899   7.773   7.766   3.601  1.6670  1.7317  1.6789
  792MOL0     H 6900   7.056   7.135   3.324  0.5478  2.3862 -2.9204
  792MOL0     H 6901   6.854   7.082   3.476  2.9082 -0.8417  1.7998
  792MOL0     H 6902   6.587   7.054   3.763  1.2349  3.4002 -2.8054
  792MOL0     H 6903   6.364   7.019   3.832  0.4299 -1.4949  3.4136
  792MOL0     H 6904   4.783   7.297   3.998  0.8923  1.2694 -1.1729
  792MOL0     H 6905   4.536   7.283   3.984 -0.8672  1.6167 -1.4221
  792MOL0     H 6906   4.168   7.294   4.104  1.6651  2.2952 -0.0543
  792MOL0     H 6907   3.942   7.207   4.104  5.0729 -0.9801 -1.1774
  792MOL0     H 6908   3.523   7.371   3.984 -1.7141  1.0122  2.3280
  792MOL0     H 6909   3.651   7.473   3.929 -0.9851 -2.1435 -0.2812
  792MOL0     H 6910   3.649   7.538   4.204 -0.1065 -1.6077  0.1644
  792MOL0     H 6911   3.494   7.467   4.186 -3.1995  3.3766 -1.6597
  792MOL0     H 6912   3.428   7.613   3.998 -0.9500 -0.6278  1.5118
  792MOL0     H 6913   3.589   7.677   3.988 -0.8166  1.1351 -0.1031
  792MOL0     H 6914   3.557   7.790   4.209  0.0428  1.2003 -1.6370
  792MOL0     H 6915   3.428   7.853   4.112  2.0201  1.9094 -0.0971
  792MOL0     H 6916   3.171   7.608   4.347  0.3307  0.0226 -0.0488
  792MOL0     H 6917   3.784   7.600   4.052 -1.2285 -0.8164  0.3847
  792MOL0     H 6918   4.081   7.762   4.115 -3.0573 -0.1637  1.0074
  792MOL0     H 6919   4.090   7.767   3.945  1.2931 -0.5805  1.6561
  792MOL0     H 6920   3.925   7.786   4.025 -1.4780 -0.8324 -0.7827
  793MOL0     O 6921  11.038   1.513   0.061 -0.4565 -0.3782 -0.4307
  793MOL0     C 6922  10.999   1.609   0.123  0.0332  0.5493  0.0558
  793MOL0     O 6923  11.076   1.706   0.173 -0.0103 -0.0059  0.4732
  793MOL0     C 6924  11.209   1.720   0.129 -0.0871  0.1242 -0.2934
  793MOL0     C 6925  11.273   1.662   0.016 -0.4697 -0.1573 -0.3117
  793MOL0     C 6926  11.414   1.694  -0.016 -0.6802 -0.5017 -0.0827
  793MOL0     C 6927  11.484   1.785   0.063  0.3144 -0.5626  0.8310
  793MOL0     O 6928  11.605   1.831   0.025 -0.2933 -1.1442 -0.3458
  793MOL0     C 6929  11.699   1.727   0.014 -0.9817 -0.3005 -0.4198
  793MOL0     C 6930  11.779   1.743  -0.109 -0.2590 -0.7413  0.9150
  793MOL0     C 6931  11.868   1.867  -0.093 -0.2345 -0.0611  0.0080
  793MOL0     C 6932  11.942   1.917  -0.226 -0.2206  0.7283 -1.7816
  793MOL0     C 6933  11.848   1.979  -0.319  0.9720 -0.2598 -0.2376
  793MOL0     C 6934  11.928   2.033  -0.442 -0.5890 -0.2013 -0.1588
  793MOL0     C 6935  11.845   2.099  -0.543 -0.9506  0.3901 -0.3205
  793MOL0     C 6936  11.775   2.223  -0.492 -0.2778  0.9747 -0.6218
  793MOL0     N 6937  11.853   2.350  -0.519  0.1969  0.1573 -0.0770
  793MOL0     C 6938  11.903   2.435  -0.429 -0.0429  0.1620 -0.1881
  793MOL0     C 6939  11.943   2.546  -0.495 -0.8427 -0.1323  1.1941
  793MOL0     C 6940  11.986   2.673  -0.429 -0.0127 -0.5778  1.1808
  793MOL0     C 6941  12.134   2.698  -0.473  1.2539 -0.0696 -0.8885
  793MOL0     C 6942  12.194   2.824  -0.407  0.7032  0.3627 -0.2775
  793MOL0     C 6943  12.343   2.829  -0.385 -0.1267  0.5105 -0.6052
  793MOL0     O 6944  12.418   2.765  -0.490  0.8354 -0.4220 -0.4901
  793MOL0     C 6945  12.552   2.787  -0.487  0.2566 -0.2062  0.1690
  793MOL0     C 6946  12.627   2.849  -0.372  0.5761  1.1198  0.7742
  793MOL0     C 6947  12.763   2.862  -0.389 -0.0220 -0.0595  0.4166
  793MOL0     C 6948  12.830   2.838  -0.517  0.6777  0.4088 -0.4702
  793MOL0     C 6949  12.976   2.874  -0.544  0.2496  0.4444 -0.0161
  793MOL0     O 6950  13.024   2.861  -0.672 -0.0377 -0.8842 -0.5001
  793MOL0     C 6951  13.131   2.936  -0.716  0.3481  0.0009  0.0293
  793MOL0     C 6952  13.223   2.865  -0.799  0.7367 -0.6594  0.2324
  793MOL0     C 6953  13.331   2.927  -0.858  0.1085  0.7771  0.4181
  793MOL0     C 6954  13.362   3.059  -0.824 -0.0022  0.3289  0.7596
  793MOL0     O 6955  13.463   3.127  -0.886  0.2466  0.3133 -0.3691
  793MOL0     C 6956  13.606   3.105  -0.854 -0.1279  0.0030 -0.0815
  793MOL0     C 6957  13.683   3.160  -0.970 -1.3252  0.0118  0.8443
  793MOL0     C 6958  13.832   3.111  -0.962  0.3587 -0.0308 -0.2797
  793MOL0     C 6959  13.920   3.176  -1.070 -0.2583 -0.1825  0.0387
  793MOL0     C 6960  14.067   3.171  -1.012 -0.7714  0.1761 -0.5805
  793MOL0     C 6961  14.144   3.266  -1.099  0.9086  1.2280 -0.4970
  793MOL0     C 6962  14.163   3.225  -1.248 -0.0630 -0.4794  0.4144
  793MOL0     C 6963  14.250   3.101  -1.275 -0.1513 -0.5266 -1.0927
  793MOL0    Cl 6964  14.377   3.104  -1.163 -0.2246 -0.2954 -0.1281
  793MOL0     C 6965  13.282   3.131  -0.737 -0.0095  1.2553  0.0668
  793MOL0     C 6966  13.174   3.068  -0.683  0.6600  0.3550  0.4664
  793MOL0     O 6967  13.042   2.924  -0.456 -1.1383 -0.4025 -0.0875
  793MOL0     C 6968  12.752   2.771  -0.618 -0.1209 -0.2406 -0.5823
  793MOL0     C 6969  12.621   2.751  -0.599  0.8167 -0.0335 -0.2288
  793MOL0     N 6970  11.915   2.525  -0.626  0.4727  0.0973  0.6220
  793MOL0     N 6971  11.860   2.409  -0.643 -0.3078  0.1674 -1.1028
  793MOL0     C 6972  11.419   1.845   0.171 -0.0779  0.3693 -0.0864
  793MOL0     C 6973  11.287   1.808   0.201 -0.6767 -0.0971 -0.2688
  793MOL0     C 6974  10.847   1.619   0.141 -0.6253 -0.2315 -0.1756
  793MOL0     C 6975  10.794   1.718   0.228  0.4037 -0.0623  0.4318
  793MOL0     C 6976  10.661   1.729   0.264 -0.9149 -0.3230 -0.5272
  793MOL0     C 6977  10.570   1.625   0.228 -0.4775 -0.3000 -1.0864
  793MOL0     O 6978  10.445   1.636   0.283 -0.2484 -0.9967 -0.1967
  793MOL0     C 6979  10.380   1.512   0.281 -0.4442  0.1636  0.6008
  793MOL0     C 6980  10.259   1.509   0.378  0.0377  0.5013  0.8592
  793MOL0     C 6981  10.166   1.628   0.379 -0.1404 -0.3613 -0.5883
  793MOL0     C 6982  10.027   1.586   0.425 -0.4425  0.1817 -1.2815
  793MOL0     C 6983  10.020   1.547   0.568 -0.5095  0.7288  0.3597
  793MOL0     C 6984  10.026   1.519   0.683  1.1443  0.7057 -0.6976
  793MOL0     C 6985  10.614   1.525   0.144 -0.4099  0.0156  1.1556
  793MOL0     C 6986  10.751   1.515   0.098 -0.7425 -0.2101 -0.2344
  793MOL0     C 6987  10.792   1.398   0.007 -0.1191  0.5932 -1.0824
  793MOL0     H 6988  11.211   1.619  -0.062 -0.9513 -0.4546  0.2177
  793MOL0     H 6989  11.463   1.659  -0.106  1.8053  0.3155  0.8558
  793MOL0     H 6990  11.775   1.732   0.092 -1.4562 -0.5790  0.0732
  793MOL0     H 6991  11.650   1.629   0.005 -1.0359 -0.1353 -2.3845
  793MOL0     H 6992  11.711   1.752  -0.194 -0.9160  0.3340  1.5334
  793MOL0     H 6993  11.836   1.654  -0.136 -1.1241 -0.8112 -0.8647
  793MOL0     H 6994  11.952   1.833  -0.031  0.9866  0.1865 -1.4604
  793MOL0     H 6995  11.830   1.956  -0.043  1.7736  1.0789 -0.4132
  793MOL0     H 6996  12.020   1.986  -0.194  0.4391  0.1506 -2.1086
  793MOL0     H 6997  11.993   1.833  -0.275  2.1595  1.5902 -0.9363
  793MOL0     H 6998  11.770   1.916  -0.361  0.3016  0.5604 -0.2386
  793MOL0     H 6999  11.804   2.063  -0.264  1.2049 -0.3158  0.0394
  793MOL0     H 7000  12.002   2.105  -0.406  0.4926 -2.1144  1.7195
  793MOL0     H 7001  11.969   1.946  -0.496 -2.5516 -1.6477  0.5582
  793MOL0     H 7002  11.776   2.023  -0.581 -0.9104  1.4082 -2.5938
  793MOL0     H 7003  11.919   2.123  -0.620 -1.6228  1.0498 -0.7757
  793MOL0     H 7004  11.675   2.229  -0.534 -1.3362  1.6222  1.8250
  793MOL0     H 7005  11.770   2.227  -0.383  3.6985  2.4841 -0.3159
  793MOL0     H 7006  11.893   2.423  -0.321 -1.0742 -1.6247 -0.4442
  793MOL0     H 7007  11.931   2.760  -0.466 -0.3369 -0.3165  2.2446
  793MOL0     H 7008  11.971   2.664  -0.321 -0.0472  1.2490  1.3577
  793MOL0     H 7009  12.196   2.610  -0.451 -0.5594 -0.7785  1.9673
  793MOL0     H 7010  12.145   2.714  -0.580  1.7142  2.9645 -0.4583
  793MOL0     H 7011  12.141   2.842  -0.313 -0.5026 -0.5542 -0.7654
  793MOL0     H 7012  12.170   2.909  -0.472 -1.4530 -0.2837 -0.3811
  793MOL0     H 7013  12.347   2.760  -0.301 -1.6174  0.3124 -0.6626
  793MOL0     H 7014  12.378   2.927  -0.352  0.9783 -0.0105 -0.1973
  793MOL0     H 7015  12.558   2.871  -0.290 -3.4967  0.0139 -2.0177
  793MOL0     H 7016  12.817   2.907  -0.306 -1.6336  1.3055  0.7806
  793MOL0     H 7017  13.196   2.761  -0.816  2.1505 -1.6636  3.4578
  793MOL0     H 7018  13.383   2.880  -0.940  1.0882  5.1664 -1.7877
  793MOL0     H 7019  13.620   3.160  -0.760  0.3915 -1.7473  0.9172
  793MOL0     H 7020  13.629   3.001  -0.827  1.2327  0.6790  1.5769
  793MOL0     H 7021  13.647   3.109  -1.059 -0.1654 -0.8971  0.8687
  793MOL0     H 7022  13.673   3.269  -0.983  0.2970  0.0133 -0.8739
  793MOL0     H 7023  13.871   3.138  -0.863  0.8773  2.4429 -1.1018
  793MOL0     H 7024  13.849   3.003  -0.959  0.4357 -0.0102  1.5838
  793MOL0     H 7025  13.887   3.274  -1.105 -2.3954 -1.4913 -1.8531
  793MOL0     H 7026  13.917   3.112  -1.158  1.0253  1.0417 -0.9554
  793MOL0     H 7027  14.113   3.072  -1.027 -1.0039  0.5310 -4.4701
  793MOL0     H 7028  14.073   3.201  -0.907 -1.8111 -0.7333 -0.2363
  793MOL0     H 7029  14.087   3.359  -1.102  1.6332  1.6829 -0.3056
  793MOL0     H 7030  14.240   3.291  -1.054  1.4638  2.0775 -2.0550
  793MOL0     H 7031  14.211   3.311  -1.295  1.3540 -0.7419  1.3114
  793MOL0     H 7032  14.067   3.212  -1.298 -0.0219  0.1701  0.1531
  793MOL0     H 7033  14.208   3.000  -1.276  4.3089 -2.7251 -4.8822
  793MOL0     H 7034  14.286   3.120  -1.377  1.1467  0.1250 -0.5365
  793MOL0     H 7035  13.320   3.228  -0.704  2.0935 -0.9654  5.2165
  793MOL0     H 7036  13.112   3.132  -0.621  0.7619  2.1966 -1.2305
  793MOL0     H 7037  12.797   2.745  -0.714 -0.6500 -0.4908 -0.7647
  793MOL0     H 7038  12.569   2.699  -0.679  0.4924 -0.1005  0.0224
  793MOL0     H 7039  11.472   1.918   0.232  2.0498  0.3691 -1.8477
  793MOL0     H 7040  11.239   1.855   0.286 -0.5607  0.3837 -0.4666
  793MOL0     H 7041  10.860   1.795   0.267  1.2968  0.5070 -1.9926
  793MOL0     H 7042  10.624   1.815   0.318 -0.2624  1.5510 -2.8819
  793MOL0     H 7043  10.449   1.432   0.308  0.1958  1.3269  2.5884
  793MOL0     H 7044  10.337   1.481   0.185  0.1825 -1.4545  0.8069
  793MOL0     H 7045  10.296   1.489   0.479 -0.9067 -4.3095  0.4585
  793MOL0     H 7046  10.205   1.419   0.348  1.8492 -0.0919 -0.7974
  793MOL0     H 7047  10.160   1.677   0.281 -0.6912 -1.1100 -0.9438
  793MOL0     H 7048  10.197   1.704   0.451 -1.3453 -1.0187  0.6751
  793MOL0     H 7049   9.953   1.664   0.404  0.1713  1.8968  2.1236
  793MOL0     H 7050  10.000   1.501   0.361 -1.0999  0.7172 -1.7259
  793MOL0     H 7051  10.045   1.518   0.789 -3.4388  4.1919  0.4450
  793MOL0     H 7052  10.554   1.435   0.131 -1.0624  0.6535 -0.5780
  793MOL0     H 7053  10.843   1.328   0.074 -1.2474  0.3698 -0.4347
  793MOL0     H 7054  10.705   1.351  -0.040 -0.8682  0.8982 -0.0444
  793MOL0     H 7055  10.859   1.423  -0.076 -0.0392  0.2736 -1.1147
  794MOL0     O 7056   4.919   5.881   0.213 -0.3644 -0.4033 -0.3616
  794MOL0     C 7057   4.947   5.785   0.142 -0.5671  0.5485 -0.5298
  794MOL0     O 7058   5.010   5.787   0.026 -0.5386  0.4910  0.1535
  794MOL0     C 7059   5.021   5.903  -0.050 -0.9338 -0.0328 -0.5479
  794MOL0     C 7060   4.917   5.990  -0.075  0.0191  0.4013  0.5388
  794MOL0     C 7061   4.932   6.106  -0.157  0.1036  0.0514 -0.4452
  794MOL0     C 7062   5.053   6.135  -0.207 -0.5827 -0.1847  0.4237
  794MOL0     O 7063   5.050   6.253  -0.273  0.1357  0.3562 -0.1067
  794MOL0     C 7064   5.178   6.288  -0.328 -0.3951  0.4321 -0.2917
  794MOL0     C 7065   5.164   6.424  -0.386 -0.1457 -0.6608 -0.1814
  794MOL0     C 7066   5.298   6.499  -0.404  0.3464 -0.3652 -0.3615
  794MOL0     C 7067   5.397   6.414  -0.482 -0.8582 -1.0724 -0.0254
  794MOL0     C 7068   5.537   6.480  -0.517  0.8483 -0.4406  0.4560
  794MOL0     C 7069   5.622   6.369  -0.582  0.3392 -0.3075 -0.5622
  794MOL0     C 7070   5.771   6.418  -0.581  0.4468 -0.0887 -0.2297
  794MOL0     C 7071   5.853   6.349  -0.689 -0.2252 -0.1048 -0.6002
  794MOL0     N 7072   5.993   6.378  -0.664 -0.0145  0.5526 -0.3100
  794MOL0     C 7073   6.072   6.341  -0.554  0.5311  0.8733 -0.0900
  794MOL0     C 7074   6.185   6.400  -0.580 -0.3536  0.1483  0.1455
  794MOL0     C 7075   6.298   6.396  -0.485  1.0803 -0.2032 -0.0482
  794MOL0     C 7076   6.373   6.260  -0.515  0.1665  1.1533 -0.0322
  794MOL0     C 7077   6.438   6.239  -0.651  0.0615 -0.1388 -0.4127
  794MOL0     C 7078   6.535   6.122  -0.669 -0.2266 -0.0326 -0.2486
  794MOL0     O 7079   6.633   6.120  -0.563  0.1798 -0.3551 -0.2606
  794MOL0     C 7080   6.749   6.056  -0.588  0.1499  0.3218 -0.2067
  794MOL0     C 7081   6.780   5.978  -0.700  0.1518  0.3059  0.4722
  794MOL0     C 7082   6.899   5.909  -0.700  0.2089  0.3999  0.2255
  794MOL0     C 7083   6.988   5.901  -0.590 -0.3418 -0.3155  1.2472
  794MOL0     C 7084   7.109   5.817  -0.580  0.3030  0.5647  0.8532
  794MOL0     O 7085   7.173   5.802  -0.456 -0.1699  0.2723 -0.2952
  794MOL0     C 7086   7.301   5.750  -0.455 -1.0861 -0.3327  0.7113
  794MOL0     C 7087   7.406   5.811  -0.394  0.0546  0.4550 -0.3354
  794MOL0     C 7088   7.532   5.757  -0.377 -0.2093  0.5108  0.3628
  794MOL0     C 7089   7.568   5.638  -0.440  0.0162  0.4581 -0.6528
  794MOL0     O 7090   7.692   5.581  -0.410  0.0797  0.1047  0.6798
  794MOL0     C 7091   7.715   5.449  -0.464 -0.0576  0.2233 -0.1034
  794MOL0     C 7092   7.854   5.418  -0.419  0.4454  0.0382  0.1604
  794MOL0     C 7093   7.969   5.502  -0.466  0.0024  0.1363 -0.0062
  794MOL0     C 7094   8.000   5.466  -0.606  0.4948  0.2043  0.3912
  794MOL0     C 7095   8.121   5.550  -0.658  0.2080  0.0016  1.7746
  794MOL0     C 7096   8.183   5.529  -0.798 -0.2755 -0.2067  0.4063
  794MOL0     C 7097   8.093   5.538  -0.910  0.2768  1.0371 -0.1620
  794MOL0     C 7098   8.157   5.523  -1.051  0.3691 -0.6221 -0.8023
  794MOL0    Cl 7099   8.045   5.593  -1.179  0.0043  0.3184  0.3920
  794MOL0     C 7100   7.466   5.570  -0.510  0.3091 -0.0706  0.2855
  794MOL0     C 7101   7.339   5.627  -0.520  0.2471  0.3521  0.5420
  794MOL0     O 7102   7.147   5.775  -0.691 -0.1952 -0.3272  0.1619
  794MOL0     C 7103   6.949   5.974  -0.479  0.9198 -0.1034 -0.8205
  794MOL0     C 7104   6.832   6.049  -0.476 -0.1299  0.4779  0.7735
  794MOL0     N 7105   6.185   6.463  -0.700  0.0986 -0.2120  0.7549
  794MOL0     N 7106   6.073   6.441  -0.757  0.5095  0.0077 -0.1423
  794MOL0     C 7107   5.157   6.043  -0.191 -0.5344  0.8697  0.1377
  794MOL0     C 7108   5.142   5.928  -0.109  0.5034 -0.4477  0.7067
  794MOL0     C 7109   4.913   5.655   0.203 -0.2378  0.0553 -0.0810
  794MOL0     C 7110   4.984   5.539   0.150  0.5009 -0.5571  0.1105
  794MOL0     C 7111   4.942   5.408   0.186  0.4763  0.0211  0.7872
  794MOL0     C 7112   4.835   5.387   0.278 -0.6707  0.1610 -0.4354
  794MOL0     O 7113   4.792   5.267   0.331 -0.4212 -0.3973 -0.1050
  794MOL0     C 7114   4.856   5.140   0.327 -0.4993 -0.6403  0.6214
  794MOL0     C 7115   4.850   5.063   0.196 -0.3241  0.6608 -0.3540
  794MOL0     C 7116   4.931   4.935   0.175 -0.3704  0.3516 -0.7393
  794MOL0     C 7117   5.085   4.960   0.190  0.3326  0.5662  0.3520
  794MOL0     C 7118   5.140   5.056   0.095 -0.0095  0.4382 -0.2681
  794MOL0     C 7119   5.182   5.139   0.015  0.0826 -0.3397 -0.1383
  794MOL0     C 7120   4.782   5.506   0.330 -0.2736  0.7883 -0.0414
  794MOL0     C 7121   4.808   5.632   0.293  0.4115 -0.9234  0.3682
  794MOL0     C 7122   4.718   5.744   0.354  0.1612  0.2794  0.2378
  794MOL0     H 7123   4.829   5.982  -0.012 -1.7957  0.6484 -1.8025
  794MOL0     H 7124   4.855   6.181  -0.147 -1.3325 -1.5888  2.1220
  794MOL0     H 7125   5.258   6.283  -0.254  0.4872  0.0271 -1.2519
  794MOL0     H 7126   5.199   6.217  -0.409  2.4956  0.8008  0.0403
  794MOL0     H 7127   5.115   6.480  -0.305  1.1713 -0.2619  0.3544
  794MOL0     H 7128   5.094   6.423  -0.470 -0.7238  0.6785  0.2486
  794MOL0     H 7129   5.344   6.518  -0.307  1.6204  1.5876 -1.2965
  794MOL0     H 7130   5.282   6.595  -0.454 -1.3394 -0.7356 -0.6237
  794MOL0     H 7131   5.416   6.328  -0.418  1.0618 -0.4435  0.3217
  794MOL0     H 7132   5.349   6.385  -0.576  2.6830 -1.9073 -1.7941
  794MOL0     H 7133   5.520   6.562  -0.588  0.3842 -1.3540 -0.5142
  794MOL0     H 7134   5.577   6.537  -0.433  4.0015  2.2030 -2.5242
  794MOL0     H 7135   5.617   6.280  -0.518  0.9645  2.2375  3.3671
  794MOL0     H 7136   5.593   6.346  -0.685  1.9538 -0.8853 -0.9300
  794MOL0     H 7137   5.802   6.411  -0.476 -3.7863 -1.2065  1.1478
  794MOL0     H 7138   5.768   6.523  -0.611  1.3818 -0.0416 -0.1808
  794MOL0     H 7139   5.829   6.244  -0.675 -1.1834 -0.1016 -1.9936
  794MOL0     H 7140   5.827   6.384  -0.789  0.3661  1.2759 -0.3052
  794MOL0     H 7141   6.048   6.286  -0.464  1.1126 -4.0036 -2.5366
  794MOL0     H 7142   6.356   6.489  -0.475  1.7061 -0.7767  2.0821
  794MOL0     H 7143   6.241   6.400  -0.393  0.1739  0.8805 -0.6308
  794MOL0     H 7144   6.458   6.250  -0.448  1.1686  2.7991 -1.0048
  794MOL0     H 7145   6.309   6.174  -0.489  0.5439  0.8545 -0.0816
  794MOL0     H 7146   6.492   6.329  -0.681  0.9564 -0.6274 -0.3220
  794MOL0     H 7147   6.358   6.221  -0.723 -0.8696  1.6250  0.1375
  794MOL0     H 7148   6.578   6.137  -0.769 -1.4898  0.2008 -0.7843
  794MOL0     H 7149   6.481   6.027  -0.678  0.1236 -0.1671 -1.0202
  794MOL0     H 7150   6.714   5.973  -0.786 -0.9662 -0.8248  1.3609
  794MOL0     H 7151   6.920   5.843  -0.783  0.9793  0.3408  0.4555
  794MOL0     H 7152   7.393   5.912  -0.357  1.2461  0.5525 -0.1331
  794MOL0     H 7153   7.602   5.818  -0.322  2.1404 -0.0779 -1.7865
  794MOL0     H 7154   7.645   5.378  -0.418  1.3909 -1.0931  0.1594
  794MOL0     H 7155   7.699   5.430  -0.571 -1.4133 -1.3115  0.3204
  794MOL0     H 7156   7.868   5.420  -0.311  1.3007 -1.3856  0.1023
  794MOL0     H 7157   7.874   5.313  -0.443 -0.1170  0.3257 -1.8144
  794MOL0     H 7158   7.936   5.606  -0.463 -1.7038 -0.3162 -1.8661
  794MOL0     H 7159   8.065   5.489  -0.414  1.4261  1.7683 -2.0533
  794MOL0     H 7160   7.914   5.492  -0.668  0.6506 -0.8770 -0.3057
  794MOL0     H 7161   8.020   5.362  -0.633  0.9748  0.8724 -2.1065
  794MOL0     H 7162   8.200   5.549  -0.582  0.9872  3.8617  1.2422
  794MOL0     H 7163   8.087   5.654  -0.649  1.1241  0.5352 -0.2628
  794MOL0     H 7164   8.257   5.608  -0.814 -1.6378  0.9162 -0.6056
  794MOL0     H 7165   8.224   5.427  -0.799 -0.9291 -0.4785 -0.5671
  794MOL0     H 7166   8.054   5.640  -0.902 -0.4302  1.1415 -3.3920
  794MOL0     H 7167   8.007   5.471  -0.903  0.9883  0.1993  0.8281
  794MOL0     H 7168   8.253   5.574  -1.064  0.5293 -0.9613 -0.9729
  794MOL0     H 7169   8.178   5.416  -1.063  0.2039 -0.6617 -0.7483
  794MOL0     H 7170   7.482   5.476  -0.562 -1.5026 -0.0396 -0.4164
  794MOL0     H 7171   7.263   5.576  -0.578  1.6162 -0.7997 -0.3150
  794MOL0     H 7172   7.025   5.970  -0.402  4.7971 -0.4855 -4.3704
  794MOL0     H 7173   6.802   6.108  -0.390  0.6168  0.3180  1.1527
  794MOL0     H 7174   5.259   6.043  -0.229 -0.5038 -2.1033 -0.0321
  794MOL0     H 7175   5.220   5.856  -0.086  1.1087 -0.4604 -1.1745
  794MOL0     H 7176   5.062   5.552   0.076  1.4355  0.7017  1.2615
  794MOL0     H 7177   4.993   5.328   0.133  1.4702 -0.5301  2.4891
  794MOL0     H 7178   4.816   5.073   0.404 -4.0859  0.3777 -0.1547
  794MOL0     H 7179   4.964   5.141   0.344  0.0858 -2.9363 -2.1922
  794MOL0     H 7180   4.875   5.134   0.117  3.6575 -0.1711 -0.0344
  794MOL0     H 7181   4.747   5.026   0.186  0.1993 -0.3870 -2.3160
  794MOL0     H 7182   4.914   4.885   0.079 -0.0746  0.9904 -1.1284
  794MOL0     H 7183   4.907   4.865   0.255  3.6983 -1.2252 -0.6416
  794MOL0     H 7184   5.106   4.989   0.293 -0.2048  1.0038  0.3449
  794MOL0     H 7185   5.122   4.860   0.164 -0.0187  0.2085  1.1819
  794MOL0     H 7186   5.228   5.209  -0.052  1.4240 -1.1658 -0.1213
  794MOL0     H 7187   4.710   5.484   0.408 -2.1753  1.6736 -1.4694
  794MOL0     H 7188   4.759   5.779   0.449  0.3480 -3.7696  1.8405
  794MOL0     H 7189   4.687   5.822   0.283 -0.7857  1.9448  2.3757
  794MOL0     H 7190   4.624   5.704   0.394 -0.2707  1.2244  0.2118
  795MOL0     O 7191   1.282   6.129   1.723  0.5121  0.0590 -0.1829
  795MOL0     C 7192   1.299   6.246   1.693  0.2146 -0.1418  0.1999
  795MOL0     O 7193   1.432   6.290   1.678 -0.1559  0.1505 -0.4750
  795MOL0     C 7194   1.451   6.390   1.591 -0.2587 -0.3082  0.2959
  795MOL0     C 7195   1.523   6.501   1.631  0.8133 -0.2471 -0.1398
  795MOL0     C 7196   1.537   6.614   1.558  0.5680 -0.0497  1.1346
  795MOL0     C 7197   1.476   6.621   1.436  0.0951 -0.2856 -0.5861
  795MOL0     O 7198   1.504   6.736   1.359 -0.1944  0.1504 -0.7420
  795MOL0     C 7199   1.396   6.809   1.297 -0.0657 -0.3169  0.8544
  795MOL0     C 7200   1.439   6.949   1.252 -0.5654  0.0241 -0.2841
  795MOL0     C 7201   1.328   7.024   1.176 -0.2434  0.0202  0.2764
  795MOL0     C 7202   1.381   7.153   1.114  0.3454  0.5330  0.3296
  795MOL0     C 7203   1.467   7.125   0.987  0.2602 -0.6387 -0.0150
  795MOL0     C 7204   1.493   7.250   0.908 -0.0893 -0.0868 -0.5462
  795MOL0     C 7205   1.584   7.239   0.783 -0.0559  0.2227 -0.4737
  795MOL0     C 7206   1.737   7.222   0.811  0.0939  1.0099 -0.3845
  795MOL0     N 7207   1.804   7.181   0.688 -0.3581 -0.1438  0.7135
  795MOL0     C 7208   1.827   7.275   0.587 -0.1315  0.9533 -0.4449
  795MOL0     C 7209   1.910   7.213   0.500  0.3257  0.4988  0.2792
  795MOL0     C 7210   1.975   7.266   0.382 -0.5519 -0.2612  1.5327
  795MOL0     C 7211   2.100   7.357   0.405  0.0558  0.3831 -0.5566
  795MOL0     C 7212   2.082   7.485   0.327 -0.4925 -0.4411 -0.2391
  795MOL0     C 7213   2.208   7.558   0.306  0.2531 -0.5258  0.3785
  795MOL0     O 7214   2.285   7.487   0.209  0.6565  0.8206  0.2206
  795MOL0     C 7215   2.375   7.541   0.125  0.3996 -1.1072 -0.6836
  795MOL0     C 7216   2.398   7.493  -0.009  0.1630  0.4509 -0.3382
  795MOL0     C 7217   2.495   7.548  -0.082 -1.3682 -0.5755 -0.5771
  795MOL0     C 7218   2.578   7.653  -0.035  0.1667 -0.3804 -0.5691
  795MOL0     C 7219   2.678   7.712  -0.124  0.3973 -0.4268 -0.9686
  795MOL0     O 7220   2.698   7.847  -0.111  0.2824 -0.8349  0.7091
  795MOL0     C 7221   2.799   7.913  -0.175 -0.2941 -0.7320  0.5912
  795MOL0     C 7222   2.768   8.034  -0.234 -1.0682 -0.5442 -0.7032
  795MOL0     C 7223   2.858   8.107  -0.311 -0.2312 -0.1163  0.8045
  795MOL0     C 7224   2.991   8.065  -0.311  0.9977  0.2612 -0.8267
  795MOL0     O 7225   3.092   8.135  -0.366  0.5358  0.2066 -0.0194
  795MOL0     C 7226   3.067   8.273  -0.410 -0.0204 -0.3195  0.8694
  795MOL0     C 7227   3.190   8.315  -0.490 -0.0237 -0.0072  1.1112
  795MOL0     C 7228   3.187   8.450  -0.569  0.3208  0.2425 -0.3833
  795MOL0     C 7229   3.321   8.490  -0.624 -0.2404 -0.2991 -0.4240
  795MOL0     C 7230   3.310   8.604  -0.726 -0.1897 -0.4815  0.2792
  795MOL0     C 7231   3.447   8.676  -0.740  0.2092  0.0646 -0.9583
  795MOL0     C 7232   3.579   8.589  -0.731  0.1672 -0.9010  0.4010
  795MOL0     C 7233   3.701   8.660  -0.785 -0.2852 -0.1273  0.2983
  795MOL0    Cl 7234   3.838   8.533  -0.748 -0.2002 -0.2443  0.1789
  795MOL0     C 7235   3.027   7.935  -0.252 -0.0623 -0.5912  0.9878
  795MOL0     C 7236   2.923   7.859  -0.192 -0.8219 -0.8130  0.1874
  795MOL0     O 7237   2.721   7.636  -0.209  0.2421  0.7901 -0.3731
  795MOL0     C 7238   2.561   7.704   0.095  0.2615  0.3147 -0.4456
  795MOL0     C 7239   2.461   7.642   0.177 -0.6028 -0.1516 -0.0141
  795MOL0     N 7240   1.935   7.090   0.557  0.0352  0.0992  0.9324
  795MOL0     N 7241   1.879   7.072   0.665 -0.7372 -0.1017 -0.6596
  795MOL0     C 7242   1.396   6.516   1.388  0.1929  0.1983  0.2840
  795MOL0     C 7243   1.390   6.403   1.463  0.6427  0.5985 -1.0288
  795MOL0     C 7244   1.183   6.335   1.718  0.0651  0.9139 -0.2549
  795MOL0     C 7245   1.182   6.440   1.812  0.2422 -0.6258  0.7141
  795MOL0     C 7246   1.072   6.513   1.835 -0.3824 -0.0416 -0.7176
  795MOL0     C 7247   0.962   6.505   1.744 -0.0997  0.1689 -0.0210
  795MOL0     O 7248   0.832   6.562   1.757  0.1444 -0.6985 -0.4428
  795MOL0     C 7249   0.795   6.631   1.872 -0.0132 -0.4427 -0.0828
  795MOL0     C 7250   0.780   6.780   1.836  0.5173 -0.1074  0.0008
  795MOL0     C 7251   0.726   6.869   1.956  0.0463  0.1293 -0.3235
  795MOL0     C 7252   0.574   6.878   1.961 -0.3294  0.5946 -0.7469
  795MOL0     C 7253   0.512   6.933   1.844 -1.0114 -0.4713 -0.3280
  795MOL0     C 7254   0.477   6.992   1.745 -1.1338 -0.7955  0.4982
  795MOL0     C 7255   0.956   6.400   1.648 -0.4481 -0.1333 -0.2195
  795MOL0     C 7256   1.063   6.314   1.637 -0.6297 -0.2962  1.1202
  795MOL0     C 7257   1.046   6.210   1.526  0.1694 -0.9080 -0.3676
  795MOL0     H 7258   1.575   6.494   1.726  0.8307  0.2312 -0.1092
  795MOL0     H 7259   1.607   6.689   1.593  0.0378  2.0011 -1.8609
  795MOL0     H 7260   1.360   6.747   1.215 -1.0447 -0.6162  1.4966
  795MOL0     H 7261   1.311   6.822   1.364  1.7834  0.0987  3.2733
  795MOL0     H 7262   1.534   6.939   1.198  0.6945 -0.7968  1.9523
  795MOL0     H 7263   1.454   7.015   1.337 -2.9333 -0.5843  0.6608
  795MOL0     H 7264   1.255   7.056   1.250 -0.9054 -0.3359 -0.2028
  795MOL0     H 7265   1.290   6.962   1.094  1.1343 -0.9313  0.3144
  795MOL0     H 7266   1.299   7.215   1.078 -0.3369 -0.1017  0.7643
  795MOL0     H 7267   1.428   7.224   1.182  1.6280  0.0452 -0.0181
  795MOL0     H 7268   1.572   7.106   1.014  0.0425 -2.9061 -0.5193
  795MOL0     H 7269   1.426   7.053   0.916  3.1764  0.6793 -3.3738
  795MOL0     H 7270   1.392   7.285   0.883 -0.5916  0.7679  2.2530
  795MOL0     H 7271   1.541   7.323   0.974  1.9294 -2.2563  0.5029
  795MOL0     H 7272   1.565   7.334   0.731 -2.4063  1.4965  2.3880
  795MOL0     H 7273   1.550   7.156   0.721 -1.7464  0.2382  0.3874
  795MOL0     H 7274   1.773   7.316   0.853  0.1975  1.0191 -0.4949
  795MOL0     H 7275   1.752   7.140   0.882 -1.0771  1.6451  0.6394
  795MOL0     H 7276   1.790   7.377   0.583  0.9180  1.3373 -0.7809
  795MOL0     H 7277   2.007   7.178   0.326  0.8922  0.9915  0.2903
  795MOL0     H 7278   1.904   7.327   0.327 -0.3004  0.8670  2.4239
  795MOL0     H 7279   2.119   7.382   0.509  1.3561  0.4600 -0.7965
  795MOL0     H 7280   2.173   7.289   0.359  0.2296  1.9520 -2.7525
  795MOL0     H 7281   2.017   7.562   0.370  0.2989  0.9608 -1.4300
  795MOL0     H 7282   2.034   7.456   0.233  0.7317 -0.1952 -0.9673
  795MOL0     H 7283   2.263   7.560   0.400 -0.5151  0.8428  0.8266
  795MOL0     H 7284   2.180   7.657   0.268  0.7511 -0.6866 -0.4088
  795MOL0     H 7285   2.326   7.418  -0.039 -3.7586  3.8896 -0.4366
  795MOL0     H 7286   2.517   7.518  -0.184  1.9067  0.0161 -0.1569
  795MOL0     H 7287   2.664   8.065  -0.224 -1.0814 -0.3612 -1.3783
  795MOL0     H 7288   2.826   8.204  -0.346 -0.3116 -0.6390 -0.6200
  795MOL0     H 7289   2.982   8.275  -0.478  0.1045 -0.9124  0.6856
  795MOL0     H 7290   3.053   8.344  -0.329  0.1779 -0.7975  1.3253
  795MOL0     H 7291   3.264   8.328  -0.411  0.3910  0.4418  0.6580
  795MOL0     H 7292   3.227   8.237  -0.557 -0.2654  1.0499 -0.3112
  795MOL0     H 7293   3.117   8.431  -0.651  2.1604 -0.5195 -1.8530
  795MOL0     H 7294   3.159   8.526  -0.496  1.5823  0.5021 -0.1450
  795MOL0     H 7295   3.371   8.413  -0.683  2.8026  3.1147 -2.7810
  795MOL0     H 7296   3.384   8.520  -0.540  0.6746 -0.0962 -1.1731
  795MOL0     H 7297   3.238   8.682  -0.698 -0.8014 -1.5269  1.6935
  795MOL0     H 7298   3.286   8.578  -0.830 -0.3196  1.0821 -0.1206
  795MOL0     H 7299   3.457   8.745  -0.824  0.5261  2.7368  1.1174
  795MOL0     H 7300   3.451   8.738  -0.650  2.2540  1.2823 -1.8134
  795MOL0     H 7301   3.560   8.497  -0.788 -2.4220  0.2442 -0.7416
  795MOL0     H 7302   3.604   8.569  -0.627  3.0614  1.8186  0.3477
  795MOL0     H 7303   3.698   8.677  -0.893 -1.4938  1.9345  0.5931
  795MOL0     H 7304   3.715   8.754  -0.731 -2.3035 -0.1904  0.9885
  795MOL0     H 7305   3.129   7.899  -0.242  0.2129 -1.0211 -2.3684
  795MOL0     H 7306   2.948   7.761  -0.152 -0.1122 -1.1728 -1.0605
  795MOL0     H 7307   2.622   7.785   0.134 -0.2448 -0.4899  2.2507
  795MOL0     H 7308   2.434   7.669   0.279  1.9501 -0.1432  0.7404
  795MOL0     H 7309   1.343   6.535   1.296  1.6363  1.2213 -0.3740
  795MOL0     H 7310   1.321   6.328   1.425  0.3104 -1.5508  3.2201
  795MOL0     H 7311   1.272   6.463   1.869  0.2522 -0.4960  0.6462
  795MOL0     H 7312   1.076   6.600   1.900  1.7589 -0.3803 -0.3372
  795MOL0     H 7313   0.859   6.618   1.960  2.0780  0.1148 -1.4514
  795MOL0     H 7314   0.697   6.596   1.905  0.8019  0.1099  3.2385
  795MOL0     H 7315   0.711   6.781   1.751  0.3582 -0.2909  0.1283
  795MOL0     H 7316   0.873   6.831   1.807 -1.6184  2.5065 -2.8998
  795MOL0     H 7317   0.751   6.975   1.944 -0.9407  0.5227  0.8198
  795MOL0     H 7318   0.775   6.840   2.049  2.4656  1.1840 -1.1841
  795MOL0     H 7319   0.518   6.792   1.999  0.3118  0.6347  0.3409
  795MOL0     H 7320   0.549   6.949   2.041 -3.3280 -1.9890  0.8406
  795MOL0     H 7321   0.450   7.039   1.652  2.7760 -0.1482 -0.4940
  795MOL0     H 7322   0.863   6.397   1.591 -0.4786  1.4038 -0.2760
  795MOL0     H 7323   0.994   6.243   1.436 -2.8669 -2.8706  0.4898
  795MOL0     H 7324   1.146   6.183   1.490  0.9094  2.2231 -0.9310
  795MOL0     H 7325   0.992   6.126   1.572  1.8015 -2.0403 -0.4335
  796MOL0     O 7326   2.812   8.287   1.344 -0.0246  0.3375 -0.8122
  796MOL0     C 7327   2.703   8.300   1.385 -0.4879  0.5506  0.1498
  796MOL0     O 7328   2.604   8.383   1.325 -0.5692 -0.2443 -1.0888
  796MOL0     C 7329   2.663   8.452   1.225  0.1513 -0.6342  0.0256
  796MOL0     C 7330   2.665   8.400   1.090  0.0458  0.2846  0.3964
  796MOL0     C 7331   2.751   8.458   0.993 -0.6701  0.1053  0.3635
  796MOL0     C 7332   2.819   8.579   1.022  0.1387  0.3494 -1.0474
  796MOL0     O 7333   2.911   8.641   0.936 -0.3387  0.2400  0.6438
  796MOL0     C 7334   2.883   8.613   0.796 -0.2025  0.5194 -0.8132
  796MOL0     C 7335   2.965   8.706   0.704  0.5497  0.1710 -0.6972
  796MOL0     C 7336   3.110   8.682   0.733 -0.6541  0.0664  0.6770
  796MOL0     C 7337   3.185   8.742   0.616  0.3531 -0.1007  0.3549
  796MOL0     C 7338   3.326   8.787   0.669 -0.3870  0.1812 -0.2956
  796MOL0     C 7339   3.409   8.841   0.555 -0.6112  0.0178  0.0401
  796MOL0     C 7340   3.529   8.916   0.605 -0.0579  0.0859 -0.0831
  796MOL0     C 7341   3.655   8.838   0.636  0.4539  0.2930 -0.3635
  796MOL0     N 7342   3.765   8.938   0.643  0.8072 -0.4029  0.1455
  796MOL0     C 7343   3.760   9.061   0.719 -0.3695  0.6236 -0.1280
  796MOL0     C 7344   3.879   9.120   0.688  0.3330 -0.1107 -0.0604
  796MOL0     C 7345   3.925   9.242   0.763  0.3873 -0.5851  0.3468
  796MOL0     C 7346   4.061   9.219   0.828 -0.3242  1.1671 -0.7189
  796MOL0     C 7347   4.103   9.331   0.923  0.2874 -0.3313 -0.7809
  796MOL0     C 7348   4.251   9.367   0.947 -0.1329 -0.3417  0.0101
  796MOL0     O 7349   4.265   9.499   0.993  0.0298  0.9099 -0.1773
  796MOL0     C 7350   4.379   9.563   0.959 -0.3398  0.2338 -0.0679
  796MOL0     C 7351   4.504   9.503   0.922  0.2529 -0.9389  0.5303
  796MOL0     C 7352   4.622   9.577   0.904 -0.2681 -0.2690 -0.2419
  796MOL0     C 7353   4.623   9.711   0.930 -0.3506 -0.5083 -0.9371
  796MOL0     C 7354   4.742   9.793   0.927 -0.2137  0.1954 -0.7004
  796MOL0     O 7355   4.740   9.929   0.947  0.6480 -0.5775 -0.1527
  796MOL0     C 7356   4.855   9.992   0.929 -0.9007  1.0028 -0.4963
  796MOL0     C 7357   4.909  10.030   1.046 -0.0771  0.2466  0.1607
  796MOL0     C 7358   5.037  10.095   1.051 -0.1792 -0.8153  0.3680
  796MOL0     C 7359   5.108  10.121   0.934  0.5893  0.4232  0.3314
  796MOL0     O 7360   5.225  10.192   0.939  0.5033  0.8101 -0.2816
  796MOL0     C 7361   5.319  10.167   0.825  0.2675  0.3698  0.4420
  796MOL0     C 7362   5.458  10.203   0.881 -0.6322  0.3459 -0.6483
  796MOL0     C 7363   5.481  10.346   0.931  0.2320  0.2245  0.5894
  796MOL0     C 7364   5.558  10.423   0.824 -0.2218  0.4092 -0.2044
  796MOL0     C 7365   5.602  10.567   0.874 -0.1574  0.4480 -0.0111
  796MOL0     C 7366   5.705  10.632   0.782 -0.1964 -0.0756  0.0798
  796MOL0     C 7367   5.633  10.673   0.653 -0.6255 -0.6020  0.5038
  796MOL0     C 7368   5.739  10.754   0.567 -0.6313  1.4255 -0.2474
  796MOL0    Cl 7369   5.667  10.859   0.441  0.0763 -0.1536 -0.5524
  796MOL0     C 7370   5.044  10.091   0.814  0.5169 -0.2968  0.7683
  796MOL0     C 7371   4.919  10.027   0.804  0.6333 -0.5654 -0.2538
  796MOL0     O 7372   4.842   9.729   0.896  0.8745 -0.4231  0.2262
  796MOL0     C 7373   4.498   9.779   0.964 -0.5595 -0.0623  0.6892
  796MOL0     C 7374   4.382   9.698   0.989 -0.3219  0.0397  0.2645
  796MOL0     N 7375   3.942   9.050   0.587  0.1335 -0.7647  0.3738
  796MOL0     N 7376   3.878   8.937   0.563 -0.0016  0.1704  0.2098
  796MOL0     C 7377   2.799   8.638   1.150  0.6182  0.8693 -0.0398
  796MOL0     C 7378   2.725   8.577   1.251  0.5507 -0.2575  0.2176
  796MOL0     C 7379   2.650   8.207   1.483 -1.2099  0.9864  0.5581
  796MOL0     C 7380   2.523   8.152   1.460 -0.7137  0.4173 -0.5115
  796MOL0     C 7381   2.474   8.047   1.543  0.4955  0.0335 -0.0901
  796MOL0     C 7382   2.552   8.006   1.654  0.1346  1.0379  0.1107
  796MOL0     O 7383   2.530   7.893   1.724 -0.1093  0.0617 -0.3293
  796MOL0     C 7384   2.399   7.864   1.761  0.0045 -0.0716 -0.5253
  796MOL0     C 7385   2.350   7.944   1.883 -0.0355  0.0382 -0.3905
  796MOL0     C 7386   2.224   7.877   1.935  0.2736 -0.0548 -0.3918
  796MOL0     C 7387   2.174   7.952   2.062  0.0458 -0.1769  0.9292
  796MOL0     C 7388   2.048   7.893   2.102  0.8525  0.0522 -0.0037
  796MOL0     C 7389   1.946   7.828   2.125 -0.2819 -0.5786  0.2571
  796MOL0     C 7390   2.671   8.060   1.676 -0.4363 -0.4599 -0.0871
  796MOL0     C 7391   2.726   8.158   1.592  0.5389  0.8463  0.0983
  796MOL0     C 7392   2.867   8.195   1.617 -0.1357 -0.6274  0.5962
  796MOL0     H 7393   2.614   8.304   1.081 -2.5445  1.1990  3.2764
  796MOL0     H 7394   2.763   8.406   0.898  0.3527 -0.0908  0.5853
  796MOL0     H 7395   2.912   8.511   0.767 -1.2416  1.2102 -4.9570
  796MOL0     H 7396   2.779   8.631   0.770  0.0289  0.4289 -1.8759
  796MOL0     H 7397   2.921   8.806   0.719 -1.8141 -0.5676 -2.1690
  796MOL0     H 7398   2.938   8.671   0.604 -4.3559 -3.7996  1.5437
  796MOL0     H 7399   3.138   8.577   0.746  2.6260  0.8367  0.6450
  796MOL0     H 7400   3.149   8.732   0.823 -1.1048  0.7684  0.4871
  796MOL0     H 7401   3.209   8.672   0.536  4.8030  1.5624 -0.0183
  796MOL0     H 7402   3.143   8.831   0.568  1.1188 -0.6543 -1.4343
  796MOL0     H 7403   3.315   8.859   0.750  0.9079 -1.5551  1.5194
  796MOL0     H 7404   3.382   8.702   0.709  2.0745  1.9980  0.3468
  796MOL0     H 7405   3.448   8.762   0.490 -1.0780  0.3615 -0.6677
  796MOL0     H 7406   3.351   8.906   0.489 -1.6548 -0.6345  0.2926
  796MOL0     H 7407   3.497   8.976   0.690 -0.9703 -2.5545  1.5405
  796MOL0     H 7408   3.557   8.994   0.533  1.5871  0.7120  1.1678
  796MOL0     H 7409   3.641   8.776   0.726  0.8764 -0.6639 -0.9440
  796MOL0     H 7410   3.662   8.769   0.552 -1.5994  0.0872 -0.4290
  796MOL0     H 7411   3.687   9.098   0.790 -0.5375  1.4543 -0.7174
  796MOL0     H 7412   3.950   9.327   0.698 -1.5657  0.4443  0.8635
  796MOL0     H 7413   3.851   9.275   0.836  0.0415 -2.3098  0.8129
  796MOL0     H 7414   4.062   9.133   0.896 -2.1800  0.4329 -1.5708
  796MOL0     H 7415   4.141   9.207   0.755  1.3225 -0.7810  1.2576
  796MOL0     H 7416   4.054   9.320   1.020  2.1038  1.4292  0.4144
  796MOL0     H 7417   4.063   9.422   0.878 -1.3755 -0.9562 -0.6156
  796MOL0     H 7418   4.303   9.365   0.851  2.9652 -0.2354  1.5432
  796MOL0     H 7419   4.300   9.288   1.003 -2.1184 -0.8846  1.0694
  796MOL0     H 7420   4.519   9.396   0.923 -1.5332 -1.2473 -0.6057
  796MOL0     H 7421   4.713   9.528   0.869 -1.6850 -2.4648 -1.0493
  796MOL0     H 7422   4.857   9.994   1.135  2.7488  1.0393  2.2755
  796MOL0     H 7423   5.093  10.117   1.141 -0.3191 -1.9355  0.7469
  796MOL0     H 7424   5.308  10.063   0.793  0.4761  0.8065 -1.1367
  796MOL0     H 7425   5.307  10.231   0.737  0.2515  0.1208  0.2622
  796MOL0     H 7426   5.473  10.135   0.965 -1.4054 -0.1683 -0.9168
  796MOL0     H 7427   5.531  10.169   0.807 -0.5464 -0.9554  0.0081
  796MOL0     H 7428   5.389  10.404   0.941  0.3390  0.8879 -1.7516
  796MOL0     H 7429   5.527  10.335   1.029  0.2220 -0.3475  0.5308
  796MOL0     H 7430   5.498  10.436   0.733 -2.1568 -1.8467  0.6147
  796MOL0     H 7431   5.636  10.353   0.791 -1.0364 -0.3726 -0.5192
  796MOL0     H 7432   5.648  10.553   0.972  1.4905  0.1453 -0.7739
  796MOL0     H 7433   5.516  10.633   0.885  0.9583  1.9722 -0.0411
  796MOL0     H 7434   5.744  10.717   0.838 -0.2448 -2.8421  4.8113
  796MOL0     H 7435   5.785  10.560   0.763 -0.5387 -0.7179  0.9848
  796MOL0     H 7436   5.550  10.740   0.679  0.4696  0.7185  0.7189
  796MOL0     H 7437   5.594  10.590   0.593  0.5128  0.0398 -1.2293
  796MOL0     H 7438   5.811  10.808   0.630 -0.3914  3.0507 -1.8190
  796MOL0     H 7439   5.793  10.674   0.516 -4.4234 -2.3211  1.0822
  796MOL0     H 7440   5.082  10.116   0.715  0.1046  2.0246  1.1293
  796MOL0     H 7441   4.877   9.994   0.710  1.8327  0.1946 -1.0875
  796MOL0     H 7442   4.502   9.883   0.993  2.8253 -0.0668  0.5370
  796MOL0     H 7443   4.294   9.744   1.032 -0.1889 -0.4529  1.0754
  796MOL0     H 7444   2.854   8.730   1.164  1.3995  0.0875  2.4944
  796MOL0     H 7445   2.693   8.646   1.328  0.2144 -0.9409  0.7046
  796MOL0     H 7446   2.452   8.184   1.384 -3.0723  0.8454  1.7555
  796MOL0     H 7447   2.374   8.011   1.521  0.5321 -0.0558 -0.1062
  796MOL0     H 7448   2.397   7.758   1.790  0.2596 -0.4459 -1.8004
  796MOL0     H 7449   2.326   7.876   1.680 -2.6267 -4.1807  0.9356
  796MOL0     H 7450   2.315   8.044   1.854 -2.5374 -1.2113 -2.0528
  796MOL0     H 7451   2.425   7.942   1.962 -1.9761  3.4330  1.7989
  796MOL0     H 7452   2.243   7.773   1.965  2.1025  1.2158  3.4720
  796MOL0     H 7453   2.142   7.877   1.863 -0.2190 -0.4799  0.1558
  796MOL0     H 7454   2.238   7.955   2.151 -0.7237  1.7689  1.4583
  796MOL0     H 7455   2.155   8.052   2.022 -0.0593 -1.0918 -1.4303
  796MOL0     H 7456   1.860   7.770   2.149  0.2211 -1.4876 -0.0921
  796MOL0     H 7457   2.726   8.012   1.756 -1.5677 -1.3503  0.1710
  796MOL0     H 7458   2.882   8.302   1.634  1.3500 -0.4795 -1.4311
  796MOL0     H 7459   2.905   8.134   1.700  0.9746 -2.2933 -1.0517
  796MOL0     H 7460   2.931   8.161   1.536  0.2668  1.2740  0.0736
  797MOL0     O 7461   8.706   0.975   1.278  0.1555 -0.6650  0.1483
  797MOL0     C 7462   8.645   0.874   1.307  0.2280 -0.2086  0.1010
  797MOL0     O 7463   8.692   0.744   1.290  0.3801  0.2317  0.0555
  797MOL0     C 7464   8.801   0.735   1.207 -0.0570 -0.2333  0.1074
  797MOL0     C 7465   8.784   0.742   1.070  0.1682 -0.1850  0.2052
  797MOL0     C 7466   8.892   0.712   0.981  0.0201 -0.3151  0.7247
  797MOL0     C 7467   9.025   0.690   1.027 -0.2081  0.4575  0.4859
  797MOL0     O 7468   9.125   0.658   0.943  0.1120 -1.3086 -0.2525
  797MOL0     C 7469   9.245   0.739   0.948  0.4340 -0.0452 -0.2834
  797MOL0     C 7470   9.288   0.735   0.806 -1.3947  0.5880  0.3746
  797MOL0     C 7471   9.387   0.845   0.777 -0.5155 -0.2902  0.3734
  797MOL0     C 7472   9.440   0.819   0.630 -1.3262 -0.0530 -0.0978
  797MOL0     C 7473   9.563   0.732   0.638 -0.1426 -0.7203  0.9169
  797MOL0     C 7474   9.601   0.678   0.498  0.3793 -0.0334 -0.4997
  797MOL0     C 7475   9.727   0.594   0.492  0.6901 -0.2066 -0.3260
  797MOL0     C 7476   9.697   0.446   0.537 -0.2290  0.3722 -0.7633
  797MOL0     N 7477   9.821   0.358   0.534  0.3043  0.5580  0.2536
  797MOL0     C 7478   9.927   0.362   0.621 -0.2586  0.7047  0.1179
  797MOL0     C 7479  10.026   0.278   0.560 -1.2846 -0.2153 -0.3711
  797MOL0     C 7480  10.176   0.248   0.593 -0.3907  0.1834  1.2227
  797MOL0     C 7481  10.239   0.364   0.673  0.0822 -0.2013 -0.7917
  797MOL0     C 7482  10.252   0.487   0.591 -0.2963  0.0301 -0.2958
  797MOL0     C 7483  10.321   0.600   0.668  0.9257  0.5198  0.2262
  797MOL0     O 7484  10.459   0.555   0.681  1.2002  0.0285 -0.1233
  797MOL0     C 7485  10.548   0.648   0.719  0.0289  0.0867 -0.9456
  797MOL0     C 7486  10.680   0.610   0.704  0.7092  0.2223 -0.1110
  797MOL0     C 7487  10.769   0.717   0.719 -0.3205  0.6624  0.4040
  797MOL0     C 7488  10.739   0.850   0.748  0.4385  0.1709 -0.0280
  797MOL0     C 7489  10.844   0.946   0.773 -0.9961  1.3817 -0.7066
  797MOL0     O 7490  10.963   0.941   0.712  0.1286  0.3396 -0.4707
  797MOL0     C 7491  11.059   1.039   0.747  0.9519 -0.9833 -1.0420
  797MOL0     C 7492  11.117   1.035   0.878  0.2992 -0.4804  0.1988
  797MOL0     C 7493  11.213   1.124   0.905 -0.1462 -0.5050 -0.8532
  797MOL0     C 7494  11.241   1.229   0.815 -0.2159 -0.1687 -0.1199
  797MOL0     O 7495  11.339   1.317   0.860 -0.3593  0.3024  0.5836
  797MOL0     C 7496  11.336   1.456   0.814  0.0234  0.9243  0.1173
  797MOL0     C 7497  11.430   1.543   0.910  0.1710  0.0723  0.4581
  797MOL0     C 7498  11.579   1.521   0.900 -0.1742 -0.3531 -0.9840
  797MOL0     C 7499  11.652   1.622   0.974  0.0360 -0.7031  1.5583
  797MOL0     C 7500  11.800   1.631   0.926  0.3058 -0.0694 -0.8946
  797MOL0     C 7501  11.878   1.714   1.033  0.2545  0.0016 -0.7649
  797MOL0     C 7502  11.914   1.631   1.161 -0.2384 -0.1262  0.6596
  797MOL0     C 7503  12.039   1.557   1.131 -0.8817  0.1659 -0.7898
  797MOL0    Cl 7504  12.054   1.460   1.279  0.3948 -0.1660 -0.1528
  797MOL0     C 7505  11.176   1.240   0.691  0.1786 -0.2296  0.5825
  797MOL0     C 7506  11.082   1.145   0.655 -0.0649 -0.1575  0.2211
  797MOL0     O 7507  10.813   1.036   0.848  0.5284  0.2100  0.1634
  797MOL0     C 7508  10.599   0.880   0.762 -0.3851 -0.2741  0.7767
  797MOL0     C 7509  10.505   0.778   0.751 -0.6835  0.2615 -0.1481
  797MOL0     N 7510   9.963   0.214   0.460 -0.9300 -0.1265  0.3484
  797MOL0     N 7511   9.847   0.268   0.439  0.3438  0.0794 -0.4776
  797MOL0     C 7512   9.048   0.699   1.168  0.1995  0.0868 -0.1062
  797MOL0     C 7513   8.933   0.726   1.251  0.6129 -0.3852 -0.3884
  797MOL0     C 7514   8.511   0.890   1.371  0.1659 -0.2057 -0.0010
  797MOL0     C 7515   8.419   0.797   1.314 -0.5636 -0.0528  0.2815
  797MOL0     C 7516   8.290   0.789   1.357  0.3039 -0.0550 -0.2137
  797MOL0     C 7517   8.257   0.860   1.470 -0.5719 -0.4592 -0.1036
  797MOL0     O 7518   8.132   0.871   1.520  0.5185  0.2605 -0.0566
  797MOL0     C 7519   8.023   0.788   1.473 -0.0367 -0.3912  0.8604
  797MOL0     C 7520   7.879   0.802   1.531 -0.9264 -0.1518 -0.2527
  797MOL0     C 7521   7.831   0.944   1.517  0.1812  0.3647  0.4869
  797MOL0     C 7522   7.705   0.959   1.602 -0.7593  0.2773  0.3617
  797MOL0     C 7523   7.578   0.889   1.553  0.4803  0.6515 -0.2779
  797MOL0     C 7524   7.476   0.829   1.517 -0.1996 -0.5717 -0.0964
  797MOL0     C 7525   8.343   0.945   1.541 -0.7602 -0.3788 -1.0762
  797MOL0     C 7526   8.471   0.971   1.483 -0.1067  0.0264  0.3323
  797MOL0     C 7527   8.559   1.076   1.545  0.0762  0.7163  0.2481
  797MOL0     H 7528   8.687   0.770   1.031 -0.2841  0.7109  1.8570
  797MOL0     H 7529   8.870   0.711   0.875 -0.8760  1.4029  0.8548
  797MOL0     H 7530   9.227   0.841   0.982 -0.3786 -0.6970  1.3684
  797MOL0     H 7531   9.309   0.690   1.022 -2.2649 -2.7248  0.5142
  797MOL0     H 7532   9.197   0.749   0.747 -1.2527 -2.5078 -0.7865
  797MOL0     H 7533   9.334   0.643   0.769 -1.5219  0.0615  1.4889
  797MOL0     H 7534   9.474   0.843   0.843  2.1223  1.2906 -2.7277
  797MOL0     H 7535   9.344   0.945   0.785  0.1467 -0.0727  1.3177
  797MOL0     H 7536   9.362   0.766   0.575 -3.1907 -1.3340  3.4850
  797MOL0     H 7537   9.463   0.919   0.591 -1.1632  0.9033  2.3231
  797MOL0     H 7538   9.645   0.786   0.685 -1.8158  0.6306  2.4439
  797MOL0     H 7539   9.538   0.648   0.703  0.2397 -2.8335 -1.5176
  797MOL0     H 7540   9.515   0.618   0.467  0.6268 -0.2150 -0.8428
  797MOL0     H 7541   9.608   0.753   0.419  3.8987 -1.3396 -1.6560
  797MOL0     H 7542   9.805   0.636   0.555  0.7178  1.7563 -1.5804
  797MOL0     H 7543   9.763   0.581   0.389  0.6580  1.8666 -0.6440
  797MOL0     H 7544   9.658   0.452   0.639 -0.7720 -0.0191 -0.9421
  797MOL0     H 7545   9.611   0.406   0.485 -0.2578 -0.7658  0.1189
  797MOL0     H 7546   9.946   0.427   0.706  0.8030  1.5014 -0.6958
  797MOL0     H 7547  10.170   0.148   0.638 -2.0190 -0.3820 -0.1260
  797MOL0     H 7548  10.241   0.242   0.506 -1.3682  0.7570  0.4236
  797MOL0     H 7549  10.184   0.382   0.766 -2.4306 -1.5774 -1.9006
  797MOL0     H 7550  10.338   0.346   0.715 -0.0108  2.4849  0.8040
  797MOL0     H 7551  10.158   0.529   0.554 -0.1941  0.8324  0.3304
  797MOL0     H 7552  10.305   0.463   0.498  0.1211 -2.3179  0.4846
  797MOL0     H 7553  10.280   0.632   0.764  3.0717 -1.2255  1.8197
  797MOL0     H 7554  10.318   0.687   0.601 -0.9410 -0.4624 -1.0501
  797MOL0     H 7555  10.697   0.510   0.664  1.2112  0.9508 -1.8469
  797MOL0     H 7556  10.874   0.688   0.722  0.0969  2.1816  1.0723
  797MOL0     H 7557  11.107   0.947   0.942  4.7348 -1.6187 -0.3156
  797MOL0     H 7558  11.263   1.122   1.001 -3.7768  0.3914  1.2591
  797MOL0     H 7559  11.376   1.462   0.712  1.2187  1.3474  0.5870
  797MOL0     H 7560  11.232   1.490   0.812  0.0771  1.0971  0.3037
  797MOL0     H 7561  11.400   1.647   0.897 -1.9970 -0.4742  0.6474
  797MOL0     H 7562  11.407   1.518   1.014 -1.0161  0.3025  0.2648
  797MOL0     H 7563  11.610   1.424   0.941  1.7064  1.2689  1.7118
  797MOL0     H 7564  11.611   1.528   0.795  3.0653  1.5380  0.0214
  797MOL0     H 7565  11.634   1.602   1.080 -1.6088  1.8169  1.8130
  797MOL0     H 7566  11.599   1.716   0.960 -0.3075 -1.1318 -0.3330
  797MOL0     H 7567  11.802   1.674   0.826 -3.1899 -0.6379 -1.3220
  797MOL0     H 7568  11.835   1.528   0.920 -3.2999 -1.4229 -1.3272
  797MOL0     H 7569  11.962   1.775   1.000  1.2666 -0.7726  0.3162
  797MOL0     H 7570  11.817   1.796   1.072  0.5941  0.6011 -1.4790
  797MOL0     H 7571  11.831   1.566   1.190  0.0525 -1.4296 -1.2026
  797MOL0     H 7572  11.943   1.697   1.244 -0.4920  2.2992 -1.0736
  797MOL0     H 7573  12.024   1.491   1.045  2.4154 -2.6097  0.5554
  797MOL0     H 7574  12.118   1.630   1.109  0.9841 -1.4204  0.3782
  797MOL0     H 7575  11.205   1.317   0.621 -1.4225  1.2226  1.4257
  797MOL0     H 7576  11.042   1.154   0.555  0.6471  1.4242  0.0503
  797MOL0     H 7577  10.550   0.977   0.769  0.2070  0.2708 -1.5570
  797MOL0     H 7578  10.403   0.800   0.778 -0.9330 -0.3666 -0.5520
  797MOL0     H 7579   9.147   0.680   1.209  0.7194  0.2919 -1.2068
  797MOL0     H 7580   8.959   0.732   1.356  1.6230 -3.4297 -0.3756
  797MOL0     H 7581   8.448   0.732   1.232  1.1679 -0.9034  1.5053
  797MOL0     H 7582   8.211   0.734   1.308 -0.1074 -1.0460  1.4705
  797MOL0     H 7583   8.055   0.684   1.485 -3.3829 -1.6500  0.1925
  797MOL0     H 7584   8.008   0.804   1.366 -1.5101 -0.2202  1.0754
  797MOL0     H 7585   7.877   0.770   1.635  2.6242 -1.9319 -0.5678
  797MOL0     H 7586   7.818   0.733   1.472 -2.0224  2.0373 -1.8201
  797MOL0     H 7587   7.803   0.978   1.417 -0.8290 -0.7123  0.3895
  797MOL0     H 7588   7.909   1.004   1.566  1.6946 -1.6111  0.6096
  797MOL0     H 7589   7.719   0.923   1.705 -5.4486 -0.0810  1.1295
  797MOL0     H 7590   7.677   1.064   1.611  1.1440  0.7787  0.7980
  797MOL0     H 7591   7.385   0.782   1.487 -1.5028  1.1466  0.9899
  797MOL0     H 7592   8.296   1.003   1.620 -0.5700 -0.7144 -0.7153
  797MOL0     H 7593   8.642   1.122   1.491  2.0818 -1.9210  0.8947
  797MOL0     H 7594   8.494   1.158   1.577 -1.8975 -0.8119  0.3280
  797MOL0     H 7595   8.603   1.030   1.634  0.7184  3.4321  1.4484
  798MOL0     O 7596  10.274   2.193   5.429  0.3338 -0.1234  0.5058
  798MOL0     C 7597  10.229   2.076   5.403 -0.6042 -0.5936 -0.7403
  798MOL0     O 7598  10.312   1.962   5.396 -0.3531  0.3433 -0.0177
  798MOL0     C 7599  10.441   1.976   5.426  0.0954  0.5867  0.0666
  798MOL0     C 7600  10.537   1.979   5.325 -0.0945  0.1077 -0.1903
  798MOL0     C 7601  10.671   1.999   5.355 -0.1454 -0.1311  0.6959
  798MOL0     C 7602  10.715   2.013   5.485 -0.7244  0.1370  0.1206
  798MOL0     O 7603  10.846   2.031   5.531  0.2655 -0.3389 -0.0907
  798MOL0     C 7604  10.953   1.971   5.458 -0.7048  0.1396  0.0570
  798MOL0     C 7605  10.965   1.831   5.518  0.5178  0.2945 -0.2348
  798MOL0     C 7606  11.087   1.754   5.461 -0.2515 -0.8070  0.1840
  798MOL0     C 7607  11.081   1.614   5.503 -0.9799 -0.7626  0.8733
  798MOL0     C 7608  11.193   1.541   5.428  1.7249 -0.1554  0.1044
  798MOL0     C 7609  11.189   1.398   5.466 -0.9359  0.3518 -0.6829
  798MOL0     C 7610  11.248   1.314   5.351 -0.3550  0.1647  0.4707
  798MOL0     C 7611  11.257   1.163   5.384 -0.9964  0.4190  0.2547
  798MOL0     N 7612  11.307   1.133   5.518  0.2328  0.3611 -0.4112
  798MOL0     C 7613  11.440   1.146   5.566  0.4376  0.8233  1.5602
  798MOL0     C 7614  11.446   1.087   5.690  0.3074 -0.6556  0.1657
  798MOL0     C 7615  11.551   1.096   5.800 -1.2949 -0.6111  0.5330
  798MOL0     C 7616  11.649   1.220   5.816  0.3946 -0.4896 -0.3436
  798MOL0     C 7617  11.580   1.359   5.833 -0.6220 -0.3502  0.2591
  798MOL0     C 7618  11.507   1.356   5.965  0.5565  0.2024  0.4474
  798MOL0     O 7619  11.427   1.473   5.989 -0.1085 -0.0994 -0.5504
  798MOL0     C 7620  11.297   1.467   5.945  0.1494 -0.5382 -0.0530
  798MOL0     C 7621  11.203   1.566   5.987  0.0373  1.0529 -0.6550
  798MOL0     C 7622  11.065   1.570   5.952 -0.2189 -0.1984 -0.3384
  798MOL0     C 7623  11.017   1.477   5.860  0.1172  0.0549 -0.4556
  798MOL0     C 7624  10.879   1.493   5.802 -0.7303 -0.9735 -0.5568
  798MOL0     O 7625  10.785   1.564   5.878  0.0059 -0.4072  0.5159
  798MOL0     C 7626  10.658   1.531   5.848 -0.5986  0.1570  0.7637
  798MOL0     C 7627  10.591   1.455   5.941  0.2925  0.7280  1.2862
  798MOL0     C 7628  10.466   1.386   5.913 -0.3945 -0.6944  0.9159
  798MOL0     C 7629  10.402   1.416   5.795  0.4121  0.2949  0.9664
  798MOL0     O 7630  10.276   1.374   5.770  0.2043 -0.5866 -0.6560
  798MOL0     C 7631  10.251   1.327   5.636  0.2582  0.3132  0.8613
  798MOL0     C 7632  10.176   1.434   5.562 -0.8774 -0.7510  0.0195
  798MOL0     C 7633  10.031   1.420   5.558 -0.4752 -0.2480  0.8146
  798MOL0     C 7634   9.977   1.503   5.444  0.0524  0.9222  0.6643
  798MOL0     C 7635   9.829   1.474   5.403 -0.3912  0.7719 -1.0617
  798MOL0     C 7636   9.718   1.507   5.508  0.6359  0.4541  0.0624
  798MOL0     C 7637   9.705   1.654   5.548 -0.4621 -0.1420 -0.3330
  798MOL0     C 7638   9.647   1.686   5.682 -0.1543  0.0993  0.2753
  798MOL0    Cl 7639   9.735   1.599   5.819 -0.0373 -0.1350  0.0676
  798MOL0     C 7640  10.469   1.505   5.703  0.7108 -0.1350 -0.2483
  798MOL0     C 7641  10.591   1.567   5.730 -0.0920 -0.1688 -0.3070
  798MOL0     O 7642  10.856   1.431   5.698 -0.8269 -0.5760  0.0534
  798MOL0     C 7643  11.108   1.375   5.815 -0.0185  0.0548  0.8383
  798MOL0     C 7644  11.240   1.366   5.862 -0.4041 -0.1714 -0.3914
  798MOL0     N 7645  11.326   1.017   5.706 -0.0476 -0.7118 -0.1101
  798MOL0     N 7646  11.245   1.050   5.605  0.6017  0.1012 -0.3425
  798MOL0     C 7647  10.621   2.006   5.583 -0.2363  0.2074 -0.0804
  798MOL0     C 7648  10.486   1.986   5.560  0.3186 -0.5719  0.7046
  798MOL0     C 7649  10.085   2.056   5.401  0.0835  0.0390 -0.6530
  798MOL0     C 7650  10.012   2.111   5.506  0.5462  0.3456  0.0600
  798MOL0     C 7651   9.877   2.084   5.523  0.3531 -0.6874  0.5348
  798MOL0     C 7652   9.811   1.998   5.428  0.4915  0.0080 -0.0879
  798MOL0     O 7653   9.679   1.974   5.446  0.6276 -0.3785 -0.1677
  798MOL0     C 7654   9.595   2.087   5.490 -0.3092 -0.4927 -0.5832
  798MOL0     C 7655   9.461   2.076   5.428 -0.4367 -0.2012  0.2934
  798MOL0     C 7656   9.382   1.949   5.464 -0.4000  0.4994  0.5322
  798MOL0     C 7657   9.332   1.936   5.611 -0.0374  0.2966  0.9009
  798MOL0     C 7658   9.241   2.046   5.658 -0.7751  0.1843 -1.0606
  798MOL0     C 7659   9.157   2.125   5.693 -0.2036 -0.4661  0.4065
  798MOL0     C 7660   9.883   1.946   5.319  0.2117  0.2642 -0.5545
  798MOL0     C 7661  10.025   1.975   5.307  0.3420 -0.2695  0.0355
  798MOL0     C 7662  10.101   1.909   5.198  0.2875 -0.9517  0.7115
  798MOL0     H 7663  10.501   1.975   5.222 -1.4597 -2.0125  0.3016
  798MOL0     H 7664  10.743   1.997   5.273  0.2837 -4.0138  0.9657
  798MOL0     H 7665  10.953   1.962   5.349  3.1923  2.0488 -0.2865
  798MOL0     H 7666  11.042   2.030   5.480  0.6738 -1.3925 -1.1662
  798MOL0     H 7667  10.873   1.774   5.504  0.4931 -0.2204  1.7344
  798MOL0     H 7668  10.970   1.837   5.627 -2.1391 -0.1971 -0.0341
  798MOL0     H 7669  11.185   1.790   5.495 -0.0852 -1.3126  0.2571
  798MOL0     H 7670  11.087   1.777   5.354 -1.5631 -1.9051 -0.0754
  798MOL0     H 7671  11.106   1.610   5.610  0.5158  0.4310  0.6104
  798MOL0     H 7672  10.984   1.574   5.474 -0.6872 -0.7635 -0.1482
  798MOL0     H 7673  11.164   1.543   5.323  2.2113 -0.8052 -0.0441
  798MOL0     H 7674  11.293   1.583   5.441  2.2443 -1.3450  0.1075
  798MOL0     H 7675  11.239   1.379   5.561  0.5224 -2.0544 -1.8285
  798MOL0     H 7676  11.083   1.371   5.471 -0.4287 -1.6286  2.7946
  798MOL0     H 7677  11.350   1.334   5.317 -0.8269 -0.8756 -1.7288
  798MOL0     H 7678  11.181   1.315   5.265 -2.4886  2.5591  2.0299
  798MOL0     H 7679  11.154   1.127   5.380 -1.1433  0.5759  1.7884
  798MOL0     H 7680  11.321   1.120   5.307  2.0946  4.5909  0.1569
  798MOL0     H 7681  11.516   1.208   5.520  2.7360 -3.4824 -1.1424
  798MOL0     H 7682  11.513   1.080   5.901  1.7585  0.9301  2.0670
  798MOL0     H 7683  11.620   1.015   5.772 -1.2958  0.4195 -2.9545
  798MOL0     H 7684  11.711   1.199   5.904  0.4031 -0.5525 -0.3640
  798MOL0     H 7685  11.703   1.216   5.721 -0.2341  1.0999 -0.7942
  798MOL0     H 7686  11.512   1.372   5.749  2.2503  0.7063 -2.0978
  798MOL0     H 7687  11.653   1.439   5.813 -2.0479  0.4177 -2.2049
  798MOL0     H 7688  11.588   1.357   6.039  1.4203 -1.4809 -0.4173
  798MOL0     H 7689  11.447   1.268   5.988 -2.3904  1.8681 -0.3935
  798MOL0     H 7690  11.241   1.641   6.056 -0.0232  2.7136 -2.3501
  798MOL0     H 7691  10.992   1.643   5.984  1.2363  1.0566  0.1858
  798MOL0     H 7692  10.639   1.453   6.038  0.2986  2.9658  1.3809
  798MOL0     H 7693  10.421   1.319   5.986  0.0842  0.0779  1.9423
  798MOL0     H 7694  10.342   1.303   5.580  0.3899 -4.1534  2.5637
  798MOL0     H 7695  10.197   1.233   5.622  4.1929 -1.6403 -4.8169
  798MOL0     H 7696  10.201   1.537   5.588 -0.9364 -0.1060 -2.2438
  798MOL0     H 7697  10.207   1.426   5.457 -1.3746  2.8913 -0.5124
  798MOL0     H 7698  10.010   1.314   5.539 -1.6674  0.0348  0.4803
  798MOL0     H 7699   9.991   1.455   5.654 -3.8938  1.3948 -1.0437
  798MOL0     H 7700  10.043   1.489   5.358  1.3043  2.3602  1.3365
  798MOL0     H 7701   9.983   1.612   5.449 -0.2546  1.0595 -1.1125
  798MOL0     H 7702   9.825   1.366   5.392  2.6301  0.1650  2.0224
  798MOL0     H 7703   9.800   1.534   5.317 -0.1189  0.9007 -1.0668
  798MOL0     H 7704   9.620   1.481   5.467  0.4663 -0.8754  1.2149
  798MOL0     H 7705   9.733   1.442   5.595  0.6168  1.4053  0.7934
  798MOL0     H 7706   9.651   1.709   5.471 -0.5040  1.5285  0.8488
  798MOL0     H 7707   9.800   1.706   5.554 -1.2369  1.1310  2.1366
  798MOL0     H 7708   9.649   1.795   5.687  0.6308  0.0439  1.4697
  798MOL0     H 7709   9.541   1.661   5.693 -0.1414  0.4589  1.3969
  798MOL0     H 7710  10.406   1.526   5.617 -1.9180 -1.5424  1.2086
  798MOL0     H 7711  10.654   1.636   5.675 -0.2874  0.3320  0.0901
  798MOL0     H 7712  11.077   1.299   5.744 -0.4676  1.9900 -1.1624
  798MOL0     H 7713  11.294   1.278   5.831 -0.6652 -0.2336 -0.6777
  798MOL0     H 7714  10.644   2.004   5.690 -1.0212 -0.9923  0.0853
  798MOL0     H 7715  10.418   1.980   5.644 -0.9812  2.5290  0.0106
  798MOL0     H 7716  10.065   2.177   5.574  0.0175  0.3583  0.4640
  798MOL0     H 7717   9.817   2.119   5.606 -2.1320  0.1724 -1.5132
  798MOL0     H 7718   9.630   2.186   5.459 -2.8427  0.5205 -0.4900
  798MOL0     H 7719   9.584   2.088   5.599 -2.0338 -1.2341 -0.7299
  798MOL0     H 7720   9.471   2.090   5.320  1.7979 -3.4764 -0.0802
  798MOL0     H 7721   9.411   2.166   5.465 -0.1594 -0.2219  0.7345
  798MOL0     H 7722   9.446   1.866   5.435 -0.4612  0.4880  0.4264
  798MOL0     H 7723   9.288   1.956   5.409 -0.2763  1.6317  0.4353
  798MOL0     H 7724   9.273   1.845   5.628 -0.2433  0.8915  3.8916
  798MOL0     H 7725   9.414   1.931   5.685 -1.9867  1.1346  3.2523
  798MOL0     H 7726   9.079   2.192   5.722  1.1878  0.7621  1.4737
  798MOL0     H 7727   9.838   1.890   5.237  4.2147 -1.3072 -1.9159
  798MOL0     H 7728  10.193   1.966   5.181 -0.0855  0.1175  2.0864
  798MOL0     H 7729  10.128   1.813   5.243 -0.1970 -0.9746  0.9613
  798MOL0     H 7730  10.046   1.894   5.105  0.5731  1.2175  0.1526
  799MOL0     O 7731   9.271   2.879  10.688  0.3786 -0.1652 -0.2669
  799MOL0     C 7732   9.276   2.779  10.610  0.5937 -0.0498 -0.0840
  799MOL0     O 7733   9.182   2.754  10.509 -0.1911 -0.1904  0.3892
  799MOL0     C 7734   9.072   2.843  10.498 -0.6274 -0.3357 -0.5230
  799MOL0     C 7735   9.083   2.977  10.458 -0.0757  0.5557 -0.2950
  799MOL0     C 7736   8.964   3.051  10.442  0.3685 -0.4761 -0.1562
  799MOL0     C 7737   8.843   2.990  10.478  0.4732  0.4320  0.4590
  799MOL0     O 7738   8.732   3.068  10.456  0.6913  0.4374  0.2586
  799MOL0     C 7739   8.627   2.986  10.398 -0.6411 -0.6088 -0.0552
  799MOL0     C 7740   8.506   3.069  10.353  0.0062 -0.1737  0.5477
  799MOL0     C 7741   8.419   3.009  10.242  0.5502 -0.0243  0.1071
  799MOL0     C 7742   8.285   3.091  10.196 -0.5491 -0.4831  0.2472
  799MOL0     C 7743   8.177   3.008  10.138 -0.4190  0.1295 -0.9035
  799MOL0     C 7744   8.229   2.949  10.012  0.1092 -0.6475  0.5132
  799MOL0     C 7745   8.120   2.865   9.947 -0.1087  0.4849  0.4344
  799MOL0     C 7746   8.153   2.819   9.805  0.2359 -1.2803 -0.8763
  799MOL0     N 7747   8.069   2.700   9.774  0.2401  0.0258 -0.8659
  799MOL0     C 7748   7.959   2.691   9.694 -0.5623  0.3768  0.2549
  799MOL0     C 7749   7.912   2.570   9.724  1.0546  0.1579  0.4954
  799MOL0     C 7750   7.777   2.512   9.683 -0.5613  0.4788  0.2995
  799MOL0     C 7751   7.673   2.522   9.797  0.5860  0.9424  0.2613
  799MOL0     C 7752   7.702   2.462   9.927  0.1591  0.2107  0.1058
  799MOL0     C 7753   7.585   2.458  10.027 -0.0780 -0.3300  0.2998
  799MOL0     O 7754   7.486   2.369   9.977  0.0755  0.0912  0.0283
  799MOL0     C 7755   7.360   2.393  10.020 -0.5001 -0.0733  0.3061
  799MOL0     C 7756   7.327   2.432  10.150  0.7024 -0.4200 -0.9003
  799MOL0     C 7757   7.191   2.460  10.185  0.3524  0.6399  0.1192
  799MOL0     C 7758   7.094   2.458  10.079  0.0270  0.3139  0.5793
  799MOL0     C 7759   6.958   2.500  10.110  0.6804 -0.6103  0.4274
  799MOL0     O 7760   6.940   2.562  10.229  0.0194 -0.8268 -0.2504
  799MOL0     C 7761   6.838   2.658  10.239  0.6562 -0.0038  1.1129
  799MOL0     C 7762   6.872   2.791  10.272 -0.1509 -0.2684  0.3029
  799MOL0     C 7763   6.777   2.884  10.306  0.0862 -0.6767  0.4033
  799MOL0     C 7764   6.639   2.850  10.312 -0.5543  0.2948  0.0402
  799MOL0     O 7765   6.548   2.947  10.354  0.8608 -0.4002  0.8141
  799MOL0     C 7766   6.437   2.908  10.438 -0.0268 -0.3769 -0.6805
  799MOL0     C 7767   6.300   2.938  10.370  0.4281  0.1083  0.2000
  799MOL0     C 7768   6.182   2.962  10.465 -0.0304 -0.3099  0.5260
  799MOL0     C 7769   6.135   2.832  10.525  0.6995  0.7398 -0.3992
  799MOL0     C 7770   5.991   2.828  10.584  0.4740 -0.7165  0.0356
  799MOL0     C 7771   5.958   2.695  10.643  0.5654  0.1499 -1.0879
  799MOL0     C 7772   5.799   2.660  10.644 -0.3051  0.3002 -0.7263
  799MOL0     C 7773   5.740   2.771  10.732  0.6971 -0.5427  0.8299
  799MOL0    Cl 7774   5.750   2.726  10.900  0.1425  0.2692  0.5173
  799MOL0     C 7775   6.606   2.717  10.279 -0.3840 -0.2161 -0.5587
  799MOL0     C 7776   6.704   2.626  10.248  0.5324  0.2853  0.4011
  799MOL0     O 7777   6.874   2.495  10.017 -0.1127  0.2575 -0.0500
  799MOL0     C 7778   7.126   2.413   9.947 -0.2694  0.0447 -0.6701
  799MOL0     C 7779   7.260   2.379   9.921 -0.4447  0.8524  0.9794
  799MOL0     N 7780   7.998   2.511   9.803 -0.0371  0.8198 -0.2087
  799MOL0     N 7781   8.091   2.588   9.838 -0.2477  0.0661 -0.2893
  799MOL0     C 7782   8.834   2.857  10.522 -0.1602 -0.5637 -0.9378
  799MOL0     C 7783   8.950   2.791  10.540  0.5304  0.1135  0.7958
  799MOL0     C 7784   9.382   2.676  10.635  0.6127  0.8943  0.8785
  799MOL0     C 7785   9.505   2.717  10.701 -0.3598 -0.1350  0.2242
  799MOL0     C 7786   9.594   2.619  10.740 -1.3842 -0.0523  0.2518
  799MOL0     C 7787   9.571   2.478  10.717 -0.4896 -0.0036 -0.2655
  799MOL0     O 7788   9.671   2.396  10.747 -0.3210  0.0056 -0.1270
  799MOL0     C 7789   9.667   2.257  10.721  0.0174  0.4642  0.1168
  799MOL0     C 7790   9.800   2.177  10.742 -0.1450  0.5405  0.5652
  799MOL0     C 7791   9.910   2.216  10.646  0.7499 -0.0201  0.4996
  799MOL0     C 7792  10.017   2.104  10.651 -0.9572  0.7417 -0.2886
  799MOL0     C 7793  10.100   2.102  10.761 -1.2145  0.9639 -0.6192
  799MOL0     C 7794  10.172   2.101  10.859 -0.3470  0.3948 -0.2384
  799MOL0     C 7795   9.449   2.445  10.655 -0.4700  0.5229  0.1032
  799MOL0     C 7796   9.355   2.537  10.613 -0.3776  0.1028 -0.0994
  799MOL0     C 7797   9.229   2.472  10.552 -0.2264 -0.0349 -0.3284
  799MOL0     H 7798   9.184   3.018  10.453  0.3780 -0.4482  0.3065
  799MOL0     H 7799   8.965   3.155  10.411  1.6702 -0.0751  1.1186
  799MOL0     H 7800   8.670   2.941  10.308  0.2028 -0.0798  0.0763
  799MOL0     H 7801   8.594   2.903  10.460  1.5029 -0.0224  2.0301
  799MOL0     H 7802   8.554   3.154  10.303  0.5245  0.6409  2.3470
  799MOL0     H 7803   8.442   3.114  10.430 -0.6673 -0.0699 -0.0600
  799MOL0     H 7804   8.378   2.913  10.274  3.0245 -0.3255  2.7715
  799MOL0     H 7805   8.482   2.993  10.153  1.0451 -3.4162  0.9075
  799MOL0     H 7806   8.256   3.139  10.289 -1.4029  1.3767 -0.9188
  799MOL0     H 7807   8.316   3.172  10.129  3.9137 -0.7097  1.7584
  799MOL0     H 7808   8.143   2.923  10.198 -0.7541  0.1179 -1.1063
  799MOL0     H 7809   8.089   3.072  10.130  0.0501  0.8211 -0.6297
  799MOL0     H 7810   8.264   3.023   9.941  0.2391 -0.6359  0.5893
  799MOL0     H 7811   8.310   2.876  10.019  0.1568 -0.5067  1.6152
  799MOL0     H 7812   8.028   2.924   9.946  0.5189  1.6382 -3.0115
  799MOL0     H 7813   8.110   2.774  10.006 -2.9286  0.3631 -0.1296
  799MOL0     H 7814   8.122   2.905   9.746 -1.6473 -1.1424  0.2432
  799MOL0     H 7815   8.260   2.795   9.803 -0.1221 -3.5564  1.7434
  799MOL0     H 7816   7.912   2.771   9.637  1.1258  2.0055  1.0410
  799MOL0     H 7817   7.750   2.565   9.591 -2.3998  1.1528  1.1711
  799MOL0     H 7818   7.798   2.406   9.671 -0.8669  0.5551 -1.0179
  799MOL0     H 7819   7.659   2.630   9.808  1.3796  0.9141  1.7673
  799MOL0     H 7820   7.583   2.475   9.754  1.3830  1.2774 -1.8964
  799MOL0     H 7821   7.788   2.515   9.969  0.4900  0.6881 -1.1234
  799MOL0     H 7822   7.732   2.358   9.916 -1.1086 -0.3246  1.3123
  799MOL0     H 7823   7.541   2.558  10.036 -0.6974 -0.7442  2.0678
  799MOL0     H 7824   7.624   2.431  10.125 -2.9702  1.3369  2.0427
  799MOL0     H 7825   7.401   2.424  10.229 -0.5733 -3.2209  0.1459
  799MOL0     H 7826   7.165   2.492  10.286 -0.6551  0.8680 -0.2068
  799MOL0     H 7827   6.978   2.810  10.266  0.4491 -2.7448  1.9620
  799MOL0     H 7828   6.816   2.986  10.310  1.6697 -1.2438  0.2422
  799MOL0     H 7829   6.447   2.805  10.472 -0.0437  0.2629  1.3572
  799MOL0     H 7830   6.441   2.973  10.525 -0.5526 -2.1667  0.7424
  799MOL0     H 7831   6.300   3.032  10.313 -0.0511  0.5853  0.9756
  799MOL0     H 7832   6.277   2.858  10.299  0.5558  1.1340 -1.0287
  799MOL0     H 7833   6.199   3.033  10.546 -0.5379 -0.5363  0.8351
  799MOL0     H 7834   6.095   2.994  10.407  0.1415 -2.2020 -0.9033
  799MOL0     H 7835   6.209   2.797  10.598 -2.2931 -1.3408  1.8548
  799MOL0     H 7836   6.132   2.754  10.448  2.3339 -1.9042  1.9878
  799MOL0     H 7837   5.921   2.848  10.503  3.7194  0.9190 -2.6419
  799MOL0     H 7838   5.980   2.910  10.655  1.1913 -1.7692  1.4291
  799MOL0     H 7839   6.006   2.623  10.576  1.8058  2.5152 -2.8952
  799MOL0     H 7840   6.000   2.670  10.742 -0.8269  0.3311 -0.4292
  799MOL0     H 7841   5.777   2.564  10.692 -0.3745  1.8254  2.5399
  799MOL0     H 7842   5.758   2.666  10.543  0.7246  0.7340 -1.1341
  799MOL0     H 7843   5.776   2.873  10.716 -3.9958  1.2517  0.1914
  799MOL0     H 7844   5.634   2.778  10.705  0.7584 -0.9285  0.4751
  799MOL0     H 7845   6.501   2.687  10.280 -0.7166  0.7152  2.2193
  799MOL0     H 7846   6.677   2.522  10.247  0.1637  0.1611  4.5315
  799MOL0     H 7847   7.047   2.411   9.872 -2.6127  1.4692  1.5936
  799MOL0     H 7848   7.298   2.341   9.827  0.5382  0.7497  1.4099
  799MOL0     H 7849   8.744   2.803  10.550  0.9238 -1.9952 -0.1244
  799MOL0     H 7850   8.937   2.693  10.584 -0.3044  0.6799  1.8538
  799MOL0     H 7851   9.534   2.818  10.729  3.1470 -0.0558 -2.8313
  799MOL0     H 7852   9.688   2.647  10.786 -1.5594  1.3809 -0.2169
  799MOL0     H 7853   9.633   2.251  10.617  0.9013  0.7578 -0.2034
  799MOL0     H 7854   9.600   2.212  10.793 -0.7426  2.9823  1.0853
  799MOL0     H 7855   9.794   2.067  10.742 -0.0183  0.4608 -2.1977
  799MOL0     H 7856   9.829   2.217  10.839 -1.5124 -1.0457  1.6867
  799MOL0     H 7857   9.957   2.310  10.676  1.8939 -0.8376  1.3537
  799MOL0     H 7858   9.865   2.221  10.546 -0.1365 -3.5979  0.5825
  799MOL0     H 7859   9.979   2.001  10.651  3.6103 -1.2496  2.2890
  799MOL0     H 7860  10.086   2.122  10.567  0.3541 -2.1217  0.0678
  799MOL0     H 7861  10.238   2.101  10.943 -1.0626 -0.1571  0.3400
  799MOL0     H 7862   9.431   2.341  10.630  0.2302  0.7819 -1.5813
  799MOL0     H 7863   9.218   2.472  10.443 -1.0595 -3.9922 -0.4077
  799MOL0     H 7864   9.223   2.366  10.577 -0.6227  0.0253 -0.1622
  799MOL0     H 7865   9.144   2.520  10.600  0.5031  1.3751 -0.3991
  800MOL0     O 7866   6.816   3.027   6.707  0.1010 -0.7161 -0.3633
  800MOL0     C 7867   6.701   2.986   6.713  0.2344 -0.1412 -0.4060
  800MOL0     O 7868   6.600   3.054   6.650 -0.4570 -0.3279 -0.1803
  800MOL0     C 7869   6.626   3.179   6.618 -1.1370  0.8974 -1.1870
  800MOL0     C 7870   6.594   3.284   6.702  0.6159  0.0721  1.2453
  800MOL0     C 7871   6.614   3.422   6.676 -0.9310 -0.5920  0.1400
  800MOL0     C 7872   6.675   3.452   6.555  0.3356 -0.6076  0.3563
  800MOL0     O 7873   6.706   3.580   6.523 -0.0393  0.4269 -0.5880
  800MOL0     C 7874   6.608   3.680   6.528  0.4585 -0.0609 -0.2524
  800MOL0     C 7875   6.637   3.810   6.445 -0.0460  0.0277  0.7244
  800MOL0     C 7876   6.780   3.842   6.455  0.2822  0.0964  0.1585
  800MOL0     C 7877   6.799   3.975   6.391 -0.1425 -0.2298 -0.7011
  800MOL0     C 7878   6.943   4.018   6.388  0.9110  0.5931 -1.3166
  800MOL0     C 7879   7.010   4.044   6.523  0.3179 -0.2579  0.5208
  800MOL0     C 7880   7.163   4.082   6.509  0.9982  0.5581 -1.0759
  800MOL0     C 7881   7.246   3.965   6.457 -0.5218  0.6198 -0.1450
  800MOL0     N 7882   7.384   4.002   6.477  0.1754 -0.2923 -0.2345
  800MOL0     C 7883   7.484   3.946   6.549 -0.1634 -0.6557  0.3734
  800MOL0     C 7884   7.583   4.038   6.539  0.1264 -0.2453 -0.0982
  800MOL0     C 7885   7.712   4.029   6.613 -0.1931  0.2280  0.2139
  800MOL0     C 7886   7.695   4.036   6.762  0.3506 -0.2380 -0.2017
  800MOL0     C 7887   7.824   4.076   6.836 -0.5219 -0.5393 -0.0411
  800MOL0     C 7888   7.929   3.964   6.832  0.4711  0.3304 -0.3302
  800MOL0     O 7889   8.045   4.032   6.872 -0.2634  0.0257  0.2251
  800MOL0     C 7890   8.159   4.004   6.805 -0.8037 -0.0364 -0.3523
  800MOL0     C 7891   8.182   4.040   6.673 -0.2006 -0.5221  0.6792
  800MOL0     C 7892   8.300   3.990   6.613  0.2911 -0.2536 -0.6556
  800MOL0     C 7893   8.393   3.923   6.681 -0.7051 -0.7633 -0.2076
  800MOL0     C 7894   8.526   3.891   6.618 -0.5940 -0.9872 -0.4202
  800MOL0     O 7895   8.533   3.932   6.490  0.1479  0.0968 -0.5373
  800MOL0     C 7896   8.637   3.876   6.423 -0.2187 -0.0265 -0.4666
  800MOL0     C 7897   8.621   3.769   6.339  0.1384 -0.5539 -0.3924
  800MOL0     C 7898   8.729   3.693   6.298 -0.2937  1.1600  0.3929
  800MOL0     C 7899   8.855   3.731   6.323 -0.9572 -0.1744 -0.3565
  800MOL0     O 7900   8.967   3.679   6.279  0.0958  0.0655 -0.0360
  800MOL0     C 7901   9.087   3.655   6.349 -1.0297 -0.1447  0.2393
  800MOL0     C 7902   9.143   3.516   6.288 -0.2100 -0.0312 -0.8840
  800MOL0     C 7903   9.293   3.497   6.318 -0.0054  0.1911 -0.3085
  800MOL0     C 7904   9.364   3.368   6.262 -0.7777 -0.0797 -1.0217
  800MOL0     C 7905   9.441   3.393   6.132  0.6789  0.7615  0.2190
  800MOL0     C 7906   9.521   3.276   6.061  0.3525  0.2314 -0.4812
  800MOL0     C 7907   9.579   3.323   5.922 -0.3141 -0.3274  0.1847
  800MOL0     C 7908   9.630   3.206   5.831  0.8705  0.0021 -1.0501
  800MOL0    Cl 7909   9.636   3.267   5.660  0.0149 -0.1688 -0.0289
  800MOL0     C 7910   8.876   3.849   6.396  0.0423 -0.6140  0.1497
  800MOL0     C 7911   8.766   3.921   6.450  1.3209 -0.0101 -0.3371
  800MOL0     O 7912   8.600   3.813   6.674  0.2128  0.0272  0.6106
  800MOL0     C 7913   8.377   3.894   6.813  0.9778 -0.1709  0.5902
  800MOL0     C 7914   8.261   3.933   6.878 -0.8209  0.4052 -0.2590
  800MOL0     N 7915   7.550   4.144   6.449 -0.0855  0.6035 -0.3127
  800MOL0     N 7916   7.432   4.122   6.420  0.2782  0.4886  0.3448
  800MOL0     C 7917   6.730   3.351   6.470 -0.5134  0.1894  0.3594
  800MOL0     C 7918   6.701   3.214   6.507 -0.9275 -0.5299  0.3606
  800MOL0     C 7919   6.667   2.872   6.804  0.4510 -0.6994  0.8183
  800MOL0     C 7920   6.771   2.822   6.873  0.3883 -0.4199 -0.6937
  800MOL0     C 7921   6.752   2.725   6.975 -0.7691  0.1446 -0.3010
  800MOL0     C 7922   6.625   2.672   7.003  0.7090  0.1141 -0.1611
  800MOL0     O 7923   6.591   2.592   7.110  0.6276 -0.8394 -0.0202
  800MOL0     C 7924   6.703   2.533   7.181  0.3045 -0.3611 -0.1906
  800MOL0     C 7925   6.635   2.423   7.257 -0.2166 -0.0674 -0.1922
  800MOL0     C 7926   6.725   2.364   7.363 -0.2721 -0.2473 -0.4053
  800MOL0     C 7927   6.646   2.274   7.461  0.3388 -0.0537  0.9650
  800MOL0     C 7928   6.570   2.176   7.376  0.5600 -0.6059  0.3650
  800MOL0     C 7929   6.515   2.097   7.299 -0.3759 -0.7198 -1.1011
  800MOL0     C 7930   6.525   2.723   6.920 -0.0931  0.4695  0.0969
  800MOL0     C 7931   6.543   2.818   6.822 -0.5567  1.5983  0.3293
  800MOL0     C 7932   6.417   2.859   6.748 -0.2971  0.4405 -0.2433
  800MOL0     H 7933   6.546   3.251   6.793 -1.3100  0.6284  0.4753
  800MOL0     H 7934   6.587   3.500   6.747 -0.8288 -1.5309  1.2428
  800MOL0     H 7935   6.514   3.640   6.491 -1.3846  3.2103  0.5002
  800MOL0     H 7936   6.594   3.713   6.631 -2.9075 -0.0270 -0.6274
  800MOL0     H 7937   6.589   3.894   6.496  0.7349 -0.0890  1.6962
  800MOL0     H 7938   6.615   3.790   6.340 -2.1769 -0.4959  1.2082
  800MOL0     H 7939   6.834   3.760   6.406  1.8673  1.0577  0.2074
  800MOL0     H 7940   6.810   3.842   6.560 -0.5142 -0.9260  0.4102
  800MOL0     H 7941   6.763   3.976   6.288 -0.8253 -0.1526 -0.4727
  800MOL0     H 7942   6.740   4.052   6.443  2.1479 -0.9429  3.3962
  800MOL0     H 7943   7.006   3.945   6.336 -0.7609 -1.1235 -1.0546
  800MOL0     H 7944   6.950   4.113   6.335  2.4039  0.5171 -1.2908
  800MOL0     H 7945   6.969   4.134   6.570  1.4012 -0.7573  2.5585
  800MOL0     H 7946   6.996   3.956   6.586  0.6558 -0.9978 -0.4125
  800MOL0     H 7947   7.206   4.093   6.609  0.1713  1.7965 -0.8368
  800MOL0     H 7948   7.174   4.175   6.454  2.9843  1.7621  1.1576
  800MOL0     H 7949   7.219   3.878   6.518 -1.7871  2.1407  1.5694
  800MOL0     H 7950   7.219   3.950   6.352  1.0615  2.8975 -0.9568
  800MOL0     H 7951   7.478   3.859   6.613  0.0929 -1.7859 -1.1038
  800MOL0     H 7952   7.771   3.944   6.577  1.3857  1.5387 -0.4076
  800MOL0     H 7953   7.770   4.117   6.584 -2.9118  1.4347 -2.0153
  800MOL0     H 7954   7.627   4.120   6.778  2.0472  1.3290 -0.8161
  800MOL0     H 7955   7.666   3.947   6.818 -2.2700  1.3063  1.0559
  800MOL0     H 7956   7.799   4.100   6.940  1.0895 -3.3682  1.1101
  800MOL0     H 7957   7.868   4.157   6.778  1.7512 -1.4088  0.3905
  800MOL0     H 7958   7.939   3.923   6.731  1.6760 -1.1153  0.3323
  800MOL0     H 7959   7.898   3.879   6.895  0.2285  0.3164 -0.4652
  800MOL0     H 7960   8.107   4.096   6.620 -0.8020  0.2458  2.2613
  800MOL0     H 7961   8.312   4.022   6.510  1.6432  0.5247 -0.2714
  800MOL0     H 7962   8.521   3.749   6.302  0.2741 -1.2810 -0.3904
  800MOL0     H 7963   8.710   3.614   6.225 -0.9225  0.5383  1.2091
  800MOL0     H 7964   9.162   3.733   6.343  0.2068 -1.2733  0.5273
  800MOL0     H 7965   9.068   3.634   6.455  2.3414 -1.2896  0.7472
  800MOL0     H 7966   9.078   3.437   6.327  2.6351 -2.9306 -1.5643
  800MOL0     H 7967   9.122   3.521   6.181  0.3287 -1.5647 -1.0844
  800MOL0     H 7968   9.355   3.585   6.297 -0.0658  0.8287  1.9031
  800MOL0     H 7969   9.307   3.480   6.425  0.5784  1.6095 -0.1261
  800MOL0     H 7970   9.286   3.295   6.243  0.1540 -0.8456 -2.0219
  800MOL0     H 7971   9.437   3.329   6.334  0.5432  0.3019 -2.1005
  800MOL0     H 7972   9.525   3.460   6.152  0.7518 -0.0221  3.0548
  800MOL0     H 7973   9.368   3.443   6.068  0.8640  2.2408  1.1128
  800MOL0     H 7974   9.605   3.230   6.113 -0.3470 -0.9722 -0.3823
  800MOL0     H 7975   9.453   3.193   6.039  0.1266  0.5896 -1.1572
  800MOL0     H 7976   9.644   3.409   5.936 -1.6285  1.1036 -1.8413
  800MOL0     H 7977   9.494   3.364   5.866 -1.1068  0.4087  1.8619
  800MOL0     H 7978   9.731   3.174   5.857 -0.1004 -3.8017 -1.3052
  800MOL0     H 7979   9.557   3.124   5.829  1.7212 -0.7529 -2.4450
  800MOL0     H 7980   8.980   3.879   6.409 -0.0114 -1.3166  2.8411
  800MOL0     H 7981   8.769   4.013   6.508  0.4350  0.3555 -0.8426
  800MOL0     H 7982   8.465   3.856   6.864  1.9124  1.6428  0.4379
  800MOL0     H 7983   8.248   3.909   6.983  1.0307 -0.2619 -0.1504
  800MOL0     H 7984   6.784   3.370   6.377  1.3207 -2.7849  0.6856
  800MOL0     H 7985   6.745   3.134   6.447 -1.3459  0.6282 -1.5670
  800MOL0     H 7986   6.871   2.864   6.864 -0.4250  2.1025  0.9637
  800MOL0     H 7987   6.840   2.683   7.023 -0.7075 -1.0689 -1.4152
  800MOL0     H 7988   6.756   2.603   7.246  2.2908  0.3484 -2.4435
  800MOL0     H 7989   6.776   2.497   7.109  2.5142  0.1093  1.7160
  800MOL0     H 7990   6.596   2.340   7.197 -3.4645  0.5064  0.9266
  800MOL0     H 7991   6.547   2.459   7.311  0.8435  0.9925  0.8874
  800MOL0     H 7992   6.780   2.438   7.421  2.9859 -0.8854 -2.4073
  800MOL0     H 7993   6.809   2.310   7.317  0.9645  2.6292 -1.7352
  800MOL0     H 7994   6.716   2.216   7.522 -0.1096 -1.7133 -0.0283
  800MOL0     H 7995   6.582   2.345   7.514  2.5120  4.2438 -1.6199
  800MOL0     H 7996   6.467   2.028   7.233 -2.6957  0.2216 -0.4956
  800MOL0     H 7997   6.424   2.694   6.947  0.1377  1.3220  2.0282
  800MOL0     H 7998   6.331   2.791   6.755  1.4014 -2.5250 -4.1674
  800MOL0     H 7999   6.393   2.960   6.780 -1.0820  0.8125 -1.9097
  800MOL0     H 8000   6.439   2.858   6.641 -1.1980 -2.6983 -0.5220
  801MOL0     O 8001   4.995   9.272   0.607 -0.0221  0.6861 -0.1031
  801MOL0     C 8002   5.065   9.171   0.644 -0.3564 -0.1743  0.0461
  801MOL0     O 8003   5.200   9.174   0.693  0.3133 -0.5926  0.5843
  801MOL0     C 8004   5.257   9.298   0.691 -0.1643 -0.3403 -0.1716
  801MOL0     C 8005   5.398   9.294   0.660 -0.0387 -0.2641  0.0650
  801MOL0     C 8006   5.481   9.417   0.655  0.3066  0.2120 -0.4661
  801MOL0     C 8007   5.412   9.537   0.675 -0.2274  0.0519  0.6816
  801MOL0     O 8008   5.482   9.649   0.676 -1.0155 -0.1482  0.6502
  801MOL0     C 8009   5.456   9.741   0.784  0.3049 -0.2581  0.1001
  801MOL0     C 8010   5.567   9.845   0.784  0.1929  0.4668 -0.0509
  801MOL0     C 8011   5.695   9.797   0.835 -0.6395 -0.1023  0.3017
  801MOL0     C 8012   5.789   9.909   0.819 -0.2140 -0.1508  0.0429
  801MOL0     C 8013   5.924   9.843   0.874 -0.0619  0.2388 -0.4215
  801MOL0     C 8014   6.032   9.928   0.831  1.4860 -1.0176 -0.5443
  801MOL0     C 8015   6.167   9.888   0.889  0.2001 -0.1049 -0.5102
  801MOL0     C 8016   6.276   9.997   0.864  1.1812  0.3345 -0.6368
  801MOL0     N 8017   6.238  10.129   0.912  0.7634  0.1358 -0.3893
  801MOL0     C 8018   6.200  10.229   0.820  0.4288  0.1297 -0.8662
  801MOL0     C 8019   6.141  10.329   0.904 -0.2073  0.5260  0.5177
  801MOL0     C 8020   6.066  10.457   0.866  0.5847  0.0047  0.0663
  801MOL0     C 8021   6.146  10.580   0.913 -0.1963  0.2908  0.5914
  801MOL0     C 8022   6.068  10.708   0.883  0.4325  0.2123 -0.1647
  801MOL0     C 8023   6.130  10.841   0.926  0.1168  0.5576 -1.0422
  801MOL0     O 8024   6.231  10.883   0.841  0.5329  0.1440 -0.9085
  801MOL0     C 8025   6.361  10.886   0.877  0.1839 -0.8887 -0.2434
  801MOL0     C 8026   6.410  10.832   0.992  0.1456  0.9077 -0.3776
  801MOL0     C 8027   6.549  10.848   1.018 -0.4268  0.6681  0.2183
  801MOL0     C 8028   6.636  10.918   0.932  0.6700  0.1143  0.2504
  801MOL0     C 8029   6.773  10.925   0.951 -0.4108 -0.7305  0.6144
  801MOL0     O 8030   6.842  11.019   0.877 -0.6314  0.5932 -0.1380
  801MOL0     C 8031   6.977  11.026   0.861 -0.5500 -0.9748  0.0814
  801MOL0     C 8032   7.025  11.156   0.835 -0.3100  0.0378  0.0840
  801MOL0     C 8033   7.162  11.197   0.825  0.6194 -0.4007  0.1520
  801MOL0     C 8034   7.258  11.104   0.853  0.5457 -0.7919  0.7724
  801MOL0     O 8035   7.389  11.150   0.819  0.0705 -0.1494  0.3904
  801MOL0     C 8036   7.502  11.072   0.870 -0.0516  0.5341 -0.0837
  801MOL0     C 8037   7.632  11.151   0.853  0.4036 -0.2006  0.0431
  801MOL0     C 8038   7.744  11.058   0.843 -1.2865  0.3386  0.7086
  801MOL0     C 8039   7.877  11.140   0.865  0.5511 -0.0144  0.2265
  801MOL0     C 8040   8.009  11.063   0.828  0.4652 -0.5932  0.4162
  801MOL0     C 8041   8.013  11.009   0.685 -0.3869  0.3598 -0.7640
  801MOL0     C 8042   8.125  10.910   0.676  0.5593  0.1463  0.4255
  801MOL0     C 8043   8.153  10.872   0.531 -0.4669 -0.8255 -0.1166
  801MOL0    Cl 8044   8.313  10.809   0.502 -0.5448 -0.2070 -0.1343
  801MOL0     C 8045   7.218  10.978   0.872 -0.8273  0.4809  0.4709
  801MOL0     C 8046   7.083  10.939   0.883  0.3127 -0.3218  0.6242
  801MOL0     O 8047   6.819  10.840   1.028  0.5481  0.1195 -0.3586
  801MOL0     C 8048   6.583  10.969   0.813  0.3360  0.0254  0.2617
  801MOL0     C 8049   6.441  10.951   0.786  0.4417  0.9208  0.3116
  801MOL0     N 8050   6.147  10.283   1.036 -0.0485  0.1888 -0.3027
  801MOL0     N 8051   6.202  10.163   1.037  0.7863  0.0101 -0.8127
  801MOL0     C 8052   5.277   9.540   0.712  0.5612  0.0973  0.0732
  801MOL0     C 8053   5.200   9.419   0.726  0.5761 -0.3381 -0.1338
  801MOL0     C 8054   5.002   9.037   0.667 -0.8646  0.0734  0.0766
  801MOL0     C 8055   5.074   8.941   0.741  0.2824  0.5115 -0.2647
  801MOL0     C 8056   5.027   8.813   0.759  1.0727  0.2714 -0.4724
  801MOL0     C 8057   4.903   8.778   0.707 -0.4762  0.4313  0.5699
  801MOL0     O 8058   4.852   8.652   0.735 -0.4651 -0.0173 -0.6868
  801MOL0     C 8059   4.852   8.601   0.870 -0.0095  0.0124 -0.2231
  801MOL0     C 8060   4.784   8.460   0.879  0.2910 -0.3540 -0.2688
  801MOL0     C 8061   4.632   8.471   0.858 -1.0749 -0.1184 -0.1154
  801MOL0     C 8062   4.556   8.338   0.879 -0.7734 -0.6362  0.1697
  801MOL0     C 8063   4.425   8.338   0.823 -0.2872 -0.0175 -0.3435
  801MOL0     C 8064   4.319   8.339   0.768  0.4177 -0.6486  0.6476
  801MOL0     C 8065   4.826   8.875   0.638  0.2226 -0.0154 -0.5627
  801MOL0     C 8066   4.868   9.008   0.620 -0.0232  0.2113  0.8608
  801MOL0     C 8067   4.773   9.096   0.558 -0.3064  0.4520  0.1993
  801MOL0     H 8068   5.447   9.199   0.642 -0.1046 -1.5603  5.2526
  801MOL0     H 8069   5.588   9.423   0.639  0.2701  1.5169 -0.3431
  801MOL0     H 8070   5.365   9.793   0.754 -0.8090 -2.2308 -0.1145
  801MOL0     H 8071   5.446   9.692   0.881 -3.7007  1.3564  0.6987
  801MOL0     H 8072   5.532   9.922   0.853 -2.6047 -1.8857  1.3545
  801MOL0     H 8073   5.585   9.874   0.680  0.1751  1.1629  0.1361
  801MOL0     H 8074   5.724   9.708   0.779 -2.0288 -0.3537 -0.0407
  801MOL0     H 8075   5.697   9.768   0.940  2.4106 -1.2792  0.0315
  801MOL0     H 8076   5.805   9.948   0.718  2.6109 -0.9047  0.1190
  801MOL0     H 8077   5.760   9.992   0.884 -0.8396  1.6625 -2.3943
  801MOL0     H 8078   5.928   9.837   0.983 -0.9249 -0.7871 -0.4222
  801MOL0     H 8079   5.936   9.742   0.832 -0.8643 -0.8657  1.8410
  801MOL0     H 8080   6.029   9.919   0.722  0.2010  0.9760 -0.7358
  801MOL0     H 8081   6.006  10.031   0.858  0.3385 -1.3894 -0.1791
  801MOL0     H 8082   6.191   9.789   0.849 -2.5936 -1.6980  1.4223
  801MOL0     H 8083   6.144   9.875   0.996 -0.7438  0.6280 -0.6088
  801MOL0     H 8084   6.352   9.964   0.934  0.3733  4.1488  2.4017
  801MOL0     H 8085   6.312  10.005   0.761 -1.1523 -0.6958 -1.6020
  801MOL0     H 8086   6.216  10.219   0.713  1.4552  0.1064 -0.7178
  801MOL0     H 8087   6.050  10.455   0.758  1.2871 -4.8274 -0.1622
  801MOL0     H 8088   5.971  10.470   0.919  0.3235  2.3790 -0.8820
  801MOL0     H 8089   6.165  10.570   1.020 -3.1039  2.5609  1.4500
  801MOL0     H 8090   6.247  10.585   0.870 -0.7679  0.2603 -0.8254
  801MOL0     H 8091   5.967  10.705   0.926 -0.0070  0.4919 -1.1459
  801MOL0     H 8092   6.048  10.720   0.776  0.7238  0.1836 -0.2235
  801MOL0     H 8093   6.167  10.852   1.029  2.1007 -2.9135 -1.2253
  801MOL0     H 8094   6.046  10.911   0.916  1.6780  2.4202 -1.7735
  801MOL0     H 8095   6.357  10.775   1.068 -1.1081  0.7357 -1.3507
  801MOL0     H 8096   6.586  10.801   1.109 -0.3401 -0.5601 -0.4199
  801MOL0     H 8097   6.948  11.231   0.818  0.0192  0.4778  0.5341
  801MOL0     H 8098   7.177  11.303   0.809  0.2934 -0.7282 -2.9811
  801MOL0     H 8099   7.489  11.049   0.976  0.6971 -1.8116 -0.4308
  801MOL0     H 8100   7.513  10.983   0.807 -0.9843 -0.3708  0.9875
  801MOL0     H 8101   7.631  11.218   0.766  1.8591  0.8171  0.7831
  801MOL0     H 8102   7.655  11.223   0.931  4.0261  0.3552 -1.3618
  801MOL0     H 8103   7.746  10.975   0.914  3.9443 -1.3538 -0.9148
  801MOL0     H 8104   7.742  11.028   0.738  2.1522 -0.4348  0.7214
  801MOL0     H 8105   7.877  11.170   0.970  0.7365 -0.4706  0.3600
  801MOL0     H 8106   7.879  11.233   0.808  0.8789 -0.1346  0.0422
  801MOL0     H 8107   8.027  10.992   0.909  4.0966  1.5530  1.7396
  801MOL0     H 8108   8.092  11.130   0.851 -0.0362 -1.0558  4.3706
  801MOL0     H 8109   7.913  10.969   0.667 -0.9268 -0.4124  3.0110
  801MOL0     H 8110   8.017  11.091   0.613 -0.3057  0.2752 -0.8561
  801MOL0     H 8111   8.097  10.819   0.730  1.6482 -0.4820 -0.0241
  801MOL0     H 8112   8.212  10.950   0.728  1.7474 -0.6830 -0.8327
  801MOL0     H 8113   8.076  10.798   0.505 -0.4961 -0.4401 -1.1989
  801MOL0     H 8114   8.143  10.956   0.462 -0.3687  0.2521  1.1507
  801MOL0     H 8115   7.302  10.914   0.900 -0.0686  1.2596  0.0337
  801MOL0     H 8116   7.064  10.834   0.901  1.1594 -0.9767 -1.8862
  801MOL0     H 8117   6.638  11.014   0.731  0.0752  3.8714  1.9648
  801MOL0     H 8118   6.401  10.986   0.691 -2.4950  3.1790  2.2115
  801MOL0     H 8119   5.225   9.631   0.738 -2.2649 -0.7400 -2.1527
  801MOL0     H 8120   5.095   9.443   0.741  1.0091  2.7159 -1.3087
  801MOL0     H 8121   5.165   8.970   0.792 -1.2046 -1.3388  3.8811
  801MOL0     H 8122   5.098   8.747   0.808  0.1962  0.6137  1.3669
  801MOL0     H 8123   4.805   8.674   0.937 -2.5564 -1.8244  0.1239
  801MOL0     H 8124   4.957   8.587   0.900  0.6014  1.1685 -1.6763
  801MOL0     H 8125   4.808   8.425   0.979 -4.0907  1.4380  1.6282
  801MOL0     H 8126   4.812   8.389   0.800 -1.4168 -0.6324 -0.6664
  801MOL0     H 8127   4.626   8.499   0.752 -1.0018  1.2176  0.2209
  801MOL0     H 8128   4.589   8.555   0.913  0.0617 -0.0831  0.7431
  801MOL0     H 8129   4.608   8.249   0.845  1.3286 -0.0798  1.7590
  801MOL0     H 8130   4.553   8.328   0.988 -0.4610  0.9810  0.3598
  801MOL0     H 8131   4.232   8.338   0.705  2.3784  0.2964 -2.3356
  801MOL0     H 8132   4.727   8.846   0.604 -0.4944  2.0150 -0.3716
  801MOL0     H 8133   4.807   9.135   0.462 -0.4339 -0.4085 -0.2030
  801MOL0     H 8134   4.679   9.041   0.547  0.3473 -0.6756  0.1095
  801MOL0     H 8135   4.752   9.184   0.620 -2.8346  0.2771 -0.3038
  802MOL0     O 8136   6.398  10.509   8.263  0.3437 -0.0066 -0.0857
  802MOL0     C 8137   6.331  10.445   8.344  0.5689  0.0441 -0.2559
  802MOL0     O 8138   6.376  10.374   8.446  0.1635  0.3361  0.5232
  802MOL0     C 8139   6.510  10.330   8.445 -0.6882  0.4580 -0.5048
  802MOL0     C 8140   6.578  10.288   8.331 -0.1585  0.2975 -0.5878
  802MOL0     C 8141   6.715  10.236   8.346  0.3440 -0.8239 -0.9403
  802MOL0     C 8142   6.766  10.225   8.476 -0.1166 -0.3934 -0.6113
  802MOL0     O 8143   6.892  10.175   8.490 -0.5360 -0.3123 -0.2070
  802MOL0     C 8144   6.994  10.277   8.516 -0.3795  0.0871  0.0867
  802MOL0     C 8145   7.108  10.264   8.418 -0.2110 -0.9612  0.4241
  802MOL0     C 8146   7.190  10.135   8.448  0.1836  0.5982 -0.4705
  802MOL0     C 8147   7.252  10.132   8.581 -0.3552 -1.1695 -0.7392
  802MOL0     C 8148   7.318   9.990   8.614 -0.5405 -0.6019  0.2574
  802MOL0     C 8149   7.455   9.973   8.557  0.7386 -0.1464  0.7906
  802MOL0     C 8150   7.564  10.049   8.646  0.4727 -0.1549 -0.3167
  802MOL0     C 8151   7.702   9.999   8.601 -0.1741 -0.0147  0.6968
  802MOL0     N 8152   7.806  10.036   8.699 -0.1364  0.5283 -0.1010
  802MOL0     C 8153   7.873   9.939   8.782 -0.2336  0.8435  1.0058
  802MOL0     C 8154   7.961  10.022   8.841 -1.2701  0.3379  0.1294
  802MOL0     C 8155   8.065   9.987   8.942  0.6203  0.6143  0.3668
  802MOL0     C 8156   8.202  10.021   8.892 -0.0909  0.6469 -0.6240
  802MOL0     C 8157   8.303   9.953   8.987 -0.4928  0.9777 -0.3218
  802MOL0     C 8158   8.447   9.963   8.936  1.1557 -0.3634  0.0969
  802MOL0     O 8159   8.482  10.104   8.926 -0.2035 -0.3502  0.3567
  802MOL0     C 8160   8.605  10.127   8.868 -0.2989 -0.6028  0.3656
  802MOL0     C 8161   8.710  10.153   8.948 -0.0567  0.2287 -0.2552
  802MOL0     C 8162   8.837  10.177   8.901 -0.3037 -0.7825  0.5768
  802MOL0     C 8163   8.865  10.170   8.764  0.0975  0.2568 -0.4924
  802MOL0     C 8164   8.999  10.199   8.716  0.8180  0.2176 -0.0067
  802MOL0     O 8165   9.091  10.260   8.792  0.0018 -0.4707 -0.9993
  802MOL0     C 8166   9.213  10.279   8.739  0.0027 -0.4953  0.0925
  802MOL0     C 8167   9.233  10.371   8.639  0.5055  0.6224  0.1778
  802MOL0     C 8168   9.365  10.420   8.592  0.8767  0.0733 -0.2030
  802MOL0     C 8169   9.479  10.358   8.645  0.3957 -0.2453  0.3773
  802MOL0     O 8170   9.606  10.400   8.613 -0.4240 -0.0144 -0.2647
  802MOL0     C 8171   9.633  10.509   8.533 -0.1101 -0.3083  0.2606
  802MOL0     C 8172   9.784  10.519   8.520 -0.3747 -0.3279  0.1671
  802MOL0     C 8173   9.859  10.607   8.612  0.0094  0.5329 -0.4847
  802MOL0     C 8174  10.010  10.623   8.563 -1.4279  0.7081 -0.4200
  802MOL0     C 8175  10.023  10.726   8.443  0.0389 -1.0156 -0.9810
  802MOL0     C 8176  10.167  10.757   8.390  0.8714  0.3447 -0.0420
  802MOL0     C 8177  10.262  10.638   8.414  0.6764  0.8643 -0.1511
  802MOL0     C 8178  10.377  10.648   8.320 -0.8870  0.4208  0.3878
  802MOL0    Cl 8179  10.450  10.803   8.331 -0.0503  0.0941 -0.1797
  802MOL0     C 8180   9.455  10.253   8.731  0.0455  0.8794 -0.4046
  802MOL0     C 8181   9.325  10.221   8.784  0.6316  0.1310  0.0249
  802MOL0     O 8182   9.011  10.162   8.598  0.0734  0.0783 -0.1247
  802MOL0     C 8183   8.757  10.155   8.677  0.2561  0.0836  0.3955
  802MOL0     C 8184   8.627  10.128   8.730  0.3393 -0.2053 -0.2523
  802MOL0     N 8185   7.954  10.150   8.787  0.8220  0.6135 -0.3591
  802MOL0     N 8186   7.868  10.154   8.696  0.6606  0.8980 -0.3136
  802MOL0     C 8187   6.687  10.266   8.590 -0.5498  0.9615  1.0126
  802MOL0     C 8188   6.560  10.313   8.572 -0.0579 -0.1252 -0.0901
  802MOL0     C 8189   6.189  10.422   8.322 -0.8531 -0.0694  0.4018
  802MOL0     C 8190   6.137  10.298   8.332 -0.5147  0.1793  0.4156
  802MOL0     C 8191   6.006  10.270   8.298  0.4089  0.3041 -0.2023
  802MOL0     C 8192   5.924  10.372   8.253  0.1745 -0.0793 -0.3091
  802MOL0     O 8193   5.796  10.363   8.211 -0.4796  0.1157 -0.1423
  802MOL0     C 8194   5.725  10.242   8.245  0.0784  0.4319 -0.0381
  802MOL0     C 8195   5.764  10.116   8.158  0.0610 -0.0752 -0.5366
  802MOL0     C 8196   5.637  10.049   8.105 -0.5451 -1.1893  0.3416
  802MOL0     C 8197   5.672   9.901   8.069 -0.2792  0.1680  0.1749
  802MOL0     C 8198   5.544   9.840   8.016 -0.2092  1.1951 -0.2462
  802MOL0     C 8199   5.459   9.775   7.962  0.0481 -0.6739 -0.0487
  802MOL0     C 8200   5.980  10.505   8.245  0.7782 -0.2156  0.0647
  802MOL0     C 8201   6.107  10.528   8.287  0.0216 -0.1409  0.1965
  802MOL0     C 8202   6.146  10.674   8.282  0.7964 -0.4258 -0.0658
  802MOL0     H 8203   6.537  10.290   8.230 -0.9888  3.1113 -0.2977
  802MOL0     H 8204   6.770  10.218   8.254  0.5501  0.8346 -1.1715
  802MOL0     H 8205   6.958  10.380   8.509 -0.8549  0.1299  2.2600
  802MOL0     H 8206   7.026  10.259   8.620  1.8760 -0.6435 -0.6717
  802MOL0     H 8207   7.180  10.347   8.423  0.7146 -1.8015  2.0195
  802MOL0     H 8208   7.075  10.250   8.315  0.9322 -1.2178  0.0790
  802MOL0     H 8209   7.271  10.129   8.375  0.3431 -1.4750 -0.1908
  802MOL0     H 8210   7.127  10.046   8.437  1.0474  0.1496 -2.0889
  802MOL0     H 8211   7.324  10.215   8.579  1.6528 -2.8395 -1.6456
  802MOL0     H 8212   7.189  10.148   8.669  2.1865  2.4128  0.7137
  802MOL0     H 8213   7.314   9.983   8.723 -1.4178 -0.5987  0.2398
  802MOL0     H 8214   7.248   9.918   8.571  0.9045  0.1830 -3.8956
  802MOL0     H 8215   7.481   9.866   8.558  0.0896 -0.5122 -3.4055
  802MOL0     H 8216   7.449  10.006   8.452 -1.1697 -1.7104  0.3480
  802MOL0     H 8217   7.545  10.023   8.750 -1.2860  2.0438 -0.0219
  802MOL0     H 8218   7.554  10.158   8.636  0.1294 -0.1725 -0.1697
  802MOL0     H 8219   7.700   9.890   8.592  0.2756 -0.3114  3.3919
  802MOL0     H 8220   7.722  10.043   8.502  0.4435  1.0930  1.2891
  802MOL0     H 8221   7.850   9.834   8.789 -1.0815  1.0283  1.0988
  802MOL0     H 8222   8.036  10.040   9.033 -2.8251 -0.7210  0.1984
  802MOL0     H 8223   8.050   9.879   8.953 -2.3238  1.1159  2.3328
  802MOL0     H 8224   8.214   9.989   8.788  0.3495 -0.6552 -0.1976
  802MOL0     H 8225   8.218  10.129   8.896 -1.4305  0.9119 -1.5834
  802MOL0     H 8226   8.285   9.847   9.005  2.4040  0.2811 -0.8974
  802MOL0     H 8227   8.305  10.006   9.082 -0.2199  3.2975 -1.5442
  802MOL0     H 8228   8.447   9.918   8.836  3.4964 -0.0736 -0.0930
  802MOL0     H 8229   8.515   9.908   9.001  1.5157  3.7573  3.6763
  802MOL0     H 8230   8.694  10.177   9.053  0.0459 -2.5280  0.4704
  802MOL0     H 8231   8.907  10.206   8.978 -0.2157 -1.6459  0.8249
  802MOL0     H 8232   9.149  10.421   8.590  0.6997  1.2916  0.5176
  802MOL0     H 8233   9.362  10.510   8.531 -0.3694  2.1191  2.6692
  802MOL0     H 8234   9.603  10.484   8.431 -2.8132  1.3970  0.5404
  802MOL0     H 8235   9.579  10.602   8.551 -1.7362 -1.1499 -0.0583
  802MOL0     H 8236   9.832  10.422   8.535  2.6684  1.0310 -0.0117
  802MOL0     H 8237   9.803  10.545   8.416 -3.1067  0.7632 -0.1488
  802MOL0     H 8238   9.818  10.708   8.622 -2.4576 -0.4672  0.3636
  802MOL0     H 8239   9.847  10.559   8.709 -1.0936 -1.5650 -1.5862
  802MOL0     H 8240  10.043  10.525   8.527  3.2930  1.1980  1.8380
  802MOL0     H 8241  10.073  10.654   8.647  1.0005  1.1401 -2.3237
  802MOL0     H 8242   9.966  10.816   8.465 -0.1132 -1.0052 -1.4008
  802MOL0     H 8243   9.967  10.692   8.355  0.5903  1.0441 -2.2026
  802MOL0     H 8244  10.153  10.788   8.286 -0.2104  1.1468  0.3216
  802MOL0     H 8245  10.212  10.843   8.441  0.1751  1.0981 -0.6726
  802MOL0     H 8246  10.203  10.550   8.385 -0.1339  2.1169 -2.5398
  802MOL0     H 8247  10.296  10.646   8.518 -1.9358  0.2272  0.8430
  802MOL0     H 8248  10.447  10.567   8.340 -1.6030 -0.8566 -1.8833
  802MOL0     H 8249  10.347  10.627   8.217 -1.8721 -0.4739  0.8365
  802MOL0     H 8250   9.543  10.196   8.760  0.1540  2.5573  2.9866
  802MOL0     H 8251   9.313  10.135   8.849  2.0617 -0.3321 -0.2948
  802MOL0     H 8252   8.773  10.150   8.569  0.2218 -0.4059  0.4136
  802MOL0     H 8253   8.539  10.112   8.668 -0.4143  1.1583  0.4118
  802MOL0     H 8254   6.716  10.242   8.692  1.6643  4.1194  1.2770
  802MOL0     H 8255   6.491  10.321   8.656 -0.4274 -1.5470 -0.2292
  802MOL0     H 8256   6.211  10.224   8.360 -1.6685 -1.3076 -0.2826
  802MOL0     H 8257   5.976  10.166   8.300  0.8473  0.1828  0.0487
  802MOL0     H 8258   5.619  10.268   8.251 -0.2695 -1.1548  1.6303
  802MOL0     H 8259   5.751  10.220   8.349 -0.9717  1.2990  0.4218
  802MOL0     H 8260   5.812  10.044   8.225  0.9811  0.7036 -0.3329
  802MOL0     H 8261   5.838  10.145   8.082  0.0625 -0.6190 -0.7519
  802MOL0     H 8262   5.597  10.102   8.018  0.2920  0.7810  1.0998
  802MOL0     H 8263   5.557  10.051   8.180 -0.5055 -2.4494  0.4420
  802MOL0     H 8264   5.754   9.887   7.997 -0.3630 -3.8901  0.6258
  802MOL0     H 8265   5.700   9.846   8.160 -2.0191  0.3812  0.8720
  802MOL0     H 8266   5.393   9.720   7.898  0.6046 -1.9529  0.4540
  802MOL0     H 8267   5.909  10.582   8.218  2.9308  1.8029 -0.1942
  802MOL0     H 8268   6.208  10.696   8.195  2.9747  4.1376  2.2348
  802MOL0     H 8269   6.061  10.742   8.296 -1.1707 -3.0790  1.7432
  802MOL0     H 8270   6.201  10.692   8.375 -2.6073  1.8682  1.7211
  803MOL0     O 8271   3.534   3.430   2.355 -0.3287  0.7835  0.3510
  803MOL0     C 8272   3.495   3.339   2.435 -0.6828 -0.3602  0.3675
  803MOL0     O 8273   3.552   3.315   2.552 -0.3554  0.0386  0.0189
  803MOL0     C 8274   3.675   3.363   2.592 -0.1311 -0.6042  0.6401
  803MOL0     C 8275   3.700   3.359   2.725  0.4445  0.2964 -0.1863
  803MOL0     C 8276   3.824   3.425   2.774 -0.2059  0.1659 -0.2349
  803MOL0     C 8277   3.916   3.487   2.705  1.0357 -0.0132  0.7794
  803MOL0     O 8278   4.015   3.546   2.776 -0.4343 -0.1604 -0.1192
  803MOL0     C 8279   4.108   3.627   2.704 -0.6001 -0.5050 -0.9779
  803MOL0     C 8280   4.224   3.658   2.791 -0.4303  0.6763 -0.8319
  803MOL0     C 8281   4.324   3.540   2.796  0.9542  0.1054  0.3454
  803MOL0     C 8282   4.430   3.567   2.903  0.0348  0.3238  0.2437
  803MOL0     C 8283   4.545   3.657   2.855  0.1383  0.4661  0.2784
  803MOL0     C 8284   4.654   3.671   2.959 -0.5800 -0.4281  0.4977
  803MOL0     C 8285   4.730   3.536   2.983  0.0179 -0.4202  0.3178
  803MOL0     C 8286   4.867   3.558   3.057  0.0001  0.1960 -0.0392
  803MOL0     N 8287   4.964   3.627   2.973 -1.0505 -0.0405  0.2487
  803MOL0     C 8288   5.048   3.569   2.876  0.5885  0.0700 -0.2193
  803MOL0     C 8289   5.127   3.677   2.836 -0.1028  0.7574  0.6065
  803MOL0     C 8290   5.250   3.675   2.751 -0.7579  0.0160  0.1991
  803MOL0     C 8291   5.366   3.614   2.828  0.0019  0.5239  0.7870
  803MOL0     C 8292   5.425   3.705   2.932 -0.4884 -0.0364  0.2286
  803MOL0     C 8293   5.509   3.823   2.891  0.2294 -0.6359 -0.1755
  803MOL0     O 8294   5.616   3.769   2.819 -0.2558 -0.0060 -0.6625
  803MOL0     C 8295   5.715   3.847   2.773  0.8598  0.3481  0.9433
  803MOL0     C 8296   5.786   3.803   2.658 -0.4293 -0.8266  0.6415
  803MOL0     C 8297   5.903   3.869   2.616 -0.3504  0.3072  0.0049
  803MOL0     C 8298   5.935   3.996   2.669  0.1350 -0.0617  0.0762
  803MOL0     C 8299   6.048   4.076   2.623 -0.0334 -0.5836  0.4475
  803MOL0     O 8300   6.065   4.199   2.679  0.1521 -0.0222  0.3398
  803MOL0     C 8301   6.176   4.265   2.642 -0.7046  0.4816  0.0200
  803MOL0     C 8302   6.153   4.353   2.540  0.7592 -0.2291  0.7362
  803MOL0     C 8303   6.268   4.419   2.489  1.1067 -0.3322 -0.0408
  803MOL0     C 8304   6.391   4.408   2.550 -0.0092 -0.5969  0.1338
  803MOL0     O 8305   6.502   4.479   2.517  0.1179 -0.0845  0.1033
  803MOL0     C 8306   6.498   4.597   2.437 -0.0320  0.2420 -0.5446
  803MOL0     C 8307   6.627   4.670   2.470  0.3702 -0.3154  0.1785
  803MOL0     C 8308   6.608   4.816   2.507  0.5401  0.3467  1.0542
  803MOL0     C 8309   6.724   4.870   2.596  0.9960 -0.0932  0.7799
  803MOL0     C 8310   6.871   4.844   2.549 -0.7264 -0.2798 -0.0697
  803MOL0     C 8311   6.972   4.889   2.655 -1.0075  0.2596 -0.8387
  803MOL0     C 8312   7.122   4.850   2.625  0.5753 -1.1176  0.2654
  803MOL0     C 8313   7.208   4.880   2.747  0.1762  0.4945  0.8839
  803MOL0    Cl 8314   7.364   4.777   2.737 -0.0007  0.0947 -0.3483
  803MOL0     C 8315   6.397   4.324   2.659 -1.4115  0.0662  0.5047
  803MOL0     C 8316   6.293   4.248   2.704  0.3758  0.6976  0.2511
  803MOL0     O 8317   6.113   4.038   2.526 -0.4036 -0.8547  0.6123
  803MOL0     C 8318   5.858   4.040   2.781 -0.4302 -0.3126  0.1764
  803MOL0     C 8319   5.749   3.970   2.831  0.4119  0.3577  0.0242
  803MOL0     N 8320   5.081   3.787   2.894  0.0335 -0.1517 -1.0311
  803MOL0     N 8321   4.993   3.760   2.978  0.3996 -0.4523 -0.3851
  803MOL0     C 8322   3.896   3.481   2.573  0.6747 -0.3320  0.9331
  803MOL0     C 8323   3.778   3.421   2.514 -0.0579 -1.0959 -0.0225
  803MOL0     C 8324   3.375   3.256   2.404 -0.5938  0.3749  0.3603
  803MOL0     C 8325   3.326   3.172   2.502  0.6258  0.9673 -0.1902
  803MOL0     C 8326   3.224   3.080   2.492 -0.6303 -0.6713 -0.0257
  803MOL0     C 8327   3.165   3.073   2.365 -0.4538 -0.3425 -0.5468
  803MOL0     O 8328   3.054   3.003   2.324  0.2574 -0.1608 -0.3200
  803MOL0     C 8329   3.016   2.882   2.389 -0.5729 -0.1857 -0.3877
  803MOL0     C 8330   2.877   2.842   2.325  0.5900 -0.0426  0.2634
  803MOL0     C 8331   2.831   2.703   2.368  1.3825  0.2765  0.5050
  803MOL0     C 8332   2.737   2.631   2.257 -0.5900  0.5695 -0.9235
  803MOL0     C 8333   2.585   2.659   2.260  0.1785  0.2051  0.6744
  803MOL0     C 8334   2.466   2.692   2.265  0.1829  0.3335  0.6205
  803MOL0     C 8335   3.211   3.154   2.259  0.1791 -0.4565 -0.2708
  803MOL0     C 8336   3.314   3.242   2.277  0.2056  0.0110 -0.1492
  803MOL0     C 8337   3.342   3.323   2.154  0.0889  0.3262  0.6493
  803MOL0     H 8338   3.625   3.314   2.789  1.8007  0.8203  1.8659
  803MOL0     H 8339   3.829   3.418   2.882 -3.4586  1.4862  0.1210
  803MOL0     H 8340   4.148   3.574   2.617  0.3767 -0.6583 -0.4388
  803MOL0     H 8341   4.047   3.715   2.680  1.9811  1.4911 -0.6972
  803MOL0     H 8342   4.195   3.693   2.890  1.5762 -0.9570  0.4173
  803MOL0     H 8343   4.283   3.740   2.750  0.6602  0.4085  0.1421
  803MOL0     H 8344   4.372   3.513   2.701 -0.3214  0.6643 -0.5026
  803MOL0     H 8345   4.266   3.450   2.819 -0.3664  0.3699 -1.6164
  803MOL0     H 8346   4.384   3.597   2.998  0.0793  1.9785 -0.2317
  803MOL0     H 8347   4.480   3.471   2.920  0.7490  0.9132  1.7415
  803MOL0     H 8348   4.583   3.612   2.762  0.0386 -1.5418  1.1454
  803MOL0     H 8349   4.515   3.761   2.838  2.4970  1.6501  2.6667
  803MOL0     H 8350   4.726   3.740   2.914 -0.4962 -0.8087  0.0481
  803MOL0     H 8351   4.609   3.699   3.055 -0.0939 -0.4113  0.7288
  803MOL0     H 8352   4.754   3.484   2.889 -1.4376 -0.9745  0.2266
  803MOL0     H 8353   4.669   3.469   3.044  0.9606 -0.1157  1.6272
  803MOL0     H 8354   4.843   3.624   3.141 -1.1524  0.1372 -0.3057
  803MOL0     H 8355   4.906   3.458   3.080  1.1731 -0.1218 -2.9380
  803MOL0     H 8356   5.074   3.467   2.851 -1.4666 -0.7165  0.7007
  803MOL0     H 8357   5.220   3.605   2.672  1.6497 -0.3553 -0.4750
  803MOL0     H 8358   5.284   3.768   2.706 -0.9308 -1.2110 -2.7029
  803MOL0     H 8359   5.339   3.517   2.871 -0.8016  1.2228  1.8789
  803MOL0     H 8360   5.442   3.595   2.752 -2.8327 -2.3758 -1.6487
  803MOL0     H 8361   5.493   3.633   2.979  1.0493  0.5944 -0.9680
  803MOL0     H 8362   5.353   3.739   3.007  1.4220 -3.0284  3.7883
  803MOL0     H 8363   5.545   3.879   2.978 -0.4462  3.5646 -2.3320
  803MOL0     H 8364   5.450   3.895   2.833 -0.1407  0.5247  1.5467
  803MOL0     H 8365   5.772   3.703   2.616  1.2464 -1.0258  0.4933
  803MOL0     H 8366   5.967   3.839   2.534 -1.2471 -0.7439 -0.3378
  803MOL0     H 8367   6.053   4.361   2.498  0.9349  1.3656  0.5700
  803MOL0     H 8368   6.248   4.461   2.391 -0.0634 -0.0534  0.3021
  803MOL0     H 8369   6.513   4.562   2.335  1.5121  2.5683 -1.1930
  803MOL0     H 8370   6.402   4.648   2.454 -0.6004 -0.7935 -0.6075
  803MOL0     H 8371   6.672   4.620   2.556  1.1241 -3.0675 -1.6572
  803MOL0     H 8372   6.698   4.647   2.390  1.0206 -0.3269  0.7513
  803MOL0     H 8373   6.595   4.877   2.417 -0.9521 -1.1645  0.2126
  803MOL0     H 8374   6.508   4.821   2.551  0.1863 -0.4444  0.3598
  803MOL0     H 8375   6.710   4.820   2.692  0.4090  1.7982  1.7160
  803MOL0     H 8376   6.699   4.975   2.609  1.4112  0.0630  0.3455
  803MOL0     H 8377   6.889   4.889   2.451  0.0054 -2.4364 -0.9871
  803MOL0     H 8378   6.880   4.736   2.533  3.1693 -0.0428 -0.6067
  803MOL0     H 8379   6.983   4.997   2.667 -0.8733  0.1102  0.5644
  803MOL0     H 8380   6.952   4.847   2.754 -0.3206  1.2689 -0.2490
  803MOL0     H 8381   7.162   4.923   2.554 -1.9484  1.1159  0.9589
  803MOL0     H 8382   7.133   4.744   2.604 -1.2616 -1.0849 -1.1633
  803MOL0     H 8383   7.235   4.986   2.760 -0.8823  1.2264 -2.0547
  803MOL0     H 8384   7.155   4.847   2.837 -0.3923 -1.0345  0.0106
  803MOL0     H 8385   6.484   4.313   2.722  0.4461  2.1344 -1.5357
  803MOL0     H 8386   6.288   4.178   2.787  1.3643 -0.9756 -1.0468
  803MOL0     H 8387   5.900   4.126   2.832 -2.4503 -0.2476  1.8551
  803MOL0     H 8388   5.712   3.998   2.929  0.0199 -0.5042  0.1360
  803MOL0     H 8389   3.964   3.524   2.501 -0.8966 -0.0733 -0.4427
  803MOL0     H 8390   3.770   3.427   2.406  0.5453  1.3390  0.0078
  803MOL0     H 8391   3.359   3.170   2.605 -3.0197  2.3764  1.1747
  803MOL0     H 8392   3.201   3.014   2.575 -0.8634  0.3528  0.7385
  803MOL0     H 8393   3.004   2.899   2.496 -1.5089  0.1767 -0.5478
  803MOL0     H 8394   3.081   2.794   2.380 -0.4250 -0.3909  2.1321
  803MOL0     H 8395   2.881   2.838   2.216 -2.8859 -0.8867  0.0604
  803MOL0     H 8396   2.797   2.911   2.351  0.9524  0.3909  0.2393
  803MOL0     H 8397   2.765   2.732   2.450  0.1148  4.0743 -1.6188
  803MOL0     H 8398   2.912   2.640   2.406  1.4139  0.2722  0.4325
  803MOL0     H 8399   2.774   2.661   2.158  0.8471 -1.0765 -0.9300
  803MOL0     H 8400   2.762   2.525   2.254  1.0059  0.6845  2.9531
  803MOL0     H 8401   2.361   2.713   2.275  0.6788  2.0019  3.1758
  803MOL0     H 8402   3.159   3.144   2.164  0.9325 -2.3279 -0.5515
  803MOL0     H 8403   3.451   3.330   2.142  0.2106 -0.2797  1.3059
  803MOL0     H 8404   3.307   3.280   2.060  1.6624  1.1563 -0.3582
  803MOL0     H 8405   3.304   3.425   2.159  2.3938  1.1924  1.7484
  804MOL0     O 8406   2.176   5.255   7.826 -0.5181 -0.9816 -0.1249
  804MOL0     C 8407   2.083   5.318   7.875  0.1923 -0.0478 -0.4310
  804MOL0     O 8408   2.097   5.410   7.982 -0.8337  0.5251  0.1666
  804MOL0     C 8409   2.215   5.428   8.045 -0.5451  0.2782  0.5571
  804MOL0     C 8410   2.342   5.428   7.982 -0.3075 -0.9329  0.4744
  804MOL0     C 8411   2.455   5.437   8.057 -0.1244 -0.3047 -0.0392
  804MOL0     C 8412   2.453   5.429   8.197  0.6345  0.1664  0.0923
  804MOL0     O 8413   2.557   5.427   8.287  0.3473 -0.0583  0.1720
  804MOL0     C 8414   2.694   5.435   8.234 -0.0482 -0.0226 -0.3638
  804MOL0     C 8415   2.789   5.431   8.349 -0.5682 -0.1302  0.6294
  804MOL0     C 8416   2.933   5.422   8.289  0.1064 -0.0457 -0.2407
  804MOL0     C 8417   3.033   5.439   8.411 -0.3266 -0.3948  0.1590
  804MOL0     C 8418   3.170   5.449   8.358 -0.2512  0.7254  0.6315
  804MOL0     C 8419   3.283   5.510   8.447 -0.8245  0.1442 -0.0314
  804MOL0     C 8420   3.402   5.558   8.363  0.4305  1.0690  0.4780
  804MOL0     C 8421   3.522   5.605   8.455  0.0870  0.3537  0.3828
  804MOL0     N 8422   3.630   5.505   8.461 -0.1213 -0.4238 -0.1332
  804MOL0     C 8423   3.609   5.394   8.540 -0.4683 -0.3242 -0.3346
  804MOL0     C 8424   3.724   5.321   8.536  0.2413 -0.6491 -0.2437
  804MOL0     C 8425   3.748   5.213   8.638  0.6891 -0.8379 -0.6065
  804MOL0     C 8426   3.671   5.077   8.619 -0.0552 -0.6416  0.2065
  804MOL0     C 8427   3.719   5.018   8.484 -0.6331 -0.1598  0.8434
  804MOL0     C 8428   3.876   5.010   8.459 -0.0758 -0.1992  0.5408
  804MOL0     O 8429   3.952   4.984   8.577  0.4244 -1.1710 -0.3930
  804MOL0     C 8430   4.084   5.025   8.580  0.1949  0.1268 -0.4620
  804MOL0     C 8431   4.125   5.153   8.570  0.3437 -0.1367  0.7073
  804MOL0     C 8432   4.266   5.178   8.578 -0.1709  0.3078  0.3266
  804MOL0     C 8433   4.356   5.078   8.586 -0.1967 -0.0648 -1.0823
  804MOL0     C 8434   4.500   5.118   8.592 -0.1248 -0.8766  0.0357
  804MOL0     O 8435   4.587   5.026   8.636  0.4001 -0.3020  0.3536
  804MOL0     C 8436   4.722   5.039   8.646  0.0288  0.8794  0.0448
  804MOL0     C 8437   4.816   5.026   8.544 -0.2939 -0.3863  0.2701
  804MOL0     C 8438   4.953   5.046   8.559 -0.3810 -0.6436 -0.6445
  804MOL0     C 8439   5.000   5.087   8.691 -0.8974 -0.4765 -0.1673
  804MOL0     O 8440   5.132   5.119   8.700 -0.2322 -1.1624  0.0677
  804MOL0     C 8441   5.174   5.170   8.833 -0.2093 -0.2145 -0.3001
  804MOL0     C 8442   5.327   5.167   8.851  0.0038 -0.3831 -0.3688
  804MOL0     C 8443   5.355   5.220   8.997  1.0540 -0.0618 -0.0541
  804MOL0     C 8444   5.493   5.233   9.044 -0.3031  0.8959  0.5398
  804MOL0     C 8445   5.590   5.121   9.005 -0.3497 -0.1121 -0.7035
  804MOL0     C 8446   5.726   5.138   9.079 -0.2409  0.2052 -0.5747
  804MOL0     C 8447   5.811   5.264   9.041  0.5334 -0.1216  0.3162
  804MOL0     C 8448   5.951   5.270   9.110 -0.2718  0.2225  0.5045
  804MOL0    Cl 8449   6.021   5.109   9.148  0.0807  0.1676  0.3189
  804MOL0     C 8450   4.902   5.090   8.803 -0.8163  0.1641  0.0179
  804MOL0     C 8451   4.773   5.071   8.771  0.6388 -0.5261  0.0326
  804MOL0     O 8452   4.526   5.232   8.549  0.7906 -0.5253 -0.1901
  804MOL0     C 8453   4.313   4.945   8.610  0.3607  0.3816  0.7599
  804MOL0     C 8454   4.177   4.923   8.612 -0.1642 -0.6598 -0.3759
  804MOL0     N 8455   3.811   5.386   8.449  0.3835 -0.6890  0.9563
  804MOL0     N 8456   3.757   5.499   8.407  0.2718 -0.3893  0.5743
  804MOL0     C 8457   2.332   5.428   8.264  0.3039 -0.0063  0.2130
  804MOL0     C 8458   2.213   5.436   8.184  0.4051 -0.1467 -0.7920
  804MOL0     C 8459   1.942   5.338   7.820  0.5043  0.7097 -0.7608
  804MOL0     C 8460   1.851   5.401   7.912  0.1150 -0.0258 -0.3771
  804MOL0     C 8461   1.717   5.403   7.888  0.7735  0.4068  0.5888
  804MOL0     C 8462   1.669   5.370   7.757 -0.1006  0.4038 -0.3960
  804MOL0     O 8463   1.533   5.393   7.737  0.5070  0.0206  0.1787
  804MOL0     C 8464   1.448   5.284   7.692 -0.4280 -0.2458  0.5764
  804MOL0     C 8465   1.321   5.343   7.620 -0.2885 -0.7246 -0.7821
  804MOL0     C 8466   1.231   5.234   7.562  0.1648  0.9917  0.8493
  804MOL0     C 8467   1.297   5.119   7.487 -0.5774  0.3836  0.0941
  804MOL0     C 8468   1.197   5.029   7.418  0.3587  0.2731  0.1453
  804MOL0     C 8469   1.117   4.955   7.366  0.0263 -0.4851  0.3624
  804MOL0     C 8470   1.758   5.321   7.674 -0.1784 -0.3358  0.2824
  804MOL0     C 8471   1.894   5.290   7.701  0.2444 -0.3200  0.5899
  804MOL0     C 8472   1.979   5.230   7.594 -0.1142 -0.9674 -0.2483
  804MOL0     H 8473   2.357   5.425   7.875 -0.4950  0.3328  0.4024
  804MOL0     H 8474   2.548   5.454   8.003 -0.0358 -3.9137 -1.2695
  804MOL0     H 8475   2.716   5.346   8.175 -1.1299 -0.0453 -0.7568
  804MOL0     H 8476   2.715   5.524   8.173 -0.9472  0.9603  0.7126
  804MOL0     H 8477   2.775   5.345   8.415 -3.0243 -1.8659 -1.9125
  804MOL0     H 8478   2.766   5.527   8.396 -2.2250 -2.0429  4.1751
  804MOL0     H 8479   2.952   5.491   8.207  1.0233 -1.2514 -1.0747
  804MOL0     H 8480   2.947   5.323   8.245  2.1163 -1.0287  2.3534
  804MOL0     H 8481   2.996   5.524   8.469 -1.8636 -1.0801  0.2377
  804MOL0     H 8482   3.017   5.351   8.475 -0.2675 -1.2079 -0.9215
  804MOL0     H 8483   3.197   5.350   8.320  0.4504 -0.1483  3.2612
  804MOL0     H 8484   3.172   5.500   8.261 -0.2878  1.3345  0.9464
  804MOL0     H 8485   3.239   5.594   8.503  0.1248  1.0983 -0.6720
  804MOL0     H 8486   3.305   5.436   8.524 -0.8402  0.2588  0.0840
  804MOL0     H 8487   3.371   5.638   8.296  0.3062  0.3779 -0.3050
  804MOL0     H 8488   3.435   5.478   8.296 -1.1395  1.4762 -0.8474
  804MOL0     H 8489   3.559   5.696   8.407 -0.6725 -0.4180 -1.7999
  804MOL0     H 8490   3.487   5.618   8.558  3.2420 -0.4882  1.6527
  804MOL0     H 8491   3.519   5.376   8.598  1.3200 -2.6804  1.9629
  804MOL0     H 8492   3.855   5.203   8.657  1.0751 -0.1342 -2.2300
  804MOL0     H 8493   3.708   5.261   8.728 -2.1297  4.0650 -3.9649
  804MOL0     H 8494   3.703   5.008   8.698 -1.1408 -1.0389  0.3072
  804MOL0     H 8495   3.565   5.101   8.627 -0.2925 -2.1169  2.3135
  804MOL0     H 8496   3.665   5.080   8.412 -0.6006  2.6705  3.0768
  804MOL0     H 8497   3.673   4.919   8.478 -1.3287  0.2481 -0.9253
  804MOL0     H 8498   3.913   5.106   8.422  1.1810 -1.8518 -2.9297
  804MOL0     H 8499   3.891   4.932   8.383  2.6688  2.3928 -1.8148
  804MOL0     H 8500   4.051   5.232   8.571 -0.0462 -0.4217 -1.0359
  804MOL0     H 8501   4.306   5.278   8.567 -2.1162  1.0558 -0.4133
  804MOL0     H 8502   4.774   5.007   8.445 -2.3498 -0.7359  1.1646
  804MOL0     H 8503   5.031   5.039   8.484  2.0355 -1.6406  1.7708
  804MOL0     H 8504   5.143   5.275   8.843  1.8211  0.3710  0.3748
  804MOL0     H 8505   5.121   5.114   8.910 -4.7400  1.5728 -1.7222
  804MOL0     H 8506   5.358   5.062   8.845  1.3372  0.0382 -1.4757
  804MOL0     H 8507   5.377   5.222   8.771 -0.2280 -1.2848 -1.1460
  804MOL0     H 8508   5.301   5.315   9.001 -0.9363 -0.8970 -3.4080
  804MOL0     H 8509   5.313   5.143   9.062 -1.1598  0.1243 -1.1656
  804MOL0     H 8510   5.484   5.232   9.153 -1.5568  0.1959  0.4479
  804MOL0     H 8511   5.523   5.335   9.016  0.5220  0.3176 -0.7756
  804MOL0     H 8512   5.611   5.116   8.898  3.2549 -2.3234 -0.0294
  804MOL0     H 8513   5.553   5.023   9.035  2.3282 -0.5720  1.4972
  804MOL0     H 8514   5.726   5.124   9.188  1.2925 -0.5909 -0.6481
  804MOL0     H 8515   5.786   5.048   9.063 -1.0217 -0.4658  0.1254
  804MOL0     H 8516   5.744   5.350   9.034  2.8442  1.7848 -6.5770
  804MOL0     H 8517   5.843   5.243   8.939  0.8705 -1.0037  0.5988
  804MOL0     H 8518   6.016   5.323   9.041 -1.1736  0.7856  0.0741
  804MOL0     H 8519   5.947   5.327   9.203  2.8616  1.4406 -0.0149
  804MOL0     H 8520   4.931   5.118   8.904  0.0336 -2.0425  0.4293
  804MOL0     H 8521   4.702   5.077   8.852  1.3936  1.1197  0.6173
  804MOL0     H 8522   4.375   4.855   8.613 -0.0487  0.0702  0.1720
  804MOL0     H 8523   4.141   4.823   8.633  1.7527 -1.6004 -1.2603
  804MOL0     H 8524   2.314   5.424   8.371  1.7541  3.8447  0.7831
  804MOL0     H 8525   2.116   5.434   8.233  0.2783 -2.5076 -1.0005
  804MOL0     H 8526   1.882   5.416   8.015 -1.7036 -1.8748  0.5167
  804MOL0     H 8527   1.649   5.438   7.965  0.5610 -1.4197  1.2615
  804MOL0     H 8528   1.423   5.236   7.788 -0.6578  3.9097  2.8337
  804MOL0     H 8529   1.506   5.204   7.646  1.7683  0.7806  1.3850
  804MOL0     H 8530   1.353   5.410   7.540 -0.4862 -1.0053 -1.0996
  804MOL0     H 8531   1.258   5.397   7.691 -1.0021 -1.4849 -0.8184
  804MOL0     H 8532   1.166   5.289   7.494 -1.3846 -0.8906  0.7177
  804MOL0     H 8533   1.163   5.191   7.637 -0.9067 -0.7768 -1.0191
  804MOL0     H 8534   1.355   5.157   7.402  1.0736 -2.2869 -0.0754
  804MOL0     H 8535   1.366   5.062   7.550 -0.6647 -0.3711 -0.4891
  804MOL0     H 8536   1.063   4.888   7.303  2.5418 -2.0332 -0.2894
  804MOL0     H 8537   1.736   5.302   7.569  1.7984  1.2954 -0.5044
  804MOL0     H 8538   2.072   5.180   7.623  0.5689 -0.4681 -1.4784
  804MOL0     H 8539   1.912   5.158   7.547 -2.4837  2.6156 -2.8757
  804MOL0     H 8540   2.009   5.308   7.524 -0.3327  0.3688  1.0913
  805MOL0     O 8541   5.487   0.682   3.407  1.1118  0.0427  0.2080
  805MOL0     C 8542   5.462   0.778   3.330  0.1796  0.3736  0.8149
  805MOL0     O 8543   5.343   0.810   3.273 -0.3701  0.6952 -0.6788
  805MOL0     C 8544   5.230   0.756   3.322  0.5386 -0.6748 -0.3491
  805MOL0     C 8545   5.128   0.706   3.243  0.3434 -0.1673  0.5703
  805MOL0     C 8546   5.018   0.633   3.298 -0.7194  0.6691  0.0306
  805MOL0     C 8547   4.996   0.606   3.433 -0.9571 -0.3276  0.8515
  805MOL0     O 8548   4.891   0.537   3.482 -0.3725  0.0205  0.3365
  805MOL0     C 8549   4.768   0.611   3.463  1.6889 -0.4481 -0.7151
  805MOL0     C 8550   4.660   0.524   3.529 -0.1900 -0.6681 -0.2879
  805MOL0     C 8551   4.620   0.585   3.670 -1.4558  0.3931  0.0109
  805MOL0     C 8552   4.505   0.515   3.736  0.4245 -0.5890 -0.5350
  805MOL0     C 8553   4.493   0.534   3.884 -0.2573  0.9639 -0.2058
  805MOL0     C 8554   4.428   0.668   3.913 -0.9647  0.2571  0.7896
  805MOL0     C 8555   4.417   0.706   4.052  0.9901  0.5731  0.0172
  805MOL0     C 8556   4.315   0.811   4.081  0.8806 -0.1747  0.0228
  805MOL0     N 8557   4.323   0.860   4.216  0.0414  0.3443  0.0131
  805MOL0     C 8558   4.394   0.969   4.257  0.6453 -1.2711 -0.6387
  805MOL0     C 8559   4.393   0.958   4.394 -0.1947 -0.3707  0.3750
  805MOL0     C 8560   4.451   1.057   4.490 -0.9635 -0.2521 -0.7412
  805MOL0     C 8561   4.612   1.068   4.481 -0.7109  0.0536  0.4620
  805MOL0     C 8562   4.679   0.946   4.555 -1.0679  0.1416 -0.3379
  805MOL0     C 8563   4.836   0.967   4.543  0.1564 -0.1744 -0.0336
  805MOL0     O 8564   4.879   0.947   4.410 -0.4238  0.8382 -0.2727
  805MOL0     C 8565   5.010   0.949   4.387 -0.7586 -0.1805 -0.1538
  805MOL0     C 8566   5.058   0.898   4.263  0.0540 -0.0149  0.5077
  805MOL0     C 8567   5.190   0.919   4.226 -0.3582  0.7241  0.0222
  805MOL0     C 8568   5.288   0.965   4.320 -0.8991  0.5871 -0.3538
  805MOL0     C 8569   5.430   0.963   4.287 -0.2509  0.2650  0.6213
  805MOL0     O 8570   5.512   1.027   4.370 -0.3918 -0.0047 -0.3979
  805MOL0     C 8571   5.648   1.029   4.341  0.0082  0.9419  0.3607
  805MOL0     C 8572   5.741   0.987   4.439  0.1296 -1.0346  0.5831
  805MOL0     C 8573   5.878   0.985   4.405  0.0701 -0.5172 -0.1088
  805MOL0     C 8574   5.931   1.033   4.283  0.1525  0.7871  0.4295
  805MOL0     O 8575   6.067   1.043   4.240  0.2698 -0.4541 -0.1579
  805MOL0     C 8576   6.178   1.021   4.340  0.5035  1.3602  0.0076
  805MOL0     C 8577   6.309   1.087   4.297 -0.0713  0.2910  0.0506
  805MOL0     C 8578   6.404   0.993   4.220 -0.6332 -0.9078 -0.5541
  805MOL0     C 8579   6.532   1.069   4.171 -0.0308 -0.9715 -0.3015
  805MOL0     C 8580   6.648   0.973   4.149  0.0788 -0.6238 -0.7406
  805MOL0     C 8581   6.634   0.915   4.007  0.8817  0.0260 -0.3533
  805MOL0     C 8582   6.768   0.842   3.967 -0.3155 -0.6638  0.5132
  805MOL0     C 8583   6.757   0.777   3.840 -0.3362  0.1290  0.4429
  805MOL0    Cl 8584   6.922   0.705   3.808 -0.0820  0.1442  0.8516
  805MOL0     C 8585   5.836   1.069   4.188 -0.2820 -0.9150  0.7053
  805MOL0     C 8586   5.704   1.062   4.217  0.9859  0.4767  0.1683
  805MOL0     O 8587   5.462   0.882   4.197  0.2445 -0.4959 -0.1979
  805MOL0     C 8588   5.245   1.008   4.446  0.3326 -0.1627 -0.2128
  805MOL0     C 8589   5.105   1.003   4.477 -0.0294  0.3585 -0.1211
  805MOL0     N 8590   4.333   0.844   4.430  0.4244  0.0839  0.2413
  805MOL0     N 8591   4.274   0.786   4.318  0.5600 -0.5173  0.1066
  805MOL0     C 8592   5.098   0.662   3.514  0.4472 -0.7780  0.4444
  805MOL0     C 8593   5.204   0.744   3.464 -0.5795 -0.4534 -0.7337
  805MOL0     C 8594   5.568   0.876   3.292 -0.1020 -0.4525 -1.0163
  805MOL0     C 8595   5.546   0.986   3.206 -0.1069  0.3371  0.1474
  805MOL0     C 8596   5.636   1.085   3.186  0.4499 -0.6312 -0.5282
  805MOL0     C 8597   5.768   1.077   3.239  0.0827  0.8068 -0.2949
  805MOL0     O 8598   5.875   1.165   3.220  0.2605  0.1859  0.0988
  805MOL0     C 8599   5.854   1.294   3.275 -0.1979 -1.3437 -1.4687
  805MOL0     C 8600   5.870   1.298   3.428  0.2045  0.2895 -0.1600
  805MOL0     C 8601   6.015   1.289   3.466  0.0332  0.6158  0.4197
  805MOL0     C 8602   6.060   1.142   3.476  0.0596  0.7724 -0.4134
  805MOL0     C 8603   6.199   1.153   3.517 -0.3982  0.0837 -0.2461
  805MOL0     C 8604   6.308   1.159   3.575 -0.1572 -0.0028  0.5130
  805MOL0     C 8605   5.797   0.957   3.318  0.4758 -0.0009  0.5792
  805MOL0     C 8606   5.702   0.865   3.347  0.9147 -0.1618  0.1253
  805MOL0     C 8607   5.745   0.733   3.420  0.1853 -0.3579  0.0046
  805MOL0     H 8608   5.139   0.716   3.135  0.3729 -1.5192  0.4356
  805MOL0     H 8609   4.949   0.594   3.223  2.0023 -1.7274 -1.4442
  805MOL0     H 8610   4.772   0.706   3.517 -1.4203 -2.0495  2.8322
  805MOL0     H 8611   4.743   0.630   3.358 -1.6045  1.5341  0.2965
  805MOL0     H 8612   4.694   0.420   3.540  1.0702 -0.2699 -0.2238
  805MOL0     H 8613   4.570   0.515   3.469  1.5576 -2.1899 -2.8690
  805MOL0     H 8614   4.609   0.693   3.664  0.2583  0.5325 -1.5211
  805MOL0     H 8615   4.695   0.560   3.746 -1.5289 -0.4108 -0.1710
  805MOL0     H 8616   4.410   0.555   3.698 -0.8952  0.7008  3.5023
  805MOL0     H 8617   4.519   0.409   3.715 -0.6500 -0.6134 -1.1799
  805MOL0     H 8618   4.415   0.461   3.910  2.6996 -2.3117  0.3032
  805MOL0     H 8619   4.585   0.506   3.937 -0.8789 -1.5923 -0.3246
  805MOL0     H 8620   4.484   0.744   3.858 -0.6921 -0.9640 -0.7082
  805MOL0     H 8621   4.332   0.658   3.860  0.0478 -0.6553 -0.9842
  805MOL0     H 8622   4.517   0.745   4.077  1.5775 -0.1059 -1.1548
  805MOL0     H 8623   4.394   0.627   4.124 -0.6915  1.3217  0.3313
  805MOL0     H 8624   4.317   0.890   4.005  0.9639  1.2977  1.5109
  805MOL0     H 8625   4.216   0.769   4.062  0.7527  0.5614 -1.0108
  805MOL0     H 8626   4.423   1.054   4.196 -0.0560 -1.7184 -1.6391
  805MOL0     H 8627   4.412   1.157   4.474  0.7114  0.4596 -0.5416
  805MOL0     H 8628   4.422   1.023   4.590 -1.0919  0.6717 -0.4599
  805MOL0     H 8629   4.645   1.051   4.379 -2.0097 -1.0552  0.1870
  805MOL0     H 8630   4.644   1.171   4.498 -0.0747 -0.1137  0.3185
  805MOL0     H 8631   4.647   0.851   4.511 -0.8483  0.5049 -1.3086
  805MOL0     H 8632   4.651   0.943   4.661 -1.1276 -1.4727 -0.3753
  805MOL0     H 8633   4.886   0.891   4.604  3.4872  1.4569 -0.4717
  805MOL0     H 8634   4.857   1.069   4.577  0.5204  0.7905 -2.9051
  805MOL0     H 8635   4.981   0.872   4.191  0.1467  3.3130 -0.9854
  805MOL0     H 8636   5.230   0.889   4.129  0.6099 -1.8655  1.1514
  805MOL0     H 8637   5.714   0.968   4.543  3.4879  1.4904  2.0946
  805MOL0     H 8638   5.954   0.953   4.476  0.2459 -0.1717 -0.1367
  805MOL0     H 8639   6.148   1.057   4.439 -2.7606 -1.6722  0.2934
  805MOL0     H 8640   6.183   0.914   4.358  1.9496  1.5987  1.1723
  805MOL0     H 8641   6.284   1.167   4.226  0.5103  0.1828 -0.2899
  805MOL0     H 8642   6.366   1.141   4.374  2.3293 -1.3329 -0.4590
  805MOL0     H 8643   6.427   0.907   4.283  0.1563  0.5420  1.2093
  805MOL0     H 8644   6.353   0.964   4.127  1.3904  0.1709 -2.0804
  805MOL0     H 8645   6.572   1.134   4.251  0.2807 -1.5271  0.0005
  805MOL0     H 8646   6.511   1.127   4.081  3.3393 -1.8859 -1.8630
  805MOL0     H 8647   6.645   0.893   4.224  0.9472  0.5329  0.5835
  805MOL0     H 8648   6.741   1.030   4.162 -2.3468  3.4253  0.4414
  805MOL0     H 8649   6.544   0.853   4.005  1.1349 -0.5910  2.7666
  805MOL0     H 8650   6.618   0.994   3.933 -0.8922 -0.4740 -0.5594
  805MOL0     H 8651   6.797   0.763   4.037 -0.9423  0.4690  2.1339
  805MOL0     H 8652   6.846   0.918   3.978 -0.6907  0.1175 -1.7061
  805MOL0     H 8653   6.687   0.693   3.850 -0.1477 -0.2714 -1.2060
  805MOL0     H 8654   6.730   0.847   3.760  0.6160  0.4473  0.3809
  805MOL0     H 8655   5.871   1.103   4.091  0.7735 -1.8181  0.7475
  805MOL0     H 8656   5.627   1.087   4.145  2.5631  0.3031 -1.6629
  805MOL0     H 8657   5.312   1.046   4.523  1.1299 -1.0385 -0.4498
  805MOL0     H 8658   5.065   1.057   4.562  0.5582  0.4344  0.1164
  805MOL0     H 8659   5.075   0.643   3.618 -3.0721 -0.9057 -0.2268
  805MOL0     H 8660   5.286   0.794   3.515 -0.6553  2.1014 -2.8547
  805MOL0     H 8661   5.451   0.996   3.155 -1.9066 -1.8211  2.7454
  805MOL0     H 8662   5.619   1.175   3.126 -2.7454 -0.3632  0.5634
  805MOL0     H 8663   5.751   1.323   3.253 -0.0796  2.8122  2.1133
  805MOL0     H 8664   5.914   1.367   3.220 -0.6635  0.2339  0.0179
  805MOL0     H 8665   5.802   1.230   3.479 -0.5448  0.5267 -0.8186
  805MOL0     H 8666   5.827   1.394   3.458 -1.5696 -0.7774  0.8210
  805MOL0     H 8667   6.021   1.336   3.565  2.3626  3.3659 -0.8875
  805MOL0     H 8668   6.073   1.349   3.396  1.0123  0.5286  1.1278
  805MOL0     H 8669   6.007   1.089   3.555  0.0424  1.0417 -0.2443
  805MOL0     H 8670   6.078   1.090   3.382  4.3948 -1.0921  1.1793
  805MOL0     H 8671   6.407   1.160   3.616  0.2791  0.0518 -0.4940
  805MOL0     H 8672   5.900   0.944   3.350  0.7231 -1.0553 -0.5539
  805MOL0     H 8673   5.707   0.719   3.521  1.9191  3.3507  1.3312
  805MOL0     H 8674   5.712   0.651   3.355  0.3114 -1.4365  1.2746
  805MOL0     H 8675   5.855   0.731   3.424  0.1795  0.1326  0.4290
  806MOL0     O 8676   0.581   0.688  10.019 -0.4667 -0.3401  0.6030
  806MOL0     C 8677   0.524   0.768  10.090 -0.3416 -1.0433 -0.0441
  806MOL0     O 8678   0.592   0.855  10.176 -0.1078 -0.1744 -0.5561
  806MOL0     C 8679   0.724   0.873  10.197  0.5749  0.0652  0.5915
  806MOL0     C 8680   0.753   0.919  10.320 -0.3391 -0.8308 -1.0756
  806MOL0     C 8681   0.895   0.933  10.356 -0.0510 -0.5321 -0.2748
  806MOL0     C 8682   0.996   0.919  10.261 -0.0243  0.3572  0.3922
  806MOL0     O 8683   1.123   0.946  10.303  0.1792 -0.5928 -0.2872
  806MOL0     C 8684   1.227   0.882  10.228  0.2686  0.5095  0.5480
  806MOL0     C 8685   1.368   0.929  10.275  0.4851 -0.7158  0.1205
  806MOL0     C 8686   1.484   0.833  10.246  0.8694  0.8122  0.8752
  806MOL0     C 8687   1.611   0.865  10.328  0.0596 -0.0750 -0.2531
  806MOL0     C 8688   1.741   0.804  10.286  0.9085 -0.8955 -1.5434
  806MOL0     C 8689   1.758   0.649  10.324 -0.3937  0.9566  0.5536
  806MOL0     C 8690   1.891   0.589  10.282  0.3963 -0.1184 -0.4042
  806MOL0     C 8691   1.900   0.553  10.130 -0.8842 -0.2602  0.1404
  806MOL0     N 8692   2.020   0.461  10.103  0.8664 -0.1858  0.0162
  806MOL0     C 8693   2.053   0.347  10.170  0.4072  0.3331  0.4698
  806MOL0     C 8694   2.149   0.296  10.097 -0.1013  0.1841  0.0380
  806MOL0     C 8695   2.216   0.161  10.126 -0.3909 -0.0145  0.2211
  806MOL0     C 8696   2.356   0.142  10.067 -1.0317 -0.4355  0.0714
  806MOL0     C 8697   2.474   0.162  10.176  0.4706  0.8483  0.3144
  806MOL0     C 8698   2.472   0.056  10.277  1.0986 -0.1807  0.2262
  806MOL0     O 8699   2.477  -0.075  10.223 -0.2406  0.2048  0.6063
  806MOL0     C 8700   2.598  -0.126  10.167  0.0888 -0.2296  0.5788
  806MOL0     C 8701   2.598  -0.242  10.083  0.1970 -0.5745  0.7866
  806MOL0     C 8702   2.724  -0.292  10.049 -0.1949 -0.2364  0.6219
  806MOL0     C 8703   2.849  -0.235  10.081  0.9954 -0.4438  0.1228
  806MOL0     C 8704   2.983  -0.292  10.046  0.3960  0.1556 -0.3822
  806MOL0     O 8705   3.093  -0.258  10.112  0.5651 -0.3882  0.2886
  806MOL0     C 8706   3.218  -0.310  10.085 -0.8865  0.0997 -0.3994
  806MOL0     C 8707   3.252  -0.436  10.126  0.5582 -0.0698 -0.0889
  806MOL0     C 8708   3.372  -0.490  10.084 -0.5107 -0.3206  0.0229
  806MOL0     C 8709   3.465  -0.411  10.004 -0.1836 -0.2552  0.5341
  806MOL0     O 8710   3.596  -0.448   9.986 -0.0917 -0.0473 -0.2649
  806MOL0     C 8711   3.675  -0.410  10.104 -0.6191 -0.3142 -0.2541
  806MOL0     C 8712   3.831  -0.446  10.089 -0.0404 -1.0145 -0.2808
  806MOL0     C 8713   3.856  -0.574  10.023  0.0062  0.1612  0.2805
  806MOL0     C 8714   3.998  -0.627  10.032 -0.2395 -0.3743 -0.2505
  806MOL0     C 8715   3.997  -0.777   9.996 -0.0937 -0.1954 -0.5021
  806MOL0     C 8716   4.140  -0.816  10.022 -0.4065 -0.8329  0.7372
  806MOL0     C 8717   4.161  -0.962  10.001 -0.4216 -0.3678 -0.0741
  806MOL0     C 8718   4.311  -0.984   9.996 -0.1489  0.1915  0.3654
  806MOL0    Cl 8719   4.357  -1.154   9.960 -0.0079 -0.2680  0.2330
  806MOL0     C 8720   3.422  -0.282   9.962 -0.6107  0.3333 -0.0283
  806MOL0     C 8721   3.298  -0.234   9.993 -0.4674  0.3292  0.2767
  806MOL0     O 8722   2.977  -0.383   9.960 -1.7513  0.2153 -0.7028
  806MOL0     C 8723   2.838  -0.115  10.163  0.0461 -0.5644  0.2437
  806MOL0     C 8724   2.717  -0.062  10.199 -0.4134 -0.7313 -0.5697
  806MOL0     N 8725   2.184   0.387   9.992 -0.2527 -0.5212 -0.4423
  806MOL0     N 8726   2.109   0.487  10.006  0.2545 -0.3127 -0.0434
  806MOL0     C 8727   0.944   0.897  10.128 -0.4714 -0.4404  0.0951
  806MOL0     C 8728   0.814   0.864  10.091 -0.3645 -0.0238 -0.4029
  806MOL0     C 8729   0.379   0.795  10.083 -0.3010  1.1032  0.3771
  806MOL0     C 8730   0.328   0.884  10.175 -0.1280 -0.4154  0.2430
  806MOL0     C 8731   0.190   0.889  10.200  0.0140 -0.2430 -0.1788
  806MOL0     C 8732   0.095   0.798  10.140  0.4673 -0.7728 -0.8567
  806MOL0     O 8733  -0.039   0.795  10.170 -0.2261 -0.1488 -0.2952
  806MOL0     C 8734  -0.096   0.889  10.263  0.7757  0.5331  0.3850
  806MOL0     C 8735  -0.115   1.030  10.207 -0.3391  0.5914 -0.2701
  806MOL0     C 8736  -0.143   1.132  10.318  0.2825 -0.0257 -0.3105
  806MOL0     C 8737  -0.212   1.261  10.278 -0.5138 -0.2311 -1.2264
  806MOL0     C 8738  -0.202   1.347  10.393 -0.4572  0.4961 -0.5136
  806MOL0     C 8739  -0.184   1.417  10.493  0.7674 -0.4635 -1.1487
  806MOL0     C 8740   0.144   0.717  10.043 -0.1835  0.3388  0.8626
  806MOL0     C 8741   0.281   0.718  10.005 -0.5395 -0.2998  0.0351
  806MOL0     C 8742   0.315   0.618   9.895 -0.5531  0.0619 -1.0863
  806MOL0     H 8743   0.670   0.950  10.383 -0.5887  0.3446 -1.9571
  806MOL0     H 8744   0.923   0.946  10.460 -0.2714 -1.4335 -0.0972
  806MOL0     H 8745   1.218   0.776  10.255 -2.3030 -0.4289 -3.1658
  806MOL0     H 8746   1.209   0.892  10.121 -1.3308  0.0857  0.7613
  806MOL0     H 8747   1.369   0.946  10.383  1.1797  3.5540 -0.4068
  806MOL0     H 8748   1.381   1.028  10.230 -0.2536  0.1134  1.6318
  806MOL0     H 8749   1.515   0.834  10.142 -1.2097 -1.9191  0.1170
  806MOL0     H 8750   1.442   0.733  10.260  1.0785  0.9390  2.7356
  806MOL0     H 8751   1.621   0.974  10.336 -2.0055  0.0363  1.7869
  806MOL0     H 8752   1.597   0.853  10.435 -0.5527  1.1470 -0.1695
  806MOL0     H 8753   1.755   0.821  10.178  2.4576  1.8706 -0.9868
  806MOL0     H 8754   1.817   0.864  10.335 -1.8719  1.1005  0.6201
  806MOL0     H 8755   1.749   0.624  10.430  2.3259  0.7637  0.8113
  806MOL0     H 8756   1.672   0.598  10.279 -0.7746 -0.2715  2.5761
  806MOL0     H 8757   1.901   0.500  10.346  1.0782  0.2877  0.0637
  806MOL0     H 8758   1.969   0.657  10.317 -1.0078  1.1807  0.3194
  806MOL0     H 8759   1.812   0.493  10.105 -1.9948  1.2402  0.3196
  806MOL0     H 8760   1.907   0.650  10.080  1.2854  1.8519  4.0874
  806MOL0     H 8761   1.999   0.301  10.253 -3.9028  0.1712 -2.1277
  806MOL0     H 8762   2.211   0.130  10.231  1.8430 -0.7844  0.1570
  806MOL0     H 8763   2.155   0.087  10.072  0.6046 -0.1910 -0.6962
  806MOL0     H 8764   2.362   0.038  10.035  0.2709 -1.0741  2.2112
  806MOL0     H 8765   2.375   0.213   9.986 -1.2132 -1.0708 -0.5392
  806MOL0     H 8766   2.478   0.261  10.222  1.5153  0.5421  0.9166
  806MOL0     H 8767   2.564   0.152  10.115 -1.9630 -2.1880 -3.3005
  806MOL0     H 8768   2.371   0.054  10.319  0.7438 -3.0262 -0.5620
  806MOL0     H 8769   2.547   0.076  10.354 -0.5721  1.2633  1.5633
  806MOL0     H 8770   2.498  -0.282  10.066 -1.2920  2.2842  2.0271
  806MOL0     H 8771   2.717  -0.386   9.995 -2.5416 -0.1949  0.7877
  806MOL0     H 8772   3.191  -0.491  10.197  3.1240  1.6598  3.7714
  806MOL0     H 8773   3.409  -0.586  10.120 -0.8026  0.2975  2.0511
  806MOL0     H 8774   3.659  -0.304  10.126  1.8748 -0.1141  0.9004
  806MOL0     H 8775   3.635  -0.479  10.178 -2.3993 -2.3597 -2.9153
  806MOL0     H 8776   3.882  -0.367  10.033 -0.3761 -1.2288 -0.8961
  806MOL0     H 8777   3.867  -0.451  10.192  1.9805 -2.4580 -1.0123
  806MOL0     H 8778   3.789  -0.649  10.065  1.2148 -0.3630  1.3599
  806MOL0     H 8779   3.835  -0.582   9.916  0.3015 -3.8359  0.3453
  806MOL0     H 8780   4.022  -0.610  10.138 -3.5794  0.6132  0.4753
  806MOL0     H 8781   4.066  -0.580   9.960  1.1300 -2.9742 -0.8010
  806MOL0     H 8782   3.973  -0.799   9.891  1.5536  1.4716 -1.2749
  806MOL0     H 8783   3.924  -0.826  10.061 -0.7368  2.1186  0.5854
  806MOL0     H 8784   4.191  -0.755   9.947 -3.4141 -0.4282 -1.1252
  806MOL0     H 8785   4.187  -0.792  10.118 -0.7046 -1.3885  1.0261
  806MOL0     H 8786   4.109  -0.992   9.909 -2.4843 -3.1168  1.8364
  806MOL0     H 8787   4.116  -1.019  10.083  0.3704  2.2939  2.3685
  806MOL0     H 8788   4.360  -0.912   9.930 -0.3771  2.4606  2.5486
  806MOL0     H 8789   4.351  -0.939  10.088 -1.4881 -0.4890  1.3118
  806MOL0     H 8790   3.484  -0.221   9.897 -0.4041  1.6182  1.3316
  806MOL0     H 8791   3.263  -0.138   9.956  1.6851  0.5724 -1.2976
  806MOL0     H 8792   2.930  -0.070  10.201 -0.7754  0.5208  1.0046
  806MOL0     H 8793   2.719   0.024  10.265  2.4412 -1.1227 -0.0305
  806MOL0     H 8794   1.009   0.918  10.044  1.4849  0.7930  1.8178
  806MOL0     H 8795   0.779   0.874   9.988 -1.6537  2.3523  0.1772
  806MOL0     H 8796   0.384   0.961  10.227 -1.7747  0.4662  0.7881
  806MOL0     H 8797   0.164   0.971  10.266  1.0134  0.8459 -1.1007
  806MOL0     H 8798  -0.031   0.903  10.350 -1.2718  0.2678  2.0536
  806MOL0     H 8799  -0.195   0.849  10.288  2.2788 -2.7344  1.5839
  806MOL0     H 8800  -0.201   1.024  10.139 -0.9909 -0.9029  0.6232
  806MOL0     H 8801  -0.020   1.054  10.158  0.4215 -0.3791  0.6733
  806MOL0     H 8802  -0.044   1.160  10.356  1.6065  2.7255 -4.9921
  806MOL0     H 8803  -0.198   1.078  10.395 -0.2446  1.6089  0.5153
  806MOL0     H 8804  -0.162   1.302  10.190  3.0978 -2.5677 -0.4764
  806MOL0     H 8805  -0.316   1.241  10.250 -0.9110  1.4999 -1.1002
  806MOL0     H 8806  -0.167   1.465  10.587  0.0226  1.8328 -2.1024
  806MOL0     H 8807   0.071   0.660   9.986 -0.2311 -1.2055  2.3814
  806MOL0     H 8808   0.237   0.542   9.900 -0.5377 -0.0864 -2.4852
  806MOL0     H 8809   0.307   0.663   9.796  1.1334  3.3790  0.1439
  806MOL0     H 8810   0.411   0.565   9.900 -0.3126  0.6076  0.3323
  807MOL0     O 8811   9.103   1.377   6.603  0.0371 -0.1736  0.1141
  807MOL0     C 8812   9.124   1.360   6.726  0.0573  0.0007 -0.5524
  807MOL0     O 8813   9.250   1.368   6.782 -0.3288 -0.2488 -1.1768
  807MOL0     C 8814   9.357   1.397   6.699  0.3846 -0.1506 -0.5252
  807MOL0     C 8815   9.422   1.301   6.637 -0.0969  0.9353  0.5011
  807MOL0     C 8816   9.526   1.332   6.551  0.6682  0.3185  0.0130
  807MOL0     C 8817   9.564   1.464   6.539  0.3277  0.2940 -0.4588
  807MOL0     O 8818   9.660   1.502   6.445  0.1337 -0.3643 -0.5759
  807MOL0     C 8819   9.689   1.637   6.406  0.5341 -1.1663  0.4533
  807MOL0     C 8820   9.788   1.649   6.293  0.2991  0.0926  0.5223
  807MOL0     C 8821   9.935   1.672   6.322  0.3211  0.3683  0.5659
  807MOL0     C 8822  10.000   1.540   6.386 -0.1019  0.3392  0.4821
  807MOL0     C 8823  10.138   1.558   6.436 -0.1273  0.1389 -1.0023
  807MOL0     C 8824  10.244   1.590   6.327 -0.0793 -0.3139 -0.3645
  807MOL0     C 8825  10.385   1.577   6.386  1.1132 -0.7373 -0.3238
  807MOL0     C 8826  10.418   1.707   6.461 -0.0007 -0.3636 -0.2693
  807MOL0     N 8827  10.527   1.677   6.558 -0.3531  0.5134  1.2895
  807MOL0     C 8828  10.626   1.588   6.534 -0.1495  0.0906  0.2404
  807MOL0     C 8829  10.691   1.576   6.657  0.3252 -0.5056 -0.5399
  807MOL0     C 8830  10.814   1.493   6.697 -0.0984  0.1992  0.5591
  807MOL0     C 8831  10.931   1.579   6.754 -0.0292 -0.1031  0.5916
  807MOL0     C 8832  11.063   1.496   6.770  0.0278 -0.2586  0.3584
  807MOL0     C 8833  11.192   1.583   6.771 -0.4321  0.6916 -0.3012
  807MOL0     O 8834  11.315   1.514   6.797  0.1627  0.3389 -0.1694
  807MOL0     C 8835  11.435   1.570   6.765 -0.0939  0.1522 -0.8402
  807MOL0     C 8836  11.533   1.493   6.810  0.3057  0.8333 -0.6604
  807MOL0     C 8837  11.666   1.523   6.795 -0.2905 -0.8975 -0.0158
  807MOL0     C 8838  11.707   1.645   6.724  0.2790  0.3663  0.0510
  807MOL0     C 8839  11.849   1.676   6.718  0.0820  0.1422 -0.4875
  807MOL0     O 8840  11.884   1.804   6.664  0.9000  0.0400  0.0843
  807MOL0     C 8841  12.011   1.849   6.654  0.4224 -0.4088  1.0222
  807MOL0     C 8842  12.054   1.905   6.531 -0.8528 -0.3295  0.3428
  807MOL0     C 8843  12.182   1.961   6.515 -0.4551  0.5229 -0.4499
  807MOL0     C 8844  12.277   1.960   6.613 -0.0983 -0.0899 -0.4756
  807MOL0     O 8845  12.401   2.016   6.614 -0.1087  0.4384 -0.0042
  807MOL0     C 8846  12.455   2.057   6.491 -1.0346 -0.5458  0.2080
  807MOL0     C 8847  12.609   2.069   6.501  0.4126 -1.2480 -0.1536
  807MOL0     C 8848  12.649   2.152   6.624 -0.5162  0.2383 -1.0358
  807MOL0     C 8849  12.800   2.183   6.631  0.1914  0.3190 -0.9867
  807MOL0     C 8850  12.841   2.242   6.766  1.0586  0.3590  0.7343
  807MOL0     C 8851  12.947   2.345   6.743 -0.5369  0.0081 -0.4854
  807MOL0     C 8852  13.074   2.276   6.701  0.4780 -1.0741 -0.4176
  807MOL0     C 8853  13.199   2.366   6.713  0.4075 -0.7624 -0.0391
  807MOL0    Cl 8854  13.167   2.530   6.624 -0.0781  0.4683 -0.0732
  807MOL0     C 8855  12.248   1.881   6.721 -0.2527  0.1567  0.0703
  807MOL0     C 8856  12.122   1.826   6.738  0.7925  0.8928 -0.2840
  807MOL0     O 8857  11.933   1.586   6.749 -0.5756 -0.6718  0.5539
  807MOL0     C 8858  11.599   1.723   6.672  0.7358  0.2396 -0.5535
  807MOL0     C 8859  11.465   1.684   6.689 -0.1737  0.0917  0.7661
  807MOL0     N 8860  10.625   1.646   6.751  1.0397  1.0830  0.2258
  807MOL0     N 8861  10.525   1.707   6.689 -1.3340 -0.3421 -0.0737
  807MOL0     C 8862   9.491   1.563   6.612  0.0621  0.3825  0.2941
  807MOL0     C 8863   9.383   1.527   6.686 -0.0932  0.3177 -0.5645
  807MOL0     C 8864   9.009   1.362   6.827 -0.9562 -0.6893 -0.2040
  807MOL0     C 8865   9.038   1.361   6.973 -0.8174  0.6292  0.3122
  807MOL0     C 8866   8.936   1.367   7.069  0.2023  0.4131 -0.0604
  807MOL0     C 8867   8.802   1.381   7.021  0.0645  0.1827 -0.2242
  807MOL0     O 8868   8.702   1.373   7.118  0.7742  0.0578  0.2942
  807MOL0     C 8869   8.611   1.492   7.112  0.1779  0.1506  0.2308
  807MOL0     C 8870   8.488   1.488   7.205 -0.5508 -0.5668 -0.2158
  807MOL0     C 8871   8.534   1.504   7.356  0.8859 -0.9675  0.3740
  807MOL0     C 8872   8.420   1.531   7.460  0.6357 -0.0731  0.5015
  807MOL0     C 8873   8.465   1.593   7.584  0.2954 -0.2302  1.2780
  807MOL0     C 8874   8.509   1.645   7.683 -0.2979 -0.5341 -0.6267
  807MOL0     C 8875   8.778   1.391   6.886 -0.5194  0.2750  0.5597
  807MOL0     C 8876   8.872   1.375   6.789 -0.1368 -0.8251  0.1415
  807MOL0     C 8877   8.815   1.381   6.647  0.1114 -0.2097 -0.4731
  807MOL0     H 8878   9.378   1.202   6.637 -1.1197  1.3456 -1.2178
  807MOL0     H 8879   9.589   1.259   6.500  2.5109  1.6170  0.3323
  807MOL0     H 8880   9.600   1.689   6.371  0.3778 -2.5104 -1.2630
  807MOL0     H 8881   9.730   1.686   6.495 -1.2396  0.4951  0.4277
  807MOL0     H 8882   9.758   1.729   6.225 -1.1699  0.3588  1.4418
  807MOL0     H 8883   9.770   1.553   6.243 -1.2106  0.8345 -0.4499
  807MOL0     H 8884   9.948   1.756   6.391  0.8976  2.1268 -1.5915
  807MOL0     H 8885   9.981   1.698   6.227 -2.0213  0.9288 -0.4774
  807MOL0     H 8886   9.942   1.499   6.469 -1.1089 -1.0080 -0.8132
  807MOL0     H 8887  10.014   1.464   6.308 -2.3638  0.1462  0.1817
  807MOL0     H 8888  10.140   1.639   6.509 -2.3226  2.3194 -3.2006
  807MOL0     H 8889  10.171   1.461   6.475 -1.4027  0.2107  0.3102
  807MOL0     H 8890  10.234   1.512   6.251  2.7622 -1.8480  0.6804
  807MOL0     H 8891  10.223   1.687   6.281 -0.7322 -1.4561 -2.6199
  807MOL0     H 8892  10.456   1.567   6.303  1.8585 -1.2106  0.3539
  807MOL0     H 8893  10.406   1.486   6.442 -2.3455 -0.6793  1.3389
  807MOL0     H 8894  10.449   1.786   6.392 -0.5074 -0.3315 -0.4683
  807MOL0     H 8895  10.335   1.739   6.525  2.0269  0.1702  2.2376
  807MOL0     H 8896  10.660   1.531   6.448 -1.8531  0.4714 -0.7418
  807MOL0     H 8897  10.778   1.424   6.775  0.0475 -1.8363 -1.0894
  807MOL0     H 8898  10.845   1.444   6.605 -2.1883  0.2242 -0.2054
  807MOL0     H 8899  10.960   1.662   6.689 -0.4737  1.1380  1.9320
  807MOL0     H 8900  10.906   1.620   6.852  1.3259  0.4389  0.7358
  807MOL0     H 8901  11.066   1.428   6.685 -0.5162 -0.3508  0.4076
  807MOL0     H 8902  11.069   1.439   6.863  2.6778  3.5892  2.8640
  807MOL0     H 8903  11.204   1.669   6.839  1.0942  1.3796 -1.3740
  807MOL0     H 8904  11.196   1.632   6.673 -0.7897 -0.1355 -0.7314
  807MOL0     H 8905  11.493   1.404   6.857 -3.2499  0.3153 -4.1512
  807MOL0     H 8906  11.748   1.464   6.834  0.9109 -1.0303 -2.5195
  807MOL0     H 8907  11.993   1.905   6.441  0.4198  0.3396 -0.5511
  807MOL0     H 8908  12.204   2.011   6.421 -2.3975  0.8667 -0.7719
  807MOL0     H 8909  12.437   1.987   6.409  0.5685  1.6917 -2.1996
  807MOL0     H 8910  12.405   2.149   6.461 -0.7922 -0.8095 -1.0278
  807MOL0     H 8911  12.652   1.969   6.517  1.3362 -0.5872  1.7943
  807MOL0     H 8912  12.642   2.114   6.407 -2.1321 -1.6690 -1.3528
  807MOL0     H 8913  12.589   2.243   6.630  2.2249  2.0977  3.4928
  807MOL0     H 8914  12.623   2.093   6.713  1.6417 -2.2778 -1.9309
  807MOL0     H 8915  12.827   2.250   6.548 -3.8468  2.5972 -0.7254
  807MOL0     H 8916  12.857   2.090   6.634 -0.2495  0.0821  0.4933
  807MOL0     H 8917  12.874   2.173   6.844  0.3403 -1.2256 -0.3139
  807MOL0     H 8918  12.751   2.289   6.806 -0.6690 -3.3048  1.6021
  807MOL0     H 8919  12.916   2.406   6.658  0.2485 -1.4003 -1.8287
  807MOL0     H 8920  12.957   2.417   6.825  2.8690  0.1986 -0.9001
  807MOL0     H 8921  13.069   2.257   6.594 -0.8527 -0.6473 -0.4475
  807MOL0     H 8922  13.104   2.190   6.762  3.0208 -1.9677 -2.7208
  807MOL0     H 8923  13.203   2.392   6.819 -1.8122  3.1841 -0.7030
  807MOL0     H 8924  13.285   2.317   6.667  0.7666 -1.0617  0.9348
  807MOL0     H 8925  12.325   1.878   6.797 -2.5119  3.5900  2.8076
  807MOL0     H 8926  12.094   1.780   6.832 -2.1378 -4.4649 -3.2520
  807MOL0     H 8927  11.616   1.817   6.620 -0.1803  0.1217 -1.0870
  807MOL0     H 8928  11.386   1.739   6.640 -0.4022 -1.6119 -0.9119
  807MOL0     H 8929   9.525   1.666   6.611 -0.2578  0.4859  0.0335
  807MOL0     H 8930   9.324   1.594   6.747 -1.4105 -0.2316 -1.1885
  807MOL0     H 8931   9.138   1.360   7.013 -1.6916 -0.0430  2.6212
  807MOL0     H 8932   8.963   1.349   7.173 -2.1792  4.6331  1.5151
  807MOL0     H 8933   8.574   1.493   7.009 -0.0427 -3.0229  0.1735
  807MOL0     H 8934   8.663   1.581   7.147  0.5954  0.9488 -2.2624
  807MOL0     H 8935   8.443   1.389   7.196 -0.3206 -0.9378  2.0556
  807MOL0     H 8936   8.421   1.570   7.177 -0.8284 -0.6932  0.0701
  807MOL0     H 8937   8.602   1.590   7.367 -2.3838  1.8205  0.3759
  807MOL0     H 8938   8.583   1.411   7.385  2.2322 -0.3562  0.1800
  807MOL0     H 8939   8.338   1.589   7.416  0.3948 -0.2987  0.6519
  807MOL0     H 8940   8.378   1.435   7.493 -0.6287  0.1567 -0.3677
  807MOL0     H 8941   8.561   1.691   7.765 -0.1284  0.3554 -1.2230
  807MOL0     H 8942   8.675   1.381   6.854 -0.5616  1.1757  0.3967
  807MOL0     H 8943   8.885   1.435   6.583  0.1585  0.6526  0.2929
  807MOL0     H 8944   8.802   1.279   6.608  1.0300 -0.3901 -0.3370
  807MOL0     H 8945   8.715   1.421   6.627  0.2900 -0.8588 -3.0018
  808MOL0     O 8946   2.657   0.434   4.607 -0.2094  0.0353  0.0579
  808MOL0     C 8947   2.666   0.541   4.547  0.1128 -0.8311 -1.2551
  808MOL0     O 8948   2.780   0.597   4.506 -0.3489  0.2850  0.0174
  808MOL0     C 8949   2.888   0.568   4.593 -0.6812  0.4391  0.6360
  808MOL0     C 8950   2.976   0.465   4.560  0.3466 -0.3330  0.3082
  808MOL0     C 8951   3.075   0.435   4.658 -0.4637  0.1932  0.5263
  808MOL0     C 8952   3.073   0.484   4.783  0.4628  0.4797 -0.3053
  808MOL0     O 8953   3.171   0.454   4.875  0.4206  0.1489 -0.0091
  808MOL0     C 8954   3.139   0.353   4.973  0.2739 -0.2285  0.7777
  808MOL0     C 8955   3.245   0.345   5.087 -0.0592  0.7641 -0.1068
  808MOL0     C 8956   3.253   0.474   5.159  0.1319 -0.5898 -0.2214
  808MOL0     C 8957   3.334   0.478   5.280  0.0954  0.2654 -0.3649
  808MOL0     C 8958   3.485   0.472   5.262  0.6422 -0.3617 -0.8336
  808MOL0     C 8959   3.551   0.465   5.403  0.1183  0.6013 -0.3056
  808MOL0     C 8960   3.701   0.496   5.380  0.8577  0.3205 -0.0621
  808MOL0     C 8961   3.740   0.647   5.392 -0.1299  0.7981 -0.7033
  808MOL0     N 8962   3.886   0.660   5.405  0.0219  0.1646 -0.9304
  808MOL0     C 8963   3.982   0.599   5.336  0.5086 -0.0701  0.3230
  808MOL0     C 8964   4.097   0.629   5.388 -0.2675  0.1793  0.2855
  808MOL0     C 8965   4.236   0.562   5.358 -0.1795  1.0664 -0.4195
  808MOL0     C 8966   4.358   0.628   5.444  0.4083 -0.4435  0.8754
  808MOL0     C 8967   4.469   0.526   5.461 -0.2880  0.8704  0.3588
  808MOL0     C 8968   4.578   0.572   5.570 -0.1176  0.4449  0.0760
  808MOL0     O 8969   4.627   0.703   5.546  0.3347 -0.4123 -0.5345
  808MOL0     C 8970   4.757   0.723   5.568  0.3847  0.5673  0.3136
  808MOL0     C 8971   4.808   0.719   5.693 -0.9481  0.2928 -0.5913
  808MOL0     C 8972   4.943   0.709   5.714 -0.2020 -0.3205  0.5440
  808MOL0     C 8973   5.027   0.706   5.603  0.3382 -0.5915 -0.1208
  808MOL0     C 8974   5.166   0.693   5.606  0.4044  0.5715 -0.2360
  808MOL0     O 8975   5.226   0.613   5.510 -0.2005  0.2462  0.3533
  808MOL0     C 8976   5.361   0.585   5.491 -0.0233 -0.3512 -1.0011
  808MOL0     C 8977   5.394   0.470   5.424 -0.4086  0.0910  0.5428
  808MOL0     C 8978   5.530   0.450   5.384  0.1507  0.5336  0.4178
  808MOL0     C 8979   5.627   0.544   5.412 -0.1080  0.0518  0.4720
  808MOL0     O 8980   5.762   0.527   5.390  0.2180 -0.5757  0.3365
  808MOL0     C 8981   5.826   0.408   5.332  0.1135  0.1873 -1.0931
  808MOL0     C 8982   5.971   0.433   5.319  0.5329  0.0781  0.6165
  808MOL0     C 8983   6.036   0.491   5.442  0.1471  0.4621  0.6310
  808MOL0     C 8984   6.183   0.461   5.461 -0.0054  0.1694  0.2242
  808MOL0     C 8985   6.241   0.498   5.598 -0.2008 -0.3149 -0.1552
  808MOL0     C 8986   6.398   0.511   5.614 -0.6504  0.5316 -0.4921
  808MOL0     C 8987   6.473   0.383   5.591 -0.0882 -0.2034  0.5444
  808MOL0     C 8988   6.632   0.398   5.602 -0.4778 -0.1329 -0.5228
  808MOL0    Cl 8989   6.720   0.255   5.545 -0.4841 -0.4619 -0.0885
  808MOL0     C 8990   5.594   0.656   5.482  0.3505 -0.5942  0.5485
  808MOL0     C 8991   5.465   0.683   5.516 -0.0472  0.6093 -0.5521
  808MOL0     O 8992   5.224   0.775   5.678  0.5815 -0.0588  0.4869
  808MOL0     C 8993   4.976   0.725   5.465 -0.9104  0.7783 -0.0412
  808MOL0     C 8994   4.840   0.736   5.450  0.4814  0.5321 -0.5216
  808MOL0     N 8995   4.064   0.700   5.496  0.0111  0.1253 -0.1631
  808MOL0     N 8996   3.940   0.725   5.509 -1.0031 -0.5481  0.4701
  808MOL0     C 8997   2.989   0.588   4.811 -0.7368  0.3661  0.1064
  808MOL0     C 8998   2.892   0.626   4.718  0.4718 -0.0522 -0.8975
  808MOL0     C 8999   2.537   0.617   4.511 -0.2019  0.8904 -0.0531
  808MOL0     C 9000   2.535   0.702   4.404  0.3166 -0.0506 -0.3385
  808MOL0     C 9001   2.416   0.767   4.357 -1.0977  0.4286 -0.2227
  808MOL0     C 9002   2.296   0.744   4.421  0.0329 -0.0120 -0.9453
  808MOL0     O 9003   2.182   0.792   4.369 -0.9614 -0.7865  0.5991
  808MOL0     C 9004   2.062   0.757   4.447 -0.1113  0.1351  0.1623
  808MOL0     C 9005   1.951   0.815   4.363 -1.0586 -1.0620 -0.4877
  808MOL0     C 9006   1.818   0.792   4.417  1.0189 -0.1144  0.2054
  808MOL0     C 9007   1.778   0.643   4.423 -0.2868  0.2732 -0.5233
  808MOL0     C 9008   1.645   0.620   4.369 -0.6449  0.6020 -0.1640
  808MOL0     C 9009   1.529   0.595   4.341 -0.5702  0.4533  0.2229
  808MOL0     C 9010   2.304   0.673   4.543  0.0181 -0.6761  0.3970
  808MOL0     C 9011   2.416   0.602   4.579  0.1474 -0.8067  0.2473
  808MOL0     C 9012   2.396   0.519   4.704 -0.7039  0.1418 -0.4195
  808MOL0     H 9013   2.983   0.424   4.460  4.1809 -0.1094  0.3483
  808MOL0     H 9014   3.142   0.354   4.632 -1.5800 -0.6685  0.2600
  808MOL0     H 9015   3.052   0.388   5.030  1.8345  4.2128  0.7879
  808MOL0     H 9016   3.112   0.265   4.914 -2.4663  1.7104 -1.1200
  808MOL0     H 9017   3.340   0.319   5.041 -0.1492 -0.6429  0.4319
  808MOL0     H 9018   3.219   0.266   5.159  1.4573  1.1760  0.9606
  808MOL0     H 9019   3.151   0.505   5.185  0.2541 -0.6109  0.3017
  808MOL0     H 9020   3.293   0.553   5.096 -2.5464  1.3125  0.3150
  808MOL0     H 9021   3.315   0.570   5.336  1.6465 -1.6069  3.5845
  808MOL0     H 9022   3.304   0.404   5.355 -2.0534 -1.3195 -2.6148
  808MOL0     H 9023   3.510   0.385   5.201  0.4321  1.1679 -3.2230
  808MOL0     H 9024   3.525   0.558   5.207 -0.5233  0.0483 -1.0657
  808MOL0     H 9025   3.503   0.535   5.473  1.8173  0.0836  1.4426
  808MOL0     H 9026   3.542   0.366   5.449 -1.5022  0.4050 -0.9641
  808MOL0     H 9027   3.729   0.449   5.285  2.3201  0.1016  0.4549
  808MOL0     H 9028   3.758   0.442   5.456  2.2458  2.7063  0.6745
  808MOL0     H 9029   3.697   0.680   5.296 -1.2721 -1.7230 -1.1591
  808MOL0     H 9030   3.695   0.680   5.486 -0.4961 -3.3863  0.8347
  808MOL0     H 9031   3.971   0.529   5.253  0.6345 -2.0397  1.8949
  808MOL0     H 9032   4.244   0.457   5.385  1.6971  0.0348 -4.2841
  808MOL0     H 9033   4.268   0.567   5.253 -1.5653  0.0522 -0.9184
  808MOL0     H 9034   4.388   0.725   5.401 -1.5219 -1.0250 -2.1586
  808MOL0     H 9035   4.309   0.645   5.540 -0.8351  0.3092  0.1375
  808MOL0     H 9036   4.530   0.519   5.371 -3.6738  0.4760 -2.0858
  808MOL0     H 9037   4.418   0.432   5.485 -2.5832  1.4196 -1.9288
  808MOL0     H 9038   4.663   0.504   5.568 -1.9227 -1.9284 -1.9250
  808MOL0     H 9039   4.534   0.570   5.670  1.3719  1.8265  0.7996
  808MOL0     H 9040   4.758   0.725   5.790 -1.2446 -0.5425 -0.6856
  808MOL0     H 9041   4.985   0.689   5.812  1.8162 -1.0836 -0.4261
  808MOL0     H 9042   5.310   0.407   5.397 -1.2367  1.8600 -1.3085
  808MOL0     H 9043   5.555   0.358   5.333  0.3290  1.8204 -1.9398
  808MOL0     H 9044   5.824   0.322   5.400  0.1936  0.9939 -0.0395
  808MOL0     H 9045   5.795   0.375   5.233  2.1316 -3.7313 -0.6031
  808MOL0     H 9046   6.015   0.341   5.280 -4.3307 -4.7294  4.7676
  808MOL0     H 9047   5.993   0.517   5.253 -0.1867  1.6317  2.2851
  808MOL0     H 9048   6.030   0.600   5.444  0.4826  0.4798  0.7678
  808MOL0     H 9049   5.984   0.461   5.533  1.8157  1.2426  1.9069
  808MOL0     H 9050   6.235   0.504   5.375 -1.7410 -0.0008 -0.9764
  808MOL0     H 9051   6.200   0.354   5.448  0.5128  0.3735 -0.8853
  808MOL0     H 9052   6.209   0.426   5.673 -1.5488  1.9606  1.5878
  808MOL0     H 9053   6.184   0.587   5.626 -2.0084 -0.5356 -2.7241
  808MOL0     H 9054   6.444   0.585   5.548  1.3369  2.3365  2.6634
  808MOL0     H 9055   6.414   0.549   5.715  0.7604 -1.6319  0.1672
  808MOL0     H 9056   6.443   0.355   5.489  0.5658  0.4018  0.1756
  808MOL0     H 9057   6.441   0.304   5.660  0.6253 -0.2582  0.8273
  808MOL0     H 9058   6.659   0.486   5.543 -0.0307 -0.3790 -0.6892
  808MOL0     H 9059   6.657   0.428   5.704  0.2168  1.2360 -1.0762
  808MOL0     H 9060   5.676   0.722   5.504  0.6527 -1.1741  1.1987
  808MOL0     H 9061   5.442   0.779   5.560 -1.0521  0.8307 -1.5233
  808MOL0     H 9062   5.046   0.726   5.381 -1.0725 -2.4070 -0.3454
  808MOL0     H 9063   4.788   0.751   5.356 -3.6041 -0.2713  1.4097
  808MOL0     H 9064   2.989   0.629   4.911  2.0737  1.0730 -0.0922
  808MOL0     H 9065   2.827   0.706   4.750  0.9741 -0.3775  1.0675
  808MOL0     H 9066   2.631   0.727   4.362 -0.4460  1.1626 -1.4352
  808MOL0     H 9067   2.424   0.820   4.262 -0.2628  2.5926  0.9663
  808MOL0     H 9068   2.064   0.805   4.545  0.0101  1.5901 -0.5148
  808MOL0     H 9069   2.055   0.649   4.459  1.8730  0.2159  2.8630
  808MOL0     H 9070   1.964   0.782   4.260 -1.2146 -0.8109 -0.5869
  808MOL0     H 9071   1.972   0.922   4.369 -0.4256 -1.1423  6.0279
  808MOL0     H 9072   1.753   0.838   4.342 -0.9136 -1.7707  0.7827
  808MOL0     H 9073   1.814   0.847   4.511 -4.0971  0.3587  0.0118
  808MOL0     H 9074   1.848   0.580   4.367  0.7129 -0.3786  1.3712
  808MOL0     H 9075   1.785   0.615   4.528  4.1994  0.7925 -0.5052
  808MOL0     H 9076   1.432   0.568   4.305 -1.3201 -1.8311  3.4848
  808MOL0     H 9077   2.217   0.648   4.603  0.3531 -0.3503  1.0308
  808MOL0     H 9078   2.293   0.489   4.723  0.0471 -2.4392 -0.0710
  808MOL0     H 9079   2.444   0.421   4.703  0.2835  0.6077 -2.1200
  808MOL0     H 9080   2.421   0.586   4.788  0.0585  0.9546 -1.2717
  809MOL0     O 9081   4.222   2.001   6.348  0.3613  0.4163  0.6081
  809MOL0     C 9082   4.253   2.073   6.438  0.5165 -0.9700 -0.6192
  809MOL0     O 9083   4.369   2.153   6.445 -0.2915  0.1258 -0.6178
  809MOL0     C 9084   4.452   2.173   6.337  0.0691 -0.7776 -0.2558
  809MOL0     C 9085   4.586   2.144   6.367  0.3127  0.0013  0.2330
  809MOL0     C 9086   4.674   2.149   6.254  0.0335  0.3645  0.3899
  809MOL0     C 9087   4.634   2.190   6.125 -0.0082 -0.4051 -0.2299
  809MOL0     O 9088   4.734   2.199   6.027  0.7299  0.0032 -0.0380
  809MOL0     C 9089   4.685   2.209   5.898 -0.6925 -0.7587  0.1669
  809MOL0     C 9090   4.819   2.194   5.816  0.5341  0.1560  0.1097
  809MOL0     C 9091   4.907   2.320   5.815  0.7218  0.3533  0.6699
  809MOL0     C 9092   5.027   2.311   5.726 -0.0664 -0.3534  0.0929
  809MOL0     C 9093   5.121   2.192   5.766  1.2726  0.7321 -0.4996
  809MOL0     C 9094   5.247   2.205   5.672 -0.9898  0.0235  0.0667
  809MOL0     C 9095   5.374   2.128   5.711  0.1637  0.1073  0.3140
  809MOL0     C 9096   5.493   2.183   5.647 -0.3316 -0.5090  0.4554
  809MOL0     N 9097   5.614   2.110   5.683 -0.4402  0.7437 -1.1915
  809MOL0     C 9098   5.628   1.975   5.672  0.0391  0.3729  0.7820
  809MOL0     C 9099   5.744   1.940   5.739  0.8428  0.6344 -0.0682
  809MOL0     C 9100   5.811   1.805   5.742 -0.4101  0.1007 -0.0972
  809MOL0     C 9101   5.817   1.750   5.590 -0.0836 -0.6430 -0.0841
  809MOL0     C 9102   5.877   1.608   5.568  0.0575  0.0561 -0.0508
  809MOL0     C 9103   6.013   1.592   5.640  0.4027  1.0030 -0.1733
  809MOL0     O 9104   6.071   1.458   5.603 -0.0731 -0.1462 -0.7081
  809MOL0     C 9105   6.209   1.448   5.630  1.4947  0.8145 -0.9044
  809MOL0     C 9106   6.259   1.502   5.753  0.5535  0.7890 -0.2461
  809MOL0     C 9107   6.398   1.494   5.779  0.2608 -0.6465  0.7184
  809MOL0     C 9108   6.490   1.440   5.680  0.7469 -0.6745 -0.5869
  809MOL0     C 9109   6.631   1.443   5.703  0.4747  0.7552 -0.1254
  809MOL0     O 9110   6.684   1.493   5.813 -0.5851  0.1156 -0.1366
  809MOL0     C 9111   6.818   1.523   5.823 -0.3684  0.0297 -0.1822
  809MOL0     C 9112   6.872   1.650   5.781 -0.5305 -0.0062  0.6060
  809MOL0     C 9113   7.000   1.688   5.789 -0.8903  0.2899  0.5556
  809MOL0     C 9114   7.093   1.596   5.842  0.2844 -0.2954  0.0063
  809MOL0     O 9115   7.225   1.636   5.851 -0.1072  0.9223 -0.2063
  809MOL0     C 9116   7.321   1.547   5.909 -0.2650  0.3018  0.6696
  809MOL0     C 9117   7.452   1.566   5.830  0.7753 -1.4832  0.1336
  809MOL0     C 9118   7.522   1.701   5.859 -0.3569 -0.1564 -0.3610
  809MOL0     C 9119   7.663   1.674   5.826  0.3591 -1.1393  0.3467
  809MOL0     C 9120   7.747   1.799   5.850 -0.4210 -0.7718 -1.0138
  809MOL0     C 9121   7.897   1.780   5.832 -0.2654 -0.7407  0.7403
  809MOL0     C 9122   7.964   1.668   5.916 -0.5193 -0.0292 -0.3853
  809MOL0     C 9123   8.107   1.704   5.944  0.8599 -0.0791 -0.7120
  809MOL0    Cl 9124   8.219   1.567   5.968 -0.0625  0.1056  0.9187
  809MOL0     C 9125   7.041   1.465   5.872 -0.1021  0.3670  0.2293
  809MOL0     C 9126   6.909   1.433   5.872  0.4695  0.0524  0.0177
  809MOL0     O 9127   6.700   1.389   5.618 -0.1901 -0.0221  0.0313
  809MOL0     C 9128   6.433   1.391   5.562 -0.0801  0.2503 -0.1418
  809MOL0     C 9129   6.294   1.392   5.540  0.2699  1.1313  0.0556
  809MOL0     N 9130   5.798   2.061   5.787 -0.0608 -0.3043  0.4348
  809MOL0     N 9131   5.715   2.162   5.761  0.5201  0.7485  0.6279
  809MOL0     C 9132   4.502   2.227   6.106 -0.7935 -0.0206  0.5856
  809MOL0     C 9133   4.410   2.222   6.213  0.8583 -0.1481 -0.5821
  809MOL0     C 9134   4.156   2.084   6.549  0.2877  0.5205  0.2208
  809MOL0     C 9135   4.189   2.170   6.657 -0.6173  1.1596 -0.0224
  809MOL0     C 9136   4.110   2.182   6.765 -0.0443 -1.2061 -0.4569
  809MOL0     C 9137   3.986   2.126   6.778  0.7654 -0.9819 -0.4249
  809MOL0     O 9138   3.928   2.128   6.903  0.1707 -0.3590  0.0457
  809MOL0     C 9139   3.826   2.034   6.936 -0.3429  0.0789  0.1581
  809MOL0     C 9140   3.703   2.118   6.973 -0.2123 -0.5085 -0.5118
  809MOL0     C 9141   3.607   2.052   7.061  0.0283 -0.4549 -0.6238
  809MOL0     C 9142   3.484   2.129   7.058 -0.1053 -0.2222 -0.0359
  809MOL0     C 9143   3.396   2.098   7.174 -0.2934  0.1313 -0.2701
  809MOL0     C 9144   3.333   2.081   7.273  0.8349  0.2401  0.1252
  809MOL0     C 9145   3.953   2.045   6.671  0.7094 -0.4445 -1.0681
  809MOL0     C 9146   4.035   2.017   6.562  0.3499 -0.0601  0.5778
  809MOL0     C 9147   3.972   1.919   6.467 -0.7437  0.3650 -0.1133
  809MOL0     H 9148   4.622   2.102   6.461 -3.2194 -2.4841  0.6533
  809MOL0     H 9149   4.781   2.132   6.267  0.1921  0.8246 -0.2368
  809MOL0     H 9150   4.609   2.135   5.870 -1.4358 -1.1036  2.8210
  809MOL0     H 9151   4.650   2.310   5.874  3.7093  0.7982 -0.5923
  809MOL0     H 9152   4.802   2.169   5.711 -0.6206  0.2801  0.2622
  809MOL0     H 9153   4.869   2.101   5.848 -2.8795 -2.0334 -0.4165
  809MOL0     H 9154   4.922   2.347   5.920 -0.5622  1.0084  0.7129
  809MOL0     H 9155   4.844   2.399   5.774 -2.0402 -1.9580  0.0775
  809MOL0     H 9156   4.979   2.294   5.630 -2.4653  2.2998  0.6560
  809MOL0     H 9157   5.073   2.410   5.725 -3.2604  1.2731 -0.9134
  809MOL0     H 9158   5.146   2.205   5.872  1.8886  2.0571 -0.7875
  809MOL0     H 9159   5.081   2.090   5.764  2.4508  0.0928  2.4759
  809MOL0     H 9160   5.214   2.164   5.576  0.7629  0.0811 -0.5926
  809MOL0     H 9161   5.271   2.311   5.664  1.9162 -0.5884 -0.1890
  809MOL0     H 9162   5.372   2.020   5.694  0.6692 -0.1245  1.6126
  809MOL0     H 9163   5.381   2.133   5.820  1.1567  1.0564  0.2228
  809MOL0     H 9164   5.481   2.165   5.539  1.2652  1.0501 -0.0384
  809MOL0     H 9165   5.511   2.290   5.665  1.6124 -0.5922 -0.6678
  809MOL0     H 9166   5.564   1.922   5.601  0.8460 -0.5772  0.7307
  809MOL0     H 9167   5.913   1.811   5.780  0.0207  0.3971 -1.2472
  809MOL0     H 9168   5.766   1.744   5.821  3.9377 -0.0939  2.5382
  809MOL0     H 9169   5.716   1.756   5.548 -0.2557  2.3849  0.5353
  809MOL0     H 9170   5.869   1.822   5.526  0.4952 -2.5823 -1.9093
  809MOL0     H 9171   5.890   1.599   5.460 -0.0328  5.5534 -0.8391
  809MOL0     H 9172   5.808   1.535   5.612  0.5603  0.4854  1.5167
  809MOL0     H 9173   5.997   1.605   5.747  2.4616  1.7858  0.0771
  809MOL0     H 9174   6.082   1.668   5.603 -1.2708  1.1319 -3.3634
  809MOL0     H 9175   6.199   1.552   5.828  1.0668 -2.2795  2.4536
  809MOL0     H 9176   6.437   1.535   5.872  2.4866  0.8417 -0.7627
  809MOL0     H 9177   6.804   1.715   5.727  0.9213 -0.3694 -1.7921
  809MOL0     H 9178   7.043   1.776   5.743 -0.1394 -0.9481 -1.2147
  809MOL0     H 9179   7.321   1.550   6.019  2.1953 -2.6503  0.8675
  809MOL0     H 9180   7.304   1.441   5.890  1.0779  0.4576 -1.6859
  809MOL0     H 9181   7.522   1.486   5.856  1.3111 -0.5222  1.7987
  809MOL0     H 9182   7.417   1.564   5.726 -1.4153  0.0127  0.7572
  809MOL0     H 9183   7.485   1.788   5.805 -0.5570  1.2094  1.8627
  809MOL0     H 9184   7.521   1.729   5.965  0.6845 -1.6310  0.0747
  809MOL0     H 9185   7.689   1.652   5.722  1.3355  1.0489  0.0776
  809MOL0     H 9186   7.698   1.583   5.875  0.1850 -1.2102  0.3398
  809MOL0     H 9187   7.745   1.802   5.959  2.9438 -0.9029 -0.8461
  809MOL0     H 9188   7.710   1.890   5.804 -2.1366  1.2633  3.7282
  809MOL0     H 9189   7.924   1.778   5.726 -0.3331  1.0783  0.6571
  809MOL0     H 9190   7.945   1.872   5.866  1.7900 -1.9301  1.2641
  809MOL0     H 9191   7.966   1.565   5.878 -2.2986 -0.1614 -0.2011
  809MOL0     H 9192   7.911   1.666   6.012  2.7379  1.1690  1.6201
  809MOL0     H 9193   8.160   1.745   5.857 -2.1462 -0.5801 -2.9221
  809MOL0     H 9194   8.104   1.779   6.024 -0.1609  1.6764 -2.2974
  809MOL0     H 9195   7.110   1.384   5.895  0.5318 -0.1563 -3.1243
  809MOL0     H 9196   6.872   1.333   5.895  3.1275 -0.7028  1.4652
  809MOL0     H 9197   6.504   1.352   5.489  0.9286  2.4914 -0.4153
  809MOL0     H 9198   6.252   1.352   5.448 -1.7552  1.1849  0.9043
  809MOL0     H 9199   4.467   2.264   6.010 -1.6410 -1.6307  0.2380
  809MOL0     H 9200   4.307   2.249   6.194  0.3212 -2.2456 -0.8309
  809MOL0     H 9201   4.284   2.221   6.668  0.3556 -0.5121 -0.4859
  809MOL0     H 9202   4.146   2.246   6.844 -0.7705  1.0746 -1.8743
  809MOL0     H 9203   3.868   1.983   7.022  2.2271 -1.2514 -1.7574
  809MOL0     H 9204   3.821   1.955   6.860  2.6389 -0.4584  0.4112
  809MOL0     H 9205   3.657   2.156   6.881  0.4483  0.8606 -0.3153
  809MOL0     H 9206   3.742   2.208   7.022 -0.5305 -1.3149  1.3262
  809MOL0     H 9207   3.641   2.070   7.164 -1.6329  1.3956 -0.3301
  809MOL0     H 9208   3.613   1.944   7.048  2.3417 -0.4234 -0.2644
  809MOL0     H 9209   3.503   2.237   7.067  0.3018 -0.4404  2.6229
  809MOL0     H 9210   3.445   2.097   6.961 -1.3829 -1.5926  0.8853
  809MOL0     H 9211   3.272   2.068   7.361  0.8911  3.2602  0.7065
  809MOL0     H 9212   3.853   2.005   6.653  0.3842  0.4009 -1.1654
  809MOL0     H 9213   4.045   1.838   6.457 -0.3275  0.8596 -1.1971
  809MOL0     H 9214   3.877   1.871   6.496 -0.0259 -0.1771  1.4850
  809MOL0     H 9215   3.965   1.966   6.369  1.4576 -1.5824 -1.2903
  810MOL0     O 9216   6.622   0.178   8.093  0.0602 -0.2372 -0.5893
  810MOL0     C 9217   6.567   0.075   8.055 -0.3241 -0.1574  0.1859
  810MOL0     O 9218   6.633  -0.050   8.047  0.6254 -0.3485 -0.5463
  810MOL0     C 9219   6.749  -0.081   8.111  0.2022 -0.1561  0.0056
  810MOL0     C 9220   6.814  -0.192   8.060 -0.1549 -0.5733 -0.3267
  810MOL0     C 9221   6.926  -0.247   8.127 -0.2909  0.0429 -0.2316
  810MOL0     C 9222   6.974  -0.188   8.249 -0.2869 -0.0256 -0.1078
  810MOL0     O 9223   7.080  -0.246   8.319  0.3882 -0.5294  0.6268
  810MOL0     C 9224   7.205  -0.191   8.268 -0.0982 -0.4785  0.1729
  810MOL0     C 9225   7.321  -0.277   8.322 -0.4918 -0.4879 -0.1753
  810MOL0     C 9226   7.333  -0.264   8.472 -0.6950 -0.5537  0.3847
  810MOL0     C 9227   7.471  -0.316   8.516 -0.2340  0.5301 -0.1148
  810MOL0     C 9228   7.501  -0.312   8.667  0.5178  0.2830  0.4990
  810MOL0     C 9229   7.624  -0.385   8.722 -0.5777  0.0805  0.2844
  810MOL0     C 9230   7.614  -0.532   8.707 -0.3123 -0.8643  0.6571
  810MOL0     C 9231   7.693  -0.611   8.813  0.1382 -0.6586 -0.4134
  810MOL0     N 9232   7.619  -0.599   8.937 -0.9861 -0.1960  0.5205
  810MOL0     C 9233   7.528  -0.674   9.006  0.3079  0.7250  0.2508
  810MOL0     C 9234   7.508  -0.619   9.132  0.7010 -0.4303  0.0283
  810MOL0     C 9235   7.443  -0.687   9.250  0.4759 -1.1975 -0.1592
  810MOL0     C 9236   7.319  -0.766   9.213 -0.3192  0.9765  0.4440
  810MOL0     C 9237   7.222  -0.705   9.114 -0.3360 -0.4417  0.0704
  810MOL0     C 9238   7.186  -0.564   9.162  0.5063  0.3101 -0.6249
  810MOL0     O 9239   7.078  -0.504   9.083  0.2422  0.0820 -0.3788
  810MOL0     C 9240   6.944  -0.503   9.120  0.0769 -0.0171  0.1129
  810MOL0     C 9241   6.883  -0.560   9.236 -0.5772 -0.0202 -0.1821
  810MOL0     C 9242   6.746  -0.549   9.255 -0.0698 -0.1820 -0.1814
  810MOL0     C 9243   6.659  -0.495   9.155 -0.0601 -0.2028 -1.0663
  810MOL0     C 9244   6.520  -0.500   9.179 -0.2392  0.9561 -1.4347
  810MOL0     O 9245   6.436  -0.521   9.069 -0.2821 -0.0422 -0.1467
  810MOL0     C 9246   6.305  -0.490   9.098 -0.1034 -0.3333 -0.0066
  810MOL0     C 9247   6.233  -0.408   9.019 -0.7126  0.3275  0.1788
  810MOL0     C 9248   6.092  -0.405   9.023 -0.0558 -0.3293 -0.1302
  810MOL0     C 9249   6.033  -0.470   9.133 -0.8310 -0.2008  0.9219
  810MOL0     O 9250   5.897  -0.445   9.152 -1.0387 -0.7490  0.2987
  810MOL0     C 9251   5.864  -0.302   9.162 -0.0680  0.2095  0.0823
  810MOL0     C 9252   5.716  -0.296   9.208  0.3905  0.1027 -0.0559
  810MOL0     C 9253   5.682  -0.140   9.226  0.1232  0.2287  0.6886
  810MOL0     C 9254   5.571  -0.113   9.327 -0.1393  0.3712 -0.1821
  810MOL0     C 9255   5.437  -0.091   9.262  0.6761 -0.0446 -1.1150
  810MOL0     C 9256   5.317  -0.116   9.355  0.4984 -0.1965 -0.1235
  810MOL0     C 9257   5.194  -0.105   9.271  0.2831  0.1887  0.5465
  810MOL0     C 9258   5.076  -0.073   9.366  0.0625 -0.9032 -0.5381
  810MOL0    Cl 9259   4.944  -0.020   9.253 -0.2548 -0.6469  0.1486
  810MOL0     C 9260   6.099  -0.554   9.213  0.3055  0.4141 -0.3593
  810MOL0     C 9261   6.233  -0.569   9.194 -1.1822 -0.4114  0.0951
  810MOL0     O 9262   6.478  -0.493   9.297 -0.4028 -0.3767  0.1517
  810MOL0     C 9263   6.716  -0.441   9.041 -0.3196 -0.2027  0.3568
  810MOL0     C 9264   6.861  -0.446   9.026  0.5800  0.7298 -0.4837
  810MOL0     N 9265   7.602  -0.519   9.142 -0.0985 -0.3255  0.3318
  810MOL0     N 9266   7.664  -0.503   9.030  0.8484 -0.4019 -0.3420
  810MOL0     C 9267   6.909  -0.072   8.294 -1.4335  0.6385  0.3459
  810MOL0     C 9268   6.803  -0.018   8.222  0.3191  0.8271 -0.4677
  810MOL0     C 9269   6.431   0.098   7.994  0.0500 -0.2506 -0.0678
  810MOL0     C 9270   6.392   0.230   7.962 -0.9736  0.6735 -0.1298
  810MOL0     C 9271   6.268   0.264   7.915  0.2594 -0.6369  0.4218
  810MOL0     C 9272   6.169   0.168   7.894  0.0555 -0.1168 -1.1579
  810MOL0     O 9273   6.054   0.218   7.834  0.3080  0.1572 -0.3439
  810MOL0     C 9274   5.947   0.124   7.795 -0.3612 -0.0262 -0.1651
  810MOL0     C 9275   5.880   0.175   7.673  0.2097 -0.6126 -0.6757
  810MOL0     C 9276   5.798   0.299   7.717  0.2063 -0.7100  0.3479
  810MOL0     C 9277   5.773   0.404   7.612 -0.1104  0.1833 -0.0141
  810MOL0     C 9278   5.905   0.465   7.568 -0.0720 -0.3359  0.2587
  810MOL0     C 9279   6.011   0.520   7.543  0.3887  0.0161  0.2076
  810MOL0     C 9280   6.203   0.042   7.921 -0.1727  0.8381  0.4331
  810MOL0     C 9281   6.330   0.005   7.980 -0.8348  0.0296  0.0813
  810MOL0     C 9282   6.348  -0.144   8.004 -0.3266 -0.6158  0.7718
  810MOL0     H 9283   6.785  -0.245   7.970 -0.9888  2.4937 -2.0371
  810MOL0     H 9284   6.963  -0.340   8.084 -0.8966  0.1375 -0.9773
  810MOL0     H 9285   7.218  -0.194   8.159  3.7843 -3.3218  0.4996
  810MOL0     H 9286   7.218  -0.091   8.311 -0.2872 -0.6726  0.6879
  810MOL0     H 9287   7.411  -0.230   8.282 -0.3258  2.2705  3.0398
  810MOL0     H 9288   7.311  -0.379   8.282 -1.5627 -0.3242 -0.3548
  810MOL0     H 9289   7.256  -0.328   8.515 -0.3010 -2.4321 -1.5217
  810MOL0     H 9290   7.310  -0.160   8.496  1.3889  0.2999 -1.0222
  810MOL0     H 9291   7.478  -0.420   8.483  0.7820 -0.2928  2.4349
  810MOL0     H 9292   7.547  -0.260   8.460  2.3106 -1.8757  0.6714
  810MOL0     H 9293   7.522  -0.207   8.691 -0.6068  0.3262  1.3908
  810MOL0     H 9294   7.415  -0.330   8.733  1.0368  2.7397  1.9724
  810MOL0     H 9295   7.721  -0.351   8.686 -0.3183  0.9212  1.7140
  810MOL0     H 9296   7.622  -0.356   8.828  0.1104 -1.6914  0.8309
  810MOL0     H 9297   7.660  -0.562   8.612 -0.7150  1.2900 -0.2897
  810MOL0     H 9298   7.508  -0.560   8.708 -0.7450  0.6109 -0.0599
  810MOL0     H 9299   7.706  -0.714   8.780  2.1835 -0.4394 -0.4276
  810MOL0     H 9300   7.795  -0.574   8.825  0.7586 -1.9128 -1.5517
  810MOL0     H 9301   7.495  -0.771   8.971  0.6655  1.0087 -0.9313
  810MOL0     H 9302   7.516  -0.741   9.311  2.1611  1.4354  0.3105
  810MOL0     H 9303   7.412  -0.605   9.315  1.5833 -1.7162  1.0681
  810MOL0     H 9304   7.343  -0.858   9.159 -0.1964  1.9991 -1.3283
  810MOL0     H 9305   7.266  -0.802   9.302  0.8712 -1.0223  0.4028
  810MOL0     H 9306   7.133  -0.768   9.115  0.4462 -1.6021 -0.3407
  810MOL0     H 9307   7.267  -0.710   9.014 -0.0979  1.3916  0.0446
  810MOL0     H 9308   7.271  -0.498   9.144 -0.9970  1.7165 -3.1172
  810MOL0     H 9309   7.169  -0.555   9.269 -1.5718 -0.2511 -0.8786
  810MOL0     H 9310   6.939  -0.612   9.313 -2.6834  0.0829  1.5025
  810MOL0     H 9311   6.715  -0.566   9.358 -0.5104  3.1971  0.3406
  810MOL0     H 9312   6.288  -0.355   8.942 -0.2673  0.3033  0.4778
  810MOL0     H 9313   6.035  -0.351   8.947  1.8837 -1.7036 -2.7383
  810MOL0     H 9314   5.923  -0.249   9.237 -3.9633  1.4253  2.5716
  810MOL0     H 9315   5.868  -0.249   9.066 -0.7522 -0.3007 -0.2360
  810MOL0     H 9316   5.655  -0.349   9.135  0.6603 -1.2974  0.7002
  810MOL0     H 9317   5.705  -0.354   9.301 -1.0584 -0.7184 -0.7049
  810MOL0     H 9318   5.773  -0.095   9.266  1.9296  0.1400 -2.9302
  810MOL0     H 9319   5.678  -0.096   9.126  1.1038  1.7893  1.3085
  810MOL0     H 9320   5.589  -0.027   9.392  1.5601 -0.2401  0.2363
  810MOL0     H 9321   5.570  -0.208   9.382 -0.6055 -2.3667 -4.4544
  810MOL0     H 9322   5.424  -0.170   9.187 -0.4291 -4.4315  3.1729
  810MOL0     H 9323   5.438   0.013   9.228  0.7128  0.8015  1.3065
  810MOL0     H 9324   5.332  -0.216   9.397 -1.6071  0.2005  1.7566
  810MOL0     H 9325   5.317  -0.044   9.437 -1.7010 -1.3775  1.0251
  810MOL0     H 9326   5.183  -0.207   9.233  0.4507  0.0390  0.8866
  810MOL0     H 9327   5.194  -0.035   9.187 -3.4394  1.1089  1.0988
  810MOL0     H 9328   5.047  -0.156   9.430  2.9098 -2.0847 -0.6476
  810MOL0     H 9329   5.090   0.017   9.427 -0.4576  0.1031 -1.8597
  810MOL0     H 9330   6.033  -0.618   9.271  1.6142 -1.0873 -0.4610
  810MOL0     H 9331   6.283  -0.653   9.241 -1.6435 -1.4989 -1.2840
  810MOL0     H 9332   6.653  -0.400   8.963  0.7128 -0.2726 -0.5483
  810MOL0     H 9333   6.910  -0.400   8.940  1.5602  0.5625 -0.0193
  810MOL0     H 9334   6.949  -0.028   8.385  2.0236 -1.9913  0.3412
  810MOL0     H 9335   6.768   0.076   8.263  1.4511  0.1799  2.2097
  810MOL0     H 9336   6.457   0.316   7.962  0.6914 -0.4334 -3.1070
  810MOL0     H 9337   6.252   0.369   7.892 -2.8114 -1.4331 -1.8332
  810MOL0     H 9338   5.881   0.108   7.881 -2.0067  0.6434 -1.2650
  810MOL0     H 9339   5.991   0.028   7.768  1.9132  0.5122  1.3374
  810MOL0     H 9340   5.807   0.106   7.628  1.0049 -0.1210 -2.8834
  810MOL0     H 9341   5.965   0.184   7.604  2.4666 -2.7542  1.5811
  810MOL0     H 9342   5.855   0.357   7.790 -0.6744  2.3363 -1.2018
  810MOL0     H 9343   5.705   0.275   7.769 -0.0906  0.7087  0.5054
  810MOL0     H 9344   5.725   0.364   7.522  0.6652  0.2140 -0.4521
  810MOL0     H 9345   5.706   0.483   7.647  0.2923  0.8784 -0.7671
  810MOL0     H 9346   6.096   0.572   7.503 -0.5460 -0.9935 -3.5101
  810MOL0     H 9347   6.126  -0.034   7.913  0.8719 -0.2517  0.3307
  810MOL0     H 9348   6.440  -0.175   7.953  0.2009 -0.1666  1.4343
  810MOL0     H 9349   6.354  -0.159   8.112 -0.8193  0.5070  0.9702
  810MOL0     H 9350   6.258  -0.193   7.965 -1.5703  1.5736  0.7184
  811MOL0     O 9351   0.645   7.454   9.551 -0.5134 -0.6863  0.0684
  811MOL0     C 9352   0.557   7.480   9.632 -0.3328  0.6646  0.0999
  811MOL0     O 9353   0.548   7.580   9.721 -0.6007 -0.3880  1.1888
  811MOL0     C 9354   0.661   7.662   9.745  0.4085 -0.1080  0.2327
  811MOL0     C 9355   0.733   7.719   9.634 -0.1885  1.0498  0.7665
  811MOL0     C 9356   0.846   7.806   9.664  0.7682 -0.1570  0.6238
  811MOL0     C 9357   0.883   7.833   9.795 -0.5615  0.2979 -0.2457
  811MOL0     O 9358   0.991   7.907   9.819  0.7625 -0.1494 -0.1474
  811MOL0     C 9359   1.068   7.889   9.944  0.3010 -0.1514  0.7450
  811MOL0     C 9360   1.059   8.010  10.029  0.2965  0.4080  0.0432
  811MOL0     C 9361   1.093   8.138   9.961 -0.0877  0.1161 -0.7208
  811MOL0     C 9362   1.091   8.274  10.035 -0.0599  0.3225  0.6065
  811MOL0     C 9363   1.111   8.396   9.948  0.2739  0.4165  0.0467
  811MOL0     C 9364   1.259   8.403   9.918 -0.2186 -0.7254 -0.0233
  811MOL0     C 9365   1.296   8.496   9.809 -0.8249  0.1711  0.9210
  811MOL0     C 9366   1.444   8.493   9.772 -0.1597  0.0269 -0.1461
  811MOL0     N 9367   1.467   8.589   9.663 -1.0742 -0.3104  0.4448
  811MOL0     C 9368   1.521   8.719   9.663  1.0024 -0.4482 -1.0190
  811MOL0     C 9369   1.510   8.752   9.535  0.8239 -0.7871  0.4532
  811MOL0     C 9370   1.549   8.873   9.463 -0.4100 -0.0213  0.1828
  811MOL0     C 9371   1.707   8.882   9.458 -0.4916 -0.0344 -0.4202
  811MOL0     C 9372   1.757   9.001   9.389 -0.1234 -0.5482 -0.0198
  811MOL0     C 9373   1.911   8.995   9.367  0.4755 -0.5984 -0.0375
  811MOL0     O 9374   1.991   9.017   9.482 -0.2823  0.0445 -0.1302
  811MOL0     C 9375   2.134   9.026   9.468 -0.1749 -0.1659  0.7386
  811MOL0     C 9376   2.202   9.048   9.346  0.1500  0.0068 -0.6588
  811MOL0     C 9377   2.335   9.068   9.342 -0.1734 -0.1816  0.6008
  811MOL0     C 9378   2.417   9.073   9.453  0.2890  0.5845  0.6706
  811MOL0     C 9379   2.558   9.094   9.455  0.2593 -0.0431  0.0905
  811MOL0     O 9380   2.634   9.123   9.565 -0.0452 -0.3658 -0.2346
  811MOL0     C 9381   2.775   9.136   9.554  0.0053  0.0638  0.1946
  811MOL0     C 9382   2.841   9.245   9.612  1.4219 -1.2212 -0.1330
  811MOL0     C 9383   2.974   9.259   9.612 -0.1174  0.7252  0.5354
  811MOL0     C 9384   3.056   9.157   9.558 -0.2216 -0.0453 -0.3496
  811MOL0     O 9385   3.194   9.175   9.557 -0.0223 -0.4271 -0.4154
  811MOL0     C 9386   3.278   9.077   9.490  0.4428 -0.9184  0.3141
  811MOL0     C 9387   3.419   9.110   9.517  0.4070 -0.7268  0.3013
  811MOL0     C 9388   3.474   9.083   9.659 -0.1472  0.3973 -0.3283
  811MOL0     C 9389   3.613   9.154   9.679  0.2897 -0.9211 -0.4441
  811MOL0     C 9390   3.683   9.087   9.798  0.6400  0.3111  0.9151
  811MOL0     C 9391   3.826   9.142   9.803  0.5387  1.1556 -0.0084
  811MOL0     C 9392   3.902   9.102   9.928  0.4901 -0.1002 -0.1481
  811MOL0     C 9393   3.932   8.958   9.947 -1.0557  0.3162  0.7660
  811MOL0    Cl 9394   3.793   8.901  10.040 -0.1654 -0.4769 -0.1434
  811MOL0     C 9395   2.994   9.041   9.497 -0.3454  0.1719  1.1983
  811MOL0     C 9396   2.850   9.036   9.494 -0.5799  1.3779 -0.3538
  811MOL0     O 9397   2.606   9.086   9.343 -0.2062 -0.4225 -0.3620
  811MOL0     C 9398   2.351   9.049   9.572  0.7649 -0.2221 -0.5057
  811MOL0     C 9399   2.218   9.035   9.584  1.1601  1.4246 -0.1670
  811MOL0     N 9400   1.444   8.659   9.455  0.6931  0.2101 -0.7532
  811MOL0     N 9401   1.424   8.559   9.530 -0.1690  0.4470 -0.4683
  811MOL0     C 9402   0.801   7.787   9.901  0.1435  0.2073 -0.8445
  811MOL0     C 9403   0.695   7.699   9.873  0.4090  0.2266  0.5137
  811MOL0     C 9404   0.436   7.401   9.613  0.8398 -0.1794  0.0609
  811MOL0     C 9405   0.320   7.480   9.599  0.1962 -0.6951 -0.8597
  811MOL0     C 9406   0.194   7.422   9.583  0.1671  1.0434 -0.0996
  811MOL0     C 9407   0.182   7.285   9.574  0.7665  0.1527  0.4989
  811MOL0     O 9408   0.065   7.225   9.541 -0.9833  0.4024 -1.1044
  811MOL0     C 9409  -0.063   7.276   9.587  0.6773  0.0369  0.7326
  811MOL0     C 9410  -0.082   7.259   9.738  0.3733 -0.2329  0.6317
  811MOL0     C 9411  -0.093   7.110   9.785  0.4043 -0.3696  0.3650
  811MOL0     C 9412  -0.213   7.040   9.721 -1.3256  0.0940 -0.9048
  811MOL0     C 9413  -0.345   7.079   9.760  0.2036  0.5931  0.2776
  811MOL0     C 9414  -0.464   7.090   9.799  0.1559  0.7063 -0.0253
  811MOL0     C 9415   0.299   7.206   9.597  0.4345 -0.2473 -0.0770
  811MOL0     C 9416   0.428   7.262   9.618  1.3119  1.0487  0.3689
  811MOL0     C 9417   0.546   7.174   9.632  0.1377 -0.1581 -0.2285
  811MOL0     H 9418   0.703   7.694   9.533  2.6758 -4.4191  0.9298
  811MOL0     H 9419   0.904   7.850   9.584  2.3827 -0.5169  1.5426
  811MOL0     H 9420   1.049   7.800  10.003 -1.2688  0.1122  0.6885
  811MOL0     H 9421   1.174   7.887   9.915  0.5710  0.0113  1.6784
  811MOL0     H 9422   1.130   8.002  10.111  1.1013  1.4747 -0.5161
  811MOL0     H 9423   0.959   8.008  10.074  1.3668  0.4104  2.5365
  811MOL0     H 9424   1.013   8.151   9.887 -2.7106  1.3011  2.1277
  811MOL0     H 9425   1.185   8.136   9.901  0.4156  3.2099 -0.2341
  811MOL0     H 9426   0.996   8.283  10.089 -0.2803 -4.0809  1.3436
  811MOL0     H 9427   1.169   8.273  10.111  1.7425  0.7470 -1.1600
  811MOL0     H 9428   1.049   8.397   9.857 -0.9356 -0.2734  0.8314
  811MOL0     H 9429   1.079   8.485  10.001  2.0727  0.7680  0.6029
  811MOL0     H 9430   1.305   8.446  10.008  1.0122  1.7235 -1.7085
  811MOL0     H 9431   1.304   8.303   9.913 -2.0321 -1.6004  0.5414
  811MOL0     H 9432   1.267   8.594   9.849  1.0598  0.9934  0.3696
  811MOL0     H 9433   1.242   8.472   9.717  2.1787 -0.0039 -0.9373
  811MOL0     H 9434   1.502   8.518   9.862 -1.0646 -0.8483  0.7138
  811MOL0     H 9435   1.472   8.392   9.740 -0.4932  0.5454 -2.1859
  811MOL0     H 9436   1.574   8.755   9.751 -2.0050 -0.8971  1.1400
  811MOL0     H 9437   1.506   8.870   9.363 -1.2816  1.3533  0.4783
  811MOL0     H 9438   1.509   8.960   9.517 -0.1647  0.4229 -0.3416
  811MOL0     H 9439   1.748   8.887   9.560  0.2086  1.1926 -0.7438
  811MOL0     H 9440   1.737   8.790   9.407  0.9887  0.8289 -1.1658
  811MOL0     H 9441   1.727   9.094   9.439 -0.2678 -0.2902 -0.5763
  811MOL0     H 9442   1.711   9.010   9.290  0.0777 -2.3922 -0.3178
  811MOL0     H 9443   1.927   9.063   9.282  0.2369  1.2052  1.2958
  811MOL0     H 9444   1.936   8.893   9.337  0.0307 -1.1101  1.2782
  811MOL0     H 9445   2.148   9.044   9.252 -3.2988 -3.4162  1.2009
  811MOL0     H 9446   2.378   9.090   9.245  2.2009  1.9330  1.9925
  811MOL0     H 9447   2.788   9.330   9.654 -3.8246 -2.4207 -3.3438
  811MOL0     H 9448   3.026   9.344   9.656  1.0276 -0.1097  0.8643
  811MOL0     H 9449   3.251   8.975   9.520  0.7573 -1.8706 -2.4166
  811MOL0     H 9450   3.247   9.077   9.385 -4.0239  0.3846  1.4103
  811MOL0     H 9451   3.473   9.057   9.439 -0.8919 -1.8462  0.1141
  811MOL0     H 9452   3.427   9.218   9.500  0.9222 -1.1014 -2.1394
  811MOL0     H 9453   3.404   9.114   9.737  0.7224 -2.4567  1.7318
  811MOL0     H 9454   3.479   8.975   9.672  0.4008  0.6608  2.3163
  811MOL0     H 9455   3.592   9.257   9.708 -2.9958 -1.3553 -0.8804
  811MOL0     H 9456   3.668   9.140   9.585  0.2721 -2.1307 -0.2853
  811MOL0     H 9457   3.682   8.979   9.781 -2.6358  0.2533  0.9380
  811MOL0     H 9458   3.630   9.101   9.892  2.0674 -0.0709  1.8166
  811MOL0     H 9459   3.894   9.114   9.722 -1.0883 -1.6598 -0.5000
  811MOL0     H 9460   3.825   9.251   9.809 -2.6798  1.1387  2.1285
  811MOL0     H 9461   3.847   9.145  10.012  1.0138  4.4756 -1.9077
  811MOL0     H 9462   3.995   9.159   9.922  1.1071 -1.1625 -1.2252
  811MOL0     H 9463   3.943   8.927   9.843  1.5749  3.2460  0.0337
  811MOL0     H 9464   4.028   8.947   9.999 -1.3075  0.1711  1.2110
  811MOL0     H 9465   3.043   8.956   9.450 -1.8709 -1.1925  1.9794
  811MOL0     H 9466   2.793   8.955   9.450 -1.7114  1.2124  1.3035
  811MOL0     H 9467   2.407   9.043   9.664 -1.1960  0.3066  0.7975
  811MOL0     H 9468   2.182   9.018   9.685 -3.8623 -3.6832 -2.2785
  811MOL0     H 9469   0.834   7.806  10.003  0.2154  1.6914 -1.1252
  811MOL0     H 9470   0.642   7.647   9.952 -0.0801  0.8345  0.5961
  811MOL0     H 9471   0.315   7.586   9.621  0.9508 -0.9963  0.9118
  811MOL0     H 9472   0.104   7.481   9.576 -1.2469 -1.1361 -1.2700
  811MOL0     H 9473  -0.139   7.227   9.526 -0.0076  0.7699  0.9773
  811MOL0     H 9474  -0.071   7.381   9.558  0.9297  0.0326  0.6508
  811MOL0     H 9475  -0.170   7.318   9.767 -1.1975 -2.5582  0.8458
  811MOL0     H 9476   0.008   7.299   9.785 -1.0134  2.2359  1.4088
  811MOL0     H 9477  -0.084   7.098   9.893  1.3716 -1.7250  0.1535
  811MOL0     H 9478  -0.009   7.049   9.751  0.7243 -0.4737  1.3191
  811MOL0     H 9479  -0.194   7.044   9.614  2.9702 -0.4679 -0.3223
  811MOL0     H 9480  -0.199   6.936   9.753  1.2469  0.2609 -1.3541
  811MOL0     H 9481  -0.553   7.098   9.859  0.1283  2.2714 -0.2342
  811MOL0     H 9482   0.280   7.099   9.595 -1.9664  0.1328 -0.4706
  811MOL0     H 9483   0.515   7.074   9.663 -0.2751 -0.5986 -1.9802
  811MOL0     H 9484   0.613   7.178   9.546  0.5551 -1.1451  0.0306
  811MOL0     H 9485   0.611   7.211   9.712 -1.9430  0.6155  1.1753
  812MOL0     O 9486   9.534   5.825   5.804  1.0886  0.4761  0.4970
  812MOL0     C 9487   9.530   5.717   5.739  0.6766 -0.2652  1.1803
  812MOL0     O 9488   9.614   5.615   5.748  0.0366 -0.0780 -0.0400
  812MOL0     C 9489   9.708   5.625   5.845  0.1563 -0.4367 -0.7668
  812MOL0     C 9490   9.677   5.619   5.980  0.4132  0.5397  0.7654
  812MOL0     C 9491   9.778   5.628   6.073  0.1560  0.5133  0.5424
  812MOL0     C 9492   9.911   5.620   6.042 -0.0167 -0.3541  0.2635
  812MOL0     O 9493  10.019   5.634   6.122  0.4260 -0.6542  0.6922
  812MOL0     C 9494   9.997   5.640   6.263 -0.7006  0.0265  0.0493
  812MOL0     C 9495  10.134   5.634   6.331  0.0610 -0.6681  0.3307
  812MOL0     C 9496  10.203   5.506   6.283 -0.7652 -0.1942 -0.1160
  812MOL0     C 9497  10.337   5.487   6.349 -0.0010  0.9957 -0.0712
  812MOL0     C 9498  10.421   5.373   6.287  0.0134 -0.7508 -0.3510
  812MOL0     C 9499  10.565   5.376   6.351 -0.0535  0.0889  0.2188
  812MOL0     C 9500  10.649   5.259   6.308 -0.3166  0.4178  0.0746
  812MOL0     C 9501  10.782   5.267   6.381  0.0630 -0.1641 -0.0670
  812MOL0     N 9502  10.841   5.133   6.396  0.2077  0.6609  0.2460
  812MOL0     C 9503  10.923   5.074   6.311  0.0215 -0.8855  0.6528
  812MOL0     C 9504  11.013   4.994   6.378 -0.1234 -0.0427 -0.1567
  812MOL0     C 9505  11.120   4.920   6.318  0.4662  0.6630  0.0067
  812MOL0     C 9506  11.226   4.876   6.413  0.5435  0.2345 -0.4609
  812MOL0     C 9507  11.333   4.795   6.338 -0.4612  0.5165 -0.1022
  812MOL0     C 9508  11.420   4.726   6.444 -0.0108 -0.2853 -0.5550
  812MOL0     O 9509  11.512   4.649   6.369 -1.0409 -0.6590 -0.2806
  812MOL0     C 9510  11.642   4.644   6.416 -0.4341  0.6988  0.2656
  812MOL0     C 9511  11.690   4.701   6.534  0.7269  1.2431  0.3316
  812MOL0     C 9512  11.826   4.682   6.558  0.4875  0.3541  0.5195
  812MOL0     C 9513  11.908   4.613   6.468 -0.6143  0.4533 -0.4728
  812MOL0     C 9514  12.052   4.618   6.503 -0.7736 -0.5523 -0.5878
  812MOL0     O 9515  12.080   4.640   6.637  0.4619 -0.2399 -0.4144
  812MOL0     C 9516  12.207   4.653   6.688  0.5656 -0.3349 -0.0061
  812MOL0     C 9517  12.215   4.648   6.833  0.0667  0.2085  0.1311
  812MOL0     C 9518  12.334   4.683   6.895  0.3461  0.6816  0.3557
  812MOL0     C 9519  12.448   4.712   6.821 -0.1218  0.7077 -0.5084
  812MOL0     O 9520  12.574   4.740   6.870  1.0664 -0.2574 -0.6263
  812MOL0     C 9521  12.595   4.769   7.004  0.3325 -0.3357  0.4819
  812MOL0     C 9522  12.739   4.813   7.001 -0.3403 -0.2375  0.2767
  812MOL0     C 9523  12.790   4.850   7.135  0.5414 -0.6813 -0.3410
  812MOL0     C 9524  12.873   4.742   7.203 -0.2135 -0.2513  0.8056
  812MOL0     C 9525  12.903   4.768   7.354  0.4120 -0.8611 -0.1389
  812MOL0     C 9526  12.774   4.721   7.446 -0.5201 -0.0027  0.5951
  812MOL0     C 9527  12.808   4.745   7.598 -0.2659 -0.4668 -0.7480
  812MOL0     C 9528  12.685   4.734   7.691 -0.8472  0.2553  0.2719
  812MOL0    Cl 9529  12.599   4.579   7.685  0.1994  0.1159 -0.4627
  812MOL0     C 9530  12.437   4.707   6.687  0.4362  0.3787  0.7589
  812MOL0     C 9531  12.323   4.683   6.613  0.5193 -0.7473 -0.1375
  812MOL0     O 9532  12.136   4.600   6.418 -0.3778 -0.1768  0.0648
  812MOL0     C 9533  11.862   4.553   6.352  0.8920  0.1288  0.1522
  812MOL0     C 9534  11.727   4.572   6.327  0.4097  0.0009 -0.2346
  812MOL0     N 9535  10.962   4.996   6.506  1.1273 -0.5037  0.9402
  812MOL0     N 9536  10.863   5.083   6.519  0.5307 -0.1327 -0.3317
  812MOL0     C 9537   9.944   5.610   5.909  0.1276 -0.0597 -0.0166
  812MOL0     C 9538   9.841   5.607   5.812 -0.3146 -0.1866  0.4796
  812MOL0     C 9539   9.402   5.694   5.665  0.2502 -0.1658  0.0489
  812MOL0     C 9540   9.341   5.809   5.603  0.5577 -1.3908  1.0073
  812MOL0     C 9541   9.221   5.798   5.535  0.0639 -0.8866 -0.2529
  812MOL0     C 9542   9.159   5.674   5.532  0.0881  0.8655  1.2397
  812MOL0     O 9543   9.035   5.657   5.479 -0.4028 -0.1297  0.1466
  812MOL0     C 9544   8.933   5.604   5.564 -0.2165 -0.1497  0.1475
  812MOL0     C 9545   8.917   5.685   5.694 -0.0436  0.0017  0.9965
  812MOL0     C 9546   8.882   5.827   5.650 -0.8814 -0.6189  0.8990
  812MOL0     C 9547   8.778   5.895   5.742 -0.5510  0.4673  0.2352
  812MOL0     C 9548   8.814   5.884   5.880 -0.1206  0.2307 -0.2456
  812MOL0     C 9549   8.845   5.850   5.994  0.8009 -0.9549 -0.1140
  812MOL0     C 9550   9.220   5.557   5.581  1.1266 -0.3646  0.3948
  812MOL0     C 9551   9.333   5.569   5.666  0.1148  1.0766  0.3081
  812MOL0     C 9552   9.382   5.442   5.727  0.6856 -0.2391  0.0305
  812MOL0     H 9553   9.575   5.594   6.005 -1.0282  1.2355 -3.5829
  812MOL0     H 9554   9.748   5.641   6.176  2.2342 -2.0256  1.5844
  812MOL0     H 9555   9.959   5.738   6.292  2.1689  1.0597  0.6770
  812MOL0     H 9556   9.931   5.555   6.279  1.4209 -2.5057 -3.2721
  812MOL0     H 9557  10.123   5.628   6.439 -0.4249 -0.3273  0.3061
  812MOL0     H 9558  10.187   5.725   6.300 -2.6805  1.1028  0.4448
  812MOL0     H 9559  10.226   5.506   6.176  3.7060  1.6182  0.6306
  812MOL0     H 9560  10.135   5.424   6.310 -1.5628  1.1597  2.3784
  812MOL0     H 9561  10.396   5.578   6.360 -1.3625  1.7949  0.9221
  812MOL0     H 9562  10.320   5.462   6.454  0.8209 -1.8163 -0.5242
  812MOL0     H 9563  10.369   5.280   6.311 -2.1570  0.2418 -1.0313
  812MOL0     H 9564  10.432   5.374   6.178 -1.6659 -0.0606 -0.5415
  812MOL0     H 9565  10.607   5.474   6.326 -0.3938 -0.1567 -1.4344
  812MOL0     H 9566  10.555   5.381   6.460  0.2351  0.4834  0.2300
  812MOL0     H 9567  10.664   5.252   6.200  0.8544  0.0975  0.2428
  812MOL0     H 9568  10.593   5.168   6.332  0.9569 -1.0848 -2.2547
  812MOL0     H 9569  10.860   5.338   6.351 -0.9455  1.4038  0.8831
  812MOL0     H 9570  10.767   5.301   6.484  1.3202  1.3048 -0.3208
  812MOL0     H 9571  10.938   5.092   6.205  4.6828 -4.1238  0.4801
  812MOL0     H 9572  11.068   4.831   6.283 -0.5139  1.6171 -1.0537
  812MOL0     H 9573  11.163   4.975   6.234  1.5960 -0.9589 -0.5114
  812MOL0     H 9574  11.259   4.972   6.455  1.2991  0.2324 -1.0209
  812MOL0     H 9575  11.182   4.823   6.497 -1.2272  1.8502 -0.3137
  812MOL0     H 9576  11.401   4.853   6.275  0.4546 -3.4411 -3.1623
  812MOL0     H 9577  11.292   4.721   6.269 -0.5462 -2.7028  3.1622
  812MOL0     H 9578  11.373   4.654   6.511  0.4161 -0.2694 -0.2403
  812MOL0     H 9579  11.459   4.810   6.502  0.7127 -0.7594 -0.3413
  812MOL0     H 9580  11.622   4.746   6.605 -1.1132 -1.3189  0.3339
  812MOL0     H 9581  11.867   4.738   6.642 -0.8218  1.6661  0.3342
  812MOL0     H 9582  12.135   4.618   6.899  2.6835 -0.3286  3.3130
  812MOL0     H 9583  12.334   4.690   7.003  0.6382 -2.9567  0.7061
  812MOL0     H 9584  12.533   4.854   7.035 -0.0026 -0.9256  1.4738
  812MOL0     H 9585  12.588   4.680   7.068  4.4502 -0.9248  0.3766
  812MOL0     H 9586  12.796   4.727   6.965 -0.9184 -1.1404  1.4432
  812MOL0     H 9587  12.749   4.900   6.936  3.3026 -0.8224 -0.1269
  812MOL0     H 9588  12.844   4.945   7.134  0.0884 -0.4095  0.2562
  812MOL0     H 9589  12.703   4.870   7.197  0.2258  0.0347 -1.0003
  812MOL0     H 9590  12.970   4.737   7.153 -0.7067  2.3523 -0.5519
  812MOL0     H 9591  12.821   4.648   7.182 -2.8792  1.3576 -0.2014
  812MOL0     H 9592  12.919   4.875   7.370 -0.3297 -0.7166 -0.2928
  812MOL0     H 9593  12.988   4.712   7.393 -0.1765  0.4851  3.5815
  812MOL0     H 9594  12.682   4.773   7.416 -1.1043 -1.0213  0.5596
  812MOL0     H 9595  12.749   4.615   7.437 -2.8374  0.6616 -2.4467
  812MOL0     H 9596  12.860   4.841   7.605  1.7371 -1.5890  0.8612
  812MOL0     H 9597  12.895   4.686   7.628  3.6651  4.9294 -0.0052
  812MOL0     H 9598  12.712   4.746   7.797 -0.2947 -2.4664  0.5073
  812MOL0     H 9599  12.616   4.815   7.664 -0.2134  1.9686  3.3410
  812MOL0     H 9600  12.532   4.721   6.635 -0.9288  1.9589 -1.4865
  812MOL0     H 9601  12.335   4.696   6.505  0.1029 -1.1241 -0.2327
  812MOL0     H 9602  11.921   4.501   6.277  1.1190 -0.9310  1.0445
  812MOL0     H 9603  11.687   4.518   6.242 -0.2327 -1.1114  0.7396
  812MOL0     H 9604  10.045   5.606   5.870 -0.4587 -3.3642 -1.5900
  812MOL0     H 9605   9.881   5.607   5.711 -2.5819  1.0316 -0.4744
  812MOL0     H 9606   9.388   5.906   5.593  0.0775 -0.8529  3.3491
  812MOL0     H 9607   9.180   5.890   5.495  0.3284 -0.9188 -0.5979
  812MOL0     H 9608   8.936   5.503   5.605 -0.2730  0.1169  0.8271
  812MOL0     H 9609   8.841   5.605   5.505 -1.5654 -1.1546  2.1431
  812MOL0     H 9610   9.008   5.691   5.754 -1.2200  2.7822  2.7095
  812MOL0     H 9611   8.842   5.630   5.752  1.2836 -1.3834  1.4676
  812MOL0     H 9612   8.847   5.830   5.546  1.7414 -1.5974 -0.1031
  812MOL0     H 9613   8.978   5.878   5.652 -0.6004 -0.9785 -0.8729
  812MOL0     H 9614   8.758   6.000   5.719 -0.6130  0.6096  0.9349
  812MOL0     H 9615   8.676   5.855   5.741 -0.5854  0.5523 -1.1275
  812MOL0     H 9616   8.872   5.833   6.097 -1.7926 -1.8889  0.5067
  812MOL0     H 9617   9.177   5.457   5.572 -0.4111  0.1376  1.6806
  812MOL0     H 9618   9.402   5.445   5.835 -3.2359 -2.6239  0.9956
  812MOL0     H 9619   9.307   5.366   5.707  0.2074  0.2406 -0.0133
  812MOL0     H 9620   9.472   5.414   5.672  0.7950 -0.0070  0.0920
  813MOL0     O 9621   6.354   8.000  10.523  0.8273 -0.3306 -0.2105
  813MOL0     C 9622   6.255   7.936  10.478 -0.0432 -0.7416 -0.3869
  813MOL0     O 9623   6.269   7.839  10.379  0.1136  0.2709  0.0665
  813MOL0     C 9624   6.390   7.779  10.366 -0.4661  0.2613 -0.4287
  813MOL0     C 9625   6.491   7.830  10.281 -0.5910 -0.1819 -0.7013
  813MOL0     C 9626   6.618   7.760  10.269  0.1107 -0.1694  0.3516
  813MOL0     C 9627   6.641   7.651  10.355  0.3098 -0.6092  0.9855
  813MOL0     O 9628   6.759   7.578  10.338 -0.5743  0.3711 -0.0994
  813MOL0     C 9629   6.858   7.617  10.240 -0.6825 -0.7515 -0.5019
  813MOL0     C 9630   6.953   7.496  10.205  0.5975 -0.1206 -1.4079
  813MOL0     C 9631   7.080   7.487  10.297 -0.8968  0.2462 -0.3519
  813MOL0     C 9632   7.198   7.391  10.250  0.1140  0.1678  0.2367
  813MOL0     C 9633   7.277   7.448  10.130  0.6688 -0.0106 -0.6568
  813MOL0     C 9634   7.365   7.325  10.076  1.4650 -0.8538 -0.0574
  813MOL0     C 9635   7.447   7.385   9.950  0.3839  0.1350  0.5854
  813MOL0     C 9636   7.521   7.281   9.863  0.2831  0.3291 -0.4345
  813MOL0     N 9637   7.624   7.213   9.944 -0.0996 -0.3436  0.2050
  813MOL0     C 9638   7.701   7.274  10.046 -0.2810  0.8702 -0.9230
  813MOL0     C 9639   7.743   7.169  10.118 -0.6458 -0.6882 -0.4375
  813MOL0     C 9640   7.822   7.173  10.250  0.6074 -0.1898 -0.8696
  813MOL0     C 9641   7.972   7.129  10.230 -0.3861  1.0228  0.8582
  813MOL0     C 9642   8.046   7.230  10.149 -0.6468 -0.9092 -0.7823
  813MOL0     C 9643   8.193   7.187  10.147  0.8021  1.2337 -0.7654
  813MOL0     O 9644   8.268   7.230  10.265 -0.3263  0.8228 -0.0033
  813MOL0     C 9645   8.396   7.259  10.257  0.0355  0.2854  0.1698
  813MOL0     C 9646   8.438   7.395  10.274 -0.0974 -0.3412  0.4200
  813MOL0     C 9647   8.574   7.425  10.266  0.1060  0.6360 -0.5459
  813MOL0     C 9648   8.678   7.328  10.254  0.0701  0.8186  0.7311
  813MOL0     C 9649   8.824   7.352  10.259  0.3310  0.3395 -0.1899
  813MOL0     O 9650   8.917   7.248  10.275  0.3814  0.3704 -0.3493
  813MOL0     C 9651   9.046   7.266  10.310 -0.0440  0.8082 -0.3861
  813MOL0     C 9652   9.105   7.238  10.438 -0.0894 -0.0822  0.6752
  813MOL0     C 9653   9.236   7.252  10.468 -0.0373 -0.4228 -0.0356
  813MOL0     C 9654   9.329   7.289  10.369  0.1607 -0.0086  0.4485
  813MOL0     O 9655   9.461   7.267  10.398 -0.2550  0.5433  0.2918
  813MOL0     C 9656   9.537   7.381  10.389 -0.1497 -0.5242  0.4366
  813MOL0     C 9657   9.666   7.366  10.473 -0.2297  0.3562 -0.1507
  813MOL0     C 9658   9.716   7.499  10.545  0.4581  0.1090 -1.1236
  813MOL0     C 9659   9.824   7.471  10.655  0.6687 -0.6834  0.1503
  813MOL0     C 9660   9.961   7.481  10.595  0.2519  0.2452 -0.4056
  813MOL0     C 9661  10.072   7.447  10.697  0.2614  0.2912  0.7495
  813MOL0     C 9662  10.207   7.489  10.637 -0.3382 -0.0372  0.4821
  813MOL0     C 9663  10.325   7.421  10.699  0.2682  0.3617 -0.1809
  813MOL0    Cl 9664  10.317   7.476  10.869 -0.0777 -0.3042 -0.0815
  813MOL0     C 9665   9.285   7.302  10.240  0.2218 -0.3979  0.1083
  813MOL0     C 9666   9.143   7.292  10.207 -0.2728  0.2427 -0.2024
  813MOL0     O 9667   8.845   7.475  10.260 -0.9139  0.1356  0.8300
  813MOL0     C 9668   8.630   7.194  10.240 -0.7824 -0.3473 -0.8200
  813MOL0     C 9669   8.498   7.162  10.234  0.3188  0.8608 -0.0743
  813MOL0     N 9670   7.705   7.057  10.059  0.8035  0.8702 -0.4708
  813MOL0     N 9671   7.640   7.086   9.954 -0.5089  0.7567 -0.1636
  813MOL0     C 9672   6.553   7.602  10.447  0.0454  0.1356  0.3532
  813MOL0     C 9673   6.426   7.676  10.453  0.1312  0.0293  0.1155
  813MOL0     C 9674   6.111   7.967  10.518 -0.5170  0.2564  0.8620
  813MOL0     C 9675   6.005   7.874  10.491 -0.0111 -0.5859  0.4461
  813MOL0     C 9676   5.871   7.893  10.526 -0.1522 -0.3138  0.3298
  813MOL0     C 9677   5.833   8.014  10.582 -0.4364 -0.4029 -0.0481
  813MOL0     O 9678   5.702   8.027  10.606  0.1401 -0.3962 -0.0789
  813MOL0     C 9679   5.663   8.139  10.699 -0.0790  0.6376  0.1552
  813MOL0     C 9680   5.517   8.134  10.721 -0.2316  0.2694  0.0482
  813MOL0     C 9681   5.469   8.237  10.819 -0.4791  0.1288 -0.5775
  813MOL0     C 9682   5.321   8.278  10.803  0.0444 -0.7973  0.0386
  813MOL0     C 9683   5.277   8.330  10.673 -0.6818 -0.3084 -0.1585
  813MOL0     C 9684   5.251   8.375  10.560  0.7305  0.1402  1.3187
  813MOL0     C 9685   5.937   8.108  10.609 -0.0242 -0.5450 -0.6886
  813MOL0     C 9686   6.077   8.092  10.571  0.9085 -0.7482  0.2769
  813MOL0     C 9687   6.173   8.210  10.593 -0.5457  0.0908  0.5619
  813MOL0     H 9688   6.469   7.920  10.224  2.2908  1.0711 -0.0433
  813MOL0     H 9689   6.693   7.799  10.201 -0.0499  1.3189  0.9886
  813MOL0     H 9690   6.821   7.640  10.139  0.9427  0.4375 -0.8558
  813MOL0     H 9691   6.921   7.695  10.284 -1.0115 -0.5729 -0.3424
  813MOL0     H 9692   6.982   7.503  10.100  0.5371  0.4669 -1.3864
  813MOL0     H 9693   6.892   7.406  10.219 -1.6518  1.0067 -3.1742
  813MOL0     H 9694   7.045   7.459  10.396 -1.0186 -1.1565 -0.7734
  813MOL0     H 9695   7.114   7.590  10.307 -0.6637  0.5031 -2.9865
  813MOL0     H 9696   7.266   7.365  10.332 -1.2883 -1.4954  0.9443
  813MOL0     H 9697   7.156   7.300  10.207  2.2060 -0.3402 -0.8497
  813MOL0     H 9698   7.214   7.487  10.049 -1.5634 -3.1742 -0.6263
  813MOL0     H 9699   7.332   7.536  10.165  0.1092 -0.0601  0.3869
  813MOL0     H 9700   7.430   7.278  10.150  2.9395  1.5206  0.2666
  813MOL0     H 9701   7.303   7.245  10.034 -1.4021 -0.0016  2.2469
  813MOL0     H 9702   7.518   7.455   9.993 -0.3131  0.1615  1.7401
  813MOL0     H 9703   7.383   7.449   9.889  1.8199 -0.7293 -1.9795
  813MOL0     H 9704   7.448   7.209   9.825  1.5491 -2.1254  1.4779
  813MOL0     H 9705   7.561   7.327   9.772 -0.3320  2.1077  0.1543
  813MOL0     H 9706   7.734   7.378  10.050  0.1780  0.7447 -1.2970
  813MOL0     H 9707   7.814   7.277  10.283 -0.5215 -0.3139 -0.7307
  813MOL0     H 9708   7.770   7.109  10.322 -0.1077  0.6127 -0.6558
  813MOL0     H 9709   8.011   7.133  10.332  0.9302 -0.6493  0.4690
  813MOL0     H 9710   7.985   7.029  10.186  0.3992  1.7381 -0.5920
  813MOL0     H 9711   8.034   7.334  10.181  1.1814 -0.9112  0.0320
  813MOL0     H 9712   7.998   7.240  10.051 -1.0315  2.6917 -0.3509
  813MOL0     H 9713   8.229   7.233  10.055 -0.4225  0.7036 -1.5456
  813MOL0     H 9714   8.207   7.078  10.141  1.1182  1.2116  0.1705
  813MOL0     H 9715   8.371   7.472  10.309  0.9245  1.1873 -0.8382
  813MOL0     H 9716   8.599   7.530  10.271  0.4473  0.6462 -2.1154
  813MOL0     H 9717   9.041   7.192  10.512  1.4376 -0.9456  1.5001
  813MOL0     H 9718   9.272   7.239  10.570 -0.3447 -1.5806 -0.0662
  813MOL0     H 9719   9.576   7.395  10.288 -3.2071  4.5162 -0.4269
  813MOL0     H 9720   9.479   7.472  10.409  0.8658  0.1593  0.3733
  813MOL0     H 9721   9.632   7.304  10.556  0.1970  2.2256  1.5109
  813MOL0     H 9722   9.748   7.327  10.412 -1.3257 -1.9146 -0.2726
  813MOL0     H 9723   9.739   7.582  10.477 -0.6834 -1.6991 -3.8744
  813MOL0     H 9724   9.626   7.540  10.593  1.9539  2.2036  0.0802
  813MOL0     H 9725   9.805   7.378  10.709 -1.0790 -0.3046  0.2807
  813MOL0     H 9726   9.814   7.542  10.738  1.6857 -0.8943  0.4566
  813MOL0     H 9727   9.978   7.584  10.561 -1.7378  0.1500 -1.9040
  813MOL0     H 9728   9.965   7.411  10.511  1.6270 -0.3337  0.1165
  813MOL0     H 9729  10.042   7.505  10.785 -2.9141 -2.8275  1.9272
  813MOL0     H 9730  10.073   7.346  10.738  3.9574  0.0540  0.3537
  813MOL0     H 9731  10.212   7.598  10.651 -2.9253 -0.0717  2.3756
  813MOL0     H 9732  10.196   7.463  10.532 -3.4420 -2.2249  1.2021
  813MOL0     H 9733  10.305   7.314  10.703 -1.2200  0.6292  0.0601
  813MOL0     H 9734  10.423   7.452  10.662 -0.6204  3.1357 -0.4856
  813MOL0     H 9735   9.355   7.328  10.161 -0.6713  1.8757 -0.0068
  813MOL0     H 9736   9.097   7.319  10.113 -2.0184 -0.4131  0.4219
  813MOL0     H 9737   8.711   7.123  10.226  0.6288  1.2913 -1.2840
  813MOL0     H 9738   8.478   7.057  10.217 -0.0029  0.5250  2.1334
  813MOL0     H 9739   6.578   7.509  10.498 -1.3442 -1.1444 -1.1825
  813MOL0     H 9740   6.363   7.640  10.534  3.1825 -2.7796  1.5103
  813MOL0     H 9741   6.039   7.782  10.446  0.8006  0.1405 -0.4544
  813MOL0     H 9742   5.799   7.814  10.510  0.7917 -1.0853 -0.2730
  813MOL0     H 9743   5.689   8.233  10.650 -0.8362  0.0453 -1.4407
  813MOL0     H 9744   5.723   8.128  10.790 -0.5137  0.5200  0.4257
  813MOL0     H 9745   5.497   8.041  10.774  2.4375  0.0260  0.7905
  813MOL0     H 9746   5.471   8.130  10.622  6.0976 -0.5559 -3.3733
  813MOL0     H 9747   5.542   8.319  10.820  0.3676 -0.6053 -1.0480
  813MOL0     H 9748   5.492   8.187  10.914 -0.7149  0.4006 -0.3712
  813MOL0     H 9749   5.254   8.194  10.825 -1.9297  0.1285 -2.0982
  813MOL0     H 9750   5.308   8.351  10.884  2.6270 -1.3404  1.0662
  813MOL0     H 9751   5.219   8.415  10.466  0.9494 -1.5823  0.4677
  813MOL0     H 9752   5.904   8.199  10.656  1.6276  0.6672 -1.7280
  813MOL0     H 9753   6.122   8.295  10.640 -0.1587  0.8742 -0.3956
  813MOL0     H 9754   6.255   8.183  10.661  0.5049  1.5508 -0.0476
  813MOL0     H 9755   6.217   8.227  10.494  1.5005 -4.3424  0.4938
  814MOL0     O 9756   4.954   7.479   4.510 -0.6543  0.4492  0.0631
  814MOL0     C 9757   4.886   7.517   4.605  0.2752  0.4726 -0.3809
  814MOL0     O 9758   4.899   7.462   4.726 -0.3692  0.1381  0.6404
  814MOL0     C 9759   5.000   7.371   4.749  0.4748  0.3760 -0.2106
  814MOL0     C 9760   5.131   7.418   4.745  0.1230  0.6346 -0.1120
  814MOL0     C 9761   5.230   7.326   4.784  1.1164 -0.0258 -0.0003
  814MOL0     C 9762   5.193   7.197   4.832  0.8558  0.3800 -0.6789
  814MOL0     O 9763   5.286   7.109   4.879 -0.2310  0.2111 -0.0226
  814MOL0     C 9764   5.358   7.040   4.771  0.1976  0.0022  1.0618
  814MOL0     C 9765   5.294   6.902   4.758 -0.5900 -0.4498 -0.3575
  814MOL0     C 9766   5.346   6.799   4.651 -0.6646 -0.0228 -0.8257
  814MOL0     C 9767   5.486   6.755   4.675 -0.5822  0.0089 -0.2355
  814MOL0     C 9768   5.539   6.653   4.573 -0.1025 -0.0591 -0.0936
  814MOL0     C 9769   5.495   6.511   4.605 -0.9180  0.1328  1.1545
  814MOL0     C 9770   5.567   6.397   4.522  0.9318 -0.6801  0.0296
  814MOL0     C 9771   5.723   6.405   4.514  0.8709  0.4628  0.7983
  814MOL0     N 9772   5.750   6.314   4.399  0.0181 -0.3678  0.5604
  814MOL0     C 9773   5.790   6.361   4.274 -0.0627  0.2089 -0.4272
  814MOL0     C 9774   5.806   6.241   4.207 -0.6781 -0.6293 -0.6075
  814MOL0     C 9775   5.852   6.223   4.059 -0.1139 -0.5815 -0.4441
  814MOL0     C 9776   5.838   6.346   3.970  1.0353 -0.1435 -0.9019
  814MOL0     C 9777   5.854   6.323   3.817 -1.3027  1.0014  0.0225
  814MOL0     C 9778   5.821   6.454   3.740 -0.6607 -0.0090 -0.0403
  814MOL0     O 9779   5.899   6.563   3.791  0.9319 -0.7955 -0.2376
  814MOL0     C 9780   6.036   6.561   3.793  0.0095 -0.3400 -0.3519
  814MOL0     C 9781   6.093   6.642   3.890 -0.3297 -0.4261  0.8728
  814MOL0     C 9782   6.224   6.686   3.873 -0.4099 -0.4075  0.0678
  814MOL0     C 9783   6.310   6.636   3.781 -0.1352 -0.1686 -1.1436
  814MOL0     C 9784   6.441   6.694   3.750  0.1624 -0.3905  0.0450
  814MOL0     O 9785   6.513   6.642   3.647  0.4943 -0.1712  0.2385
  814MOL0     C 9786   6.632   6.698   3.622  0.1927  0.5010 -0.2040
  814MOL0     C 9787   6.735   6.700   3.713  0.0555  0.1238  0.0025
  814MOL0     C 9788   6.864   6.755   3.679 -0.3054  0.6978 -0.0009
  814MOL0     C 9789   6.882   6.808   3.551 -0.5753 -0.6559 -0.2933
  814MOL0     O 9790   7.012   6.843   3.504 -0.2519 -0.4265  0.1794
  814MOL0     C 9791   7.100   6.887   3.604  0.5035  0.7498 -0.1994
  814MOL0     C 9792   7.230   6.942   3.542  0.0169  0.0098 -0.2332
  814MOL0     C 9793   7.298   6.848   3.438  0.0508 -0.1592 -0.2518
  814MOL0     C 9794   7.447   6.879   3.424  0.2674 -0.2773 -0.1304
  814MOL0     C 9795   7.512   6.779   3.324  0.1234  1.1019 -0.1034
  814MOL0     C 9796   7.563   6.663   3.403  0.8220 -0.4176 -0.2691
  814MOL0     C 9797   7.623   6.560   3.308 -0.8741  0.4335 -0.0196
  814MOL0     C 9798   7.779   6.566   3.304  0.0148 -0.0723  0.6518
  814MOL0    Cl 9799   7.819   6.723   3.242 -0.2731  0.0985 -0.2774
  814MOL0     C 9800   6.766   6.816   3.464 -0.8670 -0.2143 -1.3349
  814MOL0     C 9801   6.648   6.763   3.499 -0.5109 -0.2106 -0.3179
  814MOL0     O 9802   6.470   6.798   3.818  0.8483  0.0299 -0.2249
  814MOL0     C 9803   6.261   6.534   3.701 -0.1059  0.1314 -0.5092
  814MOL0     C 9804   6.120   6.492   3.705 -0.0820 -0.4223  0.2686
  814MOL0     N 9805   5.799   6.132   4.289  0.2347  0.0575  0.0876
  814MOL0     N 9806   5.783   6.176   4.408 -0.1728 -0.7279 -0.8903
  814MOL0     C 9807   5.059   7.160   4.822 -0.4803 -0.3784 -0.4161
  814MOL0     C 9808   4.963   7.243   4.778  0.0100 -0.2358 -0.1792
  814MOL0     C 9809   4.764   7.591   4.562  1.0979 -0.0750 -0.1633
  814MOL0     C 9810   4.784   7.696   4.480 -0.3978 -0.6026  0.6291
  814MOL0     C 9811   4.668   7.766   4.434 -0.0503  0.0752  1.1149
  814MOL0     C 9812   4.544   7.727   4.473  0.1769  0.7878  0.7209
  814MOL0     O 9813   4.438   7.780   4.403 -0.1962 -0.6534  0.2287
  814MOL0     C 9814   4.308   7.812   4.459 -0.1719  0.3138  0.4877
  814MOL0     C 9815   4.236   7.901   4.356 -0.6620 -0.0396 -0.5691
  814MOL0     C 9816   4.101   7.941   4.410  0.5883 -1.0119 -0.4842
  814MOL0     C 9817   4.093   8.076   4.491 -0.5538 -0.1114 -0.2438
  814MOL0     C 9818   4.177   8.081   4.611 -0.1413 -0.3550  0.0393
  814MOL0     C 9819   4.252   8.094   4.703 -0.7457 -0.1415 -0.4816
  814MOL0     C 9820   4.526   7.626   4.562 -0.1471 -1.0021 -0.0968
  814MOL0     C 9821   4.637   7.555   4.608 -0.8889  0.6888 -0.3611
  814MOL0     C 9822   4.614   7.429   4.688 -0.0229  0.5686 -0.0425
  814MOL0     H 9823   5.153   7.518   4.712 -1.0004  1.4200  1.3754
  814MOL0     H 9824   5.331   7.365   4.771  0.8590  0.6721  0.0068
  814MOL0     H 9825   5.355   7.086   4.672 -2.4869  0.0561  1.0865
  814MOL0     H 9826   5.462   7.018   4.795 -0.4381 -2.5780  1.7682
  814MOL0     H 9827   5.188   6.918   4.737 -0.9029 -2.3189 -0.3251
  814MOL0     H 9828   5.294   6.851   4.855  0.5330  0.2616  0.0407
  814MOL0     H 9829   5.328   6.836   4.549 -0.6200 -3.2975 -2.1256
  814MOL0     H 9830   5.294   6.705   4.667  0.3341 -0.4393  0.0769
  814MOL0     H 9831   5.546   6.845   4.659 -0.5693  0.2031  0.8572
  814MOL0     H 9832   5.497   6.715   4.776 -0.8575 -2.3166 -1.0590
  814MOL0     H 9833   5.501   6.690   4.478  0.8303  1.8982  0.2398
  814MOL0     H 9834   5.648   6.663   4.570 -0.0199 -1.0954 -2.1851
  814MOL0     H 9835   5.511   6.482   4.710  1.4704  0.1186  0.8373
  814MOL0     H 9836   5.389   6.506   4.578 -0.4024  0.9952 -1.2728
  814MOL0     H 9837   5.529   6.402   4.420  1.6647 -1.6927 -0.3161
  814MOL0     H 9838   5.538   6.299   4.562  0.7306 -1.2451 -1.4414
  814MOL0     H 9839   5.769   6.505   4.513 -1.2607  1.5461  2.5653
  814MOL0     H 9840   5.752   6.361   4.610 -0.0842  1.0606  1.3831
  814MOL0     H 9841   5.787   6.464   4.241 -0.5039  0.0103 -1.0472
  814MOL0     H 9842   5.955   6.187   4.051  0.2194  0.3072 -0.2539
  814MOL0     H 9843   5.796   6.141   4.015  1.2968 -1.8746  0.0853
  814MOL0     H 9844   5.734   6.378   3.977  1.1075  0.7542 -3.1665
  814MOL0     H 9845   5.902   6.429   4.001  1.5566 -0.3208 -1.4956
  814MOL0     H 9846   5.779   6.253   3.780 -0.8127  0.4806  0.0009
  814MOL0     H 9847   5.957   6.294   3.795 -0.6032  2.3069  1.3965
  814MOL0     H 9848   5.717   6.477   3.766 -0.3794  0.7178  0.4471
  814MOL0     H 9849   5.832   6.448   3.631  0.0875  1.0476 -0.0358
  814MOL0     H 9850   6.037   6.704   3.960  0.1390  1.8079 -0.6132
  814MOL0     H 9851   6.250   6.777   3.926 -1.9802 -0.0379  0.2797
  814MOL0     H 9852   6.721   6.655   3.810 -0.8135  0.6085  0.1103
  814MOL0     H 9853   6.945   6.763   3.750 -0.0767  0.6683 -0.2563
  814MOL0     H 9854   7.055   6.969   3.660 -0.4352  3.2064 -4.1706
  814MOL0     H 9855   7.126   6.803   3.669  1.3028 -0.1420 -1.6235
  814MOL0     H 9856   7.206   7.033   3.485  1.9597  0.2272 -0.7534
  814MOL0     H 9857   7.292   6.972   3.627 -1.1573 -4.0178  2.2916
  814MOL0     H 9858   7.280   6.745   3.468 -4.6964  0.5763  0.1865
  814MOL0     H 9859   7.256   6.854   3.338 -1.5669  0.1535  0.4231
  814MOL0     H 9860   7.490   6.871   3.525 -1.4185 -0.3260  0.6233
  814MOL0     H 9861   7.460   6.984   3.396  0.8567 -0.4902 -0.6774
  814MOL0     H 9862   7.600   6.825   3.279  1.1752  1.8440  2.4910
  814MOL0     H 9863   7.451   6.737   3.244 -0.4983 -0.9646  1.3521
  814MOL0     H 9864   7.635   6.692   3.480  1.2823  0.2911 -0.9479
  814MOL0     H 9865   7.479   6.607   3.444  2.0955  0.6741  4.4360
  814MOL0     H 9866   7.578   6.560   3.208  0.5872  0.0628 -0.6941
  814MOL0     H 9867   7.596   6.458   3.339 -2.1175  1.4622  2.6634
  814MOL0     H 9868   7.824   6.554   3.404  1.4976 -1.2433 -0.1102
  814MOL0     H 9869   7.826   6.493   3.238  1.9959  0.6607  1.1840
  814MOL0     H 9870   6.780   6.865   3.368  1.0642  0.0380 -0.9690
  814MOL0     H 9871   6.555   6.778   3.446 -0.4498  1.6410  0.0279
  814MOL0     H 9872   6.325   6.490   3.625 -1.0894 -2.0147 -0.1628
  814MOL0     H 9873   6.072   6.425   3.634 -2.1633  1.3313 -0.0685
  814MOL0     H 9874   5.039   7.064   4.868 -2.3574  0.5164  0.7803
  814MOL0     H 9875   4.859   7.218   4.762  0.5979 -1.9889 -1.6269
  814MOL0     H 9876   4.879   7.731   4.441 -1.1757 -0.0757 -0.8997
  814MOL0     H 9877   4.676   7.847   4.363 -1.1022  0.1137  1.0227
  814MOL0     H 9878   4.335   7.855   4.556 -0.3136  2.4407 -0.3504
  814MOL0     H 9879   4.258   7.718   4.484  0.0877  0.8186  3.2998
  814MOL0     H 9880   4.232   7.852   4.258  0.1218  0.2182 -0.7402
  814MOL0     H 9881   4.293   7.993   4.342  0.8200 -0.8889 -0.4167
  814MOL0     H 9882   4.065   7.860   4.474  0.1550  0.8110  1.7623
  814MOL0     H 9883   4.047   7.953   4.316  3.2621  2.4066 -1.7993
  814MOL0     H 9884   4.119   8.161   4.428 -2.6989  1.4429  0.8604
  814MOL0     H 9885   3.989   8.080   4.523 -1.1225 -1.9248 -1.6858
  814MOL0     H 9886   4.306   8.116   4.792 -0.0929 -0.7176 -0.7271
  814MOL0     H 9887   4.428   7.603   4.604 -0.0477 -1.4877 -0.1161
  814MOL0     H 9888   4.514   7.432   4.733 -0.1266 -4.1271  0.5252
  814MOL0     H 9889   4.621   7.347   4.616 -4.1585  1.0279 -1.2008
  814MOL0     H 9890   4.684   7.414   4.771 -1.3484  0.8075  1.1538
  815MOL0     O 9891   6.664   9.930   8.106 -0.5805 -0.7893 -0.0151
  815MOL0     C 9892   6.570   9.945   8.188  0.8954 -0.1337 -0.0045
  815MOL0     O 9893   6.569   9.907   8.322 -0.1515  0.1815  0.2712
  815MOL0     C 9894   6.677   9.826   8.343  1.6509 -0.4991  0.4855
  815MOL0     C 9895   6.804   9.884   8.356 -0.0147 -0.3318  0.3732
  815MOL0     C 9896   6.913   9.803   8.393  0.0085 -0.7230  0.8154
  815MOL0     C 9897   6.889   9.670   8.426 -0.3229  0.8211  0.6008
  815MOL0     O 9898   6.982   9.592   8.491 -0.8139  0.1085  0.1095
  815MOL0     C 9899   7.108   9.644   8.523 -0.3248 -0.0237 -0.7248
  815MOL0     C 9900   7.183   9.526   8.592  0.0277  0.4902  0.3864
  815MOL0     C 9901   7.318   9.602   8.639  0.2214  0.6813 -0.7631
  815MOL0     C 9902   7.412   9.512   8.718  0.0592 -0.2123  0.3951
  815MOL0     C 9903   7.538   9.587   8.740 -0.1236 -0.4963 -0.0682
  815MOL0     C 9904   7.633   9.511   8.835 -0.3364 -0.6385  0.3697
  815MOL0     C 9905   7.698   9.384   8.758  0.0070  0.3016  0.2653
  815MOL0     C 9906   7.785   9.431   8.640 -0.7343  0.2163  0.6514
  815MOL0     N 9907   7.910   9.489   8.694 -0.6231 -0.4428 -0.5670
  815MOL0     C 9908   7.993   9.428   8.785  0.8916  1.1917 -0.1757
  815MOL0     C 9909   8.079   9.524   8.830 -0.8018  0.5123  0.2704
  815MOL0     C 9910   8.202   9.501   8.918  0.6314 -0.3850 -0.0291
  815MOL0     C 9911   8.341   9.501   8.841  0.2711  1.1567 -0.9135
  815MOL0     C 9912   8.442   9.433   8.926 -0.1301 -0.3860 -0.1242
  815MOL0     C 9913   8.484   9.526   9.042  0.1999 -0.8169  0.5567
  815MOL0     O 9914   8.546   9.643   8.984 -0.7658  0.0403 -1.1704
  815MOL0     C 9915   8.671   9.649   8.935  0.3606  0.6252 -0.1109
  815MOL0     C 9916   8.766   9.548   8.947  0.0769  0.0745 -0.3036
  815MOL0     C 9917   8.900   9.564   8.896  0.2207 -0.8046  0.0353
  815MOL0     C 9918   8.934   9.675   8.813 -0.5032  0.3356 -0.7628
  815MOL0     C 9919   9.069   9.698   8.759  0.3081 -0.4938 -0.1209
  815MOL0     O 9920   9.086   9.834   8.721  0.1673  0.3206 -1.0949
  815MOL0     C 9921   9.204   9.866   8.661 -0.4360  0.3249 -0.6212
  815MOL0     C 9922   9.197   9.913   8.528  0.4748  0.4885 -0.1853
  815MOL0     C 9923   9.318   9.953   8.467  0.2976  0.8895 -0.1568
  815MOL0     C 9924   9.446   9.939   8.538  0.4029  0.2192  0.0936
  815MOL0     O 9925   9.564   9.972   8.466  0.1210  0.4630 -0.0660
  815MOL0     C 9926   9.684   9.990   8.550  0.2770  0.0229  0.2042
  815MOL0     C 9927   9.781  10.078   8.482 -0.0797 -0.2918  0.8039
  815MOL0     C 9928   9.926  10.091   8.525  0.2297  0.3703 -0.4636
  815MOL0     C 9929   9.994  10.177   8.423 -0.1600 -0.2526 -0.0249
  815MOL0     C 9930  10.144  10.158   8.427  0.0095 -0.4071  0.7450
  815MOL0     C 9931  10.191  10.212   8.296  0.5470 -0.3657  0.1275
  815MOL0     C 9932  10.331  10.254   8.310  0.0057  0.8240 -0.0682
  815MOL0     C 9933  10.387  10.289   8.175 -0.1581  0.7542  0.8234
  815MOL0    Cl 9934  10.554  10.365   8.197  0.3878  0.3500  0.2561
  815MOL0     C 9935   9.445   9.907   8.680  0.0722  0.1729  0.1028
  815MOL0     C 9936   9.326   9.872   8.741  0.3153  0.6401 -0.0182
  815MOL0     O 9937   9.149   9.608   8.766  0.0878 -0.1763  0.2850
  815MOL0     C 9938   8.830   9.770   8.787 -0.1266 -0.3546 -0.0366
  815MOL0     C 9939   8.704   9.751   8.848 -1.1712  0.1262 -0.5675
  815MOL0     N 9940   8.051   9.639   8.764 -0.1184  0.8493  0.0965
  815MOL0     N 9941   7.951   9.612   8.687 -1.3003  0.4907  0.4907
  815MOL0     C 9942   6.759   9.619   8.412 -0.3660  1.0164  0.5345
  815MOL0     C 9943   6.645   9.694   8.378 -0.6006  0.4227  0.5665
  815MOL0     C 9944   6.434  10.004   8.142 -0.0290 -0.8187  0.6887
  815MOL0     C 9945   6.445  10.113   8.056  0.3142  0.8277 -0.2388
  815MOL0     C 9946   6.332  10.173   7.997 -0.6776  0.6004 -0.1724
  815MOL0     C 9947   6.202  10.120   8.021 -0.0725  1.2593 -0.8230
  815MOL0     O 9948   6.093  10.176   7.962 -0.5962 -0.7829  0.2674
  815MOL0     C 9949   6.058  10.095   7.851  0.9134  0.5118 -0.1859
  815MOL0     C 9950   6.153  10.070   7.738  0.0969 -0.2741  1.1094
  815MOL0     C 9951   6.195  10.204   7.675  0.0626  1.3135 -0.9884
  815MOL0     C 9952   6.100  10.266   7.566 -0.9929 -0.8050 -0.0501
  815MOL0     C 9953   6.076  10.175   7.455  0.0723 -0.2995 -0.2475
  815MOL0     C 9954   6.058  10.087   7.372  0.0272 -0.1893  0.4859
  815MOL0     C 9955   6.192  10.002   8.104  0.7032  0.0596  0.5020
  815MOL0     C 9956   6.305   9.954   8.173 -0.8319 -0.8466 -0.0018
  815MOL0     C 9957   6.283   9.824   8.253 -0.3435 -0.0621 -1.1267
  815MOL0     H 9958   6.819   9.990   8.340  0.7055 -0.1305  2.1056
  815MOL0     H 9959   7.006   9.857   8.399  0.5820 -1.7665  1.6841
  815MOL0     H 9960   7.154   9.680   8.430 -2.1508 -1.3085 -2.1904
  815MOL0     H 9961   7.092   9.721   8.599 -4.3671 -3.4991  2.4366
  815MOL0     H 9962   7.210   9.454   8.514  0.6504 -1.5378  2.3549
  815MOL0     H 9963   7.128   9.484   8.678  0.3431  5.1985  3.2059
  815MOL0     H 9964   7.280   9.685   8.698 -0.0157  1.4254 -1.9311
  815MOL0     H 9965   7.368   9.660   8.561  1.2436  0.8961  0.0271
  815MOL0     H 9966   7.374   9.475   8.813  1.0309  0.4243  1.0585
  815MOL0     H 9967   7.412   9.429   8.647 -0.7575 -0.0306  0.1766
  815MOL0     H 9968   7.588   9.607   8.645 -0.4415  2.4776  0.2785
  815MOL0     H 9969   7.508   9.683   8.784 -0.2274 -0.7391  0.4038
  815MOL0     H 9970   7.710   9.583   8.864 -0.6260  0.6519 -1.8448
  815MOL0     H 9971   7.576   9.496   8.927 -1.2859  5.0488  1.0533
  815MOL0     H 9972   7.619   9.319   8.720  0.1929 -0.3497  0.9486
  815MOL0     H 9973   7.756   9.330   8.834 -0.9801  2.8706  3.0143
  815MOL0     H 9974   7.803   9.336   8.590 -0.7469  2.0066 -3.0821
  815MOL0     H 9975   7.741   9.506   8.574 -1.6223  0.7942  1.8485
  815MOL0     H 9976   7.993   9.321   8.806 -1.0761  0.9172 -1.3961
  815MOL0     H 9977   8.191   9.590   8.981  4.6438  0.7186 -0.6707
  815MOL0     H 9978   8.189   9.417   8.987  0.8295 -0.2865  0.1268
  815MOL0     H 9979   8.320   9.433   8.759  0.9494 -1.5989  1.0674
  815MOL0     H 9980   8.370   9.599   8.801  0.7449  2.2675  1.9016
  815MOL0     H 9981   8.531   9.396   8.874  0.2982  0.3337  0.0724
  815MOL0     H 9982   8.391   9.344   8.964  1.2973 -1.9009 -1.5924
  815MOL0     H 9983   8.554   9.474   9.108  2.0018 -3.6514 -3.1909
  815MOL0     H 9984   8.393   9.563   9.091  0.0398  0.4842 -0.6692
  815MOL0     H 9985   8.739   9.452   8.989 -0.9206 -0.8004 -2.7736
  815MOL0     H 9986   8.971   9.482   8.910  3.5156  1.3141 -2.7265
  815MOL0     H 9987   9.101   9.901   8.480 -0.9569  0.6792  2.3998
  815MOL0     H 9988   9.308   9.998   8.369 -1.6349  2.3410  0.6298
  815MOL0     H 9989   9.665  10.024   8.653 -0.6687 -1.2969  0.4831
  815MOL0     H 9990   9.726   9.891   8.570 -0.6858  0.0020  2.4690
  815MOL0     H 9991   9.783  10.036   8.381 -1.0339 -0.1063  0.7007
  815MOL0     H 9992   9.733  10.176   8.484 -1.5082 -0.9798  2.9781
  815MOL0     H 9993   9.923  10.149   8.618  0.7841  0.5199 -0.5379
  815MOL0     H 9994   9.974   9.995   8.548  0.4688 -0.2985 -3.4310
  815MOL0     H 9995   9.975  10.283   8.443  0.9243 -0.0099 -0.2245
  815MOL0     H 9996   9.951  10.163   8.324 -1.1615  1.0299  0.1991
  815MOL0     H 9997  10.174  10.054   8.439 -1.8999 -0.8637  1.8343
  815MOL0     H 9998  10.193  10.218   8.504 -1.0781  0.0284  1.1117
  815MOL0     H 9999  10.192  10.132   8.221 -1.5320  0.6549 -1.0637
  815MOL0     H10000  10.141  10.304   8.264 -0.1651 -0.7056  0.2586
  815MOL0     H10001  10.386  10.166   8.343  0.1676  0.9775  0.0807
  815MOL0     H10002  10.347  10.344   8.370  1.6233  0.2362  0.4483
  815MOL0     H10003  10.389  10.206   8.104  1.0298  2.2555 -1.0003
  815MOL0     H10004  10.338  10.362   8.110  1.1637 -0.5270 -1.7508
  815MOL0     H10005   9.538   9.903   8.737 -0.5749 -1.0958  1.1206
  815MOL0     H10006   9.322   9.846   8.846  0.5521 -2.9293 -0.7792
  815MOL0     H10007   8.844   9.855   8.721  2.1779  1.7194  2.8007
  815MOL0     H10008   8.631   9.831   8.835 -1.7434  0.0922  1.9674
  815MOL0     H10009   6.746   9.511   8.421  0.3118  0.4819 -3.3921
  815MOL0     H10010   6.542   9.663   8.379 -0.8200  1.1274  1.8367
  815MOL0     H10011   6.545  10.152   8.045  1.3111 -0.6580  2.5549
  815MOL0     H10012   6.349  10.266   7.945  0.4080 -0.5682 -2.0160
  815MOL0     H10013   5.961  10.125   7.810  0.3308 -1.7834 -0.6255
  815MOL0     H10014   6.034   9.998   7.895  0.4609  0.3329 -0.8146
  815MOL0     H10015   6.109  10.003   7.663  0.6557 -1.0122  1.4302
  815MOL0     H10016   6.237  10.010   7.773 -0.7798 -4.1349 -2.5285
  815MOL0     H10017   6.289  10.193   7.620 -1.1885 -0.1921 -2.9445
  815MOL0     H10018   6.202  10.271   7.761 -1.0698 -0.1763  0.3051
  815MOL0     H10019   6.005  10.293   7.615  1.0096  4.2946  1.6562
  815MOL0     H10020   6.144  10.349   7.512  1.3578 -3.1638 -2.0155
  815MOL0     H10021   6.041  10.010   7.300 -1.2307 -0.3462  0.9152
  815MOL0     H10022   6.093   9.960   8.119  0.7257  0.6931  2.8942
  815MOL0     H10023   6.327   9.736   8.205 -2.1955 -1.0444 -1.1362
  815MOL0     H10024   6.316   9.843   8.355 -1.4459 -1.7285 -0.4175
  815MOL0     H10025   6.175   9.803   8.257 -0.0766 -1.4653  2.7434
  816MOL0     O10026   1.527   1.408   7.808  0.2280 -0.3286 -0.3926
  816MOL0     C10027   1.648   1.392   7.800 -0.8522  0.7407  0.2767
  816MOL0     O10028   1.715   1.295   7.727 -0.3911 -0.6008 -0.6428
  816MOL0     C10029   1.657   1.227   7.625 -0.3221  0.9098  0.5676
  816MOL0     C10030   1.556   1.270   7.544  1.1076  0.0097 -0.9526
  816MOL0     C10031   1.503   1.197   7.438  0.1821  0.7989 -0.1739
  816MOL0     C10032   1.567   1.075   7.414  0.3790 -0.1712 -0.0294
  816MOL0     O10033   1.545   0.987   7.319 -0.1887  0.3286  0.2073
  816MOL0     C10034   1.411   0.972   7.277 -0.3173  0.8663 -0.8566
  816MOL0     C10035   1.338   0.876   7.379 -0.8513 -0.3201  0.5501
  816MOL0     C10036   1.202   0.833   7.326  0.6589 -0.5528  0.7618
  816MOL0     C10037   1.110   0.773   7.433  0.3076  0.3026  0.4903
  816MOL0     C10038   0.968   0.761   7.384 -0.5970 -0.3359 -0.5115
  816MOL0     C10039   0.883   0.715   7.505  0.3881  0.5644  0.1902
  816MOL0     C10040   0.745   0.654   7.476 -0.3055  0.2984  0.5284
  816MOL0     C10041   0.639   0.754   7.432  0.1281  0.4238 -0.1403
  816MOL0     N10042   0.505   0.720   7.477  0.0650  0.8297  0.7923
  816MOL0     C10043   0.439   0.605   7.436  0.1585  0.2387 -0.0596
  816MOL0     C10044   0.353   0.587   7.541  0.2904 -0.1509  0.3377
  816MOL0     C10045   0.254   0.477   7.549  0.2514 -0.1619 -0.3619
  816MOL0     C10046   0.100   0.519   7.574  0.8400 -0.0714  0.3088
  816MOL0     C10047   0.046   0.613   7.457  0.0419 -0.4007 -0.6579
  816MOL0     C10048   0.042   0.546   7.316 -0.2988  0.2385  0.4772
  816MOL0     O10049  -0.038   0.428   7.292  0.5402 -0.8497 -0.1668
  816MOL0     C10050  -0.172   0.454   7.281 -0.2988  0.2593 -0.1555
  816MOL0     C10051  -0.254   0.339   7.284 -0.5171 -0.1244  0.6118
  816MOL0     C10052  -0.391   0.356   7.282 -0.3838  0.5324  0.9207
  816MOL0     C10053  -0.449   0.482   7.270  1.4112  0.1743  0.0951
  816MOL0     C10054  -0.601   0.488   7.261  1.0626  0.9053  0.0023
  816MOL0     O10055  -0.677   0.377   7.239  0.2762  0.3006  0.3745
  816MOL0     C10056  -0.817   0.376   7.254  0.9342  0.3032  0.3727
  816MOL0     C10057  -0.890   0.293   7.166 -0.5459 -0.0642 -0.0499
  816MOL0     C10058  -1.029   0.290   7.167  0.1472  0.3346 -0.5508
  816MOL0     C10059  -1.097   0.361   7.265  0.1580 -1.8029  0.0798
  816MOL0     O10060  -1.233   0.354   7.267 -0.5338 -0.3571  0.1387
  816MOL0     C10061  -1.289   0.252   7.353  0.0670 -0.0389 -0.5601
  816MOL0     C10062  -1.401   0.312   7.441 -0.2169  0.3364  0.0124
  816MOL0     C10063  -1.535   0.342   7.360  0.0239  0.0068  0.4540
  816MOL0     C10064  -1.625   0.224   7.325 -0.1510  0.2584 -0.8145
  816MOL0     C10065  -1.698   0.241   7.199 -0.2585 -0.5359  1.0928
  816MOL0     C10066  -1.830   0.321   7.217  0.2501 -0.6508 -0.4286
  816MOL0     C10067  -1.938   0.228   7.274  0.7219  0.2699 -0.9203
  816MOL0     C10068  -2.070   0.299   7.319  0.1052 -0.6803 -0.2209
  816MOL0    Cl10069  -2.190   0.181   7.395  0.3272  0.2997  0.1765
  816MOL0     C10070  -1.031   0.444   7.357  0.0003 -0.4187  0.1939
  816MOL0     C10071  -0.889   0.456   7.346  0.6373  0.9245  0.1927
  816MOL0     O10072  -0.646   0.600   7.265 -0.4081  0.2082 -0.5036
  816MOL0     C10073  -0.371   0.597   7.273 -0.5762 -0.3195  0.1571
  816MOL0     C10074  -0.228   0.585   7.284  0.8291  0.5116 -0.3794
  816MOL0     N10075   0.355   0.698   7.620 -0.3491  0.2185 -0.5907
  816MOL0     N10076   0.435   0.782   7.570 -1.0394 -0.4587  0.0632
  816MOL0     C10077   1.689   1.043   7.474  0.1312 -0.1514  0.4073
  816MOL0     C10078   1.738   1.117   7.584 -0.3335 -0.3026 -0.2264
  816MOL0     C10079   1.737   1.479   7.877 -0.1577 -0.2133 -0.3049
  816MOL0     C10080   1.874   1.461   7.861 -0.9156  0.3227  0.0869
  816MOL0     C10081   1.972   1.547   7.922 -0.0218 -0.1163  0.0987
  816MOL0     C10082   1.935   1.644   8.008  0.4039 -0.0348 -0.1162
  816MOL0     O10083   2.038   1.714   8.066  0.4181  0.1088 -0.5282
  816MOL0     C10084   2.025   1.754   8.206 -0.3293 -0.8585 -0.4293
  816MOL0     C10085   2.075   1.633   8.279 -0.7659  0.0050 -0.1266
  816MOL0     C10086   2.106   1.667   8.425  0.2167  0.3019  0.2785
  816MOL0     C10087   2.082   1.540   8.507  0.3330  0.4065 -0.5755
  816MOL0     C10088   2.139   1.557   8.647 -0.6578  0.9620 -0.2044
  816MOL0     C10089   2.167   1.563   8.763  0.3705 -0.1462 -0.4097
  816MOL0     C10090   1.799   1.667   8.028  0.5779  0.0485  0.5315
  816MOL0     C10091   1.698   1.584   7.974 -0.6875 -0.8597  0.4071
  816MOL0     C10092   1.555   1.628   7.998 -0.5004  0.7021 -0.1442
  816MOL0     H10093   1.500   1.359   7.572 -0.0925 -1.0306  0.0302
  816MOL0     H10094   1.418   1.224   7.376 -0.6427 -2.4921 -0.6498
  816MOL0     H10095   1.360   1.069   7.275  0.6016  1.4270  0.8861
  816MOL0     H10096   1.422   0.930   7.177 -1.0700 -3.5702  0.6841
  816MOL0     H10097   1.338   0.928   7.475  0.6322  0.7647  0.0062
  816MOL0     H10098   1.395   0.783   7.389 -4.2959 -2.7527 -0.6227
  816MOL0     H10099   1.222   0.757   7.249  1.4934  1.2807 -0.9339
  816MOL0     H10100   1.162   0.922   7.277  2.4695  0.4890  1.0592
  816MOL0     H10101   1.145   0.676   7.470 -0.9374  0.6306  2.6657
  816MOL0     H10102   1.120   0.842   7.517  0.3656  1.3571 -0.3650
  816MOL0     H10103   0.950   0.864   7.352  3.7280  0.0407 -2.5017
  816MOL0     H10104   0.951   0.700   7.295  1.5460  1.5103 -2.3097
  816MOL0     H10105   0.939   0.644   7.567  0.3502  0.2527 -0.1227
  816MOL0     H10106   0.860   0.799   7.570 -3.0431  1.1355 -1.5091
  816MOL0     H10107   0.708   0.603   7.566  0.2510 -1.0796  0.0038
  816MOL0     H10108   0.747   0.578   7.397 -1.1783  0.4193  0.3716
  816MOL0     H10109   0.662   0.853   7.473 -0.7707  0.7561 -0.4058
  816MOL0     H10110   0.644   0.774   7.325  1.1542 -0.0442 -0.1897
  816MOL0     H10111   0.461   0.533   7.358  0.2552  2.2224 -1.9845
  816MOL0     H10112   0.248   0.424   7.454 -1.5504 -0.1364 -0.3065
  816MOL0     H10113   0.279   0.398   7.620  0.2118  0.3606  0.2477
  816MOL0     H10114   0.035   0.433   7.592 -0.5898  0.5062 -1.7027
  816MOL0     H10115   0.098   0.571   7.670  2.8041  0.8555 -0.0998
  816MOL0     H10116   0.110   0.701   7.459  1.8640 -1.4954  4.3735
  816MOL0     H10117  -0.051   0.645   7.498  0.2001 -0.9761  0.1934
  816MOL0     H10118   0.144   0.520   7.287  0.1454  3.6127 -1.5150
  816MOL0     H10119   0.030   0.607   7.226  3.4060  0.6205  0.0871
  816MOL0     H10120  -0.216   0.237   7.291 -3.3368 -1.3013 -0.0054
  816MOL0     H10121  -0.448   0.265   7.297  0.7982 -0.0453  2.1561
  816MOL0     H10122  -0.839   0.225   7.098 -1.4438 -0.1031 -0.7055
  816MOL0     H10123  -1.081   0.230   7.093 -3.1186  3.8055 -1.4022
  816MOL0     H10124  -1.334   0.176   7.289  5.1327 -3.6795 -0.4281
  816MOL0     H10125  -1.217   0.198   7.416 -1.2783  0.9138  1.9432
  816MOL0     H10126  -1.426   0.219   7.492  3.3451 -2.5469 -2.9348
  816MOL0     H10127  -1.366   0.394   7.505 -1.3319 -0.9715  2.4462
  816MOL0     H10128  -1.590   0.417   7.418  2.2194  2.9235 -0.9821
  816MOL0     H10129  -1.515   0.391   7.265 -0.8378 -0.8892 -0.2165
  816MOL0     H10130  -1.686   0.196   7.412  4.3849 -4.4730  1.4215
  816MOL0     H10131  -1.557   0.142   7.299  0.9656 -0.0940  2.6853
  816MOL0     H10132  -1.732   0.148   7.152 -0.6707  1.4994 -3.1218
  816MOL0     H10133  -1.634   0.301   7.134 -1.9767 -0.3235 -0.5026
  816MOL0     H10134  -1.807   0.401   7.288 -0.1870 -1.0290  0.1442
  816MOL0     H10135  -1.870   0.369   7.127 -0.4833  0.0525  0.2572
  816MOL0     H10136  -1.907   0.181   7.368 -4.4193  0.4879  1.1610
  816MOL0     H10137  -1.964   0.146   7.206  1.0602 -1.4976  0.9768
  816MOL0     H10138  -2.059   0.378   7.393 -2.0199  1.2166 -1.8026
  816MOL0     H10139  -2.120   0.347   7.235 -2.3984 -1.6739  0.5999
  816MOL0     H10140  -1.092   0.497   7.430 -0.9809  0.2934 -1.1047
  816MOL0     H10141  -0.838   0.524   7.413 -0.0638  3.4269 -1.6563
  816MOL0     H10142  -0.420   0.694   7.271 -0.2460 -0.1715 -0.7797
  816MOL0     H10143  -0.166   0.674   7.292 -1.7960  2.3056  1.6734
  816MOL0     H10144   1.731   0.953   7.430 -1.6828 -0.2575 -1.2326
  816MOL0     H10145   1.826   1.086   7.639 -0.2144 -0.2524 -0.3890
  816MOL0     H10146   1.912   1.402   7.779 -0.1671 -0.2904  0.8502
  816MOL0     H10147   2.078   1.536   7.904  1.0423  3.5395  2.8422
  816MOL0     H10148   1.927   1.779   8.249  0.1515 -0.3499  0.3859
  816MOL0     H10149   2.083   1.846   8.219 -0.0517 -1.1399  0.3324
  816MOL0     H10150   2.163   1.588   8.231 -1.7570  0.0950 -2.1415
  816MOL0     H10151   2.013   1.544   8.267 -2.5941  0.9827  1.5530
  816MOL0     H10152   2.048   1.748   8.469 -1.6783 -1.4945  1.2613
  816MOL0     H10153   2.212   1.695   8.428  0.7515 -0.8377 -3.3554
  816MOL0     H10154   1.975   1.519   8.512  0.6238 -1.5335 -1.5668
  816MOL0     H10155   2.122   1.449   8.461 -1.4404 -1.0145  0.5631
  816MOL0     H10156   2.202   1.550   8.864 -0.4134 -1.8002 -0.3122
  816MOL0     H10157   1.775   1.754   8.090  2.9273 -0.3869  2.1685
  816MOL0     H10158   1.501   1.540   8.035 -3.7130  2.7499  0.4080
  816MOL0     H10159   1.549   1.698   8.081  1.3654  0.3432  0.3425
  816MOL0     H10160   1.507   1.650   7.902  0.8225  1.0798 -0.7317
  817MOL0     O10161   5.429   1.803   3.299  0.3255  0.6104  0.1583
  817MOL0     C10162   5.450   1.730   3.400 -0.4456 -0.2198  1.1435
  817MOL0     O10163   5.573   1.700   3.450  0.3226 -0.4874  0.3833
  817MOL0     C10164   5.695   1.718   3.385  0.5018  0.6541  0.1165
  817MOL0     C10165   5.805   1.728   3.467 -0.4025  0.3056 -0.8356
  817MOL0     C10166   5.938   1.728   3.408 -0.1142 -0.6475 -0.0574
  817MOL0     C10167   5.960   1.703   3.274  0.3434  0.9070 -0.3542
  817MOL0     O10168   6.085   1.700   3.227  0.6866 -0.0903 -0.1655
  817MOL0     C10169   6.106   1.586   3.139  0.2345 -0.1095 -1.3858
  817MOL0     C10170   6.247   1.535   3.171 -0.2607 -0.0145 -0.7432
  817MOL0     C10171   6.287   1.408   3.106 -0.3024  0.1113 -0.4628
  817MOL0     C10172   6.433   1.373   3.159  0.0316  1.2571  0.7293
  817MOL0     C10173   6.471   1.225   3.134 -0.4818 -0.8740 -1.1345
  817MOL0     C10174   6.583   1.191   3.230 -0.0006 -0.3758  0.1568
  817MOL0     C10175   6.640   1.042   3.216 -0.0543  0.5450 -0.7832
  817MOL0     C10176   6.756   1.029   3.308 -0.2146  0.1287 -0.0713
  817MOL0     N10177   6.793   0.886   3.332  0.3286 -0.1783 -0.6330
  817MOL0     C10178   6.841   0.795   3.239  0.3417 -0.0051  0.3234
  817MOL0     C10179   6.855   0.669   3.290 -0.4827  0.7402 -0.0478
  817MOL0     C10180   6.901   0.556   3.204  0.1119  0.6397  0.4119
  817MOL0     C10181   7.041   0.553   3.160 -0.5546 -0.1621 -0.3688
  817MOL0     C10182   7.086   0.407   3.121  1.2096  0.3186 -0.3484
  817MOL0     C10183   7.243   0.396   3.121  1.0339 -0.6892 -0.8781
  817MOL0     O10184   7.288   0.445   2.997 -0.1298 -0.7746 -0.0832
  817MOL0     C10185   7.424   0.484   2.996 -0.4669 -0.4626 -0.2263
  817MOL0     C10186   7.509   0.444   3.104  0.3045 -1.0920 -0.0113
  817MOL0     C10187   7.640   0.488   3.109  0.2892 -0.2433 -0.7281
  817MOL0     C10188   7.696   0.566   3.009  0.5085  0.8576  0.2179
  817MOL0     C10189   7.841   0.597   3.001 -0.3930  0.0549 -0.1007
  817MOL0     O10190   7.911   0.556   3.112 -0.5491 -0.3010 -0.5567
  817MOL0     C10191   8.045   0.547   3.105  0.1608 -0.1226  0.0059
  817MOL0     C10192   8.127   0.653   3.068 -0.5949  0.4238  0.2650
  817MOL0     C10193   8.262   0.651   3.100 -0.5771  0.8885 -0.5668
  817MOL0     C10194   8.323   0.539   3.157 -0.6923 -0.6830  0.3480
  817MOL0     O10195   8.464   0.550   3.164  0.5335  0.3191 -0.0889
  817MOL0     C10196   8.540   0.432   3.187  0.6352 -0.0435 -1.2013
  817MOL0     C10197   8.637   0.398   3.074  0.1171 -0.0736 -0.1727
  817MOL0     C10198   8.748   0.508   3.078  0.2426 -0.4233 -0.0212
  817MOL0     C10199   8.853   0.485   2.965  0.0810 -0.0623 -0.1471
  817MOL0     C10200   8.978   0.412   3.006 -0.0574 -0.3295 -0.0708
  817MOL0     C10201   8.961   0.265   3.031  0.2916  0.6285  0.7514
  817MOL0     C10202   9.095   0.187   3.021 -0.0060 -0.4368 -0.1138
  817MOL0     C10203   9.068   0.039   3.045 -0.6078 -0.0324 -0.1101
  817MOL0    Cl10204   8.981   0.009   3.204  0.2284  0.2792 -0.1161
  817MOL0     C10205   8.244   0.420   3.169 -0.5081 -0.2547 -0.3882
  817MOL0     C10206   8.106   0.423   3.150  0.1809 -0.3882  0.4393
  817MOL0     O10207   7.884   0.633   2.891  0.3573  0.5876 -0.1878
  817MOL0     C10208   7.617   0.613   2.908 -0.0352  0.4422  0.1706
  817MOL0     C10209   7.483   0.569   2.900  0.7680 -0.9789 -0.0060
  817MOL0     N10210   6.823   0.685   3.427 -0.5033 -0.5201 -0.4067
  817MOL0     N10211   6.792   0.811   3.444 -0.5390 -0.0576  0.0724
  817MOL0     C10212   5.844   1.688   3.189  0.8113 -0.2596 -0.5430
  817MOL0     C10213   5.713   1.699   3.242  0.2832  0.0559  0.4824
  817MOL0     C10214   5.334   1.696   3.477 -0.6495  0.4297 -0.4160
  817MOL0     C10215   5.324   1.730   3.614  0.0492  0.5330 -0.7087
  817MOL0     C10216   5.204   1.716   3.686  0.1612  0.7989 -0.2850
  817MOL0     C10217   5.094   1.659   3.621  0.4094  0.1051  0.0576
  817MOL0     O10218   4.979   1.636   3.694 -0.5339 -0.0718 -0.1475
  817MOL0     C10219   5.000   1.539   3.805  0.2662 -0.4488  0.0330
  817MOL0     C10220   4.926   1.578   3.925  0.2995 -0.7803  0.6766
  817MOL0     C10221   4.774   1.569   3.905  0.4803 -0.0980  0.1704
  817MOL0     C10222   4.702   1.631   4.026  1.2314  0.6998 -0.1757
  817MOL0     C10223   4.561   1.598   4.018 -1.3996 -0.1635 -0.3852
  817MOL0     C10224   4.444   1.576   3.990  0.1658  0.2054  0.2332
  817MOL0     C10225   5.099   1.629   3.486  1.0515  0.1224 -0.0295
  817MOL0     C10226   5.218   1.641   3.414 -0.4980 -0.2974  1.0555
  817MOL0     C10227   5.224   1.580   3.274 -0.3708  0.0773 -0.4670
  817MOL0     H10228   5.791   1.732   3.575  2.0369 -0.0580 -0.4553
  817MOL0     H10229   6.025   1.743   3.472 -0.1527 -0.6900  0.0042
  817MOL0     H10230   6.037   1.504   3.157  1.0449 -0.5031  0.0975
  817MOL0     H10231   6.090   1.635   3.042  1.1915  0.3486 -1.3244
  817MOL0     H10232   6.250   1.523   3.280  2.7834  0.7476 -0.6646
  817MOL0     H10233   6.322   1.608   3.140  1.3190 -0.4338  1.7988
  817MOL0     H10234   6.290   1.431   3.000  0.3441 -1.3812 -0.7924
  817MOL0     H10235   6.216   1.327   3.125  0.1031  0.0868  1.1792
  817MOL0     H10236   6.506   1.437   3.109 -1.0284  1.6565 -0.3523
  817MOL0     H10237   6.447   1.398   3.264 -0.7561 -1.9170  1.7028
  817MOL0     H10238   6.383   1.162   3.148 -0.2826 -0.6835  1.6520
  817MOL0     H10239   6.505   1.203   3.033 -1.3156 -1.9940 -1.1857
  817MOL0     H10240   6.662   1.265   3.213 -2.2044  1.5619 -2.3117
  817MOL0     H10241   6.538   1.209   3.328  3.4805  2.9000  1.3937
  817MOL0     H10242   6.665   1.024   3.111  1.6101  0.7797 -0.4530
  817MOL0     H10243   6.561   0.973   3.250 -0.9669  1.7806 -0.3194
  817MOL0     H10244   6.843   1.074   3.259  0.6131 -1.7068 -0.4028
  817MOL0     H10245   6.726   1.075   3.402  0.0300 -1.6443  0.9264
  817MOL0     H10246   6.846   0.819   3.133 -2.5081  2.0959  0.5340
  817MOL0     H10247   6.873   0.465   3.257 -0.1979  0.6688  0.3000
  817MOL0     H10248   6.828   0.560   3.123 -0.9283  0.0890  1.2894
  817MOL0     H10249   7.061   0.617   3.073  1.4642  1.7233  1.3783
  817MOL0     H10250   7.106   0.590   3.240 -0.8486 -0.9685  0.2586
  817MOL0     H10251   7.056   0.383   3.018  1.9537  0.7547 -0.6827
  817MOL0     H10252   7.032   0.332   3.179 -0.0138  0.1927 -1.6036
  817MOL0     H10253   7.263   0.290   3.143  3.3738  0.0086  0.7239
  817MOL0     H10254   7.275   0.448   3.211 -0.6357 -2.6929  0.9686
  817MOL0     H10255   7.477   0.375   3.181  3.4286 -0.9190  1.6115
  817MOL0     H10256   7.692   0.443   3.193 -0.8756  0.4165  0.3937
  817MOL0     H10257   8.081   0.744   3.031 -2.3911 -0.3497  0.5013
  817MOL0     H10258   8.334   0.730   3.082  0.7267 -0.1093  0.0805
  817MOL0     H10259   8.598   0.463   3.275 -1.8240  2.8014 -0.4184
  817MOL0     H10260   8.480   0.347   3.222  0.3825 -0.0101 -1.5528
  817MOL0     H10261   8.689   0.303   3.088  1.5724  0.5936 -0.8289
  817MOL0     H10262   8.577   0.394   2.982 -1.8001  0.0393  1.0279
  817MOL0     H10263   8.697   0.604   3.068  0.3692  0.1895  3.7913
  817MOL0     H10264   8.795   0.503   3.176  2.0535  0.5715 -0.7814
  817MOL0     H10265   8.888   0.579   2.923 -0.7911 -0.1299 -1.0811
  817MOL0     H10266   8.807   0.428   2.884 -0.6630 -1.7856  1.4143
  817MOL0     H10267   9.030   0.465   3.086  0.7296  1.4143 -1.6464
  817MOL0     H10268   9.049   0.432   2.925 -2.2654 -1.6749 -2.4776
  817MOL0     H10269   8.922   0.263   3.134 -1.8695  0.7985 -0.0136
  817MOL0     H10270   8.886   0.222   2.964  1.1070 -2.5251  1.7110
  817MOL0     H10271   9.177   0.213   3.088  0.3900 -1.1189 -0.3224
  817MOL0     H10272   9.126   0.205   2.918  0.1537  0.0280  0.0159
  817MOL0     H10273   8.999  -0.001   2.969  0.1100 -3.6945  1.0131
  817MOL0     H10274   9.157  -0.023   3.030 -1.5056 -0.9715 -1.9440
  817MOL0     H10275   8.291   0.325   3.194  1.0784  0.2589 -1.2757
  817MOL0     H10276   8.045   0.339   3.183 -0.7832 -0.9933 -2.5436
  817MOL0     H10277   7.657   0.681   2.833  0.7127  1.9675  1.8622
  817MOL0     H10278   7.443   0.609   2.807  2.9773  2.3811  0.2949
  817MOL0     H10279   5.849   1.664   3.083 -3.1460 -2.5749 -0.3915
  817MOL0     H10280   5.623   1.696   3.182 -1.4026 -2.5156  2.8981
  817MOL0     H10281   5.419   1.771   3.649  0.0116  4.7502 -4.5784
  817MOL0     H10282   5.194   1.729   3.794 -0.0163 -2.2227  0.1520
  817MOL0     H10283   5.107   1.530   3.823  0.4302 -0.6994 -1.0023
  817MOL0     H10284   4.952   1.447   3.769 -2.0361  0.0355  1.6183
  817MOL0     H10285   4.940   1.686   3.937 -4.4420  0.0217  0.9269
  817MOL0     H10286   4.951   1.515   4.010  2.0329 -0.1774  0.6605
  817MOL0     H10287   4.755   1.461   3.907  2.3564 -0.5620 -2.3975
  817MOL0     H10288   4.734   1.609   3.812 -0.6674 -0.6299  0.4186
  817MOL0     H10289   4.729   1.587   4.122 -2.6855 -0.0409  0.7502
  817MOL0     H10290   4.722   1.739   4.034  1.4085  0.6897 -0.4553
  817MOL0     H10291   4.339   1.573   3.972  0.1094 -0.7998  0.6512
  817MOL0     H10292   5.008   1.590   3.441  1.8666  0.3376 -1.9740
  817MOL0     H10293   5.320   1.538   3.244 -1.1782  1.1323 -5.3428
  817MOL0     H10294   5.150   1.500   3.269  1.2521 -1.4142 -2.2224
  817MOL0     H10295   5.190   1.654   3.201 -0.6767  0.3383 -0.0631
  818MOL0     O10296   8.031   4.996   7.950 -0.4326  0.6121  0.5190
  818MOL0     C10297   8.056   4.986   7.828  0.4126  0.2369  0.0557
  818MOL0     O10298   7.989   4.907   7.740  0.0703  0.0018  0.3010
  818MOL0     C10299   7.857   4.871   7.763  0.4824  0.2199  0.1341
  818MOL0     C10300   7.775   4.920   7.867  0.4430 -0.5717  1.2275
  818MOL0     C10301   7.643   4.871   7.885 -0.2143  0.4654  0.2231
  818MOL0     C10302   7.606   4.766   7.798  0.3893 -0.5225  0.1823
  818MOL0     O10303   7.484   4.698   7.795 -0.4861 -0.3566  0.4174
  818MOL0     C10304   7.375   4.748   7.868 -0.2223  0.1938  0.3082
  818MOL0     C10305   7.260   4.651   7.840  0.0092  0.5716 -0.1337
  818MOL0     C10306   7.172   4.655   7.974  0.5737  0.9243  0.2404
  818MOL0     C10307   7.033   4.586   7.947  0.3607 -0.3712 -0.0737
  818MOL0     C10308   6.941   4.598   8.062 -0.0971  0.2477 -0.2495
  818MOL0     C10309   6.807   4.544   8.021  0.5569 -0.0133 -0.4571
  818MOL0     C10310   6.724   4.499   8.147  0.4249  0.2760 -0.3392
  818MOL0     C10311   6.583   4.464   8.103  0.0793 -0.9391 -0.3620
  818MOL0     N10312   6.496   4.430   8.219  0.7042  0.2143  0.9811
  818MOL0     C10313   6.398   4.332   8.205  0.7865  0.3331  0.4406
  818MOL0     C10314   6.358   4.322   8.334 -0.0320 -0.4792 -0.3061
  818MOL0     C10315   6.245   4.238   8.378  0.7482 -0.0028 -0.9800
  818MOL0     C10316   6.282   4.094   8.382 -0.0306  0.3337  0.1369
  818MOL0     C10317   6.404   4.064   8.461 -0.4223  0.3644 -0.3354
  818MOL0     C10318   6.381   3.944   8.563 -0.0967 -0.4794  0.1550
  818MOL0     O10319   6.457   3.828   8.525 -0.0456 -0.8553  0.2075
  818MOL0     C10320   6.578   3.816   8.579  0.1967 -0.4125 -0.2507
  818MOL0     C10321   6.627   3.684   8.606 -0.0180 -1.0441 -0.0574
  818MOL0     C10322   6.764   3.660   8.647 -0.7825  0.0228 -0.2045
  818MOL0     C10323   6.847   3.777   8.672 -0.1502  0.5294  0.7270
  818MOL0     C10324   6.979   3.773   8.716 -0.3128  0.7449 -0.2008
  818MOL0     O10325   7.049   3.887   8.735  0.1904 -0.0526 -0.5126
  818MOL0     C10326   7.099   3.900   8.863 -0.6614 -0.4701  0.3672
  818MOL0     C10327   7.239   3.918   8.872  0.1959 -0.1696  0.6579
  818MOL0     C10328   7.304   3.945   8.993  0.8569  0.2728 -0.1310
  818MOL0     C10329   7.221   3.970   9.106 -0.1921 -0.2237  0.0605
  818MOL0     O10330   7.282   4.014   9.221  0.5438  0.1938 -0.4777
  818MOL0     C10331   7.220   4.132   9.280  0.7772 -0.7196 -0.4496
  818MOL0     C10332   7.227   4.261   9.199 -1.1719 -0.1476 -0.1811
  818MOL0     C10333   7.361   4.296   9.132 -0.4736 -0.6239  0.3330
  818MOL0     C10334   7.461   4.358   9.231 -0.7861 -0.1674 -0.4316
  818MOL0     C10335   7.563   4.255   9.289  0.3667 -0.1431  0.0722
  818MOL0     C10336   7.657   4.323   9.391  0.9633 -0.2084  0.8510
  818MOL0     C10337   7.727   4.216   9.474 -0.3426  0.3856  0.6345
  818MOL0     C10338   7.822   4.122   9.396  0.3556  0.2031 -0.2170
  818MOL0    Cl10339   7.972   4.220   9.350  0.1888 -0.5943 -0.4692
  818MOL0     C10340   7.085   3.934   9.103  0.4812  0.2832 -0.4725
  818MOL0     C10341   7.019   3.911   8.980 -1.7390 -0.2919 -0.0677
  818MOL0     O10342   7.021   3.658   8.741 -0.3465  0.4935 -0.1154
  818MOL0     C10343   6.790   3.897   8.651 -0.1836 -0.6888 -0.2197
  818MOL0     C10344   6.668   3.924   8.607  0.1505  0.3799  0.9144
  818MOL0     N10345   6.431   4.402   8.414 -0.9155  0.4201 -0.1079
  818MOL0     N10346   6.508   4.475   8.348 -0.0210  0.0724 -0.2005
  818MOL0     C10347   7.693   4.712   7.704 -0.2176  0.3105  0.3869
  818MOL0     C10348   7.806   4.776   7.676 -0.8741  0.3285 -0.3227
  818MOL0     C10349   8.195   5.022   7.785  0.3661  0.2740 -1.0084
  818MOL0     C10350   8.247   4.969   7.666 -0.1166 -0.0417  0.1845
  818MOL0     C10351   8.372   5.009   7.614 -1.3238 -0.2160 -1.2065
  818MOL0     C10352   8.458   5.097   7.687 -0.2356 -0.2947 -0.0786
  818MOL0     O10353   8.577   5.125   7.629  0.2689  0.2291 -0.1621
  818MOL0     C10354   8.691   5.152   7.720  0.8895 -0.6538 -0.5453
  818MOL0     C10355   8.822   5.075   7.678 -0.1487  0.0532  0.2938
  818MOL0     C10356   8.894   5.104   7.539 -0.1092  0.4006 -0.2868
  818MOL0     C10357   8.958   5.240   7.533  0.0118 -0.8441 -0.2652
  818MOL0     C10358   9.096   5.245   7.580 -1.1346 -0.4613 -0.5555
  818MOL0     C10359   9.213   5.248   7.616 -0.2767 -0.0132  0.7075
  818MOL0     C10360   8.416   5.143   7.810 -0.3437  1.2251  0.2371
  818MOL0     C10361   8.284   5.105   7.857  0.2837 -0.1717  0.4222
  818MOL0     C10362   8.241   5.177   7.978 -0.2796  0.2757  0.6241
  818MOL0     H10363   7.794   5.002   7.935 -1.0279  1.3844 -0.5953
  818MOL0     H10364   7.569   4.916   7.951 -1.5792  2.2074 -2.3039
  818MOL0     H10365   7.392   4.744   7.976 -0.4841  0.0304  0.3466
  818MOL0     H10366   7.347   4.854   7.862 -0.3602  0.0937 -1.2596
  818MOL0     H10367   7.296   4.551   7.814 -0.1313  0.7129 -0.8793
  818MOL0     H10368   7.190   4.683   7.763 -0.7812  0.5089  0.5461
  818MOL0     H10369   7.148   4.757   8.005 -1.0460 -0.3147  3.5248
  818MOL0     H10370   7.220   4.602   8.057  1.5087  1.5456  0.1130
  818MOL0     H10371   6.983   4.646   7.870 -0.3463 -2.5083 -1.3790
  818MOL0     H10372   7.046   4.481   7.920  0.9033 -0.4833  0.6107
  818MOL0     H10373   6.985   4.543   8.146 -2.1446 -1.1658 -0.0292
  818MOL0     H10374   6.926   4.704   8.081  0.1758 -0.2794  3.6328
  818MOL0     H10375   6.753   4.618   7.962  1.6637 -1.3258 -3.2876
  818MOL0     H10376   6.817   4.451   7.964  0.3145  1.9272 -3.9111
  818MOL0     H10377   6.729   4.573   8.228 -0.2047 -1.8039  1.7062
  818MOL0     H10378   6.786   4.416   8.183  1.4924  0.7514 -1.0333
  818MOL0     H10379   6.544   4.549   8.046  0.4592  0.0963  0.8788
  818MOL0     H10380   6.607   4.379   8.038  0.3869 -0.7671 -0.4792
  818MOL0     H10381   6.360   4.278   8.119 -0.9092 -2.3582  2.7008
  818MOL0     H10382   6.211   4.282   8.472 -1.3243  1.6331 -2.3903
  818MOL0     H10383   6.158   4.254   8.314 -2.9783 -0.9918  3.3507
  818MOL0     H10384   6.196   4.037   8.418 -1.1761  1.6918 -0.3889
  818MOL0     H10385   6.306   4.056   8.282  0.1228  0.1093  0.2571
  818MOL0     H10386   6.436   4.154   8.516 -0.4243 -0.2677  0.7346
  818MOL0     H10387   6.483   4.025   8.396  0.3201  0.0323  0.7322
  818MOL0     H10388   6.280   3.903   8.574  0.0297 -0.5590  1.1701
  818MOL0     H10389   6.418   3.966   8.664 -0.4025 -0.1646  0.2009
  818MOL0     H10390   6.565   3.598   8.583  1.6527 -1.8589 -1.6930
  818MOL0     H10391   6.806   3.560   8.648 -3.3782 -1.1552  0.4114
  818MOL0     H10392   7.283   3.909   8.774  1.0507  1.6228  0.8339
  818MOL0     H10393   7.411   3.963   8.998  0.9080 -0.0925  0.1087
  818MOL0     H10394   7.120   4.107   9.318  0.2478  2.8888  1.0260
  818MOL0     H10395   7.283   4.148   9.367 -0.5420 -1.6253  0.7209
  818MOL0     H10396   7.152   4.242   9.121 -1.0819  1.9779 -0.8645
  818MOL0     H10397   7.190   4.343   9.260  0.2685 -1.6719  2.9463
  818MOL0     H10398   7.408   4.208   9.087  1.6902  0.3698  0.5166
  818MOL0     H10399   7.341   4.367   9.051 -0.4907 -0.2676  0.6477
  818MOL0     H10400   7.417   4.401   9.322  1.4978  0.3328  0.4994
  818MOL0     H10401   7.515   4.442   9.186  0.3739  1.0778  2.9427
  818MOL0     H10402   7.618   4.204   9.210  1.6666  2.6208 -0.9555
  818MOL0     H10403   7.508   4.176   9.340 -2.2461  0.0424 -2.2175
  818MOL0     H10404   7.732   4.377   9.331  3.8064 -2.2535  2.3307
  818MOL0     H10405   7.604   4.394   9.455  1.5212  1.3356 -0.3245
  818MOL0     H10406   7.649   4.156   9.521 -0.7444 -0.0204 -0.5382
  818MOL0     H10407   7.784   4.263   9.555  1.2690 -0.4190  0.0063
  818MOL0     H10408   7.848   4.042   9.465  1.6238  0.6010 -0.2212
  818MOL0     H10409   7.770   4.070   9.314 -0.0409 -0.3611  0.3837
  818MOL0     H10410   7.031   3.954   9.195  0.0536  2.8641 -1.1916
  818MOL0     H10411   6.911   3.916   8.966 -2.0356  1.9515  2.3107
  818MOL0     H10412   6.841   3.990   8.675 -1.6597 -0.5685  2.9610
  818MOL0     H10413   6.641   4.029   8.596  1.0442  0.4943 -0.4193
  818MOL0     H10414   7.653   4.625   7.653  0.3837  0.0758  0.3055
  818MOL0     H10415   7.859   4.747   7.585  0.7768  1.2563  0.2959
  818MOL0     H10416   8.192   4.902   7.600  1.6182 -0.3071 -1.0597
  818MOL0     H10417   8.414   4.971   7.521  0.6260  2.0744 -1.3682
  818MOL0     H10418   8.668   5.118   7.822 -0.4218 -1.4980 -1.0944
  818MOL0     H10419   8.705   5.260   7.727 -0.7711 -0.4112 -0.5256
  818MOL0     H10420   8.810   4.966   7.676  1.3957 -0.1315 -1.0910
  818MOL0     H10421   8.899   5.102   7.751 -0.1992  1.5351 -0.1744
  818MOL0     H10422   8.824   5.096   7.456  0.2367  0.0130 -0.5422
  818MOL0     H10423   8.975   5.031   7.530 -0.6369 -0.6335  2.3900
  818MOL0     H10424   8.959   5.273   7.429 -0.2857  1.2142  0.3393
  818MOL0     H10425   8.907   5.323   7.583 -1.2041 -0.5927 -1.8364
  818MOL0     H10426   9.317   5.247   7.641 -0.0806  0.6618 -0.0352
  818MOL0     H10427   8.491   5.208   7.853  1.0890  0.4329 -0.9450
  818MOL0     H10428   8.303   5.265   7.996 -0.8328  1.0784 -1.1996
  818MOL0     H10429   8.141   5.217   7.957  1.6760  3.6680 -3.9130
  818MOL0     H10430   8.252   5.119   8.070  1.6255  0.5133  0.5859
  819MOL0     O10431   9.904   2.854   5.118  0.0139  0.2247 -0.5150
  819MOL0     C10432   9.801   2.789   5.128 -0.7811  0.1639  0.0585
  819MOL0     O10433   9.798   2.656   5.146  0.2231 -0.1291 -0.1901
  819MOL0     C10434   9.886   2.554   5.116  0.2837  0.1582 -0.1213
  819MOL0     C10435   9.860   2.423   5.172  0.3426 -0.6813  0.1093
  819MOL0     C10436   9.962   2.331   5.153 -0.4670  0.5419  0.0098
  819MOL0     C10437  10.092   2.345   5.100  0.3673  0.1947 -0.4481
  819MOL0     O10438  10.172   2.236   5.097 -0.5406 -0.1769 -0.1617
  819MOL0     C10439  10.319   2.252   5.114  0.6213 -0.3665 -0.2387
  819MOL0     C10440  10.396   2.263   4.982  0.1231 -0.5412  0.1757
  819MOL0     C10441  10.534   2.204   5.013  0.3352 -0.4230  0.5142
  819MOL0     C10442  10.609   2.273   5.124 -0.3751 -0.8965  0.4703
  819MOL0     C10443  10.755   2.301   5.076  0.3860  0.6782  0.9991
  819MOL0     C10444  10.836   2.171   5.041  0.1331 -0.3131 -0.0969
  819MOL0     C10445  10.963   2.208   4.977  0.5273 -0.5284  0.6587
  819MOL0     C10446  11.073   2.097   4.982  0.2276  0.2422  0.7176
  819MOL0     N10447  11.165   2.135   5.096  0.0289 -0.1781  0.3340
  819MOL0     C10448  11.289   2.184   5.075  0.1414  0.2504 -0.2578
  819MOL0     C10449  11.337   2.184   5.196  0.1507 -0.3726 -0.5885
  819MOL0     C10450  11.472   2.239   5.239  1.0705  0.1061 -0.6438
  819MOL0     C10451  11.542   2.123   5.307 -0.4336  0.6407 -0.0388
  819MOL0     C10452  11.692   2.149   5.324 -0.3409 -0.0095 -0.3809
  819MOL0     C10453  11.779   2.041   5.368  0.8077 -0.1055 -0.0437
  819MOL0     O10454  11.779   1.938   5.270  0.3986 -0.0018  0.1609
  819MOL0     C10455  11.889   1.856   5.277  0.8327  0.1358 -0.0360
  819MOL0     C10456  12.005   1.867   5.354  0.1443  0.3592  0.5825
  819MOL0     C10457  12.096   1.769   5.349 -0.2931  0.1994  0.2766
  819MOL0     C10458  12.089   1.655   5.270  1.0094  0.1613  0.5404
  819MOL0     C10459  12.190   1.546   5.278  0.1680 -0.1738 -0.3410
  819MOL0     O10460  12.194   1.454   5.183  0.5478 -0.5296  0.1343
  819MOL0     C10461  12.297   1.365   5.198 -0.7297  0.0223 -0.2800
  819MOL0     C10462  12.430   1.398   5.167  0.1895 -0.4996 -0.2529
  819MOL0     C10463  12.527   1.303   5.174 -0.0341  0.2626 -0.0502
  819MOL0     C10464  12.499   1.162   5.187  0.8519  0.0158 -1.2634
  819MOL0     O10465  12.594   1.060   5.187 -0.0582  0.1079 -0.1580
  819MOL0     C10466  12.690   1.077   5.293  0.4674 -0.5529  0.0193
  819MOL0     C10467  12.736   0.940   5.345 -0.2398 -0.6497 -0.5129
  819MOL0     C10468  12.842   0.959   5.454 -0.4020  0.1456 -0.4216
  819MOL0     C10469  12.964   1.047   5.412 -0.2958 -0.1510 -0.5836
  819MOL0     C10470  13.040   0.996   5.295  0.2401  1.3366  0.0578
  819MOL0     C10471  13.097   0.859   5.312 -0.1211 -1.2329 -0.1847
  819MOL0     C10472  13.235   0.856   5.367  0.2112 -0.1615  0.2733
  819MOL0     C10473  13.281   0.718   5.373  0.1595  0.3289  0.8580
  819MOL0    Cl10474  13.209   0.609   5.508 -0.1004  0.2074  0.1235
  819MOL0     C10475  12.361   1.132   5.196 -0.6750 -0.3545 -0.6759
  819MOL0     C10476  12.266   1.229   5.220  0.2509 -0.2212 -0.5579
  819MOL0     O10477  12.259   1.543   5.382 -0.5734  0.2133 -0.4930
  819MOL0     C10478  11.974   1.648   5.184  0.5851  0.1291  0.7041
  819MOL0     C10479  11.872   1.744   5.194  0.9478 -0.2765 -0.5725
  819MOL0     N10480  11.241   2.143   5.290  0.0237  0.3385  0.3929
  819MOL0     N10481  11.138   2.110   5.227 -0.3568 -0.2186  0.5705
  819MOL0     C10482  10.110   2.466   5.038  0.0832 -0.0121 -0.2361
  819MOL0     C10483  10.006   2.570   5.046 -1.0252  0.5469  0.6066
  819MOL0     C10484   9.663   2.862   5.150  0.1082 -0.5012 -0.2044
  819MOL0     C10485   9.561   2.811   5.224  0.1161  0.1910 -0.0265
  819MOL0     C10486   9.441   2.873   5.251 -0.6907 -0.1059  1.1284
  819MOL0     C10487   9.413   2.994   5.203 -1.2899 -0.3187  0.4900
  819MOL0     O10488   9.295   3.039   5.229  0.3959 -0.3180 -0.5576
  819MOL0     C10489   9.240   3.147   5.154 -1.1376  0.2401  0.7357
  819MOL0     C10490   9.088   3.188   5.163  0.1675  0.6708  0.4708
  819MOL0     C10491   8.988   3.061   5.138  0.9402 -0.3305 -0.3285
  819MOL0     C10492   8.842   3.114   5.133  0.0498  0.3055  0.2217
  819MOL0     C10493   8.779   3.110   5.265  0.6307  0.0636  0.9610
  819MOL0     C10494   8.711   3.114   5.366  0.4123 -0.4018 -0.6251
  819MOL0     C10495   9.510   3.054   5.110 -0.1566  1.4495  0.8720
  819MOL0     C10496   9.634   2.991   5.091  0.6789  0.1144 -0.2288
  819MOL0     C10497   9.725   3.058   4.995 -0.8660  0.2229 -0.3035
  819MOL0     H10498   9.768   2.384   5.215 -0.6833  1.2767 -0.1798
  819MOL0     H10499   9.946   2.233   5.197 -1.5258 -0.1389 -1.7759
  819MOL0     H10500  10.340   2.340   5.174  1.0012 -0.3414 -0.4070
  819MOL0     H10501  10.346   2.163   5.173 -1.8616 -1.1380 -0.1549
  819MOL0     H10502  10.397   2.367   4.947 -2.8567 -0.1944  0.8839
  819MOL0     H10503  10.356   2.211   4.894 -1.0083  5.0660 -3.2056
  819MOL0     H10504  10.582   2.217   4.915 -2.4420 -1.4983 -1.1089
  819MOL0     H10505  10.524   2.096   5.025 -0.8793 -0.4230 -0.3678
  819MOL0     H10506  10.552   2.364   5.144 -3.3202 -2.3219 -0.8851
  819MOL0     H10507  10.605   2.219   5.219 -2.6734  1.2247  1.7013
  819MOL0     H10508  10.739   2.356   4.983 -2.7722  0.1597  1.1180
  819MOL0     H10509  10.815   2.355   5.149 -1.2271  0.4858  2.5458
  819MOL0     H10510  10.861   2.126   5.138  0.0472  1.8411  0.9871
  819MOL0     H10511  10.775   2.104   4.979 -1.5579 -0.4089  1.5815
  819MOL0     H10512  11.010   2.299   5.017  0.1072  0.4061 -0.8825
  819MOL0     H10513  10.939   2.229   4.872  1.2421  0.8684  0.7525
  819MOL0     H10514  11.033   1.996   4.987  0.8821  0.0025  1.2535
  819MOL0     H10515  11.118   2.103   4.882 -1.7507  1.3601 -0.1617
  819MOL0     H10516  11.342   2.209   4.984  2.0016 -0.4191  0.6020
  819MOL0     H10517  11.523   2.293   5.158  2.8423 -2.6209 -1.4916
  819MOL0     H10518  11.448   2.310   5.319 -1.5429 -0.9727 -0.3686
  819MOL0     H10519  11.503   2.113   5.409 -0.5135  0.5171 -0.0814
  819MOL0     H10520  11.527   2.032   5.249 -0.7315  1.0095 -0.5457
  819MOL0     H10521  11.695   2.230   5.398 -0.3071 -0.9074  0.6237
  819MOL0     H10522  11.740   2.177   5.229  1.5475 -3.7282 -0.6768
  819MOL0     H10523  11.749   2.005   5.467  1.2939 -0.7983 -0.1485
  819MOL0     H10524  11.878   2.087   5.363  0.4328  0.6274 -0.9527
  819MOL0     H10525  12.012   1.955   5.417 -2.6226  1.4874 -0.5224
  819MOL0     H10526  12.186   1.772   5.410  0.8717  2.4602 -1.4329
  819MOL0     H10527  12.464   1.499   5.146  1.9023 -1.2084 -1.0926
  819MOL0     H10528  12.632   1.328   5.165  0.1780 -1.0626 -1.6723
  819MOL0     H10529  12.772   1.141   5.259 -0.3418  0.5400  0.0634
  819MOL0     H10530  12.637   1.137   5.368  0.1822  1.2411 -1.5497
  819MOL0     H10531  12.651   0.887   5.388  1.2368 -2.4019  0.3740
  819MOL0     H10532  12.779   0.883   5.261  1.4398 -1.9744  1.1617
  819MOL0     H10533  12.785   1.000   5.538 -3.6202 -1.7559 -1.4733
  819MOL0     H10534  12.874   0.861   5.490  0.2559  1.2885  2.3635
  819MOL0     H10535  13.030   1.054   5.499 -2.2849 -0.3626  1.0489
  819MOL0     H10536  12.925   1.148   5.401 -1.9897 -0.7944 -0.8171
  819MOL0     H10537  13.123   1.059   5.263  0.5160  0.7004 -0.5052
  819MOL0     H10538  12.981   0.991   5.203  2.3650  2.7030 -1.4764
  819MOL0     H10539  13.034   0.799   5.378 -0.5685 -3.1046 -2.2037
  819MOL0     H10540  13.113   0.812   5.214  0.8884 -0.1361 -0.5714
  819MOL0     H10541  13.218   0.897   5.467 -2.0955  2.1546 -0.9295
  819MOL0     H10542  13.300   0.924   5.310  1.0516  0.3209  1.7604
  819MOL0     H10543  13.259   0.668   5.278 -0.1516  1.7169  0.1772
  819MOL0     H10544  13.390   0.724   5.375  0.1936  1.1442 -1.3404
  819MOL0     H10545  12.324   1.031   5.204 -2.4221  0.3069 -0.0091
  819MOL0     H10546  12.161   1.212   5.242  0.6224 -0.2785  1.2993
  819MOL0     H10547  11.957   1.560   5.122 -0.4396 -0.9505  2.4114
  819MOL0     H10548  11.780   1.726   5.138  0.9799 -1.8254 -0.1629
  819MOL0     H10549  10.207   2.493   4.997 -0.0318  0.6290 -0.1001
  819MOL0     H10550  10.036   2.668   5.011  2.5454 -0.6182 -0.0714
  819MOL0     H10551   9.584   2.722   5.282  3.1254  0.1094 -1.1895
  819MOL0     H10552   9.366   2.831   5.316  0.3206 -0.8075  1.8659
  819MOL0     H10553   9.255   3.129   5.047  0.2691  1.3115  0.7246
  819MOL0     H10554   9.298   3.237   5.175 -1.8977  0.3585  2.5160
  819MOL0     H10555   9.064   3.279   5.107 -1.0664  0.3892  0.5104
  819MOL0     H10556   9.076   3.220   5.267 -2.1525 -0.3056  0.5591
  819MOL0     H10557   8.997   2.988   5.219 -0.6379 -0.7098 -0.4521
  819MOL0     H10558   9.018   3.009   5.046 -0.0066 -1.3124 -0.1132
  819MOL0     H10559   8.837   3.214   5.089  1.6101  0.4934  0.4358
  819MOL0     H10560   8.781   3.049   5.070  3.5892 -1.4971 -1.6136
  819MOL0     H10561   8.675   3.121   5.467 -0.0947  3.1140 -0.9477
  819MOL0     H10562   9.514   3.154   5.068 -0.8806  0.6982 -1.1154
  819MOL0     H10563   9.672   3.127   4.928 -0.1153  0.5405 -0.5813
  819MOL0     H10564   9.797   3.107   5.061 -2.1868 -2.6700  3.6301
  819MOL0     H10565   9.779   2.984   4.935 -1.3032 -0.7796  0.5310
  820MOL0     O10566   1.841   0.337  11.086 -0.3521  0.1009  0.7660
  820MOL0     C10567   1.845   0.278  11.193 -0.9864  1.2273 -0.3078
  820MOL0     O10568   1.960   0.264  11.274  0.1661 -0.4282 -0.1666
  820MOL0     C10569   2.060   0.346  11.235  0.5773 -0.3203  0.8101
  820MOL0     C10570   2.166   0.304  11.149 -0.2558  0.0078  0.1496
  820MOL0     C10571   2.277   0.391  11.130  0.3578 -0.4539  0.6833
  820MOL0     C10572   2.278   0.519  11.183  0.4842 -0.1021 -0.2611
  820MOL0     O10573   2.394   0.596  11.156 -0.2467 -0.4957  0.2279
  820MOL0     C10574   2.493   0.602  11.262  0.1943 -0.1977  0.0802
  820MOL0     C10575   2.623   0.604  11.183 -0.0381  0.4401  0.2325
  820MOL0     C10576   2.724   0.703  11.249 -0.5110 -0.7164  0.3113
  820MOL0     C10577   2.856   0.657  11.194 -0.9007  0.9010 -0.8658
  820MOL0     C10578   2.963   0.758  11.237  0.8388 -0.4503  0.2369
  820MOL0     C10579   3.097   0.725  11.204 -0.7670 -0.1478  0.1314
  820MOL0     C10580   3.198   0.805  11.286 -0.7409  0.6314 -0.7621
  820MOL0     C10581   3.189   0.953  11.271  0.3580  0.2170 -0.1414
  820MOL0     N10582   3.300   1.032  11.327  0.2711 -0.6275  0.1993
  820MOL0     C10583   3.307   1.106  11.443 -0.3476 -0.4205  0.1959
  820MOL0     C10584   3.425   1.172  11.435  0.0831 -0.2645 -0.0788
  820MOL0     C10585   3.489   1.251  11.537 -0.5277  0.4342 -0.3760
  820MOL0     C10586   3.638   1.279  11.515 -0.0861 -0.8220 -0.3665
  820MOL0     C10587   3.730   1.165  11.562 -0.6205  0.7260 -0.0615
  820MOL0     C10588   3.878   1.172  11.519 -0.0295 -0.4759  0.0632
  820MOL0     O10589   3.933   1.298  11.562  0.2880 -0.2533 -0.3187
  820MOL0     C10590   4.042   1.357  11.494 -0.6103 -0.1770 -0.4296
  820MOL0     C10591   4.110   1.296  11.386 -0.6603 -0.1493 -0.0478
  820MOL0     C10592   4.219   1.363  11.317  0.2773 -0.0509 -0.2494
  820MOL0     C10593   4.279   1.476  11.369  0.7762  1.1883  0.1994
  820MOL0     C10594   4.396   1.535  11.304  0.0532 -0.2354  0.4949
  820MOL0     O10595   4.487   1.591  11.385  0.7550  0.3068 -0.0382
  820MOL0     C10596   4.607   1.640  11.333 -0.0655  0.6308  0.1296
  820MOL0     C10597   4.622   1.713  11.212 -0.3995 -0.2895  0.9011
  820MOL0     C10598   4.740   1.775  11.176  0.5722  0.0522  0.5594
  820MOL0     C10599   4.847   1.764  11.266  0.1151  0.4167 -0.4992
  820MOL0     O10600   4.965   1.834  11.227 -0.2031  0.3254  0.6820
  820MOL0     C10601   5.092   1.778  11.251 -0.2625  0.2157  0.4286
  820MOL0     C10602   5.203   1.881  11.224 -0.0003 -0.7957 -0.2193
  820MOL0     C10603   5.215   1.999  11.326  0.6168 -0.1514 -0.1069
  820MOL0     C10604   5.351   2.052  11.335  1.0386 -0.5030 -0.5589
  820MOL0     C10605   5.350   2.177  11.424 -1.3492 -1.0984 -0.0535
  820MOL0     C10606   5.484   2.246  11.422 -0.2713 -0.1145  0.3702
  820MOL0     C10607   5.603   2.160  11.468 -0.0514  0.6394  0.0423
  820MOL0     C10608   5.715   2.250  11.506  0.0195 -0.1613 -1.0715
  820MOL0    Cl10609   5.846   2.139  11.569  0.1436 -0.3599 -0.4327
  820MOL0     C10610   4.830   1.699  11.393 -0.1782 -0.0180  1.0190
  820MOL0     C10611   4.706   1.643  11.426 -0.3138  0.3083  0.7253
  820MOL0     O10612   4.420   1.508  11.188  0.7800  0.0403  0.3016
  820MOL0     C10613   4.207   1.544  11.472  0.1125  0.4730 -1.2719
  820MOL0     C10614   4.094   1.479  11.534 -0.1569 -0.9054  0.4033
  820MOL0     N10615   3.473   1.147  11.309  0.0860  0.6945 -0.2130
  820MOL0     N10616   3.394   1.065  11.237 -0.1839 -0.4541 -0.6510
  820MOL0     C10617   2.171   0.561  11.263 -0.0606 -0.0547  0.3531
  820MOL0     C10618   2.064   0.474  11.287 -0.0158 -0.3762 -0.0843
  820MOL0     C10619   1.722   0.206  11.238 -0.8704 -0.0447  0.0759
  820MOL0     C10620   1.738   0.097  11.320 -0.0019  0.2024  0.2173
  820MOL0     C10621   1.625   0.019  11.358  0.2149  0.6246  0.0502
  820MOL0     C10622   1.493   0.071  11.337  0.5518 -1.0597  0.6395
  820MOL0     O10623   1.393  -0.000  11.400 -0.2212 -0.1108 -0.3692
  820MOL0     C10624   1.268  -0.011  11.331  0.0033  0.1151 -0.0921
  820MOL0     C10625   1.289  -0.093  11.205  0.4939 -0.7045  1.2036
  820MOL0     C10626   1.345  -0.233  11.232 -0.7701  0.0801  0.1677
  820MOL0     C10627   1.255  -0.340  11.296  0.1225 -1.2829 -0.6583
  820MOL0     C10628   1.185  -0.422  11.196 -0.4456  0.2905  0.2428
  820MOL0     C10629   1.142  -0.485  11.105 -0.0759 -0.2621  0.1178
  820MOL0     C10630   1.479   0.183  11.258 -0.2371  0.2740 -0.5450
  820MOL0     C10631   1.596   0.251  11.209  0.6881  0.5784 -0.3781
  820MOL0     C10632   1.568   0.383  11.153 -0.8346 -0.3513  0.4936
  820MOL0     H10633   2.160   0.204  11.108  2.7319  0.6803 -2.3392
  820MOL0     H10634   2.366   0.367  11.072 -0.2636  0.1815 -0.5914
  820MOL0     H10635   2.476   0.691  11.324 -1.8746  0.4532 -1.2928
  820MOL0     H10636   2.497   0.503  11.308 -0.3186 -0.0515  0.4454
  820MOL0     H10637   2.600   0.620  11.077 -2.2858  1.2995  0.7911
  820MOL0     H10638   2.667   0.504  11.183 -1.6237 -0.2969 -0.2410
  820MOL0     H10639   2.735   0.697  11.357  0.3014 -1.4578  0.1992
  820MOL0     H10640   2.704   0.808  11.225  1.0231 -0.3474  0.5436
  820MOL0     H10641   2.879   0.563  11.245 -0.3246  2.1312  1.2920
  820MOL0     H10642   2.846   0.648  11.086 -0.2752 -1.7671 -0.7583
  820MOL0     H10643   2.939   0.854  11.191  1.1373 -0.5610 -0.1527
  820MOL0     H10644   2.960   0.775  11.345 -0.9890  2.8651 -0.1961
  820MOL0     H10645   3.120   0.620  11.226  1.5975  0.1375 -0.7788
  820MOL0     H10646   3.111   0.743  11.097  0.5680 -0.7485  0.1893
  820MOL0     H10647   3.293   0.768  11.246 -1.0101 -0.4919 -0.3989
  820MOL0     H10648   3.198   0.761  11.386  0.8001 -2.4934 -1.9919
  820MOL0     H10649   3.184   0.966  11.163  2.3732  0.2699 -0.2732
  820MOL0     H10650   3.098   0.993  11.316  0.1512 -0.7536  0.3346
  820MOL0     H10651   3.229   1.113  11.519 -0.0174  1.5684  0.4068
  820MOL0     H10652   3.437   1.347  11.545  0.8602  1.1359  0.5273
  820MOL0     H10653   3.476   1.199  11.633 -0.8098  2.0063  0.4631
  820MOL0     H10654   3.649   1.302  11.408  1.9834 -1.8675 -0.4311
  820MOL0     H10655   3.676   1.368  11.566  1.5792 -0.8862 -1.4227
  820MOL0     H10656   3.701   1.066  11.526 -1.4189  0.9647 -0.0810
  820MOL0     H10657   3.734   1.170  11.671  1.2561  4.2730 -0.1448
  820MOL0     H10658   3.883   1.166  11.410  2.2862 -0.1479  0.0936
  820MOL0     H10659   3.937   1.083  11.547  2.9735  0.3959 -2.8457
  820MOL0     H10660   4.071   1.197  11.365 -0.8905 -0.3451  1.1711
  820MOL0     H10661   4.271   1.306  11.240  1.7761 -1.1823  1.5083
  820MOL0     H10662   4.541   1.734  11.144 -0.2855  0.0858  0.8763
  820MOL0     H10663   4.747   1.828  11.081 -0.9841 -0.6894 -0.0059
  820MOL0     H10664   5.107   1.739  11.352  0.1769  0.3641  0.4217
  820MOL0     H10665   5.100   1.701  11.173 -0.9008  1.8203 -1.2841
  820MOL0     H10666   5.296   1.823  11.228 -0.4814 -1.5083  2.8460
  820MOL0     H10667   5.202   1.916  11.120  0.4913  0.2061  0.0957
  820MOL0     H10668   5.157   2.085  11.292  1.7016  0.4227 -0.5631
  820MOL0     H10669   5.180   1.962  11.423 -1.7883 -0.2494 -0.9533
  820MOL0     H10670   5.395   2.077  11.238  0.0082  5.0420  0.0574
  820MOL0     H10671   5.417   1.973  11.372  0.9967 -0.1921  0.1948
  820MOL0     H10672   5.324   2.153  11.528 -0.9673 -1.0158  0.0598
  820MOL0     H10673   5.275   2.248  11.387 -0.4642  0.2171  0.5918
  820MOL0     H10674   5.504   2.265  11.316 -0.6811 -3.6620 -0.4727
  820MOL0     H10675   5.486   2.345  11.468  1.2138  0.1712 -0.2306
  820MOL0     H10676   5.632   2.099  11.382  1.1834 -2.6090  2.5486
  820MOL0     H10677   5.576   2.086  11.544  2.4173  2.0057  2.3992
  820MOL0     H10678   5.749   2.306  11.418  1.0497  0.4716 -0.2914
  820MOL0     H10679   5.690   2.318  11.588  1.3994 -2.2606  1.2165
  820MOL0     H10680   4.902   1.681  11.473 -0.3899 -1.8650  0.8410
  820MOL0     H10681   4.695   1.586  11.518  0.1645 -3.3057 -1.2307
  820MOL0     H10682   4.246   1.639  11.507 -1.7239  1.2191 -1.1371
  820MOL0     H10683   4.055   1.536  11.617 -1.0618 -1.5597  0.4351
  820MOL0     H10684   2.181   0.662  11.303 -0.6127  0.1966 -0.1219
  820MOL0     H10685   1.980   0.506  11.348  0.9459 -0.1758  1.1608
  820MOL0     H10686   1.835   0.058  11.349 -1.4171 -1.5035  3.2426
  820MOL0     H10687   1.640  -0.080  11.401 -2.2575  0.8430  1.5712
  820MOL0     H10688   1.227   0.087  11.307 -1.2657  0.6794  3.6788
  820MOL0     H10689   1.204  -0.056  11.408 -2.3108 -1.2901 -2.6855
  820MOL0     H10690   1.360  -0.038  11.142 -1.9007  1.4627  0.2420
  820MOL0     H10691   1.199  -0.106  11.145  0.8574  2.1014 -0.1066
  820MOL0     H10692   1.435  -0.237  11.293 -0.0043 -0.1637 -0.9544
  820MOL0     H10693   1.379  -0.268  11.134  1.6407 -1.0662  1.3555
  820MOL0     H10694   1.317  -0.407  11.357 -0.1964 -0.4833  0.5704
  820MOL0     H10695   1.187  -0.289  11.364 -2.5477 -2.5017 -2.2450
  820MOL0     H10696   1.118  -0.555  11.027  1.3126 -0.6349  0.0019
  820MOL0     H10697   1.378   0.215  11.238 -1.5381 -1.6519  2.2653
  820MOL0     H10698   1.565   0.375  11.044  2.4943 -0.4404  0.3107
  820MOL0     H10699   1.480   0.426  11.202 -1.3618  0.1668 -0.8497
  820MOL0     H10700   1.645   0.457  11.175 -0.8912 -0.8226  2.5176
  821MOL0     O10701   9.267   8.006   8.177 -0.2315 -0.3021  0.2339
  821MOL0     C10702   9.201   7.917   8.232 -0.5116  0.8860 -0.8511
  821MOL0     O10703   9.257   7.807   8.291  0.1472 -0.1576 -0.5060
  821MOL0     C10704   9.390   7.813   8.303  0.3812 -0.3070 -0.1026
  821MOL0     C10705   9.468   7.744   8.220  0.1978  0.4858 -0.1409
  821MOL0     C10706   9.610   7.752   8.231  0.3817  1.3687 -0.0883
  821MOL0     C10707   9.671   7.820   8.333  0.5661 -1.0135  1.0356
  821MOL0     O10708   9.807   7.825   8.349 -0.5406 -0.5636 -1.0817
  821MOL0     C10709   9.896   7.770   8.254  0.1047  0.5577  0.6297
  821MOL0     C10710  10.042   7.781   8.304 -1.3770  0.0874 -0.3426
  821MOL0     C10711  10.096   7.932   8.298  0.0351  0.6980 -0.6147
  821MOL0     C10712  10.244   7.929   8.239 -0.1336  0.3921  0.1082
  821MOL0     C10713  10.275   8.067   8.183 -0.0393  0.3506  0.0825
  821MOL0     C10714  10.380   8.046   8.075  0.3431  0.1166  0.1218
  821MOL0     C10715  10.442   8.192   8.047 -0.5148  0.5336  0.0650
  821MOL0     C10716  10.543   8.188   7.937  0.1425  0.7297 -0.5356
  821MOL0     N10717  10.644   8.088   7.967  0.4849 -0.8675 -0.3121
  821MOL0     C10718  10.743   8.097   8.068 -0.1454  0.3148  0.3438
  821MOL0     C10719  10.817   7.991   8.045 -0.2080 -0.0917 -0.8836
  821MOL0     C10720  10.953   7.947   8.097  1.1641  0.7471 -0.0888
  821MOL0     C10721  11.061   8.058   8.094 -0.2924  0.5195 -1.0893
  821MOL0     C10722  11.086   8.116   7.952 -0.3826 -0.3962  0.5293
  821MOL0     C10723  11.128   8.257   7.956  0.2110 -0.4480  0.1850
  821MOL0     O10724  11.256   8.281   8.026 -0.2389 -0.0619 -0.4833
  821MOL0     C10725  11.322   8.400   8.007 -0.2256  0.8097  0.0504
  821MOL0     C10726  11.426   8.417   8.101 -0.3712  0.4985  0.0857
  821MOL0     C10727  11.502   8.539   8.100  0.2156 -0.3826  0.2952
  821MOL0     C10728  11.478   8.639   8.004  0.4506 -0.1712  1.0267
  821MOL0     C10729  11.557   8.762   8.000 -0.5324 -0.4308 -0.0266
  821MOL0     O10730  11.533   8.857   7.906 -0.8955  0.0519  0.1759
  821MOL0     C10731  11.616   8.968   7.905  0.1298  0.4476 -0.5436
  821MOL0     C10732  11.569   9.078   7.978 -0.6177  0.0298  0.0488
  821MOL0     C10733  11.629   9.200   7.959  0.4666  0.2384 -0.5050
  821MOL0     C10734  11.752   9.210   7.883  0.2778  0.0344 -0.8192
  821MOL0     O10735  11.817   9.332   7.866  0.8042 -0.3670 -0.5525
  821MOL0     C10736  11.723   9.440   7.820 -0.1496  0.3065 -0.3934
  821MOL0     C10737  11.806   9.546   7.751 -0.4050  0.5944  0.1561
  821MOL0     C10738  11.712   9.661   7.718 -0.3730 -0.2599  0.5367
  821MOL0     C10739  11.637   9.727   7.838  0.6042 -0.5852 -0.8793
  821MOL0     C10740  11.562   9.858   7.807 -0.0255 -0.2357 -0.5613
  821MOL0     C10741  11.652   9.988   7.801 -0.5869 -0.2479  1.0337
  821MOL0     C10742  11.590  10.105   7.734 -0.1342  0.1865  0.1556
  821MOL0     C10743  11.441  10.126   7.762 -0.1720 -0.7681 -0.4336
  821MOL0    Cl10744  11.367  10.246   7.640  0.1986 -0.5677 -0.1047
  821MOL0     C10745  11.799   9.097   7.818  0.0566 -0.1101  0.1718
  821MOL0     C10746  11.735   8.972   7.831  0.7940  0.2833 -0.1724
  821MOL0     O10747  11.651   8.763   8.075 -0.4744 -0.5577 -0.2261
  821MOL0     C10748  11.373   8.619   7.908  0.4866 -0.1748 -0.5589
  821MOL0     C10749  11.289   8.507   7.918  0.8326 -0.5789 -0.5350
  821MOL0     N10750  10.764   7.909   7.947 -0.4189  0.5655  0.1110
  821MOL0     N10751  10.657   7.971   7.902 -0.5367 -0.3702  0.2010
  821MOL0     C10752   9.591   7.893   8.420 -0.2125 -0.0284  0.9262
  821MOL0     C10753   9.455   7.882   8.412  0.3543  0.5019  0.5034
  821MOL0     C10754   9.047   7.919   8.222 -1.0300 -0.1057  1.0142
  821MOL0     C10755   8.971   7.805   8.250  0.8285  0.2856  0.1594
  821MOL0     C10756   8.828   7.817   8.268  0.4248  0.0826  0.5613
  821MOL0     C10757   8.758   7.936   8.244  0.5144  0.5790 -0.0332
  821MOL0     O10758   8.623   7.948   8.253  0.9011 -0.1360  0.1584
  821MOL0     C10759   8.543   7.889   8.153  0.5303  0.4540 -0.3099
  821MOL0     C10760   8.552   7.950   8.015 -0.4374 -0.2649  0.1488
  821MOL0     C10761   8.433   7.946   7.916 -0.1245 -0.6671 -0.5012
  821MOL0     C10762   8.288   7.951   7.984  0.6293 -0.0667 -0.2199
  821MOL0     C10763   8.179   8.002   7.893  0.5868  0.0032  0.0537
  821MOL0     C10764   8.094   8.063   7.831 -0.4226 -0.4513  0.5963
  821MOL0     C10765   8.837   8.044   8.205 -1.1316 -0.8642 -0.0524
  821MOL0     C10766   8.977   8.044   8.206  0.1393  1.2306  0.4511
  821MOL0     C10767   9.049   8.182   8.193 -0.4300 -0.7338  0.1691
  821MOL0     H10768   9.435   7.669   8.148  0.2871 -1.3620  1.6417
  821MOL0     H10769   9.672   7.693   8.164  1.1552 -0.2144  1.9107
  821MOL0     H10770   9.880   7.662   8.252 -0.7668  0.6620 -2.2998
  821MOL0     H10771   9.882   7.801   8.150  0.4065 -0.0844  0.3855
  821MOL0     H10772  10.093   7.706   8.243 -1.1913 -0.8714  0.9618
  821MOL0     H10773  10.044   7.744   8.407  0.7116 -2.2336 -1.1292
  821MOL0     H10774  10.095   7.977   8.398  1.1746 -0.4022 -0.0651
  821MOL0     H10775  10.025   7.985   8.236  0.5102 -0.7344 -2.4632
  821MOL0     H10776  10.323   7.890   8.303  0.5283  3.3140  1.2641
  821MOL0     H10777  10.242   7.859   8.156 -2.2140 -0.6091  0.9228
  821MOL0     H10778  10.188   8.125   8.149  1.0188  1.6403 -0.5405
  821MOL0     H10779  10.321   8.128   8.261  0.4204  0.7118 -0.4603
  821MOL0     H10780  10.451   7.975   8.117  2.7823  1.3013 -1.7163
  821MOL0     H10781  10.324   8.008   7.989  0.5263 -1.6875  0.7569
  821MOL0     H10782  10.492   8.235   8.134 -0.6743  2.2156 -0.6415
  821MOL0     H10783  10.365   8.266   8.022 -1.6614 -0.7367 -0.3189
  821MOL0     H10784  10.501   8.162   7.840 -1.0981  2.2469 -0.4420
  821MOL0     H10785  10.585   8.288   7.923  0.7558  0.6766  0.7521
  821MOL0     H10786  10.756   8.163   8.152  1.8573 -2.1501  2.1414
  821MOL0     H10787  10.945   7.909   8.199  0.0039 -1.1232 -0.8272
  821MOL0     H10788  10.992   7.869   8.031 -1.3845  0.8337 -1.8511
  821MOL0     H10789  11.035   8.134   8.168 -0.3679  0.2064 -0.7953
  821MOL0     H10790  11.149   8.010   8.138  0.3620  0.8998 -1.9397
  821MOL0     H10791  10.993   8.121   7.894 -0.1787  1.6307  0.2986
  821MOL0     H10792  11.160   8.055   7.898 -0.5967  0.1005 -0.3446
  821MOL0     H10793  11.053   8.319   8.005 -1.8197 -0.5824 -2.5678
  821MOL0     H10794  11.136   8.297   7.855 -0.7913 -3.5272 -1.2452
  821MOL0     H10795  11.458   8.340   8.170 -1.1836  0.9011  0.9300
  821MOL0     H10796  11.575   8.552   8.179 -1.5288  1.1459  1.7643
  821MOL0     H10797  11.483   9.084   8.045  1.4687 -2.7110  3.3184
  821MOL0     H10798  11.576   9.282   8.005 -0.4305 -0.3511 -0.4722
  821MOL0     H10799  11.645   9.407   7.752  0.6601  1.0970 -1.7554
  821MOL0     H10800  11.677   9.489   7.906 -2.1566 -0.7771 -0.7854
  821MOL0     H10801  11.882   9.591   7.816 -2.4628  1.6035  1.9986
  821MOL0     H10802  11.859   9.506   7.665  0.9611  1.6701  0.4550
  821MOL0     H10803  11.777   9.739   7.678 -0.4719 -0.1533  0.5811
  821MOL0     H10804  11.646   9.620   7.640  1.1241 -0.7031 -0.5387
  821MOL0     H10805  11.712   9.744   7.915  0.0605 -1.1803 -0.2121
  821MOL0     H10806  11.569   9.665   7.896 -1.0254  2.1722  0.3809
  821MOL0     H10807  11.481   9.871   7.879 -0.5269  0.5400 -1.2528
  821MOL0     H10808  11.512   9.836   7.712  1.3175 -2.2958 -0.8783
  821MOL0     H10809  11.671  10.003   7.908 -3.4204 -0.6323  1.6563
  821MOL0     H10810  11.747   9.963   7.752 -0.0803  0.4805  1.6166
  821MOL0     H10811  11.598  10.096   7.625 -2.3030  0.8048 -0.0930
  821MOL0     H10812  11.641  10.199   7.756  0.3577  0.6639 -2.6939
  821MOL0     H10813  11.380  10.036   7.754 -1.0153 -0.0795 -2.2259
  821MOL0     H10814  11.430  10.163   7.865 -2.2252 -0.3485 -0.7624
  821MOL0     H10815  11.889   9.109   7.759  0.8026  1.0121  1.4686
  821MOL0     H10816  11.764   8.892   7.763  0.1472  0.0040 -0.1269
  821MOL0     H10817  11.340   8.697   7.840 -2.1647 -0.5309  0.1812
  821MOL0     H10818  11.199   8.520   7.859 -0.4784  1.4668  1.7232
  821MOL0     H10819   9.627   7.955   8.502 -3.0211  3.6177 -0.2952
  821MOL0     H10820   9.404   7.928   8.496  0.7779  4.1586 -1.0530
  821MOL0     H10821   9.011   7.705   8.264 -0.6592 -0.8338 -2.6480
  821MOL0     H10822   8.777   7.726   8.297  0.3847 -0.6029 -1.4733
  821MOL0     H10823   8.439   7.881   8.187  0.7282  0.2990  0.2571
  821MOL0     H10824   8.568   7.785   8.130 -2.8813 -0.6437  0.3332
  821MOL0     H10825   8.626   7.893   7.959  0.8187 -0.0248  1.4967
  821MOL0     H10826   8.594   8.051   8.021 -1.5775  0.1960  0.7249
  821MOL0     H10827   8.447   7.851   7.864  0.3274 -0.2753 -1.1112
  821MOL0     H10828   8.439   8.020   7.836  1.4363  0.9620  1.0382
  821MOL0     H10829   8.270   7.848   8.016 -0.3692  0.6298  1.5930
  821MOL0     H10830   8.304   8.017   8.070  1.4109  2.7179 -2.3575
  821MOL0     H10831   8.022   8.127   7.783  0.3335 -1.1182 -1.5617
  821MOL0     H10832   8.781   8.130   8.172 -0.7583 -0.3070  0.7468
  821MOL0     H10833   8.978   8.249   8.143  2.0603  3.1426  1.4126
  821MOL0     H10834   9.078   8.221   8.291  0.7437  0.3351 -0.5718
  821MOL0     H10835   9.138   8.191   8.131  0.6519  3.0162  2.0080
  822MOL0     O10836   3.884   5.306   0.116 -0.3964  0.4056  0.3977
  822MOL0     C10837   3.793   5.305   0.195  0.2546  1.0816  0.0723
  822MOL0     O10838   3.723   5.189   0.231 -0.3861 -0.1112  0.0715
  822MOL0     C10839   3.747   5.062   0.178  0.2016 -0.6126  0.2786
  822MOL0     C10840   3.854   4.981   0.210  0.2409 -0.1248 -0.1756
  822MOL0     C10841   3.883   4.853   0.158 -0.1677  0.1027 -0.2115
  822MOL0     C10842   3.786   4.801   0.073 -0.0906  0.5482  0.8311
  822MOL0     O10843   3.817   4.686   0.008 -0.0676  0.7784  0.2157
  822MOL0     C10844   3.708   4.607  -0.046 -0.2829 -0.4357 -0.4275
  822MOL0     C10845   3.728   4.467  -0.098 -0.4205  0.1896 -1.0941
  822MOL0     C10846   3.788   4.479  -0.237 -0.8445 -0.4722  0.1813
  822MOL0     C10847   3.809   4.343  -0.308 -0.6242  0.3863  0.2270
  822MOL0     C10848   3.903   4.359  -0.428  0.1703 -0.2617 -0.0179
  822MOL0     C10849   4.049   4.354  -0.383 -0.1291  0.1154 -0.3697
  822MOL0     C10850   4.159   4.390  -0.496  0.5180  0.2663 -0.2539
  822MOL0     C10851   4.295   4.337  -0.445 -0.6762 -0.4842 -0.4181
  822MOL0     N10852   4.406   4.370  -0.535 -1.2372 -0.1801  0.2584
  822MOL0     C10853   4.504   4.462  -0.506 -0.3052  0.7340  0.0213
  822MOL0     C10854   4.562   4.491  -0.621 -0.5779  0.4091  0.6423
  822MOL0     C10855   4.673   4.585  -0.641 -0.0963  0.2149  0.4916
  822MOL0     C10856   4.808   4.522  -0.630  0.4971 -0.6345  0.1243
  822MOL0     C10857   4.852   4.455  -0.499 -0.3138  0.6925 -0.1709
  822MOL0     C10858   4.997   4.423  -0.500 -0.2635 -0.4234  0.1601
  822MOL0     O10859   5.041   4.394  -0.370 -0.0484 -0.5542 -0.1033
  822MOL0     C10860   5.176   4.405  -0.346  0.0089  0.1356 -0.0309
  822MOL0     C10861   5.279   4.411  -0.428 -0.7064 -0.3865  0.0612
  822MOL0     C10862   5.413   4.391  -0.386  0.6812 -0.0064 -0.1784
  822MOL0     C10863   5.437   4.396  -0.247  0.4689 -0.5559  0.4108
  822MOL0     C10864   5.574   4.392  -0.197 -0.4231  0.1096  1.1187
  822MOL0     O10865   5.586   4.409  -0.062  0.1531  0.0577  0.4264
  822MOL0     C10866   5.697   4.372   0.007 -0.5361  0.5706  0.1023
  822MOL0     C10867   5.781   4.473   0.054 -0.9985  0.9099  0.1754
  822MOL0     C10868   5.895   4.438   0.126 -0.4947 -0.1711 -0.5832
  822MOL0     C10869   5.928   4.311   0.156 -0.6633  0.9831 -0.0497
  822MOL0     O10870   6.030   4.268   0.234  0.0598 -0.8065  0.0513
  822MOL0     C10871   6.034   4.322   0.371  0.5921 -0.0149  0.8871
  822MOL0     C10872   6.177   4.337   0.423  1.7124  0.0860 -0.8393
  822MOL0     C10873   6.238   4.467   0.373  1.1314 -0.7559 -0.3474
  822MOL0     C10874   6.372   4.508   0.443 -0.1589 -0.5069  0.2539
  822MOL0     C10875   6.450   4.623   0.384  0.0170 -0.8594  0.1742
  822MOL0     C10876   6.571   4.661   0.468 -0.1775 -0.2116  0.6612
  822MOL0     C10877   6.607   4.801   0.446  0.3724 -0.1237  0.1216
  822MOL0     C10878   6.512   4.904   0.513  0.6568 -0.9471 -0.1460
  822MOL0    Cl10879   6.588   5.075   0.529  0.3058  0.6904 -0.0077
  822MOL0     C10880   5.842   4.207   0.103  0.1977 -0.0078 -0.3573
  822MOL0     C10881   5.727   4.237   0.049  0.5905  0.0258  0.8834
  822MOL0     O10882   5.662   4.377  -0.282 -0.2196  0.0734 -0.2559
  822MOL0     C10883   5.335   4.386  -0.156 -0.3813 -0.3369 -0.2746
  822MOL0     C10884   5.202   4.387  -0.214  0.2049 -0.6612 -0.3549
  822MOL0     N10885   4.507   4.409  -0.721  0.3802 -0.3199  0.0317
  822MOL0     N10886   4.413   4.339  -0.668  0.1182  0.0748  0.8705
  822MOL0     C10887   3.666   4.872   0.047  0.6500 -0.2243 -0.0995
  822MOL0     C10888   3.655   5.000   0.103 -0.5529 -0.3163  0.1346
  822MOL0     C10889   3.763   5.429   0.270 -0.3489  0.9675 -0.6577
  822MOL0     C10890   3.688   5.420   0.390 -0.1246  0.6853  0.5333
  822MOL0     C10891   3.636   5.530   0.464 -0.0653  0.0771  0.7420
  822MOL0     C10892   3.663   5.661   0.413  0.0362  0.6017 -0.7031
  822MOL0     O10893   3.605   5.785   0.454 -0.3760  0.5671  0.0812
  822MOL0     C10894   3.550   5.787   0.587 -0.9393  0.3608  0.5900
  822MOL0     C10895   3.433   5.892   0.594  0.3104 -0.2339  0.6312
  822MOL0     C10896   3.490   6.045   0.613 -0.6522  0.4417 -0.1946
  822MOL0     C10897   3.476   6.120   0.486 -1.4147  0.5994  0.2549
  822MOL0     C10898   3.557   6.081   0.378  0.4610  0.1406  0.0536
  822MOL0     C10899   3.618   6.053   0.272 -0.4248 -0.0480  0.4784
  822MOL0     C10900   3.748   5.662   0.298  0.1152  0.1685 -0.6274
  822MOL0     C10901   3.795   5.551   0.229 -0.0058 -0.1000 -0.0669
  822MOL0     C10902   3.886   5.575   0.113 -0.9266 -0.2913 -0.4041
  822MOL0     H10903   3.928   5.028   0.275  1.1408 -1.8198  0.0877
  822MOL0     H10904   3.980   4.808   0.177  0.4714  1.6460  0.2953
  822MOL0     H10905   3.640   4.599   0.039  1.8921 -0.5720  1.3922
  822MOL0     H10906   3.645   4.665  -0.114  0.8082  5.0479  2.6633
  822MOL0     H10907   3.631   4.419  -0.086 -0.4759  0.9485  2.5804
  822MOL0     H10908   3.796   4.412  -0.033 -0.2461  0.9564 -0.6193
  822MOL0     H10909   3.883   4.531  -0.222 -0.0597 -1.0808 -2.1848
  822MOL0     H10910   3.722   4.539  -0.301 -3.2160 -3.2569 -0.1875
  822MOL0     H10911   3.855   4.278  -0.232 -0.1852 -2.6496 -2.4514
  822MOL0     H10912   3.710   4.309  -0.339 -0.4438  0.3616 -0.3264
  822MOL0     H10913   3.886   4.278  -0.500 -1.6906 -0.6423  0.7853
  822MOL0     H10914   3.874   4.456  -0.471  0.7006  0.4435  1.1622
  822MOL0     H10915   4.050   4.418  -0.294  0.4300  2.4269 -1.9433
  822MOL0     H10916   4.059   4.247  -0.364 -1.2133  0.4469  2.6247
  822MOL0     H10917   4.167   4.499  -0.498 -0.7627  0.3841 -2.4669
  822MOL0     H10918   4.132   4.344  -0.592 -0.2286 -1.9395  0.9502
  822MOL0     H10919   4.312   4.363  -0.340 -1.7055 -1.2168 -0.0583
  822MOL0     H10920   4.284   4.228  -0.441 -1.7496 -0.3852 -0.1794
  822MOL0     H10921   4.526   4.505  -0.410  0.0035 -1.4326  0.9930
  822MOL0     H10922   4.666   4.630  -0.741 -1.9683  0.1655  0.5718
  822MOL0     H10923   4.659   4.667  -0.569 -0.1943 -0.7838  1.6436
  822MOL0     H10924   4.805   4.445  -0.707  0.3047  1.6389 -2.2723
  822MOL0     H10925   4.886   4.594  -0.659 -0.0516  1.2386  2.8725
  822MOL0     H10926   4.802   4.360  -0.475  1.5102 -0.6224 -1.3720
  822MOL0     H10927   4.826   4.528  -0.421 -2.3209 -1.8648  1.7533
  822MOL0     H10928   5.064   4.493  -0.550 -2.0673  0.9647 -0.4247
  822MOL0     H10929   5.001   4.333  -0.562 -3.7014 -1.5017  1.2365
  822MOL0     H10930   5.263   4.399  -0.535  1.4221 -2.4014 -0.1215
  822MOL0     H10931   5.496   4.391  -0.456  0.4616  3.1950 -0.5670
  822MOL0     H10932   5.764   4.579   0.034  3.5055  1.5059 -1.5800
  822MOL0     H10933   5.959   4.520   0.158 -0.6626 -0.9507  1.9809
  822MOL0     H10934   5.977   4.415   0.378  0.7868  0.2420 -0.5879
  822MOL0     H10935   5.983   4.255   0.441 -0.7607 -1.7481 -1.5833
  822MOL0     H10936   6.183   4.333   0.532 -0.8522 -0.2244 -0.6475
  822MOL0     H10937   6.230   4.249   0.385 -1.9695 -3.8478  2.0016
  822MOL0     H10938   6.239   4.480   0.265  0.2737  1.1408 -0.1624
  822MOL0     H10939   6.172   4.547   0.406  1.2712 -0.5535 -0.5606
  822MOL0     H10940   6.434   4.420   0.428  0.5548  0.2306 -1.4702
  822MOL0     H10941   6.350   4.532   0.547 -1.4684 -0.8100  0.0664
  822MOL0     H10942   6.383   4.710   0.378  0.0744 -0.8848 -1.0240
  822MOL0     H10943   6.481   4.589   0.285 -0.7735 -2.2571  0.3879
  822MOL0     H10944   6.547   4.660   0.575 -3.2706  0.3985  0.0750
  822MOL0     H10945   6.651   4.588   0.449  0.2905  0.3588  0.4076
  822MOL0     H10946   6.596   4.829   0.341  1.8811  1.1684  0.2693
  822MOL0     H10947   6.713   4.819   0.469  0.0430  0.0791  1.5786
  822MOL0     H10948   6.410   4.907   0.473  0.3805 -1.0651  0.5360
  822MOL0     H10949   6.504   4.861   0.613 -2.4113  0.0845  0.1405
  822MOL0     H10950   5.869   4.102   0.108 -3.3161 -1.1452 -2.2765
  822MOL0     H10951   5.651   4.161   0.035 -0.3756  0.5698  2.8116
  822MOL0     H10952   5.356   4.367  -0.051  0.2401 -1.2100 -0.5419
  822MOL0     H10953   5.122   4.379  -0.141  0.4813  0.0120  0.0341
  822MOL0     H10954   3.593   4.831  -0.022  0.7722 -4.0584  1.8027
  822MOL0     H10955   3.569   5.062   0.078  1.3273  2.6458  0.5093
  822MOL0     H10956   3.662   5.321   0.427  1.1135 -0.4149 -1.4075
  822MOL0     H10957   3.559   5.507   0.537 -2.9468 -1.4413 -2.4699
  822MOL0     H10958   3.625   5.806   0.664  0.0439 -0.8550 -0.0258
  822MOL0     H10959   3.496   5.694   0.603 -0.0986 -0.1428  0.5798
  822MOL0     H10960   3.384   5.875   0.690 -1.6634  1.2729 -0.0375
  822MOL0     H10961   3.363   5.890   0.511  1.5155  0.6292 -0.4558
  822MOL0     H10962   3.597   6.047   0.633 -0.6540  0.2132 -0.1595
  822MOL0     H10963   3.433   6.091   0.695  1.5280 -1.0331  2.3026
  822MOL0     H10964   3.369   6.130   0.463 -1.4215  0.8861  0.4005
  822MOL0     H10965   3.499   6.223   0.517  0.7949 -0.4968  2.6270
  822MOL0     H10966   3.657   6.023   0.177 -0.8788 -1.2087  0.6381
  822MOL0     H10967   3.769   5.762   0.260 -1.1496  0.9602  0.6372
  822MOL0     H10968   3.975   5.518   0.139  0.4630  0.7713 -2.5372
  822MOL0     H10969   3.841   5.546   0.018  0.9042  0.8274 -1.6913
  822MOL0     H10970   3.910   5.681   0.101  1.0713 -0.3194  2.4792
  823MOL0     O10971   4.156   0.712   8.819  0.6947  0.2067  0.0532
  823MOL0     C10972   4.055   0.643   8.826 -0.1096  0.2855 -0.0925
  823MOL0     O10973   4.025   0.558   8.928 -0.7182 -0.1848 -0.1142
  823MOL0     C10974   4.118   0.520   9.026 -0.5471 -0.8278  0.2393
  823MOL0     C10975   4.068   0.489   9.152  0.3282  0.3979  0.3083
  823MOL0     C10976   4.157   0.460   9.264  0.8745 -0.2073 -0.6707
  823MOL0     C10977   4.290   0.459   9.237 -0.2956 -0.1631 -0.1509
  823MOL0     O10978   4.367   0.425   9.347 -0.5276  0.0744  0.3988
  823MOL0     C10979   4.495   0.374   9.344 -0.5271  0.5663  0.4849
  823MOL0     C10980   4.556   0.346   9.485 -0.1606  0.0861  0.4231
  823MOL0     C10981   4.677   0.249   9.483 -0.4055 -0.3416 -0.0765
  823MOL0     C10982   4.630   0.127   9.569  0.5271  0.0840  0.0851
  823MOL0     C10983   4.732   0.005   9.573 -0.6207 -0.5814  0.0164
  823MOL0     C10984   4.684  -0.098   9.668  0.3581  0.5973  0.0111
  823MOL0     C10985   4.808  -0.193   9.689  0.3387  0.2441 -0.4398
  823MOL0     C10986   4.754  -0.311   9.772 -0.5663 -0.7925 -0.4843
  823MOL0     N10987   4.858  -0.411   9.770 -1.1843  0.2648  0.7803
  823MOL0     C10988   4.958  -0.432   9.869  0.3165 -0.1035  0.3104
  823MOL0     C10989   5.051  -0.504   9.798  0.1602 -0.5638 -0.4787
  823MOL0     C10990   5.166  -0.546   9.876 -0.7883  0.4647 -0.6084
  823MOL0     C10991   5.147  -0.673   9.954 -0.3982  0.8732  0.4055
  823MOL0     C10992   5.257  -0.703  10.058  0.0230  0.2184  1.3580
  823MOL0     C10993   5.394  -0.747  10.006  0.2884 -0.8181  0.4868
  823MOL0     O10994   5.483  -0.748  10.123 -0.4628  0.2546 -0.2375
  823MOL0     C10995   5.613  -0.806  10.098  0.0211 -0.5536  0.3577
  823MOL0     C10996   5.654  -0.840   9.971  0.3424  0.1953 -0.3890
  823MOL0     C10997   5.774  -0.896   9.951  0.1298 -0.5208  0.9233
  823MOL0     C10998   5.855  -0.928  10.058  0.8356 -0.5272  0.1705
  823MOL0     C10999   5.975  -1.011  10.040 -0.6000  0.1631 -0.4098
  823MOL0     O11000   6.014  -1.036   9.909  0.5431 -0.1632 -0.2097
  823MOL0     C11001   6.133  -1.101   9.886 -1.0899  0.5641 -0.7046
  823MOL0     C11002   6.131  -1.209   9.796  0.4362 -0.2079 -0.0276
  823MOL0     C11003   6.242  -1.270   9.748 -0.8932 -0.4224  1.1897
  823MOL0     C11004   6.368  -1.233   9.801 -0.4590 -0.1940  0.9324
  823MOL0     O11005   6.478  -1.296   9.763 -0.3828 -0.1104  0.0049
  823MOL0     C11006   6.469  -1.390   9.647 -0.4760 -0.0467 -0.4717
  823MOL0     C11007   6.600  -1.415   9.586 -0.8994  1.1420 -0.4024
  823MOL0     C11008   6.675  -1.287   9.545  0.0783 -0.2264 -0.4301
  823MOL0     C11009   6.775  -1.231   9.653 -0.6894 -0.3572 -0.8683
  823MOL0     C11010   6.887  -1.156   9.593  0.2295 -0.3376  0.8358
  823MOL0     C11011   6.951  -1.080   9.700 -0.2325  0.0228  0.8258
  823MOL0     C11012   7.062  -0.999   9.626 -0.4919  0.6244  1.1362
  823MOL0     C11013   7.101  -0.882   9.707  0.7431 -0.4949  0.5661
  823MOL0    Cl11014   7.165  -0.922   9.875  0.1565 -0.4540 -0.6128
  823MOL0     C11015   6.374  -1.119   9.883 -0.3618 -0.3680 -0.1380
  823MOL0     C11016   6.255  -1.054   9.931  0.0025  0.1168  0.9188
  823MOL0     O11017   6.017  -1.062  10.146 -0.1923 -0.3833  0.2376
  823MOL0     C11018   5.807  -0.894  10.185 -0.5940  0.0261 -0.2997
  823MOL0     C11019   5.698  -0.822  10.205  0.2642  0.4739 -0.6038
  823MOL0     N11020   4.993  -0.551   9.677 -0.9506 -0.2058 -0.8955
  823MOL0     N11021   4.878  -0.497   9.663  0.1090 -1.5694  0.6280
  823MOL0     C11022   4.347   0.497   9.108 -0.0748  0.1402 -0.8481
  823MOL0     C11023   4.261   0.521   9.005 -0.4497 -0.4019  0.1380
  823MOL0     C11024   3.958   0.656   8.712 -0.1998  0.0390 -0.4518
  823MOL0     C11025   3.836   0.590   8.736  0.1436  0.5309 -0.8357
  823MOL0     C11026   3.734   0.593   8.646  0.1853 -0.4124  0.8408
  823MOL0     C11027   3.748   0.645   8.517  0.1570 -0.3187  0.3100
  823MOL0     O11028   3.656   0.640   8.407  0.2518 -0.3691  0.2509
  823MOL0     C11029   3.535   0.568   8.420 -0.4238  0.2510 -0.4460
  823MOL0     C11030   3.471   0.537   8.290 -0.1151  0.4513 -0.7496
  823MOL0     C11031   3.452   0.652   8.195  0.6309  0.1138 -0.0537
  823MOL0     C11032   3.363   0.764   8.243 -0.6511 -0.2453  0.0711
  823MOL0     C11033   3.432   0.858   8.337  0.3344 -0.3026  0.5719
  823MOL0     C11034   3.480   0.939   8.417  0.6147  0.9447  0.3480
  823MOL0     C11035   3.859   0.708   8.494 -0.8450  0.3911  0.5634
  823MOL0     C11036   3.966   0.719   8.588 -0.7139 -0.5732  0.2692
  823MOL0     C11037   4.080   0.789   8.547 -0.1935  0.2430  1.2547
  823MOL0     H11038   3.962   0.482   9.173  0.3769 -0.6992  0.2366
  823MOL0     H11039   4.126   0.423   9.361 -4.3322 -0.9140 -2.2847
  823MOL0     H11040   4.497   0.282   9.286  1.6060  0.4685  0.6285
  823MOL0     H11041   4.556   0.446   9.289 -0.6710  1.7884  1.8706
  823MOL0     H11042   4.472   0.308   9.545  1.5297  0.0657  2.9281
  823MOL0     H11043   4.576   0.444   9.528 -1.5154  2.2076 -3.2663
  823MOL0     H11044   4.767   0.299   9.519 -0.3048  2.5347 -3.7530
  823MOL0     H11045   4.696   0.212   9.381 -0.3789  1.1265 -0.6251
  823MOL0     H11046   4.627   0.174   9.668 -0.5597  1.4606 -0.5664
  823MOL0     H11047   4.529   0.109   9.532 -0.0760  5.0718 -1.5003
  823MOL0     H11048   4.739  -0.050   9.478 -1.3582 -1.9281  0.7122
  823MOL0     H11049   4.833   0.043   9.593 -0.1144 -0.0605 -2.9822
  823MOL0     H11050   4.655  -0.049   9.761 -0.3712 -1.1333  0.7368
  823MOL0     H11051   4.593  -0.146   9.633 -1.0122  2.7494  0.4393
  823MOL0     H11052   4.896  -0.147   9.734 -0.3936  2.9057 -1.5204
  823MOL0     H11053   4.848  -0.233   9.595  3.1128 -1.2542  1.2562
  823MOL0     H11054   4.728  -0.276   9.873  2.6074  1.3531 -0.2571
  823MOL0     H11055   4.665  -0.347   9.720 -1.9062 -1.2831  1.9639
  823MOL0     H11056   4.958  -0.396   9.972 -3.1365  0.6426  0.1804
  823MOL0     H11057   5.262  -0.557   9.825  0.0302  1.6044  0.5981
  823MOL0     H11058   5.186  -0.466   9.948  4.2293  1.4012 -2.6431
  823MOL0     H11059   5.051  -0.669  10.007  0.1599 -0.3221  1.5479
  823MOL0     H11060   5.147  -0.754   9.880  0.6191  2.8163 -1.8441
  823MOL0     H11061   5.212  -0.787  10.112 -0.4834 -0.7061 -0.4207
  823MOL0     H11062   5.259  -0.613  10.121 -1.9738  1.4058 -0.1569
  823MOL0     H11063   5.438  -0.681   9.931 -0.6060 -0.3457  0.3641
  823MOL0     H11064   5.394  -0.844   9.954 -0.3715 -0.6395  0.1397
  823MOL0     H11065   5.587  -0.839   9.886 -2.6699  0.9963  1.8550
  823MOL0     H11066   5.815  -0.926   9.855  1.9744  0.1519  1.4568
  823MOL0     H11067   6.037  -1.217   9.741  0.2599  2.8684 -0.3195
  823MOL0     H11068   6.220  -1.341   9.669  0.6024  2.0705 -1.6315
  823MOL0     H11069   6.419  -1.481   9.678 -2.1447  0.8723 -0.3611
  823MOL0     H11070   6.411  -1.349   9.564  1.9540 -0.1028 -2.3110
  823MOL0     H11071   6.662  -1.472   9.656  0.3555  2.9150  0.0108
  823MOL0     H11072   6.590  -1.472   9.493 -2.2056  2.4006 -1.0627
  823MOL0     H11073   6.728  -1.299   9.450  1.6640  3.0313 -0.0774
  823MOL0     H11074   6.598  -1.212   9.530 -0.5931 -0.6604  0.7060
  823MOL0     H11075   6.809  -1.308   9.723 -5.3526  2.0260  4.8333
  823MOL0     H11076   6.718  -1.157   9.710  1.1002  2.1881 -2.1615
  823MOL0     H11077   6.844  -1.089   9.519  0.3112 -0.6701  0.4880
  823MOL0     H11078   6.957  -1.230   9.554 -0.2395 -0.1308 -0.4329
  823MOL0     H11079   6.889  -1.007   9.753 -2.6351 -0.0564 -1.6991
  823MOL0     H11080   6.990  -1.157   9.769  2.9121  0.8578  0.1313
  823MOL0     H11081   7.027  -0.948   9.536  1.8423 -2.3802 -1.7363
  823MOL0     H11082   7.146  -1.063   9.597 -1.7338 -0.9029  0.7620
  823MOL0     H11083   7.177  -0.822   9.656 -0.9689  1.2285 -0.0879
  823MOL0     H11084   7.020  -0.810   9.726 -0.5491 -1.0320 -2.3426
  823MOL0     H11085   6.465  -1.080   9.929  0.7347 -1.8640 -0.9551
  823MOL0     H11086   6.262  -0.976  10.006 -1.3157 -0.2372  1.4353
  823MOL0     H11087   5.859  -0.924  10.276  2.0118  3.5957 -0.3989
  823MOL0     H11088   5.665  -0.793  10.304 -0.5623  0.0895 -0.7645
  823MOL0     H11089   4.455   0.497   9.099 -0.0625  1.9927 -1.0258
  823MOL0     H11090   4.307   0.541   8.909 -1.2378  0.0510 -0.1541
  823MOL0     H11091   3.821   0.545   8.834  0.3138  0.3577 -0.8882
  823MOL0     H11092   3.635   0.560   8.677  0.8755  0.1009  3.9759
  823MOL0     H11093   3.464   0.630   8.475  0.6361 -0.5105  1.9305
  823MOL0     H11094   3.542   0.474   8.474 -0.5051  0.0308 -0.8130
  823MOL0     H11095   3.370   0.500   8.312 -0.1501  0.5554 -0.7313
  823MOL0     H11096   3.515   0.447   8.246 -1.1400 -0.6121  0.3550
  823MOL0     H11097   3.390   0.602   8.120 -2.0746  4.7486 -1.3010
  823MOL0     H11098   3.543   0.697   8.153  2.1937 -0.4720  2.4727
  823MOL0     H11099   3.322   0.820   8.159  0.7418  1.9515  0.7896
  823MOL0     H11100   3.282   0.721   8.303 -0.9047 -1.5207 -1.1404
  823MOL0     H11101   3.503   1.022   8.480  0.1590  1.3412 -0.0000
  823MOL0     H11102   3.875   0.777   8.412  1.3392  1.0717  1.4689
  823MOL0     H11103   4.057   0.840   8.453  1.3957 -1.9147 -0.4028
  823MOL0     H11104   4.122   0.863   8.616  1.5702  1.5144 -1.0315
  823MOL0     H11105   4.157   0.717   8.518  1.2917  0.6588  3.8387
  824MOL0     O11106   2.408   7.214   1.588 -0.1652 -0.5707  0.3237
  824MOL0     C11107   2.399   7.199   1.708  0.1531  0.0726  0.7226
  824MOL0     O11108   2.480   7.253   1.802 -0.1774  0.0077  0.3221
  824MOL0     C11109   2.574   7.336   1.754  0.1869  0.0257 -0.5039
  824MOL0     C11110   2.704   7.284   1.738  0.5220  0.2835  0.4917
  824MOL0     C11111   2.808   7.363   1.673 -0.6486  0.7010 -0.7747
  824MOL0     C11112   2.789   7.495   1.635  0.5748  0.2798  0.2617
  824MOL0     O11113   2.889   7.560   1.573 -0.2528 -0.0256 -0.1177
  824MOL0     C11114   2.883   7.691   1.526  0.6097 -1.0763  1.1732
  824MOL0     C11115   2.985   7.711   1.421  1.2345  0.4133  0.4516
  824MOL0     C11116   2.938   7.814   1.321  0.2112 -0.3232 -0.3539
  824MOL0     C11117   3.041   7.821   1.210  0.2313 -0.2215 -0.5684
  824MOL0     C11118   3.102   7.960   1.186  0.2223 -0.4015 -0.4905
  824MOL0     C11119   3.202   7.945   1.070  0.3678 -0.2711  0.1734
  824MOL0     C11120   3.343   7.906   1.119 -0.5602 -0.2772 -0.0286
  824MOL0     C11121   3.416   7.879   0.985 -0.0364  0.7905  0.1201
  824MOL0     N11122   3.555   7.824   0.999 -0.0418  0.1851  0.5551
  824MOL0     C11123   3.598   7.727   1.087 -0.4495 -0.1691  0.5619
  824MOL0     C11124   3.735   7.717   1.069  0.2641 -0.6351 -0.0829
  824MOL0     C11125   3.822   7.635   1.162  0.4186  0.0914 -0.7118
  824MOL0     C11126   3.901   7.548   1.073 -0.4536 -0.3164  0.3117
  824MOL0     C11127   4.023   7.616   1.012 -0.5365 -0.0993 -0.6234
  824MOL0     C11128   4.093   7.521   0.916 -0.0645  0.5773 -0.3557
  824MOL0     O11129   4.221   7.575   0.921  0.1433  0.0231  0.1552
  824MOL0     C11130   4.309   7.560   0.813 -0.0315  0.8724 -0.4065
  824MOL0     C11131   4.291   7.465   0.715 -0.4324  0.0504 -0.3544
  824MOL0     C11132   4.382   7.449   0.616 -0.7917 -0.0388  0.9739
  824MOL0     C11133   4.499   7.525   0.610 -0.3925 -0.1340  0.2400
  824MOL0     C11134   4.606   7.497   0.511 -0.2597  0.0668 -0.3681
  824MOL0     O11135   4.726   7.563   0.517 -0.9819  0.2709  0.0374
  824MOL0     C11136   4.804   7.561   0.408 -0.0728  0.7325  0.3979
  824MOL0     C11137   4.934   7.493   0.417  0.4967  0.1487  0.7104
  824MOL0     C11138   5.023   7.511   0.309  0.0502 -0.6355 -0.7530
  824MOL0     C11139   4.991   7.591   0.205 -0.2017  1.3940  0.0233
  824MOL0     O11140   5.093   7.591   0.114  0.1113  0.1228 -0.3896
  824MOL0     C11141   5.078   7.667  -0.016 -0.1215 -0.3007  0.1031
  824MOL0     C11142   5.182   7.779  -0.024  0.5546 -1.0847 -0.3862
  824MOL0     C11143   5.161   7.874   0.091 -0.0731  1.5008 -0.0271
  824MOL0     C11144   5.237   8.005   0.072 -0.0228  0.2565 -1.1312
  824MOL0     C11145   5.162   8.123   0.139 -0.6848 -0.3328 -0.1530
  824MOL0     C11146   5.066   8.181   0.034 -0.6673  0.5173 -0.7609
  824MOL0     C11147   4.962   8.269   0.108 -0.4627  0.2890  0.7653
  824MOL0     C11148   4.878   8.336  -0.004 -0.4004 -0.2661  0.3093
  824MOL0    Cl11149   4.788   8.218  -0.102  0.6066 -0.0988 -0.0771
  824MOL0     C11150   4.866   7.654   0.198 -0.4134  1.2484 -0.5160
  824MOL0     C11151   4.763   7.634   0.298  0.4189  0.0547  0.8282
  824MOL0     O11152   4.575   7.409   0.425 -0.1547 -1.2258 -0.3384
  824MOL0     C11153   4.524   7.615   0.714 -0.7145 -0.3109  0.3374
  824MOL0     C11154   4.430   7.629   0.814 -0.4937 -0.6315 -0.8286
  824MOL0     N11155   3.766   7.814   0.970  0.6036  0.6533 -0.4468
  824MOL0     N11156   3.659   7.875   0.934  0.4879  0.7951  0.0859
  824MOL0     C11157   2.659   7.548   1.658 -0.0409 -0.9646 -0.6449
  824MOL0     C11158   2.553   7.476   1.729 -0.2741  0.3225  0.5342
  824MOL0     C11159   2.293   7.110   1.767 -0.0078 -0.3361 -0.3938
  824MOL0     C11160   2.307   7.057   1.897  0.4684  0.7793  0.2763
  824MOL0     C11161   2.207   6.964   1.935 -0.6699 -0.3536  0.8564
  824MOL0     C11162   2.090   6.937   1.870 -0.7000  0.6254  0.0385
  824MOL0     O11163   1.998   6.847   1.914  0.3215 -0.3103 -0.6444
  824MOL0     C11164   1.874   6.917   1.950 -0.5014  0.5556 -0.4221
  824MOL0     C11165   1.796   6.832   2.052 -0.2846  0.7755 -0.0897
  824MOL0     C11166   1.718   6.709   2.004  0.5266  0.1991  0.4333
  824MOL0     C11167   1.805   6.581   2.005  0.6386  0.3736  0.0321
  824MOL0     C11168   1.822   6.527   2.144  0.6364  0.1804  0.3573
  824MOL0     C11169   1.825   6.479   2.255 -0.0615 -0.1035  0.1464
  824MOL0     C11170   2.079   6.991   1.746 -0.2535 -0.0230 -0.8237
  824MOL0     C11171   2.177   7.077   1.690  0.3231  0.1234 -0.9438
  824MOL0     C11172   2.136   7.120   1.558  0.4920  0.0828  0.6080
  824MOL0     H11173   2.729   7.182   1.766 -1.6526 -0.7354 -0.9883
  824MOL0     H11174   2.902   7.309   1.669 -0.1710  1.2800  1.3883
  824MOL0     H11175   2.783   7.725   1.498  1.5163  2.8043  2.0750
  824MOL0     H11176   2.909   7.757   1.609 -1.3299 -1.1396  1.8601
  824MOL0     H11177   3.003   7.612   1.379 -2.6296 -1.0225  1.7449
  824MOL0     H11178   3.072   7.744   1.479 -0.4369  0.0995  3.3746
  824MOL0     H11179   2.923   7.908   1.374  0.0357 -0.2555 -0.5232
  824MOL0     H11180   2.844   7.774   1.283 -0.1654  0.2295 -0.0073
  824MOL0     H11181   3.125   7.751   1.219  1.3252  1.2998  3.0982
  824MOL0     H11182   2.984   7.785   1.125 -2.2877 -1.9716  1.6900
  824MOL0     H11183   3.041   8.044   1.153  0.4380 -0.4334 -0.9736
  824MOL0     H11184   3.146   7.991   1.281  1.3864 -0.0325 -1.1356
  824MOL0     H11185   3.155   7.893   0.986 -0.0114  0.6359 -0.1896
  824MOL0     H11186   3.212   8.047   1.031 -1.6280 -1.1516 -3.0479
  824MOL0     H11187   3.349   7.816   1.181  1.8003 -0.4720 -0.4691
  824MOL0     H11188   3.390   7.987   1.175 -0.4051  0.9431 -1.8552
  824MOL0     H11189   3.365   7.808   0.920 -0.3075  2.1511 -1.2245
  824MOL0     H11190   3.422   7.974   0.930  0.3508  0.5758 -0.2201
  824MOL0     H11191   3.536   7.672   1.158 -3.1884  1.5225 -0.3406
  824MOL0     H11192   3.885   7.708   1.214  0.8689  0.0109 -1.1428
  824MOL0     H11193   3.761   7.582   1.236  0.8689  1.0268  0.3589
  824MOL0     H11194   3.919   7.455   1.127 -3.6506 -0.8591  0.6564
  824MOL0     H11195   3.835   7.517   0.992 -0.1739  1.4976 -0.6613
  824MOL0     H11196   4.077   7.639   1.105  0.2772 -0.5617 -0.9772
  824MOL0     H11197   4.008   7.705   0.950 -0.7217 -1.9718 -3.3987
  824MOL0     H11198   4.046   7.526   0.817  0.8751 -1.6180 -0.9656
  824MOL0     H11199   4.096   7.416   0.946  0.0817  0.8436  0.6081
  824MOL0     H11200   4.198   7.410   0.708  0.5742 -1.6326 -1.2314
  824MOL0     H11201   4.368   7.368   0.545 -3.4539 -2.0116  3.5028
  824MOL0     H11202   4.955   7.442   0.511 -2.0982  2.3113  2.6398
  824MOL0     H11203   5.120   7.461   0.316 -0.6869 -1.8403  1.9045
  824MOL0     H11204   5.104   7.596  -0.095  2.9399  1.5670 -0.6926
  824MOL0     H11205   4.977   7.706  -0.029 -0.6215 -0.6201  2.4183
  824MOL0     H11206   5.278   7.729  -0.019  0.8665 -0.6576 -1.7196
  824MOL0     H11207   5.179   7.825  -0.124  1.5229 -0.0391  0.0467
  824MOL0     H11208   5.052   7.887   0.092 -0.1656  0.9824  2.5023
  824MOL0     H11209   5.192   7.827   0.185  4.7070  0.5182 -1.8258
  824MOL0     H11210   5.250   8.025  -0.034 -0.6012 -1.2518 -1.5106
  824MOL0     H11211   5.335   7.995   0.120  0.2283  0.5724 -1.5746
  824MOL0     H11212   5.235   8.195   0.177 -1.0091 -1.2763  2.4908
  824MOL0     H11213   5.106   8.096   0.229  0.3842  1.4417  1.0980
  824MOL0     H11214   5.118   8.244  -0.038  0.7789 -0.5917 -0.7343
  824MOL0     H11215   5.018   8.102  -0.024 -2.5057  0.3693  0.8228
  824MOL0     H11216   5.009   8.353   0.160 -0.2758  2.3883 -2.5057
  824MOL0     H11217   4.899   8.209   0.174  2.8081 -1.6660  2.3705
  824MOL0     H11218   4.806   8.408   0.035 -1.4886 -1.2415  0.1691
  824MOL0     H11219   4.951   8.390  -0.065 -2.7798 -1.9184 -4.5105
  824MOL0     H11220   4.847   7.726   0.119  2.6483  1.4333 -1.2180
  824MOL0     H11221   4.668   7.686   0.300 -0.2961 -1.2710  1.7483
  824MOL0     H11222   4.616   7.672   0.715 -1.1947  0.5909 -2.0703
  824MOL0     H11223   4.446   7.695   0.899 -2.6840 -0.6528 -0.3291
  824MOL0     H11224   2.629   7.643   1.614 -0.2368 -0.6684  0.1213
  824MOL0     H11225   2.450   7.505   1.749 -0.1246 -0.1523  2.1387
  824MOL0     H11226   2.397   7.076   1.955 -0.0816  1.6732  0.8616
  824MOL0     H11227   2.225   6.912   2.029  0.8820 -2.5729 -0.5638
  824MOL0     H11228   1.810   6.934   1.863 -0.2828 -1.1118 -0.9381
  824MOL0     H11229   1.904   7.002   2.012 -1.1223  1.3572 -1.2033
  824MOL0     H11230   1.739   6.889   2.127  2.7831  2.5261  1.0900
  824MOL0     H11231   1.874   6.797   2.120 -0.2696 -2.0065 -1.4197
  824MOL0     H11232   1.682   6.722   1.901  0.3107  3.6203  0.8331
  824MOL0     H11233   1.632   6.705   2.072  1.4653 -0.6683  1.6013
  824MOL0     H11234   1.751   6.501   1.953  3.7620 -1.8333 -0.0778
  824MOL0     H11235   1.901   6.577   1.952  1.4759  2.5828  1.2459
  824MOL0     H11236   1.841   6.446   2.355  2.7015  2.1599  0.5968
  824MOL0     H11237   1.984   6.966   1.701 -0.6967 -1.4771  0.7979
  824MOL0     H11238   2.029   7.117   1.533  1.1263  1.7427 -2.9360
  824MOL0     H11239   2.164   7.225   1.551  0.6237 -0.0567 -1.3891
  824MOL0     H11240   2.190   7.086   1.470 -2.8465  2.7218 -2.8033
  825MOL0     O11241   3.133   5.427   2.520 -0.1025 -0.2604  0.6308
  825MOL0     C11242   3.194   5.324   2.517 -0.1731  0.6618  0.3590
  825MOL0     O11243   3.326   5.313   2.507 -0.2265 -0.0570 -0.3933
  825MOL0     C11244   3.391   5.425   2.460  0.2501 -0.2558 -0.3874
  825MOL0     C11245   3.368   5.466   2.331 -0.5861 -0.3967 -0.1283
  825MOL0     C11246   3.455   5.557   2.269 -0.0000  0.1149 -0.8738
  825MOL0     C11247   3.579   5.601   2.338 -0.3732 -0.6153  0.7977
  825MOL0     O11248   3.674   5.679   2.277  0.0235  0.6616  0.6304
  825MOL0     C11249   3.639   5.771   2.175  0.0295 -0.1753 -0.0717
  825MOL0     C11250   3.747   5.871   2.180  1.1459 -0.1140 -0.3618
  825MOL0     C11251   3.880   5.810   2.145  0.1793  0.1242 -0.2146
  825MOL0     C11252   3.963   5.905   2.056  0.4378 -0.0414 -0.7295
  825MOL0     C11253   3.905   5.906   1.915  0.3001 -0.6460 -0.2692
  825MOL0     C11254   3.998   5.964   1.809 -0.3620 -0.0234 -0.3941
  825MOL0     C11255   4.012   6.115   1.829 -0.4357  0.2089  0.7049
  825MOL0     C11256   4.079   6.185   1.707  1.4653  0.3050  0.6788
  825MOL0     N11257   4.138   6.317   1.740 -0.6819 -0.3775 -0.0648
  825MOL0     C11258   4.264   6.357   1.712 -0.3158  0.2390  0.5527
  825MOL0     C11259   4.277   6.482   1.760 -0.3286 -0.2478  0.1481
  825MOL0     C11260   4.409   6.549   1.750  0.9956  0.5538 -0.1853
  825MOL0     C11261   4.504   6.529   1.868  0.6363 -0.2084 -0.1366
  825MOL0     C11262   4.653   6.558   1.815 -0.3215 -1.2802  0.6345
  825MOL0     C11263   4.700   6.705   1.817  0.0633 -0.1793  0.8017
  825MOL0     O11264   4.831   6.712   1.742  0.3969 -0.2456 -0.8944
  825MOL0     C11265   4.875   6.845   1.732  0.2061  0.5297 -0.3823
  825MOL0     C11266   5.009   6.848   1.680  0.4439 -0.3565 -0.0278
  825MOL0     C11267   5.074   6.970   1.677 -0.0973 -0.5120 -0.2993
  825MOL0     C11268   5.004   7.089   1.733  0.6851  0.0084 -0.9432
  825MOL0     C11269   5.067   7.218   1.758  0.4276  1.0120 -0.2918
  825MOL0     O11270   5.196   7.210   1.740 -0.7646  0.5815  0.0702
  825MOL0     C11271   5.269   7.326   1.742 -0.3716  0.5908  1.2520
  825MOL0     C11272   5.306   7.378   1.615 -0.3054 -0.5454  0.3337
  825MOL0     C11273   5.339   7.510   1.607 -0.0560 -0.0146  0.6296
  825MOL0     C11274   5.361   7.590   1.720  1.4095  0.6425  0.0373
  825MOL0     O11275   5.391   7.726   1.723  0.1967  0.0976  0.8757
  825MOL0     C11276   5.488   7.770   1.624 -0.7445 -0.3220  0.0170
  825MOL0     C11277   5.502   7.920   1.640  0.2110  0.1418 -0.5767
  825MOL0     C11278   5.594   7.949   1.761 -1.2449  0.1462 -0.0301
  825MOL0     C11279   5.521   7.940   1.901 -0.8405 -0.3909 -0.1905
  825MOL0     C11280   5.629   7.964   2.016  0.3025 -0.1973  0.3968
  825MOL0     C11281   5.569   7.959   2.153 -0.3973  0.1963 -0.6150
  825MOL0     C11282   5.673   7.967   2.269 -0.7629 -0.2516 -0.3513
  825MOL0     C11283   5.708   8.116   2.298  0.1520 -0.0672 -0.0175
  825MOL0    Cl11284   5.790   8.151   2.460 -0.3504 -0.1889  0.2857
  825MOL0     C11285   5.333   7.526   1.842 -0.4208  0.3106 -0.4088
  825MOL0     C11286   5.287   7.397   1.856 -0.0772 -0.3235 -0.4493
  825MOL0     O11287   5.003   7.313   1.798 -0.2636 -0.3796 -0.3962
  825MOL0     C11288   4.869   7.073   1.776  0.4705 -0.6685  0.6558
  825MOL0     C11289   4.796   6.960   1.758 -0.4058 -1.0566  0.3400
  825MOL0     N11290   4.151   6.527   1.806 -0.4143 -0.4143 -0.2018
  825MOL0     N11291   4.070   6.427   1.792  0.0696  0.1396 -1.0586
  825MOL0     C11292   3.598   5.555   2.464  0.1856 -0.1592 -0.0324
  825MOL0     C11293   3.503   5.478   2.527  0.4636  0.3793  0.4020
  825MOL0     C11294   3.114   5.197   2.542 -0.4260  0.0818 -0.7058
  825MOL0     C11295   2.975   5.216   2.584 -0.0344  0.5389 -0.4379
  825MOL0     C11296   2.894   5.103   2.617 -0.0660  1.0371  0.0590
  825MOL0     C11297   2.945   4.972   2.585  0.0603 -0.5665 -1.1433
  825MOL0     O11298   2.873   4.862   2.618 -0.7509  0.1162  0.1172
  825MOL0     C11299   2.822   4.788   2.498  0.0698 -0.3774  0.5510
  825MOL0     C11300   2.669   4.788   2.491 -0.1756  1.0598 -0.1840
  825MOL0     C11301   2.621   4.684   2.587  0.7866  0.4169  0.3113
  825MOL0     C11302   2.633   4.740   2.731 -1.2367 -0.5269  1.3602
  825MOL0     C11303   2.510   4.708   2.806  0.4823  0.5065  0.4111
  825MOL0     C11304   2.402   4.678   2.857  0.7332  0.0478 -0.0262
  825MOL0     C11305   3.076   4.960   2.536 -1.2023  0.2413 -0.6563
  825MOL0     C11306   3.161   5.065   2.504 -0.8247  0.5699 -0.3446
  825MOL0     C11307   3.299   5.038   2.451 -0.5078  0.6689 -0.3263
  825MOL0     H11308   3.290   5.412   2.277  0.8622 -1.1163 -1.5808
  825MOL0     H11309   3.450   5.579   2.163  2.5155 -0.7803 -1.2634
  825MOL0     H11310   3.642   5.722   2.078  2.8235 -0.0916 -0.1273
  825MOL0     H11311   3.542   5.818   2.190 -1.2053 -2.7465  0.5527
  825MOL0     H11312   3.753   5.890   2.287  0.5954 -4.2424  0.5696
  825MOL0     H11313   3.726   5.962   2.122  0.4058 -1.7751 -2.8336
  825MOL0     H11314   3.873   5.711   2.098  1.0449 -1.5821  2.9736
  825MOL0     H11315   3.935   5.775   2.233  0.9744  0.4525 -0.5635
  825MOL0     H11316   3.965   6.008   2.094 -0.8365  0.1713 -1.2130
  825MOL0     H11317   4.070   5.881   2.061  0.5144  0.4509  0.2430
  825MOL0     H11318   3.879   5.804   1.886 -2.0015 -0.8782  2.2509
  825MOL0     H11319   3.812   5.963   1.923  0.7003 -0.1157  0.9049
  825MOL0     H11320   4.100   5.926   1.821 -0.2511  0.6552  1.0632
  825MOL0     H11321   3.952   5.938   1.713  0.2977 -0.4017 -0.6129
  825MOL0     H11322   4.073   6.135   1.917 -1.4705 -4.5486  2.8222
  825MOL0     H11323   3.917   6.162   1.856 -0.8139  0.7213 -1.3646
  825MOL0     H11324   4.162   6.127   1.664 -0.6411 -1.0571 -1.8024
  825MOL0     H11325   4.006   6.180   1.626 -0.7878 -0.4800  2.6286
  825MOL0     H11326   4.332   6.285   1.669 -0.4164  0.9050 -0.7655
  825MOL0     H11327   4.455   6.514   1.657  1.0821 -0.2448  0.1455
  825MOL0     H11328   4.390   6.654   1.729  0.8376  0.8706  1.3943
  825MOL0     H11329   4.477   6.615   1.930 -0.0460 -0.8523  0.4830
  825MOL0     H11330   4.492   6.432   1.918  1.9668 -1.0827 -1.4552
  825MOL0     H11331   4.672   6.507   1.720 -0.2237  0.8467 -0.5401
  825MOL0     H11332   4.717   6.508   1.889  0.4847 -0.7028  0.3377
  825MOL0     H11333   4.715   6.749   1.916  2.3138 -0.2150  0.5394
  825MOL0     H11334   4.624   6.761   1.762 -0.7898 -0.8724  1.2622
  825MOL0     H11335   5.050   6.751   1.655  0.4625  0.1048 -1.9012
  825MOL0     H11336   5.178   6.969   1.645 -0.1543  0.5309 -0.5616
  825MOL0     H11337   5.296   7.316   1.527  0.6322 -0.3653  0.0931
  825MOL0     H11338   5.348   7.547   1.506  0.1557  0.4706  0.8219
  825MOL0     H11339   5.585   7.730   1.656 -0.7330  0.1115  0.5341
  825MOL0     H11340   5.463   7.750   1.519  2.7224 -0.0716 -0.9851
  825MOL0     H11341   5.540   7.968   1.549 -1.1088  0.8037 -0.8070
  825MOL0     H11342   5.405   7.959   1.672 -0.2062 -1.4031  0.1258
  825MOL0     H11343   5.691   7.898   1.763 -1.3376 -0.0147  0.7266
  825MOL0     H11344   5.614   8.056   1.750 -0.6047  0.2035  1.4066
  825MOL0     H11345   5.488   7.839   1.926 -0.3273 -0.1264  1.6835
  825MOL0     H11346   5.437   8.010   1.905 -0.8866 -0.4097 -0.6870
  825MOL0     H11347   5.673   8.064   2.009  2.3020 -0.8955  1.9680
  825MOL0     H11348   5.706   7.887   2.000 -2.1895 -2.9035  0.5258
  825MOL0     H11349   5.492   8.036   2.166 -1.9289 -1.6583  2.3820
  825MOL0     H11350   5.509   7.868   2.167 -1.3749  1.0112  0.7386
  825MOL0     H11351   5.766   7.916   2.241 -1.8346 -0.7100 -3.4190
  825MOL0     H11352   5.632   7.928   2.363 -1.0279  1.3973  0.2523
  825MOL0     H11353   5.780   8.155   2.224  3.9640  0.2652  3.4840
  825MOL0     H11354   5.614   8.172   2.302 -1.1867 -2.2435  3.3715
  825MOL0     H11355   5.332   7.588   1.931 -0.9673  0.8724 -0.7967
  825MOL0     H11356   5.260   7.360   1.954  0.0581  1.2002  0.1884
  825MOL0     H11357   4.817   7.161   1.812  0.6531  0.8588 -2.4676
  825MOL0     H11358   4.689   6.955   1.776 -0.8195  0.7251 -1.2080
  825MOL0     H11359   3.689   5.590   2.513 -0.1551  1.3666 -0.4600
  825MOL0     H11360   3.531   5.436   2.623  0.1451 -3.8314 -1.1028
  825MOL0     H11361   2.923   5.311   2.593 -2.3455 -0.7070  0.1395
  825MOL0     H11362   2.792   5.119   2.650 -0.2019  0.9014 -0.2910
  825MOL0     H11363   2.854   4.683   2.501 -0.7634 -0.7605 -2.0236
  825MOL0     H11364   2.874   4.817   2.406  1.8090 -1.0025  1.2872
  825MOL0     H11365   2.627   4.765   2.393  1.9216 -3.7745 -0.2511
  825MOL0     H11366   2.635   4.889   2.514  0.0863  0.7585  1.6986
  825MOL0     H11367   2.680   4.594   2.568  1.5721  0.9602  0.1131
  825MOL0     H11368   2.515   4.662   2.575  0.5400  1.9179 -0.4255
  825MOL0     H11369   2.721   4.699   2.783  0.4674 -0.4767 -1.3295
  825MOL0     H11370   2.652   4.846   2.717 -0.0736 -1.0428 -1.6900
  825MOL0     H11371   2.308   4.673   2.908  1.0173 -0.8332  0.4389
  825MOL0     H11372   3.099   4.856   2.513 -4.7196 -0.7615 -0.2045
  825MOL0     H11373   3.314   5.096   2.360  1.4955  1.2055  0.2880
  825MOL0     H11374   3.383   5.070   2.514  1.3845 -2.1591 -1.1998
  825MOL0     H11375   3.312   4.931   2.430 -2.6768  0.1069  0.8958
  826MOL0     O11376  10.650   7.568   2.086 -0.4794 -0.0576 -1.0197
  826MOL0     C11377  10.600   7.453   2.077  0.8480 -0.9774  0.9071
  826MOL0     O11378  10.675   7.334   2.087 -0.2759  0.4205  0.2915
  826MOL0     C11379  10.801   7.335   2.141 -0.6835 -0.3812  0.6702
  826MOL0     C11380  10.907   7.336   2.054  0.4645 -0.2137  0.2060
  826MOL0     C11381  11.034   7.342   2.106  0.2054  0.1505 -0.3189
  826MOL0     C11382  11.060   7.354   2.241  0.5802  0.0422  0.7920
  826MOL0     O11383  11.186   7.367   2.296  0.2097  0.2052 -0.2940
  826MOL0     C11384  11.285   7.429   2.208  1.7312  0.5482 -0.2425
  826MOL0     C11385  11.407   7.476   2.282  0.4978  0.6989  0.1347
  826MOL0     C11386  11.481   7.584   2.201 -0.8473 -0.6583  0.8597
  826MOL0     C11387  11.517   7.559   2.053  0.1023  0.5385 -0.5500
  826MOL0     C11388  11.625   7.662   1.983 -0.0265 -0.8145  0.4937
  826MOL0     C11389  11.744   7.700   2.079 -0.0656 -0.6145  0.3223
  826MOL0     C11390  11.850   7.772   2.000  0.0772  0.0677  0.3975
  826MOL0     C11391  11.814   7.911   1.937 -0.5022  0.2854 -1.8271
  826MOL0     N11392  11.933   7.971   1.881 -0.2737  0.7994  0.7859
  826MOL0     C11393  11.986   8.088   1.938 -0.1508 -0.1929  0.0644
  826MOL0     C11394  12.094   8.106   1.856 -0.0452  0.2498  0.9754
  826MOL0     C11395  12.199   8.210   1.882  0.5772 -0.1354 -0.7844
  826MOL0     C11396  12.337   8.148   1.924 -0.2479  0.1697 -0.3869
  826MOL0     C11397  12.392   8.061   1.806  0.1125 -0.5008 -0.3200
  826MOL0     C11398  12.528   8.001   1.832 -0.0329 -0.2627 -1.2770
  826MOL0     O11399  12.558   7.919   1.723  0.2217 -0.6833  0.8227
  826MOL0     C11400  12.637   7.955   1.617 -0.9314  0.1171 -0.0355
  826MOL0     C11401  12.628   7.877   1.496  0.0455  0.5989 -0.1584
  826MOL0     C11402  12.712   7.915   1.387  0.6777 -0.1132 -0.1450
  826MOL0     C11403  12.791   8.027   1.383  0.2174 -0.0048  0.1045
  826MOL0     C11404  12.875   8.061   1.270 -0.9020 -0.9984 -0.2821
  826MOL0     O11405  12.972   8.159   1.289  0.6152  0.8238 -0.0722
  826MOL0     C11406  13.042   8.207   1.178 -0.6500 -0.4290  0.2275
  826MOL0     C11407  13.176   8.185   1.169 -0.0066 -0.5437 -0.2406
  826MOL0     C11408  13.250   8.223   1.058  0.2584 -0.0470 -0.1632
  826MOL0     C11409  13.192   8.294   0.947  0.1988 -0.0526 -0.5766
  826MOL0     O11410  13.270   8.316   0.839 -0.8818 -0.5773 -0.5506
  826MOL0     C11411  13.193   8.380   0.729 -0.6468  0.0814  1.2464
  826MOL0     C11412  13.189   8.536   0.721 -0.7179 -0.6934 -0.1976
  826MOL0     C11413  13.327   8.579   0.696 -0.0718 -0.5858 -0.2715
  826MOL0     C11414  13.345   8.722   0.656  0.1390  0.1674 -0.5217
  826MOL0     C11415  13.292   8.818   0.760 -0.3026  0.0590  0.0281
  826MOL0     C11416  13.341   8.963   0.727 -0.1844  0.9568  0.0504
  826MOL0     C11417  13.260   9.064   0.813  0.1055  0.9497 -0.2147
  826MOL0     C11418  13.304   9.080   0.961 -0.0779  0.1880 -0.0320
  826MOL0    Cl11419  13.471   9.158   0.946 -0.4246  0.1308  0.0022
  826MOL0     C11420  13.047   8.314   0.966 -0.3636 -0.4883 -0.0136
  826MOL0     C11421  12.979   8.275   1.076  0.1270  0.0006 -0.0124
  826MOL0     O11422  12.849   8.020   1.160 -0.2540 -0.1963  0.6452
  826MOL0     C11423  12.816   8.092   1.509 -0.5693  0.1834 -0.5107
  826MOL0     C11424  12.729   8.071   1.617 -0.4342  0.4533 -0.0237
  826MOL0     N11425  12.082   8.024   1.746  0.1502  0.1528  0.2017
  826MOL0     N11426  11.989   7.943   1.762  0.3973  0.6127 -0.3356
  826MOL0     C11427  10.951   7.338   2.327 -0.9834  0.0542 -0.3825
  826MOL0     C11428  10.821   7.331   2.278  0.2112 -0.3681 -0.4127
  826MOL0     C11429  10.460   7.441   2.028 -1.0145 -0.1304 -0.1174
  826MOL0     C11430  10.418   7.326   1.960 -0.4833 -0.7299  0.2716
  826MOL0     C11431  10.285   7.303   1.921 -0.1053  0.6845 -0.7039
  826MOL0     C11432  10.192   7.402   1.937 -0.6630  0.4908  0.1636
  826MOL0     O11433  10.056   7.391   1.894 -0.2182  0.1352  0.4280
  826MOL0     C11434   9.970   7.335   1.989  0.4113 -0.1239 -0.6532
  826MOL0     C11435   9.919   7.204   1.932 -0.6748  0.1438 -0.6440
  826MOL0     C11436   9.822   7.124   2.032 -0.3197 -0.2883  0.4422
  826MOL0     C11437   9.886   7.085   2.161 -0.4536  0.3068 -0.4710
  826MOL0     C11438   9.885   6.937   2.197  0.4220 -0.1263  0.2458
  826MOL0     C11439   9.883   6.822   2.232  0.4011 -0.1113 -0.0070
  826MOL0     C11440  10.223   7.518   2.007 -1.2973  0.2283  0.1998
  826MOL0     C11441  10.353   7.528   2.070 -0.8342 -0.1733 -0.2709
  826MOL0     C11442  10.379   7.648   2.162  0.5075  0.1832  0.5835
  826MOL0     H11443  10.894   7.318   1.948  0.3752 -1.0298  0.3471
  826MOL0     H11444  11.102   7.327   2.023 -2.6654 -1.8159 -2.5382
  826MOL0     H11445  11.300   7.352   2.130 -0.7700 -0.7439  0.4619
  826MOL0     H11446  11.231   7.510   2.158  1.6947  1.1142  0.6995
  826MOL0     H11447  11.480   7.395   2.292  0.2358  0.5337  0.7518
  826MOL0     H11448  11.372   7.510   2.379 -2.8085  1.8147 -1.3100
  826MOL0     H11449  11.579   7.575   2.248  0.0450 -2.7640 -1.2301
  826MOL0     H11450  11.449   7.687   2.222 -2.1812 -0.9607  0.3952
  826MOL0     H11451  11.547   7.454   2.048 -2.4215 -0.5318  2.8192
  826MOL0     H11452  11.421   7.558   1.999  1.6956 -0.2673 -3.6256
  826MOL0     H11453  11.677   7.616   1.898  2.7584  0.0245  1.6253
  826MOL0     H11454  11.582   7.761   1.964  0.5945  0.1087  3.3642
  826MOL0     H11455  11.720   7.760   2.167  0.5286 -0.8554  0.6460
  826MOL0     H11456  11.790   7.616   2.131  0.0958  1.7146  4.3693
  826MOL0     H11457  11.889   7.709   1.920  0.1133 -2.0073  1.9531
  826MOL0     H11458  11.934   7.789   2.069  1.0380  1.3051 -1.0256
  826MOL0     H11459  11.728   7.900   1.871  0.6170  0.7951 -3.4505
  826MOL0     H11460  11.777   7.983   2.010  0.5870 -1.0113  0.1137
  826MOL0     H11461  11.953   8.133   2.032 -2.0853 -1.0071 -0.1888
  826MOL0     H11462  12.205   8.278   1.797  0.1413  0.6574 -0.1967
  826MOL0     H11463  12.152   8.255   1.970 -1.1656 -4.1583  0.5709
  826MOL0     H11464  12.415   8.223   1.939 -0.4725  0.0925  1.4372
  826MOL0     H11465  12.334   8.086   2.014  0.9594 -1.2900 -1.3117
  826MOL0     H11466  12.399   8.126   1.718 -3.0406  0.4995  0.0445
  826MOL0     H11467  12.322   7.986   1.770  0.0403  0.0641 -1.3990
  826MOL0     H11468  12.526   7.943   1.925 -0.2012 -2.3835 -2.5505
  826MOL0     H11469  12.596   8.081   1.863 -1.2679 -0.0929  1.2400
  826MOL0     H11470  12.565   7.789   1.489  2.7250 -1.9471  3.7559
  826MOL0     H11471  12.709   7.855   1.297  0.3607  0.0448 -0.2383
  826MOL0     H11472  13.217   8.142   1.260 -0.7718 -0.4423  0.1602
  826MOL0     H11473  13.354   8.194   1.057  0.6699  1.1545  1.9783
  826MOL0     H11474  13.238   8.335   0.640 -2.2980 -0.1836  0.4979
  826MOL0     H11475  13.091   8.343   0.712  0.7655 -2.3254 -3.8546
  826MOL0     H11476  13.117   8.558   0.641 -1.3930 -2.4658 -0.1233
  826MOL0     H11477  13.151   8.575   0.816  0.1862  0.7527 -0.4102
  826MOL0     H11478  13.384   8.555   0.787 -0.3758 -1.6466 -0.3422
  826MOL0     H11479  13.364   8.525   0.608  3.1768  1.5051 -0.3698
  826MOL0     H11480  13.295   8.736   0.560  1.2232  0.4923 -1.0600
  826MOL0     H11481  13.452   8.742   0.641  0.4682 -0.1710  1.1992
  826MOL0     H11482  13.334   8.800   0.860  1.5425 -2.1066 -1.0539
  826MOL0     H11483  13.184   8.798   0.763 -1.1007  3.2073 -2.2472
  826MOL0     H11484  13.445   8.971   0.757 -1.1466 -0.3022  4.4479
  826MOL0     H11485  13.332   8.987   0.621 -0.1019 -1.4942 -0.5608
  826MOL0     H11486  13.155   9.036   0.803 -0.3494  2.6514 -0.4861
  826MOL0     H11487  13.260   9.161   0.763  0.4572 -0.1500 -2.4781
  826MOL0     H11488  13.238   9.149   1.013  0.2281  0.7341 -0.3511
  826MOL0     H11489  13.311   8.982   1.009  1.4550 -0.6873 -1.8595
  826MOL0     H11490  12.990   8.353   0.882  1.1625  1.8667 -0.0519
  826MOL0     H11491  12.871   8.291   1.082  0.3193  2.6861 -1.7781
  826MOL0     H11492  12.889   8.172   1.511 -1.9861  1.5121  0.1972
  826MOL0     H11493  12.733   8.143   1.698 -1.3488 -0.8719  1.2508
  826MOL0     H11494  10.973   7.346   2.433 -1.4590 -1.3705 -0.1589
  826MOL0     H11495  10.740   7.326   2.351  1.4534 -1.2131  0.9717
  826MOL0     H11496  10.492   7.248   1.948  0.6031 -0.0175  1.9907
  826MOL0     H11497  10.242   7.212   1.881 -0.3233 -2.0630  4.8392
  826MOL0     H11498   9.877   7.391   1.998  0.4424 -0.4175  3.8156
  826MOL0     H11499  10.009   7.318   2.090 -0.3352  3.6759  0.4165
  826MOL0     H11500  10.000   7.134   1.908 -2.9675 -2.9857  0.0313
  826MOL0     H11501   9.872   7.219   1.835  0.5056  0.7825 -1.1433
  826MOL0     H11502   9.790   7.031   1.985  0.7960  0.0952 -1.1364
  826MOL0     H11503   9.737   7.190   2.054  0.6075  1.6779 -1.4658
  826MOL0     H11504   9.989   7.121   2.157 -1.0342  1.9469 -2.8990
  826MOL0     H11505   9.840   7.123   2.253  1.0874 -2.7860  1.7711
  826MOL0     H11506   9.893   6.717   2.252  1.2577  0.0448  0.4334
  826MOL0     H11507  10.154   7.600   2.027 -1.2700  0.3325 -0.1380
  826MOL0     H11508  10.451   7.716   2.116  0.1367  0.7939  0.8947
  826MOL0     H11509  10.287   7.704   2.182  0.0568 -0.7966  1.3373
  826MOL0     H11510  10.422   7.611   2.256 -0.2253 -2.9324 -0.1853
  827MOL0     O11511   9.057   8.509   8.715 -0.6620  0.2717  0.5032
  827MOL0     C11512   9.018   8.434   8.799  0.0597  0.1307 -0.7156
  827MOL0     O11513   9.081   8.316   8.845  0.0620  0.1513 -0.5914
  827MOL0     C11514   9.200   8.286   8.789  0.5943 -0.3429  0.3658
  827MOL0     C11515   9.316   8.302   8.862 -0.5613  0.5738  0.5745
  827MOL0     C11516   9.441   8.288   8.805 -0.3248  0.2783 -0.4176
  827MOL0     C11517   9.457   8.231   8.683  0.6028  1.0685  0.3058
  827MOL0     O11518   9.581   8.202   8.630 -0.4590 -0.2078 -0.3068
  827MOL0     C11519   9.702   8.262   8.692  0.6417  0.8436  0.2944
  827MOL0     C11520   9.693   8.409   8.655 -0.5953  0.0385 -0.1938
  827MOL0     C11521   9.830   8.481   8.650  0.3789  0.3886  0.5840
  827MOL0     C11522   9.817   8.630   8.677 -0.0896 -0.3677 -0.0283
  827MOL0     C11523   9.958   8.689   8.695 -0.0825  0.3353  0.2633
  827MOL0     C11524  10.057   8.639   8.587 -0.5381 -0.7597 -0.0316
  827MOL0     C11525  10.192   8.722   8.591 -0.0190  0.1303  0.8271
  827MOL0     C11526  10.273   8.713   8.466 -1.2032  0.0761 -0.2892
  827MOL0     N11527  10.403   8.783   8.483  0.9808  0.0001  0.8373
  827MOL0     C11528  10.474   8.836   8.373  0.3890  0.1717  1.3861
  827MOL0     C11529  10.587   8.892   8.425 -0.6730  0.2331 -0.7548
  827MOL0     C11530  10.700   8.964   8.359 -0.4009  0.2327 -0.3341
  827MOL0     C11531  10.734   8.926   8.208 -0.3458 -0.3383 -0.3074
  827MOL0     C11532  10.852   9.015   8.149 -0.4565  0.3529  0.6005
  827MOL0     C11533  10.936   8.939   8.035  0.9340  0.4364 -0.9167
  827MOL0     O11534  10.998   8.824   8.089 -0.4973  0.7840 -0.0549
  827MOL0     C11535  11.123   8.834   8.151 -0.2761  0.0618  0.4077
  827MOL0     C11536  11.203   8.947   8.170  0.4823 -0.1877 -0.2939
  827MOL0     C11537  11.321   8.948   8.238 -0.0662  0.0334  0.1161
  827MOL0     C11538  11.359   8.831   8.310 -0.0980 -0.1318 -0.4164
  827MOL0     C11539  11.472   8.830   8.399 -0.0693  0.1987 -1.3621
  827MOL0     O11540  11.527   8.709   8.422 -0.0218  0.1535  0.2985
  827MOL0     C11541  11.643   8.698   8.482  0.1808 -0.2829 -0.1942
  827MOL0     C11542  11.651   8.652   8.613  0.7938  0.6628  0.6020
  827MOL0     C11543  11.782   8.632   8.673  0.1533  0.2352 -0.0844
  827MOL0     C11544  11.897   8.654   8.587  0.4718  0.3473  0.0158
  827MOL0     O11545  12.023   8.634   8.637  0.2455 -0.0428  0.0464
  827MOL0     C11546  12.124   8.741   8.609  0.2180 -0.0576  0.2821
  827MOL0     C11547  12.244   8.734   8.704  0.1680  0.2394  0.4930
  827MOL0     C11548  12.196   8.737   8.854 -0.5304  0.1441 -0.2462
  827MOL0     C11549  12.324   8.730   8.936  0.6593  0.0133 -0.9849
  827MOL0     C11550  12.294   8.779   9.084  1.1987 -0.4745  0.2393
  827MOL0     C11551  12.424   8.753   9.162 -0.4510 -0.1365  0.1301
  827MOL0     C11552  12.432   8.842   9.285  0.3890  0.5318 -0.0775
  827MOL0     C11553  12.547   8.801   9.377  0.2754 -0.1797  0.6386
  827MOL0    Cl11554  12.564   8.919   9.512 -0.1629  0.1587 -0.0810
  827MOL0     C11555  11.881   8.701   8.456 -1.0202  0.0300 -0.5175
  827MOL0     C11556  11.758   8.714   8.408  0.2495  0.8590  0.2252
  827MOL0     O11557  11.522   8.939   8.428  1.0702  0.6420 -0.5117
  827MOL0     C11558  11.284   8.717   8.295  0.9977  0.0585  0.0809
  827MOL0     C11559  11.163   8.717   8.226  0.6030  0.4904  0.0226
  827MOL0     N11560  10.581   8.869   8.567  0.5233 -0.2053  0.0714
  827MOL0     N11561  10.477   8.799   8.596 -0.1890  0.9104  0.2232
  827MOL0     C11562   9.337   8.204   8.604 -0.1216 -0.7723  0.7744
  827MOL0     C11563   9.213   8.247   8.657  0.6458 -0.9119  0.5466
  827MOL0     C11564   8.888   8.452   8.862  0.3437  0.0193 -0.2445
  827MOL0     C11565   8.816   8.337   8.905 -0.1604  0.4019 -0.5523
  827MOL0     C11566   8.696   8.356   8.978  0.1171  0.2532  0.3478
  827MOL0     C11567   8.629   8.479   8.986 -0.3231 -0.0562 -0.3309
  827MOL0     O11568   8.507   8.476   9.052 -0.5128 -0.6809 -0.8515
  827MOL0     C11569   8.423   8.592   9.010 -0.4959 -0.2340 -0.3570
  827MOL0     C11570   8.304   8.595   9.113  0.1191 -0.2505 -0.2884
  827MOL0     C11571   8.332   8.565   9.255 -0.1336 -0.4466 -0.2611
  827MOL0     C11572   8.441   8.643   9.332  0.4691 -0.3482 -0.5753
  827MOL0     C11573   8.406   8.784   9.377  0.1953  0.5977 -0.3029
  827MOL0     C11574   8.392   8.902   9.410  0.1918  0.1977 -0.0204
  827MOL0     C11575   8.703   8.595   8.951 -0.6894  0.3926  0.0527
  827MOL0     C11576   8.829   8.580   8.892  0.3143 -1.1263 -0.0930
  827MOL0     C11577   8.898   8.719   8.865  0.0660 -0.5203  0.0826
  827MOL0     H11578   9.322   8.320   8.969  2.3190  0.7528  0.4451
  827MOL0     H11579   9.521   8.298   8.877  0.1371  1.3254 -1.0681
  827MOL0     H11580   9.706   8.236   8.798 -0.0452  1.3863  0.4665
  827MOL0     H11581   9.789   8.207   8.655  0.1341 -0.7011  1.3153
  827MOL0     H11582   9.630   8.461   8.727 -0.4662  0.9588 -0.7296
  827MOL0     H11583   9.642   8.422   8.558 -0.3949 -1.3352 -0.5072
  827MOL0     H11584   9.863   8.456   8.549 -2.9798  0.8634 -0.7733
  827MOL0     H11585   9.884   8.430   8.730 -0.8614 -0.1362  1.1203
  827MOL0     H11586   9.767   8.683   8.595  3.5122 -1.3698 -3.1518
  827MOL0     H11587   9.755   8.649   8.766 -0.6751  3.2685 -1.0543
  827MOL0     H11588   9.957   8.798   8.684  0.6298  0.2496 -0.7573
  827MOL0     H11589   9.996   8.679   8.797 -2.8080  1.6105  1.5042
  827MOL0     H11590  10.097   8.538   8.593  0.3426 -0.3988  0.2382
  827MOL0     H11591  10.013   8.667   8.491  0.7594  0.2174 -0.3736
  827MOL0     H11592  10.248   8.699   8.682  2.1715 -2.7216 -1.0328
  827MOL0     H11593  10.170   8.828   8.602 -2.0830  0.1061 -1.9599
  827MOL0     H11594  10.294   8.607   8.448  0.5730  0.4014 -0.3385
  827MOL0     H11595  10.213   8.747   8.382  0.4609  0.5965 -1.3254
  827MOL0     H11596  10.427   8.851   8.276  0.3404 -0.4428  1.3104
  827MOL0     H11597  10.670   9.070   8.354 -1.1425 -0.0222 -3.3892
  827MOL0     H11598  10.792   8.952   8.417  0.8544  1.3766 -1.9687
  827MOL0     H11599  10.755   8.819   8.203  1.6385  0.0593 -1.4658
  827MOL0     H11600  10.641   8.941   8.153  0.4949 -1.6080 -2.1785
  827MOL0     H11601  10.917   9.035   8.235 -3.8937 -0.8361  3.7778
  827MOL0     H11602  10.818   9.112   8.114 -1.2646  0.5005  1.7338
  827MOL0     H11603  11.022   8.995   7.999  0.8477  2.4644  1.7656
  827MOL0     H11604  10.873   8.917   7.948 -2.3822  1.4352  1.0209
  827MOL0     H11605  11.169   9.040   8.127  1.2674  0.6810  0.9155
  827MOL0     H11606  11.392   9.030   8.247  2.6377 -2.1553  0.0397
  827MOL0     H11607  11.558   8.635   8.667  2.4933 -1.4216  3.1343
  827MOL0     H11608  11.797   8.614   8.779 -2.3761 -0.1168  0.2605
  827MOL0     H11609  12.156   8.729   8.505  0.6062  0.8873  0.2911
  827MOL0     H11610  12.077   8.837   8.630  0.2298 -0.0336  0.2010
  827MOL0     H11611  12.295   8.641   8.676 -2.0566 -0.5845 -1.0711
  827MOL0     H11612  12.321   8.810   8.686 -1.7732  2.8103  2.2173
  827MOL0     H11613  12.142   8.830   8.875 -1.1071 -0.3938  0.6806
  827MOL0     H11614  12.133   8.653   8.883 -1.1641  0.9351  0.7576
  827MOL0     H11615  12.406   8.798   8.909  0.6073  0.1562 -0.7834
  827MOL0     H11616  12.368   8.630   8.928  2.8451  0.7214  0.9714
  827MOL0     H11617  12.206   8.731   9.129  0.1447  0.5877 -0.6176
  827MOL0     H11618  12.274   8.886   9.067 -0.5610 -1.2120 -3.4259
  827MOL0     H11619  12.425   8.645   9.175 -0.6062 -0.2270 -0.5561
  827MOL0     H11620  12.514   8.777   9.104 -0.2438 -2.8563 -0.7810
  827MOL0     H11621  12.335   8.834   9.336  0.3926 -1.3420 -0.2907
  827MOL0     H11622  12.444   8.947   9.257  3.1394  0.3339  0.0878
  827MOL0     H11623  12.541   8.697   9.411 -0.2751 -0.6714 -0.8709
  827MOL0     H11624  12.637   8.803   9.314 -0.5714 -1.0359 -0.6600
  827MOL0     H11625  11.964   8.718   8.388 -1.2928 -1.1217 -1.1549
  827MOL0     H11626  11.753   8.742   8.303 -2.8970 -1.5777 -0.4232
  827MOL0     H11627  11.317   8.619   8.330  2.1192 -0.1326 -1.4485
  827MOL0     H11628  11.109   8.624   8.209  0.5289 -0.7575  5.3110
  827MOL0     H11629   9.351   8.162   8.505  0.9937 -0.9995  1.0145
  827MOL0     H11630   9.121   8.252   8.599  1.0074  0.5039  0.0540
  827MOL0     H11631   8.852   8.234   8.905 -1.6036 -0.1653  1.4410
  827MOL0     H11632   8.647   8.275   9.030  0.4505  0.9805  1.8423
  827MOL0     H11633   8.394   8.586   8.905  1.8911  0.7520 -1.1276
  827MOL0     H11634   8.475   8.686   9.027 -0.8342 -0.1925  0.5548
  827MOL0     H11635   8.236   8.519   9.074  1.0810 -1.6947  0.7275
  827MOL0     H11636   8.248   8.689   9.115 -2.2406 -1.6063  1.5430
  827MOL0     H11637   8.337   8.457   9.264 -0.7468 -0.4056  0.6737
  827MOL0     H11638   8.242   8.595   9.309  0.5531  3.0663 -0.7712
  827MOL0     H11639   8.469   8.597   9.427 -2.4433  1.6123  1.3947
  827MOL0     H11640   8.529   8.647   9.267 -0.8769  1.1584 -2.4288
  827MOL0     H11641   8.375   8.999   9.452  1.5842  0.4749 -0.0438
  827MOL0     H11642   8.678   8.698   8.974 -0.4996  0.1263  1.5397
  827MOL0     H11643   8.884   8.777   8.956  2.7779  0.2344  0.1178
  827MOL0     H11644   9.005   8.696   8.862  0.8906  1.7506  4.3323
  827MOL0     H11645   8.862   8.783   8.784  0.4897  1.2566  1.2470
  828MOL0     O11646   9.015   8.720  10.635  0.3608 -0.1831  0.2968
  828MOL0     C11647   8.987   8.612  10.579 -0.2654  0.7578 -0.6025
  828MOL0     O11648   9.036   8.565  10.460 -0.5420 -0.3480 -0.0994
  828MOL0     C11649   9.132   8.637  10.400 -0.2300  0.6136  0.7610
  828MOL0     C11650   9.241   8.689  10.464 -0.3597  0.2544 -0.2073
  828MOL0     C11651   9.339   8.751  10.387 -0.1013  0.1284  0.8768
  828MOL0     C11652   9.334   8.767  10.248  0.0124 -0.4826  0.1836
  828MOL0     O11653   9.437   8.837  10.183  0.4600 -0.6751 -0.5058
  828MOL0     C11654   9.435   8.831  10.047  0.3738 -0.2523 -0.4998
  828MOL0     C11655   9.547   8.919   9.992  0.5315 -0.9720  0.3315
  828MOL0     C11656   9.682   8.898  10.043  0.4476  0.2481  0.6014
  828MOL0     C11657   9.743   8.762  10.003  0.7815 -0.1012 -0.6495
  828MOL0     C11658   9.886   8.745  10.030 -0.1136 -0.2189  0.1611
  828MOL0     C11659   9.922   8.608   9.980 -1.1032  0.1381  0.3976
  828MOL0     C11660  10.071   8.567  10.006  0.0996 -0.6514 -0.3075
  828MOL0     C11661  10.161   8.652   9.918  0.3733  0.2956 -0.7148
  828MOL0     N11662  10.303   8.622   9.945  0.1802  0.1373  0.1605
  828MOL0     C11663  10.381   8.536   9.871 -0.6404 -0.9178  0.0132
  828MOL0     C11664  10.510   8.552   9.911 -0.2993 -0.9494 -0.2644
  828MOL0     C11665  10.628   8.479   9.854  0.4970  0.0624  0.0244
  828MOL0     C11666  10.687   8.564   9.734  0.2204  0.1917  0.1073
  828MOL0     C11667  10.780   8.679   9.762  0.2068 -1.0613 -0.5594
  828MOL0     C11668  10.884   8.643   9.862  0.0655  0.6635 -0.7295
  828MOL0     O11669  10.992   8.732   9.849 -0.5358  0.3936 -0.2119
  828MOL0     C11670  11.122   8.722   9.910  0.7427  0.0394  0.5490
  828MOL0     C11671  11.210   8.815   9.873  0.6516  0.4026  0.0918
  828MOL0     C11672  11.334   8.828   9.935 -0.7386  0.5641  0.1211
  828MOL0     C11673  11.365   8.741  10.036  0.5609  0.5411 -1.4322
  828MOL0     C11674  11.494   8.746  10.119  0.5019  0.2345 -0.6760
  828MOL0     O11675  11.567   8.852  10.083 -0.4637 -0.4437  0.5573
  828MOL0     C11676  11.696   8.874  10.126 -0.4794 -0.6049  0.6243
  828MOL0     C11677  11.746   8.868  10.255  0.3633  0.8031 -0.3157
  828MOL0     C11678  11.873   8.929  10.291 -0.8160 -0.2660 -0.2225
  828MOL0     C11679  11.959   8.984  10.194 -0.9886  0.0615 -0.8985
  828MOL0     O11680  12.099   9.010  10.207  0.0976 -0.6666 -0.7822
  828MOL0     C11681  12.165   8.964  10.323 -0.5180  0.4297  0.1003
  828MOL0     C11682  12.319   8.963  10.285  0.0854 -0.4744 -0.9799
  828MOL0     C11683  12.395   8.971  10.422  0.1750 -0.2998 -0.0783
  828MOL0     C11684  12.426   9.121  10.461 -0.0396  0.8307 -0.0995
  828MOL0     C11685  12.419   9.127  10.610  0.5431 -0.5367  0.7358
  828MOL0     C11686  12.462   9.274  10.657 -0.4322 -1.2595  0.0235
  828MOL0     C11687  12.602   9.273  10.717  0.5275  0.3454 -0.1328
  828MOL0     C11688  12.636   9.413  10.752 -0.6462 -0.3416 -0.7854
  828MOL0    Cl11689  12.793   9.417  10.852 -0.2330 -0.1155  0.6392
  828MOL0     C11690  11.904   8.988  10.058 -0.4032  0.2148  0.5125
  828MOL0     C11691  11.777   8.933  10.024 -0.2646  0.5191 -0.4524
  828MOL0     O11692  11.515   8.672  10.218 -0.1810  0.1637 -0.1202
  828MOL0     C11693  11.285   8.627  10.054  0.2640 -0.1441  0.1869
  828MOL0     C11694  11.158   8.614   9.989 -0.3380 -0.4102  0.9449
  828MOL0     N11695  10.511   8.652  10.008 -0.5039 -0.2269 -0.4747
  828MOL0     N11696  10.392   8.679  10.032 -0.1128  0.5076 -0.8024
  828MOL0     C11697   9.225   8.705  10.188 -0.6393 -0.3285 -0.1162
  828MOL0     C11698   9.123   8.649  10.260 -0.6081  0.0697  0.7221
  828MOL0     C11699   8.889   8.525  10.648 -0.2279  0.3711  0.2181
  828MOL0     C11700   8.883   8.391  10.613 -0.2959 -0.0612  0.6718
  828MOL0     C11701   8.803   8.307  10.687 -0.4928  0.0465  0.4029
  828MOL0     C11702   8.702   8.349  10.767  0.7241 -0.1631 -1.0520
  828MOL0     O11703   8.613   8.262  10.818  0.0457  0.4153 -0.2505
  828MOL0     C11704   8.479   8.259  10.764 -0.9777 -0.5609  0.4259
  828MOL0     C11705   8.417   8.125  10.788  0.7117 -0.3164  0.6893
  828MOL0     C11706   8.374   8.101  10.930 -0.2057  0.0676  0.0891
  828MOL0     C11707   8.266   7.977  10.925  0.4984 -0.5233 -0.5205
  828MOL0     C11708   8.148   8.010  10.852  0.3217 -1.1827  0.1174
  828MOL0     C11709   8.050   8.024  10.785  0.3487  0.5361 -0.3904
  828MOL0     C11710   8.692   8.483  10.795  0.2497 -0.5852  0.8666
  828MOL0     C11711   8.784   8.571  10.733  0.1096  0.8830  0.2705
  828MOL0     C11712   8.765   8.716  10.759 -0.5999 -1.1472 -0.7437
  828MOL0     H11713   9.250   8.677  10.571  2.3908  0.1625 -0.3749
  828MOL0     H11714   9.420   8.801  10.439  2.1470 -2.3979  0.0195
  828MOL0     H11715   9.441   8.731  10.003 -1.9392  0.8180 -3.6860
  828MOL0     H11716   9.345   8.878  10.006 -0.1568  1.9401  2.8335
  828MOL0     H11717   9.521   9.022  10.016  1.6886  0.3035 -3.2890
  828MOL0     H11718   9.546   8.923   9.883  1.4952  2.0209  0.3415
  828MOL0     H11719   9.679   8.911  10.152 -0.8039  1.2107  0.4706
  828MOL0     H11720   9.738   8.986  10.010  0.8690 -0.8636 -1.8898
  828MOL0     H11721   9.700   8.689  10.072  5.0834 -0.5366  2.0131
  828MOL0     H11722   9.722   8.745   9.897  0.9935 -3.8165 -0.2336
  828MOL0     H11723   9.941   8.814   9.966  0.7505 -1.3725 -0.3720
  828MOL0     H11724   9.910   8.766  10.135 -1.7064  1.1115  0.3070
  828MOL0     H11725   9.854   8.538  10.029 -3.0675  0.2160 -2.0671
  828MOL0     H11726   9.906   8.597   9.872 -1.5742  0.5686  0.4210
  828MOL0     H11727  10.087   8.461   9.985 -0.2791 -0.7801  0.0350
  828MOL0     H11728  10.101   8.589  10.109 -1.9674 -2.8986  0.8936
  828MOL0     H11729  10.133   8.646   9.812 -2.8687  0.3329  0.0414
  828MOL0     H11730  10.153   8.755   9.954  3.1719  0.2334  0.3851
  828MOL0     H11731  10.359   8.465   9.792 -0.8311 -0.6820 -0.1437
  828MOL0     H11732  10.698   8.471   9.938  1.9618  0.8358 -1.0791
  828MOL0     H11733  10.594   8.383   9.815  0.3072 -0.4774  1.4256
  828MOL0     H11734  10.733   8.489   9.669  0.3216  0.8526 -0.5949
  828MOL0     H11735  10.612   8.611   9.670  1.8895 -1.8701 -3.6732
  828MOL0     H11736  10.725   8.768   9.795 -0.0611 -1.5527  0.3313
  828MOL0     H11737  10.821   8.720   9.669  0.7661  1.8956  0.8746
  828MOL0     H11738  10.915   8.540   9.846  0.6391  1.0871 -2.6578
  828MOL0     H11739  10.851   8.649   9.966  2.3593  0.8079  0.0415
  828MOL0     H11740  11.172   8.891   9.806 -0.4810  1.6916  2.1028
  828MOL0     H11741  11.403   8.903   9.898  0.6536 -1.1925 -1.0209
  828MOL0     H11742  11.692   8.825  10.339 -0.1373  1.4505 -0.2991
  828MOL0     H11743  11.900   8.935  10.396 -0.9083  1.5951 -0.2768
  828MOL0     H11744  12.154   9.035  10.405 -2.1305  2.9794 -2.1509
  828MOL0     H11745  12.135   8.861  10.345  1.3806 -0.9477 -3.0058
  828MOL0     H11746  12.342   8.870  10.233 -0.9951 -0.8023 -0.8874
  828MOL0     H11747  12.344   9.045  10.217 -2.9282  0.8202 -0.6482
  828MOL0     H11748  12.338   8.918  10.498 -0.1478  0.6194  0.3411
  828MOL0     H11749  12.491   8.919  10.418  0.7835  0.6557  1.2694
  828MOL0     H11750  12.351   9.185  10.414 -3.7491 -1.5098  2.0495
  828MOL0     H11751  12.526   9.145  10.426 -0.3172  0.6053 -1.0793
  828MOL0     H11752  12.485   9.052  10.653 -0.7324 -1.7561  0.6215
  828MOL0     H11753  12.314   9.104  10.631  0.8760 -3.1351 -0.0996
  828MOL0     H11754  12.454   9.349  10.578  2.3140 -1.0833 -0.2097
  828MOL0     H11755  12.396   9.309  10.736  0.7175  2.4706 -0.4950
  828MOL0     H11756  12.670   9.219  10.651 -0.2798  1.4753 -1.9535
  828MOL0     H11757  12.585   9.208  10.804 -0.7315  2.4047  1.2676
  828MOL0     H11758  12.645   9.482  10.668  1.7068 -2.8247 -2.7871
  828MOL0     H11759  12.558   9.453  10.817 -0.1062  0.6539 -0.7267
  828MOL0     H11760  11.967   9.018   9.974 -2.8161 -1.7826 -2.1918
  828MOL0     H11761  11.734   8.936   9.924 -0.5883  4.4760 -0.3657
  828MOL0     H11762  11.315   8.544  10.116 -0.1895  1.3797  2.5742
  828MOL0     H11763  11.096   8.526   9.996  1.7698 -2.1409 -0.9630
  828MOL0     H11764   9.196   8.718  10.084  0.3588  3.7624 -0.0502
  828MOL0     H11765   9.037   8.606  10.210 -0.1929 -1.1041  0.9992
  828MOL0     H11766   8.952   8.353  10.538  0.8970  0.4171  1.4950
  828MOL0     H11767   8.806   8.203  10.657  0.7410  0.1221  0.1915
  828MOL0     H11768   8.478   8.287  10.659 -0.2390  0.7624  0.7568
  828MOL0     H11769   8.415   8.338  10.805 -0.4851 -0.1485  0.3969
  828MOL0     H11770   8.480   8.043  10.754  2.2151  0.3637  1.7659
  828MOL0     H11771   8.322   8.121  10.734 -0.5160 -2.9056  2.8051
  828MOL0     H11772   8.322   8.191  10.964 -1.2278 -0.7697  0.8050
  828MOL0     H11773   8.460   8.072  10.991 -1.6630  0.5777  2.5415
  828MOL0     H11774   8.321   7.895  10.879  1.5362 -0.1161 -0.0274
  828MOL0     H11775   8.228   7.958  11.026  0.5626  2.4339  0.1458
  828MOL0     H11776   7.957   8.025  10.730 -0.0352 -0.6152  0.1987
  828MOL0     H11777   8.609   8.524  10.851 -2.6490  0.1806 -3.5367
  828MOL0     H11778   8.772   8.780  10.670 -4.1618 -2.5448 -2.2315
  828MOL0     H11779   8.666   8.726  10.804  0.2864 -0.0857  1.0570
  828MOL0     H11780   8.843   8.753  10.825 -1.9037 -1.1287  0.8473
  829MOL0     O11781   6.815   5.628   0.160  0.5483  0.2178 -0.7121
  829MOL0     C11782   6.792   5.697   0.261  0.1394  0.0592 -0.2486
  829MOL0     O11783   6.895   5.746   0.337  0.7959 -0.3760  0.1911
  829MOL0     C11784   7.025   5.724   0.310  0.3364  0.0313 -0.1152
  829MOL0     C11785   7.081   5.716   0.181  0.3891  0.0471  0.2022
  829MOL0     C11786   7.220   5.690   0.158  0.3656 -0.8525 -0.1669
  829MOL0     C11787   7.300   5.659   0.270 -0.9740  0.1518 -0.5005
  829MOL0     O11788   7.439   5.629   0.268  0.8021 -0.2617  0.1157
  829MOL0     C11789   7.467   5.542   0.162  0.3299  0.0596  0.0599
  829MOL0     C11790   7.601   5.480   0.174 -0.4643 -0.3273 -0.8335
  829MOL0     C11791   7.717   5.580   0.145  0.8744 -0.0190 -0.5511
  829MOL0     C11792   7.739   5.610  -0.001 -0.1145 -0.4972  0.2048
  829MOL0     C11793   7.885   5.659  -0.023 -0.8371 -0.4976  0.6763
  829MOL0     C11794   7.979   5.534  -0.034 -0.5418  0.5854 -0.6092
  829MOL0     C11795   8.131   5.571  -0.006  0.5038 -0.9666 -0.1941
  829MOL0     C11796   8.176   5.674  -0.114  0.4263 -0.3903  0.7251
  829MOL0     N11797   8.199   5.811  -0.048  0.5007  0.0643  0.7873
  829MOL0     C11798   8.325   5.856  -0.010  0.3255  0.5866  0.7537
  829MOL0     C11799   8.299   5.979   0.024 -0.0240  0.0488  0.1157
  829MOL0     C11800   8.398   6.080   0.063 -0.6632  0.0028  1.3015
  829MOL0     C11801   8.511   6.029   0.166  0.5845 -0.0160 -0.3588
  829MOL0     C11802   8.460   5.991   0.316 -0.1787  1.1113  0.0188
  829MOL0     C11803   8.571   5.935   0.408  0.0333  1.2937 -0.7866
  829MOL0     O11804   8.679   6.024   0.415  0.1719 -0.2174 -0.4654
  829MOL0     C11805   8.777   6.023   0.511 -0.7074  0.1351 -0.2994
  829MOL0     C11806   8.818   5.904   0.575 -0.2665 -0.6714 -0.5104
  829MOL0     C11807   8.922   5.907   0.674  0.6789  0.0479 -0.4466
  829MOL0     C11808   8.968   6.031   0.714 -0.7869  0.4763  0.4619
  829MOL0     C11809   9.072   6.043   0.822  0.3860  0.9319  0.4487
  829MOL0     O11810   9.131   6.162   0.835 -0.0582 -0.6270 -0.6107
  829MOL0     C11811   9.241   6.165   0.920  0.1299 -1.3801 -0.2681
  829MOL0     C11812   9.249   6.233   1.038  0.8989 -0.2593 -0.4957
  829MOL0     C11813   9.363   6.244   1.111 -0.4014 -0.6423  0.4275
  829MOL0     C11814   9.483   6.192   1.060  1.1133  0.5702 -0.3023
  829MOL0     O11815   9.602   6.223   1.122  0.7792  0.1681  0.3784
  829MOL0     C11816   9.654   6.124   1.205 -0.7154 -0.1381 -0.1818
  829MOL0     C11817   9.789   6.169   1.256  0.3239 -0.6013  0.0038
  829MOL0     C11818   9.853   6.072   1.362  0.4083  0.2759  0.2230
  829MOL0     C11819  10.003   6.098   1.363  0.7280 -0.1465  0.5842
  829MOL0     C11820  10.051   6.236   1.401 -0.6261 -0.1342 -0.5474
  829MOL0     C11821  10.206   6.248   1.391 -0.4491  0.1587  0.0083
  829MOL0     C11822  10.242   6.394   1.367 -0.0125  0.1470  0.0483
  829MOL0     C11823  10.386   6.408   1.313  0.4896  0.2345  0.2604
  829MOL0    Cl11824  10.374   6.350   1.144 -0.3783 -0.6013  0.4902
  829MOL0     C11825   9.473   6.117   0.946 -0.5575  0.6237 -0.3530
  829MOL0     C11826   9.361   6.104   0.882  0.8303  0.1696  0.4451
  829MOL0     O11827   9.087   5.950   0.895  0.1880 -0.7490 -0.2843
  829MOL0     C11828   8.923   6.151   0.657  0.5392 -0.3072 -0.1320
  829MOL0     C11829   8.828   6.148   0.559  0.0632 -0.2409  0.3591
  829MOL0     N11830   8.161   6.006   0.024 -0.5996 -0.4582  0.5906
  829MOL0     N11831   8.099   5.904  -0.028  0.4464 -0.4790  0.2845
  829MOL0     C11832   7.245   5.686   0.400  0.4377  0.2367 -0.6054
  829MOL0     C11833   7.111   5.708   0.419 -0.6833  1.1223 -0.0051
  829MOL0     C11834   6.651   5.717   0.305  0.2237 -0.1915 -0.2455
  829MOL0     C11835   6.615   5.776   0.428 -0.1057 -0.6721 -0.0891
  829MOL0     C11836   6.486   5.797   0.465  0.2919  0.9836 -0.1351
  829MOL0     C11837   6.381   5.748   0.381 -0.7012  0.1762 -0.6819
  829MOL0     O11838   6.250   5.750   0.413 -0.5053  0.5471 -0.0057
  829MOL0     C11839   6.222   5.664   0.532  0.0799 -0.4386  0.3113
  829MOL0     C11840   6.169   5.543   0.483 -0.0367  0.4458  1.2367
  829MOL0     C11841   6.112   5.459   0.593 -0.4431  0.7756 -0.3548
  829MOL0     C11842   6.103   5.310   0.559 -0.4725  0.0496 -0.7876
  829MOL0     C11843   6.019   5.238   0.655 -0.5253 -0.6351  0.2555
  829MOL0     C11844   5.946   5.174   0.734  0.0919  0.7714 -0.8640
  829MOL0     C11845   6.406   5.695   0.262 -0.5529 -0.4656 -0.4731
  829MOL0     C11846   6.542   5.672   0.222 -0.0137  0.2960 -0.0632
  829MOL0     C11847   6.557   5.616   0.088  0.6855  0.1700  0.7682
  829MOL0     H11848   7.022   5.748   0.095 -0.5632 -0.1748  0.7558
  829MOL0     H11849   7.259   5.698   0.057  1.2828  1.3955  0.3014
  829MOL0     H11850   7.383   5.471   0.159 -0.2622  0.7554 -0.3127
  829MOL0     H11851   7.473   5.608   0.076  3.2550 -1.3590 -0.9589
  829MOL0     H11852   7.606   5.389   0.114  2.4036 -2.7576  2.6288
  829MOL0     H11853   7.609   5.438   0.275  0.0421 -2.4818 -1.7125
  829MOL0     H11854   7.802   5.525   0.184  1.2086  0.7121 -0.2428
  829MOL0     H11855   7.695   5.669   0.205  1.7779  2.1608 -3.2117
  829MOL0     H11856   7.723   5.512  -0.047 -5.0349  0.1612 -0.0905
  829MOL0     H11857   7.674   5.685  -0.046  0.8159  0.8916  1.0988
  829MOL0     H11858   7.886   5.723  -0.111 -1.0638 -1.7912 -0.2940
  829MOL0     H11859   7.917   5.720   0.062 -0.4577  1.1781 -0.6199
  829MOL0     H11860   7.940   5.460   0.037 -4.0599  2.5183 -0.2678
  829MOL0     H11861   7.966   5.495  -0.135  0.7253  2.9367 -1.7524
  829MOL0     H11862   8.186   5.477  -0.016 -1.1800 -2.1079  0.6400
  829MOL0     H11863   8.140   5.604   0.098 -1.5609 -0.4808 -0.1195
  829MOL0     H11864   8.272   5.638  -0.152 -1.2119 -2.9384 -1.3900
  829MOL0     H11865   8.108   5.676  -0.199  1.9701  3.7740 -0.6582
  829MOL0     H11866   8.419   5.803  -0.017  0.7503  0.8768  3.2015
  829MOL0     H11867   8.454   6.127  -0.018 -0.7777  1.3700  1.9778
  829MOL0     H11868   8.344   6.160   0.115  0.8484  0.2848  2.5094
  829MOL0     H11869   8.569   5.948   0.121 -0.8785 -0.6606 -1.1473
  829MOL0     H11870   8.579   6.114   0.178 -0.1699  0.4158  1.1085
  829MOL0     H11871   8.375   5.923   0.306 -0.9595  2.2047 -1.1394
  829MOL0     H11872   8.418   6.085   0.354  0.4176  1.2915  0.2544
  829MOL0     H11873   8.612   5.837   0.381  0.8050  2.0212 -2.4000
  829MOL0     H11874   8.534   5.928   0.511 -0.0545  0.2005 -0.8837
  829MOL0     H11875   8.767   5.811   0.551 -0.6452 -0.7938  0.7264
  829MOL0     H11876   8.951   5.815   0.723 -2.8204  0.0499  1.9878
  829MOL0     H11877   9.166   6.297   1.066  2.1545  2.4131 -2.4325
  829MOL0     H11878   9.368   6.311   1.195 -1.8529  0.6606 -0.4818
  829MOL0     H11879   9.581   6.111   1.285 -0.5118  2.1107  0.4438
  829MOL0     H11880   9.662   6.026   1.158  0.1554 -1.3597  2.3394
  829MOL0     H11881   9.867   6.176   1.179  2.8950 -2.7667  2.2111
  829MOL0     H11882   9.767   6.268   1.296  0.0536 -0.4584 -0.4952
  829MOL0     H11883   9.806   6.088   1.460 -0.7101  2.7242 -0.6166
  829MOL0     H11884   9.832   5.970   1.329 -1.3158  1.0582 -1.2906
  829MOL0     H11885  10.045   6.094   1.262 -2.4441  0.9901 -0.8966
  829MOL0     H11886  10.043   6.021   1.430  0.4473 -1.3419 -0.5633
  829MOL0     H11887  10.025   6.257   1.505  2.2219 -1.5134  0.5332
  829MOL0     H11888  10.002   6.297   1.324 -1.2744 -1.3878 -1.1533
  829MOL0     H11889  10.250   6.214   1.485  0.6729 -1.6024 -1.1002
  829MOL0     H11890  10.253   6.182   1.318 -0.7031  3.4939 -3.4571
  829MOL0     H11891  10.228   6.456   1.456  0.0940 -0.6604  0.6429
  829MOL0     H11892  10.180   6.435   1.287 -0.7697 -1.1159 -0.0547
  829MOL0     H11893  10.416   6.513   1.322  0.5734  0.0840  2.1636
  829MOL0     H11894  10.452   6.345   1.374 -0.0956 -1.6427 -0.9597
  829MOL0     H11895   9.560   6.062   0.911 -1.0899 -0.3189 -0.2263
  829MOL0     H11896   9.359   6.036   0.798  0.6539  0.5820  0.1149
  829MOL0     H11897   8.963   6.247   0.687  0.1210 -0.2167  0.1422
  829MOL0     H11898   8.791   6.242   0.518 -1.3063 -1.1409 -0.5597
  829MOL0     H11899   7.316   5.683   0.482  0.7967 -3.3399 -0.8834
  829MOL0     H11900   7.073   5.719   0.520 -0.7558 -1.6037  0.3486
  829MOL0     H11901   6.705   5.805   0.482  0.8883 -0.5594 -1.7378
  829MOL0     H11902   6.458   5.829   0.565  2.9249  0.7975  0.7213
  829MOL0     H11903   6.147   5.707   0.600 -0.9108  0.2684 -1.1679
  829MOL0     H11904   6.318   5.646   0.580 -0.9981 -3.3300  1.6470
  829MOL0     H11905   6.238   5.483   0.422 -1.6529  0.7158 -0.9978
  829MOL0     H11906   6.084   5.572   0.422  2.4537  2.2687 -1.6643
  829MOL0     H11907   6.011   5.497   0.611 -0.1061  2.1561 -1.1855
  829MOL0     H11908   6.173   5.474   0.682  2.1633  1.3747 -2.1368
  829MOL0     H11909   6.072   5.300   0.455  4.6540  1.9760 -2.7949
  829MOL0     H11910   6.202   5.264   0.571  0.0093  0.3203 -3.2083
  829MOL0     H11911   5.882   5.118   0.799 -0.1313  0.7409 -1.1082
  829MOL0     H11912   6.316   5.669   0.208 -1.3955 -0.2214  0.7579
  829MOL0     H11913   6.604   5.684   0.016  0.3162 -1.5303 -1.1988
  829MOL0     H11914   6.608   5.520   0.086  0.5903  0.1258 -0.2528
  829MOL0     H11915   6.457   5.597   0.046  1.0704  0.3337 -0.2438
  830MOL0     O11916   7.604   7.959   8.631 -0.6362 -0.3681  0.4728
  830MOL0     C11917   7.583   7.886   8.722 -1.0754  0.4636  0.5608
  830MOL0     O11918   7.685   7.802   8.769  0.3705 -0.8447 -0.1835
  830MOL0     C11919   7.815   7.832   8.802  0.1114  0.3476  0.1415
  830MOL0     C11920   7.883   7.943   8.744  0.0591  0.5682 -0.2704
  830MOL0     C11921   8.018   7.970   8.784 -0.2763 -0.1233  0.7738
  830MOL0     C11922   8.078   7.885   8.879 -0.0927 -0.3337 -0.0269
  830MOL0     O11923   8.196   7.916   8.937  0.6149  0.2129 -0.0878
  830MOL0     C11924   8.302   7.819   8.925  0.1009  0.0015 -0.1436
  830MOL0     C11925   8.430   7.896   8.975  0.4756  0.3619 -0.0431
  830MOL0     C11926   8.464   7.847   9.114  0.2268 -0.4134 -0.6184
  830MOL0     C11927   8.566   7.930   9.183 -1.0983  0.3011 -1.0589
  830MOL0     C11928   8.512   8.043   9.269  0.5355 -0.5921 -0.0985
  830MOL0     C11929   8.626   8.138   9.307  0.0878  0.4598 -0.5672
  830MOL0     C11930   8.565   8.264   9.370  0.0238 -0.2208  0.4366
  830MOL0     C11931   8.660   8.330   9.466  0.6341  0.7064 -0.0011
  830MOL0     N11932   8.753   8.418   9.384  0.7487  1.4162 -0.2584
  830MOL0     C11933   8.863   8.367   9.311 -0.6372  0.6565 -0.3620
  830MOL0     C11934   8.922   8.480   9.264 -0.0526 -0.3512 -0.1631
  830MOL0     C11935   9.035   8.471   9.176  0.3834 -0.0208 -0.0149
  830MOL0     C11936   9.167   8.499   9.262 -0.6908 -0.4512  0.7636
  830MOL0     C11937   9.192   8.647   9.315  0.0687  0.5797  0.2502
  830MOL0     C11938   9.186   8.750   9.205 -0.5473 -0.2008  0.1294
  830MOL0     O11939   9.269   8.706   9.090  0.4332  0.0665 -0.4625
  830MOL0     C11940   9.403   8.690   9.108  0.2488 -0.1674  0.2450
  830MOL0     C11941   9.473   8.596   9.020 -0.0219 -0.6608  0.6394
  830MOL0     C11942   9.614   8.599   9.020 -0.2535  0.0150  0.0166
  830MOL0     C11943   9.685   8.677   9.108 -0.0483  1.4260 -0.2149
  830MOL0     C11944   9.835   8.665   9.121 -0.2698 -0.0168  0.1284
  830MOL0     O11945   9.899   8.572   9.050 -0.2000  1.1727 -0.2908
  830MOL0     C11946  10.032   8.582   9.024 -0.3552 -0.0925  0.0569
  830MOL0     C11947  10.107   8.463   9.005  0.8490  0.0429 -0.1709
  830MOL0     C11948  10.247   8.463   8.979 -0.2650  0.6534  0.3282
  830MOL0     C11949  10.321   8.581   8.983 -0.1613 -0.8259 -0.6676
  830MOL0     O11950  10.461   8.591   8.988 -0.1179  0.2024  0.4020
  830MOL0     C11951  10.530   8.490   8.915 -0.4520  0.3204  0.0912
  830MOL0     C11952  10.672   8.540   8.907 -0.3372  0.7897 -0.3105
  830MOL0     C11953  10.760   8.425   8.857  0.2893 -0.3436  0.4339
  830MOL0     C11954  10.917   8.453   8.890  0.8510 -0.6773  0.3640
  830MOL0     C11955  11.013   8.328   8.859  1.1658 -0.3820  0.5087
  830MOL0     C11956  11.155   8.353   8.908  0.6664 -0.5636 -0.0926
  830MOL0     C11957  11.235   8.222   8.914 -0.2553 -0.1428  0.8017
  830MOL0     C11958  11.374   8.243   8.979  0.7807  0.0658 -0.3533
  830MOL0    Cl11959  11.457   8.400   8.934 -0.2744  0.0511 -0.0834
  830MOL0     C11960  10.250   8.697   8.990  0.3806  0.1480 -1.0499
  830MOL0     C11961  10.109   8.701   9.013 -0.3281  0.7234 -0.7490
  830MOL0     O11962   9.888   8.743   9.200  0.1507  0.0661  0.3090
  830MOL0     C11963   9.615   8.744   9.205  0.1281 -0.0623 -0.4367
  830MOL0     C11964   9.471   8.750   9.209  0.0046 -0.5944 -0.3498
  830MOL0     N11965   8.843   8.589   9.292 -0.0167  0.4940  0.6459
  830MOL0     N11966   8.743   8.553   9.372 -0.1268  0.7442 -0.1078
  830MOL0     C11967   7.999   7.788   8.946 -0.4460 -0.1146  1.0976
  830MOL0     C11968   7.875   7.754   8.900 -0.3898  0.0555 -0.0035
  830MOL0     C11969   7.441   7.869   8.768  0.1980 -0.6341  0.9847
  830MOL0     C11970   7.414   7.776   8.866 -0.0345  0.7058  0.0912
  830MOL0     C11971   7.282   7.757   8.919 -1.0253  0.4494 -0.1453
  830MOL0     C11972   7.165   7.822   8.878  0.8829  0.3430  1.1124
  830MOL0     O11973   7.038   7.806   8.934  0.6480  0.4738  0.6957
  830MOL0     C11974   7.011   7.670   8.979  0.1828 -0.1842  0.0559
  830MOL0     C11975   7.017   7.679   9.132 -0.0232  0.7490 -0.3889
  830MOL0     C11976   6.983   7.548   9.193 -0.0143  0.3145  0.3698
  830MOL0     C11977   7.095   7.435   9.191  0.4359  0.5922  0.2821
  830MOL0     C11978   7.028   7.311   9.236  0.2208  0.3775  0.4110
  830MOL0     C11979   6.964   7.215   9.289 -0.4947 -0.2884 -0.6304
  830MOL0     C11980   7.200   7.911   8.767 -0.5887  0.6887  0.5279
  830MOL0     C11981   7.326   7.935   8.721  0.6583  0.8215 -0.0929
  830MOL0     C11982   7.343   8.038   8.602  0.1723 -0.1570 -0.1189
  830MOL0     H11983   7.839   8.010   8.671  1.9576 -0.0147 -2.0567
  830MOL0     H11984   8.070   8.057   8.745  3.2269 -2.0113  0.8223
  830MOL0     H11985   8.280   7.731   8.985 -1.4982  2.2721  2.9165
  830MOL0     H11986   8.326   7.793   8.822 -0.2211  2.5308 -0.9263
  830MOL0     H11987   8.412   8.003   8.991  1.7423  0.6309 -0.3063
  830MOL0     H11988   8.511   7.885   8.903  0.8368 -3.8790  0.7538
  830MOL0     H11989   8.504   7.745   9.106  2.3937  0.3799 -0.5872
  830MOL0     H11990   8.382   7.848   9.186  0.0437  1.9940 -0.7650
  830MOL0     H11991   8.626   7.874   9.256  0.3477  1.9460 -0.8928
  830MOL0     H11992   8.639   7.968   9.111  2.1850 -0.2204  1.7007
  830MOL0     H11993   8.425   8.091   9.224 -0.0570 -3.4973 -2.3910
  830MOL0     H11994   8.476   7.995   9.361  0.5261  1.5761  1.0822
  830MOL0     H11995   8.699   8.089   9.372  1.0277 -0.6646 -2.3588
  830MOL0     H11996   8.686   8.167   9.220  0.8715  0.9172  0.1083
  830MOL0     H11997   8.476   8.241   9.429 -0.6390  0.8016 -0.1301
  830MOL0     H11998   8.540   8.331   9.287 -0.5707 -0.4385  0.4335
  830MOL0     H11999   8.604   8.387   9.542  1.7867  1.0123  0.6515
  830MOL0     H12000   8.721   8.258   9.522  3.9795  3.3648  0.1086
  830MOL0     H12001   8.875   8.264   9.278 -1.2258  1.1291 -2.1172
  830MOL0     H12002   9.030   8.374   9.126  0.0322  0.0785 -0.1788
  830MOL0     H12003   9.026   8.550   9.100 -0.9772  0.2365  0.3815
  830MOL0     H12004   9.181   8.423   9.340  2.1240  0.4012  1.1886
  830MOL0     H12005   9.255   8.472   9.203 -0.0784 -0.6235  1.7374
  830MOL0     H12006   9.282   8.648   9.378 -0.1900  0.8676  0.6229
  830MOL0     H12007   9.105   8.663   9.380 -0.9864  1.1225 -1.2449
  830MOL0     H12008   9.222   8.844   9.248  0.1053  0.4363 -1.6800
  830MOL0     H12009   9.092   8.768   9.152 -0.1761 -1.4012 -0.9825
  830MOL0     H12010   9.413   8.546   8.945  2.1359  1.8877 -3.1300
  830MOL0     H12011   9.669   8.526   8.960  1.3824  0.5178  0.8521
  830MOL0     H12012  10.051   8.371   9.017  1.0282 -0.0214  0.1716
  830MOL0     H12013  10.291   8.365   8.963 -0.5678  0.2051  2.0508
  830MOL0     H12014  10.530   8.394   8.968  1.9562 -0.7083 -1.5993
  830MOL0     H12015  10.492   8.474   8.814 -1.9131 -1.0459  0.8056
  830MOL0     H12016  10.678   8.620   8.832  0.8314  0.4897 -0.5644
  830MOL0     H12017  10.707   8.568   9.006 -3.0908 -0.6322  1.1828
  830MOL0     H12018  10.738   8.331   8.907 -0.3517 -1.5278 -1.9118
  830MOL0     H12019  10.757   8.399   8.751  1.8327 -2.7027  0.9040
  830MOL0     H12020  10.927   8.471   8.998  0.7519 -1.7485  0.5626
  830MOL0     H12021  10.955   8.541   8.838  2.0241  0.0444  2.3220
  830MOL0     H12022  11.018   8.308   8.751 -2.2399 -2.3083  0.5647
  830MOL0     H12023  10.966   8.249   8.918 -0.7438  0.0076 -0.4010
  830MOL0     H12024  11.208   8.414   8.835  2.2498 -1.0066  0.6576
  830MOL0     H12025  11.166   8.405   9.004 -0.4158  0.7006 -0.6263
  830MOL0     H12026  11.240   8.184   8.811  0.5384 -1.2894  1.2381
  830MOL0     H12027  11.177   8.148   8.970 -3.1622  1.2101 -0.2383
  830MOL0     H12028  11.368   8.244   9.089 -1.0008 -0.0933 -0.4199
  830MOL0     H12029  11.436   8.158   8.951  0.8047 -0.2659  0.6624
  830MOL0     H12030  10.312   8.786   8.982  1.2912 -0.5653 -2.3161
  830MOL0     H12031  10.058   8.795   9.028 -1.8141 -0.2910  0.8683
  830MOL0     H12032   9.676   8.772   9.290 -0.5097 -1.7303  0.6315
  830MOL0     H12033   9.427   8.812   9.286 -0.8254  0.3225 -1.5242
  830MOL0     H12034   8.044   7.735   9.030  1.8141 -1.5511 -0.8731
  830MOL0     H12035   7.821   7.675   8.952  1.2715 -0.4267  1.0456
  830MOL0     H12036   7.496   7.719   8.909 -0.1445  1.1026  0.8312
  830MOL0     H12037   7.294   7.690   9.003 -1.1230  1.1326  0.4239
  830MOL0     H12038   7.083   7.601   8.934  0.6474  1.1268 -1.3032
  830MOL0     H12039   6.914   7.639   8.938  1.6453 -5.3037 -0.2538
  830MOL0     H12040   6.951   7.753   9.178  0.1073 -0.0411  1.1552
  830MOL0     H12041   7.123   7.698   9.150 -0.0461 -0.7819  1.7298
  830MOL0     H12042   6.906   7.496   9.136 -0.0011 -1.8655  2.1699
  830MOL0     H12043   6.942   7.571   9.293  1.5936  0.6548  0.9752
  830MOL0     H12044   7.141   7.435   9.092 -3.1362  2.2781 -1.5892
  830MOL0     H12045   7.178   7.449   9.261  0.2378 -1.1840  0.9162
  830MOL0     H12046   6.914   7.143   9.351 -1.1233  1.3241  0.8165
  830MOL0     H12047   7.112   7.962   8.732 -0.8123  0.6268  0.9909
  830MOL0     H12048   7.423   8.112   8.605 -1.1692  1.3574 -0.4964
  830MOL0     H12049   7.358   7.981   8.509  1.8291 -3.4620  1.9634
  830MOL0     H12050   7.249   8.092   8.592  1.0165  1.1697 -1.3473
  831MOL0     O12051   0.267   7.967   7.241 -0.7050 -0.4842  0.6025
  831MOL0     C12052   0.208   7.876   7.291 -0.8353  0.1912  0.3240
  831MOL0     O12053   0.158   7.889   7.410  0.1719 -0.5681 -0.0816
  831MOL0     C12054   0.210   7.980   7.495 -0.3857 -0.4425 -0.2970
  831MOL0     C12055   0.349   7.982   7.523  0.0952  0.6307 -0.2281
  831MOL0     C12056   0.407   8.079   7.603  0.8507  0.0549  0.4245
  831MOL0     C12057   0.325   8.179   7.655  0.1953 -0.9010 -0.3862
  831MOL0     O12058   0.384   8.272   7.735 -0.3067  0.7276 -0.4468
  831MOL0     C12059   0.316   8.386   7.785  0.2557 -0.4109 -0.6728
  831MOL0     C12060   0.414   8.470   7.865 -0.3143  0.3155  0.5687
  831MOL0     C12061   0.491   8.568   7.794 -1.1262 -1.0834  0.7922
  831MOL0     C12062   0.607   8.624   7.874  0.0811 -0.2008 -0.1988
  831MOL0     C12063   0.660   8.746   7.806 -0.3781  0.3859  0.7935
  831MOL0     C12064   0.798   8.781   7.861 -0.3063 -0.2846 -0.3722
  831MOL0     C12065   0.902   8.700   7.780  1.0054  0.0788 -0.3953
  831MOL0     C12066   1.040   8.731   7.832 -0.2573  0.0531 -0.9871
  831MOL0     N12067   1.135   8.634   7.770 -0.4528  0.0691  0.4396
  831MOL0     C12068   1.168   8.638   7.635  0.5144 -0.3214 -0.5454
  831MOL0     C12069   1.238   8.523   7.621 -0.4355 -0.4464  0.4665
  831MOL0     C12070   1.315   8.462   7.506 -0.0987  0.0927  0.4978
  831MOL0     C12071   1.467   8.467   7.525 -0.3094 -0.2967  0.2366
  831MOL0     C12072   1.532   8.390   7.418  0.7104  0.5366 -0.0355
  831MOL0     C12073   1.679   8.405   7.430  0.9264  0.2861  0.2111
  831MOL0     O12074   1.720   8.541   7.392  0.7779  0.9812 -0.2400
  831MOL0     C12075   1.848   8.563   7.382 -0.8903 -0.6905  0.1584
  831MOL0     C12076   1.891   8.693   7.349  0.1229  0.6821  0.5114
  831MOL0     C12077   2.014   8.716   7.312 -0.7338 -0.7694  0.3183
  831MOL0     C12078   2.117   8.623   7.335 -0.4990 -0.2789 -0.7039
  831MOL0     C12079   2.255   8.648   7.315 -0.2102  0.3534 -0.3498
  831MOL0     O12080   2.347   8.561   7.367 -0.6136 -0.1666  0.6313
  831MOL0     C12081   2.475   8.591   7.333  0.3912  0.0536  0.7661
  831MOL0     C12082   2.544   8.700   7.386 -0.8464  0.4925 -0.6805
  831MOL0     C12083   2.672   8.735   7.353 -0.0762  0.8342 -0.0275
  831MOL0     C12084   2.751   8.659   7.270  0.5460  0.0917  0.5259
  831MOL0     O12085   2.878   8.683   7.236  0.0161  0.3438 -0.1834
  831MOL0     C12086   2.959   8.719   7.352  0.1721 -0.1468 -0.9166
  831MOL0     C12087   3.107   8.694   7.330 -0.1390  0.2938  0.0025
  831MOL0     C12088   3.199   8.755   7.433 -0.1192 -0.2501 -0.3287
  831MOL0     C12089   3.330   8.691   7.397  0.0434  0.7880 -0.3981
  831MOL0     C12090   3.451   8.762   7.464  0.7581 -0.7359 -1.1250
  831MOL0     C12091   3.580   8.712   7.408  0.8923 -0.5039  0.6203
  831MOL0     C12092   3.705   8.768   7.480 -0.3698  0.4269  0.6114
  831MOL0     C12093   3.821   8.721   7.400 -0.9442  1.3392  0.2956
  831MOL0    Cl12094   3.962   8.740   7.496  0.1535  0.0383  0.1836
  831MOL0     C12095   2.683   8.557   7.206  0.0273 -0.2716  0.3015
  831MOL0     C12096   2.549   8.521   7.241 -0.0703 -0.2636  0.0571
  831MOL0     O12097   2.280   8.738   7.237  0.6125  0.0876  0.7351
  831MOL0     C12098   2.079   8.491   7.381  0.1076  0.3118 -0.4338
  831MOL0     C12099   1.951   8.463   7.405  0.5357  0.2037  0.3312
  831MOL0     N12100   1.247   8.455   7.741 -0.1579  0.2443 -0.0262
  831MOL0     N12101   1.191   8.524   7.834 -0.0577  0.4685  0.2909
  831MOL0     C12102   0.191   8.177   7.638 -0.1239  0.2932 -0.2086
  831MOL0     C12103   0.135   8.079   7.553 -0.5168 -0.8951 -0.6125
  831MOL0     C12104   0.162   7.760   7.206  0.7300  0.0672  0.1879
  831MOL0     C12105   0.040   7.703   7.240  0.0609 -0.2587 -0.2161
  831MOL0     C12106  -0.029   7.611   7.161 -0.8386  0.4246  0.3028
  831MOL0     C12107   0.031   7.567   7.042  0.8517 -0.4337  0.6121
  831MOL0     O12108  -0.024   7.488   6.938  0.0647  0.6633 -0.5246
  831MOL0     C12109  -0.152   7.430   6.959 -0.0695  0.4746 -0.2813
  831MOL0     C12110  -0.157   7.316   6.862  0.1352 -0.9022 -0.6391
  831MOL0     C12111  -0.021   7.240   6.832 -0.9406 -0.4368  0.3058
  831MOL0     C12112   0.011   7.127   6.927  0.2225 -0.0861  0.3026
  831MOL0     C12113  -0.108   7.045   6.945  0.4188 -0.6101  0.1226
  831MOL0     C12114  -0.204   6.972   6.964 -0.3624  0.2855 -1.4263
  831MOL0     C12115   0.158   7.610   7.010 -0.7563  0.5927 -0.5238
  831MOL0     C12116   0.230   7.701   7.092 -0.0579 -0.7526 -0.3262
  831MOL0     C12117   0.376   7.728   7.057  0.2303 -0.4069 -0.6575
  831MOL0     H12118   0.408   7.910   7.467 -0.1581  0.7707 -0.6808
  831MOL0     H12119   0.512   8.076   7.632  0.4091 -2.4288  2.0277
  831MOL0     H12120   0.282   8.462   7.713 -0.9923  3.6650  3.7047
  831MOL0     H12121   0.229   8.359   7.845 -0.4744  0.8730 -1.1058
  831MOL0     H12122   0.477   8.398   7.916  1.7255  0.3423 -1.7711
  831MOL0     H12123   0.354   8.525   7.939 -0.2102  1.4787 -0.1747
  831MOL0     H12124   0.425   8.651   7.769  1.6180  1.4083  1.3346
  831MOL0     H12125   0.534   8.523   7.704  0.2053  0.6447  0.5224
  831MOL0     H12126   0.572   8.653   7.973 -1.2419 -1.1101 -0.3656
  831MOL0     H12127   0.677   8.540   7.886  1.1500  0.1471 -3.1680
  831MOL0     H12128   0.668   8.732   7.698 -0.3218  1.8898  0.5736
  831MOL0     H12129   0.591   8.829   7.825 -0.2712  0.9388 -1.1001
  831MOL0     H12130   0.811   8.887   7.838 -2.0272 -0.3476 -1.9579
  831MOL0     H12131   0.795   8.743   7.963  0.5663 -3.8142 -1.5073
  831MOL0     H12132   0.884   8.725   7.675 -0.5939  0.7957  0.0240
  831MOL0     H12133   0.884   8.595   7.807  0.6335  1.0748  4.0295
  831MOL0     H12134   1.058   8.837   7.812 -0.9205  0.3993  0.1848
  831MOL0     H12135   1.046   8.710   7.939 -0.0311 -0.2060 -1.0502
  831MOL0     H12136   1.133   8.697   7.550 -1.6523 -1.8026 -0.7804
  831MOL0     H12137   1.280   8.359   7.502 -3.6252  1.2207 -1.0778
  831MOL0     H12138   1.286   8.511   7.413 -1.5302  2.4053  2.0476
  831MOL0     H12139   1.503   8.569   7.541 -1.1963 -0.2221  2.1080
  831MOL0     H12140   1.481   8.406   7.615 -0.5392 -3.7743 -1.9188
  831MOL0     H12141   1.492   8.423   7.322 -0.2180  1.7488  0.7313
  831MOL0     H12142   1.510   8.284   7.436  2.0218  0.0384 -1.2183
  831MOL0     H12143   1.713   8.340   7.349  0.7761 -0.7979  0.9992
  831MOL0     H12144   1.699   8.371   7.532 -1.0712  0.0272  0.5455
  831MOL0     H12145   1.822   8.777   7.349  0.5153  1.0162 -0.1831
  831MOL0     H12146   2.031   8.810   7.261  0.9680 -2.0975 -1.7357
  831MOL0     H12147   2.491   8.767   7.453  0.1871  1.9066 -1.2204
  831MOL0     H12148   2.704   8.823   7.409 -0.2755  1.4903 -0.9180
  831MOL0     H12149   2.942   8.819   7.395  0.5470 -1.6951  3.2827
  831MOL0     H12150   2.926   8.658   7.437  1.5830  1.0877  0.5891
  831MOL0     H12151   3.125   8.586   7.329  3.2171  0.7555 -0.5093
  831MOL0     H12152   3.126   8.733   7.230  1.8935 -0.1595  0.1649
  831MOL0     H12153   3.206   8.863   7.417  2.0067 -0.1489  0.9564
  831MOL0     H12154   3.161   8.743   7.535 -0.1168  3.3906  0.2633
  831MOL0     H12155   3.347   8.688   7.289  1.3274  4.1690 -0.4009
  831MOL0     H12156   3.335   8.589   7.436  1.7877  0.5661 -1.0860
  831MOL0     H12157   3.453   8.739   7.571 -1.0691 -1.6236 -1.2321
  831MOL0     H12158   3.440   8.870   7.449 -0.9111  0.0950  4.1125
  831MOL0     H12159   3.580   8.603   7.419  3.0590 -0.4958  1.0330
  831MOL0     H12160   3.579   8.730   7.300  1.6739 -1.1819  0.4894
  831MOL0     H12161   3.702   8.724   7.580 -1.9605 -1.9250 -0.3666
  831MOL0     H12162   3.709   8.877   7.486  1.5583  0.2986  3.4387
  831MOL0     H12163   3.807   8.615   7.376  0.8137  1.2257 -0.3479
  831MOL0     H12164   3.836   8.781   7.310 -1.2202  0.7908 -0.1255
  831MOL0     H12165   2.749   8.499   7.141 -0.7383 -0.8784  0.0520
  831MOL0     H12166   2.501   8.444   7.182  1.2300 -0.1132 -1.2456
  831MOL0     H12167   2.157   8.421   7.411 -0.9550 -1.2292 -1.1188
  831MOL0     H12168   1.931   8.359   7.428  0.6915  0.1316  0.1465
  831MOL0     H12169   0.128   8.235   7.705 -1.3112  0.5331 -1.4826
  831MOL0     H12170   0.029   8.064   7.537 -0.1335 -1.8093 -2.6697
  831MOL0     H12171  -0.013   7.757   7.318  1.0220 -0.5782  0.6894
  831MOL0     H12172  -0.125   7.562   7.176 -1.1831 -0.1826 -3.1342
  831MOL0     H12173  -0.232   7.500   6.934  0.4347  0.8466 -0.9052
  831MOL0     H12174  -0.166   7.392   7.060  2.7454 -1.7699 -0.6064
  831MOL0     H12175  -0.175   7.365   6.766  0.3088 -0.2315 -0.3376
  831MOL0     H12176  -0.233   7.247   6.900 -1.6337  1.4547  0.3414
  831MOL0     H12177   0.067   7.304   6.840 -1.4385  0.0987  1.7276
  831MOL0     H12178  -0.030   7.206   6.728  0.3338  0.2532 -0.0441
  831MOL0     H12179   0.091   7.066   6.884  2.0870  2.1876  0.3603
  831MOL0     H12180   0.044   7.158   7.027 -1.2889 -0.9572  1.1231
  831MOL0     H12181  -0.285   6.912   7.000  0.1696  1.3684  1.9485
  831MOL0     H12182   0.205   7.571   6.920  1.7908  0.5129  0.7734
  831MOL0     H12183   0.405   7.679   6.963  0.3863  2.2839 -2.1282
  831MOL0     H12184   0.400   7.834   7.062 -0.6875 -0.2444  0.6140
  831MOL0     H12185   0.426   7.676   7.139 -3.7651 -0.8085  1.7761
  832MOL0     O12186  11.266   4.943   3.035 -0.5287  0.4920 -0.2086
  832MOL0     C12187  11.216   4.869   2.953  0.1121  0.5057  0.2455
  832MOL0     O12188  11.289   4.801   2.856  0.4187 -0.1124  0.0511
  832MOL0     C12189  11.412   4.846   2.810 -0.1722  0.5488 -0.0303
  832MOL0     C12190  11.417   4.952   2.714 -0.2126  0.9807  1.1068
  832MOL0     C12191  11.540   4.976   2.649 -0.7768  0.5260 -0.1493
  832MOL0     C12192  11.660   4.906   2.682 -0.8179 -0.3504 -0.1482
  832MOL0     O12193  11.783   4.945   2.630  0.1420 -0.3740  0.2946
  832MOL0     C12194  11.816   4.868   2.518  0.3866  0.6339  1.2858
  832MOL0     C12195  11.751   4.919   2.385 -0.4684  0.6323  0.6439
  832MOL0     C12196  11.813   5.045   2.311  0.3375  0.6285  0.1941
  832MOL0     C12197  11.878   5.154   2.398  0.5547 -0.4279 -0.0164
  832MOL0     C12198  11.932   5.273   2.312 -0.3416  0.0775 -0.8902
  832MOL0     C12199  12.035   5.357   2.395  0.4842  0.1174 -0.5146
  832MOL0     C12200  12.097   5.484   2.328  0.2739 -0.9549 -0.1963
  832MOL0     C12201  12.188   5.557   2.426  0.2797 -0.4882 -0.7602
  832MOL0     N12202  12.243   5.692   2.387  0.0279 -0.0481  0.1849
  832MOL0     C12203  12.313   5.718   2.273 -1.3179  0.0287 -0.7805
  832MOL0     C12204  12.328   5.861   2.271 -0.8209  0.7050  0.5663
  832MOL0     C12205  12.412   5.934   2.171  0.1029 -1.1915 -0.3935
  832MOL0     C12206  12.312   6.029   2.095 -0.3724 -0.3795  0.3464
  832MOL0     C12207  12.238   5.957   1.986 -0.1419  1.8392 -0.7517
  832MOL0     C12208  12.314   5.943   1.850  0.0470  0.9876  0.0905
  832MOL0     O12209  12.244   5.870   1.750 -0.2782  0.0105 -0.0817
  832MOL0     C12210  12.313   5.850   1.630 -0.0983  0.2677  0.0107
  832MOL0     C12211  12.236   5.839   1.513 -0.1550 -0.6054  0.6605
  832MOL0     C12212  12.292   5.799   1.388  0.2872 -0.0920 -0.1340
  832MOL0     C12213  12.434   5.779   1.381 -0.6345 -0.0484  0.4495
  832MOL0     C12214  12.498   5.739   1.249  0.2934 -1.1762  0.5493
  832MOL0     O12215  12.636   5.761   1.226  0.3951  0.6353  0.3879
  832MOL0     C12216  12.680   5.719   1.099  0.3076  0.3147  0.7377
  832MOL0     C12217  12.749   5.812   1.009  0.3932  0.0511 -0.7367
  832MOL0     C12218  12.802   5.768   0.887  0.1491  0.4281 -0.0625
  832MOL0     C12219  12.802   5.633   0.853 -0.7887 -0.6497 -0.9857
  832MOL0     O12220  12.859   5.595   0.735  0.3202  0.1043  0.2120
  832MOL0     C12221  12.797   5.490   0.664  0.2958 -0.1320 -0.6124
  832MOL0     C12222  12.872   5.491   0.534  0.2228  0.3975 -0.7555
  832MOL0     C12223  12.801   5.407   0.426 -0.3465  0.1875 -0.7771
  832MOL0     C12224  12.741   5.279   0.479  0.8502  0.7057 -0.5560
  832MOL0     C12225  12.849   5.176   0.508  1.2626  0.6130 -0.0109
  832MOL0     C12226  12.788   5.031   0.511  0.4105  0.7952 -0.0017
  832MOL0     C12227  12.878   4.919   0.572  0.4707  0.3742  0.3486
  832MOL0     C12228  13.013   4.908   0.509 -0.3046 -0.3408 -0.3260
  832MOL0    Cl12229  13.103   4.759   0.539  0.0190  0.1525  0.0401
  832MOL0     C12230  12.744   5.544   0.947 -0.1696  0.7216 -0.5239
  832MOL0     C12231  12.691   5.582   1.070  1.0408 -0.2524  0.1943
  832MOL0     O12232  12.418   5.698   1.164  0.5762 -0.1779  0.2948
  832MOL0     C12233  12.509   5.799   1.500  0.2243 -0.8911 -0.7595
  832MOL0     C12234  12.452   5.838   1.622 -0.3693 -0.3270 -0.8630
  832MOL0     N12235  12.266   5.907   2.378  0.1212 -0.6168  0.1898
  832MOL0     N12236  12.217   5.809   2.445 -0.2418 -0.0187 -0.5814
  832MOL0     C12237  11.655   4.811   2.785 -0.5580 -0.9449 -0.3225
  832MOL0     C12238  11.527   4.777   2.845  0.1491  0.5202 -0.5901
  832MOL0     C12239  11.071   4.818   2.972 -0.5382  0.2759  0.6735
  832MOL0     C12240  10.980   4.910   3.023  0.1911  0.0181  0.0334
  832MOL0     C12241  10.847   4.871   3.047  0.7139  1.2534  0.8259
  832MOL0     C12242  10.805   4.742   3.037  0.4246  0.4186  0.2925
  832MOL0     O12243  10.676   4.693   3.070 -0.5945  0.5752 -0.1387
  832MOL0     C12244  10.591   4.767   3.161 -0.3763  0.2895 -0.5087
  832MOL0     C12245  10.481   4.680   3.200 -0.7294  0.1840  0.0040
  832MOL0     C12246  10.393   4.749   3.314 -0.3954  0.0512  0.2564
  832MOL0     C12247  10.272   4.668   3.354  0.4098  0.3911  0.1630
  832MOL0     C12248  10.315   4.575   3.453  0.0256 -0.1688  0.5240
  832MOL0     C12249  10.354   4.518   3.547 -0.6032  0.2056 -0.4858
  832MOL0     C12250  10.896   4.654   2.984  0.0962 -0.0729  0.4154
  832MOL0     C12251  11.027   4.688   2.954  0.0150  0.5688 -0.0171
  832MOL0     C12252  11.110   4.576   2.896 -0.6726 -1.0592  0.0185
  832MOL0     H12253  11.323   5.001   2.691  0.1068  1.4189  0.7308
  832MOL0     H12254  11.523   5.047   2.568 -0.1908  2.3660  1.2722
  832MOL0     H12255  11.925   4.870   2.509  0.2831 -0.4082 -0.7647
  832MOL0     H12256  11.794   4.763   2.541  5.2652 -0.9942 -0.2744
  832MOL0     H12257  11.645   4.934   2.404 -0.6293 -0.7229  0.9093
  832MOL0     H12258  11.747   4.832   2.319 -1.1690  0.4671  0.9002
  832MOL0     H12259  11.735   5.093   2.251  1.1458  0.9357 -0.6402
  832MOL0     H12260  11.884   5.006   2.237 -1.6701  2.4474 -2.9123
  832MOL0     H12261  11.806   5.189   2.473  2.4763  0.7149  1.3715
  832MOL0     H12262  11.957   5.118   2.465  0.4127 -0.6152  0.0551
  832MOL0     H12263  11.977   5.248   2.216 -0.3746 -0.2204 -0.8304
  832MOL0     H12264  11.850   5.342   2.291 -0.0549  0.6201 -0.2608
  832MOL0     H12265  11.992   5.380   2.493 -2.5952 -1.1217 -1.4686
  832MOL0     H12266  12.122   5.298   2.423  2.2694  2.6026 -0.4702
  832MOL0     H12267  12.007   5.540   2.300 -0.7564 -2.3991  0.0981
  832MOL0     H12268  12.153   5.471   2.235  0.0907 -0.1440 -0.4279
  832MOL0     H12269  12.133   5.570   2.520  0.7454  0.7746 -0.6391
  832MOL0     H12270  12.273   5.490   2.440 -0.5320 -1.5588 -0.8829
  832MOL0     H12271  12.338   5.665   2.182 -0.6260  2.1946 -1.9225
  832MOL0     H12272  12.486   5.995   2.223  0.8086 -2.7972  0.5559
  832MOL0     H12273  12.456   5.869   2.096 -1.0582  0.4065 -2.5987
  832MOL0     H12274  12.240   6.056   2.173 -1.3026 -1.6425 -0.0316
  832MOL0     H12275  12.362   6.115   2.051  0.1391 -0.9785 -0.2776
  832MOL0     H12276  12.148   6.014   1.960 -0.2387  0.2876 -4.4457
  832MOL0     H12277  12.204   5.858   2.019 -0.4933  2.3902  0.6440
  832MOL0     H12278  12.404   5.884   1.873 -0.6092 -0.3846 -0.7155
  832MOL0     H12279  12.332   6.046   1.818 -0.6234  1.3194  0.7479
  832MOL0     H12280  12.136   5.882   1.518  0.2490  0.4601 -0.0297
  832MOL0     H12281  12.243   5.796   1.291 -0.3996 -0.6625  0.2274
  832MOL0     H12282  12.737   5.909   1.055 -3.1515  0.4734 -2.2585
  832MOL0     H12283  12.835   5.846   0.818  1.1553 -0.1160 -0.2092
  832MOL0     H12284  12.795   5.392   0.713 -1.3549 -1.0085 -2.2745
  832MOL0     H12285  12.690   5.512   0.654  0.8024  2.6347 -0.7752
  832MOL0     H12286  12.893   5.592   0.497  2.8130 -0.9592 -3.4613
  832MOL0     H12287  12.968   5.450   0.567 -0.3099  1.6424  2.7390
  832MOL0     H12288  12.719   5.468   0.387 -1.8679 -0.9963  0.4319
  832MOL0     H12289  12.874   5.383   0.349  0.3224 -2.3025  0.5316
  832MOL0     H12290  12.681   5.240   0.396 -1.0103  1.4696  0.3763
  832MOL0     H12291  12.680   5.281   0.569  1.7474 -1.6351  0.1674
  832MOL0     H12292  12.881   5.202   0.609 -2.3563 -1.9640  2.0479
  832MOL0     H12293  12.938   5.176   0.444  1.4463 -0.6924  0.2130
  832MOL0     H12294  12.701   5.038   0.577  1.7989  2.6697  1.7787
  832MOL0     H12295  12.755   5.003   0.411 -0.9087 -1.5421  1.0111
  832MOL0     H12296  12.821   4.825   0.562 -1.4887  1.4082  1.1514
  832MOL0     H12297  12.886   4.915   0.681 -0.9357 -3.9223  0.5166
  832MOL0     H12298  12.997   4.904   0.401  1.1490 -1.7862 -0.5295
  832MOL0     H12299  13.082   4.990   0.529  1.2199 -1.3994 -0.9798
  832MOL0     H12300  12.742   5.440   0.918  3.1496  0.7872 -1.3155
  832MOL0     H12301  12.646   5.508   1.135  0.2393 -0.2582 -0.3555
  832MOL0     H12302  12.614   5.780   1.521  0.4582 -3.2588 -3.4129
  832MOL0     H12303  12.523   5.847   1.703  1.9916  0.8841 -2.9235
  832MOL0     H12304  11.742   4.751   2.810  0.9337  1.4670  0.6416
  832MOL0     H12305  11.519   4.688   2.906 -0.4138  0.4193 -0.8071
  832MOL0     H12306  11.001   5.016   3.037 -4.2818  0.9724  0.8857
  832MOL0     H12307  10.776   4.943   3.088  1.3430  2.9470 -0.9346
  832MOL0     H12308  10.542   4.843   3.099 -2.1509 -1.1409 -0.9475
  832MOL0     H12309  10.648   4.804   3.247 -0.9015  0.6625 -0.3129
  832MOL0     H12310  10.526   4.586   3.232 -0.0775  0.5982  0.3193
  832MOL0     H12311  10.411   4.654   3.119 -2.7534  1.0860  1.3808
  832MOL0     H12312  10.357   4.841   3.267 -0.2380  0.0225  0.0743
  832MOL0     H12313  10.457   4.772   3.399  0.1351 -1.4420  0.2919
  832MOL0     H12314  10.191   4.726   3.400 -1.3638 -3.1398  1.9125
  832MOL0     H12315  10.224   4.618   3.269 -3.0991 -0.5946  2.4884
  832MOL0     H12316  10.398   4.468   3.631 -1.1044 -1.0752 -0.9558
  832MOL0     H12317  10.875   4.550   2.962  0.8344 -0.3345  0.9415
  832MOL0     H12318  11.206   4.580   2.948  0.2205 -1.4822 -1.5414
  832MOL0     H12319  11.058   4.480   2.906 -0.8785 -1.0115 -0.5643
  832MOL0     H12320  11.129   4.616   2.796 -0.6706  0.3824  0.5701
  833MOL0     O12321   9.112   2.550  11.167 -0.4727  0.2179  0.3801
  833MOL0     C12322   9.082   2.591  11.058  0.7081  0.1925  0.3963
  833MOL0     O12323   9.114   2.527  10.935 -0.2387 -0.5321 -0.4525
  833MOL0     C12324   9.178   2.410  10.957  0.7551  0.1322 -0.4099
  833MOL0     C12325   9.118   2.297  11.019  0.1615  0.6623 -0.0138
  833MOL0     C12326   9.195   2.182  11.061 -0.0435 -0.1545  1.1509
  833MOL0     C12327   9.336   2.183  11.038  0.0704  0.1561 -0.2648
  833MOL0     O12328   9.425   2.074  11.054  0.1633 -0.2968 -0.9250
  833MOL0     C12329   9.382   1.991  11.162  0.0381  0.7859  0.6911
  833MOL0     C12330   9.313   1.876  11.112 -0.2489  0.1957  0.9503
  833MOL0     C12331   9.250   1.796  11.224  0.2426 -0.2748 -0.1558
  833MOL0     C12332   9.200   1.666  11.171  0.7751 -0.0402  0.5476
  833MOL0     C12333   9.071   1.684  11.082 -0.7046 -0.1935 -0.7528
  833MOL0     C12334   9.062   1.546  11.026 -0.3198  0.8220 -0.4685
  833MOL0     C12335   8.957   1.534  10.919  0.5227  0.1220  0.5555
  833MOL0     C12336   8.816   1.524  10.983 -1.0825  1.1262 -0.1192
  833MOL0     N12337   8.719   1.506  10.883 -0.0209 -0.2925  0.5460
  833MOL0     C12338   8.600   1.447  10.897 -0.7808 -0.3872  0.3761
  833MOL0     C12339   8.533   1.486  10.782  0.3686  1.2841 -0.4410
  833MOL0     C12340   8.397   1.458  10.736  0.3186  0.2420  0.1630
  833MOL0     C12341   8.296   1.573  10.770  0.0259  0.3768  0.6185
  833MOL0     C12342   8.323   1.664  10.884  0.0291  0.2104  0.5564
  833MOL0     C12343   8.194   1.723  10.930 -0.0389  0.1595 -0.1483
  833MOL0     O12344   8.222   1.838  11.004  0.5895 -0.4091 -0.1430
  833MOL0     C12345   8.112   1.898  11.060 -0.6693 -0.0572 -0.4525
  833MOL0     C12346   8.106   2.038  11.073 -0.4816  0.5445  0.2512
  833MOL0     C12347   7.995   2.107  11.114  0.0092  0.2839  0.2531
  833MOL0     C12348   7.884   2.042  11.161  0.3931 -0.8248  0.2903
  833MOL0     C12349   7.756   2.112  11.214 -0.4708  0.7569  0.6682
  833MOL0     O12350   7.655   2.036  11.259  0.4165  0.1602 -0.0530
  833MOL0     C12351   7.559   2.107  11.324  0.3039 -0.1225  0.7051
  833MOL0     C12352   7.441   2.140  11.248 -0.2510  0.3442  0.4150
  833MOL0     C12353   7.336   2.208  11.310 -0.0737  0.7519  0.3646
  833MOL0     C12354   7.340   2.239  11.451 -0.8123  0.1142  0.7330
  833MOL0     O12355   7.240   2.295  11.527 -0.3158  0.0434 -0.5976
  833MOL0     C12356   7.101   2.270  11.493 -0.0177 -0.3767  0.0439
  833MOL0     C12357   7.014   2.338  11.599  0.5544 -0.1629 -0.2144
  833MOL0     C12358   6.867   2.314  11.571  0.4763 -0.2012  0.1952
  833MOL0     C12359   6.784   2.421  11.627  0.4389 -0.1208 -0.2885
  833MOL0     C12360   6.630   2.394  11.624 -0.7247  0.2596 -0.6679
  833MOL0     C12361   6.555   2.461  11.510  1.2998  0.9468 -0.3024
  833MOL0     C12362   6.433   2.387  11.475 -0.1065 -0.2794  0.5523
  833MOL0     C12363   6.343   2.336  11.583  1.0813  0.2271  0.0860
  833MOL0    Cl12364   6.194   2.274  11.499  0.1768 -0.2981 -0.1813
  833MOL0     C12365   7.461   2.199  11.518 -0.0913 -0.5569 -0.2179
  833MOL0     C12366   7.567   2.138  11.461 -0.4674 -0.2227  0.3458
  833MOL0     O12367   7.763   2.233  11.208  0.0723  0.0826 -1.3035
  833MOL0     C12368   7.890   1.901  11.160  0.1609 -0.0598 -0.0594
  833MOL0     C12369   8.001   1.827  11.111  0.6350 -0.8261 -0.3221
  833MOL0     N12370   8.605   1.575  10.706 -0.1276  0.2978 -0.3089
  833MOL0     N12371   8.720   1.563  10.755  0.2834 -0.5627  0.4666
  833MOL0     C12372   9.396   2.298  10.986 -0.0270  0.2702 -0.1520
  833MOL0     C12373   9.317   2.408  10.948  0.4957 -0.1043  0.5995
  833MOL0     C12374   9.007   2.725  11.050  0.0119  0.5693 -0.3861
  833MOL0     C12375   8.968   2.772  10.926  0.4159 -0.3756 -0.5907
  833MOL0     C12376   8.927   2.903  10.902 -0.1935 -0.4052  0.0099
  833MOL0     C12377   8.933   3.000  10.997  0.2005 -0.6028  0.0268
  833MOL0     O12378   8.907   3.130  10.949 -0.0026 -0.4192 -0.5443
  833MOL0     C12379   8.886   3.232  11.048 -0.5686  0.4649  0.3535
  833MOL0     C12380   9.008   3.331  11.039 -0.9329 -0.4944 -0.3212
  833MOL0     C12381   9.138   3.273  11.105 -0.1969 -0.0230  0.0601
  833MOL0     C12382   9.252   3.371  11.098  0.1730 -0.4306  0.0933
  833MOL0     C12383   9.225   3.491  11.186  0.7473  0.4127  0.6753
  833MOL0     C12384   9.202   3.600  11.233  0.2617  0.2594  0.1844
  833MOL0     C12385   8.951   2.956  11.133 -0.1081  0.4987  0.7931
  833MOL0     C12386   8.985   2.820  11.161  0.2076  0.1112  0.9985
  833MOL0     C12387   9.016   2.786  11.302 -0.4832 -0.3132 -0.0622
  833MOL0     H12388   9.011   2.287  11.030  0.1291  0.1103 -0.8205
  833MOL0     H12389   9.147   2.093  11.100 -0.6861 -0.6700 -0.7121
  833MOL0     H12390   9.465   1.953  11.223  1.1611  3.2524  0.8364
  833MOL0     H12391   9.329   2.054  11.234 -0.4147  4.3022 -2.4112
  833MOL0     H12392   9.398   1.821  11.070 -0.1785  0.9198  0.0965
  833MOL0     H12393   9.248   1.899  11.027  0.8725 -1.9942 -0.6031
  833MOL0     H12394   9.163   1.845  11.268  0.1638 -0.2965 -0.2876
  833MOL0     H12395   9.323   1.771  11.301 -0.6884  0.0605  0.8462
  833MOL0     H12396   9.280   1.609  11.123  0.7668 -0.3941  0.9572
  833MOL0     H12397   9.176   1.607  11.260 -1.6275  1.1163  0.7651
  833MOL0     H12398   8.981   1.706  11.140 -0.2913  1.7192 -0.7884
  833MOL0     H12399   9.089   1.760  11.005 -1.1501  0.0213 -0.6481
  833MOL0     H12400   9.159   1.533  10.978 -0.7464  0.6952 -1.3122
  833MOL0     H12401   9.037   1.473  11.104 -0.2827 -0.6433 -1.7794
  833MOL0     H12402   8.978   1.449  10.853  0.1734  0.6776 -0.2793
  833MOL0     H12403   8.958   1.618  10.849 -0.2690 -1.1540 -1.0387
  833MOL0     H12404   8.810   1.437  11.050 -2.4359  1.5139  0.2963
  833MOL0     H12405   8.801   1.616  11.041 -0.6112 -0.2924  2.4075
  833MOL0     H12406   8.547   1.411  10.985  1.0924 -1.7784  1.0064
  833MOL0     H12407   8.399   1.447  10.628 -2.1206 -0.2280  0.1061
  833MOL0     H12408   8.359   1.367  10.784  4.7080 -0.6993  2.4048
  833MOL0     H12409   8.310   1.640  10.685  0.5258  1.4044  1.4826
  833MOL0     H12410   8.194   1.534  10.768 -0.1486  0.6759  2.1804
  833MOL0     H12411   8.393   1.741  10.849 -1.7496  1.7357  0.1945
  833MOL0     H12412   8.364   1.613  10.971 -1.9169  0.3579  1.6243
  833MOL0     H12413   8.146   1.650  10.996 -0.6053 -0.0266 -0.7589
  833MOL0     H12414   8.125   1.753  10.850 -2.5522 -0.1570  1.7892
  833MOL0     H12415   8.192   2.096  11.042 -1.2214  1.2572 -0.5155
  833MOL0     H12416   8.001   2.214  11.132 -2.2291  0.3508  0.8381
  833MOL0     H12417   7.432   2.108  11.145 -2.2884 -1.7790  1.1750
  833MOL0     H12418   7.246   2.215  11.249 -1.0769 -0.1725  1.6756
  833MOL0     H12419   7.072   2.318  11.399  1.0997  2.0497  0.8590
  833MOL0     H12420   7.074   2.164  11.496 -1.6609  0.0030  2.3876
  833MOL0     H12421   7.045   2.294  11.694 -2.8568 -0.0705  1.0825
  833MOL0     H12422   7.029   2.447  11.601  1.3982 -0.2060 -2.1988
  833MOL0     H12423   6.844   2.312  11.464 -1.6781  0.5677  0.5934
  833MOL0     H12424   6.847   2.212  11.604  1.3555 -0.2656  0.5454
  833MOL0     H12425   6.816   2.514  11.578  2.0932  0.0453  1.0072
  833MOL0     H12426   6.808   2.428  11.734 -2.2229 -1.6130  0.5169
  833MOL0     H12427   6.592   2.446  11.713  0.0983  4.0510 -2.3603
  833MOL0     H12428   6.603   2.288  11.626 -1.3963  0.4228 -0.4885
  833MOL0     H12429   6.527   2.561  11.542 -2.8318 -0.8048  2.5253
  833MOL0     H12430   6.608   2.468  11.415  0.1953 -2.5572 -1.3520
  833MOL0     H12431   6.466   2.300  11.419  1.4969 -1.3191  2.9318
  833MOL0     H12432   6.373   2.442  11.402  0.9863 -1.4280 -1.2848
  833MOL0     H12433   6.381   2.257  11.649 -3.6702 -0.4298  2.5014
  833MOL0     H12434   6.315   2.413  11.655 -3.8152 -2.2010  1.2573
  833MOL0     H12435   7.479   2.245  11.615  0.6374  3.0488 -1.8615
  833MOL0     H12436   7.654   2.107  11.517  0.9976 -1.1718 -2.3156
  833MOL0     H12437   7.802   1.851  11.198 -2.6175  0.9557 -4.3791
  833MOL0     H12438   7.998   1.719  11.112  2.3551 -0.9478 -2.5820
  833MOL0     H12439   9.505   2.295  10.984 -0.0047 -3.3045 -0.2902
  833MOL0     H12440   9.355   2.500  10.906  2.1270 -0.3770  1.4085
  833MOL0     H12441   8.972   2.701  10.844 -1.4916 -0.7831 -0.3750
  833MOL0     H12442   8.901   2.942  10.804  0.6464  1.9381  0.6334
  833MOL0     H12443   8.883   3.209  11.155 -1.1283 -1.0218  0.0338
  833MOL0     H12444   8.791   3.280  11.021 -0.0514  0.7621 -1.0263
  833MOL0     H12445   8.986   3.419  11.100 -0.5033 -2.6895  3.2726
  833MOL0     H12446   9.020   3.356  10.933  0.0695  0.5619  0.0144
  833MOL0     H12447   9.179   3.179  11.064  0.8205  0.2637  0.3904
  833MOL0     H12448   9.124   3.257  11.212  1.1825  1.9997  0.5939
  833MOL0     H12449   9.349   3.326  11.119 -0.8744 -1.9283  2.0779
  833MOL0     H12450   9.260   3.405  10.994  1.5734 -3.1541 -0.7943
  833MOL0     H12451   9.171   3.691  11.281  2.8557  1.0508  0.5019
  833MOL0     H12452   8.944   3.021  11.219  0.2747 -1.5714  2.4728
  833MOL0     H12453   8.974   2.691  11.338 -2.1087  1.5370  3.4410
  833MOL0     H12454   9.123   2.781  11.324 -1.0787  1.6147  4.5615
  833MOL0     H12455   8.977   2.862  11.370  1.9135  2.1902 -1.3099
  834MOL0     O12456  10.024   4.896  10.978 -0.4333  0.3950 -0.5576
  834MOL0     C12457   9.966   4.831  11.063  0.2398 -0.5819 -0.2945
  834MOL0     O12458  10.020   4.790  11.175  0.6163 -0.2348 -0.3343
  834MOL0     C12459  10.157   4.801  11.197 -0.5076  0.0297 -0.4299
  834MOL0     C12460  10.211   4.927  11.214 -0.2652  0.5743 -0.1320
  834MOL0     C12461  10.343   4.937  11.269 -0.2204 -0.2555  0.2431
  834MOL0     C12462  10.420   4.824  11.311 -0.4569  0.0529 -0.0217
  834MOL0     O12463  10.544   4.845  11.358 -0.0937  0.5492  0.6945
  834MOL0     C12464  10.631   4.910  11.267 -0.3698  0.0411 -0.7327
  834MOL0     C12465  10.770   4.858  11.315 -0.0516 -0.5101 -0.1643
  834MOL0     C12466  10.821   4.742  11.241  0.0898 -0.6683 -0.0435
  834MOL0     C12467  10.955   4.673  11.292  0.8332  0.0423 -0.8406
  834MOL0     C12468  11.012   4.550  11.220  1.1034 -0.3132  0.5495
  834MOL0     C12469  11.141   4.494  11.286  1.1718 -0.7334  0.0129
  834MOL0     C12470  11.118   4.435  11.427 -0.0479 -0.4426  0.1871
  834MOL0     C12471  11.253   4.392  11.495  0.9564 -0.3112 -0.6247
  834MOL0     N12472  11.317   4.280  11.425  0.3218  0.1785 -0.3179
  834MOL0     C12473  11.368   4.169  11.490  0.7038 -0.2895 -0.1081
  834MOL0     C12474  11.439   4.106  11.391 -0.2574  0.0571 -0.1689
  834MOL0     C12475  11.518   3.978  11.403 -0.1299 -0.2568  0.2338
  834MOL0     C12476  11.646   3.991  11.498 -0.0423  0.0082  0.0491
  834MOL0     C12477  11.714   3.854  11.501  0.5459 -0.3595 -1.0078
  834MOL0     C12478  11.849   3.849  11.566 -0.1825 -0.3382 -0.8993
  834MOL0     O12479  11.845   3.852  11.718 -0.4344 -0.6882  0.1710
  834MOL0     C12480  11.943   3.846  11.807  0.5337 -0.0719 -0.8592
  834MOL0     C12481  12.074   3.809  11.771 -0.3264  0.5314 -0.4104
  834MOL0     C12482  12.177   3.813  11.869 -0.6215 -0.7131 -0.0606
  834MOL0     C12483  12.146   3.840  12.004  0.1734 -0.0183  0.2693
  834MOL0     C12484  12.262   3.832  12.099  0.3389 -1.0024  0.1037
  834MOL0     O12485  12.387   3.822  12.057 -0.2436  0.1238  0.1129
  834MOL0     C12486  12.503   3.815  12.142  0.0455  1.4728 -0.4496
  834MOL0     C12487  12.505   3.777  12.279 -0.2724 -0.2599 -0.4763
  834MOL0     C12488  12.618   3.804  12.357 -0.6437  0.0547  0.5642
  834MOL0     C12489  12.728   3.879  12.303  0.2966 -0.4932  0.9674
  834MOL0     O12490  12.818   3.930  12.389 -1.1593 -0.2965  0.2527
  834MOL0     C12491  12.953   3.943  12.343 -0.0379 -0.7001  0.2570
  834MOL0     C12492  13.052   3.938  12.460 -0.6902 -0.7679 -0.3559
  834MOL0     C12493  13.157   4.050  12.447 -0.5186  0.3361  0.1216
  834MOL0     C12494  13.270   4.015  12.343 -0.0696 -0.0119 -0.3176
  834MOL0     C12495  13.388   3.937  12.415 -1.2813  0.3368 -0.4792
  834MOL0     C12496  13.512   3.921  12.325  0.1265 -0.1520 -0.1420
  834MOL0     C12497  13.627   3.833  12.384  0.4675 -0.5183  1.1133
  834MOL0     C12498  13.735   3.802  12.279  0.2644 -0.4897 -0.0276
  834MOL0    Cl12499  13.859   3.921  12.288  0.0477 -0.1883  0.0046
  834MOL0     C12500  12.729   3.900  12.167 -0.1608 -0.7994 -0.0498
  834MOL0     C12501  12.624   3.856  12.085 -0.0839 -0.4138  0.2453
  834MOL0     O12502  12.230   3.837  12.217 -0.0820 -0.0593  0.1045
  834MOL0     C12503  12.021   3.874  12.034  0.7395  1.1019  0.4957
  834MOL0     C12504  11.917   3.874  11.940 -0.2475 -0.5978 -0.0780
  834MOL0     N12505  11.448   4.191  11.285  0.4537 -0.4502  0.4668
  834MOL0     N12506  11.371   4.300  11.301  0.7185  1.0928 -0.5358
  834MOL0     C12507  10.361   4.702  11.300  0.1379  0.3070 -0.3476
  834MOL0     C12508  10.230   4.691  11.239  0.1184  1.0435 -0.2747
  834MOL0     C12509   9.816   4.833  11.061 -0.1814  0.5389  0.2170
  834MOL0     C12510   9.756   4.866  10.938 -0.2546  0.2358  0.6699
  834MOL0     C12511   9.615   4.868  10.922  0.2146 -0.2536  0.4142
  834MOL0     C12512   9.527   4.843  11.024  0.6988  0.6117  0.1680
  834MOL0     O12513   9.393   4.855  10.992  0.1741  0.0765  0.0915
  834MOL0     C12514   9.287   4.832  11.091 -0.2657  0.0217 -0.6481
  834MOL0     C12515   9.155   4.894  11.056 -0.6390  0.6291 -0.2663
  834MOL0     C12516   9.158   5.047  11.069 -0.0023  0.2322  0.1850
  834MOL0     C12517   9.016   5.092  11.035 -0.0848 -0.0942 -0.5140
  834MOL0     C12518   8.925   5.061  11.152  0.2522 -0.3276  0.4402
  834MOL0     C12519   8.849   5.031  11.243  0.2476 -0.4829  0.4239
  834MOL0     C12520   9.590   4.817  11.148 -0.1517  0.8278 -0.4721
  834MOL0     C12521   9.727   4.810  11.166  0.3336  0.6955  0.0372
  834MOL0     C12522   9.768   4.803  11.312 -0.7280  0.0216 -0.0081
  834MOL0     H12523  10.161   5.017  11.180  0.0659  0.3169 -1.3219
  834MOL0     H12524  10.388   5.035  11.276 -0.4324 -0.0816 -0.6702
  834MOL0     H12525  10.604   4.883  11.164  1.7093 -1.0673 -1.0348
  834MOL0     H12526  10.625   5.018  11.279  0.4803  0.0007  0.2138
  834MOL0     H12527  10.763   4.824  11.419  0.6470 -1.4168 -0.4027
  834MOL0     H12528  10.845   4.938  11.322 -0.6838 -0.0460  2.2708
  834MOL0     H12529  10.814   4.758  11.133 -1.4967  0.5286  0.2037
  834MOL0     H12530  10.744   4.666  11.258 -1.4674  0.2394 -2.4926
  834MOL0     H12531  11.041   4.741  11.294  1.6113 -0.8453  2.5584
  834MOL0     H12532  10.934   4.636  11.393  0.6192 -0.1832 -0.9690
  834MOL0     H12533  10.933   4.474  11.211  0.2039  0.6137  0.4022
  834MOL0     H12534  11.025   4.585  11.117  0.7918  3.0173  1.5215
  834MOL0     H12535  11.168   4.425  11.206  2.8058  1.3562 -1.3426
  834MOL0     H12536  11.216   4.573  11.296 -0.0131  0.3809  0.4378
  834MOL0     H12537  11.061   4.342  11.417  0.0822 -0.6700  1.4686
  834MOL0     H12538  11.074   4.509  11.494 -2.8139 -0.7112 -1.2035
  834MOL0     H12539  11.319   4.477  11.512  0.2244  0.1954 -0.2289
  834MOL0     H12540  11.227   4.355  11.595  0.9737  2.7163  0.6159
  834MOL0     H12541  11.366   4.145  11.595 -0.1400 -0.0161 -0.0562
  834MOL0     H12542  11.448   3.905  11.445 -0.1012  0.5257  1.7380
  834MOL0     H12543  11.545   3.949  11.302 -1.2018 -1.1017  0.1700
  834MOL0     H12544  11.719   4.067  11.468  1.7719 -0.8888  1.9494
  834MOL0     H12545  11.601   4.015  11.594 -4.6484  0.1654 -1.8937
  834MOL0     H12546  11.724   3.814  11.400 -1.4874 -0.5094 -1.2045
  834MOL0     H12547  11.652   3.785  11.560  0.1225  2.8433  2.7200
  834MOL0     H12548  11.906   3.936  11.534  1.5420 -1.5963 -1.3831
  834MOL0     H12549  11.904   3.759  11.536 -4.9267 -3.2149 -2.0046
  834MOL0     H12550  12.099   3.777  11.671  0.9576  2.3884 -0.7493
  834MOL0     H12551  12.278   3.820  11.829 -0.7189  0.1096 -0.1777
  834MOL0     H12552  12.424   3.716  12.318  0.6350 -1.6330 -0.6708
  834MOL0     H12553  12.597   3.793  12.463 -0.7078  2.9122  0.9318
  834MOL0     H12554  12.978   3.864  12.271 -1.3654  1.7397 -3.1682
  834MOL0     H12555  12.969   4.036  12.288  0.5468 -1.6875 -1.3316
  834MOL0     H12556  13.006   3.948  12.559 -1.6030 -0.2034 -0.8281
  834MOL0     H12557  13.094   3.837  12.468  4.2052  1.0772  0.5762
  834MOL0     H12558  13.106   4.139  12.408 -0.6772 -0.2427 -1.0502
  834MOL0     H12559  13.209   4.064  12.542 -0.8888 -2.4021  0.8131
  834MOL0     H12560  13.305   4.107  12.295 -2.0428 -0.1318 -2.1311
  834MOL0     H12561  13.231   3.944  12.270  1.4618 -2.9446  1.5297
  834MOL0     H12562  13.355   3.841  12.454 -0.7134  1.5008  3.2383
  834MOL0     H12563  13.417   3.990  12.506  1.0162 -1.8186  0.1683
  834MOL0     H12564  13.484   3.884  12.226  1.0637  1.2559 -0.9637
  834MOL0     H12565  13.554   4.021  12.312 -0.6677  0.3117  0.7127
  834MOL0     H12566  13.577   3.742  12.419 -2.1204  0.9965  1.6160
  834MOL0     H12567  13.672   3.869  12.477  1.1767  0.1393  0.5320
  834MOL0     H12568  13.777   3.702  12.295  0.3110 -0.8513 -2.1529
  834MOL0     H12569  13.695   3.808  12.178 -1.8614  0.7726  0.8379
  834MOL0     H12570  12.816   3.950  12.128  1.5518 -1.6786  2.4108
  834MOL0     H12571  12.631   3.894  11.984  1.9762  0.9929  0.8584
  834MOL0     H12572  11.993   3.877  12.139  0.5883 -4.1059  0.8686
  834MOL0     H12573  11.821   3.912  11.973 -0.3540 -1.3128  0.4426
  834MOL0     H12574  10.423   4.616  11.323 -0.1588  0.4439  1.0543
  834MOL0     H12575  10.197   4.589  11.222  2.1211  0.2684  0.1777
  834MOL0     H12576   9.823   4.858  10.854  0.4082 -4.5693  1.3670
  834MOL0     H12577   9.586   4.891  10.820 -0.0480  0.3859  0.6279
  834MOL0     H12578   9.318   4.871  11.188  0.7216 -1.0464 -0.5093
  834MOL0     H12579   9.271   4.724  11.101 -0.6699  0.0370 -1.1051
  834MOL0     H12580   9.084   4.857  11.131 -0.1294  1.4446  0.6547
  834MOL0     H12581   9.145   4.857  10.954  1.2122  1.2352 -0.7003
  834MOL0     H12582   9.224   5.073  10.985 -0.4131  0.7330  0.0154
  834MOL0     H12583   9.193   5.082  11.166  0.8510 -0.8992  0.3086
  834MOL0     H12584   9.014   5.200  11.014  1.5808  0.1605  0.4515
  834MOL0     H12585   8.997   5.044  10.938 -3.1190 -0.6167  0.2498
  834MOL0     H12586   8.812   4.998  11.338  0.6131 -0.6636  0.5073
  834MOL0     H12587   9.518   4.802  11.228  1.2600  0.1981  0.7157
  834MOL0     H12588   9.862   4.858  11.325 -0.5903 -0.2471  0.1194
  834MOL0     H12589   9.704   4.856  11.383  1.0701 -0.0710  1.7892
  834MOL0     H12590   9.768   4.696  11.334 -2.5309  0.1894  0.9203
  835MOL0     O12591   6.023   9.965   8.419 -0.5214 -0.8512  0.6205
  835MOL0     C12592   5.978   9.974   8.530 -0.3452 -0.1291  0.7410
  835MOL0     O12593   6.034   9.921   8.639 -0.2396 -0.9405 -0.3957
  835MOL0     C12594   6.167   9.900   8.668 -0.0915 -0.8897  0.2981
  835MOL0     C12595   6.271   9.960   8.593  0.7147  0.1057  0.4096
  835MOL0     C12596   6.403   9.924   8.615  0.2229 -0.5295  0.1297
  835MOL0     C12597   6.444   9.843   8.722 -0.4944 -0.1395 -0.0103
  835MOL0     O12598   6.573   9.814   8.768  1.3409 -0.3429 -0.4891
  835MOL0     C12599   6.686   9.874   8.705  0.0153 -0.0771 -0.1185
  835MOL0     C12600   6.805   9.861   8.795 -0.8662  0.1606 -0.0203
  835MOL0     C12601   6.930   9.949   8.759  0.3656 -0.4156  0.0263
  835MOL0     C12602   7.024   9.975   8.879  0.1318  0.2771 -0.3375
  835MOL0     C12603   7.124   9.856   8.897  0.6384 -0.7834 -0.4599
  835MOL0     C12604   7.220   9.891   9.017  0.1360  0.2974 -0.3092
  835MOL0     C12605   7.359   9.812   9.004 -0.1299  0.6104  0.2797
  835MOL0     C12606   7.446   9.846   9.129  0.9775  0.8293  0.5565
  835MOL0     N12607   7.586   9.807   9.126 -0.4551  0.1451 -0.1969
  835MOL0     C12608   7.668   9.789   9.240  0.8885 -0.0164  0.4752
  835MOL0     C12609   7.792   9.789   9.200 -0.2182 -0.1177 -0.2356
  835MOL0     C12610   7.898   9.762   9.305 -0.6168 -0.6274  0.7391
  835MOL0     C12611   8.035   9.772   9.242 -0.4976 -0.1655  0.1263
  835MOL0     C12612   8.149   9.718   9.327  0.4611 -0.4827  1.0324
  835MOL0     C12613   8.174   9.819   9.437 -0.4611  0.2626 -0.1119
  835MOL0     O12614   8.298   9.794   9.498  0.0865 -0.3593  0.0018
  835MOL0     C12615   8.416   9.840   9.450  0.2279  0.3066  0.0809
  835MOL0     C12616   8.432   9.937   9.345 -0.0672 -0.2208 -0.6167
  835MOL0     C12617   8.561   9.975   9.302  0.0237 -0.0234  0.0622
  835MOL0     C12618   8.675   9.901   9.336  0.1748 -0.4439  0.3130
  835MOL0     C12619   8.812   9.937   9.281  0.2915  0.3966 -0.1302
  835MOL0     O12620   8.911   9.841   9.281 -0.0535  0.4235 -0.2799
  835MOL0     C12621   9.030   9.880   9.231 -0.0518 -0.8363 -0.5224
  835MOL0     C12622   9.032   9.929   9.099 -1.0162  0.2656  0.1112
  835MOL0     C12623   9.159   9.960   9.040 -1.0991  0.5237 -0.6142
  835MOL0     C12624   9.286   9.954   9.113 -0.9325  0.0910  0.3063
  835MOL0     O12625   9.395   9.980   9.044  0.0664 -0.0362 -0.3345
  835MOL0     C12626   9.519  10.012   9.106 -0.6125 -0.1946  0.1258
  835MOL0     C12627   9.636  10.040   9.011 -0.2358  0.3541  0.2093
  835MOL0     C12628   9.771  10.069   9.075 -0.3136 -0.5573  1.0268
  835MOL0     C12629   9.868  10.127   8.965  0.7645  0.6803  0.6393
  835MOL0     C12630   9.844  10.275   8.944  0.0616 -0.2261  0.5590
  835MOL0     C12631   9.974  10.345   8.884  0.5011 -0.0550  0.0892
  835MOL0     C12632  10.099  10.331   8.975  0.0628 -0.1308 -0.3464
  835MOL0     C12633  10.218  10.402   8.910  0.1485  0.6297 -0.0242
  835MOL0    Cl12634  10.190  10.567   8.953 -0.3919 -0.4764  0.0114
  835MOL0     C12635   9.272   9.905   9.238 -0.2720 -0.2716 -0.8797
  835MOL0     C12636   9.148   9.865   9.298  0.4091 -0.1063  0.0665
  835MOL0     O12637   8.825  10.052   9.244 -0.0246 -0.5859  0.5050
  835MOL0     C12638   8.663   9.805   9.433  0.9402  0.2558  0.1800
  835MOL0     C12639   8.534   9.768   9.492  1.2257  0.2959  0.1472
  835MOL0     N12640   7.799   9.811   9.063  1.0045 -0.3327 -0.1324
  835MOL0     N12641   7.673   9.824   9.020 -0.0983  0.2438  0.2057
  835MOL0     C12642   6.339   9.792   8.800  0.2046  0.0010 -0.5527
  835MOL0     C12643   6.204   9.818   8.778  0.4432  0.0219  0.7715
  835MOL0     C12644   5.855  10.033   8.548  1.7146 -0.1028  0.1056
  835MOL0     C12645   5.732   9.978   8.502  0.0436  0.1887  0.1868
  835MOL0     C12646   5.606  10.034   8.536  0.0376 -0.3379 -0.1804
  835MOL0     C12647   5.595  10.141   8.631 -0.9245  0.1814 -0.1199
  835MOL0     O12648   5.471  10.182   8.667 -0.0040  0.3831  0.2433
  835MOL0     C12649   5.446  10.281   8.770  0.0762 -0.3415 -0.2758
  835MOL0     C12650   5.474  10.429   8.723 -0.1941  1.1207  0.0895
  835MOL0     C12651   5.397  10.490   8.600  0.5279 -0.1355  0.3507
  835MOL0     C12652   5.458  10.624   8.564 -0.2828 -0.5044  0.0682
  835MOL0     C12653   5.589  10.600   8.513 -0.1725  0.3535  0.3840
  835MOL0     C12654   5.705  10.576   8.471  0.1200 -0.2548 -0.2650
  835MOL0     C12655   5.727  10.201   8.671  0.9069 -0.6901  1.1651
  835MOL0     C12656   5.846  10.152   8.631  0.1381 -0.6314 -0.5395
  835MOL0     C12657   5.961  10.211   8.706 -0.6221  0.0156 -0.2111
  835MOL0     H12658   6.236  10.039   8.526 -2.6007 -0.7178  0.9915
  835MOL0     H12659   6.479   9.956   8.545  1.0778 -2.4943  0.0905
  835MOL0     H12660   6.703   9.820   8.612 -0.3997  1.8001 -1.3403
  835MOL0     H12661   6.665   9.978   8.678  1.2374  0.5728  1.2842
  835MOL0     H12662   6.839   9.760   8.770 -0.8252  0.3620 -0.8034
  835MOL0     H12663   6.786   9.878   8.902  0.0954 -1.0833  0.3659
  835MOL0     H12664   6.900  10.051   8.732  0.8598 -0.4909 -0.8475
  835MOL0     H12665   6.986   9.904   8.677 -0.6545 -0.1982 -0.8057
  835MOL0     H12666   7.071  10.073   8.874 -1.2370  1.0013  0.3269
  835MOL0     H12667   6.965   9.976   8.971 -0.3141 -1.0489 -0.5814
  835MOL0     H12668   7.072   9.761   8.916 -1.9317  0.6957  0.4990
  835MOL0     H12669   7.179   9.840   8.804  0.5865 -4.6678  0.0045
  835MOL0     H12670   7.232   9.999   9.011  0.1441  0.2328 -1.7415
  835MOL0     H12671   7.170   9.872   9.113 -0.1998  3.1031  0.1682
  835MOL0     H12672   7.416   9.836   8.915  0.7642  1.2581  1.0065
  835MOL0     H12673   7.349   9.703   9.006  1.6517  0.4073 -0.0164
  835MOL0     H12674   7.446   9.955   9.137  1.4010  0.9612 -0.9324
  835MOL0     H12675   7.399   9.792   9.212  2.0759  1.7608  1.8137
  835MOL0     H12676   7.634   9.765   9.341  3.4334 -0.6686  1.2600
  835MOL0     H12677   7.892   9.833   9.388  4.1678 -2.5327  3.1415
  835MOL0     H12678   7.873   9.663   9.345  0.9252 -1.8486 -1.1390
  835MOL0     H12679   8.037   9.716   9.149  1.6491  1.2370 -0.7504
  835MOL0     H12680   8.065   9.872   9.211  4.1853 -1.2482  0.4290
  835MOL0     H12681   8.238   9.710   9.265 -1.1733  0.2795 -1.5793
  835MOL0     H12682   8.108   9.628   9.374 -0.2043  0.8929  3.2336
  835MOL0     H12683   8.089   9.807   9.505 -0.1257 -1.8644 -0.0080
  835MOL0     H12684   8.176   9.924   9.405  2.1999  0.6382  1.0187
  835MOL0     H12685   8.349   9.997   9.307  1.1513 -0.4417 -4.0145
  835MOL0     H12686   8.563  10.060   9.235  0.1752  1.6747  2.1410
  835MOL0     H12687   8.948   9.961   9.037 -0.0254  1.2762 -0.7358
  835MOL0     H12688   9.166  10.021   8.951  1.9618  0.5640 -0.4525
  835MOL0     H12689   9.497  10.111   9.149 -0.9355 -0.4597  0.5828
  835MOL0     H12690   9.529   9.943   9.190  0.5330 -0.2055 -0.0115
  835MOL0     H12691   9.650   9.953   8.946 -0.4590  0.1437  0.4452
  835MOL0     H12692   9.614  10.125   8.945  1.2286  0.0090 -0.7978
  835MOL0     H12693   9.754  10.131   9.163 -1.8967 -0.4418  0.6637
  835MOL0     H12694   9.820   9.976   9.105  4.0844  0.8186 -1.0212
  835MOL0     H12695   9.863  10.082   8.866  3.3655  1.8367 -0.1039
  835MOL0     H12696   9.968  10.109   9.006  0.1485 -0.5408  1.6947
  835MOL0     H12697   9.822  10.310   9.045  0.2002  0.8889  0.2095
  835MOL0     H12698   9.757  10.292   8.881 -0.8970 -0.7953  1.6904
  835MOL0     H12699   9.999  10.294   8.790  0.8447  2.4067 -1.2218
  835MOL0     H12700   9.951  10.451   8.871 -0.4328 -0.2749 -0.0624
  835MOL0     H12701  10.123  10.226   8.995 -3.8973 -1.3731 -1.1264
  835MOL0     H12702  10.074  10.374   9.073  0.9375  1.5514 -0.8273
  835MOL0     H12703  10.311  10.363   8.953 -0.6873  0.2923  1.5533
  835MOL0     H12704  10.220  10.399   8.801 -0.6726  0.3129 -0.0386
  835MOL0     H12705   9.364   9.874   9.285 -0.1107 -1.1547 -1.7435
  835MOL0     H12706   9.152   9.806   9.390 -1.6932  1.2965  1.1428
  835MOL0     H12707   8.752   9.754   9.466  2.1810  0.9394 -1.9204
  835MOL0     H12708   8.531   9.689   9.567  2.3780  1.6232  1.6722
  835MOL0     H12709   6.356   9.730   8.888 -1.4774 -2.3121 -1.7456
  835MOL0     H12710   6.147   9.765   8.853  1.0761 -2.7996 -0.5938
  835MOL0     H12711   5.723   9.898   8.430 -2.4544  1.2004 -0.7556
  835MOL0     H12712   5.514  10.001   8.490 -1.3943  1.6156  1.1075
  835MOL0     H12713   5.499  10.260   8.863 -0.0151  3.6433  0.8562
  835MOL0     H12714   5.340  10.272   8.797  0.2640  0.1678  0.6541
  835MOL0     H12715   5.581  10.431   8.702 -0.5019  1.1942 -1.5649
  835MOL0     H12716   5.443  10.495   8.805  0.2668  0.1044  1.1208
  835MOL0     H12717   5.295  10.495   8.640  0.9213 -1.4514  1.6203
  835MOL0     H12718   5.399  10.428   8.510  0.2859 -0.5046  0.5943
  835MOL0     H12719   5.386  10.677   8.501 -0.8163 -2.6650 -1.2193
  835MOL0     H12720   5.460  10.687   8.654 -2.2284 -0.7305  0.3021
  835MOL0     H12721   5.798  10.548   8.426 -0.4012 -2.0295 -0.3002
  835MOL0     H12722   5.729  10.285   8.739  0.4012 -0.8605  1.3902
  835MOL0     H12723   5.948  10.290   8.780  2.9088 -2.1440  3.0565
  835MOL0     H12724   6.021  10.137   8.758 -1.4761 -0.4414  0.1517
  835MOL0     H12725   6.023  10.260   8.630 -0.9433 -2.7978 -2.4575
  836MOL0     O12726   8.520   8.097   8.523 -0.0755  0.0308 -0.2686
  836MOL0     C12727   8.517   8.156   8.629  0.2593  0.2784 -0.8922
  836MOL0     O12728   8.620   8.160   8.718  0.4494 -0.2228 -0.1734
  836MOL0     C12729   8.742   8.093   8.691  0.9624 -0.4055 -0.5732
  836MOL0     C12730   8.808   8.119   8.576 -0.1066  0.2112  0.3624
  836MOL0     C12731   8.932   8.047   8.553  0.7677 -0.3877  0.0215
  836MOL0     C12732   8.985   7.959   8.642 -0.3201 -1.4975  0.0380
  836MOL0     O12733   9.113   7.906   8.603  0.2492 -0.0230 -0.1200
  836MOL0     C12734   9.180   7.804   8.686 -0.5609  0.3104 -0.4894
  836MOL0     C12735   9.283   7.877   8.776 -0.4068  0.5131 -0.1635
  836MOL0     C12736   9.349   7.793   8.883  0.2516 -0.1267  0.5069
  836MOL0     C12737   9.486   7.864   8.925  0.4080  0.0404  0.2401
  836MOL0     C12738   9.549   7.797   9.050  0.0917 -0.6685 -0.5239
  836MOL0     C12739   9.463   7.786   9.171  0.5623 -0.3891 -0.3957
  836MOL0     C12740   9.522   7.692   9.285 -0.1846  0.1087  0.3520
  836MOL0     C12741   9.617   7.777   9.376 -0.4102  0.2156  0.3591
  836MOL0     N12742   9.715   7.693   9.454  0.4207 -0.0285  0.8338
  836MOL0     C12743   9.841   7.746   9.490  0.7499 -0.4471 -0.0927
  836MOL0     C12744   9.884   7.652   9.582  0.3869  0.0133  0.1138
  836MOL0     C12745   9.998   7.687   9.675 -0.0357  0.3614  0.5958
  836MOL0     C12746  10.086   7.571   9.691 -0.9530 -0.7080  0.0008
  836MOL0     C12747  10.203   7.585   9.788  0.4742 -1.1948 -0.0895
  836MOL0     C12748  10.283   7.460   9.763 -0.0738  0.2260  0.6209
  836MOL0     O12749  10.378   7.427   9.868 -0.0094 -0.0592 -0.2921
  836MOL0     C12750  10.509   7.468   9.851  0.6749  0.5970  0.0483
  836MOL0     C12751  10.604   7.403   9.931 -0.3982 -0.4879  0.3892
  836MOL0     C12752  10.741   7.423   9.912 -0.2584  0.6763  1.0096
  836MOL0     C12753  10.785   7.510   9.811 -0.6888  1.1500  0.1424
  836MOL0     C12754  10.930   7.538   9.804  0.2146  0.1461  0.1074
  836MOL0     O12755  10.962   7.643   9.721 -0.1535  0.7673 -0.7154
  836MOL0     C12756  11.091   7.672   9.703  0.1209  0.6563  0.1741
  836MOL0     C12757  11.178   7.704   9.808 -0.1417 -0.0147 -0.5713
  836MOL0     C12758  11.308   7.748   9.780 -0.1158 -1.4711 -0.0911
  836MOL0     C12759  11.361   7.755   9.649  0.8148  0.0932  0.8325
  836MOL0     O12760  11.489   7.779   9.605  0.3519 -0.0909  0.0886
  836MOL0     C12761  11.564   7.859   9.686 -0.0801  0.0203 -0.0954
  836MOL0     C12762  11.695   7.896   9.623  0.2143  0.5689  1.2831
  836MOL0     C12763  11.785   7.982   9.709 -0.5355 -0.9234 -0.4654
  836MOL0     C12764  11.889   8.056   9.623 -0.6403  0.6706 -0.0226
  836MOL0     C12765  12.002   8.125   9.707 -0.2603 -1.4636 -0.7003
  836MOL0     C12766  11.960   8.239   9.791  0.4565 -0.2449  0.6112
  836MOL0     C12767  12.069   8.294   9.868 -0.5846 -0.3679  0.0318
  836MOL0     C12768  12.031   8.322  10.018 -0.1663 -0.3081 -0.2328
  836MOL0    Cl12769  12.032   8.169  10.108 -0.0762 -0.2606  0.2587
  836MOL0     C12770  11.276   7.711   9.549  0.5423 -0.5768  0.5608
  836MOL0     C12771  11.145   7.668   9.579  0.2690  0.8046  0.4522
  836MOL0     O12772  11.005   7.461   9.860  0.1159 -0.2359  0.0930
  836MOL0     C12773  10.689   7.578   9.732 -0.0046 -0.0460 -0.3218
  836MOL0     C12774  10.554   7.552   9.746 -0.0911  0.0749 -0.3214
  836MOL0     N12775   9.785   7.553   9.587 -0.4532  0.3587 -0.9141
  836MOL0     N12776   9.682   7.579   9.515  0.7057  0.6015 -0.4271
  836MOL0     C12777   8.926   7.953   8.769  0.3585 -0.3786 -1.1156
  836MOL0     C12778   8.795   8.008   8.796 -0.9402 -0.6469  0.4807
  836MOL0     C12779   8.380   8.213   8.676 -0.3118  0.1434 -0.7106
  836MOL0     C12780   8.373   8.255   8.807  0.2623  0.3100 -0.0347
  836MOL0     C12781   8.254   8.304   8.861  0.6075 -0.1230 -0.3981
  836MOL0     C12782   8.145   8.331   8.787 -0.6332  0.2716  0.1467
  836MOL0     O12783   8.037   8.381   8.850 -0.0654 -0.4715  0.7007
  836MOL0     C12784   7.949   8.464   8.767  0.5566  0.5055 -0.3612
  836MOL0     C12785   7.864   8.553   8.851  0.6393 -0.2715  0.0265
  836MOL0     C12786   7.911   8.661   8.946  0.0930 -0.8877  0.3412
  836MOL0     C12787   7.815   8.697   9.055 -0.2366 -0.4015 -0.2091
  836MOL0     C12788   7.851   8.639   9.185  0.6050  0.5804 -0.3795
  836MOL0     C12789   7.856   8.588   9.295  0.6690  0.2057 -0.2466
  836MOL0     C12790   8.154   8.303   8.651 -0.0495 -1.3970 -0.9526
  836MOL0     C12791   8.267   8.245   8.595 -0.0744 -0.3479 -0.8192
  836MOL0     C12792   8.262   8.227   8.445  0.3009  0.3396 -0.0765
  836MOL0     H12793   8.769   8.191   8.505  1.2875 -0.6340 -1.3485
  836MOL0     H12794   8.977   8.067   8.456 -1.7194  0.4105 -1.0721
  836MOL0     H12795   9.112   7.741   8.743 -0.3752  1.2684  0.8180
  836MOL0     H12796   9.237   7.732   8.625 -1.4239 -0.8778  0.0760
  836MOL0     H12797   9.228   7.962   8.819 -3.9316 -1.0451 -1.2606
  836MOL0     H12798   9.349   7.921   8.700 -1.3325 -1.6534 -2.3274
  836MOL0     H12799   9.374   7.693   8.846 -0.9409 -0.5046  0.6886
  836MOL0     H12800   9.282   7.776   8.968 -2.0466  2.2231 -0.6893
  836MOL0     H12801   9.548   7.875   8.836  1.7168 -0.0672  1.1109
  836MOL0     H12802   9.445   7.964   8.944 -1.0346 -0.9557  2.9798
  836MOL0     H12803   9.576   7.697   9.015 -2.7349 -0.8080 -2.6638
  836MOL0     H12804   9.630   7.865   9.077 -3.7480  4.9622 -1.5074
  836MOL0     H12805   9.454   7.887   9.213 -2.1944  0.4242 -2.6141
  836MOL0     H12806   9.363   7.752   9.143 -0.1795  0.3447  1.2285
  836MOL0     H12807   9.582   7.610   9.245  2.2351  1.5074  0.8525
  836MOL0     H12808   9.439   7.653   9.344 -0.8013  0.3999 -0.3019
  836MOL0     H12809   9.676   7.846   9.315 -1.1571  0.3494 -0.2300
  836MOL0     H12810   9.558   7.835   9.446 -1.7640  0.4260 -0.9049
  836MOL0     H12811   9.889   7.838   9.457 -0.4983  0.6536  1.0841
  836MOL0     H12812  10.065   7.763   9.632  0.6153 -1.2940 -1.5190
  836MOL0     H12813   9.962   7.720   9.772  2.2112  1.4993  1.1273
  836MOL0     H12814  10.019   7.490   9.721  0.2143 -1.5422  0.4288
  836MOL0     H12815  10.120   7.542   9.591 -2.7317  0.8552 -1.1333
  836MOL0     H12816  10.162   7.588   9.889 -0.8914  1.1917 -0.6304
  836MOL0     H12817  10.266   7.673   9.776 -3.0463  1.4974 -0.5967
  836MOL0     H12818  10.329   7.452   9.664  2.3068 -3.9242  1.8303
  836MOL0     H12819  10.209   7.381   9.770  0.1666 -0.0722 -0.1491
  836MOL0     H12820  10.556   7.326   9.990 -6.4086  0.2720 -2.7329
  836MOL0     H12821  10.810   7.370   9.977 -1.0063  0.9563  2.0710
  836MOL0     H12822  11.134   7.689   9.906  0.2938 -3.3864 -0.7991
  836MOL0     H12823  11.376   7.773   9.860  2.0391 -0.7138 -2.0227
  836MOL0     H12824  11.509   7.943   9.729 -0.7667 -1.6312  2.4585
  836MOL0     H12825  11.596   7.795   9.769  2.7323  0.8509 -0.4391
  836MOL0     H12826  11.760   7.811   9.600  0.6579  1.6495 -1.9976
  836MOL0     H12827  11.668   7.943   9.528  0.7790 -1.2501  0.1779
  836MOL0     H12828  11.720   8.057   9.756 -0.3837 -1.3816  0.4841
  836MOL0     H12829  11.827   7.929   9.795 -0.8502  2.1363  1.7579
  836MOL0     H12830  11.844   8.132   9.558 -0.1005  1.1457  0.1558
  836MOL0     H12831  11.946   7.981   9.568 -5.1090 -2.3694 -1.0662
  836MOL0     H12832  12.078   8.161   9.636  0.5240 -0.2048  0.7223
  836MOL0     H12833  12.058   8.053   9.767  1.7137  0.1006 -0.5413
  836MOL0     H12834  11.924   8.316   9.721 -0.8948 -2.2301 -1.0231
  836MOL0     H12835  11.873   8.217   9.854 -0.3802 -2.9451 -1.2896
  836MOL0     H12836  12.106   8.386   9.823 -0.0170 -0.7599 -0.3020
  836MOL0     H12837  12.149   8.221   9.880  0.8122  1.0338 -0.3920
  836MOL0     H12838  12.101   8.391  10.065 -2.8360  1.6856  1.1206
  836MOL0     H12839  11.930   8.365  10.013 -0.1564 -0.3324 -0.7138
  836MOL0     H12840  11.312   7.717   9.447 -1.0279 -1.6098 -0.0872
  836MOL0     H12841  11.077   7.626   9.506  2.3825 -0.1839 -1.0433
  836MOL0     H12842  10.728   7.654   9.664 -0.6071  0.7017  0.1535
  836MOL0     H12843  10.488   7.600   9.675 -1.1333 -1.4483 -0.4174
  836MOL0     H12844   8.957   7.887   8.848  0.6982 -0.0404 -0.9630
  836MOL0     H12845   8.750   7.999   8.894 -0.5928 -2.6976  0.4904
  836MOL0     H12846   8.455   8.233   8.875 -1.5145  1.1037  2.5043
  836MOL0     H12847   8.252   8.333   8.966  1.6417 -0.4007 -0.2865
  836MOL0     H12848   7.878   8.409   8.705 -0.3857  0.7634  0.4818
  836MOL0     H12849   8.001   8.523   8.690 -1.8965  3.3097 -0.0238
  836MOL0     H12850   7.815   8.480   8.916  0.1067 -1.2133 -1.3704
  836MOL0     H12851   7.787   8.601   8.792  0.6622  1.9536  1.7042
  836MOL0     H12852   7.939   8.751   8.889  0.0433 -1.1914 -0.1675
  836MOL0     H12853   8.008   8.634   8.989  1.7111  3.5168  0.0350
  836MOL0     H12854   7.801   8.805   9.052 -0.3308 -0.4304 -1.5577
  836MOL0     H12855   7.716   8.659   9.028  0.1364 -0.4132 -1.6577
  836MOL0     H12856   7.834   8.556   9.395  0.2581  1.0643 -0.0532
  836MOL0     H12857   8.074   8.318   8.580 -2.2543 -2.6537  1.1353
  836MOL0     H12858   8.329   8.294   8.390  0.5241  0.4044  0.2691
  836MOL0     H12859   8.273   8.119   8.428 -2.6509 -0.0152 -0.2291
  836MOL0     H12860   8.160   8.236   8.407  0.6381  3.2117 -0.4801
  837MOL0     O12861   0.160   7.620   0.659 -0.2007 -0.0413  0.1865
  837MOL0     C12862   0.046   7.584   0.636 -0.5038  0.7420  0.5332
  837MOL0     O12863   0.010   7.509   0.523  0.7676 -0.0062  0.0782
  837MOL0     C12864   0.069   7.531   0.407  0.4446 -0.2967 -0.2753
  837MOL0     C12865   0.121   7.423   0.334  0.6789  1.0923  1.2043
  837MOL0     C12866   0.186   7.440   0.211 -0.6486  0.1777  0.1501
  837MOL0     C12867   0.207   7.566   0.167  0.0607  0.4901  0.0256
  837MOL0     O12868   0.264   7.600   0.053 -0.4021 -0.3506 -0.4396
  837MOL0     C12869   0.168   7.623  -0.050  0.3631 -0.1337 -0.1281
  837MOL0     C12870   0.232   7.641  -0.189 -0.7849 -0.3206 -0.1846
  837MOL0     C12871   0.142   7.697  -0.296  0.0232  0.2895  0.7214
  837MOL0     C12872  -0.009   7.638  -0.298 -0.6885 -0.4914  0.3149
  837MOL0     C12873  -0.076   7.701  -0.423 -1.0099 -0.0362 -0.1110
  837MOL0     C12874  -0.204   7.622  -0.452  0.4538 -0.5009 -0.0548
  837MOL0     C12875  -0.269   7.669  -0.582  0.7879 -0.6301 -0.0474
  837MOL0     C12876  -0.355   7.563  -0.662 -1.0750 -0.8738 -0.2433
  837MOL0     N12877  -0.446   7.501  -0.567  0.9072  0.1972  1.1695
  837MOL0     C12878  -0.442   7.368  -0.526 -0.3492 -0.3630 -0.3543
  837MOL0     C12879  -0.545   7.358  -0.440  0.2601 -0.4088 -0.2106
  837MOL0     C12880  -0.569   7.219  -0.380 -0.1397  0.3203 -0.1808
  837MOL0     C12881  -0.722   7.201  -0.361  0.9938  0.7151 -0.0318
  837MOL0     C12882  -0.803   7.203  -0.491  0.4692  0.2602  0.2246
  837MOL0     C12883  -0.792   7.069  -0.567 -0.1318 -0.8103  0.2549
  837MOL0     O12884  -0.907   7.041  -0.650  0.3535 -0.5696  1.6711
  837MOL0     C12885  -0.893   6.929  -0.725 -0.6662 -0.5507 -0.1946
  837MOL0     C12886  -0.768   6.868  -0.756  0.0210  0.2619 -0.4588
  837MOL0     C12887  -0.768   6.746  -0.818  1.4112  0.3940 -0.2850
  837MOL0     C12888  -0.888   6.688  -0.866  0.5747  0.2421 -0.3094
  837MOL0     C12889  -0.880   6.559  -0.941  0.6306 -0.2008  0.7878
  837MOL0     O12890  -1.005   6.503  -0.957 -0.0570 -0.0633  0.2546
  837MOL0     C12891  -1.008   6.401  -1.044  0.3599  0.1182 -0.9703
  837MOL0     C12892  -1.041   6.422  -1.179 -0.9750  0.4611 -0.6509
  837MOL0     C12893  -1.036   6.320  -1.264  0.0416 -0.6860  0.7752
  837MOL0     C12894  -1.018   6.190  -1.215  0.5105 -0.2456  0.6792
  837MOL0     O12895  -1.018   6.079  -1.295  0.4509  0.3036 -0.1451
  837MOL0     C12896  -1.077   6.071  -1.430  0.0178  0.5151  0.3833
  837MOL0     C12897  -1.219   6.033  -1.407  0.5557 -0.6337  0.3935
  837MOL0     C12898  -1.296   6.048  -1.549  0.6738  0.0221  0.9301
  837MOL0     C12899  -1.406   5.948  -1.572  0.1312  0.0677 -0.0603
  837MOL0     C12900  -1.491   5.976  -1.693  0.2391 -0.3750 -0.2192
  837MOL0     C12901  -1.630   5.906  -1.680 -0.2836  0.9330  0.4234
  837MOL0     C12902  -1.729   5.922  -1.802  0.1542 -0.2987 -0.7052
  837MOL0     C12903  -1.768   6.069  -1.829 -0.3251 -0.0215 -1.1936
  837MOL0    Cl12904  -1.893   6.059  -1.950 -0.0668 -0.3743  0.1021
  837MOL0     C12905  -0.998   6.164  -1.077  1.1809  0.8643 -0.2447
  837MOL0     C12906  -0.986   6.274  -0.990  0.1588  0.0748 -0.7580
  837MOL0     O12907  -0.771   6.512  -0.980  0.3569 -0.2175 -0.0336
  837MOL0     C12908  -1.008   6.752  -0.841  0.1233 -0.2932 -0.2717
  837MOL0     C12909  -1.005   6.878  -0.775  0.1805 -0.2338 -0.7875
  837MOL0     N12910  -0.619   7.478  -0.445  0.0067  0.9434 -1.0143
  837MOL0     N12911  -0.556   7.562  -0.528  0.1417  0.5510  0.1792
  837MOL0     C12912   0.155   7.666   0.242  0.0969  0.7437  0.1824
  837MOL0     C12913   0.081   7.656   0.353 -0.6085 -0.5184  0.5464
  837MOL0     C12914  -0.053   7.616   0.724  0.1123 -0.1852 -0.3909
  837MOL0     C12915  -0.146   7.516   0.754 -0.5929 -0.8680  0.1733
  837MOL0     C12916  -0.258   7.546   0.842  0.7006 -0.3669 -0.0104
  837MOL0     C12917  -0.278   7.673   0.900 -0.5800 -0.0282  0.1254
  837MOL0     O12918  -0.379   7.718   0.983  0.0651  0.6347  0.1370
  837MOL0     C12919  -0.479   7.618   1.008 -0.0329  1.4189  0.1148
  837MOL0     C12920  -0.606   7.686   1.053  0.1961 -0.1232 -0.4501
  837MOL0     C12921  -0.722   7.598   1.071  0.6420 -0.0601 -0.4610
  837MOL0     C12922  -0.821   7.657   1.178 -0.6990  0.3678 -0.8020
  837MOL0     C12923  -0.889   7.775   1.126 -0.6944  0.2900 -0.2549
  837MOL0     C12924  -0.939   7.873   1.078  0.5423  0.5267 -0.3786
  837MOL0     C12925  -0.183   7.769   0.857  0.0293  0.1074 -0.0083
  837MOL0     C12926  -0.066   7.747   0.785  0.1944 -0.5160  0.5649
  837MOL0     C12927   0.023   7.871   0.767 -0.1304 -0.2651 -0.5108
  837MOL0     H12928   0.105   7.327   0.384 -0.0786 -0.1168 -1.2115
  837MOL0     H12929   0.239   7.362   0.157 -2.8702 -1.0990 -0.2967
  837MOL0     H12930   0.101   7.537  -0.056 -0.3665  0.3557  0.8206
  837MOL0     H12931   0.098   7.705  -0.033 -0.5487 -0.7292 -0.9462
  837MOL0     H12932   0.254   7.538  -0.220  1.9609  0.8464 -2.5549
  837MOL0     H12933   0.330   7.689  -0.198 -0.4241 -1.2870 -1.7052
  837MOL0     H12934   0.191   7.680  -0.393 -0.0343  0.4131  0.6696
  837MOL0     H12935   0.129   7.805  -0.292 -0.3238  0.3622 -1.2039
  837MOL0     H12936  -0.010   7.529  -0.305  1.6459 -0.4591 -2.4781
  837MOL0     H12937  -0.066   7.670  -0.210 -1.8233 -0.3889 -0.4454
  837MOL0     H12938  -0.086   7.804  -0.386 -0.5883 -0.7756  2.2776
  837MOL0     H12939  -0.004   7.696  -0.505 -1.9560  0.2235 -0.9629
  837MOL0     H12940  -0.169   7.519  -0.446  1.2045 -0.2796 -0.5396
  837MOL0     H12941  -0.277   7.634  -0.372  1.4580  4.8027  0.4228
  837MOL0     H12942  -0.186   7.701  -0.645  1.9075 -0.1058  1.6539
  837MOL0     H12943  -0.318   7.765  -0.562  4.4442  1.4137 -0.1025
  837MOL0     H12944  -0.402   7.621  -0.742 -0.0426 -0.7337 -0.7626
  837MOL0     H12945  -0.277   7.499  -0.702 -2.1546 -1.9325 -0.7209
  837MOL0     H12946  -0.363   7.295  -0.541  0.8324  1.3943 -3.9339
  837MOL0     H12947  -0.539   7.146  -0.455 -0.8899 -0.5374  0.3380
  837MOL0     H12948  -0.524   7.217  -0.280  1.3642  0.8820 -0.8257
  837MOL0     H12949  -0.757   7.114  -0.305  0.6569  0.1697 -1.0702
  837MOL0     H12950  -0.749   7.286  -0.298  0.0782  0.0531  0.4992
  837MOL0     H12951  -0.769   7.286  -0.553  0.3884  0.3234  0.2661
  837MOL0     H12952  -0.909   7.213  -0.468  0.9239  0.0591  2.7615
  837MOL0     H12953  -0.769   6.995  -0.490 -0.4949  1.3208  2.5152
  837MOL0     H12954  -0.705   7.080  -0.633 -0.5897 -0.4505 -0.3008
  837MOL0     H12955  -0.673   6.913  -0.730  0.1658 -0.9419  1.2492
  837MOL0     H12956  -0.671   6.703  -0.837  1.3209  0.5437 -1.1485
  837MOL0     H12957  -1.050   6.521  -1.221 -0.0106  2.2481  2.9073
  837MOL0     H12958  -1.052   6.333  -1.371 -0.9392 -3.8036  0.4307
  837MOL0     H12959  -1.064   6.151  -1.503  0.9385 -1.2552 -1.5106
  837MOL0     H12960  -1.040   5.980  -1.478  0.8733  0.3448  1.3454
  837MOL0     H12961  -1.214   5.931  -1.368 -3.7914  0.4095  4.6680
  837MOL0     H12962  -1.271   6.098  -1.337 -0.2406  1.2023 -1.7734
  837MOL0     H12963  -1.328   6.150  -1.567  0.3843  0.0840  1.7552
  837MOL0     H12964  -1.216   6.029  -1.622  0.1438  0.0886  0.3177
  837MOL0     H12965  -1.469   5.948  -1.483  2.4444  3.2598  1.7847
  837MOL0     H12966  -1.367   5.846  -1.576 -1.2821 -0.4721 -2.4685
  837MOL0     H12967  -1.442   5.938  -1.784 -0.1792 -3.7635  0.8459
  837MOL0     H12968  -1.512   6.082  -1.707 -0.0099 -0.2968  0.7313
  837MOL0     H12969  -1.610   5.799  -1.671  0.1614  0.8934 -0.8320
  837MOL0     H12970  -1.672   5.935  -1.584  0.0009 -0.6926  1.0598
  837MOL0     H12971  -1.827   5.884  -1.773  0.7382 -1.8458 -0.7029
  837MOL0     H12972  -1.692   5.869  -1.889  1.3760  3.4288 -2.6955
  837MOL0     H12973  -1.818   6.115  -1.743  0.4828 -1.3640  0.0674
  837MOL0     H12974  -1.681   6.123  -1.869  0.3573 -0.3776 -0.2363
  837MOL0     H12975  -0.979   6.059  -1.055 -1.8095  0.1587 -0.5370
  837MOL0     H12976  -0.965   6.254  -0.886 -5.4436 -0.0759  0.6174
  837MOL0     H12977  -1.101   6.714  -0.883  0.4645 -0.9452 -0.4438
  837MOL0     H12978  -1.098   6.926  -0.749  2.1295  2.5484  1.6798
  837MOL0     H12979   0.163   7.771   0.215 -0.7529  0.9903  0.8444
  837MOL0     H12980   0.051   7.747   0.404  3.2503  2.6177 -2.0929
  837MOL0     H12981  -0.131   7.416   0.716  0.3804 -0.9273  0.6754
  837MOL0     H12982  -0.329   7.472   0.879 -1.6182  0.3431 -2.6310
  837MOL0     H12983  -0.447   7.535   1.072 -1.3394 -2.3318 -3.6498
  837MOL0     H12984  -0.500   7.574   0.910  4.5740  1.3622 -1.1063
  837MOL0     H12985  -0.637   7.761   0.979 -1.1735 -1.5927 -1.4418
  837MOL0     H12986  -0.587   7.741   1.146  0.9100 -0.9683 -0.0898
  837MOL0     H12987  -0.681   7.499   1.088  2.1596  0.3479 -1.5353
  837MOL0     H12988  -0.770   7.592   0.973  3.7089  0.2602 -2.1048
  837MOL0     H12989  -0.886   7.579   1.219 -1.7866  0.9367 -1.4337
  837MOL0     H12990  -0.765   7.695   1.264  3.2730 -4.3135 -0.8963
  837MOL0     H12991  -0.975   7.966   1.040  0.0168  0.6271  0.3430
  837MOL0     H12992  -0.214   7.869   0.885  1.0314  0.9671 -1.7678
  837MOL0     H12993   0.116   7.864   0.824 -2.3457  0.1022  3.4943
  837MOL0     H12994   0.042   7.894   0.661 -1.0789  1.9665 -0.2290
  837MOL0     H12995  -0.027   7.962   0.801 -1.2635 -0.8327 -0.6202
  838MOL0     O12996   0.012  10.670   2.453 -0.1575  0.2898  1.4965
  838MOL0     C12997  -0.013  10.786   2.455  0.4301 -0.0256  0.0406
  838MOL0     O12998   0.006  10.879   2.351  0.1291 -0.0107  0.0348
  838MOL0     C12999   0.099  10.848   2.262 -0.8912  0.1199  0.2433
  838MOL0     C13000   0.240  10.849   2.289  1.0366  0.2371 -0.3656
  838MOL0     C13001   0.329  10.845   2.186  0.5832 -1.3322  0.5354
  838MOL0     C13002   0.287  10.832   2.049  0.1168  1.1562  0.0281
  838MOL0     O13003   0.366  10.818   1.932  0.1759 -0.3190 -0.6360
  838MOL0     C13004   0.508  10.828   1.944 -0.3923 -0.0886  0.1942
  838MOL0     C13005   0.572  10.966   1.950  1.0065  0.1241 -0.4363
  838MOL0     C13006   0.621  11.021   1.817 -0.0399  0.3568  0.7971
  838MOL0     C13007   0.747  10.948   1.757  0.4294  0.0412 -0.9539
  838MOL0     C13008   0.794  11.011   1.625  0.3353  0.4009  0.2853
  838MOL0     C13009   0.910  10.938   1.560 -0.8947 -0.4057 -0.5295
  838MOL0     C13010   1.047  10.950   1.645 -0.0052 -0.6233  0.3500
  838MOL0     C13011   1.069  10.837   1.746 -0.1758 -0.4945 -0.1408
  838MOL0     N13012   1.183  10.864   1.840  0.1366  0.0632  0.2045
  838MOL0     C13013   1.280  10.774   1.882  0.3489 -0.5754  0.2030
  838MOL0     C13014   1.340  10.840   1.983 -0.2317  0.2490 -0.6925
  838MOL0     C13015   1.445  10.800   2.091  0.3353 -0.7333  0.6699
  838MOL0     C13016   1.384  10.694   2.188 -0.0963  0.7932 -0.1872
  838MOL0     C13017   1.458  10.671   2.320  0.6843 -0.5615 -0.5664
  838MOL0     C13018   1.604  10.626   2.307 -0.2721 -0.4858  0.5875
  838MOL0     O13019   1.611  10.515   2.224  0.8850 -0.5562 -0.3149
  838MOL0     C13020   1.726  10.445   2.211  0.7063  0.2584 -0.5183
  838MOL0     C13021   1.718  10.319   2.158 -0.0802  0.2684 -0.1822
  838MOL0     C13022   1.834  10.231   2.152  0.3678  0.2752 -0.8077
  838MOL0     C13023   1.958  10.283   2.180 -0.2834 -0.0486 -0.4210
  838MOL0     C13024   2.083  10.204   2.155 -0.2727 -0.0342  0.2289
  838MOL0     O13025   2.093  10.073   2.205 -0.0141 -0.1140 -0.2679
  838MOL0     C13026   2.203   9.993   2.168  0.9764  0.8227 -0.4176
  838MOL0     C13027   2.339  10.031   2.170 -0.6969 -0.3013  0.2933
  838MOL0     C13028   2.443   9.934   2.159 -0.0616  0.2469 -0.5731
  838MOL0     C13029   2.406   9.800   2.141 -0.1805  0.2707 -0.4492
  838MOL0     O13030   2.517   9.726   2.127  0.2926 -0.2418  0.0955
  838MOL0     C13031   2.507   9.592   2.176  0.0069  0.6031 -0.6822
  838MOL0     C13032   2.642   9.537   2.203  0.8247 -0.1863  0.9912
  838MOL0     C13033   2.732   9.557   2.076  0.0447 -0.3637 -0.1894
  838MOL0     C13034   2.876   9.518   2.126  0.4096  0.2364  0.0620
  838MOL0     C13035   2.982   9.538   2.025  0.0690 -0.1182 -0.1580
  838MOL0     C13036   3.109   9.510   2.092 -0.4183 -0.0237  0.8100
  838MOL0     C13037   3.221   9.528   1.994  0.1455  0.4670  0.7925
  838MOL0     C13038   3.331   9.589   2.067 -0.1514 -0.1792 -0.5765
  838MOL0    Cl13039   3.393   9.487   2.203 -0.5362  0.1988 -0.3091
  838MOL0     C13040   2.267   9.765   2.132 -0.5896 -1.2117  0.6454
  838MOL0     C13041   2.171   9.862   2.154 -0.1724 -0.0789 -1.1359
  838MOL0     O13042   2.155  10.250   2.070  0.2108 -0.6115  0.7943
  838MOL0     C13043   1.969  10.414   2.228  0.1045  1.0742  1.0785
  838MOL0     C13044   1.854  10.488   2.251  0.7227 -0.3783  0.4276
  838MOL0     N13045   1.281  10.960   2.003  0.2033  0.4350  0.3627
  838MOL0     N13046   1.186  10.972   1.924  0.0799 -0.1351 -0.4535
  838MOL0     C13047   0.154  10.819   2.028  0.0127 -0.4040  0.6184
  838MOL0     C13048   0.057  10.832   2.130 -0.1565  0.4942 -0.1060
  838MOL0     C13049  -0.072  10.844   2.579 -0.2870 -0.9116 -0.4994
  838MOL0     C13050  -0.098  10.986   2.583 -0.1065  0.3165 -0.3880
  838MOL0     C13051  -0.180  11.039   2.677 -0.0210  0.7521  0.1546
  838MOL0     C13052  -0.250  10.959   2.762  0.1526 -0.1136 -0.0589
  838MOL0     O13053  -0.329  11.018   2.861 -0.9528  0.0272 -0.6777
  838MOL0     C13054  -0.458  11.041   2.814 -0.6267  0.4283 -0.2660
  838MOL0     C13055  -0.536  11.105   2.932 -0.6312  0.1647 -0.7023
  838MOL0     C13056  -0.685  11.136   2.900  0.0445 -0.1170 -0.7974
  838MOL0     C13057  -0.774  11.027   2.855 -0.5229 -0.3886  0.6710
  838MOL0     C13058  -0.898  11.075   2.795  0.3476 -0.4916  0.5275
  838MOL0     C13059  -0.996  11.133   2.745  0.2858  0.3791 -0.3883
  838MOL0     C13060  -0.223  10.826   2.761  0.4708  0.2068 -0.2292
  838MOL0     C13061  -0.129  10.766   2.681  0.6656  0.3659 -0.2780
  838MOL0     C13062  -0.111  10.622   2.712  0.9868  0.6612 -0.3027
  838MOL0     H13063   0.276  10.861   2.391  1.8548 -4.3718  0.0791
  838MOL0     H13064   0.432  10.844   2.221 -0.4222  0.7803  4.0171
  838MOL0     H13065   0.548  10.774   2.030 -2.6998 -1.6394  0.3641
  838MOL0     H13066   0.554  10.775   1.861 -0.5614 -1.8528  1.1852
  838MOL0     H13067   0.657  10.975   2.019  2.1188 -0.4749 -1.6712
  838MOL0     H13068   0.505  11.039   1.995  1.2682 -0.6791  1.3005
  838MOL0     H13069   0.647  11.127   1.827  1.7903 -0.1428  1.8824
  838MOL0     H13070   0.540  11.010   1.744  0.1103  1.2019  0.4988
  838MOL0     H13071   0.830  10.960   1.827  0.7377  0.2442 -1.3523
  838MOL0     H13072   0.718  10.843   1.744 -4.8208  1.4412 -3.1333
  838MOL0     H13073   0.711  11.003   1.555  1.6480 -3.1587 -1.0720
  838MOL0     H13074   0.819  11.116   1.643  3.5486 -0.5047  1.8207
  838MOL0     H13075   0.888  10.833   1.541  0.8117 -0.5972 -1.6498
  838MOL0     H13076   0.917  10.982   1.460  1.8345  0.5470  0.0017
  838MOL0     H13077   1.055  11.040   1.707 -0.2981  0.2467 -0.8476
  838MOL0     H13078   1.123  10.958   1.567  0.1467  0.9650  0.6268
  838MOL0     H13079   0.984  10.815   1.811 -0.7054  0.4054 -0.5076
  838MOL0     H13080   1.086  10.745   1.690  3.8955  0.6002 -1.0431
  838MOL0     H13081   1.304  10.674   1.847  1.5688 -0.3747  0.4220
  838MOL0     H13082   1.536  10.756   2.050 -0.0280 -0.7803 -0.1002
  838MOL0     H13083   1.471  10.884   2.156 -2.3952  0.4488  0.3609
  838MOL0     H13084   1.281  10.728   2.200 -1.2264 -0.8590 -3.7728
  838MOL0     H13085   1.364  10.603   2.131 -2.0564  0.1583  1.4224
  838MOL0     H13086   1.406  10.589   2.370  1.2499 -1.6419 -1.6793
  838MOL0     H13087   1.450  10.760   2.382  1.4763 -1.1596  0.4295
  838MOL0     H13088   1.651  10.602   2.404  2.5101  1.0561 -0.2714
  838MOL0     H13089   1.657  10.708   2.259 -1.0305 -1.0011 -1.2282
  838MOL0     H13090   1.619  10.283   2.129  0.9315 -2.7512 -0.2206
  838MOL0     H13091   1.811  10.130   2.117  1.5164 -1.2486  2.4342
  838MOL0     H13092   2.349  10.138   2.188  0.0648 -0.4000  0.4763
  838MOL0     H13093   2.550   9.949   2.167  0.4209 -3.0126  0.3696
  838MOL0     H13094   2.448   9.591   2.268 -0.7623  0.2111 -1.1707
  838MOL0     H13095   2.452   9.524   2.110 -2.4056 -0.7448  2.4179
  838MOL0     H13096   2.686   9.585   2.291  0.2006 -0.6473  1.5607
  838MOL0     H13097   2.626   9.432   2.226 -2.3531  0.6170  3.0610
  838MOL0     H13098   2.704   9.500   1.986  0.9611 -1.2940  0.0888
  838MOL0     H13099   2.729   9.662   2.048  0.9501 -0.1834  0.3721
  838MOL0     H13100   2.881   9.425   2.184 -0.9060 -0.7996 -1.3944
  838MOL0     H13101   2.900   9.591   2.204 -0.7446  0.3153  0.3649
  838MOL0     H13102   2.982   9.638   1.980  0.0721 -0.0265  0.0434
  838MOL0     H13103   2.967   9.474   1.939 -1.7464 -1.1064  0.8394
  838MOL0     H13104   3.118   9.577   2.178 -4.4883  0.9740  0.6308
  838MOL0     H13105   3.111   9.409   2.136 -0.3659  0.0789  1.0453
  838MOL0     H13106   3.198   9.598   1.912 -0.2880  1.0133  1.3689
  838MOL0     H13107   3.249   9.427   1.964 -0.1269 -0.1664  2.5925
  838MOL0     H13108   3.411   9.593   1.993 -2.2613 -0.6850 -3.0168
  838MOL0     H13109   3.321   9.697   2.087  2.7631  0.2278 -0.8561
  838MOL0     H13110   2.244   9.659   2.127 -0.4340 -1.2633  1.0089
  838MOL0     H13111   2.067   9.836   2.169 -0.0217  1.0212  3.2715
  838MOL0     H13112   2.068  10.453   2.247  0.6336  1.2070 -1.6601
  838MOL0     H13113   1.867  10.572   2.319  0.3767 -0.0564  0.1071
  838MOL0     H13114   0.121  10.811   1.925  0.4775  4.0800 -0.0698
  838MOL0     H13115  -0.049  10.819   2.110 -0.2191 -0.3904  0.7127
  838MOL0     H13116  -0.043  11.057   2.523  0.0206 -0.2041 -0.8904
  838MOL0     H13117  -0.204  11.145   2.676 -1.0099  0.5499  1.0057
  838MOL0     H13118  -0.513  10.950   2.788 -2.5882  2.2729 -3.1279
  838MOL0     H13119  -0.454  11.099   2.721 -0.2293  0.5055 -0.2011
  838MOL0     H13120  -0.477  11.195   2.956 -0.5915  0.9694 -3.3870
  838MOL0     H13121  -0.540  11.034   3.014  1.0627  0.6441 -0.1645
  838MOL0     H13122  -0.697  11.213   2.822 -2.5839 -1.0758 -1.4413
  838MOL0     H13123  -0.724  11.178   2.993  3.3764  0.9800  0.2368
  838MOL0     H13124  -0.716  10.967   2.784 -1.3452 -1.5904  0.9865
  838MOL0     H13125  -0.818  10.953   2.923 -0.3253 -1.5114 -0.3940
  838MOL0     H13126  -1.086  11.187   2.723 -0.0726 -0.3182 -0.6608
  838MOL0     H13127  -0.271  10.762   2.835  0.4084 -0.6123 -0.9686
  838MOL0     H13128  -0.166  10.569   2.634 -1.6529 -0.9773  2.4516
  838MOL0     H13129  -0.005  10.594   2.706  0.2806 -2.1514 -1.0516
  838MOL0     H13130  -0.137  10.601   2.816  1.9580  0.8330 -0.0105
  839MOL0     O13131   0.859   7.523   5.553 -1.0348 -0.1939 -0.1938
  839MOL0     C13132   0.824   7.618   5.488  0.0034 -0.9224 -0.1049
  839MOL0     O13133   0.906   7.696   5.423 -0.0896  0.7431 -0.3586
  839MOL0     C13134   1.038   7.668   5.394 -0.4308 -0.1237  0.9640
  839MOL0     C13135   1.074   7.547   5.350 -0.4225  0.8988 -0.5581
  839MOL0     C13136   1.213   7.529   5.326 -0.0336  0.1774 -0.3062
  839MOL0     C13137   1.312   7.613   5.347 -0.6499 -1.1424 -0.4822
  839MOL0     O13138   1.444   7.599   5.314  0.5806 -0.1864  0.2232
  839MOL0     C13139   1.496   7.464   5.320 -0.7279 -0.1857  0.2843
  839MOL0     C13140   1.640   7.463   5.280 -0.1861 -0.0076  0.2833
  839MOL0     C13141   1.736   7.428   5.389  0.4061  0.0322  0.3110
  839MOL0     C13142   1.880   7.442   5.337  0.4431 -0.1513  0.6963
  839MOL0     C13143   1.987   7.377   5.436 -0.3649 -0.1676 -0.1609
  839MOL0     C13144   2.127   7.358   5.380 -0.8341  0.4452  0.0992
  839MOL0     C13145   2.212   7.313   5.500 -0.0038 -0.3477  1.3851
  839MOL0     C13146   2.349   7.270   5.446  0.3871  0.0097  0.2749
  839MOL0     N13147   2.432   7.201   5.546  0.4204 -0.7621  0.5290
  839MOL0     C13148   2.485   7.259   5.662 -0.5778 -0.0625  0.5260
  839MOL0     C13149   2.517   7.157   5.743  1.1204  0.2198 -0.1161
  839MOL0     C13150   2.586   7.177   5.874 -1.2738  0.4198 -0.3731
  839MOL0     C13151   2.742   7.203   5.851  0.5689 -0.4142  0.3800
  839MOL0     C13152   2.808   7.107   5.746 -0.2986  0.3078  0.6240
  839MOL0     C13153   2.952   7.100   5.779 -0.4273 -0.0118 -0.3840
  839MOL0     O13154   3.011   7.036   5.668 -0.1713 -0.3646 -0.7134
  839MOL0     C13155   3.149   7.020   5.659  0.6274 -0.5128  0.6633
  839MOL0     C13156   3.229   7.010   5.767  0.7827  0.6002  0.0002
  839MOL0     C13157   3.364   6.983   5.754  0.3700  0.1137  0.0157
  839MOL0     C13158   3.425   6.962   5.631 -0.1468 -0.4293 -0.2343
  839MOL0     C13159   3.576   6.936   5.640  0.5840 -1.0572  0.5688
  839MOL0     O13160   3.636   6.903   5.756  0.2605  0.0926 -0.3805
  839MOL0     C13161   3.759   6.846   5.741  0.9133 -0.3356  0.8977
  839MOL0     C13162   3.875   6.914   5.707 -0.7611  0.1409  0.4888
  839MOL0     C13163   3.999   6.854   5.715 -0.3303 -0.4433 -0.2199
  839MOL0     C13164   4.009   6.718   5.751 -0.5564 -0.1737  1.0681
  839MOL0     O13165   4.125   6.644   5.743 -0.1375 -0.4974  0.4675
  839MOL0     C13166   4.255   6.714   5.758  0.4778 -0.6979 -0.2699
  839MOL0     C13167   4.375   6.621   5.791  0.3807 -0.0543  0.2138
  839MOL0     C13168   4.339   6.542   5.918 -0.8450 -1.3534  0.0343
  839MOL0     C13169   4.473   6.473   5.973  0.0029  0.0867  0.2622
  839MOL0     C13170   4.539   6.367   5.878  0.4550 -0.3241  0.4792
  839MOL0     C13171   4.491   6.223   5.911  0.2768 -0.4507 -0.1201
  839MOL0     C13172   4.342   6.185   5.882 -0.5658  0.5275  1.2070
  839MOL0     C13173   4.314   6.037   5.885  0.2379 -0.5870 -0.8396
  839MOL0    Cl13174   4.409   5.935   5.758  0.0571 -0.0530 -0.9981
  839MOL0     C13175   3.896   6.652   5.796 -0.6096  0.0936  0.2632
  839MOL0     C13176   3.776   6.714   5.783 -0.2045  0.2189 -0.1428
  839MOL0     O13177   3.637   6.957   5.537  0.0454  0.1476 -0.1681
  839MOL0     C13178   3.344   6.968   5.520  0.4507  0.0032 -0.9115
  839MOL0     C13179   3.209   6.993   5.533 -0.6261  0.6075  0.7317
  839MOL0     N13180   2.490   7.038   5.681  0.4624 -0.1688  0.0292
  839MOL0     N13181   2.433   7.070   5.563  0.7048  1.0479 -0.2363
  839MOL0     C13182   1.265   7.735   5.397  1.2477  0.2684  0.4282
  839MOL0     C13183   1.134   7.762   5.408  0.2560 -0.0240 -0.6311
  839MOL0     C13184   0.679   7.657   5.468  0.4925  0.3651 -0.5360
  839MOL0     C13185   0.647   7.759   5.374 -0.5402 -0.0658 -0.6889
  839MOL0     C13186   0.522   7.799   5.339  1.2410 -0.3762 -0.9489
  839MOL0     C13187   0.416   7.748   5.407 -0.8120  1.8161 -0.1070
  839MOL0     O13188   0.283   7.787   5.396 -0.2199 -0.1868 -0.7279
  839MOL0     C13189   0.240   7.872   5.285  0.1941 -0.5448 -0.5969
  839MOL0     C13190   0.115   7.950   5.310  0.3315  0.4235 -0.2419
  839MOL0     C13191  -0.018   7.866   5.299 -0.9015  0.1428  0.1100
  839MOL0     C13192  -0.130   7.948   5.348 -0.1548  0.4276  0.2433
  839MOL0     C13193  -0.253   7.877   5.386  1.5376  0.1897  0.3071
  839MOL0     C13194  -0.355   7.827   5.420  0.6737  0.9234 -0.5219
  839MOL0     C13195   0.437   7.642   5.493 -0.0578  0.4356 -0.3262
  839MOL0     C13196   0.564   7.593   5.525  0.1888  0.2686  0.3904
  839MOL0     C13197   0.589   7.481   5.628  0.3308  0.1952 -0.2796
  839MOL0     H13198   0.996   7.474   5.331  2.1638 -2.6609  1.2437
  839MOL0     H13199   1.239   7.437   5.274  2.2227 -1.2497  3.0486
  839MOL0     H13200   1.476   7.413   5.415  1.7913  3.8789  3.3299
  839MOL0     H13201   1.445   7.418   5.235 -1.2265  1.3638 -0.2812
  839MOL0     H13202   1.674   7.557   5.235 -1.0981 -0.6256 -1.8013
  839MOL0     H13203   1.662   7.387   5.205  1.2344  0.2287  0.4266
  839MOL0     H13204   1.718   7.328   5.430 -1.1513  1.0007  2.2045
  839MOL0     H13205   1.713   7.484   5.481 -0.0342 -1.2621  1.0075
  839MOL0     H13206   1.891   7.393   5.239  2.4625  0.4595  0.5627
  839MOL0     H13207   1.918   7.544   5.327 -0.9060  0.3960  1.0488
  839MOL0     H13208   1.997   7.452   5.515 -0.6100  1.4755 -1.6048
  839MOL0     H13209   1.944   7.282   5.469 -2.6378 -0.3711 -3.2377
  839MOL0     H13210   2.120   7.281   5.302  0.1921  0.2728  0.1664
  839MOL0     H13211   2.174   7.446   5.335  2.3222 -0.0088  2.2485
  839MOL0     H13212   2.176   7.217   5.538  0.3348 -1.8760 -1.8075
  839MOL0     H13213   2.237   7.389   5.575 -0.1941  0.0658  1.0301
  839MOL0     H13214   2.326   7.196   5.368 -1.2414  0.7900 -0.0123
  839MOL0     H13215   2.409   7.347   5.397 -1.0059  1.6400  1.0555
  839MOL0     H13216   2.497   7.364   5.687  1.5002  0.1164 -0.8693
  839MOL0     H13217   2.540   7.258   5.931  1.2243  1.9193 -0.3535
  839MOL0     H13218   2.561   7.091   5.937  0.6267  0.7427  0.8904
  839MOL0     H13219   2.742   7.307   5.816 -1.3878 -0.1179  1.1051
  839MOL0     H13220   2.782   7.197   5.952 -1.3163  0.1935  1.2189
  839MOL0     H13221   2.801   7.148   5.645  1.0947 -0.0284  0.3680
  839MOL0     H13222   2.755   7.011   5.746 -0.6145  0.4715 -0.3263
  839MOL0     H13223   2.963   7.036   5.867  0.9964  0.5339 -0.1320
  839MOL0     H13224   3.002   7.195   5.798 -0.2370 -0.2729  0.4568
  839MOL0     H13225   3.185   7.031   5.864  1.9276 -1.2204  0.9660
  839MOL0     H13226   3.428   6.984   5.842  1.3248  0.3914 -0.6660
  839MOL0     H13227   3.873   7.016   5.670  3.0003  0.1046 -0.2451
  839MOL0     H13228   4.081   6.912   5.675  0.0242 -1.4845 -1.0579
  839MOL0     H13229   4.269   6.768   5.664 -0.8369 -2.6294 -1.6460
  839MOL0     H13230   4.253   6.789   5.838 -2.6323  0.2111 -1.0618
  839MOL0     H13231   4.389   6.558   5.703  1.8523 -0.9379  1.0313
  839MOL0     H13232   4.468   6.679   5.790 -0.4803  1.4002 -1.2068
  839MOL0     H13233   4.299   6.617   5.987  2.0830 -1.5524  2.1435
  839MOL0     H13234   4.263   6.471   5.885 -2.3567 -0.3489  1.1899
  839MOL0     H13235   4.445   6.427   6.069  2.1230 -0.4021  0.7206
  839MOL0     H13236   4.544   6.553   5.995 -0.6163  2.1235 -4.0739
  839MOL0     H13237   4.647   6.381   5.882  0.4075  0.3900 -0.2682
  839MOL0     H13238   4.509   6.388   5.774  1.2378 -0.6985  0.1769
  839MOL0     H13239   4.555   6.155   5.854 -0.0046  1.0796 -2.4012
  839MOL0     H13240   4.514   6.195   6.015  0.9096 -0.4856 -0.2636
  839MOL0     H13241   4.321   6.213   5.778  2.0314  1.4130  0.8296
  839MOL0     H13242   4.280   6.237   5.955 -1.2438 -0.7702  1.5816
  839MOL0     H13243   4.339   6.006   5.986 -0.4685  0.0310 -0.4644
  839MOL0     H13244   4.207   6.015   5.873  0.2383  0.0446 -2.3443
  839MOL0     H13245   3.900   6.547   5.821 -3.0658 -0.3117 -0.7846
  839MOL0     H13246   3.687   6.653   5.797  0.8613 -1.8904 -1.9232
  839MOL0     H13247   3.383   6.962   5.419 -0.9460  1.3000 -1.5707
  839MOL0     H13248   3.146   7.000   5.444  0.4819 -1.3031 -0.2614
  839MOL0     H13249   1.333   7.806   5.442  2.2384 -1.0307  1.0482
  839MOL0     H13250   1.117   7.864   5.444  0.8846 -1.4028  4.3987
  839MOL0     H13251   0.730   7.816   5.334  0.5313 -0.6382  0.6560
  839MOL0     H13252   0.515   7.869   5.256  1.9909 -1.3813 -1.8885
  839MOL0     H13253   0.225   7.819   5.190 -1.1488  0.5762 -1.0276
  839MOL0     H13254   0.314   7.947   5.256 -0.8521  0.3007 -1.1394
  839MOL0     H13255   0.118   8.036   5.243 -2.2312  1.8786  1.3349
  839MOL0     H13256   0.112   8.001   5.407 -1.8339  0.9504 -0.5193
  839MOL0     H13257  -0.000   7.778   5.362  0.4559  0.5041  0.2538
  839MOL0     H13258  -0.034   7.836   5.195  1.7614 -0.8672 -0.0801
  839MOL0     H13259  -0.092   8.004   5.433  1.0969  0.0501 -0.0508
  839MOL0     H13260  -0.150   8.013   5.263  0.1852  0.8645  0.4993
  839MOL0     H13261  -0.449   7.793   5.459  1.3207  1.2893  1.4437
  839MOL0     H13262   0.352   7.595   5.541 -1.0619  1.4118 -1.0956
  839MOL0     H13263   0.493   7.461   5.676 -1.2458  0.4066 -3.0858
  839MOL0     H13264   0.645   7.396   5.588  3.5441  0.3384  3.3584
  839MOL0     H13265   0.653   7.519   5.708 -1.0658 -3.2527  2.7515
  840MOL0     O13266  10.104   1.354   3.841  0.0078  0.0616 -0.0636
  840MOL0     C13267  10.027   1.254   3.837  0.1637 -0.1182 -0.8199
  840MOL0     O13268  10.026   1.159   3.743 -0.0217 -0.2051  0.0320
  840MOL0     C13269  10.128   1.152   3.647 -0.0203 -0.3164 -0.2692
  840MOL0     C13270  10.265   1.216   3.662 -0.2844  0.3662 -0.3159
  840MOL0     C13271  10.353   1.230   3.558  0.3441  0.2143  0.8222
  840MOL0     C13272  10.318   1.182   3.433  0.0643  0.6728  0.6423
  840MOL0     O13273  10.411   1.210   3.337  0.5245 -0.1420  0.6227
  840MOL0     C13274  10.369   1.237   3.208 -0.8418  0.1120 -0.8368
  840MOL0     C13275  10.472   1.183   3.114  0.0445  0.2307 -0.7452
  840MOL0     C13276  10.606   1.245   3.116  0.3054 -0.3354  1.3929
  840MOL0     C13277  10.620   1.381   3.036  0.5313  0.2475 -0.1809
  840MOL0     C13278  10.762   1.413   3.013  0.4194 -0.1992  0.9576
  840MOL0     C13279  10.831   1.477   3.131 -0.6305 -0.1649  0.4333
  840MOL0     C13280  10.954   1.567   3.093 -0.0553 -0.4182  0.4644
  840MOL0     C13281  11.096   1.509   3.119  0.5034  0.3397 -0.4059
  840MOL0     N13282  11.120   1.416   3.012 -0.6014  0.1299 -0.0023
  840MOL0     C13283  11.224   1.436   2.929  0.2024  0.1562  0.8425
  840MOL0     C13284  11.236   1.316   2.866 -0.3886 -0.4022  0.9829
  840MOL0     C13285  11.354   1.285   2.781  0.3130 -0.2694  0.2711
  840MOL0     C13286  11.441   1.163   2.832  0.2978 -0.0817 -0.4263
  840MOL0     C13287  11.527   1.092   2.727 -0.3623  0.0697 -0.4553
  840MOL0     C13288  11.627   1.183   2.653  0.2764  0.4291  0.4855
  840MOL0     O13289  11.715   1.258   2.738  0.3318  0.6211 -0.0423
  840MOL0     C13290  11.824   1.317   2.679 -0.4145  1.2430 -0.5846
  840MOL0     C13291  11.899   1.382   2.778 -0.4806  0.8969  0.3165
  840MOL0     C13292  12.010   1.454   2.751 -0.3528 -0.6283 -0.2703
  840MOL0     C13293  12.065   1.460   2.614  0.4732  0.2175  0.1095
  840MOL0     C13294  12.181   1.539   2.565 -0.3546  0.0008 -0.0941
  840MOL0     O13295  12.221   1.632   2.657  0.5254  0.3346  0.2124
  840MOL0     C13296  12.336   1.706   2.643 -0.8831  0.8311  0.4368
  840MOL0     C13297  12.337   1.837   2.683 -0.3200  0.1917  0.1543
  840MOL0     C13298  12.465   1.903   2.671 -0.0671  0.3309 -0.5066
  840MOL0     C13299  12.585   1.846   2.633 -0.2244  0.7431  0.0060
  840MOL0     O13300  12.697   1.918   2.629 -0.6448  0.3871 -0.8864
  840MOL0     C13301  12.820   1.852   2.593  0.0206 -0.9561  0.0302
  840MOL0     C13302  12.924   1.968   2.615  0.3850  0.8113  0.3610
  840MOL0     C13303  13.062   1.928   2.568 -0.0892  0.0545 -0.4662
  840MOL0     C13304  13.075   1.914   2.417 -0.0362 -0.3343  0.0816
  840MOL0     C13305  13.202   1.865   2.358  0.1656  0.3484  0.2528
  840MOL0     C13306  13.326   1.956   2.389 -0.0045 -0.3201  0.8111
  840MOL0     C13307  13.395   1.890   2.512 -0.0382 -0.7870 -0.0874
  840MOL0     C13308  13.522   1.824   2.465  0.1697  0.3449  0.0226
  840MOL0    Cl13309  13.647   1.947   2.401  0.3486  0.3511  0.4218
  840MOL0     C13310  12.576   1.707   2.604 -0.0086  0.0133 -0.1132
  840MOL0     C13311  12.455   1.642   2.607  0.1706 -0.4689 -0.1129
  840MOL0     O13312  12.232   1.519   2.450 -0.0473  0.2497  0.6358
  840MOL0     C13313  11.989   1.395   2.516 -0.8055  1.0047  0.3221
  840MOL0     C13314  11.865   1.333   2.545  0.2319  0.7648  0.7272
  840MOL0     N13315  11.146   1.223   2.910  0.5915 -0.3258 -0.2711
  840MOL0     N13316  11.077   1.294   2.992 -0.4017 -0.5337  0.8186
  840MOL0     C13317  10.199   1.107   3.423  0.7245 -0.4753 -0.6393
  840MOL0     C13318  10.099   1.099   3.522 -0.1052 -0.3277 -0.0715
  840MOL0     C13319   9.919   1.246   3.940 -0.4900 -0.4363  0.5295
  840MOL0     C13320   9.899   1.364   4.009  0.3130  0.2183 -0.3733
  840MOL0     C13321   9.812   1.363   4.127  0.0569 -0.7864  0.1440
  840MOL0     C13322   9.729   1.251   4.147  0.0925  0.1179 -0.7787
  840MOL0     O13323   9.632   1.260   4.248  0.2315  0.3939 -0.0377
  840MOL0     C13324   9.548   1.148   4.265  0.4662 -0.1672  0.0301
  840MOL0     C13325   9.453   1.187   4.377  0.2474 -0.4147  0.6286
  840MOL0     C13326   9.330   1.095   4.386 -0.3383 -0.2092  0.1974
  840MOL0     C13327   9.382   0.947   4.373  0.3649  0.0473  0.0890
  840MOL0     C13328   9.261   0.864   4.394  0.2214  0.4734 -0.7168
  840MOL0     C13329   9.168   0.802   4.434  0.4424 -0.0053 -0.4641
  840MOL0     C13330   9.750   1.137   4.077  0.6334 -0.2495 -0.2395
  840MOL0     C13331   9.844   1.129   3.975  0.0476  0.3930  0.3460
  840MOL0     C13332   9.860   0.990   3.910 -0.1954  0.2080 -0.6623
  840MOL0     H13333  10.301   1.260   3.755 -2.1361  3.6492 -0.9877
  840MOL0     H13334  10.453   1.268   3.574  0.5700  1.6029 -2.9279
  840MOL0     H13335  10.279   1.187   3.171 -0.2171 -2.0865  0.4617
  840MOL0     H13336  10.353   1.345   3.194 -1.4851 -0.0415 -1.3925
  840MOL0     H13337  10.420   1.180   3.018 -0.9947 -1.7871 -0.1806
  840MOL0     H13338  10.483   1.076   3.134  1.2194  0.5432  0.4376
  840MOL0     H13339  10.669   1.174   3.063  0.3793 -0.7671  2.0499
  840MOL0     H13340  10.650   1.256   3.216  0.8574 -1.6032  1.3004
  840MOL0     H13341  10.566   1.370   2.941 -2.5163  2.7444  1.0876
  840MOL0     H13342  10.568   1.459   3.092 -0.7559  1.2895 -2.6750
  840MOL0     H13343  10.810   1.322   2.975 -0.0007 -0.3427  0.7590
  840MOL0     H13344  10.765   1.483   2.929 -2.3232 -0.0361  0.8983
  840MOL0     H13345  10.756   1.535   3.185 -0.7628 -0.1223  0.2009
  840MOL0     H13346  10.866   1.401   3.202  0.8125  0.1114  0.0442
  840MOL0     H13347  10.947   1.657   3.155  2.0190  0.4131 -0.4276
  840MOL0     H13348  10.953   1.600   2.989  2.0021  0.6672  0.7403
  840MOL0     H13349  11.166   1.593   3.113  2.0440 -0.9709 -1.8130
  840MOL0     H13350  11.105   1.465   3.218 -1.0609 -0.6727 -0.6696
  840MOL0     H13351  11.289   1.524   2.925 -1.2552  1.2324 -0.2581
  840MOL0     H13352  11.329   1.269   2.675  2.0996 -0.0773 -0.2101
  840MOL0     H13353  11.425   1.368   2.778 -1.5436  1.3543 -1.9311
  840MOL0     H13354  11.512   1.197   2.907  3.4679 -0.6156 -2.9854
  840MOL0     H13355  11.372   1.088   2.872  1.2033 -2.0606 -2.3892
  840MOL0     H13356  11.465   1.040   2.654 -2.3417  2.8446 -0.9241
  840MOL0     H13357  11.585   1.014   2.777 -2.2229 -1.3931 -0.4809
  840MOL0     H13358  11.565   1.252   2.594 -1.5168 -0.8631  0.8009
  840MOL0     H13359  11.695   1.126   2.589  1.0460  0.2491  1.4390
  840MOL0     H13360  11.867   1.366   2.881  0.6769  1.8967  0.8564
  840MOL0     H13361  12.061   1.515   2.825  0.2546 -0.4421 -0.8250
  840MOL0     H13362  12.258   1.905   2.715  2.9262  3.5985  1.7621
  840MOL0     H13363  12.466   2.011   2.688  0.3586  0.1944  0.3748
  840MOL0     H13364  12.840   1.762   2.653 -3.1184 -1.4742  0.4682
  840MOL0     H13365  12.812   1.824   2.487 -1.9555 -3.1706  0.6631
  840MOL0     H13366  12.883   2.054   2.560 -2.4252  0.7946  2.2006
  840MOL0     H13367  12.924   1.992   2.722 -0.9459  1.5273  0.2358
  840MOL0     H13368  13.126   2.005   2.613 -0.0112 -2.1343  3.7304
  840MOL0     H13369  13.090   1.837   2.623  2.1975 -0.4362 -2.2578
  840MOL0     H13370  13.034   2.002   2.367  2.1103  1.3109  1.0897
  840MOL0     H13371  12.996   1.844   2.387  0.5980 -2.2945  2.6481
  840MOL0     H13372  13.181   1.867   2.250  1.0125  1.0398  0.0888
  840MOL0     H13373  13.226   1.760   2.378 -0.8470 -0.0149 -0.3386
  840MOL0     H13374  13.391   1.974   2.303 -1.2987  2.3863  0.2894
  840MOL0     H13375  13.290   2.054   2.422 -0.7606  0.3823 -1.8321
  840MOL0     H13376  13.332   1.814   2.560  0.2417 -1.2705 -0.4807
  840MOL0     H13377  13.423   1.971   2.581  0.1996  1.3201 -2.4976
  840MOL0     H13378  13.575   1.770   2.544  0.2017  0.8424  0.3424
  840MOL0     H13379  13.503   1.758   2.380  0.7998  2.6301 -2.0222
  840MOL0     H13380  12.671   1.661   2.578  0.0725 -0.2523  0.6383
  840MOL0     H13381  12.448   1.539   2.574 -2.5657 -0.7838  1.1410
  840MOL0     H13382  12.019   1.388   2.412 -0.2413  1.3822  0.4540
  840MOL0     H13383  11.812   1.290   2.461 -1.3315  1.9157  1.0662
  840MOL0     H13384  10.172   1.079   3.322 -0.9056 -0.2306 -0.3021
  840MOL0     H13385   9.995   1.073   3.507  0.1210 -1.9846  0.8487
  840MOL0     H13386   9.942   1.461   3.983  0.1821 -0.2696 -2.6670
  840MOL0     H13387   9.792   1.444   4.196 -1.4783 -2.3689  1.6369
  840MOL0     H13388   9.612   1.067   4.302  2.1007  1.3991  0.7184
  840MOL0     H13389   9.487   1.129   4.176  0.1258 -0.3599  0.2956
  840MOL0     H13390   9.420   1.288   4.351 -1.1807 -1.3292 -1.4869
  840MOL0     H13391   9.510   1.198   4.469 -0.1926  1.8843  0.6829
  840MOL0     H13392   9.262   1.122   4.305  1.0720  1.0189 -0.6446
  840MOL0     H13393   9.285   1.116   4.483 -0.6321 -0.2190  0.0642
  840MOL0     H13394   9.423   0.927   4.274 -2.9487 -0.9980 -1.2207
  840MOL0     H13395   9.465   0.922   4.439  0.9365 -0.1656 -0.6954
  840MOL0     H13396   9.073   0.760   4.459  0.3599 -1.4082 -2.8087
  840MOL0     H13397   9.702   1.043   4.098  0.0577 -0.7806 -3.4190
  840MOL0     H13398   9.807   0.990   3.814 -1.8573  2.0323  0.1649
  840MOL0     H13399   9.967   0.968   3.906 -0.1843 -0.8124  2.3561
  840MOL0     H13400   9.805   0.918   3.971 -0.7818 -0.5719 -2.0708
  841MOL0     O13401   1.971   1.114   1.805 -0.3242  0.4058 -0.0627
  841MOL0     C13402   2.039   1.023   1.759  0.1024  0.1307  0.8278
  841MOL0     O13403   1.987   0.905   1.712  0.1948 -0.8028  0.6848
  841MOL0     C13404   1.859   0.891   1.763  0.1246  0.3833  0.1130
  841MOL0     C13405   1.749   0.896   1.672 -0.3266 -0.3386  0.4411
  841MOL0     C13406   1.627   0.875   1.721 -0.6919  0.2503 -0.7913
  841MOL0     C13407   1.614   0.845   1.853  0.6637 -0.1893 -1.0492
  841MOL0     O13408   1.492   0.812   1.909  0.5352  0.2072 -0.3735
  841MOL0     C13409   1.378   0.854   1.842  1.1422  0.2658  0.7470
  841MOL0     C13410   1.260   0.784   1.918  1.6835  0.4473 -0.2974
  841MOL0     C13411   1.250   0.820   2.070 -0.1813  0.4944  0.4046
  841MOL0     C13412   1.151   0.731   2.146  0.6321 -0.4863  0.1807
  841MOL0     C13413   1.002   0.762   2.095 -0.5696 -0.2565  0.2089
  841MOL0     C13414   0.898   0.687   2.182  0.0222 -0.4694 -0.1745
  841MOL0     C13415   0.887   0.736   2.329  0.1946  0.1742  0.1834
  841MOL0     C13416   0.800   0.646   2.415  0.4783 -0.0018 -0.3837
  841MOL0     N13417   0.656   0.651   2.375 -0.4010  0.1217 -0.9828
  841MOL0     C13418   0.580   0.763   2.406  0.8049 -0.3403  0.3785
  841MOL0     C13419   0.466   0.750   2.338 -0.5834  0.0422 -1.1209
  841MOL0     C13420   0.351   0.843   2.363 -0.4150  0.3839  0.7371
  841MOL0     C13421   0.329   0.961   2.259 -0.0365  0.1793 -0.0388
  841MOL0     C13422   0.421   1.076   2.271  1.1459  0.2636  0.0701
  841MOL0     C13423   0.533   1.066   2.170 -0.3985  0.1080 -0.2415
  841MOL0     O13424   0.646   1.155   2.200  0.1078 -0.4100 -0.0140
  841MOL0     C13425   0.748   1.164   2.106  0.8019  0.3793  0.1128
  841MOL0     C13426   0.766   1.077   1.993  0.3649  0.2989  0.3076
  841MOL0     C13427   0.879   1.080   1.909  0.5123  0.0228 -0.3395
  841MOL0     C13428   0.976   1.178   1.929 -0.5978 -0.4154 -0.8665
  841MOL0     C13429   1.095   1.193   1.852  0.0887 -0.7206  0.2836
  841MOL0     O13430   1.179   1.300   1.855  0.1484 -0.2742 -0.3754
  841MOL0     C13431   1.297   1.280   1.782 -0.4020  0.0922 -0.3751
  841MOL0     C13432   1.293   1.283   1.646 -0.4666  0.7374  0.8126
  841MOL0     C13433   1.401   1.239   1.568 -0.5143 -0.6730 -0.0596
  841MOL0     C13434   1.524   1.212   1.627  0.0855  0.1383 -0.1477
  841MOL0     O13435   1.635   1.165   1.560 -0.7265  0.4298  0.2253
  841MOL0     C13436   1.694   1.252   1.467 -0.3287  0.2088  0.3852
  841MOL0     C13437   1.844   1.250   1.485 -0.9915  0.0410  0.4599
  841MOL0     C13438   1.911   1.222   1.346  0.0804 -0.0093 -0.5743
  841MOL0     C13439   2.060   1.188   1.365 -0.6388  0.2572  0.1011
  841MOL0     C13440   2.154   1.308   1.396  0.3400  0.2410  0.3787
  841MOL0     C13441   2.294   1.254   1.388  0.0334  0.6723 -0.0143
  841MOL0     C13442   2.395   1.371   1.408 -0.1599  0.2015 -0.0443
  841MOL0     C13443   2.407   1.449   1.282 -1.0814  0.0397 -0.7887
  841MOL0    Cl13444   2.557   1.551   1.284  0.2035  0.1376 -0.2976
  841MOL0     C13445   1.525   1.189   1.760  0.9340 -0.5599 -1.2211
  841MOL0     C13446   1.421   1.233   1.842  0.8015 -0.5729  1.2059
  841MOL0     O13447   1.117   1.089   1.789  0.9849  0.0094 -0.0346
  841MOL0     C13448   0.963   1.254   2.043  0.2524 -0.5063 -0.3855
  841MOL0     C13449   0.854   1.246   2.133  0.0919 -0.9423 -0.5753
  841MOL0     N13450   0.468   0.624   2.277 -0.1073 -0.4607  0.6068
  841MOL0     N13451   0.587   0.577   2.292  0.5657  0.1034  0.6419
  841MOL0     C13452   1.714   0.839   1.944  0.4547  0.7956  0.3534
  841MOL0     C13453   1.843   0.863   1.899 -0.2507  0.9881  0.3061
  841MOL0     C13454   2.181   1.059   1.750 -0.8358 -0.7390 -0.2618
  841MOL0     C13455   2.236   1.191   1.739 -0.5934 -0.5241 -0.8987
  841MOL0     C13456   2.371   1.218   1.737 -0.1244 -0.2736  0.5705
  841MOL0     C13457   2.469   1.117   1.744 -0.5760  0.5734  0.1306
  841MOL0     O13458   2.603   1.137   1.763 -0.3685  0.2626  0.4375
  841MOL0     C13459   2.641   1.271   1.795 -0.8446  0.9001 -0.3712
  841MOL0     C13460   2.793   1.277   1.824 -0.3129  0.2831  0.1195
  841MOL0     C13461   2.903   1.277   1.707  0.0916  0.2771 -0.5952
  841MOL0     C13462   2.885   1.377   1.597  0.7182  0.2577  0.3321
  841MOL0     C13463   2.819   1.338   1.473 -0.0255  0.1366  1.0480
  841MOL0     C13464   2.777   1.305   1.355  0.9669  0.2702 -0.1512
  841MOL0     C13465   2.419   0.983   1.750  0.5861 -0.9024 -0.4835
  841MOL0     C13466   2.278   0.957   1.766  0.2172 -0.1111 -0.0806
  841MOL0     C13467   2.235   0.804   1.788  0.5146 -0.5206 -0.0259
  841MOL0     H13468   1.746   0.917   1.565  1.1290  1.5002  0.7008
  841MOL0     H13469   1.544   0.873   1.651 -1.4713 -0.6542  0.1224
  841MOL0     H13470   1.366   0.963   1.848  0.0806  0.3382 -1.4547
  841MOL0     H13471   1.380   0.824   1.737 -1.2231 -0.6183  0.9002
  841MOL0     H13472   1.283   0.677   1.915 -2.2428 -0.6431  1.7082
  841MOL0     H13473   1.167   0.797   1.862  2.0871 -1.3985 -1.5002
  841MOL0     H13474   1.223   0.926   2.075 -0.9005  0.4143 -1.3083
  841MOL0     H13475   1.351   0.798   2.107  0.6360  0.6295 -1.6093
  841MOL0     H13476   1.181   0.630   2.117  1.3780 -0.3423  0.4243
  841MOL0     H13477   1.160   0.743   2.255  0.1769  1.1676  0.0657
  841MOL0     H13478   1.000   0.869   2.116 -2.4722 -0.5133  1.6863
  841MOL0     H13479   0.993   0.742   1.988 -3.0150 -0.2464  0.3499
  841MOL0     H13480   0.801   0.700   2.132 -1.6359 -1.0031  2.7004
  841MOL0     H13481   0.932   0.583   2.175 -1.1412 -0.8505 -0.2929
  841MOL0     H13482   0.844   0.836   2.317 -0.6895 -0.4149 -2.1331
  841MOL0     H13483   0.985   0.743   2.377 -0.5082  2.2624  1.4454
  841MOL0     H13484   0.831   0.541   2.413 -0.0124 -0.1852  0.8064
  841MOL0     H13485   0.807   0.670   2.521 -0.7190  1.4814 -0.6092
  841MOL0     H13486   0.612   0.846   2.468  0.5796  1.7379 -2.0976
  841MOL0     H13487   0.258   0.786   2.375  1.0487 -2.4651 -0.4510
  841MOL0     H13488   0.375   0.889   2.459 -0.9585  1.7659  0.2280
  841MOL0     H13489   0.338   0.914   2.161 -0.7811 -0.0126 -0.0211
  841MOL0     H13490   0.226   0.997   2.253 -0.1288  0.0393  0.5900
  841MOL0     H13491   0.465   1.071   2.371  0.4101 -0.4336  0.3680
  841MOL0     H13492   0.376   1.174   2.250 -0.6170  0.1662  2.8929
  841MOL0     H13493   0.492   1.081   2.070  1.1935 -0.3002 -0.9971
  841MOL0     H13494   0.573   0.964   2.171  1.9551  0.9548 -0.0968
  841MOL0     H13495   0.685   1.014   1.958 -1.0563  3.0632 -1.7671
  841MOL0     H13496   0.895   1.002   1.835 -1.8258 -0.5719 -0.3135
  841MOL0     H13497   1.204   1.318   1.595  1.0359 -0.3637 -3.0090
  841MOL0     H13498   1.397   1.228   1.460 -0.2403 -3.7705  0.1407
  841MOL0     H13499   1.668   1.215   1.367  0.8204 -4.4575  1.5450
  841MOL0     H13500   1.670   1.358   1.471  0.4363  0.3887  0.2978
  841MOL0     H13501   1.886   1.337   1.536 -0.7818 -0.7901  1.7536
  841MOL0     H13502   1.870   1.161   1.543  0.3368 -1.3131 -2.0600
  841MOL0     H13503   1.857   1.141   1.296 -1.2490  1.0916 -0.9839
  841MOL0     H13504   1.908   1.310   1.281 -0.5991  1.1978  1.0192
  841MOL0     H13505   2.095   1.146   1.270 -0.6173  0.3981  0.0465
  841MOL0     H13506   2.073   1.116   1.447 -0.8714  1.4475  1.2170
  841MOL0     H13507   2.126   1.356   1.490 -0.5591 -0.3890  0.4481
  841MOL0     H13508   2.139   1.371   1.308  1.1744 -1.3163 -0.9288
  841MOL0     H13509   2.306   1.184   1.471 -1.4066  2.2269  1.5998
  841MOL0     H13510   2.327   1.200   1.299  0.5792 -1.0606  1.1956
  841MOL0     H13511   2.496   1.334   1.425 -0.8550 -1.4402  0.6914
  841MOL0     H13512   2.354   1.426   1.494 -1.4438 -3.6343  2.0014
  841MOL0     H13513   2.409   1.379   1.199 -4.0174  1.6418 -2.3645
  841MOL0     H13514   2.321   1.516   1.268  0.5662  2.3307 -0.5703
  841MOL0     H13515   1.615   1.146   1.804 -0.9097 -1.6837  1.7439
  841MOL0     H13516   1.423   1.224   1.950  1.0509  0.7614  1.3372
  841MOL0     H13517   1.045   1.321   2.069 -0.2013 -0.9602  2.5572
  841MOL0     H13518   0.857   1.304   2.226  0.4012  0.2694 -1.3135
  841MOL0     H13519   1.695   0.803   2.044 -2.9027 -0.4263 -0.5709
  841MOL0     H13520   1.940   0.865   1.947 -0.3604 -0.6199  0.6484
  841MOL0     H13521   2.166   1.273   1.743  2.8210  2.5954  0.7901
  841MOL0     H13522   2.389   1.324   1.727  0.1726 -0.4432 -0.8766
  841MOL0     H13523   2.600   1.319   1.884  1.6389  0.7352  0.9296
  841MOL0     H13524   2.621   1.339   1.711  0.0672  0.7688 -0.7115
  841MOL0     H13525   2.806   1.196   1.896 -1.3148  0.3051  0.3361
  841MOL0     H13526   2.806   1.369   1.882 -1.5206  1.9277 -2.0802
  841MOL0     H13527   2.918   1.175   1.671 -0.6567 -0.5238  1.2192
  841MOL0     H13528   2.997   1.303   1.755  0.9281  0.5817 -2.3304
  841MOL0     H13529   2.821   1.453   1.642 -1.2582  0.2564 -2.2376
  841MOL0     H13530   2.980   1.427   1.574  1.4483 -0.2249  2.1674
  841MOL0     H13531   2.733   1.301   1.257  0.8070  1.5645 -0.1423
  841MOL0     H13532   2.483   0.898   1.768 -0.3109 -2.4645 -3.8280
  841MOL0     H13533   2.144   0.800   1.847 -1.3999  2.4276 -2.4845
  841MOL0     H13534   2.202   0.755   1.696 -1.0025 -0.2074  0.3224
  841MOL0     H13535   2.317   0.750   1.836 -0.2940 -0.7687  1.1269
  842MOL0     O13536   6.208   6.702   1.402  0.0797  0.4836 -0.4682
  842MOL0     C13537   6.104   6.684   1.461  0.9137  0.6418 -0.0151
  842MOL0     O13538   6.087   6.649   1.596 -0.1044  0.0318  0.7073
  842MOL0     C13539   6.201   6.630   1.665 -0.4249  0.0715 -1.5636
  842MOL0     C13540   6.288   6.524   1.632 -0.0544  0.7931  0.2671
  842MOL0     C13541   6.414   6.520   1.685  0.1538  0.7667  0.1642
  842MOL0     C13542   6.460   6.629   1.761  0.2333  0.1933 -1.2503
  842MOL0     O13543   6.591   6.652   1.800  0.8303  0.2019  0.0400
  842MOL0     C13544   6.697   6.554   1.760 -0.3666 -0.3867 -0.1403
  842MOL0     C13545   6.823   6.593   1.830  0.4053 -0.3231 -0.6748
  842MOL0     C13546   6.861   6.742   1.800  0.6087  0.3423  0.1730
  842MOL0     C13547   6.960   6.776   1.914  0.0887  0.6230  0.3418
  842MOL0     C13548   7.008   6.914   1.895  1.1274 -0.0029 -0.2655
  842MOL0     C13549   7.146   6.933   1.960 -0.3834 -0.0820 -0.9755
  842MOL0     C13550   7.144   6.952   2.111  1.1127 -0.1641 -0.1682
  842MOL0     C13551   7.271   7.007   2.161 -0.0279  0.3358  0.4391
  842MOL0     N13552   7.265   6.982   2.300  0.6486  0.4924  0.2296
  842MOL0     C13553   7.274   7.079   2.392 -0.1440 -0.6708  0.3474
  842MOL0     C13554   7.277   7.010   2.513 -0.0084  0.7652  0.9722
  842MOL0     C13555   7.272   7.081   2.648  0.1596  1.0588 -0.0670
  842MOL0     C13556   7.393   7.170   2.665  0.5313  0.3671  0.5797
  842MOL0     C13557   7.341   7.317   2.687 -1.0766  0.3449 -0.0060
  842MOL0     C13558   7.452   7.406   2.737  0.3400  0.1191 -0.1165
  842MOL0     O13559   7.543   7.437   2.628 -0.1307 -1.2275 -0.4194
  842MOL0     C13560   7.673   7.453   2.669 -0.4337 -0.4060  0.0201
  842MOL0     C13561   7.737   7.580   2.680  0.6112  0.0683 -0.2339
  842MOL0     C13562   7.873   7.589   2.715  0.5928  0.2488 -0.8388
  842MOL0     C13563   7.954   7.472   2.749  0.4340  0.6551  0.0610
  842MOL0     C13564   8.105   7.480   2.777 -1.1030  0.4757  0.3172
  842MOL0     O13565   8.138   7.600   2.824 -0.2027 -0.1151  0.1515
  842MOL0     C13566   8.248   7.611   2.901 -0.2154 -0.5901  1.0404
  842MOL0     C13567   8.370   7.574   2.850 -0.3878 -0.0436 -0.4910
  842MOL0     C13568   8.485   7.588   2.930 -0.4376 -0.5349  0.0528
  842MOL0     C13569   8.481   7.647   3.065  0.7024  0.7623 -0.5122
  842MOL0     O13570   8.595   7.665   3.140  0.0189  0.0559 -0.7540
  842MOL0     C13571   8.611   7.791   3.209 -0.0330 -0.1061 -0.7009
  842MOL0     C13572   8.753   7.838   3.165  0.9181  0.2488  0.2733
  842MOL0     C13573   8.837   7.891   3.282  0.1671 -0.1361  0.3407
  842MOL0     C13574   8.973   7.943   3.239 -0.1287  0.0322  0.2920
  842MOL0     C13575   9.044   8.016   3.352  0.2998  0.8048  0.1645
  842MOL0     C13576   9.158   8.094   3.297  0.4334  1.5131 -0.1953
  842MOL0     C13577   9.236   8.172   3.401  0.1791  0.7798 -0.1141
  842MOL0     C13578   9.360   8.249   3.355  1.1099  0.5100 -0.2097
  842MOL0    Cl13579   9.442   8.336   3.485  0.2348  0.5816  0.3652
  842MOL0     C13580   8.350   7.687   3.105  0.1898 -0.0787  0.2974
  842MOL0     C13581   8.239   7.673   3.025  0.3539 -0.1465  0.1383
  842MOL0     O13582   8.174   7.372   2.779  0.4483  1.0100  0.3322
  842MOL0     C13583   7.893   7.344   2.718 -0.3181 -0.3439  0.1601
  842MOL0     C13584   7.759   7.338   2.684 -0.4798  0.3426 -0.3917
  842MOL0     N13585   7.273   6.871   2.481 -0.4210  0.6157 -0.3652
  842MOL0     N13586   7.261   6.857   2.360 -0.0872  0.3046 -0.4465
  842MOL0     C13587   6.374   6.732   1.794 -0.6440  0.5693  0.8223
  842MOL0     C13588   6.247   6.728   1.750  0.7140 -0.3444 -0.3402
  842MOL0     C13589   5.982   6.689   1.375  0.0970 -0.2134  0.7215
  842MOL0     C13590   5.990   6.642   1.241  0.3617 -0.4450 -0.8594
  842MOL0     C13591   5.874   6.630   1.154  0.4044  0.9187 -0.0600
  842MOL0     C13592   5.738   6.657   1.196  0.4729  0.1122  0.1885
  842MOL0     O13593   5.624   6.646   1.109  0.2521 -0.2454  0.1031
  842MOL0     C13594   5.643   6.562   0.994 -0.0309 -0.0135 -0.6596
  842MOL0     C13595   5.510   6.518   0.926  0.0714  0.0135  0.7880
  842MOL0     C13596   5.538   6.451   0.786  0.4515 -0.0200  0.0920
  842MOL0     C13597   5.642   6.348   0.790 -0.3419 -0.6090 -0.5069
  842MOL0     C13598   5.634   6.252   0.683  0.3011  1.1036  0.5030
  842MOL0     C13599   5.622   6.166   0.595  0.7467 -0.2044  0.1773
  842MOL0     C13600   5.732   6.707   1.332  0.0583 -0.5192  0.6299
  842MOL0     C13601   5.852   6.718   1.416  0.6854  0.2662  0.7410
  842MOL0     C13602   5.806   6.779   1.544  0.3223 -0.4848 -0.7586
  842MOL0     H13603   6.251   6.448   1.564  1.2531 -1.9064  2.4098
  842MOL0     H13604   6.480   6.439   1.656 -1.5223 -0.4565 -0.3949
  842MOL0     H13605   6.672   6.450   1.783 -2.3141 -0.2457 -1.3948
  842MOL0     H13606   6.714   6.571   1.653 -0.6142  1.7608  0.1015
  842MOL0     H13607   6.908   6.526   1.811 -0.9466 -1.6472 -2.3586
  842MOL0     H13608   6.792   6.590   1.935 -0.9028  3.0207 -0.8753
  842MOL0     H13609   6.779   6.814   1.806  1.1214  1.0911 -1.3033
  842MOL0     H13610   6.894   6.762   1.697 -2.7896 -0.6278 -1.2284
  842MOL0     H13611   6.900   6.758   2.004 -1.2062  1.1191 -0.3999
  842MOL0     H13612   7.042   6.705   1.924 -1.1454 -0.7259  1.1621
  842MOL0     H13613   7.023   6.938   1.790 -0.3524 -1.0921 -0.7510
  842MOL0     H13614   6.941   6.985   1.945  0.2131 -0.7022 -0.4620
  842MOL0     H13615   7.214   6.856   1.924  0.1578  0.2744 -0.7257
  842MOL0     H13616   7.189   7.026   1.922 -0.4687 -0.0204 -0.9241
  842MOL0     H13617   7.119   6.858   2.160  0.3318  0.4500  0.6467
  842MOL0     H13618   7.060   7.018   2.134  0.7472 -0.2280 -1.2799
  842MOL0     H13619   7.356   6.967   2.105  0.4660  3.2133 -1.0949
  842MOL0     H13620   7.265   7.115   2.145  0.5612 -0.0321 -3.1170
  842MOL0     H13621   7.292   7.183   2.368 -1.5911 -0.6403 -0.7121
  842MOL0     H13622   7.182   7.144   2.647 -1.6891 -1.3704 -2.7744
  842MOL0     H13623   7.258   7.015   2.734  2.7273 -1.9051 -1.7067
  842MOL0     H13624   7.447   7.125   2.749 -1.5507 -2.0167  0.7623
  842MOL0     H13625   7.453   7.165   2.574  0.5139  1.1336  0.5230
  842MOL0     H13626   7.258   7.326   2.757 -1.1136 -0.3430  0.0454
  842MOL0     H13627   7.293   7.350   2.594 -1.3807  0.0869  0.0554
  842MOL0     H13628   7.496   7.353   2.822  1.6365 -0.6838 -1.2505
  842MOL0     H13629   7.411   7.499   2.777 -0.9732 -1.1414  1.6395
  842MOL0     H13630   7.688   7.675   2.662 -0.0004 -0.3976 -1.1407
  842MOL0     H13631   7.907   7.692   2.711  0.3798  0.3013 -1.4324
  842MOL0     H13632   8.381   7.520   2.756 -0.1309  1.5349 -1.4105
  842MOL0     H13633   8.576   7.542   2.893 -1.9419 -2.3450 -1.6119
  842MOL0     H13634   8.529   7.860   3.186 -2.0682 -1.5087  1.8294
  842MOL0     H13635   8.607   7.787   3.318 -0.4171  0.5217 -0.6880
  842MOL0     H13636   8.816   7.758   3.126 -1.0755 -3.4109  3.8167
  842MOL0     H13637   8.741   7.918   3.091  3.6768  2.6492  2.1562
  842MOL0     H13638   8.784   7.965   3.343 -0.9741 -0.7234  0.0825
  842MOL0     H13639   8.854   7.808   3.351 -1.1141 -0.7891 -0.0897
  842MOL0     H13640   8.974   8.012   3.154  1.6355  0.4380  0.6013
  842MOL0     H13641   9.038   7.861   3.208  1.3972  1.1057  0.5346
  842MOL0     H13642   9.081   7.940   3.423  1.3272  1.3329  0.2163
  842MOL0     H13643   8.978   8.088   3.400 -1.1843  0.7717 -1.7427
  842MOL0     H13644   9.223   8.016   3.257 -3.1580 -2.1925  0.5085
  842MOL0     H13645   9.120   8.155   3.215 -0.1894  0.4854 -0.7023
  842MOL0     H13646   9.269   8.119   3.491 -0.3537 -0.2236 -0.4939
  842MOL0     H13647   9.169   8.249   3.439  1.6373  1.8339  0.4220
  842MOL0     H13648   9.429   8.183   3.302 -2.2096 -1.6580 -2.2164
  842MOL0     H13649   9.336   8.324   3.278 -0.3370  1.7098  1.3447
  842MOL0     H13650   8.357   7.746   3.196  3.6890 -0.6477  0.5112
  842MOL0     H13651   8.144   7.709   3.065 -0.1597 -2.1462  0.8988
  842MOL0     H13652   7.933   7.243   2.712  1.6632  0.4659 -0.8382
  842MOL0     H13653   7.723   7.240   2.656 -0.3094  0.7137 -2.0317
  842MOL0     H13654   6.413   6.818   1.848 -1.4302  0.5746  1.4076
  842MOL0     H13655   6.180   6.813   1.766  0.2813 -0.6889 -0.2930
  842MOL0     H13656   6.087   6.622   1.195  0.9034  1.5337 -0.7102
  842MOL0     H13657   5.900   6.587   1.058  2.2208  1.1102  0.3234
  842MOL0     H13658   5.702   6.472   1.017 -0.1968 -1.2906 -4.4469
  842MOL0     H13659   5.704   6.613   0.919  1.7898  0.9975  1.3977
  842MOL0     H13660   5.447   6.607   0.913 -0.6666 -0.3220  2.0009
  842MOL0     H13661   5.446   6.458   0.991 -0.2172  1.1917  1.6213
  842MOL0     H13662   5.570   6.525   0.712  2.1012  0.6168  1.3602
  842MOL0     H13663   5.447   6.399   0.756 -0.4481  0.8593  1.2005
  842MOL0     H13664   5.739   6.398   0.777  0.2758 -1.8727 -0.9123
  842MOL0     H13665   5.649   6.291   0.882 -1.1671 -2.3089 -1.4439
  842MOL0     H13666   5.599   6.101   0.513  0.1162 -4.9476  3.6595
  842MOL0     H13667   5.631   6.709   1.372 -1.2893 -0.9641 -2.4839
  842MOL0     H13668   5.813   6.888   1.537  3.5777 -0.3959  1.6376
  842MOL0     H13669   5.707   6.755   1.581  0.1886  3.5836  2.2176
  842MOL0     H13670   5.873   6.758   1.628 -0.2461  1.2947  0.1993
  843MOL0     O13671   2.983   1.581   4.703  0.3047 -0.0231  0.3042
  843MOL0     C13672   2.975   1.594   4.578 -0.3963 -0.2330 -0.7728
  843MOL0     O13673   2.897   1.674   4.507  0.0243  0.2110 -0.6802
  843MOL0     C13674   2.812   1.759   4.572 -0.1334 -0.2540  0.5283
  843MOL0     C13675   2.861   1.855   4.651 -0.2009  0.1045 -0.7218
  843MOL0     C13676   2.768   1.934   4.721 -0.8547  0.9742  0.3239
  843MOL0     C13677   2.632   1.940   4.686 -0.1557 -0.5327 -0.7590
  843MOL0     O13678   2.548   2.031   4.744  0.3464  1.2293 -0.3822
  843MOL0     C13679   2.568   2.158   4.687 -0.7150 -0.5688  0.5227
  843MOL0     C13680   2.507   2.260   4.772 -0.1090  1.0853  0.1174
  843MOL0     C13681   2.592   2.299   4.886  0.3862 -0.1453  0.2808
  843MOL0     C13682   2.505   2.399   4.980 -0.3586  0.5692 -0.5888
  843MOL0     C13683   2.581   2.441   5.100  0.4997 -0.8962  0.0574
  843MOL0     C13684   2.517   2.553   5.182  0.0993  0.3899  0.1262
  843MOL0     C13685   2.412   2.502   5.286 -0.0979 -0.9458 -0.0582
  843MOL0     C13686   2.295   2.598   5.315 -0.2211 -0.2776 -0.0285
  843MOL0     N13687   2.333   2.719   5.395 -0.2791 -0.8784 -0.6498
  843MOL0     C13688   2.455   2.751   5.451 -0.2819  0.6419  0.5462
  843MOL0     C13689   2.435   2.853   5.533 -0.5131  0.2109 -0.4920
  843MOL0     C13690   2.531   2.926   5.618  0.8071 -0.4391  0.2399
  843MOL0     C13691   2.544   3.071   5.580 -0.9971 -0.8859 -0.8772
  843MOL0     C13692   2.671   3.112   5.667 -0.1399  0.0452 -0.1497
  843MOL0     C13693   2.714   3.237   5.605 -0.4903 -1.0824 -0.1629
  843MOL0     O13694   2.839   3.283   5.676  0.0835 -0.2129 -0.1216
  843MOL0     C13695   2.943   3.343   5.603  1.1568  0.9784  0.0854
  843MOL0     C13696   2.920   3.424   5.494  0.3733  0.4617  0.9755
  843MOL0     C13697   3.037   3.479   5.423  0.8234  0.9025 -0.1655
  843MOL0     C13698   3.167   3.464   5.478 -0.0109  1.3370 -0.1507
  843MOL0     C13699   3.280   3.539   5.418 -0.5680 -0.0771  0.0584
  843MOL0     O13700   3.405   3.504   5.457  0.3378 -0.3782 -0.1226
  843MOL0     C13701   3.519   3.537   5.391 -0.5970  0.1747 -1.1227
  843MOL0     C13702   3.515   3.579   5.257 -0.0922  0.0477  0.1924
  843MOL0     C13703   3.639   3.604   5.199  0.0952  0.0973 -0.0117
  843MOL0     C13704   3.764   3.589   5.259 -0.1924 -0.6506 -0.0220
  843MOL0     O13705   3.876   3.608   5.177 -0.2437  0.7972 -1.1089
  843MOL0     C13706   3.999   3.560   5.229 -0.7022  0.4922  0.4754
  843MOL0     C13707   4.108   3.598   5.119 -0.0438  0.6437  0.0087
  843MOL0     C13708   4.119   3.499   5.002  0.3552  1.2853  0.3724
  843MOL0     C13709   4.212   3.546   4.890 -0.6549 -0.2611 -0.8652
  843MOL0     C13710   4.218   3.454   4.765  0.1320 -0.1506 -0.5105
  843MOL0     C13711   4.349   3.454   4.691  0.3082 -0.1655  0.6108
  843MOL0     C13712   4.398   3.593   4.643  0.1661 -0.2489  0.6426
  843MOL0     C13713   4.523   3.593   4.553  1.1374  0.0078  0.1373
  843MOL0    Cl13714   4.677   3.588   4.638 -0.5805 -0.0924  0.0150
  843MOL0     C13715   3.766   3.550   5.390  0.8474 -0.0362  0.0574
  843MOL0     C13716   3.647   3.521   5.460  0.1757  0.3941 -0.1273
  843MOL0     O13717   3.256   3.641   5.353 -0.6601  0.1648 -0.4928
  843MOL0     C13718   3.178   3.386   5.597  0.8784 -0.7051  0.5149
  843MOL0     C13719   3.065   3.333   5.657 -0.9388  0.1843  0.2693
  843MOL0     N13720   2.298   2.881   5.524  0.6575  0.3730 -0.0148
  843MOL0     N13721   2.239   2.809   5.435  0.0899 -0.6775  0.3637
  843MOL0     C13722   2.586   1.850   4.590  0.3212  0.2673 -0.5290
  843MOL0     C13723   2.679   1.758   4.539  1.3251 -0.0411 -0.7940
  843MOL0     C13724   3.063   1.508   4.506 -0.2599 -0.1500  0.1631
  843MOL0     C13725   3.200   1.522   4.545  0.0926  0.0067 -0.0016
  843MOL0     C13726   3.294   1.436   4.493 -0.1124  0.8970  0.4985
  843MOL0     C13727   3.248   1.337   4.403 -0.1141 -0.3964  0.0806
  843MOL0     O13728   3.331   1.238   4.368  0.2780 -0.0324  0.5194
  843MOL0     C13729   3.412   1.187   4.475 -0.3632  0.5945  0.6984
  843MOL0     C13730   3.505   1.075   4.413  0.9854  0.4247 -1.0687
  843MOL0     C13731   3.614   1.019   4.504  0.9116 -0.0899 -0.6769
  843MOL0     C13732   3.682   0.892   4.446  0.6055 -0.2816  0.1615
  843MOL0     C13733   3.827   0.888   4.468  0.3098 -1.1192 -0.1346
  843MOL0     C13734   3.944   0.886   4.478  0.3945  0.0706 -0.4754
  843MOL0     C13735   3.117   1.334   4.354  0.1607  0.7838 -0.3106
  843MOL0     C13736   3.023   1.417   4.411 -0.1925  0.8329  0.4905
  843MOL0     C13737   2.876   1.397   4.371 -1.0216  0.1458 -0.0783
  843MOL0     H13738   2.967   1.851   4.674 -0.3878  2.0640  0.7974
  843MOL0     H13739   2.805   1.998   4.800  0.7206  0.7166 -0.1769
  843MOL0     H13740   2.672   2.181   4.663 -1.0871  0.1089 -0.5685
  843MOL0     H13741   2.506   2.161   4.597 -2.0989  0.6981  1.4726
  843MOL0     H13742   2.422   2.208   4.817  1.8136  0.4232  3.3598
  843MOL0     H13743   2.489   2.346   4.708 -0.9725  0.4046 -0.5787
  843MOL0     H13744   2.678   2.359   4.853 -0.5629  1.9341  1.3784
  843MOL0     H13745   2.625   2.214   4.946  0.4677  0.8513  1.6828
  843MOL0     H13746   2.471   2.487   4.926 -0.0748  1.0482  0.0071
  843MOL0     H13747   2.412   2.349   5.011 -0.7869  1.6462 -0.1100
  843MOL0     H13748   2.593   2.351   5.161  0.1380 -0.4149  0.8557
  843MOL0     H13749   2.681   2.479   5.077 -0.3901  4.2250  3.0267
  843MOL0     H13750   2.596   2.602   5.240 -0.5801  1.3388  0.2592
  843MOL0     H13751   2.479   2.629   5.112 -0.5051  0.6271  0.7058
  843MOL0     H13752   2.456   2.474   5.382 -3.5579 -3.5865  0.9435
  843MOL0     H13753   2.371   2.404   5.263 -2.2330 -0.7298  2.4322
  843MOL0     H13754   2.260   2.640   5.221 -0.4562 -0.1911  0.0980
  843MOL0     H13755   2.215   2.540   5.360  0.4330 -0.2990  1.1524
  843MOL0     H13756   2.550   2.702   5.433 -0.0155  1.6724 -1.0810
  843MOL0     H13757   2.498   2.906   5.720 -0.2563 -0.8768 -0.1721
  843MOL0     H13758   2.628   2.875   5.618  1.2384  0.3552  1.1127
  843MOL0     H13759   2.566   3.092   5.475  1.1297  0.2554 -0.2544
  843MOL0     H13760   2.447   3.121   5.593 -0.5903 -0.0141 -1.1399
  843MOL0     H13761   2.746   3.033   5.659 -1.9225 -1.5802 -1.9129
  843MOL0     H13762   2.645   3.129   5.772 -3.3346  0.2664 -0.8567
  843MOL0     H13763   2.641   3.317   5.622  2.4231  1.3703  2.1238
  843MOL0     H13764   2.740   3.227   5.499 -0.7643  1.5639 -0.5549
  843MOL0     H13765   2.818   3.426   5.458  1.7916  0.1195 -3.6864
  843MOL0     H13766   3.022   3.527   5.327  0.7431  1.3578  0.0751
  843MOL0     H13767   3.429   3.609   5.198 -1.1521 -0.8160  1.2391
  843MOL0     H13768   3.630   3.621   5.092 -2.4382  6.8220  0.8166
  843MOL0     H13769   4.036   3.614   5.316 -1.0898  1.7796 -0.1387
  843MOL0     H13770   4.003   3.452   5.247 -1.7277 -0.0503 -2.0428
  843MOL0     H13771   4.076   3.693   5.075  0.9292 -0.5200 -3.5421
  843MOL0     H13772   4.205   3.598   5.168  0.2400  1.1307 -0.5498
  843MOL0     H13773   4.134   3.394   5.031 -4.0281  0.6390  1.0165
  843MOL0     H13774   4.021   3.492   4.955  0.8039  1.5789 -0.6186
  843MOL0     H13775   4.309   3.552   4.942 -1.6819  1.8132  0.9891
  843MOL0     H13776   4.191   3.649   4.859 -1.5740 -1.1395 -3.3990
  843MOL0     H13777   4.147   3.486   4.688  0.6224  0.6327 -0.6489
  843MOL0     H13778   4.200   3.349   4.786  0.4659  0.1749  1.6927
  843MOL0     H13779   4.414   3.404   4.763 -1.2853 -3.6186 -0.1154
  843MOL0     H13780   4.342   3.386   4.605 -1.1427  2.0539 -1.1485
  843MOL0     H13781   4.403   3.667   4.724 -4.1501  1.5018 -0.4240
  843MOL0     H13782   4.321   3.623   4.571  3.8570  0.3938 -3.4461
  843MOL0     H13783   4.518   3.498   4.498 -1.0053 -1.7813  3.1454
  843MOL0     H13784   4.519   3.680   4.487  0.7129 -0.1363 -0.0311
  843MOL0     H13785   3.852   3.534   5.453  1.4899 -0.0161 -0.8028
  843MOL0     H13786   3.654   3.489   5.563 -0.1511 -0.9273 -0.5023
  843MOL0     H13787   3.266   3.378   5.660 -0.0282  2.7681  2.4675
  843MOL0     H13788   3.068   3.281   5.753 -0.4836 -1.6691 -0.7157
  843MOL0     H13789   2.481   1.836   4.565  0.3165  0.9376 -0.8926
  843MOL0     H13790   2.643   1.669   4.489  1.1345  0.3311 -1.3335
  843MOL0     H13791   3.237   1.588   4.623  1.6653  1.0070 -1.4960
  843MOL0     H13792   3.399   1.451   4.517 -0.0569 -0.2745  1.0597
  843MOL0     H13793   3.348   1.152   4.557 -1.1591  1.4588  0.4500
  843MOL0     H13794   3.479   1.265   4.514 -1.5054  2.4448 -0.8748
  843MOL0     H13795   3.556   1.116   4.325  0.4963 -1.4804 -2.3085
  843MOL0     H13796   3.437   0.994   4.387 -0.3960  0.5585  1.7747
  843MOL0     H13797   3.589   1.003   4.609 -1.1639  0.1352 -1.0910
  843MOL0     H13798   3.690   1.096   4.515 -0.2499  0.9898  0.0324
  843MOL0     H13799   3.626   0.807   4.485 -3.3197  0.7217 -2.6627
  843MOL0     H13800   3.679   0.894   4.336  0.7651  1.9158  0.1482
  843MOL0     H13801   4.048   0.876   4.504 -0.3239 -2.0445  2.0279
  843MOL0     H13802   3.105   1.262   4.273  0.1357  1.8487 -1.2773
  843MOL0     H13803   2.839   1.485   4.318 -0.2060  1.1711  0.9967
  843MOL0     H13804   2.874   1.304   4.315  0.7396  0.0056  0.0528
  843MOL0     H13805   2.822   1.390   4.466 -0.7002  1.5363  0.2280
  844MOL0     O13806  11.211   1.697   6.399 -0.1145 -0.2138  0.3170
  844MOL0     C13807  11.169   1.797   6.339 -0.1015  0.6142  0.0272
  844MOL0     O13808  11.247   1.901   6.287 -0.1864 -0.1452  0.9329
  844MOL0     C13809  11.375   1.883   6.261  0.2348  0.5696 -0.7880
  844MOL0     C13810  11.411   1.833   6.133 -0.1877 -0.9223 -0.3008
  844MOL0     C13811  11.533   1.770   6.107 -0.3604 -1.0691 -0.4371
  844MOL0     C13812  11.627   1.779   6.211 -0.8266  0.8115 -0.4419
  844MOL0     O13813  11.763   1.738   6.199 -0.0118  0.2420 -0.1446
  844MOL0     C13814  11.807   1.671   6.075 -0.8052  0.6432  0.7213
  844MOL0     C13815  11.968   1.651   6.084  0.2622 -1.0033  0.4964
  844MOL0     C13816  12.034   1.787   6.104  0.3078 -0.1702 -0.2518
  844MOL0     C13817  12.185   1.766   6.088 -0.0720  0.4455 -0.7405
  844MOL0     C13818  12.263   1.886   6.139  0.1143  0.5546  0.0921
  844MOL0     C13819  12.412   1.872   6.096 -0.1404 -0.6641  0.8677
  844MOL0     C13820  12.493   2.007   6.119  0.2984 -0.6686 -0.6499
  844MOL0     C13821  12.618   2.001   6.035  0.7081  0.4312  1.4355
  844MOL0     N13822  12.741   2.039   6.113  0.8710  0.6854  0.1299
  844MOL0     C13823  12.810   1.949   6.193  1.1922 -0.8427 -0.9369
  844MOL0     C13824  12.905   2.028   6.251  0.7439 -0.3726  0.0626
  844MOL0     C13825  13.007   1.985   6.353  0.6366 -1.1272  0.0587
  844MOL0     C13826  13.156   2.005   6.304 -1.0143  0.0563 -0.6208
  844MOL0     C13827  13.252   1.998   6.427  0.4047 -0.4700  0.2604
  844MOL0     C13828  13.297   1.864   6.486  0.4137 -0.7627  0.0914
  844MOL0     O13829  13.358   1.889   6.617  0.6102 -0.0353  0.5503
  844MOL0     C13830  13.491   1.931   6.611  0.4864 -0.2522  0.0307
  844MOL0     C13831  13.579   1.913   6.499  0.0870  0.8056 -0.3955
  844MOL0     C13832  13.709   1.959   6.506 -0.7837 -0.1336 -0.9566
  844MOL0     C13833  13.766   2.005   6.622  0.1607  0.2753 -0.4480
  844MOL0     C13834  13.909   2.045   6.615  0.3463 -0.1017 -0.5245
  844MOL0     O13835  13.972   2.001   6.502 -0.4470 -0.1502  0.1076
  844MOL0     C13836  14.105   2.010   6.473 -1.0011  0.7150 -0.1182
  844MOL0     C13837  14.136   1.945   6.351  1.1353 -0.5291 -0.0749
  844MOL0     C13838  14.265   1.950   6.309  0.3343  0.3066 -0.5671
  844MOL0     C13839  14.371   2.005   6.388 -0.2583  0.4206 -0.0929
  844MOL0     O13840  14.500   2.013   6.349  0.1214  0.5078 -0.4933
  844MOL0     C13841  14.543   1.960   6.220 -0.3074  0.6501 -0.5074
  844MOL0     C13842  14.693   1.985   6.190  0.5147 -1.0218  0.1439
  844MOL0     C13843  14.734   1.905   6.065  0.2397  0.2083 -0.2954
  844MOL0     C13844  14.862   1.966   6.024 -0.9763  0.2294  0.0667
  844MOL0     C13845  14.930   1.923   5.893  0.2552 -0.0183 -0.5855
  844MOL0     C13846  14.968   1.776   5.891  0.2561  0.4141 -0.0579
  844MOL0     C13847  15.021   1.750   5.747  0.6639 -0.3781 -0.3758
  844MOL0     C13848  15.078   1.613   5.721  0.0844 -0.2331  0.0799
  844MOL0    Cl13849  14.944   1.499   5.739  0.0840 -0.1707  0.3051
  844MOL0     C13850  14.338   2.068   6.511  0.4255  0.1992 -0.4685
  844MOL0     C13851  14.204   2.074   6.557  0.5299 -0.4960  0.0283
  844MOL0     O13852  13.958   2.095   6.717 -0.2167  0.4922  0.2921
  844MOL0     C13853  13.690   2.023   6.740  0.2162 -0.0910  0.4241
  844MOL0     C13854  13.553   1.980   6.720  0.1744 -0.3029 -0.2323
  844MOL0     N13855  12.898   2.158   6.195 -0.6588  0.2059  0.7726
  844MOL0     N13856  12.795   2.163   6.123  0.7436 -0.1415  0.0911
  844MOL0     C13857  11.595   1.823   6.339 -0.3071 -0.9766 -0.7478
  844MOL0     C13858  11.471   1.885   6.365 -0.1467 -0.6162  0.2580
  844MOL0     C13859  11.025   1.801   6.315  1.5482  0.1552  1.6110
  844MOL0     C13860  10.976   1.928   6.272  0.6692 -0.2741  0.0262
  844MOL0     C13861  10.839   1.941   6.235 -1.4879 -0.5545  0.0234
  844MOL0     C13862  10.764   1.829   6.210 -0.1279  0.3719  0.6922
  844MOL0     O13863  10.636   1.857   6.167  0.3632 -0.1898  0.6118
  844MOL0     C13864  10.626   1.830   6.026 -0.2259 -0.2183 -0.0367
  844MOL0     C13865  10.495   1.876   5.972  0.5485 -0.1799  0.0513
  844MOL0     C13866  10.373   1.783   6.009  0.2529 -0.5384  1.1192
  844MOL0     C13867  10.264   1.820   5.903 -1.0614 -0.6164  0.6202
  844MOL0     C13868  10.140   1.741   5.928  0.2224  0.0217  0.1561
  844MOL0     C13869  10.032   1.679   5.950 -0.2390  0.2097 -0.5020
  844MOL0     C13870  10.815   1.700   6.247  0.1429 -0.5599  0.4624
  844MOL0     C13871  10.942   1.683   6.303  0.5574  0.2838 -0.1157
  844MOL0     C13872  10.988   1.544   6.337 -0.2144  0.1131  0.5427
  844MOL0     H13873  11.330   1.829   6.061 -1.5495 -0.2284  1.1172
  844MOL0     H13874  11.553   1.728   6.008  1.4595  0.5590 -0.8151
  844MOL0     H13875  11.761   1.572   6.062  0.9340 -0.2594  1.0485
  844MOL0     H13876  11.778   1.723   5.984 -0.9033 -3.2876 -1.7511
  844MOL0     H13877  11.988   1.619   5.981  0.2861  1.1687 -0.2274
  844MOL0     H13878  11.987   1.577   6.162  0.4688 -0.5364  0.8958
  844MOL0     H13879  12.006   1.826   6.203  3.3737  1.0739  0.2464
  844MOL0     H13880  11.988   1.853   6.030 -1.5150 -1.8953 -0.7685
  844MOL0     H13881  12.225   1.676   6.136 -1.9787  1.0230  2.1716
  844MOL0     H13882  12.207   1.749   5.983  0.8354  1.7115 -0.7787
  844MOL0     H13883  12.220   1.974   6.091 -2.1581  0.8517  2.4770
  844MOL0     H13884  12.255   1.893   6.248 -3.3684  0.0484 -0.0427
  844MOL0     H13885  12.461   1.788   6.147 -1.4231 -1.5453  0.6856
  844MOL0     H13886  12.417   1.845   5.990 -0.6332 -2.1349  1.2085
  844MOL0     H13887  12.505   2.019   6.227 -1.6044  2.9415 -0.6682
  844MOL0     H13888  12.447   2.099   6.082 -0.7469 -0.2174  1.6209
  844MOL0     H13889  12.630   1.903   5.987 -0.8090  1.5523 -1.5275
  844MOL0     H13890  12.612   2.062   5.944  3.0845  0.5782  1.3013
  844MOL0     H13891  12.776   1.850   6.221 -4.0665  0.5989 -1.1925
  844MOL0     H13892  12.986   2.037   6.447  1.7651  0.7424 -0.6793
  844MOL0     H13893  12.983   1.883   6.385 -1.8322 -0.4574  0.5510
  844MOL0     H13894  13.189   1.932   6.230 -0.1218  0.4257 -0.6051
  844MOL0     H13895  13.165   2.107   6.266 -2.5928  0.1099 -0.9170
  844MOL0     H13896  13.208   2.065   6.502  2.0341 -0.1247  0.9421
  844MOL0     H13897  13.344   2.048   6.395 -0.2202  0.4196 -0.1881
  844MOL0     H13898  13.367   1.821   6.414  2.5005  2.4110 -0.0051
  844MOL0     H13899  13.207   1.802   6.490  0.6277 -1.0148  1.1634
  844MOL0     H13900  13.560   1.874   6.399  1.2512 -1.6861  0.2616
  844MOL0     H13901  13.766   1.914   6.425  0.5306 -2.9632  1.3293
  844MOL0     H13902  14.050   1.899   6.304 -1.0615  0.9932  2.1883
  844MOL0     H13903  14.291   1.909   6.212  0.5043  2.5457 -1.5411
  844MOL0     H13904  14.515   1.854   6.228 -2.4596  1.2473  0.3573
  844MOL0     H13905  14.481   1.992   6.136 -0.0537 -0.0730 -0.9913
  844MOL0     H13906  14.699   2.091   6.161  2.2506 -1.7513 -2.4612
  844MOL0     H13907  14.759   1.968   6.276  0.9554 -3.0618 -0.5434
  844MOL0     H13908  14.751   1.800   6.087  0.4988  0.5620  1.3738
  844MOL0     H13909  14.658   1.921   5.988  1.2990  0.4590 -1.3315
  844MOL0     H13910  14.938   1.947   6.100  0.2440  2.2842 -0.5683
  844MOL0     H13911  14.855   2.074   6.012  1.7306  0.4433 -0.0538
  844MOL0     H13912  15.014   1.993   5.888 -0.0018  0.3077 -0.3681
  844MOL0     H13913  14.863   1.948   5.810  0.3025  1.6544 -0.1554
  844MOL0     H13914  15.040   1.744   5.967  0.4887 -4.5230 -1.9819
  844MOL0     H13915  14.879   1.714   5.906 -0.4175  0.9746 -1.5209
  844MOL0     H13916  15.095   1.826   5.720 -0.7809  0.3233 -2.6129
  844MOL0     H13917  14.940   1.760   5.675  0.3927 -0.0357 -0.0275
  844MOL0     H13918  15.108   1.600   5.616  0.4970  0.7562  0.0666
  844MOL0     H13919  15.160   1.586   5.788 -1.7514 -0.4018  2.3570
  844MOL0     H13920  14.426   2.106   6.561  0.8479  3.1223 -3.0875
  844MOL0     H13921  14.173   2.114   6.653 -1.0120 -1.7166  0.0740
  844MOL0     H13922  13.735   2.062   6.830 -4.4236  1.4294  2.4188
  844MOL0     H13923  13.494   1.980   6.811 -0.8899 -3.3383 -0.7865
  844MOL0     H13924  11.673   1.813   6.413 -1.9861  4.0538  2.1924
  844MOL0     H13925  11.451   1.920   6.466 -1.0522  1.2879 -0.5251
  844MOL0     H13926  11.032   2.020   6.286 -0.3260  0.2737  0.4850
  844MOL0     H13927  10.792   2.037   6.218 -1.4579 -0.7896 -1.5714
  844MOL0     H13928  10.634   1.723   6.003 -1.2959  0.1268 -2.1962
  844MOL0     H13929  10.712   1.876   5.976 -0.5409  1.0616  0.5591
  844MOL0     H13930  10.514   1.868   5.865 -2.2797 -0.5550 -0.5067
  844MOL0     H13931  10.473   1.976   6.010 -0.6733 -1.4131  2.8788
  844MOL0     H13932  10.340   1.804   6.112 -4.0889 -3.3473  0.5943
  844MOL0     H13933  10.400   1.677   6.005  3.0577  0.1507 -0.5889
  844MOL0     H13934  10.242   1.928   5.908  0.2023 -0.3913  1.9157
  844MOL0     H13935  10.306   1.813   5.802 -1.5635  0.3138  0.3286
  844MOL0     H13936   9.937   1.634   5.968  0.0674  0.0510  0.8494
  844MOL0     H13937  10.736   1.626   6.238 -0.4877  0.3295 -2.6909
  844MOL0     H13938  11.031   1.500   6.247  0.4795  1.1502  0.3544
  844MOL0     H13939  11.055   1.535   6.423  0.1372 -0.5138  0.2142
  844MOL0     H13940  10.905   1.483   6.373  0.8679 -1.1023  1.1005
  845MOL0     O13941   4.419   3.131   1.249  0.0660  0.2375 -0.7572
  845MOL0     C13942   4.372   3.135   1.134  0.4444 -1.5974 -0.5525
  845MOL0     O13943   4.429   3.207   1.037  0.7334 -0.2715 -0.4620
  845MOL0     C13944   4.547   3.267   1.067 -0.4764  0.0583  0.1131
  845MOL0     C13945   4.650   3.208   0.992 -0.0432 -0.3377  0.5157
  845MOL0     C13946   4.785   3.254   1.017  0.3938 -0.2865  0.8345
  845MOL0     C13947   4.808   3.367   1.099 -0.0377 -0.0695  0.2672
  845MOL0     O13948   4.939   3.407   1.097  0.2766  0.5612  0.0453
  845MOL0     C13949   4.986   3.402   1.227  0.9540 -0.2021 -0.5230
  845MOL0     C13950   5.138   3.401   1.218  0.6419  1.1066  0.2669
  845MOL0     C13951   5.197   3.526   1.161 -0.4864  0.7507  0.3750
  845MOL0     C13952   5.345   3.544   1.204  0.7059 -0.0900 -0.5223
  845MOL0     C13953   5.362   3.618   1.337  0.3490 -0.0842 -0.3950
  845MOL0     C13954   5.508   3.619   1.380 -0.3748  0.3031  0.1526
  845MOL0     C13955   5.536   3.717   1.491 -0.1607  0.5189  0.0732
  845MOL0     C13956   5.672   3.670   1.553  0.6388  0.0036 -0.0591
  845MOL0     N13957   5.709   3.774   1.653  0.5677  0.3850  0.4764
  845MOL0     C13958   5.747   3.736   1.778 -0.3003  0.0720  0.6469
  845MOL0     C13959   5.767   3.844   1.849 -0.4384 -0.3189  0.4459
  845MOL0     C13960   5.821   3.870   1.989 -0.6068 -0.0297  0.3702
  845MOL0     C13961   5.965   3.944   2.000  1.3237 -0.6670  0.2607
  845MOL0     C13962   5.995   3.964   2.148  0.8382  0.6405 -0.4862
  845MOL0     C13963   6.124   4.030   2.180 -0.5432 -0.6344 -0.5015
  845MOL0     O13964   6.238   3.975   2.115  0.5537  0.0980  0.2777
  845MOL0     C13965   6.362   4.020   2.162  0.0891  0.3735  0.2501
  845MOL0     C13966   6.481   3.976   2.102  1.1816 -0.5225 -0.3098
  845MOL0     C13967   6.608   4.020   2.133 -0.4746  0.1658 -0.3308
  845MOL0     C13968   6.617   4.127   2.221 -0.9058  0.0079 -0.0091
  845MOL0     C13969   6.751   4.193   2.258  0.3533  0.1576  0.0177
  845MOL0     O13970   6.752   4.334   2.281 -0.1324  0.0512 -0.7715
  845MOL0     C13971   6.868   4.399   2.284 -0.1999  1.0529 -0.3027
  845MOL0     C13972   6.922   4.448   2.162  0.2736  0.2510 -0.3815
  845MOL0     C13973   7.046   4.517   2.162  0.5280  0.2935  0.1841
  845MOL0     C13974   7.120   4.536   2.274  0.6217  0.1523 -0.5901
  845MOL0     O13975   7.236   4.592   2.249 -0.2968  0.4431  0.0752
  845MOL0     C13976   7.305   4.653   2.358 -0.6891  0.2553  0.3515
  845MOL0     C13977   7.443   4.709   2.312 -0.3858 -0.8422 -0.4938
  845MOL0     C13978   7.546   4.607   2.289  0.3886  0.0853 -0.4601
  845MOL0     C13979   7.679   4.682   2.258  0.5653  0.7722 -0.0516
  845MOL0     C13980   7.793   4.584   2.231  0.6250 -0.3179  0.7039
  845MOL0     C13981   7.918   4.671   2.192 -1.0688  0.0107 -0.0257
  845MOL0     C13982   8.055   4.599   2.198  0.8870 -0.2054  0.1996
  845MOL0     C13983   8.163   4.698   2.176 -0.5191  0.6926 -0.2743
  845MOL0    Cl13984   8.158   4.765   2.015  0.1246  0.2771  0.0584
  845MOL0     C13985   7.058   4.492   2.392  1.2360 -0.9612  0.3253
  845MOL0     C13986   6.936   4.425   2.399  0.4995 -0.7534 -0.0243
  845MOL0     O13987   6.849   4.115   2.266 -0.4217 -0.1468 -0.5007
  845MOL0     C13988   6.497   4.185   2.275  0.6357 -0.0580  0.4490
  845MOL0     C13989   6.371   4.132   2.247 -0.1414 -0.4864 -0.3757
  845MOL0     N13990   5.747   3.951   1.762  0.2348  0.8961 -0.3260
  845MOL0     N13991   5.725   3.909   1.638  0.1029  0.3206  0.0037
  845MOL0     C13992   4.703   3.433   1.166  0.4730  0.2739 -0.7773
  845MOL0     C13993   4.576   3.377   1.154  1.2023 -0.0074  0.0463
  845MOL0     C13994   4.241   3.065   1.097 -0.6839  0.3201 -0.6598
  845MOL0     C13995   4.137   3.063   1.193 -0.1606 -0.7637  0.1288
  845MOL0     C13996   4.015   3.017   1.161 -1.3809 -0.4148  0.4046
  845MOL0     C13997   3.984   2.969   1.036  0.4082  0.1740 -0.2651
  845MOL0     O13998   3.852   2.924   1.030  0.3681  0.2499  0.1302
  845MOL0     C13999   3.798   2.910   0.896  0.0900 -0.7577  0.3383
  845MOL0     C14000   3.650   2.877   0.893  0.0887  0.3991 -0.0109
  845MOL0     C14001   3.546   2.980   0.945  0.1261  0.5317  0.2333
  845MOL0     C14002   3.573   3.121   0.889 -0.3606  0.4070  0.0217
  845MOL0     C14003   3.468   3.213   0.935 -0.2449  0.2580  0.6058
  845MOL0     C14004   3.387   3.284   0.978  0.1430  0.7384 -0.0483
  845MOL0     C14005   4.080   2.969   0.941  0.0717  0.1254  1.1356
  845MOL0     C14006   4.211   3.015   0.968  0.8580 -0.5711 -0.5533
  845MOL0     C14007   4.313   3.018   0.855  0.2253 -0.4455 -0.5332
  845MOL0     H14008   4.648   3.117   0.932 -2.5573 -0.7480  1.1047
  845MOL0     H14009   4.869   3.218   0.960  0.0467 -1.1672  0.8621
  845MOL0     H14010   4.946   3.486   1.285  0.9123 -0.4661 -0.1616
  845MOL0     H14011   4.960   3.320   1.295 -0.1637  1.7809  1.6037
  845MOL0     H14012   5.162   3.311   1.161 -0.3111  0.8281  0.2779
  845MOL0     H14013   5.167   3.387   1.323 -0.9732 -0.5674  0.5461
  845MOL0     H14014   5.146   3.618   1.192  0.6821  1.0277  1.5736
  845MOL0     H14015   5.218   3.523   1.054  0.7818  0.9089  0.5923
  845MOL0     H14016   5.401   3.450   1.201  1.1912  0.0521  1.8497
  845MOL0     H14017   5.400   3.600   1.127  1.6030  0.3105  0.3912
  845MOL0     H14018   5.326   3.720   1.321 -0.0914 -0.5199 -2.5238
  845MOL0     H14019   5.299   3.581   1.418 -0.2427  0.2118 -0.7068
  845MOL0     H14020   5.543   3.518   1.404 -4.0229 -2.1767 -3.5564
  845MOL0     H14021   5.569   3.650   1.295  0.7706 -1.7401  0.1804
  845MOL0     H14022   5.458   3.717   1.568 -1.5191  0.1071 -1.2479
  845MOL0     H14023   5.537   3.821   1.458  0.8858  0.8494  1.0757
  845MOL0     H14024   5.649   3.569   1.590 -0.9007  0.1670 -0.4793
  845MOL0     H14025   5.754   3.650   1.484  1.4626 -3.4135  1.6845
  845MOL0     H14026   5.775   3.636   1.811  0.6863  0.5330  1.2324
  845MOL0     H14027   5.746   3.938   2.030  0.3873  1.7768 -0.6675
  845MOL0     H14028   5.826   3.774   2.040  1.2888  0.3143  0.8925
  845MOL0     H14029   6.040   3.870   1.968 -0.4190 -1.8256 -1.3888
  845MOL0     H14030   5.958   4.033   1.936 -2.7409 -0.9497  0.0535
  845MOL0     H14031   5.987   3.864   2.191 -1.0367  0.8716 -0.2108
  845MOL0     H14032   5.920   4.029   2.194  2.9480  3.0715 -0.2384
  845MOL0     H14033   6.137   4.021   2.288  4.7201  0.1714 -0.8178
  845MOL0     H14034   6.117   4.136   2.157  2.6415 -0.3788 -0.7389
  845MOL0     H14035   6.469   3.895   2.031 -4.6822 -1.0310  0.7577
  845MOL0     H14036   6.705   3.990   2.096  0.0036  1.2392  0.0162
  845MOL0     H14037   6.877   4.420   2.067 -0.4025 -1.0473  0.3009
  845MOL0     H14038   7.082   4.555   2.067  0.6478 -2.3216 -0.9022
  845MOL0     H14039   7.248   4.744   2.381 -1.8241  0.1424 -1.7920
  845MOL0     H14040   7.314   4.593   2.449  2.9816 -2.1707 -1.3740
  845MOL0     H14041   7.425   4.777   2.228 -2.6086 -0.6492  0.0665
  845MOL0     H14042   7.476   4.777   2.391 -0.2463 -0.3014 -1.0082
  845MOL0     H14043   7.561   4.544   2.378 -0.7955 -0.5452 -0.6890
  845MOL0     H14044   7.515   4.545   2.204  0.3034 -2.6934  1.4458
  845MOL0     H14045   7.709   4.745   2.342 -3.5680  2.1215  0.6146
  845MOL0     H14046   7.657   4.751   2.176 -2.8309  1.0149  0.9183
  845MOL0     H14047   7.755   4.529   2.144  1.5342  1.2139 -0.7303
  845MOL0     H14048   7.815   4.532   2.324 -1.3748 -0.1485  1.3096
  845MOL0     H14049   7.887   4.726   2.103 -2.8736  0.2813  0.7387
  845MOL0     H14050   7.925   4.740   2.277 -2.3352 -1.7335  1.5794
  845MOL0     H14051   8.065   4.517   2.127  1.7340  0.8143 -0.9053
  845MOL0     H14052   8.073   4.556   2.297 -1.9612 -0.5960  0.6151
  845MOL0     H14053   8.155   4.778   2.250  1.1614 -0.2636  0.9932
  845MOL0     H14054   8.261   4.653   2.191  0.2814  1.8742 -1.7181
  845MOL0     H14055   7.109   4.507   2.488  3.0186 -2.8026 -0.2591
  845MOL0     H14056   6.893   4.394   2.493 -3.1575  0.4277 -1.1643
  845MOL0     H14057   6.501   4.272   2.339  0.2632  1.2055 -1.1835
  845MOL0     H14058   6.290   4.177   2.303  2.0161 -1.1112  3.6535
  845MOL0     H14059   4.730   3.523   1.219  0.2070  0.5908 -1.1759
  845MOL0     H14060   4.500   3.422   1.217 -0.1747 -1.0714 -0.7901
  845MOL0     H14061   4.170   3.104   1.288 -1.4887  2.8427 -0.7982
  845MOL0     H14062   3.951   3.004   1.248 -1.3383 -1.7011  0.2577
  845MOL0     H14063   3.842   2.823   0.846 -0.4808 -1.1975  0.5886
  845MOL0     H14064   3.810   3.001   0.837 -2.2511  1.7104  3.3282
  845MOL0     H14065   3.640   2.789   0.956 -1.5417 -1.1093 -2.1947
  845MOL0     H14066   3.616   2.840   0.796  1.8204 -3.6535  0.7368
  845MOL0     H14067   3.549   2.995   1.053  0.3469  1.8011  0.0715
  845MOL0     H14068   3.451   2.942   0.907  0.7910  0.0399 -0.9825
  845MOL0     H14069   3.675   3.155   0.915 -0.3635  0.7502 -0.4123
  845MOL0     H14070   3.562   3.109   0.781  0.0622 -0.5969  0.0811
  845MOL0     H14071   3.321   3.357   1.020 -1.2463 -2.0904  3.1150
  845MOL0     H14072   4.044   2.927   0.848 -0.3423  1.0094  0.8832
  845MOL0     H14073   4.269   2.964   0.771 -0.0863  2.7312 -2.6012
  845MOL0     H14074   4.329   3.123   0.827 -2.5424  0.8890  2.1786
  845MOL0     H14075   4.409   2.974   0.884 -0.8457 -0.3339  3.8821
  846MOL0     O14076   6.347   4.811   6.784  0.2875  0.8112  0.0302
  846MOL0     C14077   6.228   4.758   6.801 -0.6494 -1.9940 -0.7675
  846MOL0     O14078   6.157   4.752   6.912 -0.0881  0.2538 -0.2278
  846MOL0     C14079   6.213   4.800   7.029  0.5368 -0.0953 -0.0546
  846MOL0     C14080   6.119   4.856   7.119 -0.9395 -0.6570  0.6686
  846MOL0     C14081   6.156   4.912   7.234  0.1834 -0.5198 -1.5212
  846MOL0     C14082   6.293   4.925   7.267  0.2159 -0.1260 -0.6684
  846MOL0     O14083   6.336   4.984   7.379  0.0439  0.1748 -0.1709
  846MOL0     C14084   6.474   5.020   7.396  0.5842  1.3354  0.2690
  846MOL0     C14085   6.476   5.108   7.519 -0.0177  0.4182 -0.0719
  846MOL0     C14086   6.612   5.168   7.543  0.3955 -0.7868  0.2653
  846MOL0     C14087   6.606   5.261   7.667 -0.6547  0.6921 -0.1957
  846MOL0     C14088   6.755   5.276   7.728  0.6723 -0.2361  0.4440
  846MOL0     C14089   6.752   5.367   7.855  0.6087 -0.8223  0.6137
  846MOL0     C14090   6.887   5.393   7.919  0.0415 -0.4059  0.0119
  846MOL0     C14091   6.891   5.489   8.042 -0.3388  0.2217  0.7301
  846MOL0     N14092   7.017   5.569   8.039  0.3391 -0.2861  0.0658
  846MOL0     C14093   7.134   5.508   8.075 -0.4168 -1.2390 -0.2331
  846MOL0     C14094   7.229   5.612   8.072  0.3655  0.3311  0.8069
  846MOL0     C14095   7.378   5.590   8.101  0.6289  0.0359  1.6284
  846MOL0     C14096   7.462   5.709   8.042 -0.2222 -0.5401 -0.7228
  846MOL0     C14097   7.616   5.692   8.065 -0.2827  0.1294 -0.1455
  846MOL0     C14098   7.665   5.676   8.212  0.1004 -0.2445 -0.0604
  846MOL0     O14099   7.658   5.807   8.283 -0.1664  0.5238  0.0997
  846MOL0     C14100   7.745   5.904   8.231  0.3320  0.2517 -0.1148
  846MOL0     C14101   7.682   6.009   8.159  0.1698 -0.3940  0.1901
  846MOL0     C14102   7.761   6.129   8.117  0.0647  1.0146 -0.1987
  846MOL0     C14103   7.894   6.133   8.154  0.3878  0.6685  0.6051
  846MOL0     C14104   7.990   6.238   8.107 -0.2182  0.2227  0.2710
  846MOL0     O14105   8.124   6.209   8.102  0.3133 -0.3026  0.6536
  846MOL0     C14106   8.202   6.298   8.031  0.1506 -0.1662  0.3175
  846MOL0     C14107   8.188   6.335   7.900 -0.7938  0.1831 -0.8065
  846MOL0     C14108   8.276   6.412   7.829 -0.5309  0.8474 -0.0910
  846MOL0     C14109   8.398   6.444   7.898  0.1542 -0.4095 -0.6469
  846MOL0     O14110   8.493   6.522   7.841  0.1242 -0.1993 -1.2142
  846MOL0     C14111   8.550   6.478   7.722 -0.1716 -0.6803  0.7506
  846MOL0     C14112   8.669   6.573   7.688  0.3096 -0.3075  0.5649
  846MOL0     C14113   8.745   6.527   7.560  0.4730 -1.1593 -0.6577
  846MOL0     C14114   8.662   6.507   7.439  0.5450 -0.1505  0.5619
  846MOL0     C14115   8.749   6.497   7.321 -0.0065  0.3038 -0.4943
  846MOL0     C14116   8.695   6.390   7.217  1.0816  0.7115 -0.1316
  846MOL0     C14117   8.562   6.403   7.143  1.1849  0.3764 -0.2566
  846MOL0     C14118   8.573   6.493   7.023  0.9909  0.1637  0.0705
  846MOL0    Cl14119   8.415   6.574   6.975 -0.3687  0.2368  0.3035
  846MOL0     C14120   8.410   6.426   8.046  1.0729  0.3758 -0.0283
  846MOL0     C14121   8.310   6.350   8.101 -0.2338 -0.0093 -0.2508
  846MOL0     O14122   7.943   6.342   8.064  0.3492  0.4909 -0.0415
  846MOL0     C14123   7.952   6.020   8.227 -0.0881 -0.1623 -0.0496
  846MOL0     C14124   7.878   5.914   8.262 -0.0377 -0.1812 -0.1215
  846MOL0     N14125   7.154   5.730   8.040  0.1929  0.6305  0.2843
  846MOL0     N14126   7.035   5.701   8.023  0.1710  0.6806 -0.5437
  846MOL0     C14127   6.380   4.860   7.187 -0.1907  0.5407 -0.5186
  846MOL0     C14128   6.349   4.795   7.074  0.0721  0.4607  0.2391
  846MOL0     C14129   6.161   4.695   6.683  0.3303  0.7282 -0.6928
  846MOL0     C14130   6.023   4.674   6.694 -1.4255 -1.1483 -0.1055
  846MOL0     C14131   5.950   4.616   6.596  0.6025 -0.1125 -0.0354
  846MOL0     C14132   6.010   4.603   6.469 -0.0367  0.4902 -0.8555
  846MOL0     O14133   5.951   4.564   6.350 -0.8022 -0.8963 -0.1695
  846MOL0     C14134   5.815   4.542   6.342  0.4977 -0.4104  0.2208
  846MOL0     C14135   5.743   4.681   6.322 -0.8355  0.4551  0.1051
  846MOL0     C14136   5.588   4.664   6.304 -0.8713 -0.7198 -0.6208
  846MOL0     C14137   5.543   4.591   6.177  0.1268  0.6062 -0.4446
  846MOL0     C14138   5.503   4.451   6.201  0.3870 -0.3305 -1.0138
  846MOL0     C14139   5.460   4.347   6.236  0.0909  0.4665  0.1615
  846MOL0     C14140   6.147   4.633   6.454  0.4560 -0.1424  0.5216
  846MOL0     C14141   6.226   4.678   6.560  0.4311 -1.3829  0.3677
  846MOL0     C14142   6.374   4.698   6.533 -0.1616  0.3931 -0.1318
  846MOL0     H14143   6.012   4.846   7.105 -0.6762 -1.8666 -0.7898
  846MOL0     H14144   6.074   4.938   7.299 -0.8125 -4.5938 -0.8754
  846MOL0     H14145   6.538   4.932   7.406 -1.1665  0.1010  1.2906
  846MOL0     H14146   6.515   5.074   7.311  4.0134  0.4275  1.1947
  846MOL0     H14147   6.473   5.052   7.613  0.1306  2.0848  0.9467
  846MOL0     H14148   6.399   5.185   7.521  2.0474  2.5611  0.3735
  846MOL0     H14149   6.635   5.236   7.461 -1.1889  0.8726  1.0993
  846MOL0     H14150   6.682   5.087   7.563  2.5046  0.8623 -0.1357
  846MOL0     H14151   6.561   5.355   7.631 -1.6548  0.1541 -0.3962
  846MOL0     H14152   6.544   5.212   7.743  0.0558  1.9184  1.2260
  846MOL0     H14153   6.806   5.179   7.734  3.6615  1.2262  0.4480
  846MOL0     H14154   6.817   5.326   7.652 -0.7574  2.0526  0.7143
  846MOL0     H14155   6.706   5.464   7.830 -1.7339 -2.4400 -1.9665
  846MOL0     H14156   6.683   5.325   7.929 -1.3068  1.7483  0.4383
  846MOL0     H14157   6.963   5.428   7.847  0.5769  1.8887  1.5661
  846MOL0     H14158   6.929   5.296   7.945  1.9298  0.8830  2.1980
  846MOL0     H14159   6.816   5.563   8.015 -1.5288 -1.6051 -1.2702
  846MOL0     H14160   6.875   5.433   8.135  3.8003  0.9417  2.0678
  846MOL0     H14161   7.159   5.405   8.096  1.5667 -0.9273 -0.8887
  846MOL0     H14162   7.397   5.584   8.209  4.6022 -0.0582  1.0757
  846MOL0     H14163   7.415   5.499   8.052 -0.9610 -0.0253  0.4938
  846MOL0     H14164   7.451   5.722   7.934 -0.1651 -1.5114 -0.8580
  846MOL0     H14165   7.439   5.806   8.086  3.9443  0.3189 -0.0110
  846MOL0     H14166   7.664   5.778   8.017  0.7798 -0.9715 -1.1336
  846MOL0     H14167   7.654   5.614   7.997 -2.9489 -0.3362 -1.2085
  846MOL0     H14168   7.767   5.636   8.217  0.7969  1.6079  2.7413
  846MOL0     H14169   7.599   5.608   8.267  1.2575  0.1315  1.9073
  846MOL0     H14170   7.575   5.999   8.143 -0.1851  0.8130  1.6001
  846MOL0     H14171   7.723   6.214   8.062 -2.5899 -0.0831 -0.1962
  846MOL0     H14172   8.098   6.304   7.847  0.0849 -0.1119 -2.2048
  846MOL0     H14173   8.259   6.425   7.722  0.1560 -0.9859 -0.4658
  846MOL0     H14174   8.585   6.375   7.736  0.9903 -0.6446 -1.3743
  846MOL0     H14175   8.466   6.483   7.652  0.9084 -4.0968 -0.9921
  846MOL0     H14176   8.642   6.677   7.665  1.8394 -0.0498 -0.2109
  846MOL0     H14177   8.736   6.592   7.772  1.6420 -0.3421 -0.4563
  846MOL0     H14178   8.824   6.601   7.543 -0.9271  0.4694 -0.3256
  846MOL0     H14179   8.799   6.436   7.585 -0.6943 -1.2148  2.0776
  846MOL0     H14180   8.587   6.587   7.431  1.5131  0.7141 -0.1139
  846MOL0     H14181   8.604   6.415   7.451  1.1987 -0.9779 -2.0789
  846MOL0     H14182   8.851   6.475   7.355  0.0155  2.3237  0.9609
  846MOL0     H14183   8.758   6.594   7.270  1.0391  1.2350  1.3305
  846MOL0     H14184   8.766   6.367   7.138 -1.1907 -4.1600 -1.1675
  846MOL0     H14185   8.686   6.295   7.271  1.2090  0.9486  0.3134
  846MOL0     H14186   8.483   6.434   7.213  3.8159  2.6358  1.9416
  846MOL0     H14187   8.539   6.302   7.107  2.0153 -0.0180  0.2990
  846MOL0     H14188   8.638   6.578   7.045 -0.7060  2.4785 -2.9791
  846MOL0     H14189   8.615   6.437   6.938  0.9689 -1.7920  1.2861
  846MOL0     H14190   8.488   6.482   8.096 -0.7851  1.0019  2.3780
  846MOL0     H14191   8.326   6.314   8.202 -0.2329  1.4318  0.2782
  846MOL0     H14192   8.058   6.018   8.249  1.4163  0.2486 -5.6221
  846MOL0     H14193   7.924   5.836   8.322  0.9586  1.2607  1.0578
  846MOL0     H14194   6.486   4.852   7.207 -0.4331 -1.3875  0.2343
  846MOL0     H14195   6.420   4.748   7.007 -0.9290 -0.7224 -0.0286
  846MOL0     H14196   5.981   4.703   6.790  2.0442  2.0880  0.6526
  846MOL0     H14197   5.857   4.571   6.628  0.9455 -1.5496 -0.9897
  846MOL0     H14198   5.774   4.505   6.436 -0.1051  1.3867  0.7124
  846MOL0     H14199   5.780   4.466   6.272 -0.6914  1.4986 -1.3773
  846MOL0     H14200   5.779   4.746   6.242  1.3621 -0.9897 -0.2025
  846MOL0     H14201   5.771   4.738   6.411  0.6841 -0.1846  0.0785
  846MOL0     H14202   5.546   4.765   6.300  1.7054  0.5822  1.5766
  846MOL0     H14203   5.551   4.618   6.397  0.0484  2.5593  1.5316
  846MOL0     H14204   5.452   4.646   6.154  0.9136  2.1241 -0.0882
  846MOL0     H14205   5.612   4.602   6.093 -1.4008 -0.6375 -1.9134
  846MOL0     H14206   5.423   4.247   6.251  1.0739  0.3261  1.9193
  846MOL0     H14207   6.182   4.631   6.351 -2.4016 -0.2802 -0.5616
  846MOL0     H14208   6.406   4.635   6.449  0.8625 -0.1193  0.6100
  846MOL0     H14209   6.402   4.802   6.517  0.0940  0.4396  0.5855
  846MOL0     H14210   6.432   4.654   6.615  0.1438  1.0410  0.0020
  847MOL0     O14211  10.333   1.144   7.591 -0.0894 -0.1780 -1.0107
  847MOL0     C14212  10.345   1.028   7.546 -0.1930 -0.5989  1.5874
  847MOL0     O14213  10.454   0.972   7.480  0.5107  0.1383  0.1434
  847MOL0     C14214  10.575   1.020   7.495 -0.9346  0.9600 -0.0201
  847MOL0     C14215  10.679   0.931   7.465 -0.1372  0.5321  0.5092
  847MOL0     C14216  10.809   0.979   7.474 -0.3491 -0.1816  0.1814
  847MOL0     C14217  10.848   1.117   7.496  0.3173 -0.4525 -0.3521
  847MOL0     O14218  10.980   1.155   7.485 -0.0420 -0.3142 -0.0985
  847MOL0     C14219  11.025   1.279   7.541  0.1348  0.1564 -1.0744
  847MOL0     C14220  11.174   1.248   7.558  0.5439  0.1825  0.1143
  847MOL0     C14221  11.254   1.370   7.598 -0.6608  0.0529 -0.4301
  847MOL0     C14222  11.400   1.338   7.621 -0.0461  0.1676  0.5177
  847MOL0     C14223  11.492   1.464   7.632 -0.2167  0.2925 -0.9542
  847MOL0     C14224  11.486   1.565   7.511  0.9098  0.1833  0.1825
  847MOL0     C14225  11.598   1.670   7.490 -0.8082 -0.5241  0.8777
  847MOL0     C14226  11.621   1.750   7.615 -0.5643 -0.0641 -0.1150
  847MOL0     N14227  11.757   1.813   7.617 -0.5174 -0.3577 -0.2086
  847MOL0     C14228  11.807   1.899   7.516  0.1984 -0.2799 -0.1364
  847MOL0     C14229  11.916   1.951   7.577 -0.2287  0.8541 -0.8880
  847MOL0     C14230  12.007   2.048   7.515  0.1870  0.4064  0.0830
  847MOL0     C14231  12.152   2.050   7.577  0.2659  0.4837  0.4004
  847MOL0     C14232  12.150   2.144   7.696 -0.1040 -0.2130  0.2871
  847MOL0     C14233  12.272   2.118   7.784  0.1228 -0.5745  0.5603
  847MOL0     O14234  12.279   2.249   7.852  0.3789 -0.5776 -0.1660
  847MOL0     C14235  12.387   2.285   7.926 -0.5996  0.0480  0.2725
  847MOL0     C14236  12.393   2.416   7.977  0.6983 -0.8346  0.0669
  847MOL0     C14237  12.509   2.459   8.045 -0.4914 -0.6321  0.2718
  847MOL0     C14238  12.617   2.381   8.066 -0.1774  0.8829 -0.2939
  847MOL0     C14239  12.731   2.439   8.130  0.4749 -0.0567  0.7093
  847MOL0     O14240  12.847   2.406   8.061 -0.5483 -0.3557 -0.2845
  847MOL0     C14241  12.964   2.413   8.133 -0.5858 -0.4789 -0.0563
  847MOL0     C14242  12.978   2.411   8.275  1.1288 -0.8528  0.2914
  847MOL0     C14243  13.101   2.424   8.341 -1.1956 -0.1566 -0.1962
  847MOL0     C14244  13.226   2.429   8.264 -0.6859  0.3918  0.5862
  847MOL0     O14245  13.347   2.415   8.333  0.8302  0.4422 -0.0709
  847MOL0     C14246  13.469   2.431   8.258  0.4885  1.3172  0.3418
  847MOL0     C14247  13.551   2.498   8.363 -0.2568 -0.2423  0.2861
  847MOL0     C14248  13.690   2.538   8.312  0.0225  0.4286  0.5511
  847MOL0     C14249  13.763   2.605   8.430  0.3870  0.0387  0.3428
  847MOL0     C14250  13.891   2.683   8.386 -0.0140 -0.3452 -0.1168
  847MOL0     C14251  13.996   2.579   8.335  0.2572  1.0501 -0.0934
  847MOL0     C14252  14.135   2.651   8.320 -0.2800  0.8324 -0.2923
  847MOL0     C14253  14.239   2.553   8.261 -0.4629  0.7748 -0.3076
  847MOL0    Cl14254  14.405   2.596   8.302  0.1705 -0.2811  0.0324
  847MOL0     C14255  13.207   2.436   8.129 -0.3563 -0.3193  0.1401
  847MOL0     C14256  13.083   2.439   8.067 -0.2889 -0.0945  0.2828
  847MOL0     O14257  12.715   2.523   8.216 -0.6769 -0.2831 -0.9273
  847MOL0     C14258  12.611   2.251   8.014  0.6409  1.0860 -0.6013
  847MOL0     C14259  12.498   2.203   7.948  0.4331 -0.3484  0.3695
  847MOL0     N14260  11.919   1.902   7.711 -0.4710 -0.0738  0.0797
  847MOL0     N14261  11.820   1.831   7.728 -0.0868 -0.5310 -1.0234
  847MOL0     C14262  10.737   1.208   7.535 -1.2326  1.2346 -0.1387
  847MOL0     C14263  10.609   1.158   7.530  0.6100  1.1020 -0.3483
  847MOL0     C14264  10.219   0.943   7.537 -0.0365  0.4357 -0.0321
  847MOL0     C14265  10.214   0.843   7.432 -0.2857  0.2062 -0.0812
  847MOL0     C14266  10.104   0.764   7.409 -0.0107 -0.9779  0.2146
  847MOL0     C14267   9.994   0.777   7.490  1.1125  0.0003  0.2161
  847MOL0     O14268   9.891   0.680   7.471 -0.3784 -1.3775  0.2486
  847MOL0     C14269   9.752   0.703   7.508 -0.3143 -0.2525  0.5242
  847MOL0     C14270   9.690   0.803   7.407  0.5163  0.5378  0.1944
  847MOL0     C14271   9.533   0.819   7.419  0.4487  0.0990  0.3559
  847MOL0     C14272   9.454   0.693   7.391 -0.8171 -0.3388 -0.3400
  847MOL0     C14273   9.438   0.656   7.255 -0.1553  1.2920 -0.1061
  847MOL0     C14274   9.412   0.630   7.140  0.6778  0.0889 -0.2237
  847MOL0     C14275  10.001   0.866   7.600 -0.1558  0.4004  1.2748
  847MOL0     C14276  10.110   0.954   7.617 -0.3415 -0.7009 -0.2379
  847MOL0     C14277  10.090   1.052   7.729 -1.1288  0.2008 -0.5566
  847MOL0     H14278  10.659   0.826   7.449  1.9972  0.0897  0.4466
  847MOL0     H14279  10.879   0.897   7.467 -0.0587  0.0028  0.9166
  847MOL0     H14280  11.019   1.366   7.475  3.4513  1.4097  0.0976
  847MOL0     H14281  10.977   1.293   7.638 -2.4651 -3.0077 -1.7160
  847MOL0     H14282  11.209   1.225   7.456  0.1257  3.0496 -0.7663
  847MOL0     H14283  11.204   1.167   7.625  1.6410  1.2899  0.9981
  847MOL0     H14284  11.220   1.409   7.695  0.0551 -0.0028 -0.1491
  847MOL0     H14285  11.227   1.450   7.528 -2.4798  0.8682  1.1153
  847MOL0     H14286  11.413   1.273   7.709 -1.2422 -1.3988 -0.3974
  847MOL0     H14287  11.431   1.279   7.534 -0.2507 -2.2897  2.0089
  847MOL0     H14288  11.478   1.510   7.730  0.8889 -2.1706  0.4456
  847MOL0     H14289  11.599   1.443   7.634  0.5314  3.5123 -0.2275
  847MOL0     H14290  11.485   1.496   7.426 -2.4389 -0.8610  0.9269
  847MOL0     H14291  11.388   1.614   7.504  0.6811 -0.4542 -1.6205
  847MOL0     H14292  11.580   1.736   7.405  0.1330 -0.0644  1.0315
  847MOL0     H14293  11.689   1.614   7.465 -1.1078  0.8745 -4.8372
  847MOL0     H14294  11.544   1.827   7.624 -1.3272 -0.5264 -2.1427
  847MOL0     H14295  11.614   1.690   7.706 -3.8198  1.6462  0.8995
  847MOL0     H14296  11.775   1.914   7.414  1.5147 -1.2762 -0.7255
  847MOL0     H14297  12.014   2.014   7.411  0.3697 -1.3788  0.6435
  847MOL0     H14298  11.962   2.148   7.514  1.7410  1.1367  1.1430
  847MOL0     H14299  12.174   1.944   7.593  1.3054  0.6388  0.1061
  847MOL0     H14300  12.217   2.096   7.501 -1.2436  0.2702 -1.0832
  847MOL0     H14301  12.064   2.138   7.763 -0.6479 -0.3731 -0.4108
  847MOL0     H14302  12.144   2.247   7.660  1.5297 -0.4023 -0.6419
  847MOL0     H14303  12.365   2.098   7.728 -0.3964 -5.0141  0.8900
  847MOL0     H14304  12.254   2.028   7.844 -0.5307 -2.3338 -2.0872
  847MOL0     H14305  12.317   2.491   7.958 -0.2401 -1.8857 -0.3904
  847MOL0     H14306  12.518   2.563   8.072  0.7523 -0.6663  0.0155
  847MOL0     H14307  12.889   2.398   8.337  1.1789 -0.8607  0.3618
  847MOL0     H14308  13.111   2.408   8.448  1.0709 -1.9204 -0.6126
  847MOL0     H14309  13.505   2.330   8.237 -0.4896  1.3786 -2.0114
  847MOL0     H14310  13.474   2.500   8.173 -1.8021 -0.8009 -1.6991
  847MOL0     H14311  13.502   2.589   8.398 -0.9920 -1.0073  1.3572
  847MOL0     H14312  13.562   2.427   8.446 -2.0052 -0.4860  0.3485
  847MOL0     H14313  13.745   2.455   8.266 -0.8358  2.0428 -3.8769
  847MOL0     H14314  13.679   2.611   8.232 -2.2464  0.7299  1.0611
  847MOL0     H14315  13.793   2.520   8.492  1.6479 -0.6555 -1.1275
  847MOL0     H14316  13.703   2.678   8.486 -2.6310 -2.6293  0.8373
  847MOL0     H14317  13.939   2.713   8.479  2.0879 -1.9767 -0.5768
  847MOL0     H14318  13.873   2.760   8.309  1.0527 -2.2258 -2.3818
  847MOL0     H14319  13.998   2.490   8.398  1.7037 -0.9968 -2.8085
  847MOL0     H14320  13.957   2.542   8.240 -0.4414  3.2753 -0.7376
  847MOL0     H14321  14.172   2.683   8.418 -0.5262  1.8916 -0.5362
  847MOL0     H14322  14.135   2.740   8.256  0.6026 -0.8200 -2.7375
  847MOL0     H14323  14.221   2.451   8.297 -1.0299  0.1109 -2.3373
  847MOL0     H14324  14.228   2.545   8.152 -0.0747  0.8893 -0.3541
  847MOL0     H14325  13.290   2.441   8.059  0.8230  2.5694  1.5671
  847MOL0     H14326  13.067   2.456   7.961  0.0886 -0.8083  0.1096
  847MOL0     H14327  12.698   2.186   8.018 -2.1893 -3.0752  2.2963
  847MOL0     H14328  12.502   2.102   7.908 -1.6377 -0.1027 -0.5882
  847MOL0     H14329  10.752   1.312   7.559  3.0277  1.4257 -2.7199
  847MOL0     H14330  10.533   1.235   7.528  0.1634  0.7971  1.9764
  847MOL0     H14331  10.298   0.827   7.365  1.4147  0.1165  1.9640
  847MOL0     H14332  10.118   0.688   7.332  0.3554 -1.9848  1.2385
  847MOL0     H14333   9.755   0.741   7.610 -1.2920 -1.0040  0.8373
  847MOL0     H14334   9.696   0.610   7.511 -1.5103  0.4144 -0.2366
  847MOL0     H14335   9.709   0.773   7.303  1.7980  2.7878 -0.2853
  847MOL0     H14336   9.733   0.902   7.422  1.2976 -0.0348  1.9092
  847MOL0     H14337   9.510   0.898   7.346 -2.2070  1.8680  2.8904
  847MOL0     H14338   9.506   0.853   7.519  0.6393 -2.6066  1.4028
  847MOL0     H14339   9.496   0.603   7.437 -2.8955 -1.4469 -0.5075
  847MOL0     H14340   9.359   0.707   7.443 -0.6335  1.6740 -0.4314
  847MOL0     H14341   9.382   0.599   7.042  4.2632  1.1423 -1.7822
  847MOL0     H14342   9.923   0.865   7.675  0.1882  1.6293  1.6697
  847MOL0     H14343  10.091   1.151   7.682  2.4190  1.3091  1.4593
  847MOL0     H14344   9.997   1.035   7.783  0.1728 -1.5634  1.2713
  847MOL0     H14345  10.180   1.039   7.791 -0.0401  2.0953 -1.6274
  848MOL0     O14346   3.669   7.293   8.143  0.3198  0.4165  0.6883
  848MOL0     C14347   3.591   7.319   8.239 -0.4396  0.2865 -0.5582
  848MOL0     O14348   3.624   7.401   8.342  0.4948  0.2918 -0.2387
  848MOL0     C14349   3.749   7.451   8.346 -0.4737  0.0509 -0.1500
  848MOL0     C14350   3.860   7.383   8.402  0.9009 -0.0234 -0.4016
  848MOL0     C14351   3.988   7.449   8.400 -0.1014  0.4264 -0.0126
  848MOL0     C14352   4.006   7.580   8.351  0.6286  0.2438  0.4090
  848MOL0     O14353   4.134   7.628   8.348  0.3319  0.5253  0.1865
  848MOL0     C14354   4.162   7.729   8.253  0.2185 -0.0457  0.4721
  848MOL0     C14355   4.310   7.775   8.258  0.1882  0.1165 -0.4283
  848MOL0     C14356   4.351   7.862   8.369 -0.2709 -0.1867  0.7625
  848MOL0     C14357   4.502   7.872   8.370  0.4277  0.0871  0.5054
  848MOL0     C14358   4.565   7.955   8.485  0.2958  0.3430 -0.0928
  848MOL0     C14359   4.556   8.112   8.471  0.5645  0.4619  0.3998
  848MOL0     C14360   4.621   8.175   8.598  0.2152  0.7501  0.6980
  848MOL0     C14361   4.773   8.176   8.604 -0.2709 -0.4770  0.0934
  848MOL0     N14362   4.841   8.268   8.514 -0.2771  0.0763 -0.1280
  848MOL0     C14363   4.976   8.277   8.480 -0.0683 -0.2627  0.5691
  848MOL0     C14364   4.989   8.366   8.376  0.0496  0.1018 -0.0780
  848MOL0     C14365   5.117   8.396   8.310  0.4111  1.3264  0.2929
  848MOL0     C14366   5.208   8.503   8.386 -0.4712  0.2829 -0.0427
  848MOL0     C14367   5.297   8.435   8.497  0.1963  0.0130  0.4178
  848MOL0     C14368   5.375   8.533   8.589  1.0410  0.2428 -0.3153
  848MOL0     O14369   5.469   8.608   8.519 -0.0733  0.2954  0.0305
  848MOL0     C14370   5.589   8.554   8.495  0.2422 -0.3389  0.7296
  848MOL0     C14371   5.676   8.619   8.402  0.6340 -0.1973  0.8054
  848MOL0     C14372   5.806   8.578   8.377  1.0691 -0.4616 -0.5311
  848MOL0     C14373   5.863   8.470   8.453  1.0600 -0.1666 -0.8012
  848MOL0     C14374   6.012   8.448   8.446  0.5925  0.1972  0.0654
  848MOL0     O14375   6.070   8.348   8.522 -0.2683  0.3922  0.0016
  848MOL0     C14376   6.203   8.314   8.512 -1.0052 -0.0828 -0.2125
  848MOL0     C14377   6.251   8.212   8.427 -0.0973  0.0253 -0.2158
  848MOL0     C14378   6.369   8.162   8.445 -0.1586  0.1215  0.3269
  848MOL0     C14379   6.464   8.209   8.543 -0.4127  0.3885  0.6595
  848MOL0     O14380   6.601   8.172   8.543 -0.3197  0.0745 -0.3514
  848MOL0     C14381   6.672   8.137   8.432  0.2120  0.2254  0.2357
  848MOL0     C14382   6.817   8.131   8.468 -1.2857 -0.3459  0.0251
  848MOL0     C14383   6.886   8.265   8.467  0.4552 -0.3649 -0.4143
  848MOL0     C14384   7.023   8.259   8.526 -1.0831 -0.0578  0.2268
  848MOL0     C14385   7.081   8.397   8.548 -0.7050 -0.1579  1.0288
  848MOL0     C14386   7.228   8.417   8.571 -0.8216  0.0596  0.5914
  848MOL0     C14387   7.279   8.558   8.611  0.7295  0.7159  0.4386
  848MOL0     C14388   7.406   8.566   8.699 -0.6209  0.7582  0.1630
  848MOL0    Cl14389   7.538   8.520   8.589 -0.2644 -0.2479 -0.4665
  848MOL0     C14390   6.419   8.311   8.620 -0.6902  0.3966  0.5825
  848MOL0     C14391   6.292   8.357   8.610  0.4851  1.1954 -0.1333
  848MOL0     O14392   6.078   8.526   8.375  0.2821  0.5812  0.7092
  848MOL0     C14393   5.779   8.391   8.533 -0.0865 -0.5097  0.3200
  848MOL0     C14394   5.645   8.431   8.552  0.0132 -0.5076  0.1892
  848MOL0     N14395   4.861   8.423   8.355  1.2878 -0.9414 -0.6917
  848MOL0     N14396   4.781   8.371   8.445  0.0180  0.4021  0.2855
  848MOL0     C14397   3.894   7.634   8.289 -0.2027  0.2902 -0.4840
  848MOL0     C14398   3.766   7.570   8.283 -0.2345 -0.3640 -0.5601
  848MOL0     C14399   3.451   7.261   8.242 -0.3945 -0.5532 -0.3198
  848MOL0     C14400   3.374   7.289   8.361  1.0906 -0.0058  0.5400
  848MOL0     C14401   3.236   7.256   8.363 -0.9524  0.3748 -1.6742
  848MOL0     C14402   3.171   7.190   8.260 -0.1799 -0.2590 -1.1032
  848MOL0     O14403   3.036   7.143   8.260 -0.2794  0.6182 -0.2441
  848MOL0     C14404   2.927   7.221   8.317 -1.1237  0.2319  0.5616
  848MOL0     C14405   2.787   7.198   8.269  0.4267 -0.3655 -0.0278
  848MOL0     C14406   2.779   7.074   8.176  0.3031  0.1940 -0.9805
  848MOL0     C14407   2.640   7.050   8.129 -0.1311 -0.2271 -0.1166
  848MOL0     C14408   2.582   6.960   8.231  0.6133 -0.6243 -0.5373
  848MOL0     C14409   2.533   6.905   8.329  0.2812 -0.1004 -0.2899
  848MOL0     C14410   3.251   7.151   8.155 -0.0063  0.0899 -0.1065
  848MOL0     C14411   3.385   7.188   8.139 -0.8459  0.3497  0.7587
  848MOL0     C14412   3.452   7.126   8.020 -0.1514 -0.7272 -0.7592
  848MOL0     H14413   3.857   7.278   8.429 -0.0537  0.4829  1.6842
  848MOL0     H14414   4.073   7.403   8.450 -1.8025 -1.3348  1.4358
  848MOL0     H14415   4.138   7.698   8.151  0.4186  1.4027 -0.0462
  848MOL0     H14416   4.100   7.819   8.263 -1.5939 -1.3110  1.0600
  848MOL0     H14417   4.326   7.824   8.161 -3.7762 -0.1748 -1.4024
  848MOL0     H14418   4.370   7.685   8.266 -0.4577 -0.2574  0.3324
  848MOL0     H14419   4.321   7.811   8.461 -2.3750 -1.3785 -0.4945
  848MOL0     H14420   4.300   7.958   8.359 -0.9712 -0.6274 -0.0049
  848MOL0     H14421   4.543   7.772   8.385  2.5453  1.0707  1.6440
  848MOL0     H14422   4.534   7.898   8.268 -0.3960 -1.7058 -0.2440
  848MOL0     H14423   4.510   7.934   8.576  0.8928  0.1231  0.2210
  848MOL0     H14424   4.671   7.930   8.480  0.3008  0.5673 -3.1870
  848MOL0     H14425   4.613   8.150   8.385  3.2641 -0.0262  1.8340
  848MOL0     H14426   4.453   8.147   8.473  0.2349 -0.5122  1.5443
  848MOL0     H14427   4.596   8.126   8.692  2.7756  2.8277  2.6186
  848MOL0     H14428   4.591   8.280   8.614 -2.3092 -0.1999  3.0780
  848MOL0     H14429   4.802   8.217   8.701 -1.0802  2.0568 -0.6358
  848MOL0     H14430   4.816   8.077   8.587  2.5352  0.8390 -1.2712
  848MOL0     H14431   5.062   8.232   8.528  0.6089 -0.9479 -1.2165
  848MOL0     H14432   5.180   8.307   8.308  1.6048  2.1310 -1.7107
  848MOL0     H14433   5.115   8.415   8.202 -1.4384  0.0681  0.0589
  848MOL0     H14434   5.275   8.558   8.320 -0.2308  0.4653  0.3492
  848MOL0     H14435   5.144   8.576   8.437  0.9210  2.8856 -1.8362
  848MOL0     H14436   5.359   8.361   8.445 -0.8074  0.8412 -2.1248
  848MOL0     H14437   5.225   8.377   8.555  1.9289 -2.0708  0.5942
  848MOL0     H14438   5.424   8.480   8.672  3.0063  2.8971  0.3558
  848MOL0     H14439   5.303   8.606   8.626  0.9223  0.1302 -0.3227
  848MOL0     H14440   5.638   8.704   8.346 -0.6622 -1.4555 -0.3145
  848MOL0     H14441   5.864   8.636   8.305  0.1621  3.8333  1.8701
  848MOL0     H14442   6.178   8.157   8.369 -1.2855 -2.0846  2.9612
  848MOL0     H14443   6.412   8.091   8.375  2.1590  1.9752 -0.2654
  848MOL0     H14444   6.629   8.043   8.394 -0.6598 -0.5403  2.9225
  848MOL0     H14445   6.668   8.220   8.361 -0.0900 -1.4106 -1.7593
  848MOL0     H14446   6.835   8.076   8.561  3.1588 -2.9142 -2.0080
  848MOL0     H14447   6.872   8.066   8.399  0.9450  1.7874 -0.3313
  848MOL0     H14448   6.885   8.290   8.360 -0.5758 -1.1704 -0.6106
  848MOL0     H14449   6.834   8.344   8.521  0.8100  0.5437 -1.3669
  848MOL0     H14450   7.077   8.209   8.445  0.5629  2.4957 -0.3460
  848MOL0     H14451   7.033   8.207   8.622 -0.0785  1.5510  1.0280
  848MOL0     H14452   7.026   8.436   8.635  1.8126  0.7926  2.2850
  848MOL0     H14453   7.047   8.467   8.471 -1.8700  0.5351  2.1352
  848MOL0     H14454   7.257   8.350   8.652  0.3180  0.8089  0.8163
  848MOL0     H14455   7.281   8.382   8.481 -1.2876 -0.1227  0.3824
  848MOL0     H14456   7.201   8.606   8.672  0.7124  1.1062  0.1127
  848MOL0     H14457   7.300   8.614   8.520  0.1026  0.6904  0.2703
  848MOL0     H14458   7.410   8.668   8.736 -1.6248  0.5590  0.8707
  848MOL0     H14459   7.409   8.499   8.786 -1.3574  1.1996  0.5418
  848MOL0     H14460   6.488   8.359   8.688 -1.0052 -0.4401  1.5135
  848MOL0     H14461   6.265   8.429   8.686  0.6454 -1.3051  2.4565
  848MOL0     H14462   5.824   8.300   8.573 -3.7332 -3.2701 -1.2524
  848MOL0     H14463   5.586   8.374   8.622 -0.5782  1.0536  0.9818
  848MOL0     H14464   3.899   7.727   8.234 -1.6939  1.2284  0.8501
  848MOL0     H14465   3.675   7.611   8.241 -1.1101 -2.3915 -0.7625
  848MOL0     H14466   3.414   7.347   8.443  1.0725  0.0742  0.4933
  848MOL0     H14467   3.178   7.278   8.451 -0.2317  1.4702 -1.4522
  848MOL0     H14468   2.959   7.324   8.296  3.4766 -1.1223 -0.1991
  848MOL0     H14469   2.928   7.198   8.424  0.1905  0.4405  0.6133
  848MOL0     H14470   2.761   7.281   8.202  1.0418 -0.5991 -0.5632
  848MOL0     H14471   2.706   7.198   8.342  0.5871  1.3160  0.1973
  848MOL0     H14472   2.813   6.990   8.237 -2.9784 -0.8006 -0.2893
  848MOL0     H14473   2.837   7.084   8.084  2.8980  2.1926  0.7290
  848MOL0     H14474   2.577   7.140   8.124 -2.4143 -1.6262  1.2877
  848MOL0     H14475   2.642   7.004   8.029 -0.1479  0.6736 -0.5461
  848MOL0     H14476   2.494   6.853   8.414  0.2278  0.0479 -0.2233
  848MOL0     H14477   3.191   7.079   8.101 -0.2813  0.8492 -0.8358
  848MOL0     H14478   3.527   7.197   7.985  0.5930 -1.6911 -1.1549
  848MOL0     H14479   3.478   7.022   8.036 -3.1775 -2.2005 -3.8738
  848MOL0     H14480   3.380   7.129   7.937  0.4745 -0.4092 -1.2955
  849MOL0     O14481   4.684   2.667   9.521  0.6877  0.5681  0.0147
  849MOL0     C14482   4.722   2.610   9.625 -0.0027 -0.7876  0.0325
  849MOL0     O14483   4.842   2.545   9.650 -0.2055 -0.2147  0.2726
  849MOL0     C14484   4.912   2.503   9.535 -0.2400 -0.3299 -0.7522
  849MOL0     C14485   5.028   2.568   9.485 -0.3843  0.3590 -0.4390
  849MOL0     C14486   5.097   2.520   9.375 -0.5597 -0.6241 -0.4150
  849MOL0     C14487   5.065   2.407   9.307  0.2118  0.9296 -0.6659
  849MOL0     O14488   5.154   2.366   9.211  0.3381  0.6857  0.4618
  849MOL0     C14489   5.119   2.267   9.113 -0.0708  0.1325 -0.8900
  849MOL0     C14490   5.223   2.256   9.000 -0.1365 -0.1043  0.7491
  849MOL0     C14491   5.348   2.173   9.024 -0.4110  0.3931  0.5026
  849MOL0     C14492   5.428   2.222   9.149 -0.2282  0.0928 -0.1819
  849MOL0     C14493   5.560   2.149   9.165  0.6528 -0.1759  0.1423
  849MOL0     C14494   5.667   2.225   9.094 -0.5329  0.3667  0.2008
  849MOL0     C14495   5.815   2.178   9.109 -0.7066  0.6523 -0.1223
  849MOL0     C14496   5.878   2.213   8.973 -0.9377  0.4340  0.3283
  849MOL0     N14497   6.000   2.141   8.958 -0.0399 -0.1590  0.4674
  849MOL0     C14498   6.053   2.116   8.831 -0.5531  0.0020 -0.5243
  849MOL0     C14499   6.151   2.031   8.863 -0.9867  0.0957  0.5977
  849MOL0     C14500   6.252   1.966   8.774 -0.3602  0.4066 -0.1413
  849MOL0     C14501   6.379   2.049   8.740 -1.2799 -0.4178  0.9778
  849MOL0     C14502   6.431   2.013   8.592 -0.3242  0.0887  0.3540
  849MOL0     C14503   6.571   2.071   8.573  0.1638  0.0276 -0.2086
  849MOL0     O14504   6.662   2.028   8.681  0.5340  0.5064  0.5226
  849MOL0     C14505   6.790   2.051   8.655 -0.1828 -0.7278 -0.2728
  849MOL0     C14506   6.872   1.969   8.732 -0.4524  0.8768 -0.0925
  849MOL0     C14507   7.012   1.982   8.723 -0.1592  0.5152  0.0469
  849MOL0     C14508   7.069   2.085   8.642  0.1533  0.3101  0.0724
  849MOL0     C14509   7.211   2.109   8.639 -0.9822  0.2317 -0.5177
  849MOL0     O14510   7.297   2.038   8.708 -0.1192  0.4719  1.1924
  849MOL0     C14511   7.429   2.071   8.697 -0.6347 -0.3047  0.8319
  849MOL0     C14512   7.492   2.171   8.776 -0.6506 -0.3395  0.3721
  849MOL0     C14513   7.629   2.195   8.769  1.0020  0.1970  0.7864
  849MOL0     C14514   7.712   2.125   8.678  0.4967 -0.4197  0.3168
  849MOL0     O14515   7.847   2.153   8.664 -0.6041 -0.9485  0.1709
  849MOL0     C14516   7.910   2.109   8.536 -0.3160 -0.2541  0.6296
  849MOL0     C14517   8.050   2.155   8.531 -0.1884 -0.0744 -0.1318
  849MOL0     C14518   8.136   2.068   8.437  0.3933  0.0154 -0.2630
  849MOL0     C14519   8.097   2.067   8.288  0.1959 -0.7392  0.6967
  849MOL0     C14520   8.173   1.951   8.224 -0.2238 -0.8381 -0.3294
  849MOL0     C14521   8.160   1.962   8.076 -0.6227 -0.6160  0.2074
  849MOL0     C14522   8.252   1.857   8.008  0.1941 -0.1511 -0.5936
  849MOL0     C14523   8.188   1.789   7.883  0.0044 -0.8006  0.0314
  849MOL0    Cl14524   8.132   1.895   7.748  0.1663 -0.4196 -0.2079
  849MOL0     C14525   7.650   2.020   8.607 -0.3096  0.3516 -0.8903
  849MOL0     C14526   7.511   2.005   8.608  0.5151 -0.2345 -0.0238
  849MOL0     O14527   7.244   2.200   8.561 -0.1880  0.3403 -0.1697
  849MOL0     C14528   6.980   2.164   8.565 -0.1572 -0.0287 -0.3876
  849MOL0     C14529   6.844   2.157   8.573 -0.1148  0.0600 -0.3655
  849MOL0     N14530   6.144   1.990   8.997  0.1140 -0.0089  0.0991
  849MOL0     N14531   6.066   2.070   9.058  0.0489  0.3910  0.3361
  849MOL0     C14532   4.951   2.339   9.353 -1.3796 -1.1512  0.3890
  849MOL0     C14533   4.881   2.388   9.465  0.6173 -0.0591 -0.2330
  849MOL0     C14534   4.617   2.592   9.734 -0.5655  0.2496 -0.0906
  849MOL0     C14535   4.501   2.679   9.728  0.2908 -0.6623  0.3647
  849MOL0     C14536   4.398   2.657   9.816  0.0487 -0.0694 -1.2418
  849MOL0     C14537   4.404   2.579   9.932  0.0734 -0.3373 -0.9816
  849MOL0     O14538   4.291   2.577  10.013  0.1134 -0.3701 -0.1022
  849MOL0     C14539   4.282   2.484  10.123 -0.6673 -0.7309 -0.0365
  849MOL0     C14540   4.140   2.461  10.174 -0.0940  0.1695 -0.7110
  849MOL0     C14541   4.127   2.360  10.296 -1.1451  0.0918 -0.0024
  849MOL0     C14542   3.978   2.357  10.345 -0.3848 -0.0162  0.3231
  849MOL0     C14543   3.954   2.463  10.443  0.0049  0.3472 -0.3147
  849MOL0     C14544   3.938   2.568  10.506 -0.0270 -0.2327 -0.0586
  849MOL0     C14545   4.524   2.503   9.943  0.9695 -0.6446  0.0375
  849MOL0     C14546   4.628   2.515   9.857  0.6605  0.3270  0.0785
  849MOL0     C14547   4.746   2.419   9.886 -0.4834 -0.7830 -0.3037
  849MOL0     H14548   5.043   2.665   9.532 -2.5129 -0.5068  2.3128
  849MOL0     H14549   5.182   2.583   9.350 -1.0865 -0.4110 -1.7222
  849MOL0     H14550   5.134   2.171   9.164  1.8531  1.5009  1.3078
  849MOL0     H14551   5.019   2.277   9.071 -1.2266  0.0130  1.6939
  849MOL0     H14552   5.252   2.358   8.972  1.8835 -0.8769 -0.1849
  849MOL0     H14553   5.181   2.198   8.916  0.2942 -0.1687  0.5734
  849MOL0     H14554   5.410   2.180   8.934 -0.1189 -0.5080  0.6226
  849MOL0     H14555   5.323   2.066   9.031  2.6937 -0.7152 -2.3634
  849MOL0     H14556   5.437   2.331   9.148 -2.3610  0.3510 -2.8469
  849MOL0     H14557   5.369   2.187   9.234  1.8017 -1.4971  0.6495
  849MOL0     H14558   5.591   2.145   9.270 -0.2115  0.0321  0.4098
  849MOL0     H14559   5.553   2.051   9.118 -0.1420  1.0891 -2.6200
  849MOL0     H14560   5.632   2.233   8.991  1.8954  3.0406 -0.5672
  849MOL0     H14561   5.671   2.329   9.128  4.0596 -0.1717  2.1745
  849MOL0     H14562   5.810   2.073   9.140 -1.6824  1.2382  1.8619
  849MOL0     H14563   5.859   2.231   9.194 -0.4253  0.3955 -0.1068
  849MOL0     H14564   5.814   2.179   8.891  1.4791 -1.3632 -0.9146
  849MOL0     H14565   5.905   2.319   8.962 -0.4277  0.0919 -2.2702
  849MOL0     H14566   6.037   2.162   8.734 -0.2954 -1.5664 -1.3300
  849MOL0     H14567   6.289   1.875   8.824 -0.8623  0.8338  1.0478
  849MOL0     H14568   6.202   1.927   8.684  0.9814  3.1717 -2.2145
  849MOL0     H14569   6.369   2.156   8.756  2.1332 -0.1067  1.9717
  849MOL0     H14570   6.461   2.020   8.808  1.7016  2.7835 -0.9377
  849MOL0     H14571   6.365   2.059   8.518 -1.6971 -0.7000  1.0500
  849MOL0     H14572   6.437   1.905   8.581  0.2851 -0.0408  1.7653
  849MOL0     H14573   6.568   2.180   8.566  1.0070  0.0880  0.2306
  849MOL0     H14574   6.607   2.036   8.476  1.2083  0.5250 -0.0165
  849MOL0     H14575   6.823   1.905   8.804  0.6091  2.6458  2.3439
  849MOL0     H14576   7.075   1.908   8.769  1.3207 -0.0251 -2.6182
  849MOL0     H14577   7.446   2.228   8.856 -1.9507 -0.2231 -0.4313
  849MOL0     H14578   7.663   2.284   8.822 -0.7490  1.6875 -0.4461
  849MOL0     H14579   7.908   2.001   8.521 -0.8061  0.0545 -1.9098
  849MOL0     H14580   7.860   2.153   8.449  0.7925  0.3380  0.2705
  849MOL0     H14581   8.059   2.261   8.505  0.1347  0.0041  0.2777
  849MOL0     H14582   8.096   2.146   8.630  0.8366  1.1045 -0.4720
  849MOL0     H14583   8.235   2.114   8.441 -0.1301  1.1339  1.5895
  849MOL0     H14584   8.139   1.975   8.493 -1.3473  1.1686  1.9070
  849MOL0     H14585   8.131   2.165   8.252 -1.5199  0.1782  1.4789
  849MOL0     H14586   7.988   2.071   8.280  0.3769  1.7027 -3.7995
  849MOL0     H14587   8.146   1.852   8.262  0.1218 -0.8814 -0.1891
  849MOL0     H14588   8.278   1.969   8.249 -0.6742 -1.3187  2.1909
  849MOL0     H14589   8.058   1.929   8.052  0.4420 -3.5011 -0.8374
  849MOL0     H14590   8.190   2.059   8.035 -3.2705  0.1021 -0.2733
  849MOL0     H14591   8.300   1.783   8.073  0.8586 -0.9600 -1.9710
  849MOL0     H14592   8.326   1.920   7.959  0.4234 -1.6500 -2.2728
  849MOL0     H14593   8.257   1.710   7.850  0.4994 -1.0030  1.4824
  849MOL0     H14594   8.101   1.729   7.913 -1.7745  0.7651 -1.7005
  849MOL0     H14595   7.702   1.951   8.541 -0.9572 -1.4113  0.3614
  849MOL0     H14596   7.466   1.920   8.556  0.1846  0.6485 -1.2357
  849MOL0     H14597   7.032   2.237   8.503  5.9174 -0.7632  3.0406
  849MOL0     H14598   6.772   2.220   8.522 -0.6994  1.6947  2.2739
  849MOL0     H14599   4.914   2.255   9.296  1.0650  0.1030 -3.4557
  849MOL0     H14600   4.805   2.320   9.503 -0.0659  0.0166 -1.4112
  849MOL0     H14601   4.493   2.735   9.636  1.5661 -0.0676  0.5805
  849MOL0     H14602   4.302   2.707   9.812 -0.4113 -0.4416  2.2701
  849MOL0     H14603   4.352   2.518  10.200 -4.8032  0.8507  3.3763
  849MOL0     H14604   4.316   2.385  10.090  2.0454  0.2859 -0.5655
  849MOL0     H14605   4.069   2.428  10.098 -1.6322 -0.0438  0.7590
  849MOL0     H14606   4.111   2.562  10.206  0.3786  1.1033 -3.0557
  849MOL0     H14607   4.200   2.384  10.373  0.9647  1.3936 -2.2316
  849MOL0     H14608   4.157   2.266  10.248 -0.7512  2.0467 -4.0623
  849MOL0     H14609   3.914   2.369  10.257  0.5818 -0.0736 -0.4173
  849MOL0     H14610   3.953   2.259  10.385 -0.6818  0.0923  0.4031
  849MOL0     H14611   3.924   2.658  10.562 -2.3322  0.8866 -2.1876
  849MOL0     H14612   4.530   2.424  10.017 -1.3769 -0.3227  0.6382
  849MOL0     H14613   4.758   2.344   9.808  1.6483 -0.4522 -0.3528
  849MOL0     H14614   4.838   2.478   9.887 -0.8509 -0.2070 -0.2326
  849MOL0     H14615   4.742   2.355   9.975  2.5818 -1.8195 -0.7887
  850MOL0     O14616   6.269   4.878   5.104 -0.4036 -0.6308  0.7921
  850MOL0     C14617   6.218   4.982   5.058 -0.3251  0.7941  0.0567
  850MOL0     O14618   6.269   5.078   4.972 -0.0888 -0.0506 -0.8169
  850MOL0     C14619   6.406   5.080   4.980  0.3333  0.7163 -0.0584
  850MOL0     C14620   6.482   4.980   4.921  0.8060 -0.1819  0.3028
  850MOL0     C14621   6.620   4.991   4.929 -0.0474  0.5799 -0.2776
  850MOL0     C14622   6.680   5.104   4.984 -0.3601 -0.8140 -0.2271
  850MOL0     O14623   6.815   5.128   4.982 -0.2764  0.3580 -0.3840
  850MOL0     C14624   6.896   5.027   5.043 -0.6150  0.3037 -0.7307
  850MOL0     C14625   7.014   5.090   5.123 -0.0044  1.1899  0.5525
  850MOL0     C14626   7.088   4.972   5.191  0.4084  0.3928 -0.4105
  850MOL0     C14627   7.177   4.895   5.088  0.0167  0.0595 -0.4754
  850MOL0     C14628   7.236   4.762   5.142 -0.7122 -1.2893  0.3689
  850MOL0     C14629   7.317   4.772   5.273 -0.6463 -1.0297 -0.4147
  850MOL0     C14630   7.416   4.663   5.290  0.2151 -0.0299 -0.1306
  850MOL0     C14631   7.502   4.682   5.415 -0.2378  0.4049  0.2476
  850MOL0     N14632   7.423   4.671   5.535  0.7185 -0.3671  0.1660
  850MOL0     C14633   7.344   4.563   5.572 -0.0651  0.2467 -0.3274
  850MOL0     C14634   7.261   4.605   5.673  0.2547  0.6132  0.0652
  850MOL0     C14635   7.141   4.525   5.725 -0.2481  0.6554 -0.2510
  850MOL0     C14636   7.034   4.512   5.614 -0.4174 -0.1516  0.7817
  850MOL0     C14637   6.977   4.655   5.590 -0.1669 -0.0018 -0.6767
  850MOL0     C14638   6.857   4.648   5.498 -0.1298 -0.7033 -0.3254
  850MOL0     O14639   6.907   4.631   5.357 -0.6545  0.0624 -0.2948
  850MOL0     C14640   6.817   4.605   5.257 -0.1173 -0.3048 -1.1625
  850MOL0     C14641   6.870   4.560   5.139 -0.1719  0.2549 -0.6388
  850MOL0     C14642   6.795   4.550   5.013 -0.3526 -0.7145 -0.8460
  850MOL0     C14643   6.647   4.568   5.024  0.1604  0.1388 -0.6926
  850MOL0     C14644   6.556   4.563   4.918 -0.6370 -0.1604 -0.0783
  850MOL0     O14645   6.435   4.633   4.927  0.4452 -0.2006 -1.0108
  850MOL0     C14646   6.339   4.607   4.834 -0.8461  0.4883 -0.4149
  850MOL0     C14647   6.358   4.667   4.706  0.7977 -0.1623 -0.5770
  850MOL0     C14648   6.263   4.661   4.609  0.5537 -0.0897  0.5181
  850MOL0     C14649   6.132   4.604   4.643 -0.2314  0.9069  0.4026
  850MOL0     O14650   6.043   4.616   4.542 -0.2389  0.6725  0.4335
  850MOL0     C14651   5.919   4.660   4.578  0.4015  0.2060  0.6804
  850MOL0     C14652   5.818   4.544   4.572  0.0053 -0.3147  0.0994
  850MOL0     C14653   5.774   4.515   4.431  0.1051 -0.1734  0.3789
  850MOL0     C14654   5.664   4.405   4.413  0.1305  0.8064  0.2622
  850MOL0     C14655   5.578   4.435   4.288  0.0360 -0.0448 -0.0118
  850MOL0     C14656   5.478   4.329   4.235  0.2770  0.2364  0.8339
  850MOL0     C14657   5.387   4.285   4.354 -0.5165 -0.8135 -0.4040
  850MOL0     C14658   5.264   4.215   4.301 -0.3311  0.3717  0.3624
  850MOL0    Cl14659   5.170   4.330   4.206 -0.0985 -0.6332 -0.1497
  850MOL0     C14660   6.113   4.541   4.764  0.1935 -0.4121 -0.5128
  850MOL0     C14661   6.221   4.542   4.864 -0.5918  0.3297  0.0825
  850MOL0     O14662   6.585   4.497   4.819  0.0913 -0.0101  0.1464
  850MOL0     C14663   6.596   4.599   5.151 -0.0298  0.5121 -0.0908
  850MOL0     C14664   6.671   4.619   5.270  0.2241  0.1468  1.0832
  850MOL0     N14665   7.295   4.741   5.694 -0.0693 -0.2124 -0.6793
  850MOL0     N14666   7.387   4.779   5.613  0.2870 -0.6564 -0.0867
  850MOL0     C14667   6.606   5.208   5.046 -0.6661 -0.4073  0.5338
  850MOL0     C14668   6.463   5.191   5.040  0.5279 -0.2360 -0.8964
  850MOL0     C14669   6.075   4.991   5.106 -0.2829 -0.8599 -0.1917
  850MOL0     C14670   6.045   4.970   5.246  0.4312  0.6619  0.9128
  850MOL0     C14671   5.916   4.976   5.289 -0.1931  0.5574 -0.1751
  850MOL0     C14672   5.817   5.010   5.199 -0.0381  1.4197 -0.1328
  850MOL0     O14673   5.682   5.017   5.235 -0.4862 -0.2164  0.7119
  850MOL0     C14674   5.575   5.088   5.168 -0.1481  0.1581  0.2716
  850MOL0     C14675   5.442   5.037   5.217  0.5320 -0.2928 -1.3461
  850MOL0     C14676   5.400   5.093   5.351 -1.0939 -0.3394 -0.4347
  850MOL0     C14677   5.267   5.039   5.403  0.3370  0.1231 -0.3121
  850MOL0     C14678   5.242   5.105   5.531 -0.1068  0.2542 -0.2434
  850MOL0     C14679   5.233   5.164   5.635  0.3510  0.1895  0.9607
  850MOL0     C14680   5.842   5.026   5.069  0.0623 -0.3086  0.6980
  850MOL0     C14681   5.972   5.013   5.016  0.0209 -0.8771 -0.2125
  850MOL0     C14682   5.998   5.027   4.866  0.2979  0.7332  0.1683
  850MOL0     H14683   6.435   4.897   4.871  4.5350 -1.9078 -0.6754
  850MOL0     H14684   6.677   4.912   4.879 -0.3811  1.2733 -1.8212
  850MOL0     H14685   6.850   4.952   5.108  0.4537  1.1119  1.0282
  850MOL0     H14686   6.945   4.961   4.971 -0.0165 -3.9149  3.0675
  850MOL0     H14687   6.991   5.164   5.200  2.9577  2.1136  0.6899
  850MOL0     H14688   7.070   5.148   5.049 -0.8507  1.9788  0.5160
  850MOL0     H14689   7.021   4.900   5.238  0.6361  0.6877  0.3883
  850MOL0     H14690   7.148   5.009   5.275 -0.9593  1.0382  0.3277
  850MOL0     H14691   7.113   4.861   5.006  1.4266 -1.2106 -1.0840
  850MOL0     H14692   7.249   4.962   5.040  0.9047  1.8231  2.9500
  850MOL0     H14693   7.160   4.685   5.153 -2.8606  0.1152 -2.9656
  850MOL0     H14694   7.296   4.726   5.058 -0.4881 -1.6964  0.7025
  850MOL0     H14695   7.382   4.860   5.266 -0.7643 -0.8198  0.8456
  850MOL0     H14696   7.252   4.775   5.361  1.8904  2.1633  1.5869
  850MOL0     H14697   7.475   4.664   5.198 -2.8056  0.4006 -2.2052
  850MOL0     H14698   7.364   4.568   5.306 -1.9681  0.5484 -2.9487
  850MOL0     H14699   7.581   4.606   5.411 -2.1601 -1.6250 -1.4509
  850MOL0     H14700   7.545   4.783   5.416 -0.6068  0.5927 -0.9255
  850MOL0     H14701   7.336   4.472   5.514 -0.6889  1.3451 -2.0359
  850MOL0     H14702   7.180   4.429   5.760 -2.5279 -0.2451 -0.0671
  850MOL0     H14703   7.104   4.573   5.817 -2.8442 -0.8919 -0.3912
  850MOL0     H14704   7.076   4.456   5.530 -1.2312  0.3210  0.0419
  850MOL0     H14705   6.947   4.450   5.637 -0.0954 -1.4603 -1.2268
  850MOL0     H14706   7.052   4.715   5.540 -0.7699  1.7710  0.4668
  850MOL0     H14707   6.947   4.701   5.685 -0.1271 -2.0116  0.3767
  850MOL0     H14708   6.804   4.744   5.502  0.1286 -0.5539 -0.4456
  850MOL0     H14709   6.785   4.573   5.531  0.3926  0.3177  3.5700
  850MOL0     H14710   6.978   4.572   5.145  0.0356 -1.6357 -0.0844
  850MOL0     H14711   6.844   4.536   4.918  1.3953  1.8868 -0.4361
  850MOL0     H14712   6.456   4.711   4.687  1.5363 -1.8189 -0.7603
  850MOL0     H14713   6.275   4.715   4.515  0.7737  1.1276  1.2286
  850MOL0     H14714   5.924   4.716   4.672  0.8144  0.6836  0.3754
  850MOL0     H14715   5.886   4.731   4.502  2.5172 -1.2305 -1.7387
  850MOL0     H14716   5.844   4.454   4.628 -1.0843  0.7839  2.5105
  850MOL0     H14717   5.729   4.583   4.622 -0.2810  2.5715 -2.3760
  850MOL0     H14718   5.747   4.607   4.380 -0.1550 -0.9666 -0.9582
  850MOL0     H14719   5.863   4.502   4.369 -0.7082  1.1949 -1.1367
  850MOL0     H14720   5.598   4.389   4.499  0.1029 -0.9784 -0.0581
  850MOL0     H14721   5.703   4.306   4.390 -0.9682  0.2673  0.6612
  850MOL0     H14722   5.639   4.462   4.201 -0.0305 -0.3151 -0.1435
  850MOL0     H14723   5.528   4.531   4.304  0.6720  0.2319  0.3507
  850MOL0     H14724   5.420   4.365   4.149  2.2858 -0.4336 -0.8619
  850MOL0     H14725   5.531   4.240   4.201 -0.7372  0.2580 -0.9658
  850MOL0     H14726   5.355   4.380   4.397  0.8304 -1.0445  1.2094
  850MOL0     H14727   5.441   4.229   4.430  0.2100  0.2420 -0.1251
  850MOL0     H14728   5.301   4.133   4.238 -1.5750 -2.0144  2.5460
  850MOL0     H14729   5.201   4.168   4.377 -1.1024 -0.7936 -0.9344
  850MOL0     H14730   6.026   4.479   4.786  1.1754 -1.3344  0.8760
  850MOL0     H14731   6.209   4.483   4.954 -0.5169  2.1931  1.3511
  850MOL0     H14732   6.495   4.634   5.168  0.8896  2.5566  1.7217
  850MOL0     H14733   6.620   4.655   5.359 -2.0302 -2.8403  1.1420
  850MOL0     H14734   6.664   5.284   5.098  0.2359 -1.6953  1.4439
  850MOL0     H14735   6.387   5.251   5.089 -1.4759 -4.6894  2.0452
  850MOL0     H14736   6.118   4.935   5.317  2.6795  0.3517 -1.4059
  850MOL0     H14737   5.890   4.959   5.394 -2.6836 -1.0548 -0.9655
  850MOL0     H14738   5.580   5.062   5.062  2.0853  1.5523 -0.0227
  850MOL0     H14739   5.579   5.196   5.182 -0.1589  0.3400 -1.0571
  850MOL0     H14740   5.442   4.928   5.230  0.3836 -0.0457  1.1996
  850MOL0     H14741   5.369   5.052   5.137  0.5793  1.1343 -1.1417
  850MOL0     H14742   5.412   5.201   5.342  1.0829 -0.2591  2.1820
  850MOL0     H14743   5.468   5.063   5.432 -2.3586 -0.4469  0.6250
  850MOL0     H14744   5.190   5.062   5.329  0.8573 -1.5522 -1.4225
  850MOL0     H14745   5.274   4.932   5.420 -1.2923 -0.0586 -0.6056
  850MOL0     H14746   5.219   5.221   5.725 -0.7195 -1.3427  1.8139
  850MOL0     H14747   5.771   5.043   4.988  2.6027 -0.1393 -1.6614
  850MOL0     H14748   6.048   5.122   4.845 -0.6414  0.6905 -2.6571
  850MOL0     H14749   6.056   4.942   4.828 -1.0463  1.3822 -3.8927
  850MOL0     H14750   5.909   5.032   4.802 -0.4656  1.2436  1.2424
  851MOL0     O14751   6.417   5.718   6.157  0.6465 -0.0185  0.7609
  851MOL0     C14752   6.399   5.609   6.209  0.4218  0.7181 -0.2843
  851MOL0     O14753   6.462   5.494   6.170 -0.8187  0.7127 -0.7110
  851MOL0     C14754   6.575   5.502   6.081  1.1796 -0.4994 -1.0199
  851MOL0     C14755   6.699   5.512   6.124 -1.0693  0.3314  0.0455
  851MOL0     C14756   6.811   5.498   6.049  0.5915  0.5045  0.6645
  851MOL0     C14757   6.792   5.463   5.908 -0.3585 -0.3545 -0.1399
  851MOL0     O14758   6.893   5.436   5.812 -0.3233 -0.2822 -0.2932
  851MOL0     C14759   7.031   5.448   5.847  0.2525 -0.5358  0.0090
  851MOL0     C14760   7.096   5.585   5.819 -0.1224  0.2605  0.5852
  851MOL0     C14761   7.230   5.610   5.892 -0.2290  1.4256  0.4952
  851MOL0     C14762   7.334   5.496   5.847  0.8037  0.5123 -0.6109
  851MOL0     C14763   7.476   5.536   5.892  0.8827  0.2539  0.4516
  851MOL0     C14764   7.540   5.632   5.797 -0.8623 -0.5106 -0.1758
  851MOL0     C14765   7.688   5.666   5.847 -0.5051 -0.2777  0.2812
  851MOL0     C14766   7.782   5.543   5.850 -0.0435  0.0296 -0.5820
  851MOL0     N14767   7.808   5.493   5.717  0.0312  0.2114 -0.3134
  851MOL0     C14768   7.852   5.549   5.605  0.8153  0.0061  0.8355
  851MOL0     C14769   7.865   5.440   5.524 -0.8696 -0.2777  0.6670
  851MOL0     C14770   7.940   5.433   5.390 -0.1011 -0.6036 -0.3490
  851MOL0     C14771   8.081   5.509   5.406  0.3665 -0.0594 -0.5247
  851MOL0     C14772   8.161   5.503   5.276  0.1425  1.5535  0.1674
  851MOL0     C14773   8.300   5.571   5.295 -0.0962 -0.4651 -0.0554
  851MOL0     O14774   8.391   5.568   5.177  0.2266 -0.5998  0.0080
  851MOL0     C14775   8.508   5.634   5.187  0.3388 -0.5031 -0.6132
  851MOL0     C14776   8.615   5.594   5.119  0.1848  0.7372 -0.8192
  851MOL0     C14777   8.741   5.666   5.118  0.1143  0.2855  0.0204
  851MOL0     C14778   8.758   5.790   5.188 -0.0343 -0.7884  0.3190
  851MOL0     C14779   8.894   5.855   5.202 -0.1896  0.2597 -0.6412
  851MOL0     O14780   8.892   5.965   5.281 -0.4952 -0.4634  0.2367
  851MOL0     C14781   9.006   6.040   5.317  0.3864  0.1495  0.1526
  851MOL0     C14782   8.992   6.111   5.433  0.0052 -0.7282  0.4625
  851MOL0     C14783   9.085   6.187   5.487 -0.2087 -0.6923  0.2495
  851MOL0     C14784   9.212   6.197   5.427  0.5437  0.7982  0.8766
  851MOL0     O14785   9.299   6.272   5.491 -0.5064  0.0868 -0.4906
  851MOL0     C14786   9.438   6.231   5.491 -0.0058 -0.5113 -0.4576
  851MOL0     C14787   9.502   6.309   5.604  0.2647 -0.8214  0.2065
  851MOL0     C14788   9.653   6.294   5.606  0.7538 -1.0094  0.8686
  851MOL0     C14789   9.724   6.382   5.713 -0.4520 -0.8729 -0.2045
  851MOL0     C14790   9.695   6.349   5.869 -0.4247 -0.0936  0.9963
  851MOL0     C14791   9.718   6.198   5.892  0.6132  0.0811 -0.6578
  851MOL0     C14792   9.744   6.175   6.043 -0.8300 -0.3275 -0.7532
  851MOL0     C14793   9.730   6.029   6.072  1.0970 -0.3220 -0.3831
  851MOL0    Cl14794   9.780   6.010   6.234 -0.2155  0.0151 -0.6827
  851MOL0     C14795   9.230   6.139   5.300  0.0454  0.5812  0.2558
  851MOL0     C14796   9.128   6.053   5.246 -0.9830 -0.3036 -0.0268
  851MOL0     O14797   8.997   5.807   5.153 -0.1801 -0.2744  0.1252
  851MOL0     C14798   8.647   5.836   5.259  0.5314 -0.3094  1.0856
  851MOL0     C14799   8.529   5.763   5.254 -0.1009  0.1977 -1.0020
  851MOL0     N14800   7.811   5.329   5.585  1.0038 -0.1401  0.3091
  851MOL0     N14801   7.779   5.361   5.698  0.8706  0.2591 -0.0240
  851MOL0     C14802   6.665   5.454   5.860  0.0256  0.1203  0.2878
  851MOL0     C14803   6.554   5.482   5.944  0.2553  0.6841 -0.2498
  851MOL0     C14804   6.295   5.599   6.315  0.6834  0.3294 -0.0399
  851MOL0     C14805   6.196   5.697   6.328 -0.3055  0.0330  0.3737
  851MOL0     C14806   6.109   5.697   6.432 -0.1156 -0.7434  0.8857
  851MOL0     C14807   6.114   5.597   6.533  0.4028 -0.1338 -0.3834
  851MOL0     O14808   6.024   5.575   6.635 -0.3606 -0.9626 -0.6176
  851MOL0     C14809   5.920   5.675   6.648 -0.4473  0.2035  0.3825
  851MOL0     C14810   5.826   5.650   6.765  0.1424 -0.4382 -0.4461
  851MOL0     C14811   5.758   5.509   6.769  0.5121  0.2395 -0.1123
  851MOL0     C14812   5.710   5.474   6.905 -0.1094  0.0287 -0.1482
  851MOL0     C14813   5.594   5.558   6.949  0.2748  0.1942 -0.2101
  851MOL0     C14814   5.531   5.635   7.013 -0.1498 -1.2841 -0.0506
  851MOL0     C14815   6.223   5.508   6.530  0.3471  0.3090  0.3941
  851MOL0     C14816   6.310   5.507   6.423 -0.2338 -0.3162  1.1354
  851MOL0     C14817   6.412   5.398   6.422 -0.4317 -0.5728  0.2784
  851MOL0     H14818   6.728   5.526   6.227  1.9184 -0.2752 -0.6162
  851MOL0     H14819   6.911   5.489   6.090  0.4843 -0.4768  0.7340
  851MOL0     H14820   7.045   5.417   5.951 -0.8418 -1.3082 -0.0545
  851MOL0     H14821   7.081   5.366   5.794  0.3342 -0.9523  0.7140
  851MOL0     H14822   7.035   5.668   5.856 -1.6295 -0.2738 -0.6103
  851MOL0     H14823   7.117   5.578   5.712 -1.2007 -0.8129  0.4268
  851MOL0     H14824   7.204   5.593   5.997  0.9597 -0.7003  0.4962
  851MOL0     H14825   7.261   5.715   5.887 -1.1126  1.7489  1.4371
  851MOL0     H14826   7.313   5.397   5.890 -0.4649  0.8080 -0.5098
  851MOL0     H14827   7.333   5.480   5.739  0.5635 -2.1986 -0.2924
  851MOL0     H14828   7.475   5.591   5.986  2.9432 -2.0296  1.9221
  851MOL0     H14829   7.541   5.448   5.898  1.0749  0.4249  0.9481
  851MOL0     H14830   7.552   5.587   5.698  0.3785  1.0545 -0.7835
  851MOL0     H14831   7.477   5.722   5.795 -1.7758 -1.1503 -1.8795
  851MOL0     H14832   7.690   5.723   5.941 -0.0613 -1.8487  1.2682
  851MOL0     H14833   7.723   5.740   5.774 -1.5786  0.0957  0.1288
  851MOL0     H14834   7.881   5.565   5.889 -0.3207  0.1177  0.0944
  851MOL0     H14835   7.742   5.471   5.922  0.4842 -0.3560 -0.6673
  851MOL0     H14836   7.886   5.651   5.588  2.2040 -0.8059 -1.7239
  851MOL0     H14837   7.965   5.330   5.365  4.7768  0.0781  0.8323
  851MOL0     H14838   7.887   5.487   5.311  0.1015  0.9680  0.5556
  851MOL0     H14839   8.059   5.610   5.441 -0.6847 -0.6581  0.5945
  851MOL0     H14840   8.134   5.457   5.487  0.1501  0.0800 -0.2932
  851MOL0     H14841   8.102   5.548   5.196 -0.8920 -1.8155 -1.1705
  851MOL0     H14842   8.180   5.396   5.261  2.6079  1.8595  0.7119
  851MOL0     H14843   8.350   5.522   5.379 -0.8519 -1.6048 -0.2436
  851MOL0     H14844   8.283   5.679   5.305  0.2502 -0.2722 -1.4393
  851MOL0     H14845   8.629   5.510   5.052 -0.3140  1.1420 -1.4433
  851MOL0     H14846   8.829   5.625   5.070  2.1165  2.8382  1.2652
  851MOL0     H14847   8.896   6.107   5.483 -0.2572  0.4720  0.0950
  851MOL0     H14848   9.067   6.250   5.573 -1.7796  0.6804 -0.9994
  851MOL0     H14849   9.447   6.125   5.517 -0.7195 -0.0903  1.7978
  851MOL0     H14850   9.484   6.259   5.396 -0.8843  0.0705 -0.7278
  851MOL0     H14851   9.476   6.415   5.593  1.2756 -0.7985 -2.5832
  851MOL0     H14852   9.465   6.272   5.700 -0.6424 -2.8299 -0.8621
  851MOL0     H14853   9.675   6.190   5.631  1.9246 -1.0650 -0.2613
  851MOL0     H14854   9.678   6.319   5.502 -2.1850 -0.8918  0.0809
  851MOL0     H14855   9.701   6.489   5.700 -3.0191 -1.4740 -1.3821
  851MOL0     H14856   9.832   6.371   5.702 -0.3889 -1.6645  0.9970
  851MOL0     H14857   9.592   6.370   5.899 -0.6774 -1.2174  0.9587
  851MOL0     H14858   9.768   6.416   5.917  2.2441 -0.2626 -2.4215
  851MOL0     H14859   9.638   6.135   5.850  1.1885  0.1056 -1.8348
  851MOL0     H14860   9.803   6.166   5.831 -0.2908 -2.4244 -0.7362
  851MOL0     H14861   9.669   6.236   6.095 -1.8476 -1.6119 -0.6854
  851MOL0     H14862   9.842   6.219   6.066  0.2500 -2.4189 -1.1166
  851MOL0     H14863   9.628   5.990   6.062  0.8337 -0.1731  1.3263
  851MOL0     H14864   9.802   5.977   6.009  1.3721  1.1947 -1.3763
  851MOL0     H14865   9.332   6.136   5.264  0.5847  0.9239  1.7310
  851MOL0     H14866   9.139   5.997   5.153  0.0479  3.1148 -2.1604
  851MOL0     H14867   8.662   5.933   5.305 -1.4326  1.7341 -2.1724
  851MOL0     H14868   8.441   5.796   5.309  0.0892 -0.1717 -0.4663
  851MOL0     H14869   6.650   5.425   5.757  3.0133  0.6079 -0.3667
  851MOL0     H14870   6.458   5.476   5.893 -0.4150 -0.4452  1.1004
  851MOL0     H14871   6.198   5.774   6.251  0.0817 -1.8259 -1.5752
  851MOL0     H14872   6.048   5.787   6.427  0.1178 -0.5304  1.6721
  851MOL0     H14873   5.849   5.664   6.566 -0.7724 -1.5333  0.8478
  851MOL0     H14874   5.951   5.780   6.658 -1.0034  0.3761  0.2997
  851MOL0     H14875   5.742   5.718   6.745  0.6633 -0.7123 -4.2434
  851MOL0     H14876   5.869   5.672   6.864  3.6006  5.2852 -2.7336
  851MOL0     H14877   5.829   5.434   6.735  1.5253  1.6876 -1.3472
  851MOL0     H14878   5.672   5.513   6.701  0.4309  1.1051  0.0292
  851MOL0     H14879   5.689   5.367   6.899  0.2759 -0.0388 -0.2930
  851MOL0     H14880   5.787   5.472   6.982 -0.9313  0.6400  0.7134
  851MOL0     H14881   5.472   5.715   7.053 -2.2743 -1.7131 -2.1050
  851MOL0     H14882   6.228   5.430   6.605 -0.0995 -0.1482 -0.0416
  851MOL0     H14883   6.398   5.329   6.339  0.8829 -1.2142  0.5697
  851MOL0     H14884   6.515   5.434   6.417 -0.6683 -0.0356 -2.7654
  851MOL0     H14885   6.405   5.329   6.507  0.1749 -2.0812 -0.8483
  852MOL0     O14886   1.958   5.137   0.609  0.1163 -0.7786 -0.5566
  852MOL0     C14887   2.012   5.150   0.717  0.3706  0.5295  0.4545
  852MOL0     O14888   2.131   5.212   0.740 -0.1191 -0.3396  0.2724
  852MOL0     C14889   2.198   5.281   0.646 -0.8651  0.6838  0.0881
  852MOL0     C14890   2.251   5.210   0.540 -0.7121 -1.1514 -0.0431
  852MOL0     C14891   2.336   5.266   0.444  0.8161 -0.4473 -0.4008
  852MOL0     C14892   2.371   5.407   0.459  0.0769  0.4275  0.2888
  852MOL0     O14893   2.453   5.459   0.361 -0.3385 -0.4039  0.6579
  852MOL0     C14894   2.499   5.597   0.371 -0.6607  0.2026 -0.8824
  852MOL0     C14895   2.572   5.620   0.242  0.8018  0.4780  0.2245
  852MOL0     C14896   2.715   5.562   0.233 -1.1394 -0.5032 -0.4260
  852MOL0     C14897   2.802   5.628   0.126 -0.2642  0.1657  0.3836
  852MOL0     C14898   2.945   5.573   0.126 -0.1196  0.5767 -0.0909
  852MOL0     C14899   3.024   5.604  -0.002  0.0631 -0.1649  0.3523
  852MOL0     C14900   3.153   5.533  -0.005  0.0239 -0.1998 -0.3481
  852MOL0     C14901   3.213   5.558  -0.144 -0.6910 -0.6434 -0.5853
  852MOL0     N14902   3.347   5.502  -0.155  0.2810  0.2080 -0.5945
  852MOL0     C14903   3.376   5.383  -0.226  0.3764 -0.1186  0.2336
  852MOL0     C14904   3.510   5.376  -0.206  0.7293 -0.2070  1.0195
  852MOL0     C14905   3.576   5.255  -0.253 -0.5747 -0.3068 -0.3056
  852MOL0     C14906   3.726   5.271  -0.221 -0.6912 -1.0738 -0.0449
  852MOL0     C14907   3.806   5.172  -0.301  0.0040 -0.4025  0.4819
  852MOL0     C14908   3.808   5.030  -0.245 -0.4057  0.4633 -0.3660
  852MOL0     O14909   3.887   4.944  -0.335  0.1723  0.3515 -0.2634
  852MOL0     C14910   4.022   4.927  -0.330 -0.2615  0.6248 -0.5510
  852MOL0     C14911   4.104   4.973  -0.231  0.1805 -0.5034 -0.4708
  852MOL0     C14912   4.245   4.944  -0.225  0.2962 -0.0138  0.0992
  852MOL0     C14913   4.305   4.863  -0.313 -0.2846 -0.4704 -0.3987
  852MOL0     C14914   4.453   4.828  -0.317  0.5866 -1.1885 -0.4261
  852MOL0     O14915   4.529   4.899  -0.236 -0.0760 -0.8120 -0.7783
  852MOL0     C14916   4.666   4.892  -0.240  0.0759  0.0613  0.5501
  852MOL0     C14917   4.730   5.014  -0.228 -0.1521  0.3083  0.1888
  852MOL0     C14918   4.870   5.027  -0.231  1.1179  0.3562  0.5069
  852MOL0     C14919   4.940   4.912  -0.244 -0.8699  0.3358 -0.1578
  852MOL0     O14920   5.080   4.944  -0.250 -0.1106 -0.0054 -0.5155
  852MOL0     C14921   5.180   4.854  -0.304  0.1068  0.5596 -0.1055
  852MOL0     C14922   5.312   4.927  -0.347  1.3006  0.0256  0.3335
  852MOL0     C14923   5.416   4.925  -0.232  0.1101  0.1154 -0.3544
  852MOL0     C14924   5.545   4.970  -0.279 -0.8495  0.1865  0.7455
  852MOL0     C14925   5.649   5.000  -0.174  0.9475 -0.1370 -0.5295
  852MOL0     C14926   5.787   5.023  -0.244  0.7671  1.5357 -0.0922
  852MOL0     C14927   5.902   5.063  -0.153 -0.2212  1.0368  0.0885
  852MOL0     C14928   6.038   5.046  -0.211  0.7924 -0.1051  0.6106
  852MOL0    Cl14929   6.062   5.166  -0.345  0.0827 -0.2781 -0.1312
  852MOL0     C14930   4.876   4.782  -0.253  0.5727  0.1478 -0.7036
  852MOL0     C14931   4.736   4.776  -0.246 -0.1029 -0.6241 -0.8017
  852MOL0     O14932   4.490   4.755  -0.402  0.1078 -0.1603 -0.0321
  852MOL0     C14933   4.226   4.804  -0.405  0.8493 -0.7376  0.4106
  852MOL0     C14934   4.082   4.845  -0.427 -0.3409 -0.5587 -0.6155
  852MOL0     N14935   3.551   5.489  -0.138  0.4710 -0.1201  0.3401
  852MOL0     N14936   3.450   5.565  -0.109 -0.0448 -0.0444 -0.4438
  852MOL0     C14937   2.323   5.478   0.576 -0.5311  0.7464 -0.2324
  852MOL0     C14938   2.236   5.417   0.669  0.6908  0.0760 -0.4932
  852MOL0     C14939   1.952   5.084   0.837 -0.3218  0.5999  0.3028
  852MOL0     C14940   2.046   5.009   0.915 -0.2728  0.3825 -0.4699
  852MOL0     C14941   2.000   4.945   1.029 -0.0214 -0.6453  0.3232
  852MOL0     C14942   1.863   4.941   1.074 -0.6200  0.8908 -0.3405
  852MOL0     O14943   1.824   4.876   1.193 -1.2890 -0.1037 -0.2345
  852MOL0     C14944   1.726   4.771   1.168 -0.2444 -0.2315 -0.2385
  852MOL0     C14945   1.692   4.688   1.287  0.5368 -0.6854 -0.5144
  852MOL0     C14946   1.575   4.594   1.267 -0.3172  0.3476  0.5242
  852MOL0     C14947   1.552   4.497   1.383  0.3311  0.8636 -0.7975
  852MOL0     C14948   1.508   4.366   1.336  0.2445 -0.7675 -0.7904
  852MOL0     C14949   1.481   4.252   1.315  0.7039  0.3284  0.9024
  852MOL0     C14950   1.770   5.001   0.989  0.5171 -0.4701 -0.4994
  852MOL0     C14951   1.814   5.072   0.875 -0.8946 -0.0311  0.0592
  852MOL0     C14952   1.709   5.157   0.797 -0.1972  0.6187 -0.5811
  852MOL0     H14953   2.221   5.106   0.529  0.6897 -1.4850 -0.9947
  852MOL0     H14954   2.367   5.213   0.354  2.7297  0.7692 -0.5043
  852MOL0     H14955   2.417   5.669   0.382  0.6754  1.4226  2.1671
  852MOL0     H14956   2.566   5.612   0.456  0.1694 -0.0258 -1.4830
  852MOL0     H14957   2.582   5.728   0.228  1.6468  0.0804 -2.9546
  852MOL0     H14958   2.511   5.581   0.160 -0.4385  0.2755  1.2114
  852MOL0     H14959   2.713   5.456   0.206  1.8136 -2.0340  4.2253
  852MOL0     H14960   2.769   5.567   0.327  0.5478  1.7712 -1.4185
  852MOL0     H14961   2.755   5.633   0.027  2.1269  0.9157 -0.7823
  852MOL0     H14962   2.816   5.736   0.142  3.3841  0.1218 -1.4485
  852MOL0     H14963   3.006   5.615   0.207 -0.7358  1.7353 -0.2051
  852MOL0     H14964   2.947   5.465   0.145  0.5498  0.6009  0.0037
  852MOL0     H14965   2.974   5.562  -0.090  3.2885 -1.1983 -1.1534
  852MOL0     H14966   3.041   5.711  -0.015  3.0492 -0.0579  3.6066
  852MOL0     H14967   3.153   5.427   0.019  0.7535 -0.5297 -1.7188
  852MOL0     H14968   3.216   5.591   0.063 -1.9753  2.2519 -0.4126
  852MOL0     H14969   3.156   5.502  -0.219  0.0585 -0.1539 -1.5287
  852MOL0     H14970   3.216   5.665  -0.162 -0.4719  0.0562  2.8764
  852MOL0     H14971   3.316   5.316  -0.288 -1.4623 -0.2734  2.0838
  852MOL0     H14972   3.549   5.162  -0.203  0.6734 -0.1458  0.7315
  852MOL0     H14973   3.549   5.249  -0.358 -0.9312  1.8254 -0.3804
  852MOL0     H14974   3.761   5.372  -0.242  3.9293 -1.8737  2.4366
  852MOL0     H14975   3.759   5.268  -0.117  1.3773  1.0885 -0.5475
  852MOL0     H14976   3.907   5.211  -0.289 -0.9884  2.6436 -0.0156
  852MOL0     H14977   3.776   5.184  -0.406 -1.4724  1.7716  1.0735
  852MOL0     H14978   3.709   4.991  -0.223  0.1874  0.7628  3.5696
  852MOL0     H14979   3.855   5.028  -0.146 -0.6686 -1.8728 -0.2388
  852MOL0     H14980   4.057   5.034  -0.155  0.1292 -3.1640  1.8057
  852MOL0     H14981   4.299   4.987  -0.141 -0.8286  0.4042  0.6345
  852MOL0     H14982   4.669   5.103  -0.211  2.3136  1.8357  1.5662
  852MOL0     H14983   4.917   5.123  -0.217  0.7568  0.5249  0.5744
  852MOL0     H14984   5.201   4.772  -0.235 -1.0257 -0.0369 -0.4390
  852MOL0     H14985   5.138   4.806  -0.393 -1.5140  0.4388  0.6824
  852MOL0     H14986   5.361   4.886  -0.436  4.1145  0.1439  1.7285
  852MOL0     H14987   5.274   5.024  -0.382 -3.1063 -1.5588  0.0817
  852MOL0     H14988   5.376   4.994  -0.157 -0.9121 -0.4501 -0.3563
  852MOL0     H14989   5.419   4.827  -0.184  1.2142 -0.2958 -1.2215
  852MOL0     H14990   5.543   5.039  -0.363 -0.5955 -0.7704 -0.0777
  852MOL0     H14991   5.584   4.879  -0.326 -2.3290 -0.3658  0.5412
  852MOL0     H14992   5.648   4.924  -0.094 -2.4957  2.5150  2.3116
  852MOL0     H14993   5.605   5.088  -0.127 -2.4223 -1.6292 -0.5432
  852MOL0     H14994   5.806   4.926  -0.290 -2.3790  0.8626 -0.2072
  852MOL0     H14995   5.785   5.102  -0.320  1.1863  1.6660  0.0323
  852MOL0     H14996   5.909   5.013  -0.056  2.9266  1.0017 -0.0432
  852MOL0     H14997   5.890   5.168  -0.125 -0.6442  1.2412 -0.8343
  852MOL0     H14998   6.120   5.071  -0.143 -0.0338  0.5659  1.3986
  852MOL0     H14999   6.061   4.945  -0.245 -0.0657 -0.7091  1.7321
  852MOL0     H15000   4.938   4.693  -0.260  0.4978  0.0411 -0.0933
  852MOL0     H15001   4.682   4.682  -0.252  0.7149 -1.0516 -1.9647
  852MOL0     H15002   4.263   4.724  -0.468 -0.0974 -0.1411 -0.9338
  852MOL0     H15003   4.017   4.789  -0.494 -0.3469 -1.6245  0.2512
  852MOL0     H15004   2.358   5.580   0.584  2.7402 -0.3637  1.9457
  852MOL0     H15005   2.202   5.471   0.757 -2.5161 -3.4805  0.7723
  852MOL0     H15006   2.152   5.007   0.893  0.2556  0.3804  1.8204
  852MOL0     H15007   2.071   4.881   1.080  2.2721  1.1891 -0.3937
  852MOL0     H15008   1.767   4.699   1.097  0.5093 -0.4259  0.3755
  852MOL0     H15009   1.630   4.810   1.134 -0.7500 -1.2437 -0.0351
  852MOL0     H15010   1.682   4.749   1.377  0.0784  1.5653 -2.0081
  852MOL0     H15011   1.782   4.626   1.295  0.7436 -0.5761 -1.7282
  852MOL0     H15012   1.591   4.550   1.168 -0.2589  3.0043 -0.7095
  852MOL0     H15013   1.485   4.653   1.248 -0.5516 -0.6554 -1.8011
  852MOL0     H15014   1.641   4.474   1.442 -1.0918 -1.3811  0.6012
  852MOL0     H15015   1.487   4.544   1.458 -2.5694 -0.8912 -2.0429
  852MOL0     H15016   1.472   4.153   1.275  1.2904  0.1126  1.2998
  852MOL0     H15017   1.668   5.003   1.026  0.7934  1.3101  0.2780
  852MOL0     H15018   1.668   5.121   0.702 -0.8103  4.2023 -1.8347
  852MOL0     H15019   1.623   5.183   0.859  0.5082  2.1357 -0.1775
  852MOL0     H15020   1.751   5.251   0.760  0.4467  0.5778  0.0416
  853MOL0     O15021   6.115   6.519   9.264  0.3208 -0.3285  0.0998
  853MOL0     C15022   6.018   6.564   9.215  0.9410 -0.0818 -1.1924
  853MOL0     O15023   6.012   6.676   9.137  0.0562  0.5537 -0.0973
  853MOL0     C15024   6.126   6.717   9.092 -0.2884  0.4920  1.0154
  853MOL0     C15025   6.164   6.845   9.135  0.4629  0.5110 -0.1807
  853MOL0     C15026   6.293   6.897   9.099  0.4303  0.5794  0.2471
  853MOL0     C15027   6.369   6.837   9.012  0.4903 -1.2268 -0.4357
  853MOL0     O15028   6.492   6.887   8.981  0.8106 -1.1003 -0.3093
  853MOL0     C15029   6.527   7.024   9.010 -0.6719 -0.9715  0.0433
  853MOL0     C15030   6.625   7.058   8.905 -0.2218  0.3302  0.5314
  853MOL0     C15031   6.754   7.119   8.952  0.2793 -1.0154  0.9811
  853MOL0     C15032   6.865   7.137   8.839  0.1666 -0.1566  0.1189
  853MOL0     C15033   6.989   7.212   8.891 -0.0622  0.6058 -0.0491
  853MOL0     C15034   7.081   7.274   8.791 -0.6335 -0.4403  0.6123
  853MOL0     C15035   7.160   7.163   8.716  0.0192 -0.1886  0.0091
  853MOL0     C15036   7.227   7.051   8.802 -0.6254 -0.2641 -0.4738
  853MOL0     N15037   7.339   6.999   8.730  1.2624  0.6551  0.4731
  853MOL0     C15038   7.383   6.871   8.760  0.1062  0.0339  0.4647
  853MOL0     C15039   7.497   6.853   8.696  0.1702  0.6655  0.0270
  853MOL0     C15040   7.583   6.729   8.685 -0.1538  0.2240 -0.2519
  853MOL0     C15041   7.734   6.756   8.728 -0.0343 -0.1197 -0.7515
  853MOL0     C15042   7.814   6.814   8.611  0.0818  0.0503 -0.7176
  853MOL0     C15043   7.949   6.862   8.657 -0.4863  0.0804  0.5342
  853MOL0     O15044   8.016   6.742   8.707 -0.1319 -0.1575  0.2385
  853MOL0     C15045   8.127   6.755   8.784  0.2159  0.6568 -0.0279
  853MOL0     C15046   8.182   6.632   8.819  0.0429 -0.3055 -0.1351
  853MOL0     C15047   8.305   6.629   8.896 -0.1834  0.0502  0.3105
  853MOL0     C15048   8.370   6.752   8.931  0.0038 -0.1432 -0.4362
  853MOL0     C15049   8.490   6.737   9.000 -0.2945 -0.7265 -0.4600
  853MOL0     O15050   8.510   6.624   9.075  0.6414 -0.6407 -0.1609
  853MOL0     C15051   8.629   6.619   9.151 -0.1471 -0.2805  0.6094
  853MOL0     C15052   8.756   6.661   9.114  0.0022 -0.3506 -0.5215
  853MOL0     C15053   8.863   6.638   9.199  0.0264 -0.5730  0.1109
  853MOL0     C15054   8.855   6.569   9.317  0.5884  0.6064  0.7025
  853MOL0     O15055   8.963   6.550   9.389  0.0539 -0.8005  0.1207
  853MOL0     C15056   8.964   6.455   9.503  0.0533 -0.7214 -0.1120
  853MOL0     C15057   9.099   6.411   9.557  0.2577 -0.1836  0.0861
  853MOL0     C15058   9.214   6.508   9.525 -0.4420 -0.0193  0.4316
  853MOL0     C15059   9.340   6.442   9.575 -0.5279 -0.7509  0.3485
  853MOL0     C15060   9.447   6.547   9.569 -0.6960 -0.4275  0.1722
  853MOL0     C15061   9.590   6.492   9.601 -0.0167  0.5726 -0.0502
  853MOL0     C15062   9.700   6.598   9.614 -0.2762  0.1687 -0.0580
  853MOL0     C15063   9.815   6.561   9.709  0.1721  0.6397 -0.5123
  853MOL0    Cl15064   9.902   6.417   9.649  0.0704 -0.0044  0.1350
  853MOL0     C15065   8.724   6.532   9.360 -0.3941 -0.0110  0.0773
  853MOL0     C15066   8.620   6.561   9.278 -0.3210 -0.2513  0.2434
  853MOL0     O15067   8.558   6.841   9.008 -0.0824  0.0491 -0.3693
  853MOL0     C15068   8.315   6.871   8.888  0.5194  0.5007  1.4321
  853MOL0     C15069   8.200   6.873   8.808  1.0698  0.2414  0.1472
  853MOL0     N15070   7.536   6.975   8.644  0.0683  0.0254 -0.2599
  853MOL0     N15071   7.442   7.069   8.666  0.4818 -0.6012  0.2022
  853MOL0     C15072   6.342   6.717   8.959 -0.5518  0.4673 -0.5637
  853MOL0     C15073   6.216   6.655   8.995 -0.1598  0.0761 -0.1475
  853MOL0     C15074   5.898   6.479   9.247 -0.6047  0.5093 -0.3827
  853MOL0     C15075   5.779   6.544   9.260  0.5271 -0.1551  0.3659
  853MOL0     C15076   5.652   6.491   9.299 -0.2838  0.5837  0.0814
  853MOL0     C15077   5.651   6.349   9.333  0.1399  1.1669 -0.5318
  853MOL0     O15078   5.544   6.281   9.387 -0.0149 -0.5631  0.0932
  853MOL0     C15079   5.428   6.298   9.307  0.2516  0.2668 -0.6746
  853MOL0     C15080   5.345   6.170   9.312  0.1214  1.5565 -0.4125
  853MOL0     C15081   5.403   6.046   9.232  0.3268  0.3611 -0.9412
  853MOL0     C15082   5.511   5.984   9.311 -0.2957 -1.1007 -0.2566
  853MOL0     C15083   5.529   5.849   9.255  0.0121 -0.4992 -0.1718
  853MOL0     C15084   5.545   5.735   9.214 -0.9887 -0.2905  0.0154
  853MOL0     C15085   5.773   6.278   9.332  0.2087 -0.1940 -0.9357
  853MOL0     C15086   5.894   6.340   9.286  0.1165 -0.6897  0.9488
  853MOL0     C15087   6.017   6.252   9.294 -0.0344  0.3551 -1.7557
  853MOL0     H15088   6.093   6.902   9.193  1.8245  2.2842 -0.1826
  853MOL0     H15089   6.319   6.995   9.138 -1.4152  1.2656 -0.1551
  853MOL0     H15090   6.440   7.090   9.003  1.1591  1.4248 -1.8153
  853MOL0     H15091   6.569   7.024   9.110  1.7838 -2.8867 -0.8870
  853MOL0     H15092   6.581   7.118   8.826  2.2063 -0.1507 -1.2852
  853MOL0     H15093   6.659   6.968   8.853  1.2318  1.2217 -0.1244
  853MOL0     H15094   6.799   7.052   9.026  0.3850  1.2025  3.0545
  853MOL0     H15095   6.743   7.217   8.999  0.1345 -0.9539  0.8199
  853MOL0     H15096   6.899   7.045   8.792 -0.3489  0.0662 -0.7128
  853MOL0     H15097   6.820   7.191   8.755  1.7322  0.2750 -0.4705
  853MOL0     H15098   6.945   7.296   8.947  1.0257  0.9507  0.3215
  853MOL0     H15099   7.037   7.150   8.968 -0.2663 -0.4096 -0.7179
  853MOL0     H15100   7.019   7.334   8.724 -1.0381 -1.9660 -0.4342
  853MOL0     H15101   7.150   7.341   8.842  1.3025 -1.0455 -1.0684
  853MOL0     H15102   7.245   7.213   8.668  1.8444 -1.8806  1.3328
  853MOL0     H15103   7.100   7.111   8.641  0.7531 -0.7387 -0.2064
  853MOL0     H15104   7.246   7.089   8.902 -0.7113 -1.3254 -0.0392
  853MOL0     H15105   7.158   6.975   8.839  0.0477  0.4682  2.5788
  853MOL0     H15106   7.327   6.807   8.827 -0.6621  2.0093  1.8122
  853MOL0     H15107   7.546   6.647   8.748 -1.2924  1.9843  1.4812
  853MOL0     H15108   7.575   6.710   8.577 -0.0543  1.5431 -0.5042
  853MOL0     H15109   7.741   6.822   8.815 -0.9886  0.0683 -0.8038
  853MOL0     H15110   7.775   6.664   8.770  3.3535  0.6174 -2.0838
  853MOL0     H15111   7.760   6.900   8.569 -0.6766  0.1001  0.3236
  853MOL0     H15112   7.840   6.738   8.537  2.9999 -1.1051  1.3167
  853MOL0     H15113   7.949   6.938   8.736 -0.2878  1.0905 -0.4171
  853MOL0     H15114   8.002   6.908   8.573 -1.1070 -1.0330 -0.4804
  853MOL0     H15115   8.132   6.544   8.780 -0.0999 -0.9089  1.3741
  853MOL0     H15116   8.341   6.534   8.935  1.3400  1.1242  1.6388
  853MOL0     H15117   8.773   6.691   9.011 -2.2101  0.9130 -0.5913
  853MOL0     H15118   8.960   6.679   9.172 -0.2062 -0.4535 -0.5822
  853MOL0     H15119   8.904   6.500   9.584  1.4374  0.0245  0.5249
  853MOL0     H15120   8.912   6.362   9.479  0.5252 -0.8034 -0.8238
  853MOL0     H15121   9.082   6.394   9.664 -2.1652 -2.8844 -0.5927
  853MOL0     H15122   9.112   6.304   9.539 -2.7271 -0.8984  1.5301
  853MOL0     H15123   9.203   6.538   9.420 -2.4300 -0.6068  0.4303
  853MOL0     H15124   9.202   6.596   9.589 -2.1487  0.6586 -0.7384
  853MOL0     H15125   9.359   6.350   9.519 -1.0136  0.2038 -1.4755
  853MOL0     H15126   9.331   6.430   9.683 -0.5017  4.6848  1.2147
  853MOL0     H15127   9.435   6.633   9.635 -0.1037 -1.5759  1.8654
  853MOL0     H15128   9.441   6.591   9.469  1.1524  1.0503  0.6688
  853MOL0     H15129   9.580   6.445   9.699 -4.2339 -1.1196 -1.0647
  853MOL0     H15130   9.612   6.424   9.518 -1.4806 -0.1962  0.1548
  853MOL0     H15131   9.651   6.695   9.627 -2.2026 -0.6454 -0.8836
  853MOL0     H15132   9.742   6.588   9.513 -1.2550 -3.5955 -0.2257
  853MOL0     H15133   9.877   6.649   9.726  0.4864  0.2377  0.5428
  853MOL0     H15134   9.792   6.540   9.814  2.6379 -0.0567 -0.0647
  853MOL0     H15135   8.713   6.488   9.458 -3.1548  2.2624  0.9518
  853MOL0     H15136   8.523   6.526   9.312  0.3148  0.1750  2.7123
  853MOL0     H15137   8.375   6.957   8.916  0.5259  0.8371  0.4426
  853MOL0     H15138   8.164   6.957   8.749 -0.9358 -1.9918 -2.0403
  853MOL0     H15139   6.409   6.662   8.893  1.5272 -0.0989  1.8497
  853MOL0     H15140   6.201   6.554   8.958 -2.0726 -0.4927  1.9683
  853MOL0     H15141   5.774   6.648   9.229  1.7502 -0.0429  0.4811
  853MOL0     H15142   5.572   6.564   9.293  1.0039  2.2435  1.9784
  853MOL0     H15143   5.443   6.317   9.200 -0.8944 -1.0827 -1.1119
  853MOL0     H15144   5.364   6.373   9.353 -2.7882 -3.7328  2.3201
  853MOL0     H15145   5.239   6.183   9.287 -0.3162 -0.8779 -0.0469
  853MOL0     H15146   5.333   6.130   9.413 -1.1687  0.0491 -1.1208
  853MOL0     H15147   5.434   6.089   9.136  0.1441  2.4913 -0.1026
  853MOL0     H15148   5.326   5.968   9.227 -0.2783  1.0090 -2.5035
  853MOL0     H15149   5.605   6.037   9.293 -0.0467 -1.7104 -0.7616
  853MOL0     H15150   5.496   5.979   9.420 -1.0890 -2.5792 -0.4044
  853MOL0     H15151   5.537   5.637   9.170  0.9518 -0.2405 -0.5419
  853MOL0     H15152   5.774   6.181   9.380  2.4063 -0.4549 -1.3860
  853MOL0     H15153   6.070   6.269   9.388 -1.7041 -0.7244 -0.5629
  853MOL0     H15154   6.005   6.144   9.291  3.3481 -0.2526  0.6732
  853MOL0     H15155   6.097   6.271   9.221  2.7913 -1.2108  0.7266
  854MOL0     O15156   9.231   4.276   9.604 -0.3762  0.1105 -0.0832
  854MOL0     C15157   9.238   4.397   9.617  0.0815 -1.2708 -0.3459
  854MOL0     O15158   9.285   4.491   9.524  0.2652  0.0774  1.8461
  854MOL0     C15159   9.349   4.467   9.405 -0.7074  0.7112 -0.0472
  854MOL0     C15160   9.395   4.575   9.330  0.6860  0.0964 -0.2605
  854MOL0     C15161   9.460   4.561   9.213 -0.4873  0.2055  0.5879
  854MOL0     C15162   9.492   4.437   9.156 -0.1403  1.3028  0.3866
  854MOL0     O15163   9.568   4.445   9.041  0.0640 -0.5520 -0.4093
  854MOL0     C15164   9.620   4.321   8.988 -1.0877  0.3383  0.0901
  854MOL0     C15165   9.716   4.361   8.867 -0.0570  0.2818  0.1553
  854MOL0     C15166   9.848   4.434   8.896  0.3803 -0.3462  0.2821
  854MOL0     C15167   9.922   4.389   9.027  0.1163  0.1681  0.2872
  854MOL0     C15168  10.051   4.471   9.048 -0.4619  0.5896  0.1826
  854MOL0     C15169  10.132   4.414   9.163 -0.1096  0.0730 -0.2349
  854MOL0     C15170  10.263   4.493   9.174 -0.3212  0.3862  0.0042
  854MOL0     C15171  10.369   4.453   9.061  0.0738 -0.7061  0.3620
  854MOL0     N15172  10.428   4.316   9.078 -0.0562  0.1901  0.0269
  854MOL0     C15173  10.523   4.271   9.168  0.6948 -0.1334  0.3169
  854MOL0     C15174  10.554   4.147   9.132 -0.4494 -0.0467 -0.2915
  854MOL0     C15175  10.632   4.047   9.221 -0.2808 -0.2521  0.1003
  854MOL0     C15176  10.634   4.093   9.371 -0.3384  0.2700  0.4400
  854MOL0     C15177  10.685   3.983   9.461  0.8925 -0.2633  0.2800
  854MOL0     C15178  10.840   3.967   9.467  0.2331  1.0789 -0.1986
  854MOL0     O15179  10.873   3.882   9.578 -0.2678  0.3773  0.6034
  854MOL0     C15180  10.879   3.933   9.698 -0.0571 -0.2907 -0.1268
  854MOL0     C15181  10.930   3.842   9.798 -0.1939 -0.9877  0.5420
  854MOL0     C15182  10.953   3.883   9.929 -0.0754 -0.7368  0.4467
  854MOL0     C15183  10.927   4.017   9.975  0.3243  0.2463  1.0831
  854MOL0     C15184  10.935   4.049  10.121  0.4212  0.6903 -1.0115
  854MOL0     O15185  10.862   4.159  10.155 -0.2459 -0.1373 -0.0011
  854MOL0     C15186  10.853   4.191  10.295  0.5164 -0.3959  0.1848
  854MOL0     C15187  10.731   4.173  10.364 -0.3553 -0.1734  0.0007
  854MOL0     C15188  10.727   4.183  10.501 -0.2761 -0.4203  0.7180
  854MOL0     C15189  10.841   4.215  10.571  1.3257  0.3943 -0.2748
  854MOL0     O15190  10.842   4.221  10.709 -0.9971 -0.4022  0.0269
  854MOL0     C15191  10.732   4.287  10.782 -0.3591  0.4794  0.4570
  854MOL0     C15192  10.791   4.363  10.908 -0.1270  0.6095 -0.0936
  854MOL0     C15193  10.680   4.442  10.972 -0.3090 -0.4478 -0.8860
  854MOL0     C15194  10.598   4.528  10.871 -0.7190  0.0117 -0.9105
  854MOL0     C15195  10.498   4.622  10.938  0.5321 -0.2674 -0.6888
  854MOL0     C15196  10.406   4.669  10.827 -0.7379 -0.4602 -0.5872
  854MOL0     C15197  10.319   4.793  10.861 -1.0706 -0.3075 -0.5496
  854MOL0     C15198  10.256   4.852  10.732  1.0170  0.4360  0.3984
  854MOL0    Cl15199  10.176   4.742  10.626  0.2044  0.0386  0.0081
  854MOL0     C15200  10.964   4.225  10.506 -0.7421  0.9107 -0.2779
  854MOL0     C15201  10.973   4.212  10.366  0.4657  0.8847 -0.2643
  854MOL0     O15202  11.000   3.973  10.202 -0.2645  0.3567  0.1329
  854MOL0     C15203  10.871   4.103   9.879  0.1033  0.0189 -0.2080
  854MOL0     C15204  10.843   4.056   9.748  0.2950 -0.9570 -0.9854
  854MOL0     N15205  10.492   4.119   9.018 -0.4250 -1.0151 -0.2947
  854MOL0     N15206  10.405   4.215   8.991 -0.1366 -0.8459 -0.4027
  854MOL0     C15207   9.461   4.327   9.236  0.3147  0.1657 -0.0333
  854MOL0     C15208   9.387   4.343   9.360  0.4583  0.8707  0.6812
  854MOL0     C15209   9.193   4.450   9.749  0.9789 -0.0097  0.5764
  854MOL0     C15210   9.267   4.548   9.812 -0.1433  0.4316 -0.9086
  854MOL0     C15211   9.223   4.604   9.937  0.1799 -0.3366 -0.1763
  854MOL0     C15212   9.097   4.555   9.996 -0.8284  0.8599  0.2963
  854MOL0     O15213   9.043   4.592  10.113  0.1629 -0.2355 -0.0947
  854MOL0     C15214   9.095   4.702  10.185  0.1867 -0.3674 -0.4023
  854MOL0     C15215   8.999   4.739  10.290 -0.3044 -0.3538  0.3286
  854MOL0     C15216   8.875   4.816  10.235  0.5267  0.5314 -0.4123
  854MOL0     C15217   8.783   4.843  10.347 -0.1791  0.4270  0.0286
  854MOL0     C15218   8.834   4.932  10.455 -0.2824  0.3341  0.7541
  854MOL0     C15219   8.878   5.015  10.532 -0.0763  0.1618  0.1009
  854MOL0     C15220   9.030   4.454   9.931 -0.0013 -0.5452  0.5055
  854MOL0     C15221   9.075   4.400   9.806  0.1623  0.7721 -0.5148
  854MOL0     C15222   8.980   4.305   9.739 -0.3257  0.4756 -0.8532
  854MOL0     H15223   9.383   4.674   9.374  0.1611 -0.9226  2.0439
  854MOL0     H15224   9.488   4.652   9.160  4.6217 -1.0816  0.5055
  854MOL0     H15225   9.676   4.272   9.069  0.9642  1.0088 -0.8548
  854MOL0     H15226   9.539   4.252   8.963  0.9958 -2.9532  1.7527
  854MOL0     H15227   9.665   4.426   8.795 -2.4168 -1.7643 -0.1777
  854MOL0     H15228   9.741   4.268   8.816  0.4909  0.2173  0.5304
  854MOL0     H15229   9.838   4.542   8.906  0.9131 -0.3815  1.3609
  854MOL0     H15230   9.916   4.409   8.813  1.2612 -2.2413  1.5083
  854MOL0     H15231   9.860   4.401   9.117  2.7032  1.5166  2.0294
  854MOL0     H15232   9.953   4.286   9.010  1.1630  0.7429 -1.6002
  854MOL0     H15233  10.113   4.454   8.959  2.1757 -3.6954  2.4661
  854MOL0     H15234  10.030   4.577   9.058 -0.7136  0.5723 -0.1291
  854MOL0     H15235  10.071   4.432   9.252  2.0910  0.2859  1.3111
  854MOL0     H15236  10.141   4.306   9.152  0.1025  0.0541  0.0821
  854MOL0     H15237  10.317   4.472   9.266 -0.8723 -1.2070 -0.0064
  854MOL0     H15238  10.250   4.602   9.174  0.6091  0.5249 -1.3972
  854MOL0     H15239  10.312   4.451   8.967 -1.4359  2.1066  1.0789
  854MOL0     H15240  10.446   4.531   9.063  0.4544 -1.0832  0.3609
  854MOL0     H15241  10.565   4.326   9.252  1.3217 -1.9801  1.2980
  854MOL0     H15242  10.585   3.949   9.208  0.3779 -0.5062 -0.4037
  854MOL0     H15243  10.736   4.041   9.186  0.9407  1.6566  2.9963
  854MOL0     H15244  10.693   4.182   9.394  0.0811  0.7293 -2.1041
  854MOL0     H15245  10.532   4.123   9.398 -0.6408  1.7174 -2.0621
  854MOL0     H15246  10.643   3.893   9.416 -1.0569  0.0886  1.2696
  854MOL0     H15247  10.643   4.005   9.560 -0.4719  0.0092 -0.3409
  854MOL0     H15248  10.876   4.068   9.488 -1.8881  1.6884  0.6833
  854MOL0     H15249  10.880   3.917   9.378 -2.3639 -3.7361  0.9657
  854MOL0     H15250  10.942   3.739   9.768 -0.6162 -0.9833  0.3457
  854MOL0     H15251  11.006   3.812   9.992  2.6730  1.9976  1.4771
  854MOL0     H15252  10.642   4.150  10.305 -0.2146 -2.9089  0.7217
  854MOL0     H15253  10.632   4.176  10.553 -1.0928 -1.2304 -0.8249
  854MOL0     H15254  10.684   4.360  10.716 -0.4465  0.0551  0.0444
  854MOL0     H15255  10.659   4.211  10.812  2.7286 -2.2875  1.4273
  854MOL0     H15256  10.832   4.291  10.979 -0.7548 -0.1748 -0.5101
  854MOL0     H15257  10.869   4.434  10.876 -0.7102  0.1324 -2.8541
  854MOL0     H15258  10.622   4.364  11.023  0.1457 -0.0376  0.2734
  854MOL0     H15259  10.711   4.503  11.056 -2.8056  0.7966 -0.7551
  854MOL0     H15260  10.545   4.457  10.807 -1.2666 -1.3754  1.0042
  854MOL0     H15261  10.674   4.583  10.814  2.1951 -3.3745 -0.6511
  854MOL0     H15262  10.549   4.711  10.976 -0.8971 -0.3426  1.6088
  854MOL0     H15263  10.429   4.583  11.013  1.8562  2.9808  2.5110
  854MOL0     H15264  10.474   4.702  10.749  3.2200 -0.9308  2.3151
  854MOL0     H15265  10.351   4.585  10.784  0.3865 -0.4163 -2.1931
  854MOL0     H15266  10.368   4.872  10.918 -0.6066  2.1879 -4.0504
  854MOL0     H15267  10.237   4.765  10.928  0.3284  0.3503  1.5445
  854MOL0     H15268  10.186   4.932  10.754  1.5587  1.0203  0.0438
  854MOL0     H15269  10.335   4.908  10.681  1.6330  0.2139  1.0865
  854MOL0     H15270  11.051   4.235  10.570 -1.8104 -1.6672  1.7674
  854MOL0     H15271  11.073   4.210  10.323  0.8352  0.5061  0.5937
  854MOL0     H15272  10.840   4.204   9.902 -1.8756  0.0225 -2.5738
  854MOL0     H15273  10.798   4.135   9.689 -5.3916 -1.7349  1.7008
  854MOL0     H15274   9.501   4.230   9.211 -0.3989 -0.0444 -0.3613
  854MOL0     H15275   9.373   4.243   9.399  3.2352 -1.2349 -3.0222
  854MOL0     H15276   9.355   4.583   9.760  0.0960  0.0536 -0.7635
  854MOL0     H15277   9.278   4.678   9.994 -0.9082 -1.1715  2.0871
  854MOL0     H15278   9.117   4.786  10.117  0.9419  1.1252  1.5776
  854MOL0     H15279   9.192   4.683  10.232 -0.6161  0.2304  1.5987
  854MOL0     H15280   9.038   4.822  10.350 -1.3844  1.2100 -1.0444
  854MOL0     H15281   8.971   4.650  10.348  0.4081 -0.4178  0.5821
  854MOL0     H15282   8.817   4.752  10.169  0.6673  0.9448 -0.9394
  854MOL0     H15283   8.906   4.907  10.183 -0.2730 -0.5433 -2.8926
  854MOL0     H15284   8.685   4.883  10.319 -0.9833 -0.3838  1.5913
  854MOL0     H15285   8.758   4.749  10.396  0.1466 -0.1996 -0.9729
  854MOL0     H15286   8.906   5.101  10.590  2.3757 -1.1613  1.0656
  854MOL0     H15287   8.939   4.422   9.982  0.1833  0.1665  1.3114
  854MOL0     H15288   8.974   4.328   9.632  0.9823  0.9201 -0.8481
  854MOL0     H15289   9.013   4.202   9.749 -3.0565 -0.4107 -0.0223
  854MOL0     H15290   8.879   4.312   9.781 -0.5194  0.1823 -1.2563
  855MOL0     O15291   1.466   6.473   5.982 -0.2572 -0.0980  0.4265
  855MOL0     C15292   1.467   6.359   6.030 -0.5689  0.2389  0.0826
  855MOL0     O15293   1.575   6.285   6.069 -0.3447 -0.1408  0.0938
  855MOL0     C15294   1.699   6.344   6.085 -0.4254  1.3827 -0.2833
  855MOL0     C15295   1.726   6.479   6.121  0.2518 -0.6090  0.2177
  855MOL0     C15296   1.853   6.526   6.138 -0.2510 -0.2320  0.0698
  855MOL0     C15297   1.963   6.439   6.140  0.3182  0.7330  0.4180
  855MOL0     O15298   2.093   6.474   6.165 -0.5012 -0.3858  0.0667
  855MOL0     C15299   2.125   6.602   6.227 -0.5043  0.4413  0.4764
  855MOL0     C15300   2.267   6.625   6.268 -1.0565  0.0187 -0.0854
  855MOL0     C15301   2.364   6.590   6.159 -0.5373 -0.3085 -0.1703
  855MOL0     C15302   2.421   6.451   6.169  0.1484 -0.3650  0.2321
  855MOL0     C15303   2.508   6.416   6.041 -0.0811 -0.4892  0.5189
  855MOL0     C15304   2.559   6.271   6.058  0.1327  0.1370  0.4852
  855MOL0     C15305   2.642   6.229   5.938 -0.0134  0.4048  0.1249
  855MOL0     C15306   2.562   6.203   5.805 -1.1183  0.2316 -1.3006
  855MOL0     N15307   2.460   6.099   5.800 -1.0709 -0.2732 -0.7914
  855MOL0     C15308   2.478   5.968   5.849 -0.8132 -0.0676 -0.6124
  855MOL0     C15309   2.357   5.908   5.845 -1.2363 -0.8118 -0.4035
  855MOL0     C15310   2.353   5.761   5.880  0.8798 -0.6564 -1.8079
  855MOL0     C15311   2.217   5.738   5.952  0.5009  0.2607 -0.7191
  855MOL0     C15312   2.181   5.598   6.013  0.9152 -0.7739  0.2052
  855MOL0     C15313   2.034   5.567   6.032 -0.2319  0.2637 -0.7762
  855MOL0     O15314   1.978   5.651   6.133  0.9441  0.8271  0.1240
  855MOL0     C15315   1.842   5.644   6.153 -0.6319 -0.1586  0.0300
  855MOL0     C15316   1.754   5.536   6.125  0.1136 -0.1122 -0.0288
  855MOL0     C15317   1.618   5.552   6.148 -0.2309 -1.2752 -0.4590
  855MOL0     C15318   1.569   5.678   6.199  0.1261 -0.5996 -0.4503
  855MOL0     C15319   1.419   5.684   6.236 -0.3208 -1.4451 -0.4753
  855MOL0     O15320   1.385   5.788   6.322  0.5346 -0.3782 -0.4162
  855MOL0     C15321   1.253   5.806   6.370 -0.7724  0.6586 -0.2534
  855MOL0     C15322   1.154   5.705   6.386  0.0712 -0.5012  0.8639
  855MOL0     C15323   1.024   5.729   6.421  0.3783 -0.4275  0.4093
  855MOL0     C15324   0.981   5.856   6.459 -0.6030 -0.0676 -0.2980
  855MOL0     O15325   0.856   5.886   6.488  0.2529 -0.2199 -0.4223
  855MOL0     C15326   0.758   5.781   6.486 -0.0527  0.0198 -0.6124
  855MOL0     C15327   0.629   5.845   6.443  0.7286  0.0896 -0.7084
  855MOL0     C15328   0.583   5.964   6.517  1.0814 -0.4757 -0.1966
  855MOL0     C15329   0.437   5.994   6.490 -0.2663  0.4926  0.1513
  855MOL0     C15330   0.418   6.146   6.476  0.0264 -0.1743  0.3299
  855MOL0     C15331   0.269   6.175   6.449 -0.1173  0.2931 -0.6797
  855MOL0     C15332   0.245   6.313   6.378  0.0055  0.2941 -0.5023
  855MOL0     C15333   0.098   6.362   6.388  0.1473 -0.3672 -0.0823
  855MOL0    Cl15334   0.046   6.376   6.557 -0.6370 -0.2204  0.4905
  855MOL0     C15335   1.074   5.961   6.443 -0.7307 -0.9076  0.0606
  855MOL0     C15336   1.208   5.934   6.395  0.0988  0.2589  0.5865
  855MOL0     O15337   1.338   5.598   6.190 -0.2858 -0.6315  0.7959
  855MOL0     C15338   1.659   5.783   6.213  0.3535 -0.2355 -0.4507
  855MOL0     C15339   1.794   5.765   6.193  0.1187  0.1733  0.2348
  855MOL0     N15340   2.265   6.000   5.793  0.2994  0.4680 -0.0845
  855MOL0     N15341   2.324   6.109   5.770  0.4802 -0.9469  0.2863
  855MOL0     C15342   1.931   6.301   6.122  1.0836  0.3053  0.9167
  855MOL0     C15343   1.803   6.251   6.088  0.4125  0.5193  0.1894
  855MOL0     C15344   1.348   6.278   6.033  0.7719 -0.5303  0.6251
  855MOL0     C15345   1.225   6.342   6.000 -0.1856 -0.0874 -0.2961
  855MOL0     C15346   1.101   6.269   6.001  0.2886 -0.9175 -0.0255
  855MOL0     C15347   1.090   6.144   6.035  0.4375 -0.1004 -0.7647
  855MOL0     O15348   0.974   6.080   6.020  1.0318 -0.3686 -0.4801
  855MOL0     C15349   0.908   6.038   6.147 -0.0226 -0.3438 -0.0648
  855MOL0     C15350   0.783   6.122   6.175 -0.3562 -0.7286  0.2021
  855MOL0     C15351   0.687   6.087   6.060 -0.2459  1.4428  0.3105
  855MOL0     C15352   0.544   6.123   6.094  0.0807 -0.2960 -0.1547
  855MOL0     C15353   0.520   6.270   6.077  0.5128  0.0928  0.4395
  855MOL0     C15354   0.511   6.391   6.059  0.3695 -0.1456 -0.3547
  855MOL0     C15355   1.205   6.074   6.076  0.6516  0.4365 -0.1725
  855MOL0     C15356   1.332   6.133   6.066  0.4392  0.0644 -0.2951
  855MOL0     C15357   1.454   6.040   6.087  1.2772  0.1768  0.3933
  855MOL0     H15358   1.645   6.552   6.117  1.3892  0.7994  1.3968
  855MOL0     H15359   1.869   6.633   6.150 -0.3046 -0.3623  1.5122
  855MOL0     H15360   2.109   6.678   6.150 -1.1366  0.2915  0.4578
  855MOL0     H15361   2.061   6.614   6.315 -2.3336 -0.0600 -0.7372
  855MOL0     H15362   2.299   6.584   6.364  1.5484  0.7561 -0.5633
  855MOL0     H15363   2.287   6.731   6.283  0.9159 -0.3635  0.2225
  855MOL0     H15364   2.453   6.653   6.156  0.2332 -1.3169 -4.2322
  855MOL0     H15365   2.318   6.612   6.062  1.7076  0.8052 -1.0440
  855MOL0     H15366   2.480   6.444   6.261 -0.4434 -2.1306  0.5150
  855MOL0     H15367   2.338   6.380   6.159 -0.5837  0.7475 -2.1404
  855MOL0     H15368   2.443   6.439   5.956  1.1920 -0.6551 -0.5194
  855MOL0     H15369   2.596   6.479   6.050  0.6053 -1.5329  1.4003
  855MOL0     H15370   2.622   6.262   6.147  0.1772 -0.4392  0.3950
  855MOL0     H15371   2.470   6.208   6.067 -0.3222  0.3545 -1.7277
  855MOL0     H15372   2.694   6.135   5.960 -0.3635  0.3318  0.6613
  855MOL0     H15373   2.724   6.299   5.919  0.7607 -1.1600 -3.0701
  855MOL0     H15374   2.530   6.298   5.763 -0.9066 -0.4619 -3.1037
  855MOL0     H15375   2.643   6.174   5.736  1.1872  0.5571  1.0926
  855MOL0     H15376   2.568   5.920   5.887 -0.0666  1.4953 -0.3130
  855MOL0     H15377   2.375   5.693   5.797  2.5741  0.0440 -1.9769
  855MOL0     H15378   2.430   5.740   5.955 -1.6400 -1.4138  0.7531
  855MOL0     H15379   2.204   5.803   6.039 -4.1755  0.4494 -1.3182
  855MOL0     H15380   2.143   5.760   5.875  2.4707  3.7254 -1.8286
  855MOL0     H15381   2.232   5.606   6.109  0.0406  0.3107  0.5908
  855MOL0     H15382   2.236   5.525   5.953  2.6462 -0.2454  1.0770
  855MOL0     H15383   2.026   5.466   6.073 -1.3523  0.9322  0.7602
  855MOL0     H15384   1.977   5.567   5.939  1.7676 -1.2003 -2.0689
  855MOL0     H15385   1.779   5.442   6.077 -1.2808 -2.0271  2.7390
  855MOL0     H15386   1.560   5.463   6.127  2.3480 -3.3402  0.5173
  855MOL0     H15387   1.180   5.603   6.359 -2.5191 -0.3515 -3.0742
  855MOL0     H15388   0.960   5.641   6.425  2.1668 -1.7700  2.9507
  855MOL0     H15389   0.773   5.703   6.410 -0.1015  0.1502 -0.7555
  855MOL0     H15390   0.733   5.738   6.583  2.5179  0.6955  0.4292
  855MOL0     H15391   0.633   5.864   6.335  1.4333 -2.8153 -1.2862
  855MOL0     H15392   0.557   5.763   6.449 -0.0009  0.7299 -0.7032
  855MOL0     H15393   0.581   5.932   6.621  0.4427 -3.2402 -0.9767
  855MOL0     H15394   0.642   6.055   6.498  1.4188 -0.8777 -1.1150
  855MOL0     H15395   0.379   5.961   6.577  1.8012 -0.2474  1.3247
  855MOL0     H15396   0.407   5.945   6.396  1.2706 -0.4831  0.1421
  855MOL0     H15397   0.482   6.185   6.396 -1.0980 -0.3162 -0.6641
  855MOL0     H15398   0.450   6.199   6.566 -0.3516 -0.8997  0.9074
  855MOL0     H15399   0.226   6.099   6.384  0.0061 -1.6053  1.3425
  855MOL0     H15400   0.210   6.164   6.541  1.3940 -5.1052 -0.0127
  855MOL0     H15401   0.278   6.296   6.275 -0.6430  0.6909 -0.7841
  855MOL0     H15402   0.322   6.379   6.418  3.1039 -2.4082 -1.5114
  855MOL0     H15403   0.090   6.458   6.337  1.2479  0.9323  2.0654
  855MOL0     H15404   0.035   6.289   6.336  1.1748 -2.2740  1.2358
  855MOL0     H15405   1.052   6.067   6.449 -0.6206 -0.7835 -1.4855
  855MOL0     H15406   1.274   6.017   6.371 -2.3187  2.7001  1.6987
  855MOL0     H15407   1.629   5.885   6.235  0.2783 -0.3862  0.1761
  855MOL0     H15408   1.866   5.845   6.210  3.9077 -3.4605  3.8308
  855MOL0     H15409   2.015   6.234   6.133  2.5054  2.0329  0.9612
  855MOL0     H15410   1.793   6.145   6.067 -0.8571  0.6811 -0.0850
  855MOL0     H15411   1.228   6.445   5.969  0.4833  0.3841  1.2277
  855MOL0     H15412   1.011   6.319   5.966  0.2159 -0.6820  0.4816
  855MOL0     H15413   0.979   6.050   6.230 -1.3665 -0.8023  1.1937
  855MOL0     H15414   0.880   5.932   6.140  1.1364 -0.6131 -0.9772
  855MOL0     H15415   0.821   6.224   6.167  1.5376 -1.2506  1.8276
  855MOL0     H15416   0.752   6.097   6.277  1.9525 -0.9445  0.9016
  855MOL0     H15417   0.692   5.982   6.030  0.1179  1.3007  0.8773
  855MOL0     H15418   0.719   6.136   5.967 -0.9519 -0.6363 -1.1107
  855MOL0     H15419   0.483   6.063   6.026 -0.0624 -1.3545  0.8627
  855MOL0     H15420   0.506   6.085   6.189 -0.1295  4.0802  1.7643
  855MOL0     H15421   0.520   6.496   6.042  1.3279  0.1940  1.9034
  855MOL0     H15422   1.204   5.973   6.115  1.0735 -1.2033 -4.0380
  855MOL0     H15423   1.528   6.060   6.009 -0.5552  2.9858 -0.8053
  855MOL0     H15424   1.489   6.067   6.187  1.1047  0.2599  0.4317
  855MOL0     H15425   1.430   5.934   6.102 -1.4516  0.9301  2.3878
  856MOL0     O15426   2.158   4.119   1.764 -0.1356  0.3260  0.4537
  856MOL0     C15427   2.263   4.054   1.752  0.5797 -0.7301 -0.3490
  856MOL0     O15428   2.370   4.088   1.671  0.2113  0.0550 -0.9390
  856MOL0     C15429   2.396   4.212   1.629 -0.2781  0.5676 -0.1467
  856MOL0     C15430   2.328   4.327   1.659  0.0283 -0.6181  0.0178
  856MOL0     C15431   2.379   4.454   1.623 -0.3691  0.2905  0.1702
  856MOL0     C15432   2.496   4.462   1.552  0.0122  0.0253 -0.1906
  856MOL0     O15433   2.563   4.572   1.507  0.1605 -0.4807 -0.2381
  856MOL0     C15434   2.519   4.702   1.539 -0.1128 -0.3427 -0.6545
  856MOL0     C15435   2.594   4.806   1.456  1.3535  0.2866  0.6037
  856MOL0     C15436   2.554   4.787   1.304 -0.4834  0.8278 -0.4740
  856MOL0     C15437   2.595   4.903   1.224 -0.5546 -0.2236  0.2393
  856MOL0     C15438   2.547   4.883   1.087 -0.0707 -0.0128  0.4943
  856MOL0     C15439   2.572   5.006   0.998  0.3445  0.1822  0.2741
  856MOL0     C15440   2.520   4.990   0.857 -1.2672 -0.0278 -0.6565
  856MOL0     C15441   2.516   5.123   0.775  0.0571  0.6663  0.0219
  856MOL0     N15442   2.645   5.156   0.713 -0.9186 -0.5993 -0.2834
  856MOL0     C15443   2.667   5.155   0.576  0.9154 -0.0946  0.0513
  856MOL0     C15444   2.777   5.230   0.553  0.0690  1.1404 -0.6714
  856MOL0     C15445   2.846   5.247   0.418  0.2565  0.1766 -0.6127
  856MOL0     C15446   2.948   5.136   0.391 -0.8376 -0.3520  0.4961
  856MOL0     C15447   3.019   5.159   0.265 -0.2282 -0.3667  0.1551
  856MOL0     C15448   3.078   5.033   0.211  0.0135  1.2727  0.5036
  856MOL0     O15449   3.165   5.080   0.104 -0.7761  0.6860  0.0768
  856MOL0     C15450   3.230   4.992   0.023  0.4292  0.0156 -0.4621
  856MOL0     C15451   3.288   5.043  -0.094  0.7386  0.3634 -0.4321
  856MOL0     C15452   3.348   4.954  -0.179  0.4995  0.6322  0.2676
  856MOL0     C15453   3.354   4.811  -0.147  0.6434  0.2730 -0.3429
  856MOL0     C15454   3.415   4.716  -0.247 -0.4692 -0.0748 -0.5772
  856MOL0     O15455   3.490   4.768  -0.342 -0.2227 -0.3480  0.3286
  856MOL0     C15456   3.548   4.688  -0.436  1.2625  0.6228  0.6671
  856MOL0     C15457   3.517   4.551  -0.462  0.7437  0.2110  0.2106
  856MOL0     C15458   3.586   4.476  -0.562  0.4939 -0.0960 -1.3364
  856MOL0     C15459   3.680   4.533  -0.643 -0.0106  0.4981  0.4869
  856MOL0     O15460   3.722   4.454  -0.759  0.5206 -0.3226 -0.0267
  856MOL0     C15461   3.864   4.441  -0.779 -0.2743  0.2578  0.2659
  856MOL0     C15462   3.887   4.413  -0.920 -0.0639  0.3292  0.4385
  856MOL0     C15463   4.028   4.354  -0.962 -0.0229 -0.5511 -0.0252
  856MOL0     C15464   4.139   4.457  -0.928 -0.4692 -0.5549  0.5466
  856MOL0     C15465   4.283   4.403  -0.957  0.3908 -0.8863 -0.7861
  856MOL0     C15466   4.307   4.387  -1.096  0.4289 -0.5066 -0.3508
  856MOL0     C15467   4.445   4.343  -1.135  0.4371  0.1358  0.2700
  856MOL0     C15468   4.462   4.327  -1.292 -0.4773  0.1711  0.3350
  856MOL0    Cl15469   4.383   4.191  -1.352  0.0791  0.2631 -0.4359
  856MOL0     C15470   3.710   4.670  -0.630  0.4744 -1.3568  0.5398
  856MOL0     C15471   3.651   4.745  -0.522 -0.0863 -0.3231 -1.0672
  856MOL0     O15472   3.424   4.600  -0.205  0.9485  0.0235  0.2633
  856MOL0     C15473   3.294   4.761  -0.027  0.4057 -0.3686  0.0508
  856MOL0     C15474   3.225   4.848   0.057 -1.2394 -0.7092  0.8096
  856MOL0     N15475   2.825   5.274   0.671  0.0491  0.1654  0.2194
  856MOL0     N15476   2.746   5.238   0.766  0.3654  0.2803 -0.2186
  856MOL0     C15477   2.563   4.347   1.512  0.1870  0.8297 -0.1084
  856MOL0     C15478   2.512   4.218   1.549  0.1908  0.8131 -0.2727
  856MOL0     C15479   2.265   3.923   1.814  0.2739  0.9313 -1.0138
  856MOL0     C15480   2.341   3.818   1.756  0.4168 -0.0848 -0.3403
  856MOL0     C15481   2.344   3.690   1.812 -1.0313  0.0315  0.0069
  856MOL0     C15482   2.272   3.654   1.924 -0.4283  0.0153  0.6913
  856MOL0     O15483   2.292   3.517   1.959  0.9772 -0.3592  0.7893
  856MOL0     C15484   2.238   3.465   2.081  0.1968 -0.3415 -0.2982
  856MOL0     C15485   2.092   3.428   2.082  0.0893  0.3840  0.6074
  856MOL0     C15486   2.057   3.295   2.009 -1.0725 -0.9521  0.0782
  856MOL0     C15487   1.905   3.275   1.979  0.4068 -0.1692  0.6202
  856MOL0     C15488   1.820   3.251   2.091  0.1408  0.2752  0.2412
  856MOL0     C15489   1.763   3.214   2.190  0.4607 -0.1664 -0.1076
  856MOL0     C15490   2.193   3.748   1.985  0.7968  0.4822  0.1985
  856MOL0     C15491   2.191   3.884   1.927  0.7737 -0.0940  0.3309
  856MOL0     C15492   2.114   3.982   2.018  0.1523 -1.1273 -0.2595
  856MOL0     H15493   2.250   4.339   1.734 -0.6760 -1.4475 -0.5801
  856MOL0     H15494   2.325   4.543   1.656 -1.4567 -0.3393  0.1132
  856MOL0     H15495   2.411   4.714   1.522 -0.7151 -2.5222  1.0592
  856MOL0     H15496   2.540   4.718   1.645 -1.5818 -0.0479 -0.3770
  856MOL0     H15497   2.701   4.785   1.468  1.2496 -0.5617  0.1546
  856MOL0     H15498   2.570   4.905   1.495  0.3175  0.1355  0.3766
  856MOL0     H15499   2.447   4.766   1.294 -0.6284  2.0990 -1.9050
  856MOL0     H15500   2.611   4.699   1.273  1.0567  1.2848  0.9409
  856MOL0     H15501   2.550   4.995   1.263 -1.0304  1.1051 -3.0959
  856MOL0     H15502   2.704   4.917   1.227 -0.7288  1.2696  1.8454
  856MOL0     H15503   2.587   4.794   1.037 -3.7233 -1.0821 -0.8748
  856MOL0     H15504   2.440   4.861   1.080 -0.1924  0.6623  0.2217
  856MOL0     H15505   2.510   5.088   1.036  0.1263  1.1925 -2.1096
  856MOL0     H15506   2.676   5.038   0.997  0.3492  0.3284 -2.6669
  856MOL0     H15507   2.416   4.957   0.867 -0.3316 -2.9832  0.2766
  856MOL0     H15508   2.589   4.919   0.812  1.1190  1.0090  1.1875
  856MOL0     H15509   2.445   5.119   0.691  0.8523  0.3552 -0.6492
  856MOL0     H15510   2.476   5.207   0.832 -0.6174  1.0235 -0.9374
  856MOL0     H15511   2.611   5.113   0.493  4.2263 -0.4097 -2.1877
  856MOL0     H15512   2.774   5.259   0.336 -2.1159  0.9571  1.4626
  856MOL0     H15513   2.911   5.335   0.426  2.4870 -1.0108 -3.7629
  856MOL0     H15514   3.022   5.158   0.468  0.0305  2.4193 -1.0142
  856MOL0     H15515   2.912   5.032   0.393 -1.2981 -0.5424 -4.8981
  856MOL0     H15516   3.101   5.225   0.296  1.2665 -2.6237  1.2785
  856MOL0     H15517   2.946   5.210   0.202  1.2826  3.7577  1.4108
  856MOL0     H15518   2.999   4.970   0.168  3.5010 -2.6292 -0.8853
  856MOL0     H15519   3.138   4.977   0.283  0.8569  1.3067 -0.1467
  856MOL0     H15520   3.270   5.144  -0.130  3.2482  0.0412 -2.9202
  856MOL0     H15521   3.395   4.974  -0.275 -1.9164 -3.7079 -2.1406
  856MOL0     H15522   3.445   4.490  -0.408  1.2139 -1.1825 -0.6920
  856MOL0     H15523   3.539   4.384  -0.596 -1.8969  1.3188 -2.1363
  856MOL0     H15524   3.910   4.537  -0.755 -1.4709  1.0818 -0.6197
  856MOL0     H15525   3.912   4.369  -0.712 -1.5803 -0.0380  0.9134
  856MOL0     H15526   3.802   4.352  -0.952  0.1284 -0.0846  0.7120
  856MOL0     H15527   3.879   4.512  -0.967 -1.5715  1.1278  2.2333
  856MOL0     H15528   4.052   4.271  -0.895  0.0153 -0.5669 -0.0585
  856MOL0     H15529   4.024   4.328  -1.068  0.6273  1.6089 -0.6301
  856MOL0     H15530   4.126   4.466  -0.820  0.1169 -0.6658  0.6253
  856MOL0     H15531   4.112   4.557  -0.962  0.5025  0.9179  3.6968
  856MOL0     H15532   4.296   4.305  -0.911 -0.0488 -0.1881  0.9007
  856MOL0     H15533   4.349   4.469  -0.901 -1.6162 -0.6538  1.4513
  856MOL0     H15534   4.232   4.318  -1.134 -0.7507  1.5179 -1.8992
  856MOL0     H15535   4.278   4.482  -1.141 -1.1175  0.9532  3.3194
  856MOL0     H15536   4.474   4.247  -1.091 -1.3496 -0.8601 -0.6094
  856MOL0     H15537   4.519   4.408  -1.088  0.5722  0.1899 -0.0151
  856MOL0     H15538   4.438   4.424  -1.336 -0.0577  0.6730  1.2008
  856MOL0     H15539   4.568   4.308  -1.308 -0.7326 -1.9293  0.8333
  856MOL0     H15540   3.787   4.719  -0.688  0.4344 -1.0101  0.7771
  856MOL0     H15541   3.678   4.849  -0.503 -2.6953 -0.1053  2.6175
  856MOL0     H15542   3.305   4.655  -0.006  0.1982 -0.7190 -1.4876
  856MOL0     H15543   3.177   4.796   0.139 -1.2784 -3.2861 -0.7393
  856MOL0     H15544   2.651   4.349   1.448  0.6441  2.3538  0.5061
  856MOL0     H15545   2.559   4.126   1.518 -0.8513  1.6629 -5.2680
  856MOL0     H15546   2.393   3.834   1.662 -0.2271 -3.4634 -1.4193
  856MOL0     H15547   2.398   3.613   1.757 -1.6386  0.2295 -0.8834
  856MOL0     H15548   2.255   3.535   2.163  0.2469 -1.1488  0.3901
  856MOL0     H15549   2.306   3.384   2.109  2.1364  0.7623 -1.6186
  856MOL0     H15550   2.048   3.513   2.027 -2.4692  0.1674  2.1483
  856MOL0     H15551   2.048   3.425   2.182  0.7438 -0.1794  0.8870
  856MOL0     H15552   2.095   3.215   2.073 -3.0323 -1.6608  0.4167
  856MOL0     H15553   2.107   3.304   1.911 -0.6832 -1.7996  0.1888
  856MOL0     H15554   1.863   3.356   1.919 -2.1264 -1.2881  0.7697
  856MOL0     H15555   1.902   3.181   1.924 -4.9564  1.2189 -2.1577
  856MOL0     H15556   1.712   3.162   2.268 -1.1047 -0.4838 -1.2982
  856MOL0     H15557   2.148   3.719   2.080 -0.2562 -1.0910 -0.7277
  856MOL0     H15558   2.185   4.036   2.080 -0.8070 -1.2307  0.9768
  856MOL0     H15559   2.051   4.055   1.967  1.5346  0.6559  0.5145
  856MOL0     H15560   2.051   3.925   2.088  0.2845  0.3183  1.0897
  857MOL0     O15561   1.975   0.741   7.688 -0.3425  0.1110  0.0134
  857MOL0     C15562   1.931   0.672   7.782  0.6940 -0.7512  0.3413
  857MOL0     O15563   1.989   0.647   7.897 -0.1338 -0.8220 -0.1785
  857MOL0     C15564   2.099   0.711   7.940  0.5458  0.7967 -0.2090
  857MOL0     C15565   2.129   0.848   7.924 -0.4007 -0.0334 -0.0144
  857MOL0     C15566   2.251   0.900   7.970  0.8343 -0.1514 -1.0310
  857MOL0     C15567   2.343   0.818   8.029 -0.4218 -0.0147 -0.3372
  857MOL0     O15568   2.472   0.861   8.058  0.1596 -0.1297  0.0183
  857MOL0     C15569   2.502   0.879   8.199 -0.4193  0.2482  0.1199
  857MOL0     C15570   2.618   0.780   8.228 -0.3711  0.4254  0.3332
  857MOL0     C15571   2.751   0.797   8.146  0.3438 -0.6909 -0.7313
  857MOL0     C15572   2.837   0.916   8.193  0.7403  0.3872 -0.5612
  857MOL0     C15573   2.957   0.932   8.109  0.4112  0.1598  0.6385
  857MOL0     C15574   3.017   1.062   8.134 -0.3388 -0.3592  0.7521
  857MOL0     C15575   3.123   1.056   8.233 -0.0262  0.3424 -0.5962
  857MOL0     C15576   3.126   1.200   8.298  0.7264  0.6933  0.2340
  857MOL0     N15577   3.208   1.198   8.417 -0.1930  0.0904 -0.6942
  857MOL0     C15578   3.185   1.138   8.535 -0.8625  1.0428 -0.6565
  857MOL0     C15579   3.286   1.184   8.618 -0.6685 -0.6213  0.4548
  857MOL0     C15580   3.303   1.165   8.764 -0.3599  0.0320  0.2789
  857MOL0     C15581   3.443   1.159   8.816  0.0899  0.2600  0.0867
  857MOL0     C15582   3.443   1.236   8.956 -0.2365  0.3338 -0.4651
  857MOL0     C15583   3.337   1.185   9.052 -0.1763 -0.4436 -0.1139
  857MOL0     O15584   3.361   1.047   9.081 -0.0714 -0.5313  0.6114
  857MOL0     C15585   3.412   1.018   9.208  0.2797  1.0426 -0.2751
  857MOL0     C15586   3.420   0.885   9.231 -0.5952  0.2847 -0.4967
  857MOL0     C15587   3.469   0.834   9.354 -0.8503 -0.8486 -0.6632
  857MOL0     C15588   3.506   0.929   9.456 -0.6402 -0.4339  0.5622
  857MOL0     C15589   3.519   0.892   9.603  0.1931  0.4663  0.6436
  857MOL0     O15590   3.490   0.755   9.642  0.1127 -0.7164 -0.9901
  857MOL0     C15591   3.526   0.718   9.771  0.3135 -0.0126 -0.9213
  857MOL0     C15592   3.466   0.779   9.875 -0.2228  0.1526 -0.6422
  857MOL0     C15593   3.496   0.739  10.004 -0.3509 -0.4247 -0.4828
  857MOL0     C15594   3.588   0.632  10.024 -0.1055 -0.2493 -0.4869
  857MOL0     O15595   3.605   0.597  10.157  0.4362  0.5582  0.6512
  857MOL0     C15596   3.673   0.487  10.202 -0.4209 -0.6378  1.1128
  857MOL0     C15597   3.659   0.462  10.354 -1.4269 -0.3431 -0.1233
  857MOL0     C15598   3.531   0.514  10.429  0.2330 -0.5144  0.7754
  857MOL0     C15599   3.422   0.418  10.383  0.0963  0.8861 -0.0196
  857MOL0     C15600   3.286   0.460  10.439  0.4929  0.9669 -0.4451
  857MOL0     C15601   3.281   0.472  10.599  0.0922 -0.0147  0.8310
  857MOL0     C15602   3.130   0.459  10.655 -0.1296 -0.5308  0.2654
  857MOL0     C15603   3.110   0.470  10.807 -0.4009  0.2691 -0.0324
  857MOL0    Cl15604   3.201   0.607  10.864 -0.4842  0.2370 -0.2906
  857MOL0     C15605   3.648   0.561   9.922  0.4927 -0.1732 -0.6716
  857MOL0     C15606   3.617   0.611   9.798 -0.0572 -0.2635  0.2700
  857MOL0     O15607   3.552   0.977   9.679 -0.6549  0.7015 -0.5252
  857MOL0     C15608   3.506   1.067   9.421 -0.0881  0.0721 -0.6254
  857MOL0     C15609   3.462   1.108   9.294 -0.2566 -0.2002 -0.0637
  857MOL0     N15610   3.356   1.285   8.553  0.3446 -0.2861 -0.5135
  857MOL0     N15611   3.299   1.292   8.439  0.2344 -0.6020  0.8551
  857MOL0     C15612   2.304   0.687   8.062  0.7694  0.5657 -0.5221
  857MOL0     C15613   2.181   0.633   8.022  0.9514 -0.6620 -0.6924
  857MOL0     C15614   1.805   0.594   7.753  0.5417  0.4354  0.2023
  857MOL0     C15615   1.766   0.572   7.620  0.7433  1.1107  0.0236
  857MOL0     C15616   1.649   0.513   7.582  0.7938  0.4466  0.2605
  857MOL0     C15617   1.543   0.479   7.673  0.1716 -0.3541  0.4617
  857MOL0     O15618   1.431   0.413   7.628 -0.2171  1.1362  0.1490
  857MOL0     C15619   1.336   0.372   7.720 -0.2955  0.0034  0.2203
  857MOL0     C15620   1.202   0.334   7.664 -0.3680  0.6429  0.1853
  857MOL0     C15621   1.090   0.375   7.763 -1.0158  0.5199 -0.3040
  857MOL0     C15622   1.104   0.303   7.897 -0.6644 -0.3117 -0.0829
  857MOL0     C15623   0.998   0.358   7.983 -0.4987  0.3897  0.1151
  857MOL0     C15624   0.912   0.415   8.048 -0.0693 -0.0614 -0.5105
  857MOL0     C15625   1.576   0.516   7.802  1.1419  1.0858 -0.3018
  857MOL0     C15626   1.702   0.561   7.841 -0.5183  0.2959 -0.6828
  857MOL0     C15627   1.732   0.570   7.988 -0.1721  0.8172  0.0089
  857MOL0     H15628   2.068   0.917   7.866 -1.4455 -0.0765  0.9966
  857MOL0     H15629   2.270   1.005   7.954  1.5868  0.3949  2.4959
  857MOL0     H15630   2.525   0.980   8.233  1.7670 -0.3667  0.6718
  857MOL0     H15631   2.416   0.854   8.261 -0.2741  1.3938  0.8026
  857MOL0     H15632   2.587   0.681   8.195 -0.6774  1.0718 -1.3882
  857MOL0     H15633   2.641   0.781   8.335  1.4954  1.3876 -0.0280
  857MOL0     H15634   2.733   0.805   8.039  5.3212 -2.6562 -2.0284
  857MOL0     H15635   2.812   0.706   8.145 -0.9539 -1.5855 -1.9877
  857MOL0     H15636   2.774   1.005   8.189 -0.7022 -0.6341 -1.8389
  857MOL0     H15637   2.870   0.908   8.297 -1.8916  2.4537  0.5561
  857MOL0     H15638   3.026   0.851   8.135  1.1580  1.1010  1.6415
  857MOL0     H15639   2.925   0.928   8.005 -0.5656  0.0380  0.9372
  857MOL0     H15640   3.069   1.098   8.045 -1.0614 -0.1441  0.4132
  857MOL0     H15641   2.937   1.136   8.143 -0.7761 -0.8093  0.5483
  857MOL0     H15642   3.213   1.027   8.177 -0.2418  0.4826 -1.0158
  857MOL0     H15643   3.113   0.976   8.306  3.9655  0.2906  0.1141
  857MOL0     H15644   3.158   1.282   8.233 -2.7981  2.1909  0.1194
  857MOL0     H15645   3.025   1.234   8.324  0.7378  2.5787 -1.8591
  857MOL0     H15646   3.115   1.059   8.558 -0.3271  0.9106  0.6000
  857MOL0     H15647   3.251   1.249   8.810  0.5503 -0.3242  2.0374
  857MOL0     H15648   3.239   1.081   8.795 -0.9121 -1.2448 -3.6518
  857MOL0     H15649   3.451   1.051   8.828 -1.6789  0.0654 -0.1727
  857MOL0     H15650   3.518   1.185   8.741 -1.7014 -0.4270 -2.0633
  857MOL0     H15651   3.434   1.343   8.934  0.7402 -0.0251 -2.9770
  857MOL0     H15652   3.533   1.213   9.015 -0.1718  1.0457 -0.2805
  857MOL0     H15653   3.240   1.203   9.006 -0.0819  1.7911  0.4335
  857MOL0     H15654   3.325   1.249   9.140 -2.5023  1.1957 -1.5162
  857MOL0     H15655   3.386   0.803   9.169 -0.9194 -1.0353  1.3500
  857MOL0     H15656   3.471   0.730   9.382  4.6458 -1.1053 -0.9760
  857MOL0     H15657   3.394   0.855   9.847  1.2198  1.8509  0.0692
  857MOL0     H15658   3.448   0.782  10.092 -1.8525 -0.1913 -1.3795
  857MOL0     H15659   3.658   0.394  10.148 -0.1159  0.1844 -0.4620
  857MOL0     H15660   3.776   0.514  10.178 -0.7139 -0.0919  0.4078
  857MOL0     H15661   3.666   0.354  10.368  1.6399  0.0537  2.8748
  857MOL0     H15662   3.750   0.506  10.396 -0.6129 -0.3518 -1.8350
  857MOL0     H15663   3.552   0.521  10.536  0.5846  1.5480  0.6126
  857MOL0     H15664   3.508   0.616  10.397 -1.7266 -1.5297 -1.3852
  857MOL0     H15665   3.443   0.317  10.420 -0.0336 -0.0251 -2.2656
  857MOL0     H15666   3.419   0.413  10.273 -2.7164 -0.0573  0.0316
  857MOL0     H15667   3.215   0.377  10.427  1.1655 -0.7507  4.7503
  857MOL0     H15668   3.270   0.556  10.389  1.3393  1.0291 -0.6023
  857MOL0     H15669   3.342   0.396  10.648  2.7727  2.2424  1.2166
  857MOL0     H15670   3.318   0.573  10.619 -1.2797  0.7884 -0.4245
  857MOL0     H15671   3.106   0.357  10.626  1.4742 -1.0431  0.6172
  857MOL0     H15672   3.072   0.533  10.598  1.7459 -0.8974 -2.3514
  857MOL0     H15673   3.009   0.498  10.839 -0.6585  2.5650 -2.5346
  857MOL0     H15674   3.137   0.381  10.864  1.4407  1.5697  1.2061
  857MOL0     H15675   3.707   0.470   9.937 -1.2028 -1.3496 -0.8954
  857MOL0     H15676   3.661   0.552   9.719  2.5466 -1.0506  2.1732
  857MOL0     H15677   3.525   1.138   9.501 -0.6530 -0.5475  0.0780
  857MOL0     H15678   3.448   1.214   9.274 -0.0366 -0.5186 -2.0203
  857MOL0     H15679   2.386   0.638   8.114  0.1077 -0.1614 -0.1512
  857MOL0     H15680   2.150   0.532   8.044 -2.0736  0.2608 -0.3513
  857MOL0     H15681   1.830   0.582   7.532  1.1510 -0.9021  0.0444
  857MOL0     H15682   1.637   0.485   7.478  0.7687  0.3017  0.3023
  857MOL0     H15683   1.323   0.462   7.780  1.8680  0.8565 -0.4978
  857MOL0     H15684   1.374   0.297   7.789 -0.0433  1.7312  2.0594
  857MOL0     H15685   1.195   0.225   7.650 -1.7767  0.7524 -0.1747
  857MOL0     H15686   1.182   0.381   7.567 -0.5558  1.9552  0.8513
  857MOL0     H15687   1.001   0.343   7.708 -1.4838 -0.3757  0.9221
  857MOL0     H15688   1.089   0.485   7.769 -1.6035  0.6029 -1.5705
  857MOL0     H15689   1.075   0.199   7.876 -1.3850 -0.4094  1.2979
  857MOL0     H15690   1.200   0.317   7.947 -2.0166  0.3675  2.5186
  857MOL0     H15691   0.840   0.471   8.104  1.5450  1.1880  0.3892
  857MOL0     H15692   1.499   0.540   7.874  1.2684  0.2775  0.1190
  857MOL0     H15693   1.645   0.533   8.044 -0.3166 -0.6623 -1.1177
  857MOL0     H15694   1.806   0.496   8.021 -2.1557 -0.8492  0.9473
  857MOL0     H15695   1.757   0.671   8.022  3.5145 -0.1323  0.5747
  858MOL0     O15696  10.278   3.908   4.709  0.2472 -0.7787  0.4188
  858MOL0     C15697  10.179   3.951   4.771  0.8096  0.5479  1.0135
  858MOL0     O15698  10.176   4.063   4.846 -0.8668  0.3825  0.1955
  858MOL0     C15699  10.292   4.143   4.857  0.1687  0.5187  0.2223
  858MOL0     C15700  10.324   4.172   4.988 -0.0430  0.1103  0.2397
  858MOL0     C15701  10.434   4.258   5.020  0.3356 -0.2415  0.7189
  858MOL0     C15702  10.506   4.313   4.911 -0.4159 -0.5980  0.1711
  858MOL0     O15703  10.604   4.408   4.945 -0.1020 -0.1262 -0.5117
  858MOL0     C15704  10.729   4.418   4.874 -0.0314 -0.7627 -0.3414
  858MOL0     C15705  10.790   4.275   4.845 -0.4733 -0.8835 -0.3314
  858MOL0     C15706  10.938   4.279   4.801 -0.4570  0.1473  0.6077
  858MOL0     C15707  10.948   4.289   4.647  0.0558  0.6165  0.3625
  858MOL0     C15708  11.083   4.255   4.594 -0.4971 -0.3879 -1.0010
  858MOL0     C15709  11.170   4.362   4.637 -0.7903  0.1708  0.8570
  858MOL0     C15710  11.305   4.360   4.557  1.6499  0.2672 -0.2757
  858MOL0     C15711  11.416   4.433   4.630 -0.3317  0.4274 -0.5601
  858MOL0     N15712  11.540   4.447   4.554 -0.1049 -0.4255 -0.4998
  858MOL0     C15713  11.576   4.368   4.452  0.8485 -0.1607 -0.3446
  858MOL0     C15714  11.699   4.407   4.419 -0.4398 -0.2650 -0.0471
  858MOL0     C15715  11.777   4.364   4.294 -0.7566 -0.0471 -0.2102
  858MOL0     C15716  11.915   4.428   4.302 -0.6379  0.0706 -0.0816
  858MOL0     C15717  12.012   4.364   4.205  0.6030 -0.5078  0.1709
  858MOL0     C15718  12.146   4.416   4.207  0.3987 -0.2766  0.3458
  858MOL0     O15719  12.218   4.357   4.309 -0.2146  0.1827  0.5450
  858MOL0     C15720  12.332   4.432   4.352 -0.4754 -0.2099 -0.5795
  858MOL0     C15721  12.423   4.506   4.275 -0.0001  0.1868  0.0413
  858MOL0     C15722  12.522   4.584   4.343  0.4946  0.3273  0.2826
  858MOL0     C15723  12.553   4.573   4.480 -0.5146  0.9918  0.6055
  858MOL0     C15724  12.661   4.655   4.548 -0.6416  0.2806  0.7201
  858MOL0     O15725  12.759   4.708   4.467  0.4102 -0.3921  0.2443
  858MOL0     C15726  12.877   4.740   4.523 -0.6200 -0.5105  0.4173
  858MOL0     C15727  12.950   4.643   4.588  0.0550  0.0775  0.2748
  858MOL0     C15728  13.081   4.662   4.632 -0.0483 -0.5246  1.0163
  858MOL0     C15729  13.143   4.787   4.618  0.4700 -0.3032  0.5791
  858MOL0     O15730  13.272   4.795   4.667 -0.1972  0.4242 -0.2969
  858MOL0     C15731  13.337   4.925   4.649 -0.4281 -0.0220 -0.3251
  858MOL0     C15732  13.475   4.926   4.708 -0.2689  0.3161  0.5639
  858MOL0     C15733  13.560   4.824   4.638 -1.1309  0.2175  0.1953
  858MOL0     C15734  13.716   4.831   4.659 -0.1013 -0.0360 -0.4025
  858MOL0     C15735  13.773   4.703   4.593  0.0201 -0.4012  0.4867
  858MOL0     C15736  13.758   4.705   4.431 -0.4952 -0.3928 -0.3726
  858MOL0     C15737  13.823   4.579   4.384 -0.0176 -0.6070  0.0257
  858MOL0     C15738  13.810   4.532   4.234 -0.2813  0.3961  0.6582
  858MOL0    Cl15739  13.927   4.402   4.201  0.6724 -0.7146  0.0180
  858MOL0     C15740  13.073   4.891   4.548 -0.0273 -0.5733 -0.6997
  858MOL0     C15741  12.938   4.866   4.502 -0.4759  1.1263  0.2189
  858MOL0     O15742  12.657   4.666   4.673  0.3859 -0.1893  0.1448
  858MOL0     C15743  12.470   4.483   4.548 -1.6410  0.2499  0.6861
  858MOL0     C15744  12.359   4.416   4.482 -1.3280  0.4442 -0.0841
  858MOL0     N15745  11.737   4.509   4.508 -0.6932  0.1494 -0.5613
  858MOL0     N15746  11.642   4.527   4.587  0.7899  0.7469 -0.7603
  858MOL0     C15747  10.475   4.280   4.780 -0.0438 -0.7355 -0.1314
  858MOL0     C15748  10.369   4.197   4.750 -0.3544 -0.6130 -0.5497
  858MOL0     C15749  10.052   3.875   4.757 -0.9353 -1.5174 -0.1015
  858MOL0     C15750   9.938   3.957   4.748 -0.1968 -0.7526  0.2028
  858MOL0     C15751   9.816   3.899   4.719  0.0431  0.4753  0.3553
  858MOL0     C15752   9.807   3.757   4.705  0.2861  0.7504 -0.0575
  858MOL0     O15753   9.689   3.702   4.674 -0.3217  0.1632  0.1013
  858MOL0     C15754   9.650   3.719   4.537  1.0355  0.3089 -0.4579
  858MOL0     C15755   9.524   3.647   4.508  0.2981  0.1820 -0.0157
  858MOL0     C15756   9.409   3.691   4.601  0.3279 -0.0760 -0.9453
  858MOL0     C15757   9.273   3.643   4.555  1.3514  0.8813  0.7368
  858MOL0     C15758   9.168   3.731   4.616  0.7254 -0.5717 -0.4291
  858MOL0     C15759   9.103   3.819   4.671 -0.1649  1.0676  0.2184
  858MOL0     C15760   9.920   3.676   4.714 -0.1641 -0.2259  0.5926
  858MOL0     C15761  10.045   3.738   4.740  0.2357 -0.4302 -0.5539
  858MOL0     C15762  10.151   3.642   4.741 -0.3267 -0.2479 -0.3537
  858MOL0     H15763  10.254   4.140   5.065 -0.4956  0.5198 -0.0018
  858MOL0     H15764  10.453   4.276   5.125 -2.1391  5.7965  0.5321
  858MOL0     H15765  10.710   4.469   4.779  1.5028  2.4073  0.9274
  858MOL0     H15766  10.797   4.480   4.932 -0.0630 -1.2346  0.2059
  858MOL0     H15767  10.728   4.211   4.781 -2.2430  0.7374 -0.3233
  858MOL0     H15768  10.800   4.219   4.938  2.4994 -1.4075 -0.8547
  858MOL0     H15769  10.989   4.186   4.829 -1.6007 -0.7518 -0.1973
  858MOL0     H15770  10.983   4.369   4.843 -2.8256  2.5355 -1.6224
  858MOL0     H15771  10.876   4.217   4.605 -0.9870  1.9204 -0.1725
  858MOL0     H15772  10.902   4.380   4.606 -2.5200 -1.4555 -1.7757
  858MOL0     H15773  11.116   4.155   4.625  1.8778  0.5194 -0.3603
  858MOL0     H15774  11.072   4.248   4.486 -0.8588 -0.3079 -0.9699
  858MOL0     H15775  11.116   4.457   4.628  0.0179  0.5206 -0.4562
  858MOL0     H15776  11.199   4.335   4.739  1.8586 -1.0928 -0.1542
  858MOL0     H15777  11.295   4.406   4.458  1.5802  1.0243  0.0718
  858MOL0     H15778  11.345   4.259   4.544  0.8732 -0.0466 -0.2714
  858MOL0     H15779  11.377   4.535   4.642 -2.4539 -0.4227  0.4476
  858MOL0     H15780  11.423   4.378   4.724 -0.0732  1.1157 -0.1699
  858MOL0     H15781  11.519   4.295   4.395 -1.9033  1.7121 -0.1855
  858MOL0     H15782  11.780   4.254   4.297 -0.0691 -0.0131  0.7525
  858MOL0     H15783  11.720   4.384   4.203 -0.5715 -2.2035 -0.8517
  858MOL0     H15784  11.926   4.533   4.273  0.1145 -0.4683 -1.8465
  858MOL0     H15785  11.964   4.421   4.400  3.9181  0.6468 -2.0662
  858MOL0     H15786  11.974   4.381   4.104  2.1306 -1.1798 -0.5411
  858MOL0     H15787  12.004   4.255   4.216 -2.9129 -0.2995  0.9530
  858MOL0     H15788  12.147   4.523   4.230 -1.3930  0.0019 -0.6788
  858MOL0     H15789  12.199   4.403   4.112  0.0111 -0.7947  0.1971
  858MOL0     H15790  12.409   4.513   4.168 -2.5073 -2.0525  0.1431
  858MOL0     H15791  12.581   4.645   4.275 -0.6937 -0.1735 -1.2783
  858MOL0     H15792  12.897   4.553   4.617 -1.8220  1.1303  0.3150
  858MOL0     H15793  13.139   4.581   4.675 -1.0595 -1.0409  1.4311
  858MOL0     H15794  13.355   4.943   4.543 -0.4712  0.1407 -0.3054
  858MOL0     H15795  13.279   5.004   4.699 -0.8344 -0.0264 -0.7828
  858MOL0     H15796  13.523   5.024   4.705 -0.1962  0.3159  1.4941
  858MOL0     H15797  13.465   4.911   4.815  1.7733 -0.0641  0.7302
  858MOL0     H15798  13.525   4.721   4.654  0.1231 -0.5318 -1.5943
  858MOL0     H15799  13.556   4.854   4.533  1.3962  0.5392  0.1483
  858MOL0     H15800  13.733   4.825   4.767  0.7625 -3.1048 -0.6194
  858MOL0     H15801  13.751   4.927   4.619 -0.5423  0.2876 -0.0266
  858MOL0     H15802  13.716   4.621   4.637  0.6939  0.4503  3.1123
  858MOL0     H15803  13.879   4.692   4.616 -0.1584 -0.9956  1.0461
  858MOL0     H15804  13.654   4.706   4.398 -0.9834 -1.7102  0.9993
  858MOL0     H15805  13.814   4.794   4.401  0.1452  0.0313  1.8509
  858MOL0     H15806  13.798   4.492   4.445  1.9145 -1.5869 -0.4914
  858MOL0     H15807  13.929   4.597   4.404  0.1523 -1.3798 -0.1663
  858MOL0     H15808  13.711   4.489   4.223 -0.5737  0.6089  2.2251
  858MOL0     H15809  13.839   4.612   4.165  1.3888  0.2965  1.1811
  858MOL0     H15810  13.113   4.986   4.513 -1.5133 -0.1002 -1.2196
  858MOL0     H15811  12.879   4.924   4.432 -0.9426  0.9481  0.4607
  858MOL0     H15812  12.488   4.484   4.655  3.2236 -0.1994  0.0807
  858MOL0     H15813  12.295   4.358   4.548  1.0194  0.4624  2.3930
  858MOL0     H15814  10.522   4.327   4.694  1.4922  0.8188  1.4778
  858MOL0     H15815  10.345   4.191   4.645 -0.8163 -2.1441 -0.3847
  858MOL0     H15816   9.948   4.064   4.767  0.3183 -0.4300 -1.6572
  858MOL0     H15817   9.727   3.961   4.709  1.1015  2.0988  0.6660
  858MOL0     H15818   9.734   3.679   4.480  0.4667 -0.9611 -0.4521
  858MOL0     H15819   9.638   3.825   4.514  4.0783  0.5423 -1.3574
  858MOL0     H15820   9.544   3.539   4.506 -0.9690 -0.0806 -0.0159
  858MOL0     H15821   9.488   3.681   4.410 -2.0687  2.4037  1.5082
  858MOL0     H15822   9.411   3.800   4.607 -0.2880 -0.1236  0.5303
  858MOL0     H15823   9.429   3.644   4.698 -1.2355 -0.7907 -0.9350
  858MOL0     H15824   9.261   3.656   4.447 -1.0605  3.0034  1.1666
  858MOL0     H15825   9.267   3.536   4.574  1.9074  0.4314 -1.3690
  858MOL0     H15826   9.057   3.889   4.737 -0.6591  0.2864  0.7300
  858MOL0     H15827   9.922   3.568   4.705  1.2516 -0.1094 -1.4104
  858MOL0     H15828  10.235   3.690   4.792 -1.0705  0.7356 -0.0044
  858MOL0     H15829  10.125   3.548   4.791  0.7572 -0.0984  0.5174
  858MOL0     H15830  10.191   3.619   4.642  0.6224  0.3982 -0.1328
  859MOL0     O15831  11.295   6.418   9.933  0.8911 -0.7487 -0.3487
  859MOL0     C15832  11.214   6.387  10.022  0.4180 -0.1943  0.1455
  859MOL0     O15833  11.199   6.450  10.141 -0.9127 -1.0144  0.3116
  859MOL0     C15834  11.257   6.578  10.163  0.1036  0.4185  0.0519
  859MOL0     C15835  11.262   6.679  10.071  0.8006  0.2680  1.2379
  859MOL0     C15836  11.320   6.803  10.088 -0.3445  0.1733  0.4032
  859MOL0     C15837  11.385   6.821  10.208  0.3816 -0.1009 -0.9308
  859MOL0     O15838  11.447   6.939  10.243  0.4522 -0.0399 -0.5668
  859MOL0     C15839  11.395   7.052  10.175  0.2202 -0.0354  0.5461
  859MOL0     C15840  11.448   7.175  10.242 -0.6879 -0.1669  0.8329
  859MOL0     C15841  11.375   7.211  10.364 -0.7455 -0.1520  0.4019
  859MOL0     C15842  11.441   7.338  10.424 -0.3480  0.7882  0.1181
  859MOL0     C15843  11.357   7.380  10.542 -1.2500 -0.2115 -0.4771
  859MOL0     C15844  11.389   7.519  10.590 -0.7222 -0.4578  0.0136
  859MOL0     C15845  11.537   7.574  10.577  0.6740 -0.4586  0.6419
  859MOL0     C15846  11.574   7.702  10.655 -0.4034 -0.1884  0.6693
  859MOL0     N15847  11.684   7.776  10.596  0.2967  0.7552  0.4558
  859MOL0     C15848  11.658   7.851  10.478 -0.1573  0.1285 -0.4495
  859MOL0     C15849  11.792   7.895  10.452  0.2521 -0.7193  0.2942
  859MOL0     C15850  11.859   7.986  10.345 -0.1558 -0.3278  0.0930
  859MOL0     C15851  11.756   8.012  10.232  0.4033 -0.9191 -0.4474
  859MOL0     C15852  11.681   8.139  10.271 -0.1571 -0.1465  0.1436
  859MOL0     C15853  11.563   8.164  10.172  0.1542 -0.8517  0.7609
  859MOL0     O15854  11.456   8.081  10.199  0.4588  0.1114 -0.0102
  859MOL0     C15855  11.354   8.104  10.101 -0.7179  0.9775 -0.5503
  859MOL0     C15856  11.260   7.999  10.096 -0.2198  0.0807 -0.4032
  859MOL0     C15857  11.155   8.003  10.010 -1.3410 -0.1354 -0.1951
  859MOL0     C15858  11.135   8.115   9.926  0.5929 -0.2254  1.1073
  859MOL0     C15859  10.999   8.123   9.856 -0.4946 -0.0805 -0.6895
  859MOL0     O15860  10.893   8.038   9.875 -0.0262  0.1697 -0.4998
  859MOL0     C15861  10.768   8.032   9.813 -0.6148 -0.0394 -0.0230
  859MOL0     C15862  10.762   8.081   9.687  0.1043  0.1900  0.6041
  859MOL0     C15863  10.638   8.069   9.609  0.3153  0.1315 -0.3712
  859MOL0     C15864  10.522   7.998   9.663  0.2659 -0.2658 -0.2499
  859MOL0     O15865  10.421   7.950   9.577  0.6500 -0.5448 -0.0635
  859MOL0     C15866  10.361   8.024   9.474 -0.3357  0.0658  0.9991
  859MOL0     C15867  10.289   8.147   9.520 -0.3853 -0.7494 -0.4493
  859MOL0     C15868  10.149   8.106   9.568 -0.4472  0.0613 -0.4888
  859MOL0     C15869  10.072   8.232   9.585 -0.1937 -0.7113  0.3423
  859MOL0     C15870   9.928   8.190   9.599 -0.2966 -0.4598  0.3678
  859MOL0     C15871   9.878   8.299   9.702 -1.0356  0.0677  0.0421
  859MOL0     C15872   9.724   8.318   9.679  0.4607 -0.0789  0.2212
  859MOL0     C15873   9.657   8.445   9.738  0.4384  0.7612 -0.2534
  859MOL0    Cl15874   9.647   8.424   9.915  0.4672  0.6389  0.3054
  859MOL0     C15875  10.534   7.945   9.792  0.9374 -0.7152 -1.1342
  859MOL0     C15876  10.653   7.965   9.867 -0.1599 -0.3949 -0.1740
  859MOL0     O15877  10.991   8.234   9.805  0.4935  0.7014  0.6294
  859MOL0     C15878  11.223   8.224   9.929 -0.0994 -0.1953  1.0599
  859MOL0     C15879  11.333   8.214  10.013 -0.0295 -0.8606 -0.8224
  859MOL0     N15880  11.870   7.849  10.555 -0.4748 -0.0044  0.0340
  859MOL0     N15881  11.811   7.785  10.642 -0.0281 -0.2196 -0.2755
  859MOL0     C15882  11.386   6.721  10.309  0.5737  0.1985  0.0294
  859MOL0     C15883  11.315   6.606  10.283  0.5598  0.6299  0.5237
  859MOL0     C15884  11.124   6.265   9.990  0.2514 -0.5206 -0.8458
  859MOL0     C15885  11.096   6.229   9.856  0.7635 -0.1704  0.6562
  859MOL0     C15886  10.999   6.140   9.816 -0.3840 -0.4356 -0.2934
  859MOL0     C15887  10.921   6.072   9.914 -0.1448 -0.7876 -0.4303
  859MOL0     O15888  10.811   6.005   9.868 -0.7493  0.4886  0.0194
  859MOL0     C15889  10.687   6.040   9.919  0.1198 -0.4872  0.2774
  859MOL0     C15890  10.648   6.180   9.852  0.3462  0.7733 -0.0125
  859MOL0     C15891  10.642   6.168   9.705  0.1517  0.6224  0.0979
  859MOL0     C15892  10.593   6.305   9.645  0.4062 -0.0001 -0.6858
  859MOL0     C15893  10.445   6.322   9.630 -0.4804  0.4755  0.3142
  859MOL0     C15894  10.325   6.335   9.616  0.2067  0.5061  0.2840
  859MOL0     C15895  10.956   6.093  10.048  0.0235 -0.9660 -0.4255
  859MOL0     C15896  11.051   6.191  10.086  0.3588  0.0555 -0.0677
  859MOL0     C15897  11.088   6.189  10.236 -0.5627  0.2943  0.2399
  859MOL0     H15898  11.208   6.663   9.979 -0.6930 -0.7846  2.2502
  859MOL0     H15899  11.315   6.877  10.008  1.1059  0.8842  0.9217
  859MOL0     H15900  11.424   7.056  10.070  1.0578  2.4746  0.8094
  859MOL0     H15901  11.286   7.049  10.179  0.1621 -0.9677 -1.0470
  859MOL0     H15902  11.455   7.260  10.173  1.4894  0.5072  1.8118
  859MOL0     H15903  11.552   7.160  10.272  0.0790 -0.7983 -1.8637
  859MOL0     H15904  11.391   7.121  10.425  2.8249 -0.6397 -1.0211
  859MOL0     H15905  11.268   7.233  10.354 -1.1449 -2.7471 -2.8629
  859MOL0     H15906  11.545   7.334  10.456 -0.3676 -0.1834  0.0753
  859MOL0     H15907  11.453   7.418  10.351  3.4639  1.0580  0.8385
  859MOL0     H15908  11.252   7.381  10.511 -1.2738  0.2944 -0.3832
  859MOL0     H15909  11.375   7.311  10.626  0.5716  1.1368  0.2936
  859MOL0     H15910  11.322   7.593  10.545 -1.2837 -1.4789 -0.8894
  859MOL0     H15911  11.356   7.529  10.694  0.1638 -0.5786  0.3138
  859MOL0     H15912  11.530   7.604  10.472 -2.6634  3.2394  1.6761
  859MOL0     H15913  11.614   7.500  10.596  0.6231 -1.5630 -2.7797
  859MOL0     H15914  11.487   7.768  10.649 -0.6760 -0.6478 -1.8949
  859MOL0     H15915  11.594   7.684  10.761 -0.9909  4.4529  1.7892
  859MOL0     H15916  11.564   7.860  10.423 -2.2142 -1.8636  2.4148
  859MOL0     H15917  11.888   8.084  10.385 -0.2690 -0.2268 -0.0689
  859MOL0     H15918  11.947   7.936  10.303  0.2785 -0.2991  0.9333
  859MOL0     H15919  11.812   8.036  10.140  3.0369 -0.5872  1.1315
  859MOL0     H15920  11.696   7.926  10.200  2.3400 -2.0051 -1.3701
  859MOL0     H15921  11.748   8.224  10.255 -1.5748  0.8518 -0.7408
  859MOL0     H15922  11.655   8.145  10.378  0.8530  1.3349  0.3285
  859MOL0     H15923  11.597   8.160  10.069 -1.0647  1.1365  0.2262
  859MOL0     H15924  11.530   8.267  10.187  1.9672 -0.2914  1.2443
  859MOL0     H15925  11.258   7.907  10.154 -0.6327  1.5800  2.0840
  859MOL0     H15926  11.090   7.916  10.015 -0.2687 -1.1252 -2.1908
  859MOL0     H15927  10.849   8.112   9.629 -0.6494  0.2234 -0.5384
  859MOL0     H15928  10.639   8.082   9.501 -0.0105 -1.9764 -0.6675
  859MOL0     H15929  10.444   8.033   9.403 -0.4769 -3.8632  0.0504
  859MOL0     H15930  10.293   7.958   9.419  3.6393 -0.5407 -3.8832
  859MOL0     H15931  10.344   8.197   9.600 -2.7180 -0.3618  1.0359
  859MOL0     H15932  10.282   8.221   9.440  2.7118 -0.8932 -0.9760
  859MOL0     H15933  10.094   8.060   9.485 -2.4012 -1.2076  1.3959
  859MOL0     H15934  10.155   8.035   9.650  1.2775  0.1233 -0.5210
  859MOL0     H15935  10.089   8.293   9.496  1.8973 -1.6455  0.0356
  859MOL0     H15936  10.102   8.287   9.675 -2.1225 -0.6845  1.0217
  859MOL0     H15937   9.908   8.094   9.648 -0.5813 -0.1943  0.7844
  859MOL0     H15938   9.887   8.199   9.499  0.2220 -0.0184  0.1840
  859MOL0     H15939   9.899   8.278   9.807  1.5989  0.5474 -0.3409
  859MOL0     H15940   9.929   8.394   9.691  4.4163 -2.4405  0.5204
  859MOL0     H15941   9.676   8.234   9.732  2.2396 -1.2953  0.0112
  859MOL0     H15942   9.702   8.308   9.573  0.0830  2.5250  0.0090
  859MOL0     H15943   9.712   8.539   9.722  0.2054  0.9245 -0.0973
  859MOL0     H15944   9.555   8.456   9.700 -0.1628  0.7270  1.2722
  859MOL0     H15945  10.454   7.891   9.841  1.3550 -0.2704  0.0935
  859MOL0     H15946  10.651   7.925   9.968 -0.9446  1.6258  0.6513
  859MOL0     H15947  11.196   8.310   9.868 -2.0691 -1.8226 -0.5100
  859MOL0     H15948  11.398   8.301  10.011 -2.7473  1.5113  2.8074
  859MOL0     H15949  11.437   6.725  10.405  0.2426  0.8917  0.1752
  859MOL0     H15950  11.304   6.523  10.352  0.6121 -0.3714 -0.6290
  859MOL0     H15951  11.149   6.279   9.776  1.6269 -0.4740  1.0301
  859MOL0     H15952  10.983   6.122   9.710  3.2166  0.8635 -1.1913
  859MOL0     H15953  10.684   6.043  10.028  2.1412 -1.3123  0.3919
  859MOL0     H15954  10.614   5.965   9.887 -0.3953  1.0189 -2.3620
  859MOL0     H15955  10.717   6.258   9.884 -2.2780  2.6668  1.4278
  859MOL0     H15956  10.548   6.197   9.893  0.5458 -0.1660  0.8836
  859MOL0     H15957  10.577   6.085   9.676 -0.8605  1.1823  0.7037
  859MOL0     H15958  10.744   6.148   9.672  0.2264  0.9614  0.1160
  859MOL0     H15959  10.643   6.386   9.699 -0.6216 -0.3516  0.8724
  859MOL0     H15960  10.634   6.307   9.544 -1.5459  0.7094 -1.5117
  859MOL0     H15961  10.218   6.340   9.611 -0.0045 -2.2804  0.4400
  859MOL0     H15962  10.904   6.026  10.115  0.9877 -0.3589  0.9973
  859MOL0     H15963  11.048   6.099  10.285  0.6072 -2.4205 -3.3646
  859MOL0     H15964  11.193   6.170  10.257 -1.4811 -5.2063  1.4026
  859MOL0     H15965  11.067   6.289  10.277 -0.1250  2.4332 -4.1766
  860MOL0     O15966   8.308   8.528  10.127 -0.1331  0.7258 -0.1304
  860MOL0     C15967   8.277   8.540  10.247  0.2658  0.3384  0.9487
  860MOL0     O15968   8.353   8.592  10.345 -0.3122  0.5796  0.6422
  860MOL0     C15969   8.478   8.645  10.313  1.0344 -0.1901  1.3600
  860MOL0     C15970   8.491   8.740  10.209  0.4591  0.4230 -0.3023
  860MOL0     C15971   8.620   8.792  10.185 -0.2668 -0.4607 -0.2181
  860MOL0     C15972   8.731   8.752  10.262  0.2028  0.3325 -0.9130
  860MOL0     O15973   8.853   8.802  10.238  0.1811  0.1826 -0.2963
  860MOL0     C15974   8.893   8.827  10.105 -0.7229 -0.0105  1.0749
  860MOL0     C15975   8.924   8.980  10.081  0.5639 -0.4116 -0.3711
  860MOL0     C15976   9.064   8.996  10.025 -0.4142 -0.8077 -0.1466
  860MOL0     C15977   9.110   9.138  10.020 -0.0417  0.8576  0.2705
  860MOL0     C15978   9.229   9.153   9.925 -0.0660 -0.4459 -0.1747
  860MOL0     C15979   9.256   9.303   9.901 -0.0778 -0.0144 -0.1207
  860MOL0     C15980   9.398   9.326   9.831  0.0220 -0.5051 -0.1971
  860MOL0     C15981   9.511   9.359   9.929  0.2319 -0.0585  0.3919
  860MOL0     N15982   9.643   9.353   9.864 -0.3540 -0.2276 -0.6300
  860MOL0     C15983   9.692   9.442   9.777  0.1580  0.2660 -0.0976
  860MOL0     C15984   9.813   9.407   9.747 -0.1930  0.8507  0.2375
  860MOL0     C15985   9.899   9.489   9.660  0.0893  0.0637 -0.0633
  860MOL0     C15986   9.856   9.469   9.505 -0.0027  0.0679  0.5226
  860MOL0     C15987   9.833   9.327   9.467  0.4978 -0.3069  0.8401
  860MOL0     C15988   9.814   9.307   9.313  0.5165 -0.1946  0.0105
  860MOL0     O15989   9.914   9.366   9.227 -0.1646 -0.2623 -0.1997
  860MOL0     C15990  10.031   9.301   9.205  0.6048  0.0822 -0.1580
  860MOL0     C15991  10.069   9.180   9.260  0.3655 -0.4331  0.0468
  860MOL0     C15992  10.189   9.122   9.220 -0.5591  0.9257  1.4224
  860MOL0     C15993  10.275   9.177   9.124 -0.4533 -0.0701 -0.1874
  860MOL0     C15994  10.404   9.129   9.082 -0.1665 -0.3927 -0.6487
  860MOL0     O15995  10.444   9.163   8.957  0.2438 -0.6585 -0.0349
  860MOL0     C15996  10.564   9.113   8.924  0.3997 -0.6067 -0.2148
  860MOL0     C15997  10.677   9.207   8.923 -0.4082 -0.6705  0.4582
  860MOL0     C15998  10.807   9.152   8.897 -0.6573 -0.3969  0.3839
  860MOL0     C15999  10.824   9.014   8.879 -0.0867 -0.6727  0.0623
  860MOL0     O16000  10.949   8.971   8.860 -0.0728 -0.2965 -0.1978
  860MOL0     C16001  10.969   8.856   8.770 -0.1400 -0.3549 -0.7252
  860MOL0     C16002  11.113   8.814   8.784 -0.7213 -0.5425 -0.3002
  860MOL0     C16003  11.208   8.925   8.739 -0.0578 -0.1492  0.0901
  860MOL0     C16004  11.359   8.879   8.764 -0.1492  0.4225  0.0482
  860MOL0     C16005  11.444   9.007   8.790 -0.4342 -0.0422 -0.3286
  860MOL0     C16006  11.592   8.984   8.778 -0.4304 -0.5508  0.4035
  860MOL0     C16007  11.666   8.926   8.892 -0.7826  0.5524 -0.5499
  860MOL0     C16008  11.827   8.943   8.878  0.2257 -0.5654 -0.8071
  860MOL0    Cl16009  11.887   8.895   9.034  0.0163 -0.4686  0.0797
  860MOL0     C16010  10.714   8.932   8.899 -0.1408  0.4700  0.7531
  860MOL0     C16011  10.586   8.981   8.916 -0.0422  0.2161  0.0374
  860MOL0     O16012  10.465   9.063   9.161 -0.1918  0.5524  0.5312
  860MOL0     C16013  10.236   9.300   9.068 -1.0230  0.3904  0.5298
  860MOL0     C16014  10.118   9.355   9.109 -0.1107  1.0727  0.6379
  860MOL0     N16015   9.838   9.291   9.807  0.0758 -0.4001 -0.0937
  860MOL0     N16016   9.737   9.254   9.875  0.0275  0.0232  0.2758
  860MOL0     C16017   8.706   8.678  10.370  0.6820 -0.2744  0.2094
  860MOL0     C16018   8.582   8.612  10.390 -1.2785  0.9978  0.4467
  860MOL0     C16019   8.153   8.474  10.291  0.3060 -0.2781  0.8371
  860MOL0     C16020   8.063   8.438  10.187 -0.7666 -0.6449 -0.4901
  860MOL0     C16021   7.943   8.377  10.221  0.1859  0.4892  0.9381
  860MOL0     C16022   7.917   8.335  10.344  0.2427  0.1831 -0.5802
  860MOL0     O16023   7.802   8.274  10.374 -1.0979 -0.3803 -0.2999
  860MOL0     C16024   7.738   8.176  10.289  0.3340  0.0782  0.3331
  860MOL0     C16025   7.676   8.049  10.364  0.0808 -0.7136 -0.2009
  860MOL0     C16026   7.535   8.067  10.415 -0.1184  0.5364 -0.8132
  860MOL0     C16027   7.521   8.166  10.545  0.4039  0.0471 -0.0600
  860MOL0     C16028   7.389   8.156  10.599 -0.1440  0.5050 -0.3189
  860MOL0     C16029   7.273   8.153  10.642 -0.1660  0.0581 -0.2619
  860MOL0     C16030   8.009   8.358  10.449 -0.0714  0.1739  0.3699
  860MOL0     C16031   8.126   8.431  10.422  0.4657 -0.1671 -0.1036
  860MOL0     C16032   8.222   8.453  10.538 -0.0267  0.8512  0.0276
  860MOL0     H16033   8.406   8.780  10.157  0.2652  1.6853  0.9344
  860MOL0     H16034   8.616   8.875  10.115 -0.8965 -1.9120 -1.9693
  860MOL0     H16035   8.983   8.769  10.082 -1.6909 -2.3402  2.7547
  860MOL0     H16036   8.821   8.799  10.027 -0.3429 -1.8251  1.3498
  860MOL0     H16037   8.917   9.031  10.177 -1.4054 -1.0547 -0.1299
  860MOL0     H16038   8.854   9.023  10.008 -0.5584  1.3262  1.5994
  860MOL0     H16039   9.080   8.955   9.924 -0.9062 -1.4736  0.0344
  860MOL0     H16040   9.135   8.956  10.098  2.4938  5.6991  1.3068
  860MOL0     H16041   9.034   9.186   9.957  0.4767  0.3956 -0.7457
  860MOL0     H16042   9.124   9.174  10.122 -4.2625 -0.2626  1.4298
  860MOL0     H16043   9.314   9.104   9.971  0.0193 -0.7845 -0.6797
  860MOL0     H16044   9.216   9.103   9.828  0.6561 -1.4853  0.2487
  860MOL0     H16045   9.194   9.346   9.822 -0.9145 -0.7199  0.1416
  860MOL0     H16046   9.232   9.358   9.993 -0.9424  2.5633 -1.7868
  860MOL0     H16047   9.397   9.410   9.761  2.2927 -0.5284 -0.3329
  860MOL0     H16048   9.426   9.240   9.769 -0.2885  0.4070 -1.6512
  860MOL0     H16049   9.498   9.461   9.966 -1.3516 -0.1523  0.1589
  860MOL0     H16050   9.511   9.298  10.020 -0.3210 -0.1550  0.3261
  860MOL0     H16051   9.655   9.539   9.748  0.1094  0.6216  1.1069
  860MOL0     H16052   9.912   9.594   9.691  1.5864 -0.6476  1.9308
  860MOL0     H16053  10.002   9.454   9.677  0.4112  1.0340  0.0812
  860MOL0     H16054   9.769   9.534   9.492  2.1623  2.8067 -1.4999
  860MOL0     H16055   9.938   9.504   9.443  0.2470 -0.5904  0.4777
  860MOL0     H16056   9.741   9.295   9.518  0.9608 -0.5026  1.5738
  860MOL0     H16057   9.916   9.271   9.510  1.2381 -0.2011 -0.4238
  860MOL0     H16058   9.726   9.369   9.292  2.9574  3.5750 -0.1706
  860MOL0     H16059   9.788   9.206   9.281  0.4564  0.3278 -1.6599
  860MOL0     H16060  10.003   9.130   9.330 -0.2833  2.0740  1.3264
  860MOL0     H16061  10.213   9.023   9.259 -3.5580 -0.9989 -1.0869
  860MOL0     H16062  10.654   9.312   8.932 -1.5178 -0.9157  0.6521
  860MOL0     H16063  10.897   9.211   8.894  0.7856 -2.5317 -1.9088
  860MOL0     H16064  10.906   8.767   8.782  0.9359 -0.8886  1.3316
  860MOL0     H16065  10.967   8.897   8.668 -1.4064  2.5269  0.3486
  860MOL0     H16066  11.135   8.780   8.886  1.2122 -0.1408 -0.5526
  860MOL0     H16067  11.132   8.733   8.713 -1.8661  1.6157 -3.2361
  860MOL0     H16068  11.185   8.932   8.632 -2.0278  0.6476  0.5211
  860MOL0     H16069  11.195   9.022   8.789 -1.7537 -0.3185  0.0439
  860MOL0     H16070  11.399   8.824   8.678  2.1733 -0.2169  1.4508
  860MOL0     H16071  11.374   8.816   8.852  0.4918  2.6109  1.5744
  860MOL0     H16072  11.424   9.069   8.878 -1.2764  3.7043 -2.9219
  860MOL0     H16073  11.416   9.069   8.704  5.0415 -0.0218 -2.4916
  860MOL0     H16074  11.614   8.910   8.701  3.0295 -0.6794  1.3646
  860MOL0     H16075  11.643   9.080   8.762 -2.3259  0.7965  1.9294
  860MOL0     H16076  11.642   8.819   8.894 -1.8407  0.7944  0.8343
  860MOL0     H16077  11.629   8.978   8.980 -1.8005 -0.7432 -0.1938
  860MOL0     H16078  11.869   8.879   8.800 -1.3452 -1.9161 -0.6075
  860MOL0     H16079  11.856   9.047   8.860 -1.2966  0.3609  1.5835
  860MOL0     H16080  10.735   8.825   8.900 -0.1952  0.2896 -3.3023
  860MOL0     H16081  10.508   8.906   8.919  1.1692 -1.0496  0.9049
  860MOL0     H16082  10.289   9.344   8.984 -0.4779  1.4059  1.3799
  860MOL0     H16083  10.089   9.445   9.056 -1.8694  0.2281  0.1102
  860MOL0     H16084   8.779   8.655  10.446  1.8565  3.0406  0.2463
  860MOL0     H16085   8.574   8.542  10.473  0.2361 -0.1484 -0.3215
  860MOL0     H16086   8.086   8.461  10.084 -1.6388 -1.7301 -0.9561
  860MOL0     H16087   7.873   8.349  10.143  1.3054 -1.2215  0.4932
  860MOL0     H16088   7.815   8.134  10.224  1.0718  0.9354  0.6401
  860MOL0     H16089   7.661   8.227  10.230  1.1249 -2.0675 -2.8161
  860MOL0     H16090   7.742   8.021  10.446 -1.2759  3.2686  2.5632
  860MOL0     H16091   7.677   7.966  10.292 -0.8350  1.5638 -3.0697
  860MOL0     H16092   7.505   7.968  10.452  1.2847  0.4291  0.1299
  860MOL0     H16093   7.465   8.095  10.336 -0.2667 -0.3446 -1.0097
  860MOL0     H16094   7.596   8.133  10.617 -0.3012 -1.4445  0.0350
  860MOL0     H16095   7.551   8.268  10.518  1.3658  1.0015  4.0242
  860MOL0     H16096   7.173   8.147  10.681  0.3588 -1.7691  0.9186
  860MOL0     H16097   7.986   8.323  10.549 -0.1185  2.9362  1.4213
  860MOL0     H16098   8.247   8.558  10.556  1.8568  0.0134  3.1856
  860MOL0     H16099   8.182   8.400  10.625  0.2851 -0.6283 -0.7048
  860MOL0     H16100   8.317   8.405  10.513 -0.9419 -0.6457 -0.6794
  861MOL0     O16101   9.427   5.971   2.903 -0.8026 -0.5121  0.1629
  861MOL0     C16102   9.372   6.040   2.986  0.4352 -0.6472 -0.5833
  861MOL0     O16103   9.426   6.141   3.067  0.3877  0.5062 -0.0874
  861MOL0     C16104   9.566   6.154   3.081  0.9874 -1.0528  0.0184
  861MOL0     C16105   9.603   6.271   3.131 -0.0270 -0.1785 -0.5400
  861MOL0     C16106   9.738   6.306   3.158  0.0681 -0.2623  0.0182
  861MOL0     C16107   9.833   6.215   3.114  0.6289  0.1876  0.0764
  861MOL0     O16108   9.965   6.260   3.118 -0.2362  0.3021  0.1740
  861MOL0     C16109  10.054   6.189   3.201  0.2988  0.3203  0.3932
  861MOL0     C16110  10.057   6.268   3.330 -0.3159 -0.6326 -0.2961
  861MOL0     C16111  10.169   6.228   3.431 -0.3510  0.5255 -0.0924
  861MOL0     C16112  10.168   6.299   3.565 -0.4846 -0.9948 -0.3434
  861MOL0     C16113  10.280   6.245   3.662  0.5092  0.3458  0.1697
  861MOL0     C16114  10.424   6.271   3.608 -0.0560  0.1554  0.0868
  861MOL0     C16115  10.531   6.296   3.714 -0.3514  0.7741  0.1816
  861MOL0     C16116  10.673   6.306   3.657 -1.0358 -0.4477  0.2856
  861MOL0     N16117  10.744   6.428   3.696 -0.8423 -0.1346  0.0048
  861MOL0     C16118  10.852   6.426   3.777  0.3985 -0.1609 -0.7547
  861MOL0     C16119  10.869   6.553   3.821  0.3228 -0.5461 -0.1168
  861MOL0     C16120  10.985   6.606   3.914 -0.8654 -0.1263 -1.1827
  861MOL0     C16121  11.122   6.581   3.844 -0.3119 -0.2414  0.4380
  861MOL0     C16122  11.210   6.671   3.929  0.6139 -0.2009  0.3283
  861MOL0     C16123  11.346   6.693   3.879  0.2416  0.3098 -0.3749
  861MOL0     O16124  11.436   6.592   3.922 -0.1947 -0.4253  0.6642
  861MOL0     C16125  11.548   6.573   3.842  0.9676  0.1471  0.5701
  861MOL0     C16126  11.539   6.560   3.702  1.0704  0.6804  0.5023
  861MOL0     C16127  11.659   6.547   3.633 -0.6025  0.4928 -0.0463
  861MOL0     C16128  11.792   6.548   3.693 -0.1988  0.0261  0.5997
  861MOL0     C16129  11.923   6.546   3.614  0.4949 -0.5317 -0.1855
  861MOL0     O16130  12.038   6.521   3.689  0.1027 -0.7966 -0.1594
  861MOL0     C16131  12.162   6.529   3.635  0.2200  0.0370  0.2335
  861MOL0     C16132  12.200   6.597   3.516  0.3307 -1.1643 -0.0896
  861MOL0     C16133  12.332   6.607   3.479 -0.8404  0.1335  0.5106
  861MOL0     C16134  12.435   6.535   3.550  0.3291 -1.6278  0.6664
  861MOL0     O16135  12.560   6.551   3.500  0.3380  0.8424 -0.1110
  861MOL0     C16136  12.644   6.621   3.589 -0.7764  0.1123 -0.1638
  861MOL0     C16137  12.776   6.544   3.568 -1.0386  0.9973 -0.3856
  861MOL0     C16138  12.799   6.409   3.651 -0.3077 -0.6143  0.6694
  861MOL0     C16139  12.933   6.343   3.621 -0.2029  0.2735 -0.5096
  861MOL0     C16140  12.951   6.223   3.727 -0.6347  0.5471  0.3304
  861MOL0     C16141  13.103   6.189   3.730 -0.0339 -0.4201 -0.8493
  861MOL0     C16142  13.134   6.075   3.832  0.8581  0.1396  0.3555
  861MOL0     C16143  13.287   6.049   3.820 -0.0201  0.0343 -1.2276
  861MOL0    Cl16144  13.382   6.193   3.810 -0.0479 -0.2178 -0.0583
  861MOL0     C16145  12.395   6.451   3.655 -0.0182  0.6635  0.6599
  861MOL0     C16146  12.266   6.456   3.702  0.7949 -0.1757  1.0915
  861MOL0     O16147  11.912   6.560   3.495 -0.5516  0.0338  0.4738
  861MOL0     C16148  11.794   6.572   3.835 -1.1208 -1.0180 -0.2670
  861MOL0     C16149  11.670   6.586   3.910 -0.5912 -0.2394 -0.4439
  861MOL0     N16150  10.770   6.633   3.769  0.9939  0.3685  0.4967
  861MOL0     N16151  10.700   6.553   3.684 -0.2309 -0.2379  0.1329
  861MOL0     C16152   9.796   6.104   3.047  0.8395  0.6597  0.1823
  861MOL0     C16153   9.661   6.060   3.040  0.8792 -0.0213 -0.5813
  861MOL0     C16154   9.225   6.012   3.011  0.3479 -0.3941  0.2374
  861MOL0     C16155   9.164   5.906   2.936 -1.1336 -0.4928 -0.3827
  861MOL0     C16156   9.034   5.869   2.958 -0.3114 -0.6170 -0.2744
  861MOL0     C16157   8.945   5.932   3.047 -0.5554 -0.0807 -0.1205
  861MOL0     O16158   8.814   5.901   3.072  0.3408 -0.6617 -0.3868
  861MOL0     C16159   8.761   5.773   3.041 -0.3166 -0.1620 -0.7126
  861MOL0     C16160   8.636   5.751   3.130 -0.0165  0.3369  0.4734
  861MOL0     C16161   8.503   5.762   3.044  0.2062 -1.2201 -0.2818
  861MOL0     C16162   8.390   5.700   3.128  0.4479 -0.4636  0.3678
  861MOL0     C16163   8.276   5.667   3.038 -0.1249  0.1943 -0.2516
  861MOL0     C16164   8.192   5.635   2.952 -0.5573 -0.3164  0.0020
  861MOL0     C16165   9.009   6.045   3.120  0.2417  0.2152 -0.7261
  861MOL0     C16166   9.142   6.082   3.101 -0.2188 -0.3349 -0.6408
  861MOL0     C16167   9.188   6.196   3.188 -0.6680 -0.3337 -0.0708
  861MOL0     H16168   9.521   6.339   3.151  0.1943 -0.2704  0.7588
  861MOL0     H16169   9.764   6.394   3.215  1.0966 -1.3259  1.2616
  861MOL0     H16170  10.028   6.085   3.219 -0.2107  0.3514 -0.1324
  861MOL0     H16171  10.153   6.199   3.156  1.2306 -2.5061  1.6150
  861MOL0     H16172   9.957   6.262   3.375  0.4442 -0.1000  1.5465
  861MOL0     H16173  10.083   6.373   3.315 -1.2879 -0.1872  0.9411
  861MOL0     H16174  10.265   6.241   3.379 -0.1841 -1.1528 -0.2857
  861MOL0     H16175  10.146   6.123   3.451  0.2298  0.4508  0.2357
  861MOL0     H16176  10.193   6.404   3.547  0.6596 -1.3769 -1.1394
  861MOL0     H16177  10.078   6.296   3.627  0.9735  3.1137  2.3602
  861MOL0     H16178  10.266   6.283   3.764 -2.1803  2.2087 -0.7752
  861MOL0     H16179  10.263   6.137   3.672 -1.7193  0.1591 -3.7909
  861MOL0     H16180  10.446   6.183   3.548 -2.3718  0.2996 -1.1105
  861MOL0     H16181  10.431   6.360   3.545  0.4635 -0.1531 -0.2893
  861MOL0     H16182  10.527   6.210   3.781  0.9840 -0.7209 -1.5850
  861MOL0     H16183  10.502   6.379   3.779 -1.5453 -0.4158  1.2184
  861MOL0     H16184  10.737   6.218   3.668  0.5779  0.5852 -0.3722
  861MOL0     H16185  10.664   6.319   3.548 -0.3959 -2.1370 -0.0059
  861MOL0     H16186  10.906   6.341   3.818 -3.3361 -1.9255  0.9818
  861MOL0     H16187  10.970   6.714   3.925  3.2603  0.3661  1.4735
  861MOL0     H16188  10.963   6.557   4.009 -0.8726 -0.0110 -1.1242
  861MOL0     H16189  11.159   6.478   3.845  2.1423  0.5695  2.4834
  861MOL0     H16190  11.124   6.618   3.741 -3.9441 -0.2417  0.2393
  861MOL0     H16191  11.230   6.633   4.030 -1.6435  1.3499  1.4621
  861MOL0     H16192  11.158   6.767   3.937 -0.2522 -0.6390  0.0177
  861MOL0     H16193  11.389   6.793   3.890  0.6347  0.4774 -2.7846
  861MOL0     H16194  11.337   6.686   3.770 -0.2332  0.3279 -0.3410
  861MOL0     H16195  11.454   6.566   3.636  1.2145  3.2361  0.4413
  861MOL0     H16196  11.649   6.514   3.530  1.9069 -1.8885  0.3259
  861MOL0     H16197  12.125   6.656   3.466  0.6377  1.1963  2.0511
  861MOL0     H16198  12.354   6.679   3.401 -0.2347  1.5176  1.9018
  861MOL0     H16199  12.659   6.719   3.545 -0.4275 -0.4811 -1.3944
  861MOL0     H16200  12.614   6.623   3.695 -3.3499 -1.0839 -0.7952
  861MOL0     H16201  12.792   6.523   3.462  0.5169  1.3013 -0.2411
  861MOL0     H16202  12.866   6.605   3.583  0.3720 -0.8902 -0.6367
  861MOL0     H16203  12.801   6.435   3.757 -1.1780 -1.9580  1.0511
  861MOL0     H16204  12.721   6.332   3.640  2.3496 -3.5722  1.1394
  861MOL0     H16205  13.013   6.417   3.630 -0.3070  0.1983  1.1792
  861MOL0     H16206  12.946   6.304   3.519  4.0848 -0.9067  0.2951
  861MOL0     H16207  12.915   6.127   3.690  4.1939 -1.5613  0.2974
  861MOL0     H16208  12.906   6.241   3.825 -2.4556 -0.3648 -0.2910
  861MOL0     H16209  13.148   6.170   3.632 -2.8086  1.5215 -2.6649
  861MOL0     H16210  13.163   6.274   3.764  2.5627 -2.0071 -1.2549
  861MOL0     H16211  13.072   5.988   3.813 -1.5694  1.7567  0.4462
  861MOL0     H16212  13.117   6.106   3.936  1.6382 -3.2678  1.6099
  861MOL0     H16213  13.317   5.986   3.904  0.7986  0.1539 -1.4205
  861MOL0     H16214  13.303   5.987   3.731  2.4788 -0.5741 -0.4443
  861MOL0     H16215  12.476   6.395   3.701  0.7373  2.2120  1.3079
  861MOL0     H16216  12.229   6.406   3.790 -1.9375  0.4509  0.3836
  861MOL0     H16217  11.890   6.572   3.885 -0.6734 -1.0843 -1.1146
  861MOL0     H16218  11.664   6.615   4.015 -1.6252 -1.0967 -0.2543
  861MOL0     H16219   9.876   6.040   3.012 -0.4995 -2.3412  2.2434
  861MOL0     H16220   9.644   5.964   2.992  1.1866 -0.1769 -0.3800
  861MOL0     H16221   9.209   5.853   2.852 -3.4066  0.6306 -2.4085
  861MOL0     H16222   8.995   5.783   2.905  2.0058 -1.1784 -1.1473
  861MOL0     H16223   8.832   5.694   3.068 -0.4088  0.7671  2.5979
  861MOL0     H16224   8.736   5.766   2.935 -1.2211 -0.1495 -0.5055
  861MOL0     H16225   8.632   5.820   3.214  2.0170  1.0970 -0.0232
  861MOL0     H16226   8.649   5.651   3.174  0.0477 -0.2807 -0.8828
  861MOL0     H16227   8.518   5.711   2.949  0.9421  1.6162 -1.8199
  861MOL0     H16228   8.482   5.865   3.011  2.5665  0.6737  3.4158
  861MOL0     H16229   8.429   5.604   3.163  0.4087 -0.4913  0.3344
  861MOL0     H16230   8.352   5.761   3.211 -1.5760 -2.0719  0.7114
  861MOL0     H16231   8.113   5.609   2.885 -1.0747  0.0595  0.4561
  861MOL0     H16232   8.953   6.102   3.194 -2.2862 -1.5997 -1.0875
  861MOL0     H16233   9.099   6.245   3.229 -0.2900 -0.4050  0.8698
  861MOL0     H16234   9.243   6.171   3.280 -2.3829 -0.6302  0.9019
  861MOL0     H16235   9.221   6.282   3.129 -0.1395 -1.0460 -0.8333
  862MOL0     O16236   2.369   8.634   6.847 -0.0301  0.5773  0.5713
  862MOL0     C16237   2.285   8.652   6.761  0.8683 -0.6494 -0.1243
  862MOL0     O16238   2.318   8.693   6.634 -0.0558 -0.7710 -0.7654
  862MOL0     C16239   2.446   8.693   6.600 -0.0336  0.2631  0.6449
  862MOL0     C16240   2.529   8.799   6.632 -0.2774  0.9647  1.0053
  862MOL0     C16241   2.667   8.788   6.587  0.4644  0.6875  0.2582
  862MOL0     C16242   2.711   8.672   6.518  0.1150 -0.0783  0.3018
  862MOL0     O16243   2.848   8.656   6.490  0.8769 -0.0101  0.3151
  862MOL0     C16244   2.944   8.649   6.589 -0.2297  0.0651 -0.6644
  862MOL0     C16245   3.088   8.695   6.541 -0.2566 -0.3822  0.9289
  862MOL0     C16246   3.123   8.615   6.413  0.2690  0.2496 -0.4154
  862MOL0     C16247   3.269   8.630   6.369  0.8285 -0.3007  1.3253
  862MOL0     C16248   3.282   8.545   6.234 -0.3390  0.1859 -0.4828
  862MOL0     C16249   3.424   8.521   6.177 -0.5961 -0.7475 -1.0368
  862MOL0     C16250   3.495   8.652   6.125  0.2690  0.6608 -0.9578
  862MOL0     C16251   3.602   8.629   6.019 -0.1654 -0.1765 -0.3542
  862MOL0     N16252   3.710   8.533   6.055  0.1231  0.1194  0.1108
  862MOL0     C16253   3.815   8.555   6.130  0.2011  0.2161  0.1888
  862MOL0     C16254   3.894   8.447   6.113 -0.2688  0.1830 -0.4583
  862MOL0     C16255   4.026   8.420   6.180  0.0681  1.2073 -0.5601
  862MOL0     C16256   4.144   8.417   6.084 -0.6881 -0.2720 -0.2729
  862MOL0     C16257   4.267   8.348   6.151 -0.5186 -0.3078 -0.0500
  862MOL0     C16258   4.388   8.360   6.067  0.1382  0.7415 -0.0757
  862MOL0     O16259   4.494   8.308   6.144 -0.5963 -0.3743 -0.2610
  862MOL0     C16260   4.622   8.321   6.092 -0.1610  0.6121  0.4492
  862MOL0     C16261   4.646   8.340   5.956 -0.0452  0.7467 -0.1231
  862MOL0     C16262   4.777   8.322   5.909 -1.0073  0.3625 -0.3032
  862MOL0     C16263   4.883   8.300   6.000  1.1248 -1.1350 -0.3056
  862MOL0     C16264   5.025   8.294   5.952  0.2242  1.0048 -0.1767
  862MOL0     O16265   5.125   8.330   6.033  0.3928  0.1392 -0.2061
  862MOL0     C16266   5.251   8.307   5.978 -0.8127 -0.1679 -0.2045
  862MOL0     C16267   5.316   8.410   5.908  0.1125  0.4452 -0.4255
  862MOL0     C16268   5.446   8.394   5.851  0.6576  0.0675  0.2113
  862MOL0     C16269   5.510   8.269   5.856 -0.1254 -0.6112 -0.4638
  862MOL0     O16270   5.634   8.266   5.802 -0.5095 -0.0688  0.3251
  862MOL0     C16271   5.684   8.137   5.752 -0.3328  0.1075 -0.4541
  862MOL0     C16272   5.802   8.162   5.670  0.2517  0.2380  1.1036
  862MOL0     C16273   5.835   8.037   5.587 -0.1810  0.7584  0.5302
  862MOL0     C16274   5.932   8.079   5.470  0.4394 -0.3546 -0.4384
  862MOL0     C16275   5.996   7.967   5.380  0.4543 -0.2638  0.2408
  862MOL0     C16276   6.074   7.867   5.465  0.1270  0.2843 -0.5029
  862MOL0     C16277   6.009   7.730   5.450 -0.1066 -0.6667  0.0547
  862MOL0     C16278   6.017   7.681   5.308 -0.0664  0.9179  0.6618
  862MOL0    Cl16279   5.985   7.511   5.278 -0.5310  0.4043 -0.6097
  862MOL0     C16280   5.444   8.160   5.917  1.1930 -0.2216 -0.3615
  862MOL0     C16281   5.313   8.178   5.980  0.8061 -0.1928 -0.0037
  862MOL0     O16282   5.037   8.250   5.841  0.0037  0.3058  0.3699
  862MOL0     C16283   4.864   8.291   6.137 -0.0437  0.5795  0.3156
  862MOL0     C16284   4.730   8.299   6.180 -0.3041  0.8948 -0.4344
  862MOL0     N16285   3.822   8.359   6.037  0.1093  0.4330 -0.5167
  862MOL0     N16286   3.716   8.409   5.997 -0.4294 -0.5007 -0.1373
  862MOL0     C16287   2.613   8.571   6.485 -0.6619 -0.3129  0.4053
  862MOL0     C16288   2.480   8.588   6.519 -0.2753  0.6945 -0.5172
  862MOL0     C16289   2.139   8.641   6.806  0.8028  0.5939 -0.0858
  862MOL0     C16290   2.114   8.620   6.942  0.4018 -0.7072  0.6658
  862MOL0     C16291   1.989   8.597   6.993  0.2906 -0.1623 -0.0425
  862MOL0     C16292   1.875   8.613   6.911  0.6771 -0.8172 -0.9032
  862MOL0     O16293   1.755   8.593   6.979  0.9821  0.7390  0.1400
  862MOL0     C16294   1.632   8.616   6.914  0.7253 -0.1650 -0.7956
  862MOL0     C16295   1.571   8.496   6.842 -0.7045 -0.4592 -0.0133
  862MOL0     C16296   1.453   8.531   6.750  0.4676 -0.3705 -0.0429
  862MOL0     C16297   1.451   8.683   6.712  1.6160 -0.2271 -0.5679
  862MOL0     C16298   1.348   8.690   6.599  1.3231  0.0569 -0.0137
  862MOL0     C16299   1.273   8.693   6.507 -0.3536 -0.0709 -0.1461
  862MOL0     C16300   1.893   8.645   6.775  0.5704  0.8153 -0.8382
  862MOL0     C16301   2.025   8.661   6.720  0.3442  1.2758 -0.0700
  862MOL0     C16302   2.039   8.679   6.570  0.8541  0.9555 -0.1575
  862MOL0     H16303   2.495   8.887   6.686  1.1002  1.0259  1.8103
  862MOL0     H16304   2.740   8.866   6.606  1.3850 -0.0290 -0.2684
  862MOL0     H16305   2.916   8.705   6.679 -1.2277 -2.6489  0.8453
  862MOL0     H16306   2.961   8.545   6.618  2.7590  0.8536  0.8622
  862MOL0     H16307   3.157   8.675   6.624  1.7033  0.6896 -0.3625
  862MOL0     H16308   3.093   8.800   6.510 -1.5484 -1.0778 -1.9448
  862MOL0     H16309   3.063   8.655   6.331  2.4758  2.6431 -1.0043
  862MOL0     H16310   3.103   8.510   6.436 -1.7319  0.6450 -0.1711
  862MOL0     H16311   3.278   8.738   6.355 -1.7885 -0.1897 -0.1080
  862MOL0     H16312   3.346   8.599   6.440  5.3940  1.1505 -2.3966
  862MOL0     H16313   3.233   8.450   6.254 -1.0014  0.5176 -0.4892
  862MOL0     H16314   3.220   8.601   6.163  0.1237  3.3110  1.3572
  862MOL0     H16315   3.476   8.464   6.255 -1.2878  0.5015  0.3686
  862MOL0     H16316   3.407   8.452   6.094 -1.8258 -2.7395  0.7761
  862MOL0     H16317   3.560   8.688   6.205  1.8748 -3.9707  0.0840
  862MOL0     H16318   3.423   8.727   6.090  0.6386  2.5936  2.0923
  862MOL0     H16319   3.548   8.600   5.929 -1.1106  0.3371  0.0351
  862MOL0     H16320   3.650   8.725   5.997  2.5588 -1.4692 -0.4470
  862MOL0     H16321   3.852   8.647   6.174  0.8461  0.2860 -0.4693
  862MOL0     H16322   4.046   8.483   6.267 -0.6256 -3.4635  3.4506
  862MOL0     H16323   4.023   8.324   6.233 -1.9424  2.6263  2.1460
  862MOL0     H16324   4.123   8.366   5.989  1.9910  2.1406 -2.3308
  862MOL0     H16325   4.171   8.519   6.055  3.1208 -1.5223 -1.7765
  862MOL0     H16326   4.250   8.246   6.187  2.5856 -0.8862  0.0389
  862MOL0     H16327   4.279   8.409   6.241  3.1622 -0.7718 -0.0650
  862MOL0     H16328   4.408   8.462   6.034  0.6733  0.2868 -1.2379
  862MOL0     H16329   4.369   8.303   5.975 -1.7406  1.0950  0.0606
  862MOL0     H16330   4.574   8.359   5.877  1.8557 -2.8541 -3.0295
  862MOL0     H16331   4.809   8.319   5.805  1.7999 -1.0154  0.4957
  862MOL0     H16332   5.275   8.511   5.908  1.3444  0.9620 -0.4682
  862MOL0     H16333   5.496   8.484   5.814 -1.0228  1.4681  1.1827
  862MOL0     H16334   5.709   8.074   5.838 -0.1702  1.8446  0.8399
  862MOL0     H16335   5.606   8.092   5.689  0.1298  0.4161 -1.2547
  862MOL0     H16336   5.774   8.242   5.601 -1.9618 -0.3413  1.2461
  862MOL0     H16337   5.895   8.196   5.717  1.2595  0.5107 -0.9705
  862MOL0     H16338   5.865   7.953   5.651 -0.3131  0.1129 -0.2374
  862MOL0     H16339   5.743   7.996   5.544  1.0270 -1.9165  0.2781
  862MOL0     H16340   6.014   8.137   5.513 -0.8436  0.0565  1.5479
  862MOL0     H16341   5.878   8.142   5.399  1.4128  1.8221  0.6757
  862MOL0     H16342   6.072   8.013   5.317  2.1861 -2.1775  0.8445
  862MOL0     H16343   5.920   7.919   5.318  0.4365 -0.1345  0.1620
  862MOL0     H16344   6.178   7.870   5.432 -0.2482  0.9026 -1.7160
  862MOL0     H16345   6.080   7.887   5.572 -0.2528 -2.5817  0.1331
  862MOL0     H16346   5.906   7.740   5.486 -0.3878  0.1579 -0.9112
  862MOL0     H16347   6.071   7.665   5.512  3.9228  2.6784 -0.0077
  862MOL0     H16348   5.935   7.730   5.255  1.0417  4.1333  1.6820
  862MOL0     H16349   6.104   7.720   5.255 -0.7654 -0.2735 -1.4764
  862MOL0     H16350   5.509   8.073   5.922  1.4074 -0.0039  0.8544
  862MOL0     H16351   5.257   8.103   6.034 -1.2299 -0.6330 -2.5598
  862MOL0     H16352   4.954   8.276   6.194 -0.7160 -1.9393  0.8190
  862MOL0     H16353   4.708   8.286   6.286  1.3708 -0.8390 -0.2424
  862MOL0     H16354   2.638   8.469   6.458  0.6268  0.4640 -1.6225
  862MOL0     H16355   2.396   8.521   6.505 -0.8467  0.8570  1.7930
  862MOL0     H16356   2.189   8.626   7.021  1.7658  0.8363 -0.6591
  862MOL0     H16357   1.976   8.582   7.100 -1.8737  1.2406 -0.0513
  862MOL0     H16358   1.635   8.712   6.861 -1.6070  1.0531  1.0396
  862MOL0     H16359   1.566   8.645   6.997  1.8952 -1.7077  0.7537
  862MOL0     H16360   1.552   8.409   6.906  2.6553 -1.5689 -0.3674
  862MOL0     H16361   1.657   8.475   6.778  1.8536  0.3689  2.9095
  862MOL0     H16362   1.357   8.516   6.800 -0.1237  1.3967 -0.5575
  862MOL0     H16363   1.469   8.479   6.656  0.6580  2.0295 -1.4330
  862MOL0     H16364   1.429   8.751   6.795  0.0563  2.1292 -2.7510
  862MOL0     H16365   1.548   8.708   6.668  2.0862 -1.6111 -0.3748
  862MOL0     H16366   1.211   8.702   6.421 -3.0644 -0.1753  1.6937
  862MOL0     H16367   1.802   8.652   6.716 -2.7370 -3.2359  3.0940
  862MOL0     H16368   1.943   8.656   6.523  0.7281 -2.4392  1.4239
  862MOL0     H16369   2.065   8.784   6.554  0.9205  1.1797  1.2488
  862MOL0     H16370   2.115   8.611   6.530  0.6045  0.8375 -0.4339
  863MOL0     O16371   6.109   1.358   1.119  0.2250 -0.0097  0.0838
  863MOL0     C16372   6.072   1.466   1.153 -0.5183 -0.0282 -0.3079
  863MOL0     O16373   6.159   1.561   1.192  0.3107  0.7829 -0.6287
  863MOL0     C16374   6.289   1.546   1.226  0.1193 -0.1670 -0.3768
  863MOL0     C16375   6.363   1.432   1.253  0.3713  0.0410 -0.2829
  863MOL0     C16376   6.488   1.441   1.316  1.3008  1.5439  0.2373
  863MOL0     C16377   6.554   1.561   1.339  0.3262  0.2376  0.1184
  863MOL0     O16378   6.685   1.575   1.361 -0.2143 -0.0085  0.3507
  863MOL0     C16379   6.749   1.506   1.474  0.1041 -0.4032  0.6109
  863MOL0     C16380   6.893   1.456   1.445  0.8381 -0.5448 -1.1351
  863MOL0     C16381   6.980   1.561   1.378  0.1263  0.4596  0.5217
  863MOL0     C16382   7.128   1.516   1.354  0.3665  0.5057  0.4904
  863MOL0     C16383   7.218   1.630   1.310 -0.5957 -0.1660  0.3134
  863MOL0     C16384   7.348   1.583   1.242  1.1041 -0.3392 -0.2631
  863MOL0     C16385   7.374   1.644   1.106 -0.4069 -0.0467  0.2081
  863MOL0     C16386   7.500   1.569   1.045 -0.0130  0.2306 -0.9429
  863MOL0     N16387   7.554   1.647   0.932 -0.6272 -0.1224  0.3169
  863MOL0     C16388   7.524   1.778   0.894 -0.2685 -0.0465  0.0219
  863MOL0     C16389   7.614   1.823   0.801  0.4740  0.4260  0.8765
  863MOL0     C16390   7.605   1.960   0.729 -1.0079  0.1787 -0.4187
  863MOL0     C16391   7.741   2.036   0.750 -0.5689 -0.7173  0.1457
  863MOL0     C16392   7.740   2.166   0.673  0.6093  0.3802 -1.2759
  863MOL0     C16393   7.847   2.275   0.702  0.2395  0.6614  0.0686
  863MOL0     O16394   7.973   2.212   0.654 -0.1254 -0.1722  0.0964
  863MOL0     C16395   8.094   2.277   0.692  0.0914  0.6176  0.2361
  863MOL0     C16396   8.199   2.192   0.730  0.8665  1.3000  0.0699
  863MOL0     C16397   8.320   2.234   0.781 -0.4707 -0.1393 -0.3390
  863MOL0     C16398   8.337   2.370   0.813 -1.0380 -0.6956 -1.2072
  863MOL0     C16399   8.461   2.423   0.875 -0.9010  0.4319  0.3108
  863MOL0     O16400   8.563   2.332   0.858  0.8551 -0.2746  0.1979
  863MOL0     C16401   8.696   2.376   0.870 -0.2592 -0.4868  0.1206
  863MOL0     C16402   8.790   2.307   0.948 -0.7300  0.5917  0.0039
  863MOL0     C16403   8.924   2.322   0.931 -1.4755  0.2858 -0.3189
  863MOL0     C16404   8.976   2.416   0.837 -0.2054 -0.3447  0.1023
  863MOL0     O16405   9.115   2.425   0.840 -0.1156  0.1338  0.4962
  863MOL0     C16406   9.165   2.560   0.832  0.4038  0.6123 -0.1511
  863MOL0     C16407   9.319   2.555   0.835  0.3172 -0.5296 -0.2106
  863MOL0     C16408   9.374   2.487   0.964  0.1078  0.0679 -0.4935
  863MOL0     C16409   9.530   2.482   0.961 -0.2831 -1.0429 -0.3980
  863MOL0     C16410   9.588   2.411   1.089 -0.4244 -0.1578 -0.3562
  863MOL0     C16411   9.749   2.427   1.081 -0.4307  0.0665 -0.6569
  863MOL0     C16412   9.792   2.307   0.985  0.1996 -0.4788 -0.1940
  863MOL0     C16413   9.944   2.280   0.996 -0.0934 -0.0642 -0.6065
  863MOL0    Cl16414   9.993   2.178   0.860 -0.1733  0.0243  0.5457
  863MOL0     C16415   8.884   2.503   0.763 -0.1631  0.4265  0.3127
  863MOL0     C16416   8.742   2.481   0.784 -0.5732  0.9591  0.4336
  863MOL0     O16417   8.472   2.538   0.915  0.7070  0.1679  0.2861
  863MOL0     C16418   8.230   2.457   0.782 -0.0779  0.2844  1.0327
  863MOL0     C16419   8.111   2.412   0.727  0.3032  1.0063 -0.1520
  863MOL0     N16420   7.703   1.715   0.785 -0.4667 -0.1352  0.4126
  863MOL0     N16421   7.664   1.611   0.854  0.7731  0.0600 -0.2389
  863MOL0     C16422   6.476   1.676   1.313 -0.5845  1.1213  0.3983
  863MOL0     C16423   6.340   1.669   1.271 -1.0412  0.4780 -0.5113
  863MOL0     C16424   5.929   1.504   1.122 -0.4213  0.1487 -0.0219
  863MOL0     C16425   5.903   1.629   1.063 -0.1222 -0.0410 -0.3539
  863MOL0     C16426   5.776   1.683   1.056  0.0179 -0.5667 -0.1719
  863MOL0     C16427   5.669   1.620   1.123  0.2979 -0.3934  0.4349
  863MOL0     O16428   5.553   1.693   1.099  0.1212  1.0195 -0.4512
  863MOL0     C16429   5.442   1.660   1.182 -0.2928 -0.7469 -0.2451
  863MOL0     C16430   5.357   1.554   1.104  0.3127  0.7247 -0.4162
  863MOL0     C16431   5.240   1.501   1.199  0.3230  0.7207 -0.1881
  863MOL0     C16432   5.194   1.357   1.146  0.2129  0.1161  0.2996
  863MOL0     C16433   5.094   1.314   1.245  0.7421  0.6733  0.5214
  863MOL0     C16434   5.015   1.258   1.315 -1.0188 -0.1130 -0.5655
  863MOL0     C16435   5.689   1.496   1.182  0.3363  0.0815  0.4913
  863MOL0     C16436   5.812   1.429   1.174 -0.4352  0.2204  0.6593
  863MOL0     C16437   5.822   1.282   1.221  0.2778 -0.1368  0.7494
  863MOL0     H16438   6.326   1.334   1.221  0.2075  0.6431 -2.0669
  863MOL0     H16439   6.544   1.350   1.336  0.1062  0.7384  0.0001
  863MOL0     H16440   6.748   1.565   1.566 -4.6288 -0.8204  1.0574
  863MOL0     H16441   6.685   1.426   1.512 -2.7086  1.2205 -0.4037
  863MOL0     H16442   6.881   1.366   1.384  0.7053 -0.8743 -0.6305
  863MOL0     H16443   6.945   1.431   1.538  0.0125  0.8887 -0.2614
  863MOL0     H16444   6.987   1.654   1.436  1.3717  1.7466 -1.5475
  863MOL0     H16445   6.939   1.601   1.285  0.0064  1.8240  1.1316
  863MOL0     H16446   7.169   1.461   1.439  0.8958 -2.2337 -1.4207
  863MOL0     H16447   7.126   1.441   1.275  0.3025  1.8351 -0.8108
  863MOL0     H16448   7.162   1.696   1.242 -1.6569 -1.3111  0.0551
  863MOL0     H16449   7.251   1.701   1.387  4.2319 -0.8511 -0.7709
  863MOL0     H16450   7.432   1.612   1.306  0.2952  0.2349  0.5695
  863MOL0     H16451   7.330   1.475   1.231 -2.8971 -0.2582  2.9058
  863MOL0     H16452   7.398   1.750   1.121 -1.6515  0.2942 -0.1005
  863MOL0     H16453   7.293   1.635   1.033  0.7347 -2.7158 -0.8477
  863MOL0     H16454   7.578   1.556   1.121 -2.0133  0.0844  1.2311
  863MOL0     H16455   7.464   1.477   0.998 -0.6473 -0.5874  1.0092
  863MOL0     H16456   7.436   1.829   0.932  0.7825  0.0447  2.5561
  863MOL0     H16457   7.580   1.954   0.623 -1.0803 -0.1984 -0.3846
  863MOL0     H16458   7.526   2.019   0.775 -0.1049  1.3534 -0.3282
  863MOL0     H16459   7.767   2.065   0.853 -2.6415  0.7711  0.3236
  863MOL0     H16460   7.822   1.971   0.717  0.1780  0.1233  0.2893
  863MOL0     H16461   7.651   2.223   0.699 -0.0153 -1.6132  1.4540
  863MOL0     H16462   7.737   2.139   0.567  0.2908 -2.0978 -0.7180
  863MOL0     H16463   7.829   2.300   0.806 -0.1231  3.2289 -0.5490
  863MOL0     H16464   7.822   2.366   0.646 -1.2778  1.8730  2.5391
  863MOL0     H16465   8.180   2.089   0.702  0.9265  1.7974 -1.9332
  863MOL0     H16466   8.395   2.158   0.801 -0.4190 -0.2220 -0.8449
  863MOL0     H16467   8.751   2.222   1.003 -0.6941  0.7638  0.2959
  863MOL0     H16468   8.992   2.250   0.973 -1.2211 -0.2122 -1.5413
  863MOL0     H16469   9.130   2.604   0.738  1.6393 -0.4055 -1.1279
  863MOL0     H16470   9.130   2.627   0.911  2.8914  0.7131  0.9451
  863MOL0     H16471   9.350   2.494   0.749 -0.8844 -0.7490 -0.5144
  863MOL0     H16472   9.348   2.659   0.815 -0.7277 -0.6014 -2.4530
  863MOL0     H16473   9.346   2.537   1.057  0.6367 -3.2457  1.6388
  863MOL0     H16474   9.329   2.387   0.967 -0.6023  0.4017  0.4063
  863MOL0     H16475   9.567   2.584   0.953  2.4839 -2.0466 -1.3201
  863MOL0     H16476   9.569   2.429   0.874  2.8194  0.3597  0.0132
  863MOL0     H16477   9.556   2.307   1.095 -1.1809  0.1472  1.7784
  863MOL0     H16478   9.550   2.453   1.183 -2.0200 -1.8229 -0.2127
  863MOL0     H16479   9.783   2.526   1.047  1.4500 -0.3795 -0.2037
  863MOL0     H16480   9.790   2.411   1.182 -1.5067  1.1098 -0.0167
  863MOL0     H16481   9.760   2.324   0.882 -1.7318 -1.2212  0.2427
  863MOL0     H16482   9.750   2.212   1.019 -1.4285 -0.1235 -1.1332
  863MOL0     H16483  10.003   2.373   1.000  1.0433 -0.8151  1.2700
  863MOL0     H16484   9.966   2.241   1.095 -2.9364  1.4045  0.7464
  863MOL0     H16485   8.924   2.578   0.696 -1.2128 -0.3485 -1.2353
  863MOL0     H16486   8.662   2.528   0.728 -0.6096  0.8721  0.4122
  863MOL0     H16487   8.242   2.565   0.792 -5.4161  1.5439 -1.7760
  863MOL0     H16488   8.035   2.486   0.707 -0.4684  0.2487 -0.0840
  863MOL0     H16489   6.525   1.772   1.325  0.6635  0.5248  0.2755
  863MOL0     H16490   6.290   1.765   1.261 -0.4274  0.7081 -1.5285
  863MOL0     H16491   5.981   1.694   1.024 -0.1099  1.5352  2.0833
  863MOL0     H16492   5.767   1.777   1.002  0.9460 -0.7278 -0.6205
  863MOL0     H16493   5.374   1.739   1.215  0.7815 -0.3608  1.1333
  863MOL0     H16494   5.481   1.621   1.276  1.2961 -0.3848 -0.7223
  863MOL0     H16495   5.420   1.471   1.074  0.4861  0.3602  0.9099
  863MOL0     H16496   5.323   1.604   1.012  2.1191  3.8929  0.4732
  863MOL0     H16497   5.161   1.576   1.207  0.9647  1.4529 -0.5863
  863MOL0     H16498   5.279   1.482   1.299  1.9838  0.7766 -0.7962
  863MOL0     H16499   5.141   1.365   1.051  1.6009 -1.1468 -0.6284
  863MOL0     H16500   5.282   1.294   1.137  1.3890  1.6312  0.7134
  863MOL0     H16501   4.948   1.208   1.382  1.1331 -0.5651  1.3807
  863MOL0     H16502   5.603   1.446   1.224 -0.0549  1.1409  0.9985
  863MOL0     H16503   5.886   1.265   1.308  3.7567  1.8609 -1.2140
  863MOL0     H16504   5.722   1.245   1.245 -0.5890  0.4487 -1.6093
  863MOL0     H16505   5.845   1.211   1.141 -1.2620 -0.6495  0.7201
  864MOL0     O16506   1.556   9.184   9.174 -0.5706 -0.3076 -0.7651
  864MOL0     C16507   1.514   9.290   9.130 -0.7927 -0.4216 -0.6061
  864MOL0     O16508   1.591   9.411   9.116 -0.3108  0.7828  0.0418
  864MOL0     C16509   1.727   9.405   9.145  0.0042  0.2953 -0.9427
  864MOL0     C16510   1.776   9.362   9.268  0.2093 -0.3421 -0.9706
  864MOL0     C16511   1.912   9.390   9.296  0.2779  0.4304 -0.6091
  864MOL0     C16512   2.009   9.442   9.205  0.7068  0.4285 -0.3383
  864MOL0     O16513   2.138   9.462   9.239  0.2961  0.7338 -0.0013
  864MOL0     C16514   2.192   9.421   9.361 -0.4979 -0.1018 -0.6201
  864MOL0     C16515   2.350   9.389   9.354  0.0285  0.1757  0.0059
  864MOL0     C16516   2.443   9.511   9.337 -0.1955  0.9798  0.4363
  864MOL0     C16517   2.580   9.478   9.303  0.7384  0.2156 -0.1670
  864MOL0     C16518   2.668   9.609   9.298  0.2005  0.2506 -0.4085
  864MOL0     C16519   2.779   9.641   9.192 -0.3499 -0.0523 -0.4406
  864MOL0     C16520   2.905   9.557   9.213 -0.5818 -0.5549  0.5687
  864MOL0     C16521   2.971   9.567   9.350 -0.4544  0.0118 -0.4585
  864MOL0     N16522   3.059   9.685   9.370 -0.2764 -0.2716  0.5670
  864MOL0     C16523   3.151   9.753   9.290  0.2973  0.0477  1.1066
  864MOL0     C16524   3.201   9.851   9.370  0.6982 -0.2260  0.5243
  864MOL0     C16525   3.292   9.956   9.330  0.3550  0.1061  0.7306
  864MOL0     C16526   3.417   9.884   9.284 -0.3838 -0.2463  0.2479
  864MOL0     C16527   3.521   9.991   9.260 -0.3247 -0.2722  0.0790
  864MOL0     C16528   3.663   9.930   9.235 -0.7915  0.3480  0.3973
  864MOL0     O16529   3.748  10.032   9.169  0.3576 -0.5903 -0.0673
  864MOL0     C16530   3.877  10.010   9.130  0.4418 -0.0035  0.7795
  864MOL0     C16531   3.926  10.094   9.035  0.1779  0.1746  0.0579
  864MOL0     C16532   4.055  10.076   8.981 -0.0311  0.5014 -0.7222
  864MOL0     C16533   4.133   9.962   9.014  1.6071  0.1980 -0.0324
  864MOL0     C16534   4.262   9.934   8.952  0.2452 -0.1627  0.5024
  864MOL0     O16535   4.323   9.813   8.981  0.0228 -0.1692  0.1214
  864MOL0     C16536   4.460   9.793   8.959  0.4738 -0.7986  0.2787
  864MOL0     C16537   4.552   9.873   9.020 -0.0144  0.4112  0.3544
  864MOL0     C16538   4.689   9.840   9.026 -0.6132 -0.7595 -0.3372
  864MOL0     C16539   4.738   9.720   8.956  0.0055 -0.4359 -0.5637
  864MOL0     O16540   4.866   9.667   8.964 -0.4034 -0.3017  0.0267
  864MOL0     C16541   4.965   9.757   9.010  0.1806  0.3777 -0.1135
  864MOL0     C16542   5.111   9.689   8.991  0.5185 -0.6020 -0.0595
  864MOL0     C16543   5.219   9.783   9.025 -0.8312 -0.2292  0.0973
  864MOL0     C16544   5.357   9.709   9.003 -0.5109  0.4456  0.0126
  864MOL0     C16545   5.473   9.777   9.074  0.5976  0.0463 -0.1060
  864MOL0     C16546   5.597   9.687   9.069 -0.0931  0.1171  0.3758
  864MOL0     C16547   5.703   9.756   9.155 -0.2016 -0.9738  0.1637
  864MOL0     C16548   5.841   9.693   9.136  0.3721 -1.2521  0.2562
  864MOL0    Cl16549   5.903   9.748   8.975  0.2882  0.3089  0.2636
  864MOL0     C16550   4.643   9.645   8.887 -0.0824 -0.9390 -0.3502
  864MOL0     C16551   4.506   9.682   8.893 -0.3610 -0.7474  0.9102
  864MOL0     O16552   4.317  10.026   8.886 -0.3770 -0.1088 -0.0314
  864MOL0     C16553   4.083   9.872   9.110 -0.6196  0.2887 -0.3286
  864MOL0     C16554   3.954   9.900   9.159  0.7269  0.5448  0.0972
  864MOL0     N16555   3.129   9.852   9.480 -0.0405  0.3315 -0.6892
  864MOL0     N16556   3.050   9.745   9.487  0.0825 -0.1560  0.0546
  864MOL0     C16557   1.954   9.477   9.079 -0.8444  0.1136 -0.6657
  864MOL0     C16558   1.815   9.463   9.051  0.8634  0.2739  0.1265
  864MOL0     C16559   1.369   9.301   9.097 -0.3346  0.5218 -0.2878
  864MOL0     C16560   1.283   9.200   9.143  1.1831 -0.1945  0.6562
  864MOL0     C16561   1.139   9.216   9.127  0.5128 -0.3297 -0.7329
  864MOL0     C16562   1.079   9.331   9.073  1.4511 -0.4527 -0.0871
  864MOL0     O16563   0.939   9.348   9.068 -0.5027 -0.2321  0.2209
  864MOL0     C16564   0.849   9.255   9.130  0.2212  1.1711 -0.8278
  864MOL0     C16565   0.706   9.286   9.095 -0.5059 -0.4221  0.0702
  864MOL0     C16566   0.652   9.380   9.213  0.6469 -0.4691 -1.3284
  864MOL0     C16567   0.515   9.449   9.183 -0.4227  0.0167 -0.6593
  864MOL0     C16568   0.416   9.343   9.189 -0.0101  0.5491  0.4034
  864MOL0     C16569   0.351   9.243   9.194 -0.7050  0.1767 -0.2757
  864MOL0     C16570   1.164   9.428   9.030  0.1803 -0.7414 -0.5645
  864MOL0     C16571   1.303   9.420   9.037 -0.0577  0.5085  0.3986
  864MOL0     C16572   1.370   9.546   8.982 -0.5465  0.1499 -0.3224
  864MOL0     H16573   1.713   9.305   9.336  2.9059 -0.3710  1.6919
  864MOL0     H16574   1.950   9.338   9.383 -0.7467 -0.8018 -0.8585
  864MOL0     H16575   2.194   9.510   9.425 -1.3945 -1.5823  1.5811
  864MOL0     H16576   2.137   9.340   9.409  0.9751 -1.6471 -1.4454
  864MOL0     H16577   2.368   9.318   9.272 -0.2265 -1.2790  1.1658
  864MOL0     H16578   2.378   9.342   9.449  0.7070  1.5887  0.5321
  864MOL0     H16579   2.442   9.577   9.424  3.0261  0.0816  1.2898
  864MOL0     H16580   2.400   9.559   9.249 -0.0554  0.2488 -0.0395
  864MOL0     H16581   2.621   9.417   9.384  0.2925 -0.5964 -0.5426
  864MOL0     H16582   2.587   9.429   9.206  3.2817  0.5104 -0.2021
  864MOL0     H16583   2.602   9.696   9.290 -0.1304  0.1343  0.7671
  864MOL0     H16584   2.713   9.615   9.398 -2.6881 -2.3961  1.2640
  864MOL0     H16585   2.746   9.620   9.090  1.2626 -0.2704 -0.9514
  864MOL0     H16586   2.817   9.743   9.195  1.1787 -0.5610 -1.3574
  864MOL0     H16587   2.973   9.573   9.129 -1.3238 -1.5766 -0.2750
  864MOL0     H16588   2.874   9.453   9.197 -1.4097 -0.3022  0.4791
  864MOL0     H16589   2.901   9.568   9.433 -0.8295 -1.1572 -0.7426
  864MOL0     H16590   3.031   9.476   9.344  0.5582  0.7374 -3.5986
  864MOL0     H16591   3.195   9.742   9.191  0.1671 -0.5729  1.1163
  864MOL0     H16592   3.253  10.013   9.245 -2.8415 -2.2752  0.4289
  864MOL0     H16593   3.318  10.026   9.411 -0.1268  1.6477 -0.3969
  864MOL0     H16594   3.454   9.810   9.356 -0.9994  0.5437  1.4133
  864MOL0     H16595   3.391   9.831   9.192 -2.8258  1.0925  0.0845
  864MOL0     H16596   3.525  10.072   9.334 -0.6627 -1.4228  1.3995
  864MOL0     H16597   3.496  10.042   9.166  3.2626  0.2857 -0.7205
  864MOL0     H16598   3.659   9.844   9.168  0.2627  0.2191  0.4890
  864MOL0     H16599   3.707   9.895   9.329 -1.1706 -0.3054  0.3367
  864MOL0     H16600   3.870  10.185   9.015 -0.8797 -0.6268 -0.7559
  864MOL0     H16601   4.090  10.152   8.912  2.2858  0.2174  0.0854
  864MOL0     H16602   4.523   9.963   9.073  0.1318  0.4563  0.3560
  864MOL0     H16603   4.741   9.901   9.098 -2.1112  0.5904 -0.3376
  864MOL0     H16604   4.958   9.852   8.957  0.1121 -0.5243 -1.7988
  864MOL0     H16605   4.950   9.773   9.117  1.9867  0.0175  0.2128
  864MOL0     H16606   5.125   9.601   9.055  2.1973  0.8991  1.8100
  864MOL0     H16607   5.123   9.661   8.886  2.9311  1.3108 -0.3914
  864MOL0     H16608   5.217   9.871   8.961 -0.8836 -0.7612 -0.6415
  864MOL0     H16609   5.206   9.818   9.128  1.0719 -0.7999  0.5658
  864MOL0     H16610   5.388   9.703   8.898 -0.5524  1.1497 -0.0422
  864MOL0     H16611   5.349   9.604   9.034 -1.2115  0.2378 -0.8521
  864MOL0     H16612   5.443   9.786   9.179 -0.2544  1.2235 -0.4241
  864MOL0     H16613   5.483   9.880   9.038  0.3750 -0.0904 -0.5625
  864MOL0     H16614   5.572   9.585   9.101  1.9417 -0.9542 -1.2142
  864MOL0     H16615   5.629   9.672   8.966  1.2454  0.7611  0.6804
  864MOL0     H16616   5.682   9.749   9.262 -0.5506 -2.5132  0.0198
  864MOL0     H16617   5.719   9.860   9.123  3.5786  0.0147  4.2232
  864MOL0     H16618   5.913   9.728   9.211  1.1003 -1.7732 -0.1778
  864MOL0     H16619   5.838   9.584   9.141 -3.0255 -1.4023 -1.9622
  864MOL0     H16620   4.682   9.557   8.836 -1.7775 -0.2477 -3.0464
  864MOL0     H16621   4.432   9.630   8.832 -0.3738  0.1197  0.1711
  864MOL0     H16622   4.141   9.787   9.146 -1.3873  0.3177  1.0472
  864MOL0     H16623   3.906   9.837   9.235  1.1103 -1.0962 -0.9616
  864MOL0     H16624   2.025   9.521   9.010 -1.8652 -0.5237 -2.1656
  864MOL0     H16625   1.788   9.499   8.952  3.0388 -2.6109 -1.6866
  864MOL0     H16626   1.317   9.107   9.188 -0.9348 -1.3656  0.0141
  864MOL0     H16627   1.080   9.141   9.178  0.3385  0.5993  0.4835
  864MOL0     H16628   0.867   9.254   9.238  1.8383  0.7712 -1.0813
  864MOL0     H16629   0.858   9.153   9.090 -2.0369  0.7763 -0.4717
  864MOL0     H16630   0.646   9.195   9.090 -0.1955 -0.6426  0.3069
  864MOL0     H16631   0.702   9.340   9.000  1.0860  1.3808  0.9667
  864MOL0     H16632   0.725   9.457   9.242 -0.8337  0.7640 -0.7479
  864MOL0     H16633   0.640   9.313   9.298 -2.1660  0.0156 -1.2469
  864MOL0     H16634   0.497   9.520   9.264  2.0882  1.3254 -1.1466
  864MOL0     H16635   0.508   9.492   9.083  1.7456  1.3215 -0.3052
  864MOL0     H16636   0.287   9.157   9.198  0.5219 -0.9010 -2.4226
  864MOL0     H16637   1.115   9.515   8.989  0.9577 -0.7674 -1.5956
  864MOL0     H16638   1.458   9.515   8.925 -0.7494 -3.8087  1.2002
  864MOL0     H16639   1.302   9.591   8.909 -0.1169  0.5742 -0.4665
  864MOL0     H16640   1.395   9.613   9.065 -5.4827  2.5945 -0.4586
  865MOL0     O16641   3.511   7.106   7.055  0.4422 -0.0317  0.0398
  865MOL0     C16642   3.509   7.183   7.155 -0.6237  0.7812  0.6429
  865MOL0     O16643   3.401   7.191   7.244 -0.4919 -0.9507 -0.4239
  865MOL0     C16644   3.281   7.146   7.206  0.8743 -0.3650 -0.5499
  865MOL0     C16645   3.209   7.116   7.319 -0.0009 -0.6121 -0.3312
  865MOL0     C16646   3.069   7.089   7.314  0.5051  0.0866 -0.1018
  865MOL0     C16647   3.011   7.077   7.196  0.1316 -0.5217  0.1368
  865MOL0     O16648   2.876   7.046   7.179 -0.5592 -0.4587 -0.8914
  865MOL0     C16649   2.793   6.989   7.278 -0.5852 -0.0798  0.5441
  865MOL0     C16650   2.695   7.084   7.329  0.4150  0.0936  0.1133
  865MOL0     C16651   2.593   7.016   7.409 -0.0922  0.0768  0.0291
  865MOL0     C16652   2.483   6.947   7.318 -0.9403  0.2755  0.3152
  865MOL0     C16653   2.365   6.908   7.410  0.5008 -1.0252  0.6003
  865MOL0     C16654   2.244   6.865   7.334  0.1291  0.8739  0.0232
  865MOL0     C16655   2.133   6.818   7.431 -0.1708 -0.2566  0.8547
  865MOL0     C16656   2.009   6.775   7.356  0.6926 -0.1301 -0.6278
  865MOL0     N16657   1.937   6.884   7.297  1.0396  0.1652 -0.6935
  865MOL0     C16658   1.916   6.912   7.162  0.0779 -0.5098 -0.7914
  865MOL0     C16659   1.840   7.026   7.159 -0.5582 -0.0397  0.7379
  865MOL0     C16660   1.793   7.095   7.037  0.3555  0.3508 -0.7486
  865MOL0     C16661   1.897   7.199   6.985  0.3908 -0.2525  0.0411
  865MOL0     C16662   2.017   7.132   6.910  0.7567  0.0502  0.1869
  865MOL0     C16663   2.142   7.213   6.928  0.8125 -0.3445  1.1414
  865MOL0     O16664   2.184   7.204   7.058 -0.0477  0.6264 -1.2293
  865MOL0     C16665   2.305   7.258   7.091  0.6726 -0.2927 -0.5300
  865MOL0     C16666   2.392   7.329   7.011  0.3665  1.1274  0.1338
  865MOL0     C16667   2.515   7.391   7.049  1.4368 -0.4092 -0.8187
  865MOL0     C16668   2.555   7.382   7.176 -0.7785  0.8750 -0.7413
  865MOL0     C16669   2.678   7.450   7.230 -0.0953  0.1950 -0.1970
  865MOL0     O16670   2.767   7.492   7.132 -0.2962 -0.7145 -0.4152
  865MOL0     C16671   2.890   7.531   7.186  0.5802  0.1811 -0.4607
  865MOL0     C16672   3.000   7.450   7.159  1.1450  0.2768  0.1910
  865MOL0     C16673   3.125   7.476   7.205 -0.6031 -0.9060 -0.1774
  865MOL0     C16674   3.145   7.599   7.277 -0.6093  0.5593  0.0175
  865MOL0     O16675   3.271   7.643   7.312 -0.6384  0.2162 -0.2893
  865MOL0     C16676   3.391   7.566   7.277 -0.4802 -0.6201  0.4355
  865MOL0     C16677   3.525   7.646   7.278  0.3204 -0.0355 -0.3199
  865MOL0     C16678   3.528   7.733   7.153  0.2177  0.2905 -0.0513
  865MOL0     C16679   3.661   7.808   7.157  0.0741  0.3293  0.3551
  865MOL0     C16680   3.682   7.878   7.021 -0.7359  0.2034  0.8301
  865MOL0     C16681   3.816   7.841   6.952  0.0870 -0.2090  0.3002
  865MOL0     C16682   3.941   7.856   7.031 -0.1351  0.0503  0.3781
  865MOL0     C16683   4.074   7.892   6.957  0.2559  0.5853 -0.7177
  865MOL0    Cl16684   4.076   8.047   6.853 -0.1888  0.2149  0.1250
  865MOL0     C16685   3.036   7.689   7.297  0.0740 -0.7028 -0.3477
  865MOL0     C16686   2.914   7.649   7.245 -0.1323 -0.0930  0.2198
  865MOL0     O16687   2.700   7.443   7.350 -0.0720  0.2702  0.6108
  865MOL0     C16688   2.462   7.320   7.264 -0.5744  0.1971  0.2895
  865MOL0     C16689   2.347   7.257   7.228 -0.0974 -0.3838  1.5428
  865MOL0     N16690   1.815   7.062   7.291 -0.5330 -0.2330 -0.2506
  865MOL0     N16691   1.864   6.979   7.373 -0.2168  1.4168  0.9789
  865MOL0     C16692   3.080   7.112   7.086 -0.3072  0.0426 -0.3589
  865MOL0     C16693   3.216   7.159   7.085 -0.2097 -0.1507  0.4543
  865MOL0     C16694   3.627   7.259   7.196 -0.2475  0.2729  0.1861
  865MOL0     C16695   3.659   7.264   7.336  0.1485  0.2823 -0.9119
  865MOL0     C16696   3.771   7.324   7.375  0.4985  0.0638  0.1482
  865MOL0     C16697   3.862   7.373   7.283 -0.4351  0.4203 -0.3968
  865MOL0     O16698   3.975   7.426   7.326 -0.8878 -0.0142 -0.0309
  865MOL0     C16699   4.081   7.337   7.317  0.4929  0.4815  0.4899
  865MOL0     C16700   4.164   7.350   7.194  0.7335 -0.4529  0.2574
  865MOL0     C16701   4.216   7.499   7.173  0.4973  0.7791 -0.2173
  865MOL0     C16702   4.317   7.512   7.062  0.1372 -0.2575  0.6033
  865MOL0     C16703   4.401   7.630   7.081  0.4371 -0.4856 -1.0360
  865MOL0     C16704   4.473   7.724   7.110  0.0190  0.6367 -0.1454
  865MOL0     C16705   3.840   7.375   7.145  0.4661  0.1808  0.8212
  865MOL0     C16706   3.720   7.312   7.095  0.2530  0.8265 -0.9607
  865MOL0     C16707   3.700   7.299   6.947 -1.1660  0.0025  0.4366
  865MOL0     H16708   3.254   7.121   7.418 -0.1407  0.3687 -0.3057
  865MOL0     H16709   3.015   7.065   7.405 -0.6039 -1.4283 -1.0963
  865MOL0     H16710   2.737   6.911   7.226 -1.3624  1.2695 -0.7250
  865MOL0     H16711   2.845   6.938   7.360  1.5500  1.2148  0.0529
  865MOL0     H16712   2.655   7.132   7.239  1.0410 -0.6332 -0.5553
  865MOL0     H16713   2.737   7.162   7.394  0.7979  0.1068 -0.1503
  865MOL0     H16714   2.541   7.089   7.473 -1.0873  1.6683 -2.4369
  865MOL0     H16715   2.632   6.932   7.468 -1.3755 -0.2350  0.4663
  865MOL0     H16716   2.455   7.010   7.233  2.5450 -0.1689 -1.3718
  865MOL0     H16717   2.530   6.857   7.277 -1.8284  0.6448 -1.6324
  865MOL0     H16718   2.408   6.832   7.475  1.1588 -0.0433  1.3317
  865MOL0     H16719   2.335   6.990   7.476 -0.0117 -0.6637 -0.0693
  865MOL0     H16720   2.216   6.951   7.272 -0.6421  0.2893 -0.4574
  865MOL0     H16721   2.268   6.778   7.271  0.0525  0.2061  0.8970
  865MOL0     H16722   2.105   6.895   7.504 -0.1419  0.8594 -0.2656
  865MOL0     H16723   2.173   6.730   7.482  1.8961 -1.0033 -1.8287
  865MOL0     H16724   2.042   6.712   7.273  4.4845 -1.9800  2.0327
  865MOL0     H16725   1.936   6.730   7.424 -0.1160  2.1524  0.1053
  865MOL0     H16726   1.946   6.853   7.076 -0.1482 -0.8578 -0.6354
  865MOL0     H16727   1.750   7.024   6.965 -0.3840  0.7985 -0.7670
  865MOL0     H16728   1.707   7.158   7.064 -0.7685 -0.7261 -1.6820
  865MOL0     H16729   1.851   7.257   6.904  0.5063 -2.1972 -1.5120
  865MOL0     H16730   1.924   7.259   7.071 -4.9709  0.4790  1.5495
  865MOL0     H16731   1.995   7.121   6.804  1.6428  3.1799 -0.4013
  865MOL0     H16732   2.035   7.032   6.951 -3.4248 -0.6928  0.6813
  865MOL0     H16733   2.117   7.317   6.905 -1.7964 -0.6187  2.3414
  865MOL0     H16734   2.205   7.177   6.846 -2.6309 -1.2159 -1.3568
  865MOL0     H16735   2.373   7.333   6.904  6.3610 -2.7507 -1.5576
  865MOL0     H16736   2.565   7.452   6.975 -0.1295  1.3909 -0.4649
  865MOL0     H16737   2.983   7.366   7.093  1.6081  0.6210 -0.3809
  865MOL0     H16738   3.211   7.414   7.181 -0.6075 -1.3555  0.9478
  865MOL0     H16739   3.400   7.481   7.346 -0.8935 -0.4348  0.7200
  865MOL0     H16740   3.389   7.532   7.173  2.9351  0.6844 -0.1855
  865MOL0     H16741   3.521   7.700   7.374 -5.7626 -0.3880  0.0470
  865MOL0     H16742   3.602   7.569   7.282  0.0922 -0.3826 -2.0005
  865MOL0     H16743   3.527   7.665   7.067 -1.3467 -0.1606  0.3037
  865MOL0     H16744   3.448   7.805   7.134  0.3714  0.5930  0.4160
  865MOL0     H16745   3.745   7.741   7.177 -0.4917 -0.6060 -0.3031
  865MOL0     H16746   3.663   7.890   7.229  3.5825  1.3098 -0.6518
  865MOL0     H16747   3.666   7.985   7.035 -3.6869 -0.1131  0.4920
  865MOL0     H16748   3.604   7.845   6.952 -1.1851 -0.2778  1.5481
  865MOL0     H16749   3.813   7.735   6.926  0.9952  0.0205 -0.7962
  865MOL0     H16750   3.828   7.893   6.857  2.1322  0.5513  0.9258
  865MOL0     H16751   3.950   7.764   7.088  1.1955  0.8824  1.5910
  865MOL0     H16752   3.926   7.937   7.103 -1.5577  2.4322 -2.3847
  865MOL0     H16753   4.168   7.888   7.013  0.4154  0.7107 -0.9732
  865MOL0     H16754   4.087   7.812   6.884  2.9873  1.8899 -1.8029
  865MOL0     H16755   3.056   7.782   7.349  1.0833 -0.8320 -0.4831
  865MOL0     H16756   2.821   7.695   7.276 -0.0077 -0.0600  0.5490
  865MOL0     H16757   2.498   7.312   7.366  2.8954 -1.4199 -0.8960
  865MOL0     H16758   2.280   7.220   7.305  1.7873  0.2715  3.6219
  865MOL0     H16759   3.028   7.112   6.991  2.4294 -0.7043 -1.9376
  865MOL0     H16760   3.262   7.181   6.989  0.2574 -0.0378  0.7007
  865MOL0     H16761   3.585   7.232   7.408  1.2955 -4.8466 -1.6553
  865MOL0     H16762   3.800   7.321   7.480  1.6802  0.2813 -0.1610
  865MOL0     H16763   4.047   7.233   7.306 -1.0901  1.1799 -2.0822
  865MOL0     H16764   4.141   7.354   7.407 -0.6117  0.2894  1.2907
  865MOL0     H16765   4.114   7.320   7.101  0.0516  1.0296  0.1140
  865MOL0     H16766   4.250   7.282   7.191 -0.1007 -1.5112 -0.7700
  865MOL0     H16767   4.268   7.524   7.266  0.6747  1.1823 -0.4238
  865MOL0     H16768   4.125   7.555   7.149 -1.2403 -2.6782 -2.6226
  865MOL0     H16769   4.371   7.417   7.059 -3.9977 -2.8336 -0.4656
  865MOL0     H16770   4.265   7.516   6.966 -0.6594 -0.6175  1.0111
  865MOL0     H16771   4.548   7.799   7.123  2.0729 -1.7708  4.3030
  865MOL0     H16772   3.896   7.419   7.064 -1.0002  0.0750 -0.2975
  865MOL0     H16773   3.788   7.340   6.897 -1.0856 -0.1068  0.4899
  865MOL0     H16774   3.696   7.194   6.918  0.3655  0.3429 -1.1681
  865MOL0     H16775   3.606   7.349   6.919 -0.2200  2.3284  1.1692
  866MOL0     O16776   6.900   0.874   5.061  0.0415 -0.8906  0.6763
  866MOL0     C16777   6.918   0.878   5.181  0.7358  0.2819  0.1367
  866MOL0     O16778   6.901   0.986   5.260 -0.1366  0.5108 -0.4099
  866MOL0     C16779   6.873   1.105   5.193 -0.0048  0.2504  0.2714
  866MOL0     C16780   6.947   1.217   5.225 -0.0839 -0.6917 -0.0364
  866MOL0     C16781   6.915   1.345   5.166 -0.3885 -0.0643  0.0901
  866MOL0     C16782   6.813   1.339   5.071  0.0466 -0.3383  0.5979
  866MOL0     O16783   6.791   1.469   5.019 -0.2424  0.3989 -0.3627
  866MOL0     C16784   6.683   1.493   4.926 -0.5637 -0.4549 -0.3345
  866MOL0     C16785   6.654   1.644   4.911 -0.7562 -0.2937 -0.7714
  866MOL0     C16786   6.638   1.738   5.037 -0.4672 -0.2538 -0.1894
  866MOL0     C16787   6.650   1.895   4.999  0.0869  0.9272  0.6125
  866MOL0     C16788   6.788   1.944   4.939  0.5721  0.7286 -0.1633
  866MOL0     C16789   6.900   1.917   5.038  0.7357  0.2516  0.1334
  866MOL0     C16790   7.043   1.913   4.978 -0.7133  0.1726 -0.2729
  866MOL0     C16791   7.142   1.842   5.072  0.7759 -0.2880  0.1641
  866MOL0     N16792   7.269   1.797   5.002 -1.1286 -0.4650  0.2846
  866MOL0     C16793   7.392   1.862   5.008  0.1013  0.6858 -0.3299
  866MOL0     C16794   7.460   1.796   4.914 -0.4763  0.3232 -0.4465
  866MOL0     C16795   7.593   1.852   4.871 -0.6557 -0.7552  0.3207
  866MOL0     C16796   7.708   1.781   4.947  0.7608  0.5099  0.0877
  866MOL0     C16797   7.841   1.862   4.940 -0.6542 -0.5943  0.5714
  866MOL0     C16798   7.961   1.810   5.021  0.0553 -0.6728 -0.0545
  866MOL0     O16799   8.072   1.891   5.011  0.0406 -0.5682 -0.7161
  866MOL0     C16800   8.196   1.834   5.032  0.1457  0.0660  0.0975
  866MOL0     C16801   8.227   1.716   5.096 -0.5118  0.0187 -0.9042
  866MOL0     C16802   8.348   1.663   5.095 -0.0608  0.0172 -0.1352
  866MOL0     C16803   8.452   1.731   5.032  0.9229  0.3959 -0.5565
  866MOL0     C16804   8.592   1.692   5.061  0.4206  0.2980 -1.0215
  866MOL0     O16805   8.612   1.592   5.161 -0.6028  0.4969  0.1892
  866MOL0     C16806   8.740   1.560   5.211  0.5874  1.2757 -0.4576
  866MOL0     C16807   8.723   1.481   5.321 -0.2345 -0.2207  0.6292
  866MOL0     C16808   8.839   1.417   5.372  0.3895  0.0100  0.5382
  866MOL0     C16809   8.967   1.439   5.319  0.0953 -0.4457 -0.2212
  866MOL0     O16810   9.070   1.363   5.366  0.3595 -0.3281 -0.3544
  866MOL0     C16811   9.141   1.281   5.272  0.4986  0.7215  0.6618
  866MOL0     C16812   9.210   1.168   5.354 -0.7559 -0.0881 -0.1035
  866MOL0     C16813   9.324   1.228   5.444 -0.1200 -0.2073 -0.6244
  866MOL0     C16814   9.413   1.125   5.516  0.3697 -0.1728  0.7641
  866MOL0     C16815   9.541   1.186   5.574 -0.0572 -0.3710 -0.4887
  866MOL0     C16816   9.606   1.074   5.655 -0.2717 -0.2328 -0.3878
  866MOL0     C16817   9.729   1.129   5.727 -0.5317 -0.0960  1.0064
  866MOL0     C16818   9.840   1.025   5.752  0.3923  0.5472  0.8652
  866MOL0    Cl16819   9.976   1.061   5.639  0.5361  0.2989 -0.3323
  866MOL0     C16820   8.981   1.508   5.197  0.9632 -0.1428 -0.2030
  866MOL0     C16821   8.863   1.565   5.137  0.3700  0.4055  0.1139
  866MOL0     O16822   8.679   1.751   4.995  0.7236 -0.4814 -0.6104
  866MOL0     C16823   8.426   1.845   4.953 -0.9111 -0.3234 -0.4550
  866MOL0     C16824   8.300   1.900   4.963 -1.4891 -0.1149  0.2086
  866MOL0     N16825   7.394   1.681   4.860  0.6671 -0.1826  0.2008
  866MOL0     N16826   7.273   1.686   4.918  0.5175 -0.1158  0.2738
  866MOL0     C16827   6.730   1.230   5.039 -0.6915  0.1666  0.4463
  866MOL0     C16828   6.757   1.112   5.109 -0.4086 -0.1828  0.5560
  866MOL0     C16829   6.989   0.761   5.255 -0.9393 -0.2723  0.1424
  866MOL0     C16830   6.940   0.742   5.379  0.0614  1.1307 -0.2524
  866MOL0     C16831   6.997   0.635   5.462  0.1460 -0.2343 -0.0560
  866MOL0     C16832   7.116   0.568   5.429 -0.2903 -0.5377  0.6031
  866MOL0     O16833   7.160   0.470   5.522  1.0933  0.4004  0.6999
  866MOL0     C16834   7.284   0.399   5.516  0.0682  0.8880  0.7534
  866MOL0     C16835   7.256   0.277   5.437 -0.3033  0.4975  0.5063
  866MOL0     C16836   7.131   0.192   5.473 -0.5755 -0.2904 -0.0158
  866MOL0     C16837   7.144   0.063   5.391  0.0918 -0.4618  0.3203
  866MOL0     C16838   7.062  -0.038   5.461  0.7290 -0.1248  0.2037
  866MOL0     C16839   6.989  -0.115   5.528 -0.7424  0.5023 -0.4622
  866MOL0     C16840   7.161   0.594   5.297 -0.0671 -0.2724 -0.8003
  866MOL0     C16841   7.100   0.690   5.210  0.1655  0.4921 -0.1792
  866MOL0     C16842   7.170   0.721   5.086 -1.3190 -0.5334 -0.0314
  866MOL0     H16843   7.027   1.209   5.297 -1.1113  3.3110  1.8762
  866MOL0     H16844   6.977   1.432   5.188  0.2349  0.1650 -2.2820
  866MOL0     H16845   6.705   1.459   4.825  1.8444  3.6681 -1.4486
  866MOL0     H16846   6.599   1.437   4.968  0.1505  0.2736  2.2723
  866MOL0     H16847   6.567   1.670   4.849 -1.7982 -1.4136  0.1704
  866MOL0     H16848   6.742   1.680   4.858 -0.6359 -1.3884 -1.3499
  866MOL0     H16849   6.708   1.708   5.116 -1.1482 -1.2556  0.0640
  866MOL0     H16850   6.537   1.725   5.077 -0.7964  0.4470 -0.7784
  866MOL0     H16851   6.579   1.920   4.920 -0.3732  2.7475  1.5470
  866MOL0     H16852   6.628   1.958   5.086 -1.3562  1.3776 -0.0616
  866MOL0     H16853   6.810   1.904   4.840  0.6408 -0.3217  0.2568
  866MOL0     H16854   6.781   2.051   4.919 -0.8532  0.9173  1.1537
  866MOL0     H16855   6.901   1.990   5.119 -0.8795  0.3586  0.0911
  866MOL0     H16856   6.889   1.827   5.100 -2.4358  3.3130  4.5570
  866MOL0     H16857   7.083   2.009   4.943  0.3089  0.9905  2.7917
  866MOL0     H16858   7.036   1.848   4.891  0.8512 -0.4966  0.0548
  866MOL0     H16859   7.159   1.910   5.156 -1.1713 -1.1394  1.3449
  866MOL0     H16860   7.097   1.753   5.118 -2.7218  2.2829  2.2304
  866MOL0     H16861   7.411   1.948   5.071 -0.1982  1.4390 -1.2327
  866MOL0     H16862   7.611   1.840   4.764 -1.5943 -0.9953  0.1805
  866MOL0     H16863   7.601   1.957   4.900  0.9096 -1.6231  3.4928
  866MOL0     H16864   7.680   1.768   5.052  3.1564 -0.3127  0.6845
  866MOL0     H16865   7.721   1.681   4.904 -2.2814 -0.6713  1.6176
  866MOL0     H16866   7.823   1.959   4.987  1.8145  0.6105 -0.7904
  866MOL0     H16867   7.872   1.878   4.837  1.2845  1.3883  1.3926
  866MOL0     H16868   7.989   1.715   4.974 -2.1328 -0.6526 -1.5309
  866MOL0     H16869   7.919   1.791   5.120 -2.5828  1.0328 -0.7482
  866MOL0     H16870   8.149   1.662   5.149 -0.9290  2.0879  0.7120
  866MOL0     H16871   8.366   1.572   5.151  0.9931  2.3349  3.6542
  866MOL0     H16872   8.631   1.479   5.378  0.3583 -1.7453  1.5875
  866MOL0     H16873   8.832   1.351   5.458 -2.3285  0.3267  0.6356
  866MOL0     H16874   9.075   1.232   5.200  1.4348 -1.8348  1.4376
  866MOL0     H16875   9.220   1.335   5.219  1.9186 -2.4068 -0.6810
  866MOL0     H16876   9.140   1.107   5.413  1.7897 -1.6479  1.4791
  866MOL0     H16877   9.267   1.103   5.288  0.0303 -0.1486  0.6101
  866MOL0     H16878   9.398   1.281   5.385  0.0110  0.8650  0.4638
  866MOL0     H16879   9.280   1.302   5.512  1.8472 -0.0023  0.4937
  866MOL0     H16880   9.444   1.041   5.452 -0.7433  0.4623 -0.6722
  866MOL0     H16881   9.353   1.077   5.593 -2.1751  1.9676  0.2584
  866MOL0     H16882   9.536   1.280   5.630  0.2548  2.8756 -5.2797
  866MOL0     H16883   9.615   1.201   5.494  1.4727 -1.0490  0.7384
  866MOL0     H16884   9.542   1.027   5.730  0.5381 -1.3913 -0.4069
  866MOL0     H16885   9.635   0.993   5.588 -0.2383  0.0702 -0.7413
  866MOL0     H16886   9.711   1.178   5.823  1.0980  1.5348  0.5422
  866MOL0     H16887   9.774   1.207   5.665 -0.2818 -1.0168 -0.0112
  866MOL0     H16888   9.871   1.031   5.857  0.0052  2.7362  0.9019
  866MOL0     H16889   9.809   0.923   5.724  0.8721  0.5308  0.3847
  866MOL0     H16890   9.082   1.514   5.160  1.2124  0.4726  0.5445
  866MOL0     H16891   8.879   1.604   5.038  0.7616 -1.0322 -0.4132
  866MOL0     H16892   8.500   1.903   4.899 -3.4532  1.5017 -2.2257
  866MOL0     H16893   8.277   1.987   4.902  0.8861  0.3822 -0.0543
  866MOL0     H16894   6.652   1.220   4.965  2.8316 -3.5015 -3.2625
  866MOL0     H16895   6.693   1.028   5.083  1.1914 -1.2361 -0.1351
  866MOL0     H16896   6.847   0.786   5.412  0.4946  1.7833  0.1155
  866MOL0     H16897   6.952   0.612   5.557  0.5282 -0.0064  0.1846
  866MOL0     H16898   7.316   0.357   5.612  1.9289 -3.9653 -1.6670
  866MOL0     H16899   7.362   0.465   5.477 -1.9968  3.1458  0.2212
  866MOL0     H16900   7.336   0.203   5.450 -3.1400 -2.6719  1.6442
  866MOL0     H16901   7.254   0.299   5.330  0.3183  0.9862  0.5863
  866MOL0     H16902   7.036   0.233   5.437  0.5189 -0.4734 -3.6076
  866MOL0     H16903   7.120   0.164   5.578  0.8434 -0.7442  0.0427
  866MOL0     H16904   7.107   0.070   5.288  1.5447  1.2193 -0.1362
  866MOL0     H16905   7.245   0.024   5.373  0.0332  0.1494 -1.5843
  866MOL0     H16906   6.951  -0.187   5.598  2.5767 -0.9132  0.0595
  866MOL0     H16907   7.257   0.544   5.284  0.1718 -0.4242  1.2181
  866MOL0     H16908   7.202   0.825   5.096  1.0515 -1.3633  1.8302
  866MOL0     H16909   7.257   0.658   5.065  0.8360  2.8360 -2.1754
  866MOL0     H16910   7.107   0.721   4.997 -0.7997 -0.0577 -0.4052
  867MOL0     O16911   4.156   3.446   4.413  1.2018 -0.2869  0.3936
  867MOL0     C16912   4.107   3.486   4.304 -0.1351  0.6796 -0.2236
  867MOL0     O16913   4.180   3.524   4.193  0.0895 -0.3171  0.3719
  867MOL0     C16914   4.316   3.535   4.203  0.0922  0.2571  0.9313
  867MOL0     C16915   4.408   3.431   4.187  1.4584  0.3820 -0.1150
  867MOL0     C16916   4.539   3.456   4.201 -0.1594  0.3455 -0.1927
  867MOL0     C16917   4.588   3.581   4.214  1.0391  0.0182 -0.5560
  867MOL0     O16918   4.725   3.592   4.213 -0.4576  0.1892  0.6298
  867MOL0     C16919   4.784   3.710   4.260 -0.7587  0.2438 -0.1685
  867MOL0     C16920   4.924   3.663   4.292  0.3998  0.0729  0.6023
  867MOL0     C16921   5.006   3.782   4.346 -1.0075 -0.4041  0.5776
  867MOL0     C16922   5.147   3.728   4.361 -0.0620 -0.2973 -0.5639
  867MOL0     C16923   5.251   3.836   4.373  0.6539 -0.0283  0.2680
  867MOL0     C16924   5.389   3.768   4.400  0.0767 -0.7061  0.6522
  867MOL0     C16925   5.513   3.863   4.386  0.4257 -0.3493 -0.1409
  867MOL0     C16926   5.639   3.777   4.384 -0.5444  0.2150  0.0965
  867MOL0     N16927   5.763   3.847   4.359  0.9517 -0.0128  0.3931
  867MOL0     C16928   5.776   3.972   4.388 -0.5535 -0.3339  0.3478
  867MOL0     C16929   5.886   4.017   4.322 -0.1432  0.3755 -0.3524
  867MOL0     C16930   5.948   4.155   4.340  0.6262  0.4355 -0.1652
  867MOL0     C16931   6.099   4.140   4.369  0.0473 -0.2525  0.4723
  867MOL0     C16932   6.151   4.271   4.417  0.5925  0.5795 -0.1443
  867MOL0     C16933   6.287   4.261   4.496 -0.1064  0.2187  0.7032
  867MOL0     O16934   6.400   4.238   4.407 -0.2968  0.0403 -1.0315
  867MOL0     C16935   6.521   4.240   4.471  0.4152  0.8140  0.1832
  867MOL0     C16936   6.622   4.227   4.378  0.2924 -0.8459 -0.5608
  867MOL0     C16937   6.756   4.219   4.417 -0.3914 -0.3421 -0.0216
  867MOL0     C16938   6.795   4.247   4.549  0.2640  1.5874 -0.4204
  867MOL0     C16939   6.935   4.254   4.585  0.2614  0.1292  0.2921
  867MOL0     O16940   7.021   4.291   4.474 -0.8609 -0.0598  0.3302
  867MOL0     C16941   7.153   4.247   4.469 -0.7684  0.0919  0.6286
  867MOL0     C16942   7.259   4.331   4.476  0.6991  0.2328  0.6426
  867MOL0     C16943   7.387   4.286   4.442  0.4453  0.2736  1.0639
  867MOL0     C16944   7.418   4.156   4.436  0.3852  0.2837  0.8023
  867MOL0     O16945   7.537   4.095   4.412 -0.1828  0.6981  1.0806
  867MOL0     C16946   7.628   4.088   4.522  0.2935  1.0975 -0.0452
  867MOL0     C16947   7.695   4.224   4.555 -0.3386  0.4315  0.5865
  867MOL0     C16948   7.824   4.210   4.636 -0.0488  0.5119  0.0221
  867MOL0     C16949   7.887   4.351   4.658 -1.2027 -0.0008 -0.1008
  867MOL0     C16950   7.981   4.364   4.783  0.5214  0.1330 -0.0354
  867MOL0     C16951   8.087   4.245   4.791  0.1229 -0.3035  0.1812
  867MOL0     C16952   8.117   4.201   4.941  0.2031  0.5292 -0.0908
  867MOL0     C16953   8.226   4.090   4.938  0.2362 -0.6303  0.5219
  867MOL0    Cl16954   8.387   4.137   4.865  0.2939 -0.2768 -0.1369
  867MOL0     C16955   7.302   4.064   4.447 -0.2415  0.4326  1.0217
  867MOL0     C16956   7.175   4.107   4.448  0.8907  0.4852  0.2896
  867MOL0     O16957   6.970   4.232   4.701 -0.4707  0.4062 -0.1978
  867MOL0     C16958   6.695   4.278   4.640 -0.0144  0.5963 -0.2807
  867MOL0     C16959   6.561   4.279   4.599 -0.4283 -0.0433 -0.2082
  867MOL0     N16960   5.942   3.911   4.253 -0.7970 -0.7607  0.9073
  867MOL0     N16961   5.865   3.808   4.274  0.4233  0.3340  0.7266
  867MOL0     C16962   4.500   3.689   4.217 -0.3522 -1.1591  0.2186
  867MOL0     C16963   4.364   3.667   4.217  0.1900  0.0625  0.5020
  867MOL0     C16964   3.966   3.455   4.275  0.5159  0.2633  0.3266
  867MOL0     C16965   3.926   3.461   4.138  0.2361  0.6688 -0.6114
  867MOL0     C16966   3.789   3.449   4.105 -0.2710 -0.6216 -0.9827
  867MOL0     C16967   3.690   3.425   4.207 -0.3050 -0.1126  0.8710
  867MOL0     O16968   3.559   3.427   4.177 -0.5516 -1.2334  0.6689
  867MOL0     C16969   3.507   3.492   4.064  0.4657  0.4323 -0.3695
  867MOL0     C16970   3.363   3.525   4.097 -1.3772  1.0472 -0.1894
  867MOL0     C16971   3.298   3.591   3.973 -0.7811  0.1803 -0.4210
  867MOL0     C16972   3.282   3.500   3.855  1.1786 -0.2064  0.2825
  867MOL0     C16973   3.179   3.557   3.763 -0.1005 -0.5199 -0.5936
  867MOL0     C16974   3.089   3.604   3.692 -0.2185  0.6068  0.0557
  867MOL0     C16975   3.731   3.408   4.338  0.1464 -0.3914  0.0728
  867MOL0     C16976   3.864   3.423   4.370 -0.1851  0.0431  0.0140
  867MOL0     C16977   3.898   3.415   4.522 -0.1788 -0.2259 -0.5565
  867MOL0     H16978   4.372   3.329   4.198  1.5441  0.2894 -0.6427
  867MOL0     H16979   4.597   3.364   4.204 -1.4213 -0.4549  0.4553
  867MOL0     H16980   4.786   3.784   4.179  0.2399 -0.8270 -1.1481
  867MOL0     H16981   4.731   3.750   4.347  1.5090  1.8728  0.5593
  867MOL0     H16982   4.957   3.633   4.193  1.0595  1.9363  0.2159
  867MOL0     H16983   4.910   3.589   4.372 -2.4164  2.9869  3.0872
  867MOL0     H16984   4.966   3.818   4.441 -0.3644  1.5531  0.1629
  867MOL0     H16985   4.992   3.852   4.263 -1.4468  0.4860  1.3870
  867MOL0     H16986   5.151   3.671   4.454  0.1139 -2.1611 -1.6523
  867MOL0     H16987   5.178   3.666   4.276  1.1461  1.4084 -1.4132
  867MOL0     H16988   5.264   3.899   4.284  1.1616  2.4240  1.9671
  867MOL0     H16989   5.218   3.906   4.450  0.4991 -0.5323  0.6590
  867MOL0     H16990   5.393   3.723   4.500  0.1655 -1.6746  0.2244
  867MOL0     H16991   5.414   3.682   4.336  0.4008 -2.3496  2.8591
  867MOL0     H16992   5.517   3.937   4.466 -0.8753 -1.8673  1.4222
  867MOL0     H16993   5.495   3.920   4.294 -0.7997 -0.1407  0.1985
  867MOL0     H16994   5.640   3.731   4.483 -0.3459 -0.8634 -0.3947
  867MOL0     H16995   5.624   3.708   4.301 -0.1707  1.6773 -1.2250
  867MOL0     H16996   5.707   4.025   4.454  0.5303 -1.6258  2.6706
  867MOL0     H16997   5.938   4.216   4.250  0.5853 -0.5960 -0.8828
  867MOL0     H16998   5.899   4.208   4.421 -0.1133  1.5421 -1.3094
  867MOL0     H16999   6.109   4.053   4.435  1.2271 -1.9510 -1.7570
  867MOL0     H17000   6.158   4.115   4.280 -0.3910 -1.2237  0.4408
  867MOL0     H17001   6.095   4.312   4.501  4.1437 -0.0828  2.8134
  867MOL0     H17002   6.168   4.336   4.330 -3.0863  0.4116 -1.1489
  867MOL0     H17003   6.298   4.187   4.576  0.3663 -0.9319 -0.3821
  867MOL0     H17004   6.291   4.364   4.533 -3.4875  1.1066 -1.0572
  867MOL0     H17005   6.609   4.212   4.272 -0.7628  2.2370 -0.9646
  867MOL0     H17006   6.821   4.202   4.331  0.4543  0.8698  0.3358
  867MOL0     H17007   7.246   4.439   4.486  0.7343  0.1941  1.1366
  867MOL0     H17008   7.468   4.356   4.423  0.9226  0.1750  2.6093
  867MOL0     H17009   7.587   4.041   4.612  2.7949 -2.8747 -0.7293
  867MOL0     H17010   7.712   4.025   4.491 -0.2648  0.1162  0.4007
  867MOL0     H17011   7.724   4.277   4.464 -0.8481 -0.3691 -0.0558
  867MOL0     H17012   7.624   4.284   4.611  0.2572  2.1309 -0.4257
  867MOL0     H17013   7.811   4.175   4.738  2.8865  2.0013  1.0335
  867MOL0     H17014   7.896   4.140   4.593  2.0729  0.1482  3.7458
  867MOL0     H17015   7.812   4.431   4.664 -2.5569 -1.3284  1.3630
  867MOL0     H17016   7.938   4.376   4.564 -1.1388  2.0674  0.4439
  867MOL0     H17017   7.911   4.368   4.867 -0.4455  1.2349 -0.8577
  867MOL0     H17018   8.034   4.459   4.775 -1.4410  1.2584 -0.3702
  867MOL0     H17019   8.045   4.159   4.738  0.6897 -0.5021  0.0509
  867MOL0     H17020   8.172   4.273   4.728 -2.9821 -0.9294 -4.8599
  867MOL0     H17021   8.025   4.171   4.992  0.9961 -2.9141 -0.4524
  867MOL0     H17022   8.158   4.287   4.993  1.0480  0.7881 -1.1473
  867MOL0     H17023   8.236   4.051   5.040 -2.8876  2.1701  2.0935
  867MOL0     H17024   8.191   4.011   4.871  2.3156 -0.8767 -0.3565
  867MOL0     H17025   7.321   3.958   4.441  2.7170  0.7639  2.5684
  867MOL0     H17026   7.095   4.035   4.454 -0.0717  1.6059  1.9096
  867MOL0     H17027   6.732   4.300   4.739  2.0864 -2.9332 -0.1327
  867MOL0     H17028   6.484   4.306   4.671 -0.3083  0.7506 -0.3707
  867MOL0     H17029   4.545   3.787   4.226  2.3114 -2.3443  0.4909
  867MOL0     H17030   4.296   3.751   4.210  0.7348  0.4224 -0.8020
  867MOL0     H17031   3.992   3.469   4.053  0.7956  3.1381 -0.0063
  867MOL0     H17032   3.762   3.454   4.000  3.6250  1.8531 -2.1006
  867MOL0     H17033   3.520   3.421   3.981  2.2504  0.1781  0.0745
  867MOL0     H17034   3.561   3.584   4.041 -0.7072  1.2959  0.2359
  867MOL0     H17035   3.345   3.586   4.186 -1.1415  0.1596  0.4942
  867MOL0     H17036   3.299   3.436   4.101  0.7509 -0.5301  0.3743
  867MOL0     H17037   3.357   3.678   3.943  0.9822 -0.9750 -0.4397
  867MOL0     H17038   3.199   3.618   4.010 -0.5248 -0.5628  0.9000
  867MOL0     H17039   3.378   3.508   3.804  0.8133  2.7725 -0.1308
  867MOL0     H17040   3.268   3.395   3.883 -1.2218 -0.1084 -0.3230
  867MOL0     H17041   3.002   3.632   3.636  0.4397  1.6886 -0.4703
  867MOL0     H17042   3.661   3.381   4.417  0.3818 -1.2671 -0.0017
  867MOL0     H17043   3.948   3.504   4.562  1.2980 -0.6705 -1.3555
  867MOL0     H17044   3.811   3.395   4.586 -0.2684  2.5354  0.3189
  867MOL0     H17045   3.973   3.336   4.530 -1.8981 -2.0323 -1.5612
  868MOL0     O17046  11.061   8.006   3.739 -0.1210 -0.3011  0.0668
  868MOL0     C17047  11.109   8.097   3.675 -0.2329  0.5386  0.9126
  868MOL0     O17048  11.039   8.172   3.587 -0.5609 -0.3187  0.3400
  868MOL0     C17049  10.917   8.121   3.543  0.0441  0.2912 -0.3415
  868MOL0     C17050  10.907   8.003   3.469 -0.2093 -0.3049  0.3169
  868MOL0     C17051  10.790   7.950   3.415 -0.1727 -0.0035  0.8852
  868MOL0     C17052  10.677   8.033   3.421  0.5891  0.7312  0.4391
  868MOL0     O17053  10.557   7.988   3.363 -0.2071 -0.1620 -0.0122
  868MOL0     C17054  10.444   8.069   3.381 -0.0327 -0.6810  1.1099
  868MOL0     C17055  10.322   7.981   3.345 -0.8274 -0.1664 -0.6700
  868MOL0     C17056  10.240   8.038   3.233  0.1871  0.0078  0.4065
  868MOL0     C17057  10.109   7.955   3.212 -1.1932  0.6826 -0.1805
  868MOL0     C17058  10.055   7.962   3.067  0.2892 -0.1248  0.1396
  868MOL0     C17059   9.972   7.839   3.048 -0.8059  1.1005  0.5372
  868MOL0     C17060   9.921   7.818   2.896 -0.3677 -0.4257 -1.1248
  868MOL0     C17061   9.780   7.888   2.872 -0.1479  0.6931 -0.5292
  868MOL0     N17062   9.756   7.925   2.735 -0.9737 -0.8267  0.2383
  868MOL0     C17063   9.669   7.861   2.648  0.1493  0.1041 -0.1079
  868MOL0     C17064   9.678   7.933   2.533  0.8819 -0.3382 -0.0202
  868MOL0     C17065   9.587   7.922   2.409 -0.2341 -0.0050 -0.2843
  868MOL0     C17066   9.455   7.998   2.426 -0.3075 -0.1548  0.4862
  868MOL0     C17067   9.369   7.988   2.297 -0.6092  0.1882 -0.4392
  868MOL0     C17068   9.255   8.084   2.295  0.5877 -0.8667 -0.7321
  868MOL0     O17069   9.161   8.035   2.398 -0.2259  0.1099 -0.7113
  868MOL0     C17070   9.026   8.033   2.380  0.1115 -0.3851  0.6080
  868MOL0     C17071   8.951   8.049   2.262  0.0701 -1.3557  0.4721
  868MOL0     C17072   8.815   8.052   2.274  0.4694 -0.0066 -0.4437
  868MOL0     C17073   8.750   8.030   2.390  0.4953  0.3262  0.5339
  868MOL0     C17074   8.609   8.043   2.398 -0.0873 -0.5639 -0.4068
  868MOL0     O17075   8.542   8.038   2.275  0.0128  0.4129  0.1445
  868MOL0     C17076   8.416   8.097   2.266 -0.9888  1.0186  0.5509
  868MOL0     C17077   8.348   8.186   2.351 -0.6671 -0.6201  0.1039
  868MOL0     C17078   8.220   8.223   2.325  0.1043  0.0848 -0.3540
  868MOL0     C17079   8.155   8.178   2.203 -0.7303  0.5229  0.1329
  868MOL0     O17080   8.025   8.222   2.172 -0.1778  0.7583  0.4137
  868MOL0     C17081   7.973   8.334   2.247  0.4860  0.4648 -0.1481
  868MOL0     C17082   7.846   8.382   2.180 -1.0134  0.7574 -0.0423
  868MOL0     C17083   7.771   8.496   2.258 -0.3470 -0.2428  0.1624
  868MOL0     C17084   7.618   8.485   2.241 -0.1442  0.5348 -0.2885
  868MOL0     C17085   7.553   8.615   2.290 -0.3473 -0.1331 -0.3147
  868MOL0     C17086   7.408   8.601   2.343 -0.4498  0.0249 -0.0065
  868MOL0     C17087   7.304   8.580   2.223  0.6926 -0.3550 -0.5795
  868MOL0     C17088   7.182   8.505   2.271 -0.9176  0.0844  0.9750
  868MOL0    Cl17089   7.077   8.532   2.134  0.3627 -0.1559 -0.2227
  868MOL0     C17090   8.225   8.084   2.118 -0.7224 -0.5991 -0.1578
  868MOL0     C17091   8.351   8.050   2.150 -0.4542 -0.2180  0.2935
  868MOL0     O17092   8.549   8.050   2.509 -0.6831  0.1487 -0.7651
  868MOL0     C17093   8.826   8.005   2.499 -0.1673 -0.6221 -0.9032
  868MOL0     C17094   8.966   8.010   2.501 -0.1176 -0.5105 -0.3198
  868MOL0     N17095   9.760   8.043   2.550  0.2476 -0.4266 -0.5680
  868MOL0     N17096   9.815   8.033   2.671 -0.0365  0.2480  0.2940
  868MOL0     C17097  10.691   8.157   3.491  0.6684  0.1290  0.0063
  868MOL0     C17098  10.805   8.196   3.557  0.1007 -0.0711 -0.7531
  868MOL0     C17099  11.258   8.124   3.697  1.0146  0.5231  0.2346
  868MOL0     C17100  11.294   8.256   3.682 -0.6508  0.6970  0.7774
  868MOL0     C17101  11.425   8.303   3.717 -0.2767  0.6274 -0.0316
  868MOL0     C17102  11.518   8.210   3.761  0.7681  0.0846  0.2445
  868MOL0     O17103  11.638   8.238   3.812 -0.6572 -0.7360 -0.2803
  868MOL0     C17104  11.728   8.334   3.738 -0.2667  0.6289  0.0202
  868MOL0     C17105  11.880   8.342   3.790  0.0577  0.5615  0.3379
  868MOL0     C17106  11.961   8.424   3.681 -0.2002 -1.1528  0.1981
  868MOL0     C17107  11.993   8.336   3.556 -0.0066  0.2825  0.5115
  868MOL0     C17108  12.103   8.391   3.477 -1.0521  0.3764 -0.6308
  868MOL0     C17109  12.198   8.444   3.422 -0.0909  0.2526 -0.1454
  868MOL0     C17110  11.483   8.079   3.763  1.0700 -0.4968  0.3177
  868MOL0     C17111  11.360   8.029   3.722  0.3028 -0.1044  0.3728
  868MOL0     C17112  11.331   7.886   3.734 -0.3029 -0.9520  0.3899
  868MOL0     H17113  10.998   7.946   3.455 -0.8042 -1.0346 -0.6760
  868MOL0     H17114  10.785   7.854   3.364 -0.4387  1.3200 -1.7395
  868MOL0     H17115  10.437   8.111   3.481 -1.5204 -1.3466  1.3058
  868MOL0     H17116  10.448   8.157   3.316  2.4813 -2.0149 -0.7308
  868MOL0     H17117  10.261   7.974   3.435 -1.5690 -2.8806 -1.2895
  868MOL0     H17118  10.346   7.878   3.316 -0.3507 -0.4729  0.7586
  868MOL0     H17119  10.295   8.046   3.139  1.9826 -1.8991  1.2067
  868MOL0     H17120  10.210   8.139   3.263  0.6386  1.0396 -2.3955
  868MOL0     H17121  10.142   7.856   3.247  0.3826  0.4308 -2.1823
  868MOL0     H17122  10.024   7.969   3.279 -2.1277 -0.6813 -1.0213
  868MOL0     H17123   9.990   8.046   3.042  0.3007  0.2042  1.1872
  868MOL0     H17124  10.140   7.981   3.000  0.0733  2.6253  0.5342
  868MOL0     H17125  10.040   7.754   3.065 -2.1363  0.5370  3.8022
  868MOL0     H17126   9.888   7.830   3.117 -2.2689 -3.1787 -1.4662
  868MOL0     H17127   9.913   7.713   2.867 -1.4248  0.2245 -3.4607
  868MOL0     H17128   9.990   7.866   2.826  1.9243  0.3189  1.4774
  868MOL0     H17129   9.703   7.821   2.912  1.9679  0.6299  4.1627
  868MOL0     H17130   9.759   7.984   2.922 -1.7236  1.4722 -2.5748
  868MOL0     H17131   9.596   7.783   2.665 -1.1002  1.2433 -0.0232
  868MOL0     H17132   9.643   7.961   2.323  0.5343 -1.9769 -0.7443
  868MOL0     H17133   9.576   7.815   2.391  0.8588 -0.7426  2.7841
  868MOL0     H17134   9.400   7.944   2.503 -3.3662  0.9318 -0.7902
  868MOL0     H17135   9.468   8.106   2.442  1.8230  0.3154 -3.1871
  868MOL0     H17136   9.326   7.887   2.301 -2.3980  0.7204 -3.2328
  868MOL0     H17137   9.430   7.995   2.206 -0.1640 -4.2373 -0.6986
  868MOL0     H17138   9.210   8.087   2.195 -2.8395  1.0124  0.6835
  868MOL0     H17139   9.301   8.182   2.311 -1.6412  0.0866  0.2396
  868MOL0     H17140   9.003   8.063   2.168 -1.3305 -1.1397 -0.2937
  868MOL0     H17141   8.761   8.064   2.181 -0.9722  1.8387  0.5803
  868MOL0     H17142   8.401   8.223   2.438 -0.5886  0.4979 -0.4119
  868MOL0     H17143   8.166   8.292   2.390  2.0745  1.9826 -0.6218
  868MOL0     H17144   7.943   8.304   2.348 -0.0938  0.0038 -0.4522
  868MOL0     H17145   8.043   8.418   2.239 -2.3343  2.9858 -0.2869
  868MOL0     H17146   7.870   8.413   2.078 -0.0612  1.2657  0.3280
  868MOL0     H17147   7.779   8.295   2.187  0.9661 -0.8479  0.0882
  868MOL0     H17148   7.791   8.491   2.366  1.1322 -0.1992 -0.0804
  868MOL0     H17149   7.788   8.594   2.213 -1.3392  0.5930  1.5161
  868MOL0     H17150   7.577   8.407   2.305 -0.6383  0.2701 -0.9198
  868MOL0     H17151   7.594   8.458   2.138 -1.8160 -2.3060  0.7539
  868MOL0     H17152   7.561   8.691   2.212 -0.6891 -0.2307 -0.4445
  868MOL0     H17153   7.613   8.642   2.377 -1.8285  0.3475  0.5927
  868MOL0     H17154   7.407   8.516   2.411 -1.9936 -0.7697 -0.9508
  868MOL0     H17155   7.388   8.695   2.396  1.6702 -1.3472  3.5335
  868MOL0     H17156   7.345   8.523   2.139  0.1322 -3.6226  1.1899
  868MOL0     H17157   7.288   8.679   2.178  1.5289 -0.8384 -2.0316
  868MOL0     H17158   7.197   8.398   2.286 -0.7708 -0.0784 -0.2309
  868MOL0     H17159   7.134   8.543   2.362 -0.6320  0.7416  0.8594
  868MOL0     H17160   8.176   8.050   2.028 -0.2571 -0.5572 -0.4272
  868MOL0     H17161   8.411   7.978   2.096  1.5220  0.2238  1.7951
  868MOL0     H17162   8.779   7.983   2.594 -1.4421  3.3327 -0.4418
  868MOL0     H17163   9.020   7.989   2.593  1.2283  3.1508 -0.1335
  868MOL0     H17164  10.603   8.218   3.514 -0.4308 -1.9081  1.5236
  868MOL0     H17165  10.814   8.285   3.618  5.3137 -2.6756  2.9958
  868MOL0     H17166  11.210   8.322   3.660 -2.8261 -1.8863  0.6890
  868MOL0     H17167  11.461   8.405   3.710 -0.0666  0.4539 -2.5189
  868MOL0     H17168  11.677   8.431   3.737 -2.3621 -0.4325 -0.1980
  868MOL0     H17169  11.723   8.303   3.633 -0.6893  1.7872 -0.3289
  868MOL0     H17170  11.908   8.236   3.790 -0.7090  0.3202 -1.0735
  868MOL0     H17171  11.900   8.388   3.887  0.7103  1.1061 -0.0494
  868MOL0     H17172  12.052   8.455   3.732  0.1459 -0.1707 -0.9602
  868MOL0     H17173  11.916   8.515   3.641  1.4853  0.0650  0.9494
  868MOL0     H17174  12.027   8.236   3.587 -0.0440 -0.0206 -0.3894
  868MOL0     H17175  11.903   8.320   3.497  0.3917  2.6049 -0.8248
  868MOL0     H17176  12.282   8.475   3.363  2.1968  0.8058  3.1675
  868MOL0     H17177  11.540   8.000   3.811 -1.2078 -1.3710  1.7369
  868MOL0     H17178  11.418   7.820   3.739  0.3482 -0.1267  0.2697
  868MOL0     H17179  11.278   7.868   3.828 -0.9192 -2.5064 -0.2314
  868MOL0     H17180  11.272   7.851   3.649  1.5350 -1.1778 -0.8474
  869MOL0     O17181   2.211  11.067   3.204  0.0097  0.7839 -0.1021
  869MOL0     C17182   2.334  11.035   3.212 -0.4842 -0.4366  0.7120
  869MOL0     O17183   2.385  10.908   3.219 -0.4425  0.1179  0.2866
  869MOL0     C17184   2.279  10.822   3.191 -0.2313 -1.1762  0.0917
  869MOL0     C17185   2.276  10.752   3.074  0.5548 -0.6492 -0.3423
  869MOL0     C17186   2.166  10.673   3.051  0.0098  0.5793 -0.6280
  869MOL0     C17187   2.057  10.663   3.136 -0.3313  0.9503  0.1445
  869MOL0     O17188   1.955  10.572   3.115  0.1007  0.4805  0.2443
  869MOL0     C17189   1.846  10.618   3.039  0.2832  0.2175  0.6449
  869MOL0     C17190   1.751  10.708   3.131  0.2739 -0.7837  0.4321
  869MOL0     C17191   1.644  10.744   3.039  0.2611 -0.8217 -0.0478
  869MOL0     C17192   1.535  10.843   3.106  0.5339  1.0212 -1.0589
  869MOL0     C17193   1.434  10.788   3.210 -0.1580 -0.5777 -0.0507
  869MOL0     C17194   1.351  10.669   3.161 -0.6515 -0.1955 -0.5814
  869MOL0     C17195   1.388  10.539   3.219  0.7456  0.1599 -0.3924
  869MOL0     C17196   1.272  10.435   3.206 -1.2149  0.2540 -0.3395
  869MOL0     N17197   1.312  10.301   3.261 -1.0872  0.4673  0.0635
  869MOL0     C17198   1.375  10.271   3.379 -0.2948 -0.2005  0.3007
  869MOL0     C17199   1.383  10.137   3.383  0.2237 -0.0818  0.7458
  869MOL0     C17200   1.427  10.044   3.485  0.0730 -0.5211  0.0790
  869MOL0     C17201   1.564  10.077   3.536 -0.2513 -0.2822  0.1989
  869MOL0     C17202   1.602   9.997   3.658  0.5016  0.0381 -0.1591
  869MOL0     C17203   1.729  10.061   3.716 -0.5565  1.0212 -0.2303
  869MOL0     O17204   1.837  10.022   3.639 -0.3343 -0.7254  0.5170
  869MOL0     C17205   1.953  10.086   3.675 -0.6531 -0.0668 -0.1224
  869MOL0     C17206   2.059  10.081   3.578  0.8756  0.7581  0.5040
  869MOL0     C17207   2.176  10.143   3.601 -0.8354  0.3208 -0.0556
  869MOL0     C17208   2.204  10.220   3.713  0.0923 -0.1963 -0.1353
  869MOL0     C17209   2.333  10.288   3.743  0.1958 -0.2447 -0.5382
  869MOL0     O17210   2.431  10.269   3.652  0.0950  0.1229 -0.5127
  869MOL0     C17211   2.550  10.320   3.684  0.7029 -0.5074 -0.2461
  869MOL0     C17212   2.564  10.455   3.713  0.1063  0.4611 -0.6191
  869MOL0     C17213   2.682  10.514   3.761 -0.9680 -0.1624  0.5803
  869MOL0     C17214   2.794  10.433   3.783  0.0956 -0.2037 -0.6233
  869MOL0     O17215   2.911  10.494   3.825  0.4334 -0.1789  0.9639
  869MOL0     C17216   3.030  10.418   3.846  0.9137 -0.5994 -1.3622
  869MOL0     C17217   3.137  10.523   3.880  0.0636 -0.2795 -0.0984
  869MOL0     C17218   3.279  10.459   3.913  0.3851  0.0688 -0.0491
  869MOL0     C17219   3.399  10.538   3.871 -0.3866  0.8049  0.0436
  869MOL0     C17220   3.531  10.480   3.927  0.0848 -0.2054  0.9174
  869MOL0     C17221   3.553  10.487   4.079  0.8995  0.5825  0.0822
  869MOL0     C17222   3.559  10.618   4.147  0.5998  0.5814  0.0733
  869MOL0     C17223   3.549  10.611   4.299  0.2849 -1.0548  0.3760
  869MOL0    Cl17224   3.704  10.516   4.350  0.1263 -0.2660  0.0657
  869MOL0     C17225   2.784  10.295   3.763  0.8050 -0.2624  0.5586
  869MOL0     C17226   2.662  10.240   3.711  0.2649  0.0841  0.4553
  869MOL0     O17227   2.340  10.342   3.848 -0.6442  0.5938 -0.5212
  869MOL0     C17228   2.100  10.225   3.815 -0.1171 -0.6265 -0.4602
  869MOL0     C17229   1.974  10.159   3.788 -0.7644  0.7525 -0.4767
  869MOL0     N17230   1.352  10.092   3.252 -0.4823  0.0751  0.1520
  869MOL0     N17231   1.298  10.188   3.185  0.0466 -0.0398  0.0923
  869MOL0     C17232   2.066  10.721   3.261  0.5655 -0.3649 -0.0067
  869MOL0     C17233   2.184  10.798   3.293 -0.3388 -1.3401  0.5911
  869MOL0     C17234   2.428  11.143   3.247 -0.6399  1.0382  0.9470
  869MOL0     C17235   2.547  11.099   3.301  0.1571  0.0924  0.6580
  869MOL0     C17236   2.644  11.188   3.345  0.2693 -0.3996 -0.0422
  869MOL0     C17237   2.622  11.322   3.350  0.0439 -0.8433 -0.1608
  869MOL0     O17238   2.727  11.386   3.413  0.2498  0.9265 -0.2723
  869MOL0     C17239   2.724  11.535   3.416 -0.0064  0.4570  0.4716
  869MOL0     C17240   2.633  11.596   3.527 -0.5841  0.2415  0.0353
  869MOL0     C17241   2.714  11.588   3.658  0.0764  1.7435  0.2048
  869MOL0     C17242   2.647  11.658   3.777 -0.2590 -0.0496  0.3438
  869MOL0     C17243   2.501  11.631   3.789 -0.5732  0.3187  0.6911
  869MOL0     C17244   2.387  11.608   3.811  0.8198  0.7164  0.1941
  869MOL0     C17245   2.502  11.365   3.289 -0.0444 -0.2525 -0.9027
  869MOL0     C17246   2.409  11.278   3.236  0.0944 -0.3548  0.9368
  869MOL0     C17247   2.293  11.345   3.170  0.6972 -0.4303  0.8722
  869MOL0     H17248   2.353  10.751   2.997 -1.0661 -3.2239 -2.1085
  869MOL0     H17249   2.165  10.609   2.963  4.3145  0.7728 -1.0467
  869MOL0     H17250   1.880  10.685   2.960 -3.1470 -0.5180 -1.6707
  869MOL0     H17251   1.784  10.540   2.995  0.6634 -0.0106  0.5101
  869MOL0     H17252   1.797  10.794   3.180 -3.2147  1.2710  0.4466
  869MOL0     H17253   1.717  10.643   3.213 -0.1828 -1.1102 -0.0139
  869MOL0     H17254   1.596  10.652   3.006  0.3370 -0.3793 -1.4598
  869MOL0     H17255   1.684  10.785   2.946 -1.6051  1.5095  0.0704
  869MOL0     H17256   1.590  10.930   3.142 -0.4491  1.5520 -0.8198
  869MOL0     H17257   1.475  10.891   3.029  0.8454  1.7046 -0.8852
  869MOL0     H17258   1.494  10.759   3.297 -2.5901  0.6151  2.1848
  869MOL0     H17259   1.361  10.864   3.238  2.2043  0.8008  2.8790
  869MOL0     H17260   1.248  10.676   3.198 -0.5611 -3.3393  0.5746
  869MOL0     H17261   1.347  10.657   3.053 -0.3387 -0.0115 -0.6164
  869MOL0     H17262   1.414  10.548   3.325 -2.6558 -1.1125  0.6745
  869MOL0     H17263   1.476  10.495   3.171  0.9811 -0.9775  0.9934
  869MOL0     H17264   1.172  10.452   3.247 -0.3112 -1.0080  2.6789
  869MOL0     H17265   1.265  10.425   3.097  1.0846  1.6605 -0.6795
  869MOL0     H17266   1.404  10.326   3.468 -1.5760 -0.4347  0.8823
  869MOL0     H17267   1.352  10.058   3.563  2.3904  2.0031  2.0860
  869MOL0     H17268   1.424   9.941   3.448  1.3179 -0.2130 -0.9484
  869MOL0     H17269   1.640  10.057   3.461 -1.5624 -0.5755 -1.0911
  869MOL0     H17270   1.565  10.184   3.555  0.8853  0.9025 -5.0368
  869MOL0     H17271   1.620   9.891   3.637  0.9497  0.4054 -1.7597
  869MOL0     H17272   1.527  10.014   3.736 -0.5913 -0.5856 -1.0583
  869MOL0     H17273   1.734  10.024   3.818 -1.3266 -2.4191 -1.2842
  869MOL0     H17274   1.723  10.170   3.719 -1.6088  0.9778  3.5489
  869MOL0     H17275   2.045  10.009   3.498 -1.7559 -0.7129  2.1498
  869MOL0     H17276   2.257  10.127   3.531  1.1725  2.5609  1.5696
  869MOL0     H17277   2.488  10.523   3.677  1.1466  1.0230 -1.8036
  869MOL0     H17278   2.690  10.623   3.757 -0.5422 -0.1674 -3.3014
  869MOL0     H17279   3.025  10.341   3.923  2.2732  1.2236  0.6587
  869MOL0     H17280   3.062  10.367   3.755 -0.4779 -0.3506 -2.0190
  869MOL0     H17281   3.142  10.590   3.793 -3.5259  2.6175  1.6408
  869MOL0     H17282   3.105  10.575   3.970  0.6653 -0.7279  0.3844
  869MOL0     H17283   3.281  10.447   4.022  2.7470 -3.2446 -0.3004
  869MOL0     H17284   3.288  10.356   3.875 -0.8576 -0.3794  0.7774
  869MOL0     H17285   3.392  10.641   3.907  0.8441  0.7229  0.5921
  869MOL0     H17286   3.410  10.540   3.762  1.8433 -2.2619  0.0672
  869MOL0     H17287   3.609  10.538   3.878 -0.7568  1.4508  1.4209
  869MOL0     H17288   3.529  10.376   3.894 -2.6900  0.3136 -0.9282
  869MOL0     H17289   3.479  10.420   4.123  2.0054 -2.4680 -2.3789
  869MOL0     H17290   3.651  10.440   4.093  1.1455  0.9146 -0.5087
  869MOL0     H17291   3.471  10.673   4.113  0.0515  1.0824  2.1838
  869MOL0     H17292   3.647  10.674   4.112 -0.1321  0.3572 -2.3391
  869MOL0     H17293   3.528  10.709   4.344 -0.7748 -1.4807  0.8232
  869MOL0     H17294   3.461  10.554   4.327 -0.6325  0.1827  0.1089
  869MOL0     H17295   2.867  10.233   3.795 -0.4571 -1.3652  1.8140
  869MOL0     H17296   2.641  10.135   3.696 -2.0725  0.5705 -0.0553
  869MOL0     H17297   2.118  10.272   3.911 -0.5660  1.6646 -1.4159
  869MOL0     H17298   1.902  10.142   3.868 -0.7189 -2.6269 -0.9724
  869MOL0     H17299   1.995  10.718   3.344 -0.8872  2.3949 -1.0248
  869MOL0     H17300   2.188  10.840   3.393 -0.7387  4.4308 -1.4682
  869MOL0     H17301   2.573  10.995   3.319  0.3124 -0.1342 -0.7798
  869MOL0     H17302   2.733  11.149   3.392 -0.0054  0.2964  1.1266
  869MOL0     H17303   2.681  11.576   3.324 -0.9866 -0.3412  0.5703
  869MOL0     H17304   2.825  11.575   3.429  0.4764 -0.8949  1.0542
  869MOL0     H17305   2.541  11.537   3.526 -0.5182  0.1329  0.2698
  869MOL0     H17306   2.610  11.700   3.501 -0.0769 -0.3098 -2.9768
  869MOL0     H17307   2.818  11.620   3.649  0.3955  0.8250  0.5271
  869MOL0     H17308   2.714  11.484   3.690 -0.4036  1.1431 -1.6137
  869MOL0     H17309   2.711  11.649   3.865  0.2039  1.5955  0.1983
  869MOL0     H17310   2.650  11.765   3.757 -0.0379 -0.2490 -0.7423
  869MOL0     H17311   2.282  11.588   3.815  0.7425  1.0363 -0.1802
  869MOL0     H17312   2.498  11.473   3.287  2.8450 -0.0613 -0.6423
  869MOL0     H17313   2.255  11.292   3.082  0.6089 -0.4628  0.9286
  869MOL0     H17314   2.203  11.343   3.232 -0.9186 -0.6320 -1.3549
  869MOL0     H17315   2.312  11.447   3.137 -1.4403  0.4479  2.0909
  870MOL0     O17316   7.275   0.566   9.451 -0.7942 -0.3193 -0.6336
  870MOL0     C17317   7.287   0.492   9.548  0.0722 -0.2924 -0.1599
  870MOL0     O17318   7.410   0.469   9.605  0.1338 -0.2191 -0.1288
  870MOL0     C17319   7.511   0.446   9.518  0.0022 -0.2630  0.7944
  870MOL0     C17320   7.500   0.362   9.407  0.6280  0.3271 -1.0340
  870MOL0     C17321   7.614   0.345   9.328 -0.3467 -0.1734 -0.5758
  870MOL0     C17322   7.735   0.411   9.359  0.2376  0.3910  0.3502
  870MOL0     O17323   7.847   0.403   9.275  0.2022  0.7350 -0.3115
  870MOL0     C17324   7.851   0.473   9.156 -0.3683  0.6064 -0.3877
  870MOL0     C17325   7.962   0.436   9.063 -0.9295  0.4171  0.1894
  870MOL0     C17326   8.092   0.494   9.107  0.2679  0.5664  0.2586
  870MOL0     C17327   8.213   0.435   9.024 -0.3288 -0.7287  0.9239
  870MOL0     C17328   8.332   0.525   9.055 -0.7676  0.6815  0.3788
  870MOL0     C17329   8.453   0.471   8.987 -0.4852  0.2979  0.6438
  870MOL0     C17330   8.562   0.571   8.985 -0.9102  0.1450  0.4797
  870MOL0     C17331   8.672   0.515   8.886 -0.5491  0.0420 -0.2850
  870MOL0     N17332   8.804   0.550   8.940  0.3253 -0.1441  0.0116
  870MOL0     C17333   8.912   0.590   8.859  1.0698  0.0444  0.1628
  870MOL0     C17334   9.013   0.590   8.948 -0.1209  0.1843  0.3764
  870MOL0     C17335   9.154   0.635   8.929 -0.2898  0.1577  0.2728
  870MOL0     C17336   9.213   0.570   8.807 -0.1176 -0.1494 -0.0828
  870MOL0     C17337   9.238   0.415   8.818  0.7788 -0.8920 -0.5640
  870MOL0     C17338   9.350   0.361   8.725  1.0315 -0.1406 -0.4204
  870MOL0     O17339   9.420   0.455   8.639  0.5722  0.2031 -0.0656
  870MOL0     C17340   9.554   0.476   8.661 -0.1218  0.3470 -0.4543
  870MOL0     C17341   9.600   0.604   8.663  0.0962  0.1071  0.5768
  870MOL0     C17342   9.737   0.637   8.667  0.9564  0.2539 -0.6558
  870MOL0     C17343   9.833   0.537   8.666  0.3310  0.5392 -0.1642
  870MOL0     C17344   9.966   0.567   8.683 -1.2922 -0.4776  0.6153
  870MOL0     O17345   9.996   0.692   8.741  0.8108  0.4173 -1.0089
  870MOL0     C17346  10.129   0.720   8.757  0.2925  0.3989 -0.1883
  870MOL0     C17347  10.210   0.768   8.661  0.1584 -0.7607 -0.8562
  870MOL0     C17348  10.347   0.801   8.681  0.3101 -0.1490  1.0110
  870MOL0     C17349  10.400   0.782   8.810  0.0461 -0.4471  0.5676
  870MOL0     O17350  10.522   0.831   8.829 -0.1168 -0.4057  0.5952
  870MOL0     C17351  10.587   0.816   8.951 -0.3735  0.5672 -0.1375
  870MOL0     C17352  10.736   0.844   8.926 -0.3854  0.3460  0.8614
  870MOL0     C17353  10.807   0.844   9.061 -0.5017 -0.4484 -0.3314
  870MOL0     C17354  10.959   0.860   9.040  0.7787  0.8155  0.1050
  870MOL0     C17355  11.043   0.877   9.173  1.0486 -0.3324  0.4059
  870MOL0     C17356  11.163   0.961   9.153 -0.0169  0.3354  0.0341
  870MOL0     C17357  11.269   0.884   9.070 -0.3058 -0.4023 -0.7761
  870MOL0     C17358  11.395   0.969   9.053 -0.1349 -0.8818  0.1551
  870MOL0    Cl17359  11.493   0.981   9.206  0.3589  0.0833  0.0909
  870MOL0     C17360  10.318   0.733   8.911 -0.0624 -0.0969 -0.1162
  870MOL0     C17361  10.185   0.696   8.880 -0.8389  0.7394 -0.8997
  870MOL0     O17362  10.054   0.479   8.656 -0.0025 -0.1163  0.4022
  870MOL0     C17363   9.789   0.400   8.650 -0.1153  0.0218  0.5895
  870MOL0     C17364   9.651   0.371   8.644 -0.7574  0.6126  0.4940
  870MOL0     N17365   8.969   0.534   9.063  0.3779 -0.0349  0.1305
  870MOL0     N17366   8.842   0.509   9.061  0.0538  0.1809 -0.2971
  870MOL0     C17367   7.742   0.484   9.471 -0.2524 -0.2399  0.4072
  870MOL0     C17368   7.632   0.496   9.553  0.9253  0.4640 -1.0625
  870MOL0     C17369   7.158   0.481   9.622  0.5227  0.2722 -0.2952
  870MOL0     C17370   7.146   0.550   9.744 -0.1611 -0.6011 -0.1458
  870MOL0     C17371   7.025   0.548   9.813 -0.1271 -1.0625  0.2323
  870MOL0     C17372   6.916   0.472   9.777  0.2880  0.1723 -0.0984
  870MOL0     O17373   6.798   0.453   9.843  0.6880  0.3785  0.2294
  870MOL0     C17374   6.775   0.530   9.968  0.6609  0.2804 -0.0205
  870MOL0     C17375   6.624   0.538  10.015 -0.1032 -0.1405  0.0069
  870MOL0     C17376   6.553   0.648   9.925 -0.3085 -1.1640  0.1010
  870MOL0     C17377   6.588   0.792   9.971  0.2722  0.4593  0.0747
  870MOL0     C17378   6.505   0.900   9.914 -0.3379  0.0358  0.0943
  870MOL0     C17379   6.431   0.980   9.869  0.3358 -0.3440 -0.0033
  870MOL0     C17380   6.919   0.417   9.646 -0.2345  0.2254  0.4479
  870MOL0     C17381   7.038   0.422   9.568 -0.0792  0.3389  0.0214
  870MOL0     C17382   7.030   0.351   9.432  0.0227  0.2817 -0.9139
  870MOL0     H17383   7.412   0.301   9.386  1.2206  0.0223 -2.7887
  870MOL0     H17384   7.591   0.304   9.230 -1.6928  3.5660 -1.9800
  870MOL0     H17385   7.765   0.434   9.100 -2.2817  3.5119  0.3319
  870MOL0     H17386   7.824   0.578   9.169 -0.9840  0.7155 -2.2560
  870MOL0     H17387   7.939   0.463   8.960 -0.4995  0.8939  0.2105
  870MOL0     H17388   7.967   0.327   9.064  0.0107  0.4475  0.3909
  870MOL0     H17389   8.103   0.464   9.212  1.4806 -1.5370 -0.4140
  870MOL0     H17390   8.082   0.603   9.109  1.7695  0.7577 -0.4426
  870MOL0     H17391   8.240   0.335   9.059 -0.7569 -0.9150  0.7300
  870MOL0     H17392   8.190   0.432   8.917 -1.9413 -2.7825  1.2668
  870MOL0     H17393   8.320   0.625   9.011  1.1633  0.9104  0.2929
  870MOL0     H17394   8.347   0.542   9.162 -2.2433  0.5530  0.6169
  870MOL0     H17395   8.492   0.377   9.027 -0.1015  0.4783  0.6935
  870MOL0     H17396   8.419   0.456   8.884  0.6645  1.2902  0.1036
  870MOL0     H17397   8.608   0.584   9.083  1.0928 -2.9040  0.1039
  870MOL0     H17398   8.533   0.670   8.949 -1.3672  0.5910  2.0126
  870MOL0     H17399   8.678   0.406   8.879  0.5441  0.1923 -3.3982
  870MOL0     H17400   8.659   0.556   8.786  1.1521 -0.2389 -0.6414
  870MOL0     H17401   8.912   0.614   8.753 -0.7547 -1.1553 -0.1491
  870MOL0     H17402   9.142   0.744   8.928 -2.2171 -0.0229  0.7655
  870MOL0     H17403   9.209   0.617   9.023 -3.2571 -0.7749  1.9616
  870MOL0     H17404   9.163   0.594   8.713 -0.8828  1.3154  0.6692
  870MOL0     H17405   9.312   0.617   8.803 -1.1557  2.6971  3.0498
  870MOL0     H17406   9.145   0.370   8.782  0.2713 -0.4741  0.1947
  870MOL0     H17407   9.260   0.394   8.923  1.9565 -2.2716 -1.0554
  870MOL0     H17408   9.311   0.281   8.661  2.8073 -1.1663 -0.2585
  870MOL0     H17409   9.427   0.317   8.789  2.5559  1.9917 -0.6776
  870MOL0     H17410   9.528   0.684   8.677  1.2675  1.2342  0.3456
  870MOL0     H17411   9.774   0.738   8.658 -0.7832  1.1857  1.6693
  870MOL0     H17412  10.180   0.803   8.563  1.4652  4.3571  0.3059
  870MOL0     H17413  10.412   0.839   8.603  1.1984  1.4832  2.4664
  870MOL0     H17414  10.555   0.887   9.028 -0.5904 -1.8740  2.1634
  870MOL0     H17415  10.585   0.713   8.988 -0.6569 -0.7141 -3.4038
  870MOL0     H17416  10.772   0.757   8.870 -3.0927  0.5477 -1.3959
  870MOL0     H17417  10.744   0.938   8.870  2.5927  1.4476  2.8921
  870MOL0     H17418  10.775   0.925   9.127 -1.1973 -2.2766  1.6814
  870MOL0     H17419  10.774   0.756   9.116 -3.3719  1.8688  1.9944
  870MOL0     H17420  10.986   0.939   8.969  1.0021  1.2242  0.6380
  870MOL0     H17421  10.995   0.765   8.999  0.2193  0.9012 -0.5986
  870MOL0     H17422  11.071   0.775   9.200 -3.1922 -1.8726 -0.1375
  870MOL0     H17423  10.990   0.922   9.258  1.6636  0.0298  0.6028
  870MOL0     H17424  11.144   1.062   9.114  0.1435 -0.6050 -2.6972
  870MOL0     H17425  11.212   0.981   9.249 -4.7487  3.6939  2.1813
  870MOL0     H17426  11.224   0.856   8.974 -0.2874 -2.9625 -0.1008
  870MOL0     H17427  11.292   0.794   9.128 -1.9908  0.8682  2.1303
  870MOL0     H17428  11.464   0.918   8.986  0.4976 -1.4105  1.1835
  870MOL0     H17429  11.365   1.070   9.023  1.9726  0.3055  1.8034
  870MOL0     H17430  10.357   0.731   9.012 -3.3721 -2.4122  1.2722
  870MOL0     H17431  10.124   0.647   8.956 -1.3022  2.3399 -0.1884
  870MOL0     H17432   9.860   0.317   8.646 -2.3602 -1.9732  0.1467
  870MOL0     H17433   9.621   0.268   8.627 -1.2231  1.0443 -1.5956
  870MOL0     H17434   7.840   0.526   9.493 -1.7440  2.0847  3.3661
  870MOL0     H17435   7.660   0.547   9.644  3.2164  0.1410 -1.5225
  870MOL0     H17436   7.224   0.606   9.795 -1.0705 -0.8626  1.6096
  870MOL0     H17437   7.026   0.596   9.911 -2.6913 -2.6368  1.1496
  870MOL0     H17438   6.817   0.630   9.953  1.4615  0.1427  1.1877
  870MOL0     H17439   6.826   0.464  10.038 -0.1233 -0.9072 -0.5481
  870MOL0     H17440   6.621   0.561  10.122  1.1713 -3.4441  0.8616
  870MOL0     H17441   6.576   0.440  10.010 -0.6727  0.1768 -1.0636
  870MOL0     H17442   6.446   0.626   9.934 -0.8704  0.8532 -0.9725
  870MOL0     H17443   6.570   0.630   9.819 -0.4342 -1.4104  0.1220
  870MOL0     H17444   6.568   0.794  10.079 -1.8886 -0.8487 -0.2352
  870MOL0     H17445   6.691   0.815   9.944  0.0084  0.1384 -1.3075
  870MOL0     H17446   6.364   1.061   9.845  1.2149  0.6122  0.7208
  870MOL0     H17447   6.841   0.361   9.597  0.5729  0.4711 -1.1710
  870MOL0     H17448   6.926   0.323   9.414 -0.0018 -1.0052  0.9377
  870MOL0     H17449   7.073   0.411   9.351  3.5816 -1.7830 -0.7879
  870MOL0     H17450   7.091   0.260   9.435  0.5690  0.6192 -1.4515
  871MOL0     O17451  10.389   1.253   4.179  0.6228 -0.0203 -0.1097
  871MOL0     C17452  10.339   1.363   4.215 -0.6912 -0.0787  0.6074
  871MOL0     O17453  10.371   1.488   4.154 -0.2513 -0.1686 -0.2415
  871MOL0     C17454  10.475   1.488   4.060 -0.3517 -0.3257 -0.0366
  871MOL0     C17455  10.602   1.467   4.103  0.2282 -1.2390  0.0922
  871MOL0     C17456  10.709   1.470   4.008  0.0961  0.3830 -0.3435
  871MOL0     C17457  10.687   1.510   3.872  0.4734  0.5662  0.4136
  871MOL0     O17458  10.785   1.537   3.779  0.0276  0.3919 -0.5184
  871MOL0     C17459  10.900   1.453   3.776 -0.0672 -0.3305 -0.6123
  871MOL0     C17460  10.943   1.445   3.635 -0.1921  1.1684 -0.9170
  871MOL0     C17461  11.051   1.331   3.629  0.1287 -0.0673 -0.0417
  871MOL0     C17462  11.110   1.335   3.492  0.2227 -0.2838  0.4057
  871MOL0     C17463  11.226   1.235   3.477  0.6429 -0.2806  1.4534
  871MOL0     C17464  11.260   1.199   3.332  0.0332 -0.0515 -0.8547
  871MOL0     C17465  11.387   1.121   3.316  0.1887  0.6291 -0.4560
  871MOL0     C17466  11.510   1.203   3.364  0.6559 -0.1570 -0.2567
  871MOL0     N17467  11.578   1.273   3.253 -0.2681  0.0972  0.1985
  871MOL0     C17468  11.535   1.385   3.185 -0.3213  0.1489 -0.1207
  871MOL0     C17469  11.618   1.390   3.080  0.1767  0.5657  1.1756
  871MOL0     C17470  11.635   1.503   2.992 -0.0836  0.1824  0.4146
  871MOL0     C17471  11.760   1.587   3.041 -0.1633 -0.1081 -0.0373
  871MOL0     C17472  11.760   1.728   2.983  0.8684  0.4689  0.2928
  871MOL0     C17473  11.905   1.787   2.984  0.2491  0.1298 -0.8336
  871MOL0     O17474  11.924   1.891   2.889  0.1262 -0.7099 -0.2324
  871MOL0     C17475  12.027   1.973   2.885  1.0458  0.8579 -1.3912
  871MOL0     C17476  12.031   2.064   2.786  0.8553  0.1494 -1.0659
  871MOL0     C17477  12.142   2.152   2.768  0.1349  0.7456  0.8263
  871MOL0     C17478  12.251   2.149   2.856  0.2771 -0.3249 -0.1595
  871MOL0     C17479  12.368   2.253   2.839  0.2284  0.5330  0.2806
  871MOL0     O17480  12.472   2.234   2.930 -0.6725 -0.1260  0.0322
  871MOL0     C17481  12.582   2.304   2.895 -0.6702  0.5320 -0.6528
  871MOL0     C17482  12.703   2.234   2.867 -0.9894  0.0255  0.2282
  871MOL0     C17483  12.816   2.298   2.806  0.1237 -0.4621 -0.1036
  871MOL0     C17484  12.814   2.438   2.791  0.8002 -0.1642  0.5255
  871MOL0     O17485  12.927   2.492   2.730 -0.9807 -0.2259 -1.0507
  871MOL0     C17486  12.958   2.630   2.759 -0.3730  0.1623  0.4847
  871MOL0     C17487  13.048   2.711   2.652  0.5123  1.4007 -0.3679
  871MOL0     C17488  12.998   2.854   2.649 -0.2690 -0.3432 -0.6684
  871MOL0     C17489  13.023   2.931   2.520  0.6883  0.6300  0.8308
  871MOL0     C17490  12.976   3.079   2.549  0.9499 -0.1093 -0.7606
  871MOL0     C17491  12.845   3.121   2.486 -0.0789  0.1131 -0.4489
  871MOL0     C17492  12.793   3.251   2.549  0.5245 -0.2200  1.3263
  871MOL0     C17493  12.746   3.240   2.702  0.8870  0.0419  0.6351
  871MOL0    Cl17494  12.600   3.132   2.720  0.0746  0.0487  0.1353
  871MOL0     C17495  12.691   2.505   2.808 -0.7597 -0.8202 -0.2602
  871MOL0     C17496  12.579   2.441   2.857 -0.3884 -0.5308  0.4647
  871MOL0     O17497  12.363   2.331   2.743  0.6319  0.4932  0.2795
  871MOL0     C17498  12.245   2.052   2.965  0.4840 -0.6481 -0.5410
  871MOL0     C17499  12.133   1.965   2.974 -0.9216  0.0464 -0.3107
  871MOL0     N17500  11.716   1.295   3.091  0.9345  0.0276  0.0355
  871MOL0     N17501  11.692   1.223   3.198  0.2175 -0.4397  0.1844
  871MOL0     C17502  10.553   1.527   3.838  0.0122 -0.7675  0.2200
  871MOL0     C17503  10.446   1.503   3.921  0.6031 -0.5598  0.0474
  871MOL0     C17504  10.238   1.352   4.325 -0.1134  1.0496  0.7375
  871MOL0     C17505  10.143   1.449   4.340  0.5559 -0.8629  0.2489
  871MOL0     C17506  10.056   1.460   4.453  0.3703 -0.1318  0.8599
  871MOL0     C17507  10.072   1.375   4.560  1.0208 -0.3455  0.2429
  871MOL0     O17508   9.977   1.390   4.662 -0.3044 -0.1472  0.0073
  871MOL0     C17509   9.969   1.524   4.731 -0.5445  0.4662 -0.2344
  871MOL0     C17510  10.006   1.532   4.876 -1.0014 -0.0688 -0.7262
  871MOL0     C17511  10.147   1.480   4.916 -0.3019  0.5254 -0.0577
  871MOL0     C17512  10.177   1.477   5.064 -0.3224  0.1454 -0.2304
  871MOL0     C17513  10.127   1.355   5.128  0.2215  0.1815 -0.0921
  871MOL0     C17514  10.085   1.259   5.196  0.7111  0.0522  0.7122
  871MOL0     C17515  10.156   1.268   4.544  0.4512  0.2894 -0.2956
  871MOL0     C17516  10.232   1.249   4.429  1.1970  0.0178 -0.8851
  871MOL0     C17517  10.307   1.122   4.439 -0.0477  0.0079  0.2670
  871MOL0     H17518  10.622   1.445   4.208  2.7598 -4.1350 -0.8310
  871MOL0     H17519  10.809   1.446   4.044 -1.1174 -0.9919  2.3016
  871MOL0     H17520  10.987   1.490   3.832  1.3344 -2.2987 -1.3486
  871MOL0     H17521  10.878   1.350   3.804 -1.6167 -0.4156 -1.9989
  871MOL0     H17522  10.985   1.542   3.607  0.2898  1.3326  0.3370
  871MOL0     H17523  10.848   1.421   3.586  0.3999  1.2742 -2.1546
  871MOL0     H17524  11.022   1.229   3.657  2.1111 -1.1170 -1.5655
  871MOL0     H17525  11.132   1.362   3.695 -1.3519 -2.2384  3.0474
  871MOL0     H17526  11.029   1.313   3.422 -0.8674  1.0709  1.1806
  871MOL0     H17527  11.136   1.436   3.460 -0.4887 -0.5717 -1.1818
  871MOL0     H17528  11.309   1.282   3.531  2.1526 -1.7808  0.5358
  871MOL0     H17529  11.188   1.143   3.520 -1.7943 -0.5603 -1.0045
  871MOL0     H17530  11.179   1.131   3.305 -0.1159 -0.8886  1.4389
  871MOL0     H17531  11.247   1.286   3.267 -0.4594  1.1553  0.7915
  871MOL0     H17532  11.400   1.087   3.212 -1.0540  0.2509 -0.5002
  871MOL0     H17533  11.379   1.030   3.377  2.2091  1.2973  0.9074
  871MOL0     H17534  11.495   1.277   3.443  4.2580 -2.8879  3.4459
  871MOL0     H17535  11.582   1.132   3.406 -2.9538 -3.4865  0.8679
  871MOL0     H17536  11.470   1.464   3.223  0.1049  0.7462 -0.6203
  871MOL0     H17537  11.651   1.459   2.893 -0.3628  0.7706  0.0984
  871MOL0     H17538  11.540   1.558   2.991 -0.5519 -0.6054  0.5433
  871MOL0     H17539  11.762   1.584   3.150 -5.4439 -2.1246  0.2955
  871MOL0     H17540  11.849   1.533   3.009 -0.9599 -1.7435  0.4283
  871MOL0     H17541  11.696   1.788   3.049  2.6651  1.1393  1.5177
  871MOL0     H17542  11.719   1.709   2.884 -1.9633 -3.3161  1.9583
  871MOL0     H17543  11.984   1.713   2.971 -1.0623 -1.8775  1.6677
  871MOL0     H17544  11.907   1.830   3.085 -1.7921  3.0912 -1.9215
  871MOL0     H17545  11.938   2.071   2.731 -0.7911 -1.5779  1.2646
  871MOL0     H17546  12.152   2.213   2.679 -1.8559 -1.2200 -0.8592
  871MOL0     H17547  12.705   2.126   2.867 -0.8094 -0.0307  2.9927
  871MOL0     H17548  12.906   2.242   2.784 -0.5162 -0.8796 -1.8432
  871MOL0     H17549  12.864   2.682   2.778 -0.9311 -0.9234  0.7810
  871MOL0     H17550  13.015   2.642   2.852 -0.9825  0.8476  0.7807
  871MOL0     H17551  13.154   2.720   2.676 -0.2978  1.9217  3.8949
  871MOL0     H17552  13.024   2.661   2.558  0.2731  0.6064  0.1005
  871MOL0     H17553  12.890   2.853   2.669 -0.7008  0.8193 -2.6745
  871MOL0     H17554  13.049   2.907   2.729 -0.6949  2.4496 -2.1335
  871MOL0     H17555  12.963   2.893   2.437  2.0409  0.7767 -0.2488
  871MOL0     H17556  13.132   2.933   2.506  1.4799 -1.3067  5.0585
  871MOL0     H17557  13.055   3.152   2.529  1.1212  0.0756  0.4763
  871MOL0     H17558  12.977   3.095   2.657  0.0619  0.5842 -0.8438
  871MOL0     H17559  12.881   3.128   2.383  3.4787  0.2205  0.6669
  871MOL0     H17560  12.760   3.053   2.492 -0.3514  0.3884 -1.1329
  871MOL0     H17561  12.706   3.282   2.490 -0.3223 -0.4189  2.4418
  871MOL0     H17562  12.867   3.331   2.542 -1.4474  1.5375 -2.5278
  871MOL0     H17563  12.826   3.212   2.772  0.2172  2.8874  2.7142
  871MOL0     H17564  12.708   3.339   2.730 -0.1224  0.1140 -0.8958
  871MOL0     H17565  12.671   2.611   2.792  1.2285 -0.3085  0.3605
  871MOL0     H17566  12.489   2.501   2.850 -0.2070  0.0701  2.7345
  871MOL0     H17567  12.319   2.051   3.045  2.4334 -2.7740 -2.2289
  871MOL0     H17568  12.139   1.891   3.053 -0.1915  2.0998  1.6333
  871MOL0     H17569  10.537   1.563   3.736  0.3778 -0.8051  0.1483
  871MOL0     H17570  10.342   1.514   3.893  0.4529 -1.2199  0.3300
  871MOL0     H17571  10.133   1.521   4.260  3.6670 -0.1901  0.3306
  871MOL0     H17572   9.966   1.520   4.450 -1.0641 -2.2026  0.0048
  871MOL0     H17573   9.863   1.552   4.725 -0.5678  0.4974  0.2946
  871MOL0     H17574  10.021   1.603   4.677  0.2297  1.4842  1.8967
  871MOL0     H17575   9.936   1.475   4.937  0.5853 -0.8361  0.4467
  871MOL0     H17576   9.997   1.638   4.903 -3.9736 -0.4214 -0.0029
  871MOL0     H17577  10.215   1.551   4.866  0.0985 -0.2631 -0.6620
  871MOL0     H17578  10.176   1.381   4.879 -0.4569  0.5838 -0.3366
  871MOL0     H17579  10.285   1.482   5.075 -0.5754  3.4732  1.9017
  871MOL0     H17580  10.138   1.562   5.120  0.6223 -1.1612  2.5486
  871MOL0     H17581  10.049   1.191   5.270  1.7522 -0.0375  1.1564
  871MOL0     H17582  10.180   1.201   4.626  1.3208  1.0468  0.0865
  871MOL0     H17583  10.408   1.130   4.398  0.7369  2.0446  2.3325
  871MOL0     H17584  10.327   1.085   4.540 -1.1753  0.5992  0.7343
  871MOL0     H17585  10.250   1.052   4.377 -1.3061  3.4631 -2.8770
  872MOL0     O17586   7.119   3.511   9.246  0.3631 -0.1961  0.0610
  872MOL0     C17587   7.033   3.595   9.275 -0.5442  0.2024  0.8447
  872MOL0     O17588   6.901   3.587   9.239  0.6374  0.0269 -0.9051
  872MOL0     C17589   6.881   3.493   9.143 -0.0497  0.0799 -0.0603
  872MOL0     C17590   6.822   3.368   9.162  0.4987  0.3698 -0.4158
  872MOL0     C17591   6.793   3.281   9.057 -0.8746  0.3024 -0.0475
  872MOL0     C17592   6.816   3.318   8.924  0.6346  0.2932 -0.1968
  872MOL0     O17593   6.779   3.231   8.827 -0.6202  0.0320  0.1968
  872MOL0     C17594   6.877   3.217   8.727  0.5546  0.1262  1.2600
  872MOL0     C17595   6.850   3.077   8.672 -0.3398  0.5910  0.5745
  872MOL0     C17596   6.948   3.060   8.550  0.0195 -0.0401 -0.1749
  872MOL0     C17597   7.091   3.030   8.603 -0.2108 -0.0027 -0.4960
  872MOL0     C17598   7.197   3.007   8.494 -0.3531 -0.2534  0.0408
  872MOL0     C17599   7.338   2.995   8.536 -0.1712  0.2481 -1.3696
  872MOL0     C17600   7.441   2.996   8.426  0.1117  0.8819  0.3315
  872MOL0     C17601   7.579   2.953   8.487  0.1992  0.7178  0.6725
  872MOL0     N17602   7.679   2.950   8.368 -0.0573 -0.1219 -0.1214
  872MOL0     C17603   7.765   2.845   8.344 -0.1618  0.0982 -0.2015
  872MOL0     C17604   7.809   2.865   8.216  0.2561  0.7476 -0.5506
  872MOL0     C17605   7.903   2.785   8.138 -0.4150  0.3482 -0.1183
  872MOL0     C17606   7.972   2.667   8.208  0.5211  0.7279  0.3892
  872MOL0     C17607   8.083   2.722   8.300  0.1470 -0.5105 -0.3375
  872MOL0     C17608   8.180   2.610   8.318  0.4148 -0.3967 -1.3195
  872MOL0     O17609   8.264   2.584   8.201  0.4610 -0.3738  0.4232
  872MOL0     C17610   8.338   2.470   8.194  0.7727  0.4609  0.4332
  872MOL0     C17611   8.373   2.386   8.304 -0.3763  0.4101 -0.1140
  872MOL0     C17612   8.450   2.269   8.288  0.0563 -0.7072 -0.3434
  872MOL0     C17613   8.482   2.228   8.161 -0.8250 -0.5751  0.7848
  872MOL0     C17614   8.561   2.100   8.139  0.0822  0.6368  0.0004
  872MOL0     O17615   8.656   2.097   8.033  0.6320 -0.1378 -0.1287
  872MOL0     C17616   8.751   2.005   8.027 -0.0480 -0.7906  0.4810
  872MOL0     C17617   8.731   1.867   8.028 -0.1579 -0.0029 -0.4399
  872MOL0     C17618   8.830   1.776   8.009  0.1027  0.2003 -0.2486
  872MOL0     C17619   8.953   1.807   7.962 -1.0670  0.7466 -0.5975
  872MOL0     O17620   9.050   1.710   7.916  0.9921 -0.9609 -0.1777
  872MOL0     C17621   9.182   1.750   7.950  0.3427 -0.2615  0.4031
  872MOL0     C17622   9.258   1.618   7.961  0.6492 -0.2111  0.1102
  872MOL0     C17623   9.267   1.529   7.840  0.0326 -0.0554  0.0575
  872MOL0     C17624   9.354   1.403   7.867  0.6059 -0.2443 -0.3561
  872MOL0     C17625   9.358   1.285   7.757  0.0778  1.0096 -0.4916
  872MOL0     C17626   9.225   1.198   7.741 -0.0975 -0.2565  0.7769
  872MOL0     C17627   9.258   1.046   7.705  1.0227 -0.0920  0.3863
  872MOL0     C17628   9.296   0.967   7.826 -0.1332  0.1918 -0.1358
  872MOL0    Cl17629   9.318   0.787   7.787 -0.0607  0.2594 -0.3015
  872MOL0     C17630   8.973   1.947   7.962  0.1840 -0.4795  1.0768
  872MOL0     C17631   8.886   2.043   8.007  0.3037 -0.0386 -0.3555
  872MOL0     O17632   8.554   2.014   8.230  0.8847  0.1910  0.5386
  872MOL0     C17633   8.445   2.309   8.051 -0.6384 -0.2987  0.1466
  872MOL0     C17634   8.385   2.430   8.066  0.8905 -0.4254 -0.4039
  872MOL0     N17635   7.749   2.980   8.172  0.8148 -0.3941  0.3064
  872MOL0     N17636   7.668   3.027   8.255 -0.6703 -0.2226  0.0483
  872MOL0     C17637   6.876   3.438   8.903 -1.1149 -0.3218 -0.6257
  872MOL0     C17638   6.914   3.528   9.008  0.7124  0.5795  0.0744
  872MOL0     C17639   7.069   3.693   9.382 -0.1827  0.2474  0.2652
  872MOL0     C17640   6.970   3.726   9.481  0.7153  0.2824  0.8299
  872MOL0     C17641   6.993   3.832   9.571  0.0640 -0.2315  1.2390
  872MOL0     C17642   7.121   3.896   9.565 -0.1682  0.6934  0.7185
  872MOL0     O17643   7.172   4.003   9.642  0.4007 -0.3646  1.2343
  872MOL0     C17644   7.072   4.088   9.712  0.2105 -0.5545 -0.8293
  872MOL0     C17645   7.030   4.214   9.637 -0.7194 -0.2441 -0.4483
  872MOL0     C17646   7.141   4.326   9.617 -0.1390  0.5729  0.1827
  872MOL0     C17647   7.102   4.443   9.522  0.2425 -0.3143 -1.0443
  872MOL0     C17648   7.016   4.540   9.587 -1.0505 -0.3432 -0.6373
  872MOL0     C17649   6.951   4.620   9.649  0.2103  0.2038  0.1376
  872MOL0     C17650   7.215   3.855   9.473 -0.0490  0.1581  0.2105
  872MOL0     C17651   7.195   3.753   9.381  0.1506 -0.5543 -0.4176
  872MOL0     C17652   7.313   3.712   9.293 -1.2009 -0.4382 -0.0234
  872MOL0     H17653   6.779   3.338   9.257  1.2913  0.1311 -0.1278
  872MOL0     H17654   6.738   3.187   9.062 -1.0202  0.2523 -1.9532
  872MOL0     H17655   6.855   3.295   8.654 -1.6431 -0.4388  1.2351
  872MOL0     H17656   6.974   3.217   8.777 -0.1689 -1.2512  2.7601
  872MOL0     H17657   6.749   3.079   8.630 -0.3533  0.8951  0.6155
  872MOL0     H17658   6.867   3.001   8.748  2.5365  1.1195  0.5832
  872MOL0     H17659   6.958   3.154   8.495  4.6482 -0.8781 -1.1476
  872MOL0     H17660   6.909   2.995   8.471  1.6443 -0.3010 -0.7910
  872MOL0     H17661   7.129   3.110   8.667  1.0831 -1.0549  0.1035
  872MOL0     H17662   7.083   2.944   8.671 -3.6640  0.5270 -0.0666
  872MOL0     H17663   7.171   2.928   8.424  0.0046  0.7219 -1.2266
  872MOL0     H17664   7.196   3.102   8.441  1.0863 -0.7971 -1.0441
  872MOL0     H17665   7.371   3.055   8.622 -1.7150 -1.0652  0.2267
  872MOL0     H17666   7.338   2.894   8.579 -3.7322  0.5975 -0.2531
  872MOL0     H17667   7.452   3.102   8.400 -0.5259  1.0599  0.7804
  872MOL0     H17668   7.409   2.949   8.333 -0.3528 -0.0021  0.9246
  872MOL0     H17669   7.615   3.018   8.567  2.5825  0.9401 -0.4833
  872MOL0     H17670   7.565   2.849   8.517  1.7517 -0.4839 -2.3432
  872MOL0     H17671   7.791   2.756   8.400  4.5678  0.0705 -2.0071
  872MOL0     H17672   7.845   2.734   8.060 -1.7687 -2.5325  2.5401
  872MOL0     H17673   7.984   2.835   8.084 -1.1174  0.5556 -1.0165
  872MOL0     H17674   7.896   2.613   8.265 -2.6344  3.2231 -1.1336
  872MOL0     H17675   8.024   2.612   8.129 -0.4196  2.6131 -1.6443
  872MOL0     H17676   8.039   2.755   8.394 -1.1703 -2.4673 -0.2027
  872MOL0     H17677   8.136   2.806   8.255  1.6214 -0.8884  0.6258
  872MOL0     H17678   8.125   2.523   8.355 -0.7832  0.1841 -1.6857
  872MOL0     H17679   8.243   2.651   8.398 -0.0347 -1.1431 -0.5688
  872MOL0     H17680   8.345   2.418   8.404 -1.0416  0.6104 -0.3600
  872MOL0     H17681   8.484   2.212   8.374  0.0624 -1.6031 -0.9170
  872MOL0     H17682   8.631   1.825   8.033  0.1710 -0.6865  1.2742
  872MOL0     H17683   8.793   1.674   8.002 -0.6574  0.4204  0.4680
  872MOL0     H17684   9.227   1.817   7.876  0.4288  0.9670  1.5316
  872MOL0     H17685   9.186   1.803   8.045 -3.3445 -0.8929  1.0658
  872MOL0     H17686   9.359   1.648   7.989 -0.3501  2.8035  0.8577
  872MOL0     H17687   9.213   1.556   8.040  1.4882 -0.1890  0.6154
  872MOL0     H17688   9.166   1.500   7.808  0.5787  0.8736 -2.7842
  872MOL0     H17689   9.304   1.595   7.761 -2.5708 -0.4090 -1.5812
  872MOL0     H17690   9.313   1.359   7.959 -0.9820 -2.1023 -1.8653
  872MOL0     H17691   9.458   1.435   7.867  1.7482 -3.5092 -1.4375
  872MOL0     H17692   9.434   1.217   7.797 -0.5401  0.4700 -0.2210
  872MOL0     H17693   9.390   1.318   7.658 -0.3531  1.0001 -0.6361
  872MOL0     H17694   9.182   1.208   7.841  1.1468  0.0912  1.2932
  872MOL0     H17695   9.149   1.242   7.675 -0.3244  0.1752  1.3151
  872MOL0     H17696   9.339   1.056   7.632  1.0662 -1.1024  0.2744
  872MOL0     H17697   9.173   0.995   7.657  1.3865  0.9353 -1.4488
  872MOL0     H17698   9.396   0.990   7.864  1.5936 -3.4618 -1.9414
  872MOL0     H17699   9.230   0.971   7.913 -0.7771  0.8842 -0.6530
  872MOL0     H17700   9.077   1.977   7.948  0.5747 -2.4710 -0.8577
  872MOL0     H17701   8.912   2.148   8.021 -0.2331  0.0816 -0.2265
  872MOL0     H17702   8.461   2.265   7.953 -0.4487 -0.9831  0.4812
  872MOL0     H17703   8.367   2.489   7.977  1.8002 -2.1023 -1.7780
  872MOL0     H17704   6.893   3.453   8.797  2.2171  2.0396  0.1015
  872MOL0     H17705   6.963   3.619   8.975 -1.9593  1.3979 -2.0311
  872MOL0     H17706   6.878   3.669   9.481  2.2911 -2.5523 -1.0881
  872MOL0     H17707   6.915   3.873   9.636  0.0411 -0.4951  1.3794
  872MOL0     H17708   7.114   4.123   9.807 -1.1741 -0.7261 -0.1319
  872MOL0     H17709   6.980   4.036   9.738 -0.6246  1.8970  1.6708
  872MOL0     H17710   6.948   4.260   9.691  0.6266  3.8476 -1.5569
  872MOL0     H17711   6.995   4.184   9.538 -1.6087  1.5181 -0.6920
  872MOL0     H17712   7.227   4.274   9.574  1.3131  2.2708  0.8820
  872MOL0     H17713   7.175   4.358   9.717 -2.1684 -1.0097  1.4611
  872MOL0     H17714   7.196   4.492   9.499  1.6207 -2.7802 -0.9989
  872MOL0     H17715   7.061   4.403   9.428  0.3385 -0.6344 -0.9509
  872MOL0     H17716   6.902   4.688   9.714 -0.5878 -0.0046 -0.2344
  872MOL0     H17717   7.299   3.923   9.479 -1.8186  2.3553  2.0843
  872MOL0     H17718   7.292   3.689   9.188 -0.4130  0.6501 -0.4427
  872MOL0     H17719   7.382   3.797   9.283 -0.5241 -0.8299  1.1380
  872MOL0     H17720   7.358   3.623   9.339 -3.3063 -0.4383  2.2356
  873MOL0     O17721   3.753   6.317   1.134 -0.2682  0.0533  0.0743
  873MOL0     C17722   3.765   6.266   1.243 -0.5572  1.0323  0.0249
  873MOL0     O17723   3.861   6.302   1.336  0.0673 -1.1575  0.2775
  873MOL0     C17724   3.916   6.424   1.325 -0.1950 -0.2017 -0.3280
  873MOL0     C17725   3.921   6.504   1.445  0.5326  0.6909 -0.8395
  873MOL0     C17726   4.005   6.608   1.444 -0.1798 -0.6518 -0.5777
  873MOL0     C17727   4.071   6.651   1.327  0.0114 -0.0572  0.4556
  873MOL0     O17728   4.139   6.765   1.332 -0.6926 -0.7226  0.0014
  873MOL0     C17729   4.205   6.816   1.205 -0.3552  0.0752 -0.7640
  873MOL0     C17730   4.243   6.961   1.245  0.1745  0.2121  0.0877
  873MOL0     C17731   4.122   7.060   1.225  0.1794 -0.5281  0.6712
  873MOL0     C17732   4.134   7.178   1.319 -0.1107  0.2302 -0.1797
  873MOL0     C17733   4.264   7.257   1.313  0.2733 -0.1279 -0.4249
  873MOL0     C17734   4.280   7.340   1.183  0.5121 -0.2335 -0.4017
  873MOL0     C17735   4.392   7.445   1.193 -0.6319  0.3558 -0.5421
  873MOL0     C17736   4.529   7.383   1.211  0.4277  0.5990  0.0947
  873MOL0     N17737   4.575   7.292   1.099  0.6492 -0.1620 -0.3328
  873MOL0     C17738   4.575   7.321   0.964 -0.1205  0.0097  0.4905
  873MOL0     C17739   4.611   7.206   0.904 -0.4175 -0.0204 -0.4373
  873MOL0     C17740   4.648   7.173   0.763 -0.1727 -0.2855 -0.2856
  873MOL0     C17741   4.797   7.208   0.717 -0.3727 -0.3740  1.1652
  873MOL0     C17742   4.916   7.183   0.811 -0.0154 -0.0956 -0.6790
  873MOL0     C17743   5.044   7.255   0.751  0.2817 -0.6728  0.8057
  873MOL0     O17744   5.035   7.407   0.757  0.1888  0.6439  1.1019
  873MOL0     C17745   5.110   7.460   0.860  0.6584 -0.5827 -0.0765
  873MOL0     C17746   5.143   7.397   0.984 -0.2774  0.3368  0.6243
  873MOL0     C17747   5.226   7.465   1.072  0.7735 -1.0812  1.5120
  873MOL0     C17748   5.272   7.600   1.048 -0.1987  0.1546  0.2425
  873MOL0     C17749   5.348   7.670   1.152 -0.0144  0.9023 -0.4365
  873MOL0     O17750   5.384   7.798   1.123  0.1372 -0.7208  0.4084
  873MOL0     C17751   5.488   7.855   1.181 -0.7235 -0.8076 -0.3521
  873MOL0     C17752   5.615   7.794   1.172 -0.1098 -0.4042 -0.3735
  873MOL0     C17753   5.736   7.859   1.207  0.6934 -0.1774 -0.6418
  873MOL0     C17754   5.726   7.986   1.269  0.3924  0.9009 -0.8023
  873MOL0     O17755   5.841   8.037   1.329  0.5121  0.6823  0.7583
  873MOL0     C17756   5.836   8.066   1.469 -0.2736 -0.0577  0.5071
  873MOL0     C17757   5.984   8.083   1.495  0.0224  0.1410 -0.5558
  873MOL0     C17758   6.003   8.086   1.648 -0.6259  0.3904 -0.2079
  873MOL0     C17759   6.129   8.162   1.677 -0.0242 -0.1529 -0.4688
  873MOL0     C17760   6.183   8.174   1.822  0.5507  0.5749 -0.4063
  873MOL0     C17761   6.077   8.209   1.928  0.4448 -0.3843  0.3390
  873MOL0     C17762   6.141   8.230   2.066 -0.2526 -0.3871 -0.8683
  873MOL0     C17763   6.190   8.095   2.126 -0.3155 -0.2269 -0.6642
  873MOL0    Cl17764   6.057   7.992   2.174 -0.0466  0.0812  0.4122
  873MOL0     C17765   5.604   8.055   1.273  0.4180 -0.1232 -0.2319
  873MOL0     C17766   5.484   7.988   1.234  0.3915  0.0175 -0.3663
  873MOL0     O17767   5.392   7.603   1.254  0.6068  0.2137  0.2738
  873MOL0     C17768   5.224   7.663   0.930 -0.9396  0.9097  1.0660
  873MOL0     C17769   5.142   7.596   0.840  0.3825  0.4640  0.1204
  873MOL0     N17770   4.628   7.110   1.003 -0.3193 -0.2945 -0.0643
  873MOL0     N17771   4.607   7.166   1.114  0.5256 -0.2694 -0.2710
  873MOL0     C17772   4.059   6.574   1.211 -0.0599 -0.2602 -0.1965
  873MOL0     C17773   3.982   6.462   1.215  0.7854  0.1202 -0.0010
  873MOL0     C17774   3.669   6.166   1.287  0.4994 -0.9191 -0.0639
  873MOL0     C17775   3.615   6.175   1.419 -0.7997  0.6483  0.6002
  873MOL0     C17776   3.524   6.079   1.461 -0.5811  0.1175  0.1888
  873MOL0     C17777   3.476   5.979   1.381  0.0200  0.7318 -0.3654
  873MOL0     O17778   3.377   5.895   1.427  0.0908 -0.2893  0.7692
  873MOL0     C17779   3.323   5.798   1.328 -0.0741  0.5210 -0.2373
  873MOL0     C17780   3.196   5.739   1.385  0.2668 -1.1746  0.5635
  873MOL0     C17781   3.215   5.602   1.461  0.8307  0.3487 -0.0447
  873MOL0     C17782   3.203   5.620   1.606 -0.4298 -1.1114  0.7357
  873MOL0     C17783   3.068   5.634   1.657  1.3949 -0.0482  0.6382
  873MOL0     C17784   2.965   5.628   1.719  0.0153 -0.4051 -0.1324
  873MOL0     C17785   3.527   5.964   1.252 -0.3543 -0.4102  0.0488
  873MOL0     C17786   3.627   6.062   1.208  0.4502  0.2813  0.3051
  873MOL0     C17787   3.685   6.036   1.071  0.9769  0.3040  0.8258
  873MOL0     H17788   3.873   6.470   1.536 -2.1951  1.7651 -1.7657
  873MOL0     H17789   4.024   6.671   1.531 -1.5441  1.8938 -1.9889
  873MOL0     H17790   4.288   6.750   1.178 -1.1470  0.0568 -3.4391
  873MOL0     H17791   4.129   6.836   1.129 -4.3166 -0.9273  2.5913
  873MOL0     H17792   4.329   6.992   1.184  1.6211 -3.1627  0.2001
  873MOL0     H17793   4.285   6.965   1.346  3.3825  2.3445 -1.1421
  873MOL0     H17794   4.040   7.001   1.268 -0.3288 -3.0488 -3.2747
  873MOL0     H17795   4.103   7.087   1.121  1.7390  0.6917  0.6657
  873MOL0     H17796   4.046   7.241   1.305 -0.4698 -0.0724  0.6815
  873MOL0     H17797   4.129   7.141   1.422 -1.6374  0.0870 -0.2856
  873MOL0     H17798   4.253   7.318   1.403 -3.0434 -0.4062 -0.5168
  873MOL0     H17799   4.349   7.188   1.324  0.7546  0.7312  1.7996
  873MOL0     H17800   4.290   7.270   1.099 -0.7155 -1.8506  0.7462
  873MOL0     H17801   4.188   7.394   1.157 -0.3029 -0.5381  1.6542
  873MOL0     H17802   4.366   7.514   1.274  1.1131  1.7020 -1.0674
  873MOL0     H17803   4.398   7.504   1.101 -3.2473 -1.1520 -1.7737
  873MOL0     H17804   4.593   7.471   1.221 -2.0936  2.2365  3.5145
  873MOL0     H17805   4.546   7.334   1.307  1.5491  0.6012 -0.0859
  873MOL0     H17806   4.560   7.417   0.917  0.7410 -0.0089  0.1614
  873MOL0     H17807   4.638   7.064   0.757 -0.7179 -0.5367  2.9656
  873MOL0     H17808   4.585   7.227   0.692 -1.6050 -0.9691  0.4120
  873MOL0     H17809   4.813   7.161   0.620 -1.1148  1.1957  0.2578
  873MOL0     H17810   4.798   7.315   0.695 -3.7089 -0.7952 -2.0001
  873MOL0     H17811   4.935   7.076   0.803 -2.2420 -0.5897 -0.0473
  873MOL0     H17812   4.900   7.206   0.916  0.9881 -4.2761  0.5752
  873MOL0     H17813   5.045   7.226   0.645 -0.7576 -1.0000  0.8714
  873MOL0     H17814   5.140   7.219   0.789  0.6082 -2.6649 -1.6175
  873MOL0     H17815   5.097   7.300   0.996  1.0147 -0.5176 -0.9008
  873MOL0     H17816   5.262   7.417   1.162  1.0468 -1.8392  1.0176
  873MOL0     H17817   5.609   7.699   1.120  2.8615  0.5752 -2.8050
  873MOL0     H17818   5.833   7.809   1.215  0.0585 -1.2891  0.5159
  873MOL0     H17819   5.787   8.163   1.473 -2.4854 -1.1414  2.5864
  873MOL0     H17820   5.776   7.993   1.526 -1.6735 -0.4827 -1.4261
  873MOL0     H17821   6.043   8.004   1.447 -1.2578 -1.0222 -0.2794
  873MOL0     H17822   6.021   8.179   1.456  0.6395 -0.2583 -0.9696
  873MOL0     H17823   5.923   8.138   1.702  1.3960  2.4442  0.9584
  873MOL0     H17824   6.007   7.983   1.683 -2.5241 -0.2055 -1.5466
  873MOL0     H17825   6.112   8.266   1.646 -0.4543  0.6527  2.2203
  873MOL0     H17826   6.215   8.129   1.617 -0.9430  0.6808 -2.3337
  873MOL0     H17827   6.275   8.234   1.827  0.7767  0.2975 -1.1580
  873MOL0     H17828   6.208   8.068   1.837  4.0992  1.4163  0.6904
  873MOL0     H17829   6.040   8.301   1.881  2.3734  0.5719  0.5880
  873MOL0     H17830   5.991   8.143   1.941 -1.6215  2.3135  1.5564
  873MOL0     H17831   6.065   8.278   2.128  1.1930  0.9982 -0.0872
  873MOL0     H17832   6.225   8.300   2.062  1.2160 -1.6952  2.8350
  873MOL0     H17833   6.256   8.048   2.052  3.1869  0.5018  1.7515
  873MOL0     H17834   6.257   8.106   2.212 -0.1527  0.6135 -0.8862
  873MOL0     H17835   5.592   8.159   1.300 -0.1499 -0.2806  0.1419
  873MOL0     H17836   5.391   8.044   1.233  0.2255 -0.1644  1.4420
  873MOL0     H17837   5.248   7.767   0.914 -1.2247  1.2825  2.7890
  873MOL0     H17838   5.123   7.654   0.750  0.2993  0.7479  0.3223
  873MOL0     H17839   4.112   6.597   1.119 -0.0799  1.0228  0.0957
  873MOL0     H17840   3.979   6.396   1.129 -0.4243 -1.7150  1.3723
  873MOL0     H17841   3.638   6.258   1.485 -0.4878  2.4153 -1.6050
  873MOL0     H17842   3.478   6.094   1.559 -1.2385  2.2958 -0.4025
  873MOL0     H17843   3.399   5.720   1.312  1.6155  1.9894  0.3194
  873MOL0     H17844   3.310   5.836   1.227  0.3154  0.2495 -0.3912
  873MOL0     H17845   3.131   5.704   1.304 -0.5374  0.0147  0.6634
  873MOL0     H17846   3.153   5.819   1.446 -0.3237  1.8703 -3.4586
  873MOL0     H17847   3.319   5.579   1.435  0.7721  1.4062 -1.3423
  873MOL0     H17848   3.145   5.526   1.426 -2.2971  2.5685  0.9152
  873MOL0     H17849   3.236   5.521   1.640 -1.1753 -1.3156  0.8660
  873MOL0     H17850   3.265   5.706   1.635 -1.1756 -0.1770 -0.3324
  873MOL0     H17851   2.876   5.636   1.779 -0.6177 -2.5530 -0.7002
  873MOL0     H17852   3.502   5.886   1.182  0.1516  0.1915 -0.8224
  873MOL0     H17853   3.673   5.931   1.040  0.3880  0.1513  1.5316
  873MOL0     H17854   3.641   6.099   0.993 -1.0143  1.1033  2.4905
  873MOL0     H17855   3.793   6.050   1.076  1.0359 -0.1074  0.7645
  874MOL0     O17856   7.185   9.007   6.761  0.0980 -0.8528 -0.0965
  874MOL0     C17857   7.138   8.897   6.720 -0.2462  0.5353 -0.5787
  874MOL0     O17858   7.211   8.796   6.661 -0.2306  0.1915  0.3585
  874MOL0     C17859   7.324   8.840   6.595  0.6359 -0.6454 -0.3401
  874MOL0     C17860   7.447   8.783   6.639  0.4988 -0.6798  0.7271
  874MOL0     C17861   7.573   8.804   6.570  0.2294  0.1492 -0.4933
  874MOL0     C17862   7.569   8.892   6.466 -1.0860  0.3005  1.1944
  874MOL0     O17863   7.689   8.918   6.399  0.8386  0.8583  0.6017
  874MOL0     C17864   7.704   9.021   6.306 -0.4426 -0.5069 -0.1346
  874MOL0     C17865   7.850   9.015   6.256  0.7256  0.3343  0.5195
  874MOL0     C17866   7.959   9.039   6.360 -0.5320  0.5893 -0.4807
  874MOL0     C17867   8.093   9.025   6.293 -1.5479 -0.5666  0.2808
  874MOL0     C17868   8.142   9.162   6.245  0.2956  0.2503 -0.5621
  874MOL0     C17869   8.266   9.133   6.169  0.2874  0.3029  0.3604
  874MOL0     C17870   8.336   9.258   6.123  0.9283  0.3795  0.0354
  874MOL0     C17871   8.285   9.302   5.982  0.0352 -0.0774 -1.0665
  874MOL0     N17872   8.341   9.214   5.878 -0.1833 -0.6427 -0.1304
  874MOL0     C17873   8.455   9.133   5.893  0.5051  0.7779  0.5849
  874MOL0     C17874   8.502   9.110   5.764 -0.2157  0.8699 -0.1850
  874MOL0     C17875   8.619   9.025   5.728 -0.6762 -1.0622  0.2320
  874MOL0     C17876   8.741   9.106   5.673  0.3706  0.0046  0.7572
  874MOL0     C17877   8.842   9.009   5.625  0.3759 -0.4090 -0.6937
  874MOL0     C17878   8.964   9.087   5.590  0.6726 -1.1250  0.8041
  874MOL0     O17879   9.075   9.011   5.531 -0.1814  0.1016  0.4241
  874MOL0     C17880   9.195   9.083   5.507 -0.7931 -0.0410  0.7233
  874MOL0     C17881   9.218   9.212   5.550  0.1884 -0.9260  0.1209
  874MOL0     C17882   9.340   9.278   5.531  0.0285 -0.2148  0.5436
  874MOL0     C17883   9.444   9.215   5.459 -0.1406  0.4608 -1.0044
  874MOL0     C17884   9.580   9.274   5.433 -0.0498 -0.4959  0.1268
  874MOL0     O17885   9.682   9.182   5.412  0.3659 -0.3109  0.2327
  874MOL0     C17886   9.812   9.210   5.432  0.1059  0.5020 -0.2544
  874MOL0     C17887   9.895   9.125   5.361 -0.0490 -1.1007 -0.4623
  874MOL0     C17888  10.038   9.142   5.369  1.1982  0.3231  0.6252
  874MOL0     C17889  10.082   9.245   5.449  0.4968  0.2044 -0.2273
  874MOL0     O17890  10.217   9.255   5.452 -0.1245 -0.9772 -0.0589
  874MOL0     C17891  10.269   9.390   5.428  0.1390  0.7056 -0.6369
  874MOL0     C17892  10.389   9.381   5.336  1.2007 -0.2929 -0.6561
  874MOL0     C17893  10.505   9.305   5.396  0.3359  0.2651 -0.1887
  874MOL0     C17894  10.591   9.258   5.295 -0.1897 -0.2878  0.3823
  874MOL0     C17895  10.701   9.176   5.370  0.3427 -0.2449  0.5818
  874MOL0     C17896  10.781   9.084   5.272  0.6111 -0.5814 -0.2995
  874MOL0     C17897  10.889   9.013   5.361 -0.4298 -0.6434  0.1968
  874MOL0     C17898  10.994   9.110   5.416 -0.0690 -0.4665  0.7659
  874MOL0    Cl17899  10.969   9.197   5.569  0.1962 -0.2171 -0.0162
  874MOL0     C17900   9.997   9.316   5.535 -0.1302 -0.1404 -0.2737
  874MOL0     C17901   9.859   9.297   5.523 -0.1295  0.3262  0.2393
  874MOL0     O17902   9.590   9.396   5.445  0.7542 -0.0626 -0.4243
  874MOL0     C17903   9.422   9.073   5.432 -0.3530 -1.4227 -0.0094
  874MOL0     C17904   9.297   9.012   5.442 -0.3720  0.3127  0.5419
  874MOL0     N17905   8.409   9.167   5.681  0.0149 -0.7446  0.5887
  874MOL0     N17906   8.318   9.221   5.748 -0.3199 -0.2625  0.8410
  874MOL0     C17907   7.450   8.951   6.417  0.6088 -0.8059  0.3900
  874MOL0     C17908   7.329   8.924   6.484  0.1808 -0.0399  0.3479
  874MOL0     C17909   6.987   8.884   6.725 -0.2198 -0.2176  0.1784
  874MOL0     C17910   6.907   8.994   6.714 -0.1952 -0.2697 -0.5435
  874MOL0     C17911   6.771   8.989   6.747  0.1014  0.5536 -0.3364
  874MOL0     C17912   6.707   8.865   6.764  0.3003  1.5944  0.4173
  874MOL0     O17913   6.568   8.857   6.774 -1.2799  0.3339  0.4431
  874MOL0     C17914   6.491   8.738   6.752  0.4269 -0.4668  0.1141
  874MOL0     C17915   6.454   8.679   6.888  0.2637  1.3589  0.0315
  874MOL0     C17916   6.388   8.544   6.868  0.2239  0.3602  0.6986
  874MOL0     C17917   6.329   8.492   7.008 -0.3777 -0.9145  0.2853
  874MOL0     C17918   6.238   8.585   7.078  0.8377  0.0900 -0.0071
  874MOL0     C17919   6.148   8.655   7.113 -0.6790 -1.1270  0.1819
  874MOL0     C17920   6.794   8.751   6.767  0.3209 -0.7034  0.0184
  874MOL0     C17921   6.933   8.760   6.751  0.0547  0.5284 -0.8505
  874MOL0     C17922   7.008   8.628   6.774 -0.3749  0.3846 -0.6649
  874MOL0     H17923   7.450   8.725   6.731 -0.9807  0.8409  1.7961
  874MOL0     H17924   7.665   8.759   6.604 -0.0410 -0.2866 -0.3308
  874MOL0     H17925   7.638   9.006   6.220  0.1629 -1.5519 -0.4392
  874MOL0     H17926   7.683   9.119   6.350 -1.3497 -0.7777  0.0407
  874MOL0     H17927   7.852   9.099   6.186 -3.9838  0.6930  0.4746
  874MOL0     H17928   7.863   8.928   6.190 -0.7074  1.6286 -1.5827
  874MOL0     H17929   7.964   8.956   6.431  1.1766  0.2901 -0.9038
  874MOL0     H17930   7.965   9.135   6.412  2.2419  0.3927 -0.2963
  874MOL0     H17931   8.172   8.981   6.353 -0.6310  0.7114  0.0550
  874MOL0     H17932   8.092   8.956   6.208  1.2015 -0.7499  0.3237
  874MOL0     H17933   8.059   9.215   6.197 -0.3269 -1.0257 -0.9317
  874MOL0     H17934   8.169   9.216   6.336  0.3445  0.4403 -0.6903
  874MOL0     H17935   8.338   9.076   6.229  1.3578  1.4308  0.1718
  874MOL0     H17936   8.255   9.065   6.084  1.9990 -0.5062  0.7243
  874MOL0     H17937   8.445   9.246   6.113  0.6933 -0.3371 -2.3337
  874MOL0     H17938   8.311   9.336   6.195  0.4914 -2.1735  2.8730
  874MOL0     H17939   8.176   9.307   5.976 -0.1083  1.8977  1.3708
  874MOL0     H17940   8.327   9.400   5.957 -0.6533  0.8195  1.0554
  874MOL0     H17941   8.501   9.090   5.982 -0.6897 -0.0916  0.8214
  874MOL0     H17942   8.645   8.965   5.816  0.7040 -1.2205 -0.2590
  874MOL0     H17943   8.592   8.950   5.653  1.5538 -0.5952 -1.1049
  874MOL0     H17944   8.694   9.162   5.592 -0.1542 -3.0086 -1.1618
  874MOL0     H17945   8.779   9.174   5.750  1.8703  0.3043 -0.1998
  874MOL0     H17946   8.810   8.976   5.525  2.1240 -0.1613 -1.3649
  874MOL0     H17947   8.864   8.922   5.688  0.3494  0.2470  0.2425
  874MOL0     H17948   8.999   9.133   5.683  3.1561 -0.0214 -0.5952
  874MOL0     H17949   8.928   9.170   5.528 -2.8040 -1.3186  2.3020
  874MOL0     H17950   9.136   9.274   5.585  0.5869  0.9716 -2.0772
  874MOL0     H17951   9.360   9.377   5.571  3.6054 -1.9821  3.8555
  874MOL0     H17952   9.865   9.046   5.293  2.9156 -4.0512  1.3351
  874MOL0     H17953  10.102   9.072   5.316  1.1032  1.5735 -1.2171
  874MOL0     H17954  10.193   9.461   5.394 -0.5939 -0.4770 -1.5449
  874MOL0     H17955  10.302   9.443   5.518 -0.4300 -0.6817  0.4164
  874MOL0     H17956  10.351   9.326   5.249  0.5940 -1.7070  0.4585
  874MOL0     H17957  10.423   9.481   5.307 -0.4378  0.7234  0.7010
  874MOL0     H17958  10.559   9.367   5.468 -2.5186 -0.0234  2.4036
  874MOL0     H17959  10.477   9.219   5.457  1.4711  0.9085  1.3101
  874MOL0     H17960  10.631   9.338   5.234  2.0012  0.0727  2.1838
  874MOL0     H17961  10.537   9.204   5.217 -0.8392  0.8458  0.0263
  874MOL0     H17962  10.661   9.117   5.453 -2.1655 -0.7572 -0.8981
  874MOL0     H17963  10.767   9.257   5.403  0.6481  0.6256 -1.9672
  874MOL0     H17964  10.716   9.011   5.223 -0.3240 -1.3330  1.9255
  874MOL0     H17965  10.824   9.151   5.197  0.4616 -2.9739 -2.6400
  874MOL0     H17966  10.945   8.946   5.294  0.9637  1.5870 -0.9942
  874MOL0     H17967  10.831   8.953   5.432 -3.2667  0.4594 -1.0300
  874MOL0     H17968  11.085   9.054   5.439  1.7539  1.7678 -0.5934
  874MOL0     H17969  11.028   9.171   5.332 -0.6522 -2.0834 -0.7124
  874MOL0     H17970  10.034   9.393   5.602  0.5595 -2.7400  2.6001
  874MOL0     H17971   9.792   9.350   5.590 -1.1807  0.3372 -0.7834
  874MOL0     H17972   9.505   9.009   5.402  0.1329 -0.7173 -0.1918
  874MOL0     H17973   9.286   8.916   5.392 -0.7561  0.1840  0.8692
  874MOL0     H17974   7.448   9.019   6.332 -0.0028 -1.0525  0.1978
  874MOL0     H17975   7.233   8.965   6.454 -0.5879 -1.0697  1.2965
  874MOL0     H17976   6.952   9.088   6.684  2.9898 -0.9242  1.7073
  874MOL0     H17977   6.693   9.065   6.746 -0.3515  0.4539  4.1385
  874MOL0     H17978   6.544   8.664   6.691  0.9766 -0.5135  0.6372
  874MOL0     H17979   6.398   8.762   6.700 -1.4087 -2.7600  2.1057
  874MOL0     H17980   6.387   8.756   6.928 -1.4693  1.1633 -2.2959
  874MOL0     H17981   6.543   8.664   6.950  0.2974 -0.0234 -0.3090
  874MOL0     H17982   6.453   8.462   6.836  1.2611  1.7600 -0.9956
  874MOL0     H17983   6.307   8.555   6.796  1.7119 -0.8292 -1.2628
  874MOL0     H17984   6.272   8.401   6.989 -2.2658  0.2857 -0.1133
  874MOL0     H17985   6.411   8.476   7.078 -0.7377 -3.3003  0.2338
  874MOL0     H17986   6.068   8.722   7.137  1.8608  2.2274  0.0724
  874MOL0     H17987   6.748   8.659   6.800  0.2032 -0.7928 -0.3936
  874MOL0     H17988   7.085   8.628   6.852  0.0051 -1.5619 -1.0035
  874MOL0     H17989   6.934   8.560   6.817  1.3427 -1.1318 -0.0106
  874MOL0     H17990   7.048   8.600   6.677  1.9189  1.2177 -0.0244
  875MOL0     O17991  11.237   5.656   4.715  0.3037  0.6133  0.5570
  875MOL0     C17992  11.224   5.671   4.836  0.1994  0.1590  0.8299
  875MOL0     O17993  11.318   5.731   4.911 -0.0008  0.7119  0.2199
  875MOL0     C17994  11.451   5.724   4.872  0.4015  1.1238 -0.0711
  875MOL0     C17995  11.512   5.606   4.898 -0.0604 -0.7872 -0.2973
  875MOL0     C17996  11.641   5.591   4.850 -0.1437  0.9585 -0.3550
  875MOL0     C17997  11.710   5.697   4.786 -0.0024  0.6902  1.0386
  875MOL0     O17998  11.837   5.690   4.733  0.1526  0.8093  0.0952
  875MOL0     C17999  11.900   5.556   4.707  0.4534  0.2020 -0.1970
  875MOL0     C18000  12.010   5.576   4.603 -0.4075 -0.7123  0.0519
  875MOL0     C18001  12.111   5.463   4.599 -0.8553 -0.7235 -0.4392
  875MOL0     C18002  12.199   5.503   4.481  0.1656  0.5429  0.0681
  875MOL0     C18003  12.304   5.396   4.447 -0.3374  0.5617 -0.5470
  875MOL0     C18004  12.247   5.265   4.381 -0.4350  0.5043 -0.2062
  875MOL0     C18005  12.164   5.285   4.252  0.0991  0.3180  0.5285
  875MOL0     C18006  12.235   5.341   4.123  0.4393  0.1802  0.3033
  875MOL0     N18007  12.304   5.247   4.025  0.1919 -0.6331 -0.2132
  875MOL0     C18008  12.322   5.114   4.046 -0.8538  0.0549  0.3994
  875MOL0     C18009  12.415   5.082   3.952  0.0395  0.4375  0.7641
  875MOL0     C18010  12.440   4.946   3.900  0.3337  0.3899  0.3730
  875MOL0     C18011  12.536   4.879   3.993 -0.4326  0.3879  1.0302
  875MOL0     C18012  12.683   4.916   3.951  0.4489  0.4804 -0.0703
  875MOL0     C18013  12.789   4.828   4.019  0.1307  0.2966  0.1217
  875MOL0     O18014  12.761   4.686   4.006 -0.4237 -0.3446  0.3970
  875MOL0     C18015  12.841   4.618   4.101  0.5031  0.5673  1.4095
  875MOL0     C18016  12.784   4.483   4.119  0.4841  0.0586  0.3330
  875MOL0     C18017  12.830   4.413   4.226 -0.0639  0.0902 -0.3634
  875MOL0     C18018  12.936   4.452   4.300  0.1426 -0.9119  0.3742
  875MOL0     C18019  12.990   4.363   4.406  0.2226 -0.0238 -0.2910
  875MOL0     O18020  13.123   4.364   4.412  0.2690 -0.5577 -0.4619
  875MOL0     C18021  13.184   4.271   4.499  0.8635  0.4786  0.4729
  875MOL0     C18022  13.304   4.303   4.560 -0.0118  0.1435  0.2232
  875MOL0     C18023  13.377   4.207   4.624  0.2384  0.5119  0.2010
  875MOL0     C18024  13.324   4.074   4.636  0.5740 -0.3553 -0.7851
  875MOL0     O18025  13.379   3.983   4.718  0.3540  0.0335  0.2437
  875MOL0     C18026  13.413   3.865   4.650  0.7650  0.5038  0.1969
  875MOL0     C18027  13.516   3.787   4.717  0.1711  0.7206 -0.1484
  875MOL0     C18028  13.456   3.691   4.817  0.0711 -1.0546  0.7422
  875MOL0     C18029  13.562   3.611   4.881 -0.5255 -0.4067  0.3145
  875MOL0     C18030  13.642   3.521   4.773 -0.4881  0.3902  0.2528
  875MOL0     C18031  13.665   3.383   4.820 -0.6149  0.4163  0.5475
  875MOL0     C18032  13.751   3.320   4.709  0.0825  0.7292 -0.0634
  875MOL0     C18033  13.794   3.175   4.732  1.1903 -0.7660 -0.5629
  875MOL0    Cl18034  13.665   3.052   4.676  0.5513  0.2206  0.3658
  875MOL0     C18035  13.199   4.044   4.583  0.2127  0.4221 -0.2188
  875MOL0     C18036  13.133   4.136   4.505  0.6678 -0.9034  0.2674
  875MOL0     O18037  12.911   4.307   4.483  0.4418 -0.3079 -0.0782
  875MOL0     C18038  13.008   4.569   4.268  0.5502 -0.3063  0.0025
  875MOL0     C18039  12.959   4.655   4.165  1.2892 -0.4921 -0.2728
  875MOL0     N18040  12.463   5.197   3.890 -0.2886 -0.0771 -0.1459
  875MOL0     N18041  12.399   5.295   3.939  0.4876 -0.1498 -0.8916
  875MOL0     C18042  11.653   5.820   4.780  0.1762 -0.5339  0.6310
  875MOL0     C18043  11.519   5.830   4.810  0.1195 -0.0819 -0.3445
  875MOL0     C18044  11.091   5.640   4.891 -0.0121  0.0841 -0.9081
  875MOL0     C18045  10.985   5.595   4.807  0.6420  0.6533 -0.1079
  875MOL0     C18046  10.852   5.585   4.857 -1.0444  0.0034  0.1811
  875MOL0     C18047  10.828   5.610   4.992  0.0545 -0.2809  1.1332
  875MOL0     O18048  10.704   5.591   5.043 -0.7194 -0.2676 -0.3029
  875MOL0     C18049  10.591   5.587   4.962  0.3901  0.4282 -0.1027
  875MOL0     C18050  10.560   5.438   4.931 -0.5397 -1.1158  0.5448
  875MOL0     C18051  10.443   5.419   4.830 -1.3882 -0.2206  0.2362
  875MOL0     C18052  10.320   5.500   4.860 -0.0141 -0.6257 -0.2829
  875MOL0     C18053  10.246   5.425   4.960 -0.4309 -1.1520 -0.3192
  875MOL0     C18054  10.192   5.375   5.054  0.6669 -0.4997 -0.5520
  875MOL0     C18055  10.934   5.633   5.073  0.4498  1.0980 -0.1959
  875MOL0     C18056  11.060   5.647   5.028  0.3872  1.0194 -0.5608
  875MOL0     C18057  11.172   5.651   5.131  0.4117 -0.1016 -0.4870
  875MOL0     H18058  11.468   5.521   4.949  0.8964 -1.4524 -0.5530
  875MOL0     H18059  11.681   5.490   4.853  1.9685  1.7241 -1.3838
  875MOL0     H18060  11.946   5.528   4.802  2.1066  1.1347 -0.6865
  875MOL0     H18061  11.827   5.486   4.665  0.3835 -0.1102  0.4335
  875MOL0     H18062  12.062   5.667   4.632 -0.8676 -0.0605 -1.1040
  875MOL0     H18063  11.961   5.604   4.509 -0.0389  2.5729  0.7183
  875MOL0     H18064  12.072   5.361   4.600  0.5902 -1.3165  1.4634
  875MOL0     H18065  12.179   5.471   4.685  1.1664  1.2576 -2.1076
  875MOL0     H18066  12.140   5.524   4.392 -0.6537 -0.7740  0.2755
  875MOL0     H18067  12.254   5.596   4.498  3.0462  0.2213 -5.3806
  875MOL0     H18068  12.389   5.435   4.391  1.9476 -2.2216  0.6736
  875MOL0     H18069  12.342   5.368   4.546 -0.5318 -2.8788 -1.2894
  875MOL0     H18070  12.336   5.207   4.355  0.6461  1.8933  0.2493
  875MOL0     H18071  12.188   5.199   4.446  0.8367  0.3494  0.8278
  875MOL0     H18072  12.071   5.341   4.266 -0.6947 -0.6547 -0.7082
  875MOL0     H18073  12.135   5.184   4.223  2.5325  0.1352 -1.6505
  875MOL0     H18074  12.163   5.402   4.067  1.4021  2.4684  1.4284
  875MOL0     H18075  12.320   5.402   4.155  0.3919 -1.0043  2.8606
  875MOL0     H18076  12.253   5.042   4.088 -0.2548 -3.2393 -3.6853
  875MOL0     H18077  12.350   4.884   3.894  1.8526 -1.9026  0.0983
  875MOL0     H18078  12.478   4.949   3.797 -0.2565  0.2787  0.1427
  875MOL0     H18079  12.528   4.915   4.096 -1.8083  0.6516  0.8555
  875MOL0     H18080  12.517   4.771   3.989 -1.8475  0.6517 -1.0013
  875MOL0     H18081  12.708   5.021   3.973 -2.3714  1.1400  0.2685
  875MOL0     H18082  12.694   4.895   3.844  0.0600  0.6812 -0.1528
  875MOL0     H18083  12.789   4.860   4.124 -0.7201  0.3169  0.1240
  875MOL0     H18084  12.890   4.850   3.983  0.4530 -0.1199  0.7623
  875MOL0     H18085  12.711   4.436   4.054  1.2345  0.0531 -0.5293
  875MOL0     H18086  12.788   4.317   4.254 -2.2635  2.0101  3.9057
  875MOL0     H18087  13.336   4.407   4.552  2.7175 -0.2348  3.7214
  875MOL0     H18088  13.464   4.239   4.679  0.1536  0.6519  0.2544
  875MOL0     H18089  13.335   3.793   4.622  1.4017  0.1131 -0.6097
  875MOL0     H18090  13.467   3.892   4.559 -0.7127 -2.0072 -1.5817
  875MOL0     H18091  13.573   3.728   4.644 -0.2924  1.2659 -0.9759
  875MOL0     H18092  13.583   3.851   4.775  0.8049 -0.9611  1.0413
  875MOL0     H18093  13.392   3.750   4.882  0.6963  3.6172 -2.3636
  875MOL0     H18094  13.382   3.625   4.770 -0.3285  1.0607 -1.8693
  875MOL0     H18095  13.511   3.546   4.953 -0.7025 -0.6054  0.0129
  875MOL0     H18096  13.631   3.681   4.928 -0.3543  0.4780 -1.1825
  875MOL0     H18097  13.738   3.566   4.748 -0.4612  2.0086  2.8946
  875MOL0     H18098  13.576   3.521   4.686  0.1432  1.2382 -0.2377
  875MOL0     H18099  13.715   3.388   4.917 -2.6072 -2.0152  1.8293
  875MOL0     H18100  13.574   3.325   4.836  0.4686 -1.4117  0.3738
  875MOL0     H18101  13.835   3.386   4.688 -0.7408  1.4768 -1.1201
  875MOL0     H18102  13.696   3.315   4.615  0.3523  0.3387 -0.2000
  875MOL0     H18103  13.881   3.148   4.671  1.0157 -0.5671 -0.9066
  875MOL0     H18104  13.816   3.174   4.839 -0.5107 -1.1137 -0.1819
  875MOL0     H18105  13.145   3.950   4.591 -1.0450  0.9672 -1.6707
  875MOL0     H18106  13.037   4.106   4.465  0.6975 -0.3191 -0.2594
  875MOL0     H18107  13.100   4.592   4.321 -0.2580  0.3249  1.1795
  875MOL0     H18108  13.020   4.744   4.157  2.6219 -0.9812  2.9265
  875MOL0     H18109  11.700   5.906   4.735  0.6953 -2.1066 -2.0677
  875MOL0     H18110  11.467   5.925   4.799  0.3482  0.1598  0.5797
  875MOL0     H18111  11.014   5.576   4.704  0.6085 -0.6278  0.1030
  875MOL0     H18112  10.776   5.534   4.799 -1.4103  0.1652  0.5078
  875MOL0     H18113  10.604   5.648   4.872  0.6766  1.7726  0.8273
  875MOL0     H18114  10.506   5.635   5.012  1.6994  1.5816  1.0958
  875MOL0     H18115  10.517   5.394   5.022 -1.1222 -1.1752  0.2416
  875MOL0     H18116  10.655   5.393   4.900 -0.8340  0.5998 -3.4583
  875MOL0     H18117  10.417   5.313   4.837 -1.2143 -0.5530 -2.8153
  875MOL0     H18118  10.479   5.447   4.730 -0.4316 -0.8833  0.3882
  875MOL0     H18119  10.337   5.601   4.898 -2.2956 -0.6256  0.9094
  875MOL0     H18120  10.259   5.501   4.769  1.2180  2.6184 -1.2343
  875MOL0     H18121  10.141   5.314   5.126  3.8640 -2.0969  0.5284
  875MOL0     H18122  10.916   5.656   5.178 -4.1662  0.2318 -0.5504
  875MOL0     H18123  11.252   5.583   5.100 -1.7316 -2.7913 -0.4969
  875MOL0     H18124  11.210   5.753   5.142 -0.6238  0.2039  0.4558
  875MOL0     H18125  11.142   5.620   5.232 -0.2832  0.5828 -0.4759
  876MOL0     O18126   0.175   8.910   9.670 -0.0928  0.2569 -0.0485
  876MOL0     C18127   0.150   8.977   9.571 -0.6358 -0.5472 -0.3278
  876MOL0     O18128   0.234   9.012   9.468  0.7470  0.1512 -0.8684
  876MOL0     C18129   0.368   9.018   9.482  0.1907  0.7689 -1.6586
  876MOL0     C18130   0.435   8.982   9.370  0.6594 -0.3174 -0.4168
  876MOL0     C18131   0.572   9.001   9.367 -0.0338  0.6130 -0.5269
  876MOL0     C18132   0.641   9.076   9.469  0.2735  1.1897  0.2091
  876MOL0     O18133   0.771   9.108   9.452  0.4433  0.0482 -0.1915
  876MOL0     C18134   0.839   9.187   9.552 -0.7523  0.4744  0.5995
  876MOL0     C18135   0.818   9.334   9.535  0.4051 -0.3294 -0.0639
  876MOL0     C18136   0.890   9.405   9.645 -0.1408 -1.2293  0.5570
  876MOL0     C18137   0.853   9.555   9.655  0.1623  0.4760  0.3412
  876MOL0     C18138   0.910   9.610   9.786  0.4316 -0.1393 -0.0254
  876MOL0     C18139   1.065   9.616   9.786 -0.3941  0.1329 -0.3174
  876MOL0     C18140   1.128   9.690   9.902  0.1230  0.3079 -0.3827
  876MOL0     C18141   1.163   9.835   9.869 -0.5268  0.4343  0.2819
  876MOL0     N18142   1.054   9.921   9.817  0.3078  0.0462 -0.3295
  876MOL0     C18143   0.938   9.955   9.886  0.5951 -0.2795 -0.1249
  876MOL0     C18144   0.864  10.012   9.789  1.0402 -0.0068 -0.2410
  876MOL0     C18145   0.727  10.071   9.801  0.0467 -0.6249  0.2679
  876MOL0     C18146   0.614   9.973   9.760 -0.4523  0.1482 -0.6528
  876MOL0     C18147   0.595   9.847   9.836  0.0934  0.7395 -1.1925
  876MOL0     C18148   0.542   9.873   9.977 -0.4941 -0.0907  0.1149
  876MOL0     O18149   0.412   9.938   9.978 -1.1821 -0.1037 -0.3667
  876MOL0     C18150   0.305   9.872  10.021 -0.2481  0.4779  0.2608
  876MOL0     C18151   0.213   9.936  10.100  0.0941  0.1379  0.8430
  876MOL0     C18152   0.102   9.868  10.150  0.2489  0.5640  0.2835
  876MOL0     C18153   0.075   9.728  10.126  0.1481 -0.3318 -0.4267
  876MOL0     C18154  -0.034   9.657  10.187  0.2566  0.1761 -0.3267
  876MOL0     O18155  -0.125   9.725  10.258 -0.8067 -0.3209 -0.2076
  876MOL0     C18156  -0.234   9.664  10.324 -0.6415 -0.2284  0.6518
  876MOL0     C18157  -0.322   9.584  10.257  1.0333 -0.7007 -0.0010
  876MOL0     C18158  -0.426   9.524  10.328 -0.3483  0.4664  0.1480
  876MOL0     C18159  -0.447   9.557  10.467  0.3300  0.6358 -0.7071
  876MOL0     O18160  -0.539   9.499  10.545  0.0824  0.4477  0.0232
  876MOL0     C18161  -0.647   9.428  10.484  0.2546 -0.1220 -0.7304
  876MOL0     C18162  -0.748   9.398  10.593  1.0494  0.0299 -0.4197
  876MOL0     C18163  -0.834   9.282  10.577  0.2108 -0.0890  1.1290
  876MOL0     C18164  -0.963   9.306  10.506 -0.2569 -0.0156  0.6889
  876MOL0     C18165  -1.050   9.179  10.502 -0.7792  0.1469 -0.1676
  876MOL0     C18166  -1.191   9.216  10.454  0.7233  1.2935  0.1164
  876MOL0     C18167  -1.256   9.079  10.417  0.6114  0.5215 -0.6326
  876MOL0     C18168  -1.391   9.104  10.341 -0.0935 -0.7043 -0.3365
  876MOL0    Cl18169  -1.507   8.972  10.392  0.0885  0.3686  0.0225
  876MOL0     C18170  -0.361   9.645  10.524 -0.3589 -0.1589 -0.8591
  876MOL0     C18171  -0.253   9.698  10.457 -0.7577  0.0055  0.6693
  876MOL0     O18172  -0.049   9.537  10.162  0.7602 -0.0692 -0.2830
  876MOL0     C18173   0.166   9.666  10.049  0.2556  0.1523  0.6696
  876MOL0     C18174   0.275   9.739   9.992 -0.5962 -0.3433  0.7594
  876MOL0     N18175   0.929  10.012   9.668 -0.4874 -0.1183 -0.7170
  876MOL0     N18176   1.035   9.941   9.682 -0.5079  0.1655 -0.0119
  876MOL0     C18177   0.571   9.096   9.587  0.3175 -0.3850 -0.4603
  876MOL0     C18178   0.430   9.078   9.595 -0.5457 -0.0771 -0.0423
  876MOL0     C18179   0.005   8.999   9.529  0.1667  0.6627  0.3558
  876MOL0     C18180  -0.079   8.885   9.552  0.0619 -0.7877  0.0119
  876MOL0     C18181  -0.215   8.889   9.522 -0.1066  0.2854  0.4931
  876MOL0     C18182  -0.274   9.010   9.475 -1.1037  0.6159 -0.3537
  876MOL0     O18183  -0.409   9.030   9.474  0.0235 -0.3684 -0.1897
  876MOL0     C18184  -0.483   9.049   9.351  0.0239  0.7513 -0.7288
  876MOL0     C18185  -0.644   9.068   9.362 -0.8529 -0.4132 -0.0334
  876MOL0     C18186  -0.690   8.984   9.483 -0.6008 -0.2176 -0.4937
  876MOL0     C18187  -0.841   8.989   9.505  0.6824  0.1709 -0.3042
  876MOL0     C18188  -0.866   8.952   9.646  0.4894 -0.4235 -0.2723
  876MOL0     C18189  -0.891   8.915   9.763 -0.6495 -0.6957 -0.0349
  876MOL0     C18190  -0.195   9.123   9.449 -0.3875 -0.2533 -0.5488
  876MOL0     C18191  -0.059   9.117   9.483  0.0288 -0.6069  0.6545
  876MOL0     C18192   0.017   9.239   9.447  0.0664 -0.2525  0.5016
  876MOL0     H18193   0.387   8.941   9.281 -0.4692  2.4472 -1.1930
  876MOL0     H18194   0.631   8.966   9.283 -0.6061 -1.1502 -0.2386
  876MOL0     H18195   0.824   9.149   9.653  0.8257  1.5429  1.2781
  876MOL0     H18196   0.946   9.180   9.531 -0.8132 -0.8162  0.6285
  876MOL0     H18197   0.713   9.359   9.546 -0.2543 -1.8511 -2.2556
  876MOL0     H18198   0.854   9.379   9.442  1.8980 -0.0852  0.5989
  876MOL0     H18199   0.995   9.400   9.612  0.6336  1.9058  2.1395
  876MOL0     H18200   0.874   9.362   9.744 -2.2032  0.7789  1.1805
  876MOL0     H18201   0.887   9.616   9.571 -1.0526  0.1066 -0.4477
  876MOL0     H18202   0.745   9.571   9.657  0.1875  1.3038 -2.0122
  876MOL0     H18203   0.866   9.709   9.795  1.2994  0.5891 -2.7421
  876MOL0     H18204   0.861   9.541   9.856 -1.2698 -1.2152 -2.1408
  876MOL0     H18205   1.095   9.511   9.792 -1.8382 -0.2435  1.0251
  876MOL0     H18206   1.112   9.650   9.693  0.1097 -0.0322 -0.1253
  876MOL0     H18207   1.224   9.638   9.907  1.2850  2.0999 -2.2864
  876MOL0     H18208   1.061   9.679   9.988  2.2146 -0.7035  1.1851
  876MOL0     H18209   1.217   9.880   9.953 -2.0121  1.5378  0.6985
  876MOL0     H18210   1.230   9.811   9.786 -0.7229  1.0845 -0.0760
  876MOL0     H18211   0.902   9.959   9.988 -4.2517 -1.8290 -1.5218
  876MOL0     H18212   0.719  10.119   9.899  1.4020  0.3102 -0.0524
  876MOL0     H18213   0.722  10.161   9.738 -1.0767  0.6273  2.0668
  876MOL0     H18214   0.524  10.032   9.780 -0.9741 -0.3174 -1.5614
  876MOL0     H18215   0.620   9.955   9.652  3.4673  1.9893 -0.9319
  876MOL0     H18216   0.692   9.800   9.853 -0.4991 -0.3098 -0.5639
  876MOL0     H18217   0.525   9.775   9.792  0.0206 -0.8360  1.2633
  876MOL0     H18218   0.613   9.944  10.021  2.7130 -2.1222 -1.4172
  876MOL0     H18219   0.543   9.778  10.030  0.2946 -0.5301 -0.6636
  876MOL0     H18220   0.222  10.042  10.122 -0.9931  0.2343  0.8773
  876MOL0     H18221   0.049   9.936  10.215  1.4577  3.7615 -1.7989
  876MOL0     H18222  -0.300   9.569  10.152  0.1696 -2.2155  0.0050
  876MOL0     H18223  -0.494   9.455  10.279  0.4010  0.0133 -0.2831
  876MOL0     H18224  -0.703   9.488  10.413  1.6781 -0.6451 -2.3806
  876MOL0     H18225  -0.614   9.329  10.450  0.4059 -0.0512 -0.7956
  876MOL0     H18226  -0.688   9.389  10.684  0.4670  2.4209  0.2698
  876MOL0     H18227  -0.819   9.481  10.597 -1.5803 -2.1014 -0.1253
  876MOL0     H18228  -0.789   9.199  10.521 -1.3790  0.8631 -1.7492
  876MOL0     H18229  -0.866   9.243  10.674 -0.8293  2.5427  1.9513
  876MOL0     H18230  -0.942   9.345  10.406  1.7283  1.3249  1.5394
  876MOL0     H18231  -1.020   9.384  10.558 -0.0522  0.4019  0.2963
  876MOL0     H18232  -1.061   9.147  10.606 -0.0638  2.7781  0.8170
  876MOL0     H18233  -1.004   9.097  10.446 -0.1043 -0.9943  1.9403
  876MOL0     H18234  -1.253   9.261  10.531 -0.6926 -0.5186  0.1056
  876MOL0     H18235  -1.185   9.281  10.366 -1.7712 -0.0976 -1.1883
  876MOL0     H18236  -1.281   9.029  10.511  1.1585 -0.8348 -1.1837
  876MOL0     H18237  -1.187   9.023  10.353  2.4676 -0.7700  2.2879
  876MOL0     H18238  -1.433   9.198  10.378  0.4077 -0.5069 -0.2580
  876MOL0     H18239  -1.388   9.110  10.232 -1.3454  2.3165 -0.2943
  876MOL0     H18240  -0.372   9.672  10.628  1.3282 -1.1573 -0.3802
  876MOL0     H18241  -0.183   9.763  10.508  0.3033  1.0541 -1.9181
  876MOL0     H18242   0.154   9.569  10.003 -0.9163  0.6402 -0.0953
  876MOL0     H18243   0.340   9.682   9.927 -1.9939 -1.2342  0.0978
  876MOL0     H18244   0.621   9.143   9.671  0.9356 -3.5663  1.1072
  876MOL0     H18245   0.372   9.111   9.681  1.0134  1.6365  0.4367
  876MOL0     H18246  -0.040   8.799   9.607  3.1779  0.2521 -0.3728
  876MOL0     H18247  -0.292   8.821   9.556 -2.9198  4.0103  2.3060
  876MOL0     H18248  -0.460   8.957   9.298  2.5988  0.0595  1.3561
  876MOL0     H18249  -0.432   9.125   9.290 -2.9831  1.3279 -2.7144
  876MOL0     H18250  -0.680   9.024   9.269  1.2179 -2.8045  0.2038
  876MOL0     H18251  -0.663   9.175   9.378  1.6393 -0.0425  0.9554
  876MOL0     H18252  -0.631   9.024   9.566  1.0446 -1.1678 -1.1536
  876MOL0     H18253  -0.663   8.879   9.468 -2.4056 -1.5962  4.2063
  876MOL0     H18254  -0.875   9.091   9.485  0.0991 -0.3493 -2.1483
  876MOL0     H18255  -0.890   8.922   9.434  2.1948  1.3998 -2.6187
  876MOL0     H18256  -0.903   8.903   9.869  0.6242  0.4987  0.2746
  876MOL0     H18257  -0.244   9.214   9.416 -1.5671 -1.0900 -1.1695
  876MOL0     H18258   0.112   9.216   9.398  0.9903 -1.0103  2.5216
  876MOL0     H18259  -0.037   9.310   9.385  2.1360  0.7446 -0.2725
  876MOL0     H18260   0.050   9.308   9.525 -0.7043  1.3187 -0.5252
  877MOL0     O18261   9.069  10.302   2.611  0.0516  0.8549  0.6286
  877MOL0     C18262   9.054  10.381   2.520  0.8110  0.0310 -0.1553
  877MOL0     O18263   9.124  10.493   2.502 -0.6367 -0.0346 -0.0876
  877MOL0     C18264   9.219  10.514   2.597 -0.0409 -1.3628  0.0542
  877MOL0     C18265   9.356  10.511   2.564 -0.5002 -0.2415  0.5018
  877MOL0     C18266   9.458  10.556   2.657 -0.7003  0.8735 -0.3507
  877MOL0     C18267   9.424  10.582   2.791 -0.9409 -0.3608  0.0961
  877MOL0     O18268   9.510  10.592   2.899 -0.6206 -0.0235  0.6915
  877MOL0     C18269   9.605  10.701   2.886  0.3826  0.6439 -0.5832
  877MOL0     C18270   9.695  10.684   3.003 -0.5748  0.2033  0.6666
  877MOL0     C18271   9.828  10.608   2.977 -0.6908  1.2386  0.4955
  877MOL0     C18272   9.809  10.453   2.950 -0.0802 -0.1720  0.3049
  877MOL0     C18273   9.799  10.366   3.079  0.2076  0.1496 -0.0896
  877MOL0     C18274   9.812  10.215   3.046  0.1771 -0.5486 -0.6886
  877MOL0     C18275   9.961  10.165   3.017 -0.5011 -0.1418 -0.0629
  877MOL0     C18276  10.043  10.149   3.149 -0.2766  0.2015  0.8325
  877MOL0     N18277  10.171  10.094   3.103  0.3524 -0.6605 -0.2706
  877MOL0     C18278  10.233   9.978   3.143  0.2553  0.2747 -0.0350
  877MOL0     C18279  10.364   9.990   3.108  1.7797  0.7095 -0.6214
  877MOL0     C18280  10.459   9.876   3.159  0.6294 -0.0900  0.3857
  877MOL0     C18281  10.526   9.798   3.043 -0.1891  0.8247 -0.2458
  877MOL0     C18282  10.577   9.656   3.077 -0.2741 -0.8876  0.0202
  877MOL0     C18283  10.626   9.599   2.943 -0.4651 -0.1708 -0.3394
  877MOL0     O18284  10.736   9.684   2.890  0.4146  0.8523 -0.2922
  877MOL0     C18285  10.868   9.657   2.919 -0.2708  0.4002  0.3496
  877MOL0     C18286  10.923   9.586   3.030 -0.0806  1.0002 -0.2017
  877MOL0     C18287  11.058   9.570   3.041  0.0323  0.5497  1.5292
  877MOL0     C18288  11.151   9.613   2.944  0.0198 -0.3128  0.2242
  877MOL0     C18289  11.296   9.586   2.953  1.4855  0.5016  0.3458
  877MOL0     O18290  11.380   9.673   2.891 -0.0450 -0.1595 -0.1320
  877MOL0     C18291  11.513   9.668   2.891 -0.0548 -0.6457 -0.3138
  877MOL0     C18292  11.560   9.723   3.012  0.1107 -1.0233 -0.4214
  877MOL0     C18293  11.695   9.723   3.049 -0.2396  0.3794 -0.2606
  877MOL0     C18294  11.791   9.675   2.961  0.0751 -0.1749  0.7968
  877MOL0     O18295  11.927   9.686   3.004  0.2722 -0.7200  0.5184
  877MOL0     C18296  12.035   9.599   2.962 -0.8809 -0.0652 -1.1152
  877MOL0     C18297  12.151   9.626   3.057  0.3354 -0.8048  0.5482
  877MOL0     C18298  12.203   9.773   3.043  0.5027 -0.1959  0.3230
  877MOL0     C18299  12.275   9.835   3.157 -0.0093  0.5726 -0.7120
  877MOL0     C18300  12.341   9.971   3.118  0.2248 -0.8922 -0.2536
  877MOL0     C18301  12.240  10.089   3.090 -0.7452  0.5363 -0.6253
  877MOL0     C18302  12.311  10.214   3.033  0.8217  0.1247 -0.0031
  877MOL0     C18303  12.210  10.334   3.038  0.0460  0.6268 -0.0703
  877MOL0    Cl18304  12.319  10.484   3.036 -0.2586 -0.5330  0.2614
  877MOL0     C18305  11.750   9.626   2.835  0.5746  0.0861 -1.2780
  877MOL0     C18306  11.611   9.630   2.793  0.8139  0.3197 -0.1757
  877MOL0     O18307  11.337   9.495   3.018 -0.3540  0.2905 -0.0247
  877MOL0     C18308  11.096   9.690   2.843 -0.4565 -0.5862 -1.5129
  877MOL0     C18309  10.958   9.713   2.830 -0.4597 -0.8828  0.3891
  877MOL0     N18310  10.373  10.102   3.031  0.3433 -0.1276  0.4467
  877MOL0     N18311  10.257  10.152   3.013  0.6433  0.4316 -0.1904
  877MOL0     C18312   9.296  10.596   2.824  0.5010  0.1647  0.5889
  877MOL0     C18313   9.193  10.568   2.729 -0.1999 -0.1234 -0.0408
  877MOL0     C18314   8.941  10.348   2.421 -0.2704  0.2919 -0.4515
  877MOL0     C18315   8.844  10.251   2.447  0.8064  0.4469  0.2840
  877MOL0     C18316   8.733  10.232   2.367  0.4218  0.4127 -0.1922
  877MOL0     C18317   8.727  10.277   2.240 -0.0450  0.7799  0.0709
  877MOL0     O18318   8.623  10.245   2.138 -0.3802 -0.2605  0.4428
  877MOL0     C18319   8.510  10.175   2.178  0.4628  0.4016  0.5841
  877MOL0     C18320   8.417  10.168   2.055 -0.9523  0.1623  0.9425
  877MOL0     C18321   8.270  10.128   2.106 -0.1289 -0.4860  0.2333
  877MOL0     C18322   8.168  10.125   1.988 -0.0829 -0.1835 -0.4354
  877MOL0     C18323   8.028  10.147   2.038 -0.3125 -0.7793  0.1416
  877MOL0     C18324   7.908  10.170   2.065 -0.0408  0.5837 -0.0935
  877MOL0     C18325   8.826  10.365   2.209  0.4613  0.3056 -0.3345
  877MOL0     C18326   8.937  10.403   2.295  1.0222  0.2168  0.4042
  877MOL0     C18327   9.014  10.519   2.235  0.3009 -0.7854  0.1285
  877MOL0     H18328   9.389  10.483   2.464  0.3595 -0.1331  0.7419
  877MOL0     H18329   9.563  10.540   2.635 -0.4262 -1.9273  2.2733
  877MOL0     H18330   9.667  10.707   2.796 -0.3656 -2.7688 -1.4708
  877MOL0     H18331   9.548  10.794   2.884 -0.4356  0.1402 -1.2562
  877MOL0     H18332   9.644  10.633   3.085 -0.6715  0.1750  0.5883
  877MOL0     H18333   9.721  10.782   3.044 -0.5621 -0.1336  1.4679
  877MOL0     H18334   9.910  10.619   3.048  2.5874 -0.0159 -2.7753
  877MOL0     H18335   9.866  10.651   2.884 -2.1076  0.5279 -0.4555
  877MOL0     H18336   9.719  10.434   2.891  0.3530  1.2853 -0.8642
  877MOL0     H18337   9.901  10.427   2.898  0.6938  2.7669  0.0104
  877MOL0     H18338   9.878  10.396   3.147  0.0563 -0.1481  0.2178
  877MOL0     H18339   9.697  10.375   3.117 -0.8378 -2.5492 -1.8877
  877MOL0     H18340   9.763  10.150   3.120  1.5788  0.3728  1.1365
  877MOL0     H18341   9.753  10.201   2.956 -2.0031  1.5214  0.2930
  877MOL0     H18342  10.018  10.220   2.941 -0.9151 -0.3951 -0.5643
  877MOL0     H18343   9.946  10.063   2.980  3.2203 -1.3379  1.2932
  877MOL0     H18344  10.069  10.236   3.210  5.5453 -0.1096 -0.5310
  877MOL0     H18345   9.994  10.067   3.201 -0.4333 -0.8723 -0.9108
  877MOL0     H18346  10.188   9.898   3.201  0.6303 -2.2528 -2.9445
  877MOL0     H18347  10.547   9.926   3.199 -0.8101  0.3136  3.3114
  877MOL0     H18348  10.418   9.807   3.233  0.7755 -0.5522  0.0407
  877MOL0     H18349  10.453   9.789   2.962  0.9712 -0.6090 -1.1928
  877MOL0     H18350  10.612   9.861   3.017  1.0441 -1.0573 -0.9560
  877MOL0     H18351  10.492   9.598   3.112  0.8381 -2.2647  0.5365
  877MOL0     H18352  10.651   9.649   3.158  0.5572 -2.4237 -0.8520
  877MOL0     H18353  10.539   9.589   2.879 -2.0704 -0.6690  1.7986
  877MOL0     H18354  10.668   9.498   2.952  2.6175  0.7211 -2.9107
  877MOL0     H18355  10.859   9.540   3.104  1.3940  1.5263  1.4464
  877MOL0     H18356  11.101   9.516   3.124 -0.9124 -0.3645  1.4506
  877MOL0     H18357  11.490   9.768   3.082 -3.2177  0.8072 -4.4752
  877MOL0     H18358  11.716   9.762   3.148 -0.4855 -3.9243  1.6759
  877MOL0     H18359  12.005   9.494   2.972  3.8970 -1.4795  1.1724
  877MOL0     H18360  12.058   9.624   2.858  2.6403 -0.6550 -0.5784
  877MOL0     H18361  12.110   9.604   3.156  1.7009 -1.2348  1.0361
  877MOL0     H18362  12.239   9.561   3.048  0.8289 -0.9863  4.7569
  877MOL0     H18363  12.262   9.779   2.951 -0.1011  0.2679 -0.0484
  877MOL0     H18364  12.124   9.847   3.024 -0.1304 -0.9410  0.0168
  877MOL0     H18365  12.357   9.766   3.179  0.0065  0.7578 -0.1939
  877MOL0     H18366  12.209   9.836   3.244 -0.8624 -0.5834 -1.3174
  877MOL0     H18367  12.389   9.952   3.022  0.7597 -0.5240 -0.0723
  877MOL0     H18368  12.426   9.999   3.182  1.1495 -0.8418 -1.4678
  877MOL0     H18369  12.163  10.054   3.020 -0.9136  0.8776 -0.6096
  877MOL0     H18370  12.190  10.114   3.184 -0.9594 -0.4593 -0.4649
  877MOL0     H18371  12.353  10.201   2.932 -1.1577  2.2825 -1.2149
  877MOL0     H18372  12.390  10.246   3.102 -0.5171  1.1314  1.1214
  877MOL0     H18373  12.145  10.329   2.950 -0.2113 -2.5474  0.1872
  877MOL0     H18374  12.163  10.337   3.137 -0.4194  1.3265 -0.3098
  877MOL0     H18375  11.828   9.593   2.767  0.8900  0.9499 -1.3387
  877MOL0     H18376  11.587   9.584   2.698  2.9569 -0.6800 -0.2909
  877MOL0     H18377  11.156   9.720   2.758 -2.2156 -3.4154 -3.9374
  877MOL0     H18378  10.911   9.781   2.760 -1.4603  0.5918  2.3818
  877MOL0     H18379   9.280  10.607   2.930 -0.5255 -1.8448  0.6895
  877MOL0     H18380   9.092  10.576   2.767 -1.0667  2.3870 -2.5689
  877MOL0     H18381   8.857  10.208   2.546  0.2817  1.5255  0.8301
  877MOL0     H18382   8.654  10.162   2.393 -0.0232  1.1255  0.4224
  877MOL0     H18383   8.463  10.231   2.258 -1.7405 -0.6370  0.0826
  877MOL0     H18384   8.522  10.073   2.217 -0.5101 -0.1922 -0.5787
  877MOL0     H18385   8.466  10.102   1.982  1.2676  0.3915  2.1363
  877MOL0     H18386   8.408  10.266   2.009  1.4808 -0.9283 -2.2236
  877MOL0     H18387   8.242  10.205   2.179  1.7999 -1.9422  2.6493
  877MOL0     H18388   8.274  10.030   2.153 -1.6644 -1.3509 -1.3071
  877MOL0     H18389   8.186  10.218   1.933 -2.3035  1.0624  0.8149
  877MOL0     H18390   8.170  10.037   1.923 -0.9077 -0.2658 -0.3541
  877MOL0     H18391   7.816  10.204   2.107  1.1612  1.3471  2.0515
  877MOL0     H18392   8.812  10.418   2.115 -0.8247 -0.8009 -0.7968
  877MOL0     H18393   9.018  10.515   2.126 -2.1378  0.6451 -0.0916
  877MOL0     H18394   8.966  10.612   2.268  1.9234  0.2772 -0.3939
  877MOL0     H18395   9.115  10.527   2.278 -0.4708 -0.2748  1.9872
  878MOL0     O18396   1.647   1.680   6.155  0.1434  0.4463  0.1752
  878MOL0     C18397   1.611   1.567   6.167  0.3567 -0.2169 -0.4811
  878MOL0     O18398   1.694   1.469   6.207  0.2265 -0.1577  0.1909
  878MOL0     C18399   1.831   1.502   6.228  0.7137 -0.1018 -0.2774
  878MOL0     C18400   1.883   1.421   6.331  0.5681 -0.3289 -0.1397
  878MOL0     C18401   2.011   1.435   6.376  0.2910  0.4038  0.3619
  878MOL0     C18402   2.091   1.540   6.321  0.1174 -0.2570 -0.4403
  878MOL0     O18403   2.209   1.575   6.365 -0.6771 -0.0651  1.2171
  878MOL0     C18404   2.279   1.485   6.454 -0.7576  0.6649 -0.5721
  878MOL0     C18405   2.405   1.561   6.507  0.1485  1.0920 -0.1864
  878MOL0     C18406   2.454   1.498   6.640  0.1658  0.6218  0.0622
  878MOL0     C18407   2.556   1.592   6.717  0.0276  0.6488 -0.6006
  878MOL0     C18408   2.684   1.611   6.641  0.3470  0.8361  0.5796
  878MOL0     C18409   2.808   1.661   6.726  0.0421 -0.5631  0.9321
  878MOL0     C18410   2.948   1.654   6.665  0.8726 -0.2079 -0.3858
  878MOL0     C18411   2.935   1.644   6.519 -0.0046  0.1298  0.7876
  878MOL0     N18412   3.065   1.649   6.448  0.0959  0.8258 -0.5271
  878MOL0     C18413   3.187   1.718   6.473  0.1365  0.2323  0.0751
  878MOL0     C18414   3.277   1.663   6.390 -0.2449  0.4139  0.6863
  878MOL0     C18415   3.422   1.706   6.413  0.8885 -0.1965  0.2618
  878MOL0     C18416   3.488   1.623   6.525  0.3848 -0.5557 -0.2325
  878MOL0     C18417   3.631   1.678   6.550  0.9252  0.2728 -0.0173
  878MOL0     C18418   3.715   1.582   6.633 -0.2207  0.3920 -0.3807
  878MOL0     O18419   3.839   1.644   6.675  0.5264 -0.0752 -0.0650
  878MOL0     C18420   3.951   1.594   6.622  0.5239 -0.2900  0.0402
  878MOL0     C18421   4.055   1.679   6.667 -0.4837  0.7852  0.0605
  878MOL0     C18422   4.183   1.638   6.627  0.9637 -0.0157  0.0922
  878MOL0     C18423   4.212   1.531   6.528 -0.7580  0.6007 -0.9656
  878MOL0     C18424   4.352   1.493   6.508 -0.3567 -0.6972  0.3746
  878MOL0     O18425   4.446   1.594   6.528 -0.8415  0.0221  0.1910
  878MOL0     C18426   4.579   1.545   6.542 -0.7190  0.7977 -0.1723
  878MOL0     C18427   4.612   1.474   6.653 -0.2809  0.5295 -0.5156
  878MOL0     C18428   4.735   1.411   6.669 -0.0434  0.0872 -0.3254
  878MOL0     C18429   4.843   1.440   6.587 -0.8347  0.3335 -0.2063
  878MOL0     O18430   4.971   1.385   6.597 -0.7908 -0.2104 -0.5917
  878MOL0     C18431   4.990   1.283   6.701 -0.3618 -0.2907 -0.3205
  878MOL0     C18432   5.143   1.255   6.693 -0.4197 -0.0503 -0.7652
  878MOL0     C18433   5.175   1.183   6.566 -0.7054 -1.2563  0.4324
  878MOL0     C18434   5.326   1.147   6.538 -0.7898 -0.2463 -1.7550
  878MOL0     C18435   5.360   1.113   6.398 -1.1364 -0.7584  0.2768
  878MOL0     C18436   5.271   1.006   6.340 -0.0497 -0.9242 -0.5042
  878MOL0     C18437   5.334   0.943   6.216 -0.1730  0.3918 -0.0811
  878MOL0     C18438   5.243   0.833   6.158 -0.8741 -0.4430 -0.6426
  878MOL0    Cl18439   5.085   0.894   6.115 -0.1595  0.0654  0.3040
  878MOL0     C18440   4.814   1.516   6.478  0.3543  0.2696 -0.4332
  878MOL0     C18441   4.682   1.566   6.453  0.6315  0.5473  0.2512
  878MOL0     O18442   4.370   1.396   6.447 -0.4724  0.1492  0.4948
  878MOL0     C18443   4.100   1.470   6.473 -0.9875 -0.3762  0.3806
  878MOL0     C18444   3.971   1.502   6.517 -0.6461  1.6069 -0.4444
  878MOL0     N18445   3.218   1.564   6.312 -0.2240  0.1133 -0.3718
  878MOL0     N18446   3.098   1.553   6.356  0.3699 -0.0149  0.7028
  878MOL0     C18447   2.041   1.619   6.216 -0.2331  0.1807  0.3818
  878MOL0     C18448   1.908   1.605   6.177  0.3521 -0.2228  0.9223
  878MOL0     C18449   1.469   1.529   6.137  0.5614 -0.5145  0.3305
  878MOL0     C18450   1.419   1.418   6.208  0.1384 -0.2829 -0.2413
  878MOL0     C18451   1.294   1.363   6.186  0.4129  0.7849 -0.7086
  878MOL0     C18452   1.208   1.421   6.090 -0.1944  0.5887 -0.4699
  878MOL0     O18453   1.085   1.364   6.061 -0.1960 -1.0128  0.7659
  878MOL0     C18454   1.027   1.255   6.142 -0.1243 -0.0922  0.3850
  878MOL0     C18455   0.889   1.232   6.085  0.4546  0.5117  0.3343
  878MOL0     C18456   0.899   1.123   5.975  0.2577 -0.6098  0.0362
  878MOL0     C18457   0.787   1.131   5.874  0.1553  0.1003 -0.0483
  878MOL0     C18458   0.660   1.114   5.949 -0.7404 -1.1489  0.0651
  878MOL0     C18459   0.559   1.091   6.003  0.3438 -0.1224  0.0166
  878MOL0     C18460   1.258   1.533   6.019  0.7832  0.0311 -0.4934
  878MOL0     C18461   1.384   1.583   6.036 -0.1430  0.0931  0.2323
  878MOL0     C18462   1.438   1.685   5.937  0.0708  0.3659 -0.7151
  878MOL0     H18463   1.812   1.353   6.378  0.2766  0.3475  0.4129
  878MOL0     H18464   2.031   1.372   6.462 -1.1926  0.5904  0.8855
  878MOL0     H18465   2.205   1.475   6.534 -0.3586  1.6100 -0.0781
  878MOL0     H18466   2.304   1.386   6.413  1.4169  1.5141 -1.4712
  878MOL0     H18467   2.383   1.667   6.517  1.1583  1.2216  0.8543
  878MOL0     H18468   2.483   1.549   6.431  0.1085  1.1428 -0.2357
  878MOL0     H18469   2.500   1.400   6.625 -0.3101  0.2242  1.0704
  878MOL0     H18470   2.370   1.485   6.709  0.2780  1.5712  0.3983
  878MOL0     H18471   2.512   1.691   6.732 -0.5532  0.2511  0.4164
  878MOL0     H18472   2.575   1.558   6.819  1.0411 -1.1443 -1.3384
  878MOL0     H18473   2.710   1.510   6.608  0.0757  0.8900  0.1996
  878MOL0     H18474   2.660   1.662   6.547  2.0725 -1.2959 -1.1328
  878MOL0     H18475   2.787   1.767   6.742  0.5464 -0.1388 -0.9148
  878MOL0     H18476   2.802   1.615   6.825  0.9925  1.3773  1.9418
  878MOL0     H18477   3.002   1.572   6.713 -0.0855 -1.7636 -1.8927
  878MOL0     H18478   2.987   1.751   6.697  2.2505 -0.9986  0.4191
  878MOL0     H18479   2.881   1.551   6.500  0.6803  0.1166 -1.3774
  878MOL0     H18480   2.878   1.729   6.480  1.2060  0.0918 -1.1959
  878MOL0     H18481   3.203   1.796   6.547  0.1978  2.2300 -1.9474
  878MOL0     H18482   3.499   1.692   6.336  2.1769 -0.0228  1.4817
  878MOL0     H18483   3.419   1.810   6.446  3.0157 -0.6312  2.0286
  878MOL0     H18484   3.432   1.632   6.619  2.7692  2.9282  1.0541
  878MOL0     H18485   3.484   1.516   6.501 -0.1283 -1.0037  1.6319
  878MOL0     H18486   3.619   1.776   6.596 -2.0011 -0.1520  0.3311
  878MOL0     H18487   3.683   1.681   6.454  1.0441  0.6224  0.0595
  878MOL0     H18488   3.722   1.485   6.582  3.8015  0.4138 -0.1784
  878MOL0     H18489   3.650   1.570   6.720 -0.7221  0.2373 -0.7728
  878MOL0     H18490   4.041   1.750   6.749  1.5410  1.0519  0.2114
  878MOL0     H18491   4.272   1.690   6.662  0.2191  1.3631  0.0366
  878MOL0     H18492   4.535   1.457   6.728  0.6330 -0.7499  0.1748
  878MOL0     H18493   4.731   1.349   6.758 -1.6816 -0.8449 -1.0074
  878MOL0     H18494   4.954   1.325   6.795 -2.7363  3.2570 -2.5598
  878MOL0     H18495   4.937   1.190   6.679  1.0111 -0.7433 -1.8978
  878MOL0     H18496   5.206   1.345   6.697  1.6943 -1.5097  1.7076
  878MOL0     H18497   5.175   1.197   6.780  1.8578  0.6256 -1.0788
  878MOL0     H18498   5.124   1.088   6.584  1.0688 -2.0355  1.6511
  878MOL0     H18499   5.130   1.238   6.483 -1.1060 -1.8267  0.2615
  878MOL0     H18500   5.354   1.060   6.598 -3.0055  0.1967  0.0627
  878MOL0     H18501   5.387   1.224   6.585 -1.2807 -1.4089  0.9632
  878MOL0     H18502   5.465   1.081   6.389 -0.6873  0.7890 -0.3513
  878MOL0     H18503   5.356   1.212   6.350 -0.1442 -0.5159  0.6537
  878MOL0     H18504   5.247   0.926   6.411 -1.3430  0.7440  1.0621
  878MOL0     H18505   5.179   1.059   6.315  0.1275  0.3430  1.3123
  878MOL0     H18506   5.435   0.905   6.235 -0.3773  0.4952  1.2717
  878MOL0     H18507   5.348   1.026   6.145  1.9762 -0.3947 -0.6667
  878MOL0     H18508   5.293   0.783   6.075  2.5384  0.3400  0.7305
  878MOL0     H18509   5.241   0.760   6.240 -0.6025 -0.1054 -0.3272
  878MOL0     H18510   4.889   1.523   6.400  0.0716  1.9895 -0.5822
  878MOL0     H18511   4.650   1.607   6.357  1.5410 -1.6708 -1.0722
  878MOL0     H18512   4.112   1.401   6.391  0.3154  0.6889 -0.3711
  878MOL0     H18513   3.891   1.442   6.474  0.5145 -0.5196  0.2415
  878MOL0     H18514   2.102   1.700   6.178  1.4034 -1.1402  0.0652
  878MOL0     H18515   1.878   1.673   6.097  0.6672  0.2291  1.1816
  878MOL0     H18516   1.473   1.374   6.292 -0.7633 -1.8541 -0.4392
  878MOL0     H18517   1.275   1.291   6.265  3.4465  0.3873 -0.2220
  878MOL0     H18518   1.022   1.286   6.247  0.9392 -1.4294  0.8647
  878MOL0     H18519   1.099   1.172   6.141 -1.9171 -1.8248  2.7491
  878MOL0     H18520   0.844   1.321   6.039 -1.9452 -2.3733 -3.4816
  878MOL0     H18521   0.819   1.208   6.166 -0.2222 -1.1284 -0.6891
  878MOL0     H18522   0.894   1.024   6.022  0.8199  0.0799  1.6179
  878MOL0     H18523   0.996   1.132   5.926  0.8483 -1.9065  0.9032
  878MOL0     H18524   0.791   1.228   5.823  1.2403 -0.6363 -1.4303
  878MOL0     H18525   0.795   1.048   5.804 -0.9166 -1.3230  1.4472
  878MOL0     H18526   0.467   1.062   6.050 -0.8881 -0.4421 -2.4285
  878MOL0     H18527   1.190   1.574   5.945  3.3771  1.1426 -2.4339
  878MOL0     H18528   1.371   1.690   5.851 -0.7010 -0.7097 -0.1984
  878MOL0     H18529   1.437   1.772   6.003  1.8491 -1.0308  1.3015
  878MOL0     H18530   1.540   1.665   5.901  0.1607 -3.3121  1.1687
  879MOL0     O18531   7.471   2.234  10.350  0.8351  0.7964  0.9264
  879MOL0     C18532   7.450   2.131  10.283 -0.4081  0.4260  0.5065
  879MOL0     O18533   7.551   2.066  10.217  0.7077 -1.0079  0.0782
  879MOL0     C18534   7.671   2.119  10.222 -1.2382  1.2929  0.6782
  879MOL0     C18535   7.758   2.164  10.324  0.7168  0.8454  0.3216
  879MOL0     C18536   7.890   2.212  10.314 -0.1252  0.3047  0.5495
  879MOL0     C18537   7.942   2.217  10.184  0.0448  0.3601  0.4739
  879MOL0     O18538   8.077   2.252  10.164  0.2927 -0.1625 -0.3786
  879MOL0     C18539   8.089   2.367  10.077 -0.4632  1.1131 -0.0129
  879MOL0     C18540   8.231   2.412  10.078 -0.4966  0.1733 -0.1248
  879MOL0     C18541   8.269   2.483  10.205 -0.0639  0.4239  0.8562
  879MOL0     C18542   8.169   2.563  10.279  0.1194  0.3876  0.0166
  879MOL0     C18543   8.237   2.654  10.379  0.0106  0.4794  0.4984
  879MOL0     C18544   8.141   2.742  10.453 -0.1134  0.4701 -0.7767
  879MOL0     C18545   8.204   2.841  10.563 -0.3666  0.6448  0.3893
  879MOL0     C18546   8.233   2.781  10.704 -0.2612  0.0242  0.1836
  879MOL0     N18547   8.366   2.704  10.712  1.0539 -0.2178  0.9576
  879MOL0     C18548   8.389   2.585  10.775  0.7166 -0.6180 -0.0427
  879MOL0     C18549   8.517   2.545  10.746  0.6765  0.8550  0.1817
  879MOL0     C18550   8.583   2.424  10.810  0.0128 -0.2836  0.0624
  879MOL0     C18551   8.701   2.462  10.900 -0.0773 -0.2434 -0.9824
  879MOL0     C18552   8.660   2.555  11.021  0.2597  1.0811  0.7824
  879MOL0     C18553   8.588   2.486  11.132 -0.7729  0.4651 -0.8455
  879MOL0     O18554   8.534   2.582  11.214 -0.1285  0.4713 -0.0770
  879MOL0     C18555   8.618   2.648  11.301  0.6434 -0.5055 -0.2774
  879MOL0     C18556   8.679   2.575  11.398 -0.8098 -0.0509 -0.2493
  879MOL0     C18557   8.745   2.637  11.501 -0.4550  0.5164 -0.3543
  879MOL0     C18558   8.750   2.777  11.510  0.7220 -0.4966 -0.2521
  879MOL0     C18559   8.830   2.852  11.614  1.1017 -0.2435 -0.4829
  879MOL0     O18560   8.924   2.780  11.696 -0.4349 -0.9846 -0.2635
  879MOL0     C18561   8.987   2.845  11.800  0.5639 -0.8160 -0.6229
  879MOL0     C18562   9.118   2.873  11.775  0.2282  0.1925 -0.1225
  879MOL0     C18563   9.202   2.911  11.876  0.2059  0.4664  0.3249
  879MOL0     C18564   9.157   2.926  12.006 -0.6860  0.5296  0.0216
  879MOL0     O18565   9.253   2.953  12.105  0.1426  0.0331 -0.0903
  879MOL0     C18566   9.218   3.041  12.216 -0.1228 -0.0126  0.4631
  879MOL0     C18567   9.213   2.960  12.341 -0.5293  0.4950 -1.3474
  879MOL0     C18568   9.351   2.921  12.387  0.9082 -0.2159 -0.7152
  879MOL0     C18569   9.346   2.876  12.537  0.5579  0.1264 -0.1379
  879MOL0     C18570   9.465   2.788  12.575  0.5962 -0.3984  0.4894
  879MOL0     C18571   9.584   2.874  12.583  0.6936  0.6419  0.0288
  879MOL0     C18572   9.689   2.815  12.675  0.7634  0.8151 -0.7441
  879MOL0     C18573   9.832   2.858  12.635  0.2845  0.6384 -0.3520
  879MOL0    Cl18574   9.859   2.771  12.482  0.2903 -0.3347 -0.1202
  879MOL0     C18575   9.024   2.895  12.037 -0.4205  0.2102  0.2136
  879MOL0     C18576   8.938   2.860  11.930  0.7505  0.7027  0.3986
  879MOL0     O18577   8.801   2.969  11.635  0.1506 -0.0149  0.6039
  879MOL0     C18578   8.692   2.850  11.406  0.0028 -0.5690  0.3215
  879MOL0     C18579   8.626   2.784  11.303 -0.6397  1.0938  0.9719
  879MOL0     N18580   8.573   2.633  10.660 -0.2804 -0.0335 -0.6687
  879MOL0     N18581   8.479   2.714  10.635  0.3266  0.4457  0.3443
  879MOL0     C18582   7.857   2.175  10.074 -0.0250  0.7431 -0.3042
  879MOL0     C18583   7.726   2.126  10.097  0.5876  0.5726 -1.1675
  879MOL0     C18584   7.312   2.067  10.276  0.5667  1.0494 -0.3378
  879MOL0     C18585   7.279   1.968  10.186  0.1450  0.4049  0.5461
  879MOL0     C18586   7.154   1.903  10.187 -0.4150  0.2690  0.7908
  879MOL0     C18587   7.049   1.944  10.275  0.0791  0.4738 -0.1318
  879MOL0     O18588   6.923   1.905  10.281  0.1303  1.1713  0.1216
  879MOL0     C18589   6.869   1.792  10.199 -0.1646 -0.3597  0.4250
  879MOL0     C18590   6.718   1.770  10.222 -0.4096 -0.0223  0.3588
  879MOL0     C18591   6.690   1.762  10.369 -0.6950 -0.5013 -0.5913
  879MOL0     C18592   6.541   1.722  10.392 -0.4717  0.4650 -0.5507
  879MOL0     C18593   6.449   1.829  10.360 -0.0619  0.0797  0.5797
  879MOL0     C18594   6.401   1.936  10.336  0.1525  0.2511 -0.4589
  879MOL0     C18595   7.086   2.040  10.369  0.5670  0.1704  0.0086
  879MOL0     C18596   7.209   2.098  10.372 -0.5438 -0.4993 -0.7249
  879MOL0     C18597   7.224   2.192  10.491  0.4040 -0.6075  0.0116
  879MOL0     H18598   7.721   2.174  10.426  0.4676  0.3297  0.2847
  879MOL0     H18599   7.941   2.245  10.404 -0.1962  1.6131  0.1295
  879MOL0     H18600   8.080   2.322   9.978 -0.9502  2.9024 -0.8067
  879MOL0     H18601   8.020   2.449  10.095 -1.3813  0.0420  1.6793
  879MOL0     H18602   8.248   2.478   9.993  0.8644 -0.7110 -0.5737
  879MOL0     H18603   8.305   2.334  10.058 -1.9105 -0.9363 -1.2376
  879MOL0     H18604   8.359   2.542  10.183  2.4281 -2.0703  3.5045
  879MOL0     H18605   8.305   2.407  10.275  0.2959  0.5846  0.8512
  879MOL0     H18606   8.116   2.626  10.207 -0.4063 -0.0013  0.0592
  879MOL0     H18607   8.089   2.500  10.319 -0.0404 -0.8992 -2.2026
  879MOL0     H18608   8.285   2.595  10.456  0.6903  0.3849  0.0076
  879MOL0     H18609   8.315   2.704  10.320 -1.3758 -1.4828 -3.3418
  879MOL0     H18610   8.077   2.802  10.389 -0.9085  0.4622 -0.0031
  879MOL0     H18611   8.080   2.664  10.500  0.0094 -0.9630 -2.8524
  879MOL0     H18612   8.132   2.923  10.565  0.3245  1.3245 -0.9329
  879MOL0     H18613   8.292   2.887  10.517 -0.6054  0.0354 -0.7049
  879MOL0     H18614   8.219   2.861  10.777 -1.5684 -0.6199  0.6811
  879MOL0     H18615   8.149   2.714  10.727 -3.2610  3.4886  0.2514
  879MOL0     H18616   8.315   2.533  10.835 -0.6828  1.9237  0.5973
  879MOL0     H18617   8.514   2.377  10.881  0.4681 -2.4184 -0.8328
  879MOL0     H18618   8.616   2.354  10.733  1.6924  0.2453  0.2678
  879MOL0     H18619   8.748   2.375  10.947 -1.4308  0.7619  2.5317
  879MOL0     H18620   8.776   2.509  10.835  2.0466 -0.6910  1.0493
  879MOL0     H18621   8.595   2.632  10.978  2.2322  2.0439 -0.6509
  879MOL0     H18622   8.743   2.610  11.067 -1.5069  3.0155  1.8157
  879MOL0     H18623   8.657   2.416  11.180 -0.3452  0.6086 -1.2450
  879MOL0     H18624   8.503   2.428  11.096 -0.4964 -0.1494 -0.5226
  879MOL0     H18625   8.679   2.466  11.405 -1.0920 -0.0208  0.3094
  879MOL0     H18626   8.804   2.579  11.571  1.7279  0.4556 -2.1201
  879MOL0     H18627   9.144   2.857  11.671 -3.0991 -3.7379 -0.6130
  879MOL0     H18628   9.305   2.938  11.853 -0.4369  0.3332 -3.4274
  879MOL0     H18629   9.285   3.128  12.225 -1.5292  1.5632 -2.6543
  879MOL0     H18630   9.121   3.084  12.191  0.6031  0.1041 -2.5180
  879MOL0     H18631   9.172   3.025  12.418  2.0094  2.2687 -1.3636
  879MOL0     H18632   9.149   2.871  12.332  2.0675 -1.7033  0.1835
  879MOL0     H18633   9.391   2.846  12.318 -2.2668 -1.3967 -1.4394
  879MOL0     H18634   9.423   3.003  12.396 -0.7039  1.0688  1.3327
  879MOL0     H18635   9.257   2.813  12.540  0.7601 -0.2732 -1.8148
  879MOL0     H18636   9.336   2.966  12.599  0.0427  0.4198 -0.6334
  879MOL0     H18637   9.486   2.712  12.498  0.3220  1.0754 -1.1152
  879MOL0     H18638   9.437   2.737  12.668 -1.7048  2.1510  1.3202
  879MOL0     H18639   9.616   2.890  12.479  0.8512 -0.0278 -0.0299
  879MOL0     H18640   9.559   2.973  12.621 -1.1014 -1.0756  3.8237
  879MOL0     H18641   9.688   2.705  12.674  2.2329  0.7446  0.7043
  879MOL0     H18642   9.681   2.846  12.780  1.2902  0.4026 -0.5762
  879MOL0     H18643   9.858   2.964  12.627  3.2312 -0.0067 -0.2731
  879MOL0     H18644   9.893   2.825  12.719  0.9878  2.2305 -0.2003
  879MOL0     H18645   9.003   2.890  12.143  2.6372  0.4614  0.9264
  879MOL0     H18646   8.835   2.831  11.947  0.9513 -0.3146 -0.0206
  879MOL0     H18647   8.707   2.957  11.416 -0.4385 -0.5717  1.1205
  879MOL0     H18648   8.586   2.851  11.228 -3.5623 -0.3149  1.1204
  879MOL0     H18649   7.888   2.174   9.970 -2.0026 -1.4904 -0.9856
  879MOL0     H18650   7.660   2.098  10.016  1.0020 -2.7111 -0.4976
  879MOL0     H18651   7.342   1.939  10.102  0.2638 -1.2234  1.1559
  879MOL0     H18652   7.125   1.828  10.113  1.3411  0.0038  0.3236
  879MOL0     H18653   6.927   1.703  10.224 -1.0815 -0.9996  0.3175
  879MOL0     H18654   6.887   1.813  10.093  1.1498  3.2601  1.2111
  879MOL0     H18655   6.674   1.684  10.170  2.0511 -0.3549 -1.3326
  879MOL0     H18656   6.666   1.856  10.179 -1.3399 -1.1762 -0.9403
  879MOL0     H18657   6.716   1.859  10.411  1.9042 -1.1141 -0.6500
  879MOL0     H18658   6.749   1.683  10.416 -1.5338 -1.0862 -0.5000
  879MOL0     H18659   6.533   1.631  10.331 -0.0596 -0.6135  0.9491
  879MOL0     H18660   6.533   1.681  10.493  0.7808 -0.7927 -0.9306
  879MOL0     H18661   6.361   2.036  10.330  1.4158  0.7087 -2.1996
  879MOL0     H18662   7.006   2.079  10.431 -1.5208 -0.0378 -2.4051
  879MOL0     H18663   7.186   2.286  10.449 -0.5319 -1.4315 -1.0341
  879MOL0     H18664   7.169   2.160  10.579  1.9725 -4.3195 -0.1852
  879MOL0     H18665   7.322   2.213  10.535  0.1186  1.5644 -0.2627
  880MOL0     O18666   7.263  10.658   8.704  0.8771 -0.6209  0.2312
  880MOL0     C18667   7.154  10.600   8.709 -0.1629 -0.6629 -0.7023
  880MOL0     O18668   7.136  10.464   8.733 -0.9848 -0.0687 -0.3372
  880MOL0     C18669   7.234  10.410   8.807 -0.0658 -0.3060  0.6814
  880MOL0     C18670   7.213  10.355   8.932  0.3557  0.5124  0.1330
  880MOL0     C18671   7.307  10.272   8.995 -0.3000  0.1408  0.9549
  880MOL0     C18672   7.436  10.257   8.947 -0.2095  0.1925 -0.1800
  880MOL0     O18673   7.515  10.166   9.015 -1.1362  0.4041  0.1041
  880MOL0     C18674   7.659  10.163   9.003  0.3712  0.9931 -0.0460
  880MOL0     C18675   7.745  10.224   9.104 -0.5825  0.2808 -0.2343
  880MOL0     C18676   7.749  10.387   9.106 -0.6633  0.4822 -0.3121
  880MOL0     C18677   7.806  10.447   9.235 -0.1715  0.0784 -0.4945
  880MOL0     C18678   7.848  10.591   9.214 -0.1184 -0.3070 -0.2196
  880MOL0     C18679   7.885  10.673   9.336  0.0871 -0.0512  0.3455
  880MOL0     C18680   8.013  10.616   9.403  1.0866 -0.6427 -0.5836
  880MOL0     C18681   8.051  10.711   9.521  0.5236  0.1816 -0.1707
  880MOL0     N18682   8.166  10.667   9.591 -0.7186  0.6466  0.0665
  880MOL0     C18683   8.299  10.665   9.541 -0.9522 -0.2307 -0.5942
  880MOL0     C18684   8.366  10.610   9.647 -0.1471 -0.1384  0.4170
  880MOL0     C18685   8.507  10.559   9.621  0.3951 -0.4994 -1.4381
  880MOL0     C18686   8.608  10.613   9.710 -0.2055  0.0180 -0.4820
  880MOL0     C18687   8.628  10.765   9.690  0.3832 -0.1870 -0.3099
  880MOL0     C18688   8.771  10.800   9.741 -0.0706  0.0091 -0.3362
  880MOL0     O18689   8.877  10.724   9.669  0.3723 -0.3003 -0.2191
  880MOL0     C18690   8.995  10.695   9.729 -0.7359  0.8688 -0.3605
  880MOL0     C18691   9.034  10.754   9.858  0.7399 -0.2038  0.8780
  880MOL0     C18692   9.154  10.712   9.916 -0.1791  0.3565  0.3316
  880MOL0     C18693   9.240  10.621   9.849 -1.1379 -0.1080 -0.3981
  880MOL0     C18694   9.378  10.586   9.901  0.3457 -0.1673 -0.0041
  880MOL0     O18695   9.474  10.564   9.815 -0.0661 -0.2318  0.4612
  880MOL0     C18696   9.596  10.503   9.843  0.2198 -0.7365  0.9108
  880MOL0     C18697   9.672  10.484   9.733 -0.1033  0.1734  0.5986
  880MOL0     C18698   9.790  10.416   9.737  0.1966 -0.0678  0.1865
  880MOL0     C18699   9.842  10.369   9.855 -0.0736 -0.7701 -0.0737
  880MOL0     O18700   9.967  10.319   9.850 -0.5752 -1.4151 -0.3411
  880MOL0     C18701  10.028  10.259   9.959 -0.2514 -0.3401  0.0885
  880MOL0     C18702  10.180  10.261   9.937 -0.3782 -0.0142  0.8841
  880MOL0     C18703  10.253  10.187  10.053  0.2310  0.5409  0.2569
  880MOL0     C18704  10.391  10.234  10.039 -0.6483  0.1248  0.0763
  880MOL0     C18705  10.505  10.153  10.100 -0.5634 -0.2003 -0.7403
  880MOL0     C18706  10.651  10.217  10.087  0.1426  0.5267 -0.2621
  880MOL0     C18707  10.707  10.212   9.945 -0.5628  0.5819  0.6478
  880MOL0     C18708  10.858  10.195   9.938  0.5833  0.4476  0.8496
  880MOL0    Cl18709  10.900  10.235   9.769  0.1301  0.1203  0.2201
  880MOL0     C18710   9.771  10.398   9.974 -0.3689 -0.6436 -0.4179
  880MOL0     C18711   9.642  10.447   9.961 -0.6425 -0.8202 -0.8389
  880MOL0     O18712   9.388  10.574  10.022 -1.2965  0.9186 -0.7852
  880MOL0     C18713   9.200  10.565   9.727  0.6112 -0.4451  0.5170
  880MOL0     C18714   9.083  10.602   9.676 -0.7323  0.4065 -0.6057
  880MOL0     N18715   8.278  10.590   9.754 -0.9103  1.0405 -0.0533
  880MOL0     N18716   8.157  10.617   9.718  0.1118 -0.1427 -0.6155
  880MOL0     C18717   7.472  10.330   8.839 -0.4367 -0.0176  0.1792
  880MOL0     C18718   7.369  10.399   8.758  0.2161  0.8916 -0.3274
  880MOL0     C18719   7.027  10.679   8.690  1.2483 -0.7981 -0.3775
  880MOL0     C18720   7.043  10.799   8.626 -0.3357 -0.0600 -0.1434
  880MOL0     C18721   6.933  10.875   8.572 -0.1104 -0.7680  0.5208
  880MOL0     C18722   6.804  10.831   8.600 -0.6473  0.2548  0.1651
  880MOL0     O18723   6.721  10.908   8.527 -0.1345  0.3786  0.3568
  880MOL0     C18724   6.585  10.865   8.534 -0.1381 -0.2307 -0.0294
  880MOL0     C18725   6.551  10.780   8.402  0.0770  0.0962 -0.7608
  880MOL0     C18726   6.606  10.832   8.275  0.0219 -0.8539 -0.0181
  880MOL0     C18727   6.547  10.979   8.257 -1.4954 -0.5736  0.2937
  880MOL0     C18728   6.402  10.984   8.280  0.0086 -0.8150 -0.6907
  880MOL0     C18729   6.285  10.969   8.299  0.3371 -0.1446 -0.2502
  880MOL0     C18730   6.785  10.716   8.683 -0.9991 -0.8659 -0.7086
  880MOL0     C18731   6.894  10.640   8.722 -0.2749 -0.1095 -0.6616
  880MOL0     C18732   6.863  10.527   8.808 -0.9828  0.6872  0.7438
  880MOL0     H18733   7.111  10.348   8.967  0.0286 -1.7048 -1.1094
  880MOL0     H18734   7.278  10.204   9.074  4.1525  2.2900  4.9349
  880MOL0     H18735   7.684  10.057   9.015 -3.5357 -0.2040 -1.2265
  880MOL0     H18736   7.688  10.182   8.900 -0.9433  2.1061 -0.2264
  880MOL0     H18737   7.846  10.183   9.093 -0.9541 -0.0238 -3.1580
  880MOL0     H18738   7.714  10.194   9.205  1.5926 -1.2105  0.0859
  880MOL0     H18739   7.646  10.423   9.094 -0.5925  1.5626  1.9805
  880MOL0     H18740   7.811  10.430   9.027 -0.8757  0.3765 -0.5378
  880MOL0     H18741   7.733  10.445   9.317  0.2123 -0.5590 -0.1591
  880MOL0     H18742   7.892  10.394   9.276 -0.1479  2.0763  2.3343
  880MOL0     H18743   7.931  10.595   9.142 -1.4527 -1.6024 -1.9149
  880MOL0     H18744   7.760  10.626   9.160  0.5879 -1.4301 -2.2364
  880MOL0     H18745   7.887  10.780   9.314 -0.9779 -0.3294 -1.3121
  880MOL0     H18746   7.799  10.666   9.404 -0.5518 -1.0579 -0.5314
  880MOL0     H18747   8.093  10.614   9.329  0.3473  1.2658 -1.5063
  880MOL0     H18748   7.989  10.516   9.440 -2.2408 -0.1474 -1.0450
  880MOL0     H18749   8.067  10.810   9.477 -2.3114  0.3730 -0.9748
  880MOL0     H18750   7.972  10.724   9.595  2.4729  1.1454  1.8505
  880MOL0     H18751   8.342  10.672   9.442  3.4442 -2.3417  0.8868
  880MOL0     H18752   8.508  10.450   9.628  0.7865 -0.5104 -1.6200
  880MOL0     H18753   8.543  10.587   9.521  0.8447  1.1332 -0.8608
  880MOL0     H18754   8.587  10.584   9.813  1.5278 -0.5614 -0.2534
  880MOL0     H18755   8.700  10.559   9.684 -0.7895 -2.1344  1.5236
  880MOL0     H18756   8.555  10.825   9.745  0.9397  0.1515  0.0619
  880MOL0     H18757   8.623  10.801   9.586 -0.7073  0.9010  0.0911
  880MOL0     H18758   8.780  10.775   9.847  0.0896 -0.9502 -0.5704
  880MOL0     H18759   8.783  10.909   9.747  0.4302 -0.1418  2.9659
  880MOL0     H18760   8.979  10.837   9.902  0.6822  2.1403 -3.1388
  880MOL0     H18761   9.183  10.771  10.002  0.2625  0.0685  0.3803
  880MOL0     H18762   9.640  10.524   9.637 -1.9072 -1.0947  0.6361
  880MOL0     H18763   9.848  10.406   9.646 -1.3154  1.7468 -1.0342
  880MOL0     H18764  10.012  10.322  10.048 -2.6415 -1.3399  0.4469
  880MOL0     H18765   9.984  10.161   9.979 -3.3632  1.0817  0.8157
  880MOL0     H18766  10.205  10.220   9.839  0.7742  0.4070  0.9887
  880MOL0     H18767  10.209  10.366   9.938  0.7262 -0.3044  2.4279
  880MOL0     H18768  10.200  10.199  10.148  0.3035 -1.3413  0.5595
  880MOL0     H18769  10.245  10.082  10.024 -0.4028  0.8663 -0.8263
  880MOL0     H18770  10.393  10.331  10.091 -4.7705  0.1597  0.5297
  880MOL0     H18771  10.421  10.244   9.935 -1.9981  1.2053 -0.2333
  880MOL0     H18772  10.524  10.051  10.066  5.7096 -0.2417  1.5490
  880MOL0     H18773  10.502  10.152  10.210 -1.8532 -1.5335 -0.7739
  880MOL0     H18774  10.654  10.317  10.131 -1.6280 -0.4556  2.3259
  880MOL0     H18775  10.718  10.162  10.154  1.6230  0.4799 -1.6957
  880MOL0     H18776  10.691  10.305   9.890  1.3916  0.5598 -0.0164
  880MOL0     H18777  10.659  10.142   9.876  0.7539  2.1301 -1.9688
  880MOL0     H18778  10.914  10.261  10.005 -0.5147  1.1991  1.0409
  880MOL0     H18779  10.896  10.099   9.974  1.7854  1.2198  1.7428
  880MOL0     H18780   9.801  10.362  10.072  0.7880 -2.6114 -1.4137
  880MOL0     H18781   9.598  10.451  10.060 -1.1665  0.2522 -1.0961
  880MOL0     H18782   9.265  10.494   9.678  0.3294  0.2428 -0.8971
  880MOL0     H18783   9.063  10.547   9.585 -2.6991  0.7281 -0.4011
  880MOL0     H18784   7.571  10.334   8.795  0.3282  3.1752  1.9144
  880MOL0     H18785   7.402  10.449   8.668  2.9864  3.8751  2.0616
  880MOL0     H18786   7.137  10.837   8.588  0.0627 -0.5325  0.3412
  880MOL0     H18787   6.956  10.960   8.510 -0.1919  0.0179  1.5395
  880MOL0     H18788   6.531  10.960   8.530 -0.4137 -0.2069  2.6977
  880MOL0     H18789   6.550  10.805   8.618 -1.2824 -0.9042 -0.9439
  880MOL0     H18790   6.443  10.761   8.393  0.1606 -1.2594  0.6196
  880MOL0     H18791   6.585  10.676   8.412 -0.2100  0.1275  0.8105
  880MOL0     H18792   6.575  10.771   8.189 -2.4261  2.5888 -1.8306
  880MOL0     H18793   6.714  10.844   8.277  0.4434 -3.0643 -3.0738
  880MOL0     H18794   6.597  11.048   8.325 -0.1472 -0.7897 -0.4548
  880MOL0     H18795   6.550  10.996   8.149 -2.5890 -1.1315  0.1587
  880MOL0     H18796   6.178  10.956   8.298  0.3919 -1.5316  2.2500
  880MOL0     H18797   6.683  10.688   8.710 -0.7912  0.0172  1.1086
  880MOL0     H18798   6.884  10.431   8.759 -0.3225  1.1081  0.1821
  880MOL0     H18799   6.912  10.532   8.906  0.5224  1.1611 -0.0031
  880MOL0     H18800   6.757  10.525   8.832 -1.2341  1.2548 -0.2782
  881MOL0     O18801   7.157   6.689   8.941  0.2433  0.1925 -0.3196
  881MOL0     C18802   7.076   6.600   8.961  0.2976 -0.4007 -0.0463
  881MOL0     O18803   7.101   6.464   8.929  0.1795 -0.4079 -0.4565
  881MOL0     C18804   7.198   6.438   8.840 -0.0021 -0.5943  0.6718
  881MOL0     C18805   7.156   6.414   8.708 -0.0450  0.5815 -1.0563
  881MOL0     C18806   7.246   6.386   8.612 -0.0410 -0.4820  0.4917
  881MOL0     C18807   7.388   6.388   8.635  0.1213 -0.5727 -0.2951
  881MOL0     O18808   7.475   6.352   8.534 -0.0541  0.1698 -0.4171
  881MOL0     C18809   7.518   6.218   8.546  0.6699  0.4451  0.0139
  881MOL0     C18810   7.627   6.186   8.442  0.1122  0.0351 -0.9238
  881MOL0     C18811   7.774   6.226   8.474 -0.0705  0.8009  0.1861
  881MOL0     C18812   7.813   6.365   8.430 -0.4095  0.5696  0.0690
  881MOL0     C18813   7.966   6.387   8.464 -0.1465 -0.2138 -0.1597
  881MOL0     C18814   8.022   6.505   8.397 -0.2231  0.2068  0.3997
  881MOL0     C18815   8.167   6.513   8.433 -0.1114 -0.5150 -0.5567
  881MOL0     C18816   8.233   6.636   8.369 -0.7369  0.0920  0.2647
  881MOL0     N18817   8.372   6.658   8.405 -0.5016  0.0879 -0.0907
  881MOL0     C18818   8.431   6.668   8.534  1.4382 -0.6511  0.5167
  881MOL0     C18819   8.561   6.706   8.511  1.1285  0.4508  0.4764
  881MOL0     C18820   8.663   6.728   8.614  0.1704  0.2477 -0.6855
  881MOL0     C18821   8.790   6.657   8.578 -0.6110  0.0682 -0.7304
  881MOL0     C18822   8.893   6.689   8.691  0.1247  0.2480 -0.6411
  881MOL0     C18823   9.006   6.589   8.705  0.0485  0.4048  0.2627
  881MOL0     O18824   9.092   6.635   8.809  0.1853 -0.7593  0.7047
  881MOL0     C18825   9.221   6.594   8.810 -0.3726 -0.9487  0.5618
  881MOL0     C18826   9.263   6.464   8.828  0.6953  0.6137  0.2940
  881MOL0     C18827   9.396   6.426   8.834  0.3419  0.1706  0.4454
  881MOL0     C18828   9.500   6.517   8.817  0.4784 -0.4008  0.2499
  881MOL0     C18829   9.641   6.486   8.830 -0.5693  0.5827  0.1475
  881MOL0     O18830   9.737   6.579   8.821 -0.1861  0.0065 -0.6490
  881MOL0     C18831   9.868   6.572   8.857  0.4951  1.3974  0.1726
  881MOL0     C18832   9.945   6.464   8.887  0.6257  0.3718 -0.5564
  881MOL0     C18833  10.075   6.471   8.914 -0.8379 -0.6804 -0.6563
  881MOL0     C18834  10.143   6.595   8.916  0.1415 -0.2255  0.6471
  881MOL0     O18835  10.273   6.610   8.948 -0.5308 -0.4558 -0.2374
  881MOL0     C18836  10.345   6.724   8.905  0.4831 -0.9034 -0.2191
  881MOL0     C18837  10.500   6.697   8.907 -0.3438 -0.1825  0.9696
  881MOL0     C18838  10.569   6.818   8.849  0.3408  0.0100  1.1403
  881MOL0     C18839  10.702   6.775   8.796 -0.3081  0.0663 -0.3324
  881MOL0     C18840  10.786   6.874   8.729  0.0307  0.4718 -0.1192
  881MOL0     C18841  10.908   6.806   8.666  0.9857  0.5881  0.0839
  881MOL0     C18842  10.973   6.890   8.560 -0.0076  0.7298 -0.0603
  881MOL0     C18843  11.051   7.005   8.635 -0.2181 -0.4839 -0.5958
  881MOL0    Cl18844  11.170   7.092   8.528  0.1437  0.0733  0.8470
  881MOL0     C18845  10.064   6.711   8.894  0.6714  0.1038 -0.3903
  881MOL0     C18846   9.922   6.701   8.863 -0.6547  0.0632 -0.4512
  881MOL0     O18847   9.659   6.365   8.847 -0.7403 -0.0874 -0.0450
  881MOL0     C18848   9.459   6.657   8.807 -0.4615  0.2778 -0.4629
  881MOL0     C18849   9.323   6.684   8.812  0.3352 -1.0435 -0.0846
  881MOL0     N18850   8.577   6.724   8.377  0.2221  0.1582  0.5978
  881MOL0     N18851   8.466   6.683   8.308  0.1994  0.3272 -0.2541
  881MOL0     C18852   7.427   6.402   8.769 -0.3299 -0.2633  0.3063
  881MOL0     C18853   7.337   6.430   8.869 -1.2326  0.0773 -0.9229
  881MOL0     C18854   6.948   6.624   9.033 -0.1609  0.6314  0.0879
  881MOL0     C18855   6.851   6.525   9.024  0.4473 -0.9544  0.2983
  881MOL0     C18856   6.729   6.542   9.078  0.5572 -0.0424 -0.2171
  881MOL0     C18857   6.688   6.657   9.150  0.0365  0.9529  0.5531
  881MOL0     O18858   6.564   6.677   9.208 -0.2664  0.0812 -0.4844
  881MOL0     C18859   6.477   6.563   9.235 -0.3373 -0.4879  0.5555
  881MOL0     C18860   6.513   6.471   9.348 -0.0380  1.0688 -0.9927
  881MOL0     C18861   6.434   6.343   9.334  0.4394  0.1081  0.2788
  881MOL0     C18862   6.450   6.234   9.432  0.2172 -1.1211  0.0395
  881MOL0     C18863   6.363   6.127   9.392  0.0243 -0.4612 -0.3992
  881MOL0     C18864   6.307   6.024   9.359 -1.2549  1.2415 -0.5458
  881MOL0     C18865   6.780   6.757   9.149  0.1518 -0.6154 -0.6363
  881MOL0     C18866   6.910   6.746   9.093 -0.3126 -0.5482 -0.3094
  881MOL0     C18867   7.004   6.869   9.109  0.0288  1.0987  0.7336
  881MOL0     H18868   7.050   6.414   8.685 -0.8079  0.8705  1.9828
  881MOL0     H18869   7.223   6.369   8.507  4.5367  2.6119 -1.3562
  881MOL0     H18870   7.546   6.186   8.647 -0.6353 -0.0137  0.2556
  881MOL0     H18871   7.435   6.155   8.513  1.8329 -1.1155 -0.0412
  881MOL0     H18872   7.594   6.224   8.345 -0.0975 -1.1331 -1.3382
  881MOL0     H18873   7.627   6.076   8.448  0.3653 -0.0891 -2.6143
  881MOL0     H18874   7.855   6.158   8.446  1.1965  1.5080  1.9355
  881MOL0     H18875   7.773   6.227   8.584  0.5336  0.2051  0.2075
  881MOL0     H18876   7.819   6.368   8.321  1.1032  4.4986  0.1128
  881MOL0     H18877   7.755   6.443   8.479 -0.5250  0.3862  0.2250
  881MOL0     H18878   7.968   6.418   8.569  1.5169  0.5301 -0.3808
  881MOL0     H18879   8.025   6.296   8.448  2.5312  0.9487  2.1416
  881MOL0     H18880   8.023   6.489   8.289 -0.4498  3.1275 -0.1008
  881MOL0     H18881   7.969   6.598   8.418 -0.0383  0.5260 -0.5397
  881MOL0     H18882   8.215   6.421   8.399  0.0244 -1.6576  2.3698
  881MOL0     H18883   8.178   6.522   8.542 -0.9789  2.2182 -0.6341
  881MOL0     H18884   8.223   6.635   8.260 -0.4039  0.4841  0.2292
  881MOL0     H18885   8.181   6.726   8.404  1.6716  2.0033 -0.8168
  881MOL0     H18886   8.389   6.659   8.634  2.4436 -0.5746  0.9569
  881MOL0     H18887   8.678   6.835   8.630  1.1336 -0.1885  1.7998
  881MOL0     H18888   8.631   6.685   8.710  0.1709  0.7263 -0.4651
  881MOL0     H18889   8.767   6.550   8.578  0.3105 -0.1665  1.1203
  881MOL0     H18890   8.841   6.691   8.488  1.9031  0.8009  0.8759
  881MOL0     H18891   8.835   6.690   8.784 -1.0834 -2.0223 -1.2977
  881MOL0     H18892   8.942   6.787   8.686  1.6414 -0.4279  0.2029
  881MOL0     H18893   9.070   6.590   8.616  1.6596  1.2206  1.3944
  881MOL0     H18894   8.967   6.489   8.727  2.6281 -1.3590 -2.3280
  881MOL0     H18895   9.185   6.391   8.848  2.5042 -1.6564 -0.5069
  881MOL0     H18896   9.415   6.324   8.868  1.0856  0.4054  0.7428
  881MOL0     H18897   9.903   6.364   8.878  2.4722 -0.3562 -1.6803
  881MOL0     H18898  10.139   6.391   8.951 -0.4512  0.8477  2.1875
  881MOL0     H18899  10.303   6.766   8.813  0.0901 -1.2558 -0.2058
  881MOL0     H18900  10.332   6.801   8.981  1.5383  1.5718 -2.4182
  881MOL0     H18901  10.532   6.678   9.010  0.4160  2.0226  1.1948
  881MOL0     H18902  10.511   6.612   8.840 -1.2800  1.3406 -1.2247
  881MOL0     H18903  10.504   6.864   8.774 -0.0562 -0.0427  1.4489
  881MOL0     H18904  10.596   6.899   8.918  2.4852  1.8609 -1.6114
  881MOL0     H18905  10.687   6.694   8.724  0.2984 -2.2764  2.0198
  881MOL0     H18906  10.755   6.735   8.883  1.2418  0.1187 -1.2196
  881MOL0     H18907  10.818   6.953   8.798  1.0730  0.7137 -0.8527
  881MOL0     H18908  10.718   6.911   8.653 -0.7126  1.9805  1.2144
  881MOL0     H18909  10.983   6.775   8.738  0.3385 -0.7089  0.2254
  881MOL0     H18910  10.881   6.723   8.600  2.2463 -0.9834  1.4746
  881MOL0     H18911  10.906   6.941   8.489 -1.3010  0.0050  0.6044
  881MOL0     H18912  11.054   6.834   8.514 -0.3898 -0.7823  1.0589
  881MOL0     H18913  10.978   7.075   8.677  1.7724  2.9893 -2.4044
  881MOL0     H18914  11.115   6.988   8.722 -0.3943  1.2370 -0.0959
  881MOL0     H18915  10.106   6.811   8.889 -0.0365  0.4225 -0.0473
  881MOL0     H18916   9.868   6.789   8.829  2.7846  2.2627 -0.7665
  881MOL0     H18917   9.527   6.739   8.791 -1.3877  1.2706  0.5328
  881MOL0     H18918   9.295   6.789   8.801  0.7433 -1.0330 -1.1172
  881MOL0     H18919   7.535   6.391   8.777 -0.4909 -2.3185  0.0385
  881MOL0     H18920   7.360   6.445   8.974 -0.7065  0.5842 -1.1039
  881MOL0     H18921   6.873   6.439   8.961  1.1864  0.0293 -0.8447
  881MOL0     H18922   6.667   6.453   9.085  2.7107 -1.6500 -0.5387
  881MOL0     H18923   6.458   6.517   9.138  1.3377 -1.8926  0.8435
  881MOL0     H18924   6.381   6.592   9.278  0.6458 -0.8440  3.1725
  881MOL0     H18925   6.492   6.520   9.443  0.6025  0.8800 -0.7488
  881MOL0     H18926   6.621   6.453   9.337 -0.3306 -1.1207 -0.6179
  881MOL0     H18927   6.447   6.289   9.239 -0.8686  1.2547 -0.5832
  881MOL0     H18928   6.329   6.373   9.337  0.1422 -0.8293 -0.2802
  881MOL0     H18929   6.555   6.204   9.426  0.7507  0.3601  1.2590
  881MOL0     H18930   6.447   6.282   9.530  4.4867 -1.3723  0.4573
  881MOL0     H18931   6.262   5.929   9.337  0.0880  0.4919 -0.1663
  881MOL0     H18932   6.732   6.841   9.200  1.1625 -0.8933  0.8292
  881MOL0     H18933   7.097   6.826   9.147 -0.0115  1.7657  1.6058
  881MOL0     H18934   7.024   6.914   9.012 -3.6459  2.3348  0.3693
  881MOL0     H18935   6.970   6.944   9.181 -0.5519  2.3330 -0.7807
  882MOL0     O18936   3.304   3.872   3.234 -0.0018 -0.7023  0.1366
  882MOL0     C18937   3.222   3.816   3.163  0.5216  0.3790 -1.2087
  882MOL0     O18938   3.163   3.873   3.054  0.2471 -0.1942 -0.2704
  882MOL0     C18939   3.192   4.004   3.025  0.4049 -0.4939 -0.3688
  882MOL0     C18940   3.110   4.098   3.090  0.7370  0.1574 -0.2465
  882MOL0     C18941   3.132   4.233   3.046 -0.3885  0.2142 -0.3916
  882MOL0     C18942   3.224   4.277   2.949 -0.9990  0.0766  0.8826
  882MOL0     O18943   3.223   4.412   2.916  0.5186  0.1603 -0.2739
  882MOL0     C18944   3.271   4.462   2.791  0.1130 -0.1869  0.5258
  882MOL0     C18945   3.403   4.515   2.805 -0.2203 -0.4905  0.3808
  882MOL0     C18946   3.459   4.577   2.671 -0.1719 -0.4817  0.8594
  882MOL0     C18947   3.597   4.638   2.696  0.9962 -0.1394  0.8570
  882MOL0     C18948   3.632   4.725   2.576  0.2698  0.8422 -0.1865
  882MOL0     C18949   3.777   4.777   2.591  0.8630  0.1400 -0.6186
  882MOL0     C18950   3.819   4.856   2.458  0.4554 -0.7769  0.3429
  882MOL0     C18951   3.967   4.893   2.441 -0.6299  0.0232 -0.3193
  882MOL0     N18952   3.990   4.970   2.316  0.6625  0.4100 -0.1260
  882MOL0     C18953   4.041   4.929   2.194  0.1222 -0.3877  0.3921
  882MOL0     C18954   4.043   5.038   2.119  0.3292 -0.6582 -0.5475
  882MOL0     C18955   4.119   5.058   1.980 -0.8772  0.1826 -0.0121
  882MOL0     C18956   4.216   4.939   1.956 -0.9019  0.1873  0.2139
  882MOL0     C18957   4.287   4.945   1.831  0.7110 -0.1214  0.0430
  882MOL0     C18958   4.370   5.067   1.803  0.4763 -0.4109 -1.0113
  882MOL0     O18959   4.449   5.105   1.916  0.4059 -0.1064  0.2445
  882MOL0     C18960   4.563   5.183   1.892 -0.0795  0.4988 -0.0953
  882MOL0     C18961   4.591   5.254   1.775  0.0754 -0.5930  0.5220
  882MOL0     C18962   4.717   5.316   1.764 -0.4294 -0.9482 -0.1679
  882MOL0     C18963   4.822   5.310   1.863 -0.7796  0.6417 -0.4428
  882MOL0     C18964   4.958   5.366   1.842 -0.5076 -0.5153 -0.5190
  882MOL0     O18965   5.035   5.360   1.950 -0.4844 -0.3925 -0.8003
  882MOL0     C18966   5.157   5.432   1.940  1.0402  0.3487 -0.4049
  882MOL0     C18967   5.151   5.569   1.956 -0.9183 -0.1033 -0.5039
  882MOL0     C18968   5.266   5.645   1.940 -0.4740  0.0626  0.5585
  882MOL0     C18969   5.383   5.587   1.897 -0.3354 -0.4474  0.2992
  882MOL0     O18970   5.501   5.667   1.886  0.4627  0.2244 -0.8765
  882MOL0     C18971   5.487   5.811   1.868 -0.6067 -0.6176 -0.4424
  882MOL0     C18972   5.500   5.901   1.987 -0.6342 -0.1642 -0.1658
  882MOL0     C18973   5.640   5.933   2.013 -0.3554 -0.1193 -0.0112
  882MOL0     C18974   5.641   6.031   2.130 -0.4927 -0.7268  0.2924
  882MOL0     C18975   5.786   6.065   2.172 -1.1751 -0.3216  0.5236
  882MOL0     C18976   5.792   6.156   2.296  0.3380 -0.4394 -0.0757
  882MOL0     C18977   5.942   6.186   2.333  0.4750 -1.1577  0.3534
  882MOL0     C18978   6.021   6.053   2.352 -0.8396 -0.7023 -0.2304
  882MOL0    Cl18979   6.179   6.069   2.445  0.2278  0.1643  0.2397
  882MOL0     C18980   5.390   5.451   1.876 -0.6298  0.4391  1.0140
  882MOL0     C18981   5.273   5.377   1.894  0.1037  0.4336 -0.0611
  882MOL0     O18982   4.991   5.427   1.741  0.5234 -0.0048 -0.8281
  882MOL0     C18983   4.792   5.227   1.972 -0.7635 -1.4157  0.2031
  882MOL0     C18984   4.670   5.168   1.987  0.0010 -0.0764  0.9031
  882MOL0     N18985   4.008   5.149   2.190 -0.3019  0.0057  0.4649
  882MOL0     N18986   3.964   5.104   2.307  0.1326  0.2212 -1.1500
  882MOL0     C18987   3.302   4.175   2.887  0.9608 -0.4187 -0.5175
  882MOL0     C18988   3.287   4.043   2.928 -0.5846 -0.7198  0.2914
  882MOL0     C18989   3.182   3.667   3.190  0.8070  0.6763 -0.2220
  882MOL0     C18990   3.109   3.599   3.090  0.5025  0.1733 -0.3101
  882MOL0     C18991   3.058   3.467   3.102  0.4717 -0.0958  0.8788
  882MOL0     C18992   3.060   3.391   3.220  0.3272 -0.1530 -0.3303
  882MOL0     O18993   3.019   3.262   3.231 -0.3761  0.4073  0.0983
  882MOL0     C18994   2.889   3.235   3.158 -0.1860  0.2348  0.0692
  882MOL0     C18995   2.838   3.118   3.230 -0.9189 -0.1731 -1.1708
  882MOL0     C18996   2.699   3.073   3.171 -0.5442 -0.9339  0.1778
  882MOL0     C18997   2.600   3.030   3.273  0.6397  0.2993 -0.2721
  882MOL0     C18998   2.473   3.003   3.195  0.0315 -0.4827  0.3756
  882MOL0     C18999   2.363   2.987   3.143 -0.0537 -0.1486 -0.2591
  882MOL0     C19000   3.148   3.454   3.318  0.1038  1.0236  0.8492
  882MOL0     C19001   3.204   3.588   3.310  0.6504  0.7759  0.4394
  882MOL0     C19002   3.272   3.643   3.421  1.3534 -0.3259 -0.3411
  882MOL0     H19003   3.034   4.067   3.161  1.9880 -3.3676 -0.2814
  882MOL0     H19004   3.094   4.320   3.099 -0.2662  1.8235 -2.8134
  882MOL0     H19005   3.253   4.387   2.713 -2.2850 -0.5202  1.3142
  882MOL0     H19006   3.203   4.543   2.762 -2.4683 -2.2623  0.3785
  882MOL0     H19007   3.469   4.437   2.844  2.5424  1.2370 -0.4541
  882MOL0     H19008   3.392   4.590   2.883  0.1968 -1.1459  1.0794
  882MOL0     H19009   3.383   4.647   2.635 -0.1037 -2.0518 -2.7587
  882MOL0     H19010   3.477   4.501   2.595 -0.6451 -0.0527  0.3065
  882MOL0     H19011   3.598   4.706   2.782  0.1928  0.1831  0.6216
  882MOL0     H19012   3.661   4.550   2.706 -1.4961 -1.8680  2.9655
  882MOL0     H19013   3.618   4.674   2.480 -0.3908 -0.6689  0.6761
  882MOL0     H19014   3.563   4.809   2.567  0.2139  0.6265 -2.5343
  882MOL0     H19015   3.775   4.850   2.672  1.4504  1.2442 -1.5798
  882MOL0     H19016   3.850   4.699   2.618 -0.5062 -0.6643  0.9409
  882MOL0     H19017   3.759   4.947   2.448 -1.2752 -2.0967 -2.6439
  882MOL0     H19018   3.788   4.789   2.376  0.5076 -0.4960  0.0933
  882MOL0     H19019   4.003   4.946   2.530  1.1411 -0.7695 -0.5253
  882MOL0     H19020   4.023   4.799   2.444 -0.0121  0.3983  0.4908
  882MOL0     H19021   4.071   4.828   2.166  1.5661 -0.4438  1.9924
  882MOL0     H19022   4.041   5.068   1.904  0.7073  2.8657 -1.4339
  882MOL0     H19023   4.180   5.148   1.975 -0.9751  0.2148 -0.7067
  882MOL0     H19024   4.291   4.938   2.035 -0.5356  2.0253 -0.0527
  882MOL0     H19025   4.154   4.850   1.970 -1.6679  0.8418  1.1698
  882MOL0     H19026   4.205   4.943   1.759  1.2178 -0.0605 -0.5390
  882MOL0     H19027   4.348   4.855   1.824 -0.3284 -0.7453 -5.2592
  882MOL0     H19028   4.307   5.152   1.776  0.4283 -1.4939 -4.8246
  882MOL0     H19029   4.424   5.055   1.709 -3.0566  1.7109 -3.5685
  882MOL0     H19030   4.525   5.264   1.689  1.0747 -0.8431 -0.3053
  882MOL0     H19031   4.726   5.386   1.681 -2.6505  0.1351  0.4233
  882MOL0     H19032   5.064   5.616   2.001  0.7853  0.9254  1.9547
  882MOL0     H19033   5.253   5.751   1.960 -1.5555 -0.8512  6.1072
  882MOL0     H19034   5.561   5.834   1.791 -0.4114  0.7124  0.1121
  882MOL0     H19035   5.390   5.824   1.819 -1.1851  0.3830  0.8846
  882MOL0     H19036   5.445   5.995   1.980 -2.3805 -0.9815  1.6115
  882MOL0     H19037   5.461   5.847   2.074  0.4384 -3.5968 -1.6020
  882MOL0     H19038   5.704   5.848   2.039 -0.2724  0.0609  0.3739
  882MOL0     H19039   5.682   5.973   1.920 -1.1583 -0.7631 -0.6724
  882MOL0     H19040   5.602   5.997   2.227  2.2870  0.8603  2.1022
  882MOL0     H19041   5.595   6.127   2.107 -0.4160  0.1093  3.2555
  882MOL0     H19042   5.847   6.112   2.095  0.2926 -0.0221  1.8165
  882MOL0     H19043   5.835   5.968   2.187  1.8810  1.3481  2.1433
  882MOL0     H19044   5.742   6.251   2.278  0.2999 -0.7864 -1.9533
  882MOL0     H19045   5.737   6.118   2.383 -0.8426  1.6550  0.1634
  882MOL0     H19046   5.948   6.233   2.432  1.4630 -3.8168  1.6790
  882MOL0     H19047   5.978   6.248   2.251  0.4743 -2.4842 -0.6919
  882MOL0     H19048   5.942   5.996   2.401 -1.1193  0.2043  0.4107
  882MOL0     H19049   6.049   6.006   2.258  0.7982 -0.0678 -0.0956
  882MOL0     H19050   5.481   5.397   1.851 -1.4940 -1.8460  2.4598
  882MOL0     H19051   5.291   5.273   1.868  0.0320  0.6054 -0.8089
  882MOL0     H19052   4.872   5.206   2.041 -1.3069  2.6071  2.3257
  882MOL0     H19053   4.652   5.097   2.066 -0.5473 -3.9013 -2.3417
  882MOL0     H19054   3.367   4.207   2.805  0.5308  0.3002 -0.5839
  882MOL0     H19055   3.342   3.962   2.881 -0.1299 -0.3372  0.1599
  882MOL0     H19056   3.091   3.653   2.997  0.9276  0.7169 -0.0771
  882MOL0     H19057   3.013   3.424   3.013  4.0878  0.9443 -1.6640
  882MOL0     H19058   2.925   3.211   3.057  2.0779  0.9892  0.6388
  882MOL0     H19059   2.814   3.315   3.158  0.0816  0.4892  0.6500
  882MOL0     H19060   2.826   3.135   3.338  1.3378 -1.8509 -0.5721
  882MOL0     H19061   2.908   3.034   3.221  0.1754  0.1151  2.7880
  882MOL0     H19062   2.735   2.991   3.109 -0.2959  0.7088 -1.9625
  882MOL0     H19063   2.667   3.148   3.099  1.8320  0.4348  0.4482
  882MOL0     H19064   2.636   2.935   3.311 -1.6460 -0.7761 -0.6120
  882MOL0     H19065   2.580   3.111   3.344  0.0361 -0.9953  1.0682
  882MOL0     H19066   2.266   2.956   3.108 -0.8528 -1.9954  3.1841
  882MOL0     H19067   3.160   3.394   3.408 -0.7650  0.7155  0.7726
  882MOL0     H19068   3.367   3.687   3.389  0.1991  1.3080 -1.7533
  882MOL0     H19069   3.218   3.714   3.485 -0.2923 -3.6846  2.3255
  882MOL0     H19070   3.289   3.568   3.498 -0.9495  1.5517  2.1989
  883MOL0     O19071   7.282   0.912   5.691  0.5991  0.3730 -0.0419
  883MOL0     C19072   7.181   0.922   5.617  0.2761 -1.1550  0.0954
  883MOL0     O19073   7.185   0.951   5.479 -0.1484  0.1143 -0.4518
  883MOL0     C19074   7.307   0.946   5.416  0.4087  0.6478  0.3645
  883MOL0     C19075   7.335   1.033   5.306 -0.5430  0.3538 -0.2629
  883MOL0     C19076   7.444   1.009   5.217 -0.4485 -0.0133 -0.3190
  883MOL0     C19077   7.544   0.919   5.247 -0.4143  0.1724 -0.5039
  883MOL0     O19078   7.661   0.925   5.176 -0.5198  0.5011  0.0092
  883MOL0     C19079   7.754   0.813   5.180 -0.2978 -0.3819 -0.4443
  883MOL0     C19080   7.877   0.828   5.098 -0.4523  0.1058 -0.5791
  883MOL0     C19081   7.974   0.709   5.121 -0.7725  0.4002 -0.0661
  883MOL0     C19082   8.029   0.673   4.985  0.3896  0.3026  0.2531
  883MOL0     C19083   8.132   0.556   4.983  0.6571  0.1456 -0.6781
  883MOL0     C19084   8.260   0.613   5.034 -1.3764  0.0347 -0.3287
  883MOL0     C19085   8.385   0.525   5.004 -0.0259  0.7045  0.6574
  883MOL0     C19086   8.514   0.579   5.066 -0.4782 -0.0432 -0.1175
  883MOL0     N19087   8.627   0.478   5.077  0.0395  0.4721  0.2565
  883MOL0     C19088   8.630   0.358   5.006  0.4255 -0.4794 -0.6712
  883MOL0     C19089   8.762   0.317   5.026 -0.2183  0.5358  0.0244
  883MOL0     C19090   8.814   0.187   4.982 -0.7141  1.1338  0.9649
  883MOL0     C19091   8.919   0.134   5.087 -0.2133  0.1842  0.4293
  883MOL0     C19092   8.856   0.064   5.211  0.0651  0.5342  0.3390
  883MOL0     C19093   8.754   0.150   5.288 -0.3880 -0.1622  0.2824
  883MOL0     O19094   8.693   0.083   5.407 -0.4101  0.1699 -0.0634
  883MOL0     C19095   8.583   0.144   5.461 -0.1839  0.2598  0.6969
  883MOL0     C19096   8.518   0.272   5.436  0.3850  0.1165 -0.2244
  883MOL0     C19097   8.393   0.300   5.478 -0.0464 -0.0441  0.0062
  883MOL0     C19098   8.323   0.214   5.561 -0.0576 -0.3382 -0.6821
  883MOL0     C19099   8.183   0.259   5.608 -0.3708 -0.6837 -0.5418
  883MOL0     O19100   8.136   0.383   5.578  0.1144  0.6237 -0.3213
  883MOL0     C19101   8.023   0.429   5.628  0.0643  0.3035  0.3944
  883MOL0     C19102   8.022   0.503   5.741 -0.1923 -0.2480  0.2038
  883MOL0     C19103   7.911   0.567   5.791  1.0068  0.7007  0.4132
  883MOL0     C19104   7.787   0.546   5.726  0.5988 -0.8592  0.5629
  883MOL0     O19105   7.666   0.600   5.758  0.5646 -0.4586  0.9251
  883MOL0     C19106   7.650   0.737   5.800  0.1197 -0.5445  0.9293
  883MOL0     C19107   7.517   0.758   5.877  0.0546 -0.1516 -0.2525
  883MOL0     C19108   7.491   0.639   5.974  0.2277 -0.0743  0.3390
  883MOL0     C19109   7.502   0.687   6.123 -0.3542 -0.2029 -0.4779
  883MOL0     C19110   7.433   0.594   6.215  0.1356 -0.4570  0.4338
  883MOL0     C19111   7.427   0.653   6.358 -0.8493  0.2531  0.0554
  883MOL0     C19112   7.352   0.569   6.452 -1.1714  0.5465  0.1636
  883MOL0     C19113   7.353   0.623   6.596  0.4151  0.7781  0.3731
  883MOL0    Cl19114   7.300   0.484   6.703 -0.3299  0.4476 -0.2451
  883MOL0     C19115   7.789   0.461   5.616  0.4110 -0.3034 -0.2223
  883MOL0     C19116   7.905   0.406   5.566  0.2880 -0.0975  0.7534
  883MOL0     O19117   8.115   0.171   5.658 -0.0619  0.1192 -0.1884
  883MOL0     C19118   8.383   0.097   5.606  0.0200  0.0976 -0.5430
  883MOL0     C19119   8.514   0.058   5.557 -0.2377 -0.2500  0.3674
  883MOL0     N19120   8.835   0.409   5.092 -0.0657 -0.2330  0.7822
  883MOL0     N19121   8.751   0.506   5.124  0.2204 -0.3623  0.2411
  883MOL0     C19122   7.522   0.832   5.356  0.4452 -0.2611 -1.3076
  883MOL0     C19123   7.408   0.840   5.444  0.5836 -0.0226  0.7142
  883MOL0     C19124   7.047   0.929   5.683 -0.3355  1.2887  0.7460
  883MOL0     C19125   6.956   1.023   5.625 -0.2161  0.0623  0.4644
  883MOL0     C19126   6.828   1.042   5.665 -0.6399  0.2905 -0.9427
  883MOL0     C19127   6.782   0.972   5.783  0.2166 -0.2760 -0.5257
  883MOL0     O19128   6.653   0.987   5.848 -0.3768  0.1377  0.0689
  883MOL0     C19129   6.564   1.084   5.789  0.9236  1.1411  0.3806
  883MOL0     C19130   6.496   1.013   5.660  0.3095 -0.4959 -0.6653
  883MOL0     C19131   6.425   0.884   5.698 -0.7340 -0.2671 -0.3359
  883MOL0     C19132   6.317   0.904   5.801 -0.5116 -0.2438  0.5030
  883MOL0     C19133   6.220   1.004   5.751 -0.5655 -0.2314 -0.0552
  883MOL0     C19134   6.153   1.088   5.692  0.6660 -0.7825  0.0671
  883MOL0     C19135   6.876   0.886   5.847  0.4780 -0.3289  0.3636
  883MOL0     C19136   7.008   0.860   5.796  0.0768  0.7311 -0.2001
  883MOL0     C19137   7.100   0.753   5.857  0.2144  0.9110 -0.5770
  883MOL0     H19138   7.270   1.116   5.282 -1.9119 -0.8768 -0.9693
  883MOL0     H19139   7.455   1.075   5.132  1.4203  2.2941  1.5778
  883MOL0     H19140   7.793   0.805   5.282 -3.8396  0.4373  1.1293
  883MOL0     H19141   7.699   0.728   5.139  0.4769 -1.3791  0.5310
  883MOL0     H19142   7.926   0.922   5.126  0.8584 -0.1144 -2.0598
  883MOL0     H19143   7.845   0.849   4.996 -2.5683  0.9736  0.1852
  883MOL0     H19144   7.919   0.622   5.158 -0.9746 -0.0441 -1.3504
  883MOL0     H19145   8.052   0.739   5.192 -0.9717 -1.4321  0.9651
  883MOL0     H19146   7.947   0.647   4.917  1.5554 -1.4718 -0.5291
  883MOL0     H19147   8.078   0.763   4.947 -0.4304 -0.1275 -1.9420
  883MOL0     H19148   8.094   0.472   5.042  1.3222  0.9957  1.0433
  883MOL0     H19149   8.144   0.526   4.879  1.4159 -3.0435  0.2090
  883MOL0     H19150   8.275   0.701   4.971  0.0773 -0.1245 -0.2469
  883MOL0     H19151   8.244   0.640   5.139 -2.4841  1.8893 -0.9240
  883MOL0     H19152   8.389   0.504   4.897 -3.7988  2.6551 -0.0157
  883MOL0     H19153   8.368   0.428   5.052 -1.1008  1.2413  1.4086
  883MOL0     H19154   8.552   0.662   5.006 -1.1335 -0.9253 -1.8083
  883MOL0     H19155   8.495   0.620   5.166  0.3521 -1.2582  0.5692
  883MOL0     H19156   8.556   0.324   4.935 -1.6209  3.2382 -0.5617
  883MOL0     H19157   8.739   0.110   4.962  0.6654 -0.2902  1.0721
  883MOL0     H19158   8.869   0.205   4.889  0.4934  0.9005  1.6110
  883MOL0     H19159   8.988   0.062   5.043 -0.0993  0.1233  0.7037
  883MOL0     H19160   8.985   0.212   5.126 -0.6794 -0.3912  2.4985
  883MOL0     H19161   8.934   0.028   5.279  0.5008  1.3431  0.2888
  883MOL0     H19162   8.804  -0.020   5.165  1.3563  1.1636 -2.5164
  883MOL0     H19163   8.676   0.181   5.218  1.2642  2.6007 -0.5043
  883MOL0     H19164   8.798   0.246   5.318 -0.0339  0.4978 -2.0857
  883MOL0     H19165   8.566   0.346   5.372  2.9206 -2.0865 -1.0707
  883MOL0     H19166   8.347   0.397   5.457 -0.6567  0.5952  3.6000
  883MOL0     H19167   8.118   0.532   5.783 -0.4095  0.9980 -0.1153
  883MOL0     H19168   7.917   0.628   5.881  2.3066 -2.6448  2.8277
  883MOL0     H19169   7.737   0.755   5.862  0.4962  0.7834  0.0488
  883MOL0     H19170   7.664   0.804   5.714  0.3777 -3.4191 -1.4520
  883MOL0     H19171   7.513   0.855   5.927  2.0311 -0.4842  0.6192
  883MOL0     H19172   7.437   0.766   5.803  0.4841  2.8262 -0.4912
  883MOL0     H19173   7.390   0.604   5.950 -0.1437  2.3832 -2.1521
  883MOL0     H19174   7.560   0.555   5.966 -0.1868 -0.3263 -0.8692
  883MOL0     H19175   7.447   0.781   6.133 -0.8755 -0.6080  0.7571
  883MOL0     H19176   7.605   0.716   6.145  0.3544 -0.3903 -3.2548
  883MOL0     H19177   7.476   0.495   6.204 -0.9605 -0.8229 -0.7963
  883MOL0     H19178   7.329   0.581   6.183  0.4535 -0.8407 -0.4605
  883MOL0     H19179   7.533   0.669   6.382  0.5339 -0.9881 -4.1884
  883MOL0     H19180   7.378   0.749   6.372 -1.5713 -0.5739  4.7570
  883MOL0     H19181   7.394   0.468   6.457 -0.6596  0.8050  1.4198
  883MOL0     H19182   7.246   0.558   6.428 -0.5638 -2.7718 -1.6704
  883MOL0     H19183   7.452   0.663   6.620  1.0218  0.9957 -2.1650
  883MOL0     H19184   7.283   0.707   6.598 -2.2726 -1.3041  0.3103
  883MOL0     H19185   7.694   0.445   5.565 -1.3950  3.3734  1.5984
  883MOL0     H19186   7.902   0.339   5.480  0.9753  1.9400 -0.9314
  883MOL0     H19187   8.331   0.035   5.678  2.0528 -1.2601 -0.1512
  883MOL0     H19188   8.550  -0.038   5.593  1.3952  1.4002  3.5052
  883MOL0     H19189   7.594   0.752   5.374  0.5555  0.4644  2.3207
  883MOL0     H19190   7.387   0.769   5.523  0.4634  0.6699  1.3162
  883MOL0     H19191   6.982   1.070   5.530  0.1892 -0.5070  0.2905
  883MOL0     H19192   6.765   1.100   5.598 -0.3233  0.8770 -0.7438
  883MOL0     H19193   6.616   1.173   5.753  1.0572  0.5147 -1.0140
  883MOL0     H19194   6.488   1.125   5.857 -0.8820 -1.6813  0.2277
  883MOL0     H19195   6.569   0.990   5.582  2.2392 -0.0506  0.9363
  883MOL0     H19196   6.434   1.093   5.617  2.8335  2.1910  0.4062
  883MOL0     H19197   6.506   0.822   5.737 -1.8133 -2.7867 -1.8430
  883MOL0     H19198   6.380   0.832   5.613 -0.4902 -2.1848  0.6698
  883MOL0     H19199   6.270   0.805   5.798  0.0584 -0.5504 -3.0445
  883MOL0     H19200   6.372   0.928   5.893  2.0372  1.2325 -1.2699
  883MOL0     H19201   6.097   1.158   5.633  1.1207 -1.3604 -1.0909
  883MOL0     H19202   6.840   0.852   5.943 -2.2372  1.8087  0.2387
  883MOL0     H19203   7.135   0.679   5.785 -0.3875 -0.4437  0.4907
  883MOL0     H19204   7.191   0.795   5.902  0.3778 -0.0652  0.0328
  883MOL0     H19205   7.047   0.710   5.943  0.1865 -0.5624 -1.3017
  884MOL0     O19206   2.088   8.002  10.509  0.1678 -0.0921 -0.7042
  884MOL0     C19207   2.035   8.013  10.396  0.0792 -0.4069 -1.2512
  884MOL0     O19208   2.107   7.998  10.287  0.0210  0.0519  0.2396
  884MOL0     C19209   2.228   7.951  10.304 -0.1268  0.2448 -0.4031
  884MOL0     C19210   2.328   8.050  10.304 -0.5332 -0.3186 -0.0813
  884MOL0     C19211   2.461   8.014  10.339  0.5058 -0.4339  0.4401
  884MOL0     C19212   2.496   7.886  10.366  1.3887  0.2491  0.5174
  884MOL0     O19213   2.621   7.844  10.397  0.1265  0.9694  0.1414
  884MOL0     C19214   2.682   7.734  10.323  0.7369 -0.0195  0.2743
  884MOL0     C19215   2.821   7.700  10.378 -0.0618  0.2413  0.9667
  884MOL0     C19216   2.876   7.579  10.303  0.8334  0.9080 -0.4900
  884MOL0     C19217   3.001   7.518  10.371 -0.5927  0.2281  0.1474
  884MOL0     C19218   3.121   7.599  10.314  0.6701 -0.8697 -0.1241
  884MOL0     C19219   3.247   7.571  10.387 -0.2807 -0.8164  0.3819
  884MOL0     C19220   3.363   7.674  10.365  0.2546 -0.1349 -0.9416
  884MOL0     C19221   3.482   7.651  10.459 -0.3313  0.2866 -0.7685
  884MOL0     N19222   3.601   7.709  10.385 -0.7183  0.1499  0.1287
  884MOL0     C19223   3.726   7.650  10.364  0.4069  0.1725 -0.5347
  884MOL0     C19224   3.813   7.752  10.335  0.9963  0.6099 -0.1217
  884MOL0     C19225   3.959   7.745  10.321  0.3918 -0.0400 -0.4560
  884MOL0     C19226   4.028   7.737  10.456  0.5240 -0.7564 -0.6576
  884MOL0     C19227   4.178   7.724  10.444  0.2565 -0.8193  0.5049
  884MOL0     C19228   4.227   7.728  10.594  0.6002  0.1988  0.6369
  884MOL0     O19229   4.368   7.690  10.603 -0.2062  0.5444 -1.0794
  884MOL0     C19230   4.461   7.762  10.534  0.3265  0.5638 -0.1740
  884MOL0     C19231   4.588   7.707  10.519 -0.0151 -0.0297  0.1555
  884MOL0     C19232   4.685   7.773  10.450  0.1551 -0.1905 -0.1737
  884MOL0     C19233   4.667   7.897  10.394 -0.3548 -1.1233 -1.4419
  884MOL0     C19234   4.773   7.958  10.313 -0.0546  1.2132 -0.0074
  884MOL0     O19235   4.745   8.070  10.245  0.8191  0.1834 -0.7356
  884MOL0     C19236   4.825   8.100  10.138  0.6357 -0.2273 -0.1508
  884MOL0     C19237   4.935   8.179  10.149 -0.1728 -0.0008  0.5282
  884MOL0     C19238   5.016   8.187  10.026 -0.0995 -0.5824 -0.0615
  884MOL0     C19239   5.003   8.111   9.916  0.1356  0.1483  0.5077
  884MOL0     O19240   5.088   8.113   9.808 -0.1465 -0.0563 -0.1241
  884MOL0     C19241   5.216   8.166   9.821 -0.6408 -0.7057 -0.5345
  884MOL0     C19242   5.286   8.124   9.692  0.6342  0.4865  0.5709
  884MOL0     C19243   5.208   8.177   9.573  0.5611  0.4541 -0.1371
  884MOL0     C19244   5.294   8.206   9.448  0.2114 -0.8002  1.4622
  884MOL0     C19245   5.227   8.276   9.331  1.5114  0.3582  0.4566
  884MOL0     C19246   5.325   8.327   9.223  0.3200 -0.0406 -0.1013
  884MOL0     C19247   5.243   8.410   9.117 -0.0744 -0.6500 -0.4279
  884MOL0     C19248   5.193   8.545   9.175  0.0503  1.3335  0.1520
  884MOL0    Cl19249   5.033   8.580   9.102  0.3434  0.4045 -0.1031
  884MOL0     C19250   4.892   8.032   9.908  0.2864  0.0921 -0.6504
  884MOL0     C19251   4.795   8.030  10.011  0.3158 -0.1222  0.4601
  884MOL0     O19252   4.876   7.891  10.298  0.3513  0.3177  0.2748
  884MOL0     C19253   4.539   7.959  10.412  0.0633 -1.2008 -0.3138
  884MOL0     C19254   4.436   7.889  10.473 -0.1206  0.4606 -0.3094
  884MOL0     N19255   3.739   7.862  10.309 -0.0372  0.2003  0.2258
  884MOL0     N19256   3.616   7.837  10.346  0.0096 -0.2140 -0.6477
  884MOL0     C19257   2.393   7.785  10.362  0.3790 -0.4747  0.0306
  884MOL0     C19258   2.259   7.820  10.325 -0.5132  0.0193 -0.1014
  884MOL0     C19259   1.900   8.072  10.399 -0.5912  0.1479  0.4280
  884MOL0     C19260   1.867   8.170  10.298 -0.1402  0.5080 -0.3300
  884MOL0     C19261   1.748   8.232  10.320 -0.8675  0.3425 -0.3884
  884MOL0     C19262   1.648   8.205  10.413  1.0846 -0.1943  0.6939
  884MOL0     O19263   1.532   8.283  10.415 -0.0363 -1.0330  0.3561
  884MOL0     C19264   1.425   8.236  10.496  0.2894  0.8592  0.3020
  884MOL0     C19265   1.299   8.308  10.462  0.9315  0.5508  1.0059
  884MOL0     C19266   1.179   8.253  10.540  0.8770  0.8927  0.3967
  884MOL0     C19267   1.125   8.127  10.472  0.4052  0.5004  0.0018
  884MOL0     C19268   0.981   8.140  10.427 -0.1128  0.1966  0.0314
  884MOL0     C19269   0.865   8.139  10.386 -0.4157  0.2527  0.2964
  884MOL0     C19270   1.671   8.098  10.487 -0.7286 -0.3289  0.0016
  884MOL0     C19271   1.800   8.029  10.483  0.9286 -0.7106  0.2625
  884MOL0     C19272   1.810   7.906  10.569  0.1518  0.3122  0.4095
  884MOL0     H19273   2.295   8.151  10.282 -6.6231 -1.4587  1.8838
  884MOL0     H19274   2.539   8.090  10.340 -1.7698  2.1167 -0.9327
  884MOL0     H19275   2.615   7.648  10.324  0.4999  0.0020 -3.1489
  884MOL0     H19276   2.690   7.766  10.219 -0.3368  4.1827  1.2870
  884MOL0     H19277   2.808   7.687  10.486  2.3687 -1.6033  1.1347
  884MOL0     H19278   2.885   7.783  10.347  1.3176 -1.8893 -2.6191
  884MOL0     H19279   2.888   7.608  10.198  2.6430 -1.4435 -1.0365
  884MOL0     H19280   2.799   7.501  10.299 -1.0972  2.5731  1.5450
  884MOL0     H19281   2.999   7.543  10.477  2.8062 -1.6351  0.7902
  884MOL0     H19282   3.004   7.409  10.369 -1.6539  0.1754  0.6666
  884MOL0     H19283   3.140   7.569  10.211 -0.3823 -1.4421 -0.1590
  884MOL0     H19284   3.101   7.707  10.315 -0.9829 -1.1333  1.6304
  884MOL0     H19285   3.216   7.569  10.492 -1.5287  3.2603  0.2944
  884MOL0     H19286   3.288   7.473  10.361 -0.9272 -0.8285 -0.6417
  884MOL0     H19287   3.328   7.777  10.379  0.1448 -0.2625 -0.2297
  884MOL0     H19288   3.400   7.661  10.263  2.4359 -1.5569 -0.0375
  884MOL0     H19289   3.468   7.706  10.553 -1.0140  0.4680 -0.9750
  884MOL0     H19290   3.499   7.544  10.476 -3.9679 -0.3390 -0.1428
  884MOL0     H19291   3.764   7.551  10.385  2.3507  1.1729  0.9984
  884MOL0     H19292   3.980   7.661  10.254 -4.2374 -0.8584 -1.1926
  884MOL0     H19293   4.004   7.829  10.266  2.4474 -1.2466 -0.7388
  884MOL0     H19294   4.000   7.824  10.515  1.7031  0.5602 -1.9650
  884MOL0     H19295   3.992   7.648  10.510 -0.6379  0.0138 -0.1296
  884MOL0     H19296   4.212   7.804  10.378 -1.4278 -1.2430 -0.9557
  884MOL0     H19297   4.205   7.632  10.391 -1.4600 -0.8499 -0.3812
  884MOL0     H19298   4.177   7.651  10.653 -0.1786 -1.2991 -1.8125
  884MOL0     H19299   4.207   7.820  10.650 -2.3194  0.4895 -0.6789
  884MOL0     H19300   4.612   7.614  10.568 -0.2581 -0.0978  0.1498
  884MOL0     H19301   4.789   7.739  10.451  0.8074  1.6719  1.3125
  884MOL0     H19302   4.955   8.243  10.235  0.0740  0.5794  0.0453
  884MOL0     H19303   5.092   8.264  10.029 -1.9117  1.3893 -1.5628
  884MOL0     H19304   5.215   8.275   9.828  1.4463 -0.7197  1.4391
  884MOL0     H19305   5.264   8.120   9.908  0.0329 -0.5397 -0.8087
  884MOL0     H19306   5.392   8.151   9.693  0.8584 -0.2635 -0.3809
  884MOL0     H19307   5.280   8.014   9.690 -1.9946  0.5470 -2.4607
  884MOL0     H19308   5.134   8.098   9.558  0.8759 -0.8402  3.8226
  884MOL0     H19309   5.145   8.261   9.603  1.2221  0.2730  1.9433
  884MOL0     H19310   5.337   8.113   9.410  1.7459 -0.1839  1.6253
  884MOL0     H19311   5.382   8.267   9.471  1.4942 -1.4467 -1.2699
  884MOL0     H19312   5.174   8.362   9.374 -0.0787 -0.2094 -0.2853
  884MOL0     H19313   5.159   8.205   9.283  0.8100  2.2620 -1.5171
  884MOL0     H19314   5.393   8.400   9.269 -1.6692  0.7961  1.6707
  884MOL0     H19315   5.383   8.251   9.170  0.1755 -0.9517  1.0132
  884MOL0     H19316   5.162   8.344   9.084 -1.1942  0.2661  0.4402
  884MOL0     H19317   5.300   8.441   9.028  0.5246  0.0888  0.1980
  884MOL0     H19318   5.169   8.538   9.282  0.1969 -0.4166  0.0924
  884MOL0     H19319   5.268   8.624   9.161  0.7578  0.7554  0.6036
  884MOL0     H19320   4.879   7.965   9.823  2.1865 -4.3019  2.1592
  884MOL0     H19321   4.707   7.966  10.011 -0.2974  0.7029  0.3141
  884MOL0     H19322   4.517   8.057  10.370  0.7988 -0.8619  0.0593
  884MOL0     H19323   4.341   7.938  10.456  0.9697  2.8437  0.0708
  884MOL0     H19324   2.412   7.684  10.397  0.5335  0.8597  4.3480
  884MOL0     H19325   2.182   7.745  10.316 -1.4237  0.7104  1.4747
  884MOL0     H19326   1.929   8.203  10.215 -0.3175  2.4021  0.2365
  884MOL0     H19327   1.734   8.304  10.240 -1.7905 -0.1249 -0.6695
  884MOL0     H19328   1.446   8.233  10.603  0.6918 -1.4862  0.2111
  884MOL0     H19329   1.406   8.132  10.468  1.2237  1.0134 -1.0296
  884MOL0     H19330   1.283   8.292  10.355 -0.6297  1.7063  1.0337
  884MOL0     H19331   1.309   8.411  10.497 -0.7154  0.6556  1.2295
  884MOL0     H19332   1.107   8.336  10.539  1.0995  1.0888  0.0687
  884MOL0     H19333   1.202   8.234  10.645 -0.4751  0.8339  0.7020
  884MOL0     H19334   1.184   8.098  10.385 -0.0623 -1.0166  0.1666
  884MOL0     H19335   1.133   8.046  10.545 -0.2802 -0.0991 -0.5719
  884MOL0     H19336   0.759   8.146  10.369 -0.3108  0.1091 -0.4686
  884MOL0     H19337   1.589   8.055  10.543 -2.2316 -0.4435 -2.1605
  884MOL0     H19338   1.903   7.898  10.625 -0.0915 -0.7734  0.6767
  884MOL0     H19339   1.721   7.889  10.631 -0.9062 -2.1493 -1.6142
  884MOL0     H19340   1.813   7.816  10.508 -0.0430 -0.3168  1.3136
  885MOL0     O19341   1.508   8.593   3.945 -0.6273 -0.1285 -0.5437
  885MOL0     C19342   1.586   8.502   3.972 -0.1835 -0.5733  0.0189
  885MOL0     O19343   1.687   8.511   4.063 -0.5087 -0.7076  0.4533
  885MOL0     C19344   1.701   8.622   4.139  0.5377  0.6702 -0.8326
  885MOL0     C19345   1.799   8.711   4.093  0.0072  0.3197  0.3545
  885MOL0     C19346   1.817   8.829   4.155  0.9300 -0.9872  0.5708
  885MOL0     C19347   1.748   8.856   4.273  0.4539 -0.8318 -0.2042
  885MOL0     O19348   1.762   8.975   4.338  0.5455 -0.5025  0.1118
  885MOL0     C19349   1.878   9.050   4.305  0.8442  0.3966 -0.3384
  885MOL0     C19350   1.876   9.189   4.371 -0.6034 -0.3944  0.7017
  885MOL0     C19351   1.764   9.283   4.324 -0.0270  0.8232  0.2158
  885MOL0     C19352   1.770   9.405   4.407  0.0285  0.7584 -0.1375
  885MOL0     C19353   1.654   9.479   4.377 -0.0882 -0.0811  0.0554
  885MOL0     C19354   1.666   9.613   4.447 -0.1532 -0.7527  0.2458
  885MOL0     C19355   1.519   9.670   4.451 -0.0197  0.0520 -0.0558
  885MOL0     C19356   1.519   9.820   4.485 -1.0642  0.3647 -0.8050
  885MOL0     N19357   1.395   9.884   4.515  0.2399 -0.6357 -0.2900
  885MOL0     C19358   1.355   9.915   4.635  0.1090 -0.2174  1.2617
  885MOL0     C19359   1.227   9.979   4.621  0.1579  1.1841 -0.9732
  885MOL0     C19360   1.151  10.027   4.745  0.2151 -0.3142  0.1099
  885MOL0     C19361   1.119  10.175   4.731 -0.7077  0.0377 -0.3847
  885MOL0     C19362   1.060  10.237   4.859  1.1556  0.8283 -0.3273
  885MOL0     C19363   1.073  10.389   4.863 -0.2340 -0.5336 -0.2531
  885MOL0     O19364   1.203  10.439   4.858 -1.1608 -0.6485 -0.1703
  885MOL0     C19365   1.290  10.408   4.964 -0.0843  0.5535  0.2429
  885MOL0     C19366   1.426  10.414   4.953 -0.5373  0.2422  0.8318
  885MOL0     C19367   1.514  10.404   5.064  0.2519 -0.4464 -0.4549
  885MOL0     C19368   1.464  10.369   5.187  0.4555  0.8940  0.7077
  885MOL0     C19369   1.546  10.370   5.307 -0.4488 -0.2586 -0.7380
  885MOL0     O19370   1.676  10.362   5.280  0.1123 -0.4079  0.5138
  885MOL0     C19371   1.768  10.346   5.377 -0.1554  0.3028  0.0073
  885MOL0     C19372   1.800  10.440   5.473 -0.2635 -0.4108 -0.5873
  885MOL0     C19373   1.898  10.407   5.569 -0.1854 -0.1568 -0.2164
  885MOL0     C19374   1.967  10.284   5.563  0.4654 -0.8222  1.1627
  885MOL0     O19375   2.071  10.250   5.650 -0.2047 -0.4304  0.5185
  885MOL0     C19376   2.099  10.336   5.763 -0.7490  0.8122  0.7040
  885MOL0     C19377   2.183  10.462   5.740  0.0553  0.1973  0.8454
  885MOL0     C19378   2.315  10.431   5.658  0.1013  0.0563 -0.2315
  885MOL0     C19379   2.419  10.546   5.672  0.3302  0.6222 -0.6773
  885MOL0     C19380   2.538  10.518   5.762 -0.0480  0.1573 -0.6333
  885MOL0     C19381   2.631  10.413   5.708 -0.4058  0.4422 -0.4566
  885MOL0     C19382   2.691  10.309   5.805  0.9573 -0.8221 -0.3955
  885MOL0     C19383   2.780  10.208   5.742 -0.5464  0.0760  0.3464
  885MOL0    Cl19384   2.913  10.294   5.648  0.0690  0.3663  0.3416
  885MOL0     C19385   1.931  10.180   5.464  0.7994 -0.3081 -0.1689
  885MOL0     C19386   1.829  10.222   5.375  0.6885 -0.3655  0.3634
  885MOL0     O19387   1.496  10.392   5.417  0.0696 -0.6982  0.6084
  885MOL0     C19388   1.330  10.339   5.204 -0.7224  0.2793  0.4641
  885MOL0     C19389   1.248  10.364   5.091  0.1925 -0.1658  0.3298
  885MOL0     N19390   1.204   9.980   4.484  0.5841 -0.2296 -0.5758
  885MOL0     N19391   1.304   9.919   4.426 -0.4047  0.5798  0.5418
  885MOL0     C19392   1.670   8.757   4.335  0.6086 -0.5208  0.1419
  885MOL0     C19393   1.632   8.645   4.260  0.7315  0.7557  1.0697
  885MOL0     C19394   1.595   8.384   3.884  0.4313  0.4092 -0.6300
  885MOL0     C19395   1.724   8.338   3.844  0.1111  0.6844 -1.0766
  885MOL0     C19396   1.737   8.235   3.750 -0.4770 -0.3237  0.1743
  885MOL0     C19397   1.632   8.180   3.687  1.2311 -0.1407 -0.4602
  885MOL0     O19398   1.651   8.073   3.598 -0.2001 -0.7179 -0.2624
  885MOL0     C19399   1.544   8.013   3.526  0.8506  0.5313  0.2095
  885MOL0     C19400   1.590   7.890   3.446  0.0526  0.1285 -0.0452
  885MOL0     C19401   1.742   7.885   3.412  0.6638 -0.3182 -0.3528
  885MOL0     C19402   1.797   7.809   3.293  0.2692  0.8065 -0.5679
  885MOL0     C19403   1.936   7.860   3.278  0.4613 -0.0699 -0.2037
  885MOL0     C19404   2.052   7.902   3.259  0.5307 -0.2884  0.3332
  885MOL0     C19405   1.501   8.224   3.720  0.0084 -0.9517  0.8339
  885MOL0     C19406   1.483   8.326   3.822 -1.4325  0.0778 -0.1083
  885MOL0     C19407   1.339   8.359   3.864  0.5701  0.2153  0.1667
  885MOL0     H19408   1.859   8.710   4.003  0.4622 -1.6018  0.6239
  885MOL0     H19409   1.892   8.891   4.106  0.3718 -0.1613  0.7334
  885MOL0     H19410   1.970   8.997   4.329  0.4992 -0.7063 -1.3797
  885MOL0     H19411   1.880   9.070   4.198  2.2042 -1.8283 -0.7720
  885MOL0     H19412   1.974   9.235   4.355 -0.8811  0.2712  0.8722
  885MOL0     H19413   1.869   9.172   4.479  0.2429  1.9300  1.1911
  885MOL0     H19414   1.671   9.227   4.338  0.3827  0.0401 -0.1605
  885MOL0     H19415   1.762   9.309   4.218 -0.6362 -0.7862 -0.2071
  885MOL0     H19416   1.785   9.382   4.513  0.2676 -0.9817 -0.5057
  885MOL0     H19417   1.856   9.468   4.383 -0.4207  1.4851  0.1180
  885MOL0     H19418   1.649   9.492   4.268  1.0094 -5.8756 -0.9997
  885MOL0     H19419   1.566   9.426   4.413  0.5288 -2.3334 -1.5403
  885MOL0     H19420   1.708   9.608   4.548 -0.0814 -1.3199  0.1935
  885MOL0     H19421   1.735   9.674   4.389 -0.5107  0.8737  1.4654
  885MOL0     H19422   1.451   9.615   4.517  0.8684 -1.7741 -0.5913
  885MOL0     H19423   1.478   9.660   4.351 -1.6962  1.5666  0.4269
  885MOL0     H19424   1.587   9.826   4.571 -2.1295 -0.9364  0.1839
  885MOL0     H19425   1.572   9.863   4.400  1.0665  1.1167  0.8074
  885MOL0     H19426   1.416   9.898   4.723  1.8419  1.5938  0.4819
  885MOL0     H19427   1.053   9.980   4.739 -0.6722  1.1432  2.2080
  885MOL0     H19428   1.209  10.002   4.835 -1.5030 -1.1263  1.0393
  885MOL0     H19429   1.205  10.238   4.708  0.7428 -1.6636  0.1820
  885MOL0     H19430   1.045  10.188   4.652 -0.8752  2.5500  0.1194
  885MOL0     H19431   1.105  10.198   4.951 -0.1593 -0.0404 -0.0118
  885MOL0     H19432   0.953  10.216   4.864  1.4892 -1.1550 -0.8198
  885MOL0     H19433   1.024  10.433   4.950  2.7831  1.4201  0.6277
  885MOL0     H19434   1.023  10.434   4.778 -0.4993 -0.7816 -0.2296
  885MOL0     H19435   1.489  10.438   4.867  0.6840 -2.6884  0.8037
  885MOL0     H19436   1.619  10.425   5.045  0.6312  0.4634  2.1963
  885MOL0     H19437   1.761  10.541   5.471 -4.6752 -1.9282 -0.3585
  885MOL0     H19438   1.933  10.486   5.634 -1.2851  0.5002 -0.3953
  885MOL0     H19439   2.003  10.367   5.803 -1.0226  3.9236 -1.8935
  885MOL0     H19440   2.158  10.269   5.826 -3.2193 -3.1996 -0.9054
  885MOL0     H19441   2.133  10.553   5.707  3.4728  1.7443 -0.4813
  885MOL0     H19442   2.218  10.496   5.838  0.3200 -2.2726  1.6831
  885MOL0     H19443   2.361  10.338   5.690  2.1442  0.9941 -0.3053
  885MOL0     H19444   2.287  10.425   5.552 -1.5558  2.3488 -0.0136
  885MOL0     H19445   2.367  10.636   5.708 -1.4238 -1.5966  2.8823
  885MOL0     H19446   2.449  10.565   5.568  1.8992 -1.1125 -0.5989
  885MOL0     H19447   2.491  10.478   5.853 -0.1152 -0.1168 -0.7909
  885MOL0     H19448   2.585  10.615   5.782  0.8765 -0.6890  1.7065
  885MOL0     H19449   2.577  10.352   5.634 -0.5666  0.3339 -0.2522
  885MOL0     H19450   2.709  10.469   5.657 -1.2897  1.4591 -0.7347
  885MOL0     H19451   2.606  10.269   5.861  0.9186 -1.4248 -0.8687
  885MOL0     H19452   2.748  10.364   5.879  0.1898 -0.5506  0.0033
  885MOL0     H19453   2.835  10.151   5.818  0.9492 -2.5124 -2.4531
  885MOL0     H19454   2.718  10.149   5.673 -2.0733  1.6282  0.3216
  885MOL0     H19455   1.983  10.085   5.460  2.1612  0.4246 -0.8682
  885MOL0     H19456   1.795  10.155   5.296  2.0519 -1.6055  0.7994
  885MOL0     H19457   1.278  10.334   5.299  1.5312 -1.4821  1.7156
  885MOL0     H19458   1.140  10.363   5.101 -0.3236 -1.9515 -3.5345
  885MOL0     H19459   1.637   8.784   4.434 -0.4525 -0.5700 -0.1867
  885MOL0     H19460   1.571   8.567   4.304 -0.5496  1.8564  1.2853
  885MOL0     H19461   1.816   8.382   3.883  0.6353  0.1273 -1.6646
  885MOL0     H19462   1.837   8.202   3.723 -0.8871 -0.7525 -0.8267
  885MOL0     H19463   1.496   8.090   3.464  3.0159 -0.6607 -3.2393
  885MOL0     H19464   1.476   7.980   3.605 -0.0138  3.0087  0.5650
  885MOL0     H19465   1.536   7.893   3.351 -1.6440 -2.4577  0.7244
  885MOL0     H19466   1.565   7.792   3.488 -2.2535 -0.2846 -2.1262
  885MOL0     H19467   1.798   7.840   3.495 -1.3086 -0.2623  1.0737
  885MOL0     H19468   1.777   7.986   3.388  1.2712 -0.5163 -0.3170
  885MOL0     H19469   1.792   7.701   3.309  0.7261  0.7428 -0.8347
  885MOL0     H19470   1.733   7.830   3.207  0.0824 -3.2099 -1.5896
  885MOL0     H19471   2.146   7.942   3.227 -0.3844  0.4928 -1.5885
  885MOL0     H19472   1.415   8.175   3.676 -0.9671  0.7978  0.6784
  885MOL0     H19473   1.285   8.413   3.786  0.8166  0.6371  0.2825
  885MOL0     H19474   1.288   8.264   3.881  0.3308 -0.0605 -1.8937
  885MOL0     H19475   1.326   8.428   3.949  1.0081  0.4790  0.0212
  886MOL0     O19476   5.092   8.640   3.485 -0.8382 -0.1766  0.0367
  886MOL0     C19477   5.090   8.542   3.409  0.2209  0.8202 -0.1854
  886MOL0     O19478   5.191   8.498   3.329 -0.4157  0.7006 -0.2835
  886MOL0     C19479   5.302   8.568   3.313  0.0132 -0.1807 -0.3712
  886MOL0     C19480   5.387   8.607   3.430 -0.4327 -0.6252  0.2931
  886MOL0     C19481   5.502   8.685   3.408 -0.0003  0.3311  0.8809
  886MOL0     C19482   5.538   8.721   3.283 -0.7512  0.0657  0.0263
  886MOL0     O19483   5.665   8.780   3.286  0.0944 -0.4892  0.8341
  886MOL0     C19484   5.717   8.783   3.155 -0.4933  1.0751  0.8085
  886MOL0     C19485   5.869   8.811   3.167 -0.2209 -0.0559  0.0235
  886MOL0     C19486   5.944   8.697   3.241  0.1944 -0.4067 -0.6191
  886MOL0     C19487   6.089   8.742   3.225  0.6128 -0.6655 -0.2173
  886MOL0     C19488   6.186   8.674   3.321  0.3673 -0.4878  0.1561
  886MOL0     C19489   6.322   8.647   3.256  0.4020  0.2589 -0.3558
  886MOL0     C19490   6.310   8.504   3.188  1.1463 -0.3373  0.2467
  886MOL0     C19491   6.443   8.448   3.123 -0.6358  0.0912 -0.6876
  886MOL0     N19492   6.536   8.404   3.226 -0.0023  0.8015 -0.8057
  886MOL0     C19493   6.616   8.485   3.299  0.3180  1.0842 -0.8250
  886MOL0     C19494   6.668   8.410   3.396 -0.2007  0.8221 -0.9791
  886MOL0     C19495   6.757   8.442   3.516 -0.1846 -0.0695 -1.2058
  886MOL0     C19496   6.883   8.512   3.488  0.5257  0.6846  0.5932
  886MOL0     C19497   6.966   8.513   3.611  0.1319 -0.2174 -0.7774
  886MOL0     C19498   7.065   8.626   3.615  0.1306  0.2512 -0.1344
  886MOL0     O19499   7.171   8.599   3.709  0.1869 -0.1399  1.3649
  886MOL0     C19500   7.299   8.648   3.676  0.7465 -0.2427  0.1083
  886MOL0     C19501   7.411   8.575   3.722  0.8107  0.1693  0.1744
  886MOL0     C19502   7.546   8.601   3.678  0.0702 -1.0682  0.9589
  886MOL0     C19503   7.571   8.709   3.582  0.3258  0.6488 -0.6336
  886MOL0     C19504   7.699   8.734   3.535  0.0061 -0.1513 -0.3657
  886MOL0     O19505   7.718   8.849   3.471 -0.6146  0.2094 -0.1324
  886MOL0     C19506   7.830   8.895   3.405 -0.6498  0.2014  0.6395
  886MOL0     C19507   7.810   9.020   3.337 -0.1959 -0.6094  0.2755
  886MOL0     C19508   7.917   9.090   3.279  0.0606  0.3233 -0.3136
  886MOL0     C19509   8.045   9.048   3.290 -0.6144  0.6867  0.1957
  886MOL0     O19510   8.145   9.127   3.234  0.0351 -0.4195  0.0474
  886MOL0     C19511   8.281   9.093   3.265 -1.0224 -0.6103  0.6616
  886MOL0     C19512   8.376   9.207   3.216  0.5392 -0.3252 -0.1955
  886MOL0     C19513   8.408   9.291   3.337  0.1256 -0.5166 -0.2319
  886MOL0     C19514   8.474   9.427   3.305  0.4007 -1.2338 -0.2554
  886MOL0     C19515   8.493   9.519   3.425  0.0104  0.3532 -0.0500
  886MOL0     C19516   8.581   9.633   3.392 -0.0635  0.0158  0.1897
  886MOL0     C19517   8.651   9.689   3.523  0.3617  0.1755 -0.1533
  886MOL0     C19518   8.744   9.814   3.504 -0.1941 -0.5190  0.4065
  886MOL0    Cl19519   8.823   9.849   3.667 -0.0467 -0.5768  0.0885
  886MOL0     C19520   8.071   8.927   3.355 -0.4538  0.2303  0.0045
  886MOL0     C19521   7.965   8.852   3.417 -0.0563 -0.0759 -0.6017
  886MOL0     O19522   7.785   8.655   3.560  0.1025  0.1638  0.7173
  886MOL0     C19523   7.456   8.782   3.538  0.3397 -0.4669  0.3793
  886MOL0     C19524   7.326   8.752   3.587  0.1888  0.0330  0.8541
  886MOL0     N19525   6.623   8.281   3.382 -0.6648 -0.8427  0.0427
  886MOL0     N19526   6.536   8.281   3.286  0.2111  0.5750  0.2388
  886MOL0     C19527   5.458   8.682   3.177 -0.0475 -0.3219 -0.0301
  886MOL0     C19528   5.337   8.621   3.189  0.1506  0.1634 -0.6740
  886MOL0     C19529   4.970   8.455   3.402  0.3848  0.8180  0.6617
  886MOL0     C19530   4.955   8.369   3.290  0.8677 -0.8650  0.6740
  886MOL0     C19531   4.842   8.300   3.259  0.3011  0.5827 -0.5542
  886MOL0     C19532   4.734   8.303   3.344 -0.7796  1.0144  0.4070
  886MOL0     O19533   4.620   8.244   3.299 -0.1458  0.7538 -0.4814
  886MOL0     C19534   4.509   8.237   3.392  0.9589  1.2508 -0.1237
  886MOL0     C19535   4.403   8.144   3.331 -1.0822 -0.3277 -0.4131
  886MOL0     C19536   4.322   8.058   3.438 -0.3716 -0.0124  0.0850
  886MOL0     C19537   4.207   8.133   3.495  0.4031  0.0842  0.4863
  886MOL0     C19538   4.116   8.042   3.570  0.3814 -0.4669  0.0497
  886MOL0     C19539   4.046   7.951   3.619 -0.3927 -0.3603 -0.3678
  886MOL0     C19540   4.742   8.378   3.464 -0.5331 -0.9762 -0.1684
  886MOL0     C19541   4.857   8.450   3.496  0.2042 -0.5735  0.3496
  886MOL0     C19542   4.852   8.529   3.625 -1.0625 -0.3929  0.9968
  886MOL0     H19543   5.359   8.585   3.532 -0.8807 -0.1440  0.2773
  886MOL0     H19544   5.561   8.710   3.496  1.2337 -1.2556  0.5514
  886MOL0     H19545   5.703   8.694   3.094 -2.0739  1.8791 -0.0605
  886MOL0     H19546   5.662   8.857   3.096 -1.7379 -2.4243 -2.8657
  886MOL0     H19547   5.873   8.906   3.221  0.0458  1.1079 -1.9610
  886MOL0     H19548   5.910   8.813   3.066 -0.1648 -0.2820  0.0390
  886MOL0     H19549   5.924   8.598   3.199 -1.8975 -0.0215 -0.6293
  886MOL0     H19550   5.920   8.694   3.348  0.4802  0.8488 -0.5073
  886MOL0     H19551   6.122   8.715   3.125 -0.4392  1.4749 -1.2020
  886MOL0     H19552   6.100   8.850   3.238  0.8078 -0.7497  0.3680
  886MOL0     H19553   6.206   8.744   3.403 -1.5211  1.0265 -0.6002
  886MOL0     H19554   6.150   8.589   3.380 -0.0422 -0.3249  0.1421
  886MOL0     H19555   6.344   8.727   3.184 -1.2006  0.7736 -0.3218
  886MOL0     H19556   6.398   8.645   3.334  0.0922 -1.1901 -0.0629
  886MOL0     H19557   6.248   8.516   3.099  0.5633 -0.6121  0.6113
  886MOL0     H19558   6.267   8.426   3.252 -0.2519 -3.3207 -3.8879
  886MOL0     H19559   6.427   8.357   3.065  0.2084 -1.6492  1.6137
  886MOL0     H19560   6.496   8.523   3.064  0.4550 -0.1028  0.0110
  886MOL0     H19561   6.612   8.593   3.292  0.4276  1.3015  1.5755
  886MOL0     H19562   6.699   8.514   3.574  1.5861  1.7452 -1.5711
  886MOL0     H19563   6.777   8.358   3.583  1.8284  1.1699 -0.1904
  886MOL0     H19564   6.936   8.470   3.402 -2.5616  1.1974 -1.7202
  886MOL0     H19565   6.852   8.613   3.460 -2.8603 -0.7726 -1.5295
  886MOL0     H19566   7.015   8.416   3.614  1.4709  0.3914 -1.6478
  886MOL0     H19567   6.901   8.516   3.699  1.6618 -0.0330  0.3982
  886MOL0     H19568   7.024   8.726   3.630 -1.4310 -0.5969  1.5135
  886MOL0     H19569   7.102   8.630   3.512  0.3398  1.7421 -0.0282
  886MOL0     H19570   7.396   8.478   3.768  2.3671 -1.5880 -2.7531
  886MOL0     H19571   7.633   8.545   3.712 -1.1312 -1.1730  4.2981
  886MOL0     H19572   7.708   9.057   3.341  0.1348  0.2954  4.7305
  886MOL0     H19573   7.900   9.185   3.229 -1.7315  0.5960  0.7156
  886MOL0     H19574   8.285   9.076   3.373  0.3686 -0.9243  0.5872
  886MOL0     H19575   8.318   9.007   3.209 -0.0525  1.8433 -2.8364
  886MOL0     H19576   8.464   9.158   3.174 -0.0678 -1.1445 -0.5453
  886MOL0     H19577   8.332   9.279   3.147  1.4733  1.3026  0.8621
  886MOL0     H19578   8.317   9.317   3.392  2.3751  0.3649  3.4429
  886MOL0     H19579   8.476   9.237   3.403  0.9903  0.1644 -0.5473
  886MOL0     H19580   8.410   9.486   3.239  4.7391  3.0003 -1.1826
  886MOL0     H19581   8.570   9.410   3.256  1.3227 -1.6859  1.6055
  886MOL0     H19582   8.527   9.466   3.514  1.7887  1.2794 -0.1251
  886MOL0     H19583   8.391   9.552   3.444 -1.2871 -1.2528 -3.3562
  886MOL0     H19584   8.659   9.598   3.325 -1.2403 -2.0600 -0.1682
  886MOL0     H19585   8.526   9.716   3.347 -2.2101  0.9622  4.1277
  886MOL0     H19586   8.706   9.608   3.572  0.6215  0.4840  0.0650
  886MOL0     H19587   8.575   9.720   3.595  2.6099  3.9790  0.7998
  886MOL0     H19588   8.820   9.793   3.429 -0.9177  0.0824 -0.5163
  886MOL0     H19589   8.681   9.899   3.477 -1.3297  0.0937  4.2558
  886MOL0     H19590   8.167   8.884   3.380 -0.9032 -0.8821 -0.0975
  886MOL0     H19591   7.999   8.763   3.468  1.9326  0.1348 -1.4481
  886MOL0     H19592   7.456   8.865   3.469 -2.3438 -0.5930  0.1348
  886MOL0     H19593   7.238   8.809   3.559 -1.3539 -2.1540  0.9614
  886MOL0     H19594   5.477   8.724   3.079 -3.2702  0.5664 -0.3750
  886MOL0     H19595   5.273   8.582   3.110 -0.0340  2.2592 -1.6215
  886MOL0     H19596   5.035   8.366   3.217  0.8626  1.1250  0.5323
  886MOL0     H19597   4.827   8.246   3.166  0.0660 -2.2704  1.0279
  886MOL0     H19598   4.465   8.333   3.419  0.8051  1.2433 -0.3491
  886MOL0     H19599   4.547   8.183   3.479  1.4276 -1.1192 -1.6896
  886MOL0     H19600   4.444   8.072   3.260 -3.5866 -1.1935 -1.0817
  886MOL0     H19601   4.328   8.205   3.281 -1.7819 -1.0881 -0.3186
  886MOL0     H19602   4.398   8.026   3.510  1.7198 -1.5248 -2.5740
  886MOL0     H19603   4.290   7.970   3.382  0.8917  0.9776 -2.3270
  886MOL0     H19604   4.233   8.225   3.548  0.1866 -0.4737  1.5954
  886MOL0     H19605   4.153   8.178   3.412  1.7264  3.6217  1.3690
  886MOL0     H19606   3.978   7.887   3.671  0.4782 -1.9441 -1.1323
  886MOL0     H19607   4.662   8.386   3.537  1.3997 -0.3725  2.0551
  886MOL0     H19608   4.869   8.632   3.593 -5.4803  0.1327 -0.3730
  886MOL0     H19609   4.754   8.526   3.673 -1.2077 -1.2727  0.6573
  886MOL0     H19610   4.933   8.500   3.692  0.1706  2.1953  0.7276
  887MOL0     O19611   2.559  11.277   1.732  0.7230 -0.0149  0.9423
  887MOL0     C19612   2.490  11.215   1.818 -0.3857  0.7218  0.3375
  887MOL0     O19613   2.546  11.181   1.938  1.5976  0.3591 -0.1384
  887MOL0     C19614   2.668  11.233   1.961 -0.5467  0.1241 -0.0198
  887MOL0     C19615   2.687  11.366   1.988  0.5573 -0.1059  0.1759
  887MOL0     C19616   2.813  11.417   2.035  0.4803 -0.0455 -0.5349
  887MOL0     C19617   2.926  11.336   2.029  1.0122  0.9270 -0.4050
  887MOL0     O19618   3.046  11.363   2.082 -0.1514 -0.3102  0.3159
  887MOL0     C19619   3.065  11.489   2.155 -0.6804  0.4141 -0.0854
  887MOL0     C19620   3.209  11.487   2.207  1.2532  0.1120  0.0891
  887MOL0     C19621   3.321  11.473   2.114  0.0713 -0.2509 -0.5493
  887MOL0     C19622   3.455  11.511   2.175 -0.0510 -0.4880 -0.0331
  887MOL0     C19623   3.575  11.441   2.107  0.0056 -0.0169  0.1448
  887MOL0     C19624   3.700  11.483   2.188  0.5329  0.3958  0.1713
  887MOL0     C19625   3.833  11.418   2.145 -0.6596  0.6499 -0.7728
  887MOL0     C19626   3.945  11.403   2.253  0.2168  0.6949 -0.2376
  887MOL0     N19627   4.037  11.519   2.259  0.4960  1.3732 -0.9313
  887MOL0     C19628   4.152  11.542   2.195 -0.8716  0.9173  0.0203
  887MOL0     C19629   4.210  11.642   2.264  1.1336  0.0807 -0.2753
  887MOL0     C19630   4.342  11.698   2.218 -0.0297 -0.1118 -0.0575
  887MOL0     C19631   4.444  11.701   2.330 -0.1554 -0.1924 -0.0305
  887MOL0     C19632   4.509  11.569   2.351 -0.3205 -0.7963  0.0724
  887MOL0     C19633   4.644  11.588   2.419 -0.6639 -0.8117  0.2116
  887MOL0     O19634   4.627  11.679   2.528  0.2609 -0.1279 -0.3304
  887MOL0     C19635   4.734  11.721   2.602  0.0517 -0.9380 -0.6093
  887MOL0     C19636   4.862  11.715   2.547 -0.5170 -0.1965 -0.0759
  887MOL0     C19637   4.975  11.759   2.622  0.2564  0.0272  0.0418
  887MOL0     C19638   4.966  11.809   2.753 -0.7814 -0.2645 -0.0576
  887MOL0     C19639   5.089  11.862   2.816 -0.4651  0.1330  0.1109
  887MOL0     O19640   5.214  11.874   2.749  0.3253 -0.6578 -0.5515
  887MOL0     C19641   5.329  11.925   2.809 -0.4359  0.2189  0.4207
  887MOL0     C19642   5.365  11.916   2.947  0.3437  0.1485  0.1046
  887MOL0     C19643   5.487  11.975   2.992 -0.1087  0.2532 -0.4494
  887MOL0     C19644   5.564  12.048   2.907 -0.5835 -0.2970 -0.8070
  887MOL0     O19645   5.682  12.104   2.961 -0.4114  0.4342 -0.3808
  887MOL0     C19646   5.769  12.166   2.874  0.2181  1.2332 -0.6274
  887MOL0     C19647   5.875  12.227   2.962 -0.5070  0.2756  0.4168
  887MOL0     C19648   5.996  12.276   2.869  0.5015 -0.0353 -0.7365
  887MOL0     C19649   6.115  12.309   2.961 -0.2095  0.3589  0.0467
  887MOL0     C19650   6.233  12.376   2.888  0.4070 -1.0049 -0.2405
  887MOL0     C19651   6.330  12.285   2.808  0.1282  0.1109  0.0317
  887MOL0     C19652   6.424  12.377   2.725 -0.4762  0.4003 -0.1791
  887MOL0     C19653   6.571  12.324   2.720 -0.0983  0.1613 -0.8749
  887MOL0    Cl19654   6.673  12.452   2.631  0.3418  0.2303 -0.0254
  887MOL0     C19655   5.523  12.056   2.773 -0.2126  0.3532  0.6992
  887MOL0     C19656   5.409  11.993   2.721  0.1537  0.0889  0.5828
  887MOL0     O19657   5.067  11.890   2.938 -0.1295 -0.1683  1.1161
  887MOL0     C19658   4.838  11.812   2.807 -1.1972 -0.4615 -0.2064
  887MOL0     C19659   4.728  11.767   2.736  0.2883 -0.9516 -0.1597
  887MOL0     N19660   4.122  11.689   2.366 -0.8054 -0.6484 -0.1168
  887MOL0     N19661   4.016  11.615   2.353  0.9523  0.1986  0.4491
  887MOL0     C19662   2.904  11.200   2.005 -0.0265 -0.3020 -0.1784
  887MOL0     C19663   2.776  11.152   1.978 -0.7559 -0.8766 -0.9136
  887MOL0     C19664   2.349  11.165   1.795 -0.1576 -0.4829 -0.3728
  887MOL0     C19665   2.277  11.097   1.899  0.2493  0.1292  0.0471
  887MOL0     C19666   2.149  11.043   1.868 -0.1576 -0.8108 -0.0242
  887MOL0     C19667   2.087  11.062   1.735 -0.2023 -0.3792 -0.6896
  887MOL0     O19668   1.962  11.012   1.724  0.4602  0.2610 -0.5461
  887MOL0     C19669   1.875  11.071   1.625 -1.1525  0.3480 -0.4814
  887MOL0     C19670   1.734  11.016   1.620  0.6098 -1.0386  0.0293
  887MOL0     C19671   1.642  11.044   1.744 -0.4305 -0.2724  0.4375
  887MOL0     C19672   1.493  11.031   1.718 -0.1998 -0.4314  0.0977
  887MOL0     C19673   1.442  11.134   1.629  0.4009  0.1790  0.6140
  887MOL0     C19674   1.377  11.210   1.556 -0.3479 -0.3994  0.0634
  887MOL0     C19675   2.154  11.138   1.643 -0.2106  0.8821 -0.7387
  887MOL0     C19676   2.283  11.181   1.665  0.5476  0.6402  1.0357
  887MOL0     C19677   2.348  11.252   1.548  0.0686  0.8099 -0.2490
  887MOL0     H19678   2.609  11.436   1.963  0.4707 -0.1079  0.4371
  887MOL0     H19679   2.826  11.519   2.069  0.9740 -0.9044  2.0531
  887MOL0     H19680   3.049  11.576   2.090  4.1353  1.2297 -0.5090
  887MOL0     H19681   2.996  11.488   2.240  0.8646 -1.1947  1.2357
  887MOL0     H19682   3.210  11.410   2.284  1.4910  2.7126  2.9050
  887MOL0     H19683   3.226  11.584   2.256  0.6798  1.0798 -1.5243
  887MOL0     H19684   3.317  11.531   2.021  1.6245  0.2977 -0.3064
  887MOL0     H19685   3.323  11.368   2.085  1.3601 -0.6752  0.9848
  887MOL0     H19686   3.472  11.618   2.160  1.5644 -0.9146 -1.7256
  887MOL0     H19687   3.460  11.490   2.282  2.8138 -2.6464 -0.4373
  887MOL0     H19688   3.563  11.333   2.109  2.1568 -0.2827  0.4361
  887MOL0     H19689   3.586  11.465   2.000  1.5107 -2.3484 -0.2860
  887MOL0     H19690   3.709  11.592   2.180 -0.4799  0.6892  2.2948
  887MOL0     H19691   3.676  11.466   2.293  1.6737  3.8068  1.1263
  887MOL0     H19692   3.870  11.474   2.058  1.4010 -0.5895 -0.7403
  887MOL0     H19693   3.806  11.319   2.106  2.0171  0.0422 -1.3028
  887MOL0     H19694   3.905  11.380   2.352  1.9316  1.0479  0.5738
  887MOL0     H19695   3.997  11.313   2.218 -0.0506  0.4753 -0.0819
  887MOL0     H19696   4.203  11.493   2.113  0.1902  2.3503 -0.2023
  887MOL0     H19697   4.387  11.633   2.142  1.3920  1.9537 -1.0838
  887MOL0     H19698   4.332  11.796   2.170  1.0169  0.2469  0.4351
  887MOL0     H19699   4.513  11.783   2.309  0.6335 -1.1576 -1.3167
  887MOL0     H19700   4.407  11.740   2.425 -2.9940  0.3324 -1.2486
  887MOL0     H19701   4.531  11.518   2.257 -0.1164  0.3410 -0.5175
  887MOL0     H19702   4.448  11.509   2.419  1.3820 -2.0087  0.6036
  887MOL0     H19703   4.709  11.638   2.347 -1.2592 -0.6590 -0.2332
  887MOL0     H19704   4.687  11.493   2.452  0.4072 -0.1847  0.6620
  887MOL0     H19705   4.880  11.684   2.444  3.2505 -0.6891  0.5834
  887MOL0     H19706   5.069  11.753   2.567 -0.0522 -1.0997 -0.4022
  887MOL0     H19707   5.296  11.870   3.017 -0.0636  0.1931 -0.2688
  887MOL0     H19708   5.523  11.960   3.094 -0.6092 -0.9736 -0.4368
  887MOL0     H19709   5.820  12.089   2.814  2.9033  1.5584  1.0617
  887MOL0     H19710   5.723  12.243   2.811 -0.5120  0.1780 -1.4285
  887MOL0     H19711   5.816  12.308   3.007 -2.9759 -0.0152 -1.9617
  887MOL0     H19712   5.902  12.150   3.035  1.6239  0.5748  0.0056
  887MOL0     H19713   6.025  12.201   2.795 -0.8360 -0.7921 -0.5237
  887MOL0     H19714   5.972  12.362   2.806  3.5113 -0.2991 -2.4523
  887MOL0     H19715   6.146  12.221   3.017 -1.4538  0.1770  0.4697
  887MOL0     H19716   6.087  12.387   3.033  1.0920  0.9824 -0.1062
  887MOL0     H19717   6.284  12.431   2.968 -2.7611 -0.7628  1.8198
  887MOL0     H19718   6.201  12.436   2.802  0.3594 -3.1493 -1.7915
  887MOL0     H19719   6.380  12.225   2.884 -3.2995 -2.4115  0.5105
  887MOL0     H19720   6.267  12.225   2.742 -0.2785  0.8754 -0.2878
  887MOL0     H19721   6.434  12.480   2.761 -0.4522  0.3749 -0.1116
  887MOL0     H19722   6.391  12.374   2.621  1.0083 -1.8643 -0.6595
  887MOL0     H19723   6.602  12.303   2.823 -0.3012 -1.5067 -1.1242
  887MOL0     H19724   6.564  12.225   2.673  2.7838 -2.1925  3.0500
  887MOL0     H19725   5.579  12.105   2.694 -1.9775 -0.1724 -0.9608
  887MOL0     H19726   5.381  12.012   2.618  0.5094  2.4334  0.8532
  887MOL0     H19727   4.811  11.848   2.906 -0.9239 -1.4771  0.2551
  887MOL0     H19728   4.628  11.768   2.778 -1.0759  1.9418 -3.0716
  887MOL0     H19729   2.979  11.122   2.010  0.6435  0.4099  1.2317
  887MOL0     H19730   2.771  11.044   1.967  1.6023 -1.1981  0.5444
  887MOL0     H19731   2.332  11.086   1.991  0.0901  1.8150  0.3783
  887MOL0     H19732   2.102  10.970   1.935 -1.5772  0.0969  0.0033
  887MOL0     H19733   1.925  11.046   1.531  0.0514 -0.7256  0.4050
  887MOL0     H19734   1.869  11.179   1.640 -1.3976  0.7753 -3.0743
  887MOL0     H19735   1.726  10.908   1.604 -0.8604 -0.9585  0.1070
  887MOL0     H19736   1.690  11.074   1.538  0.2404  2.8371  2.7094
  887MOL0     H19737   1.664  11.148   1.770  0.5781 -0.8094  1.8556
  887MOL0     H19738   1.670  10.983   1.830  3.6707  1.1766  0.3403
  887MOL0     H19739   1.469  10.930   1.684  1.3069 -0.3453 -1.2983
  887MOL0     H19740   1.443  11.045   1.815  0.8215  0.2626  0.5351
  887MOL0     H19741   1.345  11.264   1.469 -0.2010  3.5672  2.2813
  887MOL0     H19742   2.106  11.158   1.547 -1.0975 -0.2543 -0.5537
  887MOL0     H19743   2.300  11.218   1.456 -1.8497 -1.8027  1.5578
  887MOL0     H19744   2.330  11.359   1.557  0.6932  0.8428  0.6704
  887MOL0     H19745   2.452  11.217   1.540 -1.1854 -3.1736 -2.2062
  888MOL0     O19746   5.798   6.634   7.446 -0.6447 -0.5436  0.2614
  888MOL0     C19747   5.714   6.572   7.388  0.0219 -0.1851 -0.6544
  888MOL0     O19748   5.733   6.504   7.278 -0.6377  0.0076  0.3079
  888MOL0     C19749   5.851   6.519   7.207 -0.5021 -1.1745 -0.3986
  888MOL0     C19750   5.848   6.561   7.077 -0.3631  0.0590  0.6364
  888MOL0     C19751   5.968   6.560   7.004 -0.0271 -0.4618 -0.3941
  888MOL0     C19752   6.081   6.509   7.056  0.7429 -0.0026  0.6889
  888MOL0     O19753   6.188   6.491   6.973  0.3874 -0.1217  0.1783
  888MOL0     C19754   6.310   6.568   7.007 -0.1560 -0.0530 -0.5970
  888MOL0     C19755   6.386   6.615   6.892  0.3456 -0.2702 -0.7357
  888MOL0     C19756   6.522   6.660   6.941 -0.4087 -0.6606  0.1578
  888MOL0     C19757   6.627   6.543   6.941  0.4691 -0.4684  0.4475
  888MOL0     C19758   6.773   6.587   6.889  0.3828  0.4578 -0.4858
  888MOL0     C19759   6.841   6.701   6.974  0.5370 -0.4102  0.0362
  888MOL0     C19760   6.975   6.730   6.931  0.1147  0.1879  0.1292
  888MOL0     C19761   7.069   6.617   6.903 -0.9015 -0.2357  0.4492
  888MOL0     N19762   7.192   6.659   6.834  0.9468  0.4519 -0.1964
  888MOL0     C19763   7.309   6.711   6.893  0.1667 -0.1774 -0.0765
  888MOL0     C19764   7.390   6.737   6.783 -0.6048 -0.0792 -0.1776
  888MOL0     C19765   7.538   6.773   6.794  0.1737 -0.6190  0.5362
  888MOL0     C19766   7.606   6.766   6.655  0.6106 -0.9142  1.0266
  888MOL0     C19767   7.732   6.853   6.646  0.5849  0.7012  0.0131
  888MOL0     C19768   7.840   6.818   6.744 -0.8232  0.0126  0.4083
  888MOL0     O19769   7.912   6.701   6.703  0.5966 -0.2269  0.2838
  888MOL0     C19770   8.048   6.703   6.694  0.1171  1.1707 -0.3007
  888MOL0     C19771   8.122   6.660   6.587 -0.2970 -0.3117  1.0385
  888MOL0     C19772   8.259   6.667   6.576  0.2092 -1.3738  1.2571
  888MOL0     C19773   8.338   6.714   6.680  0.4381 -0.8185 -0.0884
  888MOL0     C19774   8.484   6.741   6.658 -0.4603 -0.1642  0.4745
  888MOL0     O19775   8.537   6.783   6.778 -0.2169  0.8109 -0.2801
  888MOL0     C19776   8.662   6.833   6.797  0.3032  0.5678 -0.5153
  888MOL0     C19777   8.705   6.846   6.928  0.0996  1.2237 -0.6637
  888MOL0     C19778   8.835   6.893   6.965 -0.1223  0.7091 -0.3481
  888MOL0     C19779   8.932   6.938   6.873 -0.0830 -0.3196  0.5283
  888MOL0     O19780   9.060   6.986   6.903 -0.2471 -0.4157  0.1955
  888MOL0     C19781   9.108   6.995   7.038  0.6923  0.7999 -0.0412
  888MOL0     C19782   9.258   7.021   7.062  0.4455  0.0174  0.3963
  888MOL0     C19783   9.349   6.898   7.037  0.5000  0.4820 -0.0664
  888MOL0     C19784   9.484   6.929   7.094 -0.5067 -0.3924  0.1644
  888MOL0     C19785   9.576   6.802   7.069 -0.1471 -0.2634  0.6126
  888MOL0     C19786   9.727   6.808   7.104 -0.4598 -0.3458 -0.7210
  888MOL0     C19787   9.739   6.849   7.249  0.1112 -0.5240 -0.4948
  888MOL0     C19788   9.882   6.826   7.319 -0.0373  0.0100 -0.1966
  888MOL0    Cl19789   9.940   6.658   7.295 -0.7406  0.0982 -0.0838
  888MOL0     C19790   8.888   6.923   6.738 -0.8021  0.8660  0.7713
  888MOL0     C19791   8.757   6.865   6.701 -0.1001 -0.8774  1.3520
  888MOL0     O19792   8.542   6.741   6.546 -0.5708  0.4298  0.4234
  888MOL0     C19793   8.261   6.768   6.798  0.1370  0.2912  1.1958
  888MOL0     C19794   8.122   6.758   6.804  1.0211 -0.1651  0.7865
  888MOL0     N19795   7.317   6.694   6.671 -0.5998 -0.0346  0.0059
  888MOL0     N19796   7.199   6.657   6.702 -0.0748  0.2594  0.2335
  888MOL0     C19797   6.091   6.469   7.187  0.2996 -0.4965  0.5707
  888MOL0     C19798   5.969   6.473   7.265 -0.1474 -1.2165 -0.5708
  888MOL0     C19799   5.571   6.592   7.443  0.6156  0.2290  0.0030
  888MOL0     C19800   5.463   6.567   7.352  0.1522 -0.6319  0.1562
  888MOL0     C19801   5.329   6.605   7.395  0.2509  0.6837 -0.1701
  888MOL0     C19802   5.306   6.664   7.516 -0.3927 -0.1001 -0.3795
  888MOL0     O19803   5.188   6.717   7.554  0.1780  0.1672  0.2393
  888MOL0     C19804   5.112   6.655   7.669 -0.4800  0.8432 -0.1662
  888MOL0     C19805   5.001   6.759   7.711 -0.4858 -0.0355  0.2263
  888MOL0     C19806   4.891   6.777   7.597  0.5184  0.0376 -0.2864
  888MOL0     C19807   4.738   6.772   7.645  0.3666  0.7236  0.8523
  888MOL0     C19808   4.687   6.873   7.744  0.5464 -0.1599 -0.5164
  888MOL0     C19809   4.649   6.945   7.831  0.1989 -1.1067  0.6038
  888MOL0     C19810   5.410   6.678   7.599 -0.9732  0.0253 -1.2637
  888MOL0     C19811   5.537   6.642   7.573 -0.8295 -0.8684  0.2748
  888MOL0     C19812   5.642   6.666   7.678  0.2980  0.0200  0.4709
  888MOL0     H19813   5.754   6.591   7.031  0.3478 -0.7554 -1.4590
  888MOL0     H19814   5.955   6.604   6.906 -1.1093  0.6438  0.2121
  888MOL0     H19815   6.288   6.647   7.079  2.6394 -0.6656  1.0584
  888MOL0     H19816   6.374   6.493   7.053  3.6760  2.7364 -0.8836
  888MOL0     H19817   6.329   6.699   6.851 -0.7889 -0.4312  0.4460
  888MOL0     H19818   6.387   6.535   6.818 -0.3558 -1.0216  0.0392
  888MOL0     H19819   6.520   6.702   7.042 -1.2069 -1.8139  0.6430
  888MOL0     H19820   6.566   6.731   6.870 -0.5090 -1.2779 -0.5365
  888MOL0     H19821   6.641   6.511   7.045 -1.3142  2.5072  1.7555
  888MOL0     H19822   6.601   6.459   6.877 -2.7925  0.2775  0.6228
  888MOL0     H19823   6.827   6.493   6.902 -1.9969 -1.1074 -1.3266
  888MOL0     H19824   6.763   6.620   6.785 -2.2782  3.0486  0.4475
  888MOL0     H19825   6.788   6.796   6.957 -0.4748 -0.8880  0.4219
  888MOL0     H19826   6.838   6.677   7.081 -0.3657  0.4942  0.2331
  888MOL0     H19827   7.022   6.799   7.002 -0.8599 -0.8118  1.8137
  888MOL0     H19828   6.962   6.794   6.843  0.2869  0.8601  0.5868
  888MOL0     H19829   7.092   6.561   6.994  0.0513  1.4871  1.3212
  888MOL0     H19830   7.025   6.538   6.841  0.7059 -2.8905  2.4633
  888MOL0     H19831   7.334   6.750   6.991  0.0225  1.7832 -0.7785
  888MOL0     H19832   7.538   6.871   6.842  0.5009 -0.6398  0.5843
  888MOL0     H19833   7.593   6.708   6.863  0.3258 -0.3393  0.6814
  888MOL0     H19834   7.629   6.662   6.627 -0.9378 -0.4193 -2.6801
  888MOL0     H19835   7.540   6.808   6.579  0.4684 -1.7543  0.6705
  888MOL0     H19836   7.702   6.955   6.671 -1.3994 -0.0322  0.7789
  888MOL0     H19837   7.761   6.856   6.540 -1.1362 -1.4884 -0.5894
  888MOL0     H19838   7.798   6.807   6.845  0.9747  0.0560  1.2005
  888MOL0     H19839   7.913   6.899   6.748  0.8127 -1.4364  2.3999
  888MOL0     H19840   8.074   6.607   6.505  1.5548 -0.8563  0.2700
  888MOL0     H19841   8.302   6.625   6.486  0.0009 -1.7489  1.3304
  888MOL0     H19842   8.632   6.811   7.001  0.6359 -0.3319 -0.8390
  888MOL0     H19843   8.855   6.896   7.072 -1.5039  0.2276 -0.0517
  888MOL0     H19844   9.059   7.066   7.104  0.8087 -2.1020  3.4598
  888MOL0     H19845   9.076   6.901   7.085 -5.3491  1.5644 -1.7406
  888MOL0     H19846   9.291   7.110   7.007  2.6063 -2.7494 -3.2501
  888MOL0     H19847   9.280   7.033   7.168  2.5953 -1.7906  0.2460
  888MOL0     H19848   9.301   6.817   7.093 -0.3118  1.6629  1.0044
  888MOL0     H19849   9.365   6.885   6.930  0.1253  1.6253 -0.2681
  888MOL0     H19850   9.478   6.946   7.202 -0.2740 -2.6175  0.5810
  888MOL0     H19851   9.522   7.022   7.051 -1.8540  0.7317  1.3082
  888MOL0     H19852   9.572   6.772   6.964  2.0955 -0.7427  0.6143
  888MOL0     H19853   9.532   6.729   7.138  3.0916 -1.5768  1.4957
  888MOL0     H19854   9.783   6.714   7.095  1.0349  0.4495 -0.2022
  888MOL0     H19855   9.776   6.883   7.040  1.1745 -0.2403  0.5810
  888MOL0     H19856   9.665   6.798   7.311  0.3688 -0.8707 -0.4680
  888MOL0     H19857   9.717   6.955   7.256 -0.7487 -0.7036 -0.3359
  888MOL0     H19858   9.950   6.901   7.277  0.5554  0.4006  1.3828
  888MOL0     H19859   9.875   6.853   7.425  0.2695 -0.1891 -0.1234
  888MOL0     H19860   8.945   6.961   6.654 -0.8299  0.4448  0.5543
  888MOL0     H19861   8.735   6.857   6.595  1.5709 -3.6272  1.1341
  888MOL0     H19862   8.321   6.807   6.880  1.8728 -1.8867  1.0552
  888MOL0     H19863   8.083   6.810   6.890 -3.1862  0.4450 -1.2519
  888MOL0     H19864   6.188   6.441   7.227  1.8366  0.6747 -2.1304
  888MOL0     H19865   5.966   6.446   7.371  1.6142  0.4880 -0.0321
  888MOL0     H19866   5.487   6.531   7.253  1.7182  0.6731  0.0227
  888MOL0     H19867   5.253   6.595   7.317  3.4803 -0.9989 -3.4213
  888MOL0     H19868   5.182   6.652   7.753 -0.0284  0.5377 -0.5493
  888MOL0     H19869   5.063   6.559   7.647  3.0754 -1.5155  1.3915
  888MOL0     H19870   5.046   6.848   7.756 -1.8808  2.1366 -2.3862
  888MOL0     H19871   4.935   6.714   7.786 -0.8545 -0.3406 -0.2804
  888MOL0     H19872   4.895   6.690   7.531 -3.2337 -2.0311  1.8700
  888MOL0     H19873   4.905   6.872   7.545 -2.2034  1.9699  2.1947
  888MOL0     H19874   4.664   6.785   7.565  0.1212 -3.5255  0.1602
  888MOL0     H19875   4.718   6.671   7.681 -1.0219 -0.0614 -1.8794
  888MOL0     H19876   4.613   7.014   7.905  0.2961 -1.0391  0.5885
  888MOL0     H19877   5.386   6.713   7.699 -1.2305 -0.8015 -1.0348
  888MOL0     H19878   5.697   6.572   7.686 -2.2602 -1.4561  2.5182
  888MOL0     H19879   5.702   6.757   7.666 -0.2087  0.6022  2.1278
  888MOL0     H19880   5.599   6.666   7.779 -0.3565 -1.5606  0.2150
  889MOL0     O19881   4.019   0.158   6.337  0.5980  0.5699  0.0582
  889MOL0     C19882   3.938   0.131   6.433 -0.1394 -0.1463  0.2555
  889MOL0     O19883   3.972   0.084   6.549  0.5538 -0.0584 -0.9389
  889MOL0     C19884   4.102   0.089   6.599  0.3116 -0.3254 -0.6504
  889MOL0     C19885   4.108   0.115   6.738 -0.4742  0.2578 -0.2385
  889MOL0     C19886   4.232   0.106   6.807  0.3836  1.0977 -0.7369
  889MOL0     C19887   4.338   0.063   6.734 -0.9406  0.4621 -1.0682
  889MOL0     O19888   4.450   0.034   6.806  0.3181  0.2545  0.0102
  889MOL0     C19889   4.512   0.139   6.878  0.4667  0.7639 -1.1069
  889MOL0     C19890   4.642   0.098   6.942 -0.5749  0.1681  0.2983
  889MOL0     C19891   4.651   0.181   7.070  0.7397 -0.1907  0.2978
  889MOL0     C19892   4.768   0.138   7.167  0.7470 -0.2390  0.5786
  889MOL0     C19893   4.899   0.154   7.089 -0.4000 -0.1422 -0.7617
  889MOL0     C19894   5.019   0.134   7.183 -0.1929  0.4139 -1.1808
  889MOL0     C19895   5.044   0.230   7.299 -0.9567 -0.7419 -0.7456
  889MOL0     C19896   5.071   0.380   7.269  0.3033  0.1600 -0.2527
  889MOL0     N19897   5.172   0.405   7.163 -0.7554 -0.3540 -0.5088
  889MOL0     C19898   5.277   0.325   7.135  0.0357  1.1386 -0.3597
  889MOL0     C19899   5.316   0.369   7.010  0.1807  1.1378  0.3544
  889MOL0     C19900   5.416   0.285   6.922 -1.5122 -0.1352 -0.9333
  889MOL0     C19901   5.551   0.362   6.900 -1.2071 -0.0451  0.5427
  889MOL0     C19902   5.551   0.449   6.774  0.1094 -0.2149  0.0603
  889MOL0     C19903   5.685   0.534   6.761  0.2872 -0.1783 -0.1409
  889MOL0     O19904   5.807   0.452   6.747 -0.7220  0.1251 -0.5102
  889MOL0     C19905   5.927   0.523   6.773 -0.3058 -0.2394 -0.3316
  889MOL0     C19906   5.932   0.666   6.775  0.0361  0.3822  0.8828
  889MOL0     C19907   6.052   0.740   6.795  0.0549  0.6696 -0.0117
  889MOL0     C19908   6.177   0.665   6.807 -0.6434  0.5683 -0.4609
  889MOL0     C19909   6.309   0.727   6.806  0.0893 -0.4931 -0.5074
  889MOL0     O19910   6.420   0.647   6.789  0.0404 -0.3117  0.5028
  889MOL0     C19911   6.547   0.671   6.828 -0.8097 -0.0149 -0.7586
  889MOL0     C19912   6.598   0.801   6.857 -0.7539 -0.5253 -1.1746
  889MOL0     C19913   6.730   0.809   6.871 -0.2637 -0.3242 -0.1727
  889MOL0     C19914   6.821   0.709   6.861 -1.0073  0.5279 -0.2374
  889MOL0     O19915   6.960   0.723   6.869 -0.6898 -0.0580 -0.2632
  889MOL0     C19916   7.007   0.852   6.821 -0.4016  0.4754 -0.2191
  889MOL0     C19917   7.157   0.855   6.808  0.3143  0.6128  0.4451
  889MOL0     C19918   7.202   1.000   6.783 -0.7021  0.9265  0.1691
  889MOL0     C19919   7.354   1.020   6.784  0.1301 -0.7374 -0.9494
  889MOL0     C19920   7.402   1.120   6.672 -0.1365 -0.1334 -0.5777
  889MOL0     C19921   7.394   1.062   6.535  0.8079  0.0250  1.3884
  889MOL0     C19922   7.429   1.167   6.427  0.0067 -0.7122 -0.4646
  889MOL0     C19923   7.565   1.245   6.464 -1.4679  0.2418  0.1684
  889MOL0    Cl19924   7.706   1.145   6.461  0.3436  0.2816  0.4648
  889MOL0     C19925   6.771   0.579   6.841 -0.3033  0.3986  0.0666
  889MOL0     C19926   6.634   0.561   6.822  0.5565 -0.5002 -0.5704
  889MOL0     O19927   6.311   0.848   6.829 -0.2640  1.2020 -0.2840
  889MOL0     C19928   6.165   0.525   6.816 -0.5850 -0.3885 -0.0638
  889MOL0     C19929   6.045   0.463   6.803  0.5337  1.0009 -0.2481
  889MOL0     N19930   5.244   0.485   6.975 -0.5214  0.3660  0.1483
  889MOL0     N19931   5.164   0.508   7.071  0.9079 -0.5220 -0.7897
  889MOL0     C19932   4.330   0.033   6.597 -0.4263  0.1447 -0.6749
  889MOL0     C19933   4.214   0.048   6.528  0.5041 -0.2891  0.1641
  889MOL0     C19934   3.787   0.147   6.415 -0.9940 -0.2639 -0.1214
  889MOL0     C19935   3.747   0.140   6.283  0.3828  0.0183 -0.4545
  889MOL0     C19936   3.619   0.172   6.240 -0.7395 -0.2097 -0.3429
  889MOL0     C19937   3.522   0.214   6.336 -0.4813 -0.7898  0.1973
  889MOL0     O19938   3.401   0.249   6.293 -0.0010  0.0082 -0.0926
  889MOL0     C19939   3.299   0.290   6.380 -0.2971 -0.2740 -1.0197
  889MOL0     C19940   3.182   0.345   6.292  0.6965  0.1609  0.0940
  889MOL0     C19941   3.119   0.240   6.199  0.0386 -0.4389  0.6207
  889MOL0     C19942   3.045   0.127   6.266 -1.2652 -0.7980 -1.1036
  889MOL0     C19943   2.917   0.160   6.321 -0.0399  0.2095 -0.4450
  889MOL0     C19944   2.813   0.170   6.375 -0.1602 -0.5457  0.1031
  889MOL0     C19945   3.566   0.227   6.474  0.3036 -0.1108  1.1172
  889MOL0     C19946   3.695   0.186   6.517 -0.5807 -0.8274  0.5927
  889MOL0     C19947   3.739   0.189   6.661  0.0983 -0.1766 -0.3923
  889MOL0     H19948   4.015   0.140   6.788 -0.3956 -0.9874  0.5794
  889MOL0     H19949   4.238   0.134   6.911  1.0177  3.1597 -1.2849
  889MOL0     H19950   4.525   0.234   6.825 -0.3000 -0.2704 -3.2511
  889MOL0     H19951   4.440   0.145   6.961  1.3206 -2.4178  0.0085
  889MOL0     H19952   4.723   0.130   6.876 -1.2015  0.7734 -0.2033
  889MOL0     H19953   4.631  -0.009   6.959 -2.8361  0.4307  0.8111
  889MOL0     H19954   4.558   0.175   7.127  1.6120  2.4829  2.2279
  889MOL0     H19955   4.663   0.285   7.039 -1.9590  0.3767  0.8457
  889MOL0     H19956   4.767   0.210   7.250  2.1534  1.8295 -1.0600
  889MOL0     H19957   4.763   0.037   7.208  0.6544 -0.2795  0.4664
  889MOL0     H19958   4.917   0.079   7.012 -2.6355 -1.5633  0.0058
  889MOL0     H19959   4.917   0.258   7.059 -0.5011 -1.3972 -6.1005
  889MOL0     H19960   5.005   0.040   7.237  1.9949  1.1096  0.7655
  889MOL0     H19961   5.113   0.118   7.130 -0.6031  0.7015 -2.0135
  889MOL0     H19962   5.139   0.195   7.340  0.2022  0.1308 -2.5661
  889MOL0     H19963   4.965   0.225   7.375 -0.8253 -0.3284 -0.5815
  889MOL0     H19964   4.982   0.433   7.232  0.0650  0.2510  0.4411
  889MOL0     H19965   5.106   0.428   7.360 -1.3279 -1.7779  1.5138
  889MOL0     H19966   5.314   0.238   7.187 -1.4931 -1.7638 -3.7520
  889MOL0     H19967   5.446   0.189   6.965 -1.7607 -0.2789 -1.0820
  889MOL0     H19968   5.378   0.257   6.824 -0.9538  0.1413 -1.2333
  889MOL0     H19969   5.563   0.434   6.981 -0.8232  3.9760 -2.7751
  889MOL0     H19970   5.634   0.292   6.885 -0.7930  0.4182  0.6665
  889MOL0     H19971   5.463   0.514   6.779 -0.7405 -1.1721 -1.5922
  889MOL0     H19972   5.538   0.394   6.680  0.0071  1.9099 -1.2363
  889MOL0     H19973   5.688   0.598   6.850  0.9196  1.2319 -1.1457
  889MOL0     H19974   5.672   0.594   6.671 -2.8551 -2.3839 -1.2986
  889MOL0     H19975   5.849   0.726   6.738 -0.0819 -1.4823 -2.2323
  889MOL0     H19976   6.060   0.848   6.792  0.1204  0.6551 -0.3903
  889MOL0     H19977   6.541   0.892   6.874 -0.2637 -0.4250  0.0776
  889MOL0     H19978   6.761   0.912   6.885 -1.3125 -0.1253  0.8391
  889MOL0     H19979   6.967   0.865   6.720  1.5094 -2.0761 -1.4175
  889MOL0     H19980   6.970   0.926   6.893  1.4614 -0.5398  1.8922
  889MOL0     H19981   7.208   0.824   6.899  2.0228  0.8357 -0.4012
  889MOL0     H19982   7.172   0.789   6.722  1.0308  2.2699 -0.7657
  889MOL0     H19983   7.158   1.044   6.693  0.4301  2.5299  0.3672
  889MOL0     H19984   7.175   1.064   6.868 -1.4555 -0.2602  0.8637
  889MOL0     H19985   7.416   0.932   6.767  1.8206  0.0390  0.8725
  889MOL0     H19986   7.380   1.056   6.884 -2.4740 -1.1988 -0.0259
  889MOL0     H19987   7.506   1.143   6.699 -0.7599  0.7365  1.2118
  889MOL0     H19988   7.337   1.208   6.674 -1.5543 -1.0692 -2.3817
  889MOL0     H19989   7.468   0.983   6.518 -0.8329 -1.4548  0.8361
  889MOL0     H19990   7.294   1.030   6.504  0.7000  3.6221 -3.0208
  889MOL0     H19991   7.335   1.222   6.418 -1.4220 -3.0757 -0.8703
  889MOL0     H19992   7.442   1.123   6.328  0.1893  0.4571 -0.9673
  889MOL0     H19993   7.590   1.314   6.383 -1.5866 -2.2621 -2.1546
  889MOL0     H19994   7.552   1.291   6.562 -1.8116 -1.4170  0.9344
  889MOL0     H19995   6.835   0.493   6.857  0.0318  0.6455  0.0423
  889MOL0     H19996   6.601   0.463   6.788  1.2476  0.1826 -3.5224
  889MOL0     H19997   6.260   0.476   6.834  1.5638  3.7481  1.4428
  889MOL0     H19998   6.039   0.355   6.810 -0.4450  0.7875 -3.0095
  889MOL0     H19999   4.428   0.001   6.564 -1.9259 -2.7270 -2.8801
  889MOL0     H20000   4.211   0.013   6.426 -1.4967 -3.9597  1.2775
  889MOL0     H20001   3.822   0.126   6.205 -1.7074 -3.0526 -2.0991
  889MOL0     H20002   3.602   0.175   6.133 -2.4795  0.5718 -0.0655
  889MOL0     H20003   3.321   0.371   6.450 -1.9498  0.2605 -1.0596
  889MOL0     H20004   3.262   0.205   6.437  3.8768 -1.2870  0.5169
  889MOL0     H20005   3.216   0.429   6.232 -1.8338  4.0467  3.5520
  889MOL0     H20006   3.096   0.381   6.350 -1.0941  0.8042 -2.8004
  889MOL0     H20007   3.202   0.204   6.138  0.0724  0.8391 -0.1256
  889MOL0     H20008   3.048   0.295   6.137 -1.0147  0.7105  2.7233
  889MOL0     H20009   3.036   0.038   6.203  1.3963 -1.3402 -0.8404
  889MOL0     H20010   3.105   0.092   6.350 -1.2812 -1.6726 -1.4501
  889MOL0     H20011   2.718   0.171   6.425  1.1312  2.0867  2.8583
  889MOL0     H20012   3.496   0.272   6.544 -1.7655 -2.7646  0.9506
  889MOL0     H20013   3.651   0.217   6.720  0.7716 -0.6770  0.8723
  889MOL0     H20014   3.779   0.092   6.692  2.0318  0.3718 -1.0135
  889MOL0     H20015   3.820   0.261   6.671 -0.9669  1.1368 -1.0060
  890MOL0     O20016   4.784  10.224   3.578  0.0424  0.0943  0.6033
  890MOL0     C20017   4.819  10.106   3.550  0.4207  0.5698 -0.3144
  890MOL0     O20018   4.938  10.055   3.588 -0.5826  0.3938 -0.1253
  890MOL0     C20019   5.046  10.129   3.630 -0.3145  0.2935 -0.4545
  890MOL0     C20020   5.027  10.208   3.743  0.5769  0.2684 -0.5053
  890MOL0     C20021   5.138  10.277   3.791 -0.3947  0.1430  0.4224
  890MOL0     C20022   5.270  10.237   3.756  0.6153  0.0262  0.0777
  890MOL0     O20023   5.367  10.294   3.827 -0.0006 -0.0088 -0.1387
  890MOL0     C20024   5.497  10.232   3.834  0.6750  0.9666  0.6525
  890MOL0     C20025   5.593  10.274   3.718  0.8708 -0.0719  0.0673
  890MOL0     C20026   5.740  10.239   3.738  1.0816  0.5791 -1.0983
  890MOL0     C20027   5.764  10.086   3.755  1.3028 -0.7679 -0.0815
  890MOL0     C20028   5.902  10.069   3.825 -0.0467 -0.1645 -0.4638
  890MOL0     C20029   5.951   9.924   3.823  0.9972 -0.4167 -0.3186
  890MOL0     C20030   6.101   9.906   3.886  0.9711  0.5687 -0.4342
  890MOL0     C20031   6.203   9.982   3.798  0.0480 -0.1564  0.1902
  890MOL0     N20032   6.343   9.956   3.843 -0.0300  0.5403 -0.5608
  890MOL0     C20033   6.388   9.888   3.954  1.3211 -0.3341 -0.5424
  890MOL0     C20034   6.525   9.898   3.957  0.2832 -0.8907  0.3737
  890MOL0     C20035   6.607   9.843   4.077 -0.4271 -0.0449 -0.0323
  890MOL0     C20036   6.658   9.704   4.033 -0.8373 -0.1023  0.3138
  890MOL0     C20037   6.766   9.695   3.935 -0.3636  0.1517 -0.0855
  890MOL0     C20038   6.884   9.790   3.962  0.1242  0.2655 -0.3685
  890MOL0     O20039   6.991   9.782   3.872  0.2064  0.3463  0.1358
  890MOL0     C20040   7.092   9.880   3.880  0.7662  0.4293 -0.3659
  890MOL0     C20041   7.087   9.988   3.961 -0.1841 -1.3290  0.7111
  890MOL0     C20042   7.193  10.084   3.965  0.2720 -0.4666 -0.3283
  890MOL0     C20043   7.316  10.056   3.897  0.5632 -0.2380 -0.5200
  890MOL0     C20044   7.433  10.158   3.897  0.0965  1.1298  0.0224
  890MOL0     O20045   7.534  10.122   3.811 -0.0129 -0.7619 -0.5410
  890MOL0     C20046   7.657  10.183   3.785 -0.4122  0.4355 -0.4420
  890MOL0     C20047   7.760  10.090   3.762  0.3719 -0.3569  0.7269
  890MOL0     C20048   7.896  10.137   3.762 -0.2405  0.2540  0.0777
  890MOL0     C20049   7.926  10.272   3.782  0.3948 -0.3361 -0.0757
  890MOL0     O20050   8.051  10.317   3.774 -0.5835  0.0494 -0.0228
  890MOL0     C20051   8.166  10.233   3.787  0.4628  0.1142  0.1387
  890MOL0     C20052   8.296  10.319   3.768 -0.1436  0.3610  0.6157
  890MOL0     C20053   8.422  10.222   3.776  0.4158  1.2324 -0.0199
  890MOL0     C20054   8.553  10.300   3.763  0.3618  0.5904  0.1892
  890MOL0     C20055   8.675  10.218   3.772  0.2800  0.3793 -0.1738
  890MOL0     C20056   8.804  10.306   3.780 -0.4820 -0.3576 -0.6146
  890MOL0     C20057   8.925  10.219   3.735  0.0741 -0.1603 -0.5514
  890MOL0     C20058   9.057  10.291   3.732  0.2406 -0.3064 -0.3664
  890MOL0    Cl20059   9.178  10.159   3.683  0.0837  0.1950  0.2863
  890MOL0     C20060   7.820  10.363   3.798 -0.3872 -0.3763  1.0788
  890MOL0     C20061   7.693  10.316   3.810 -0.4822 -0.2317  0.5152
  890MOL0     O20062   7.441  10.239   3.988  0.4537 -0.0013 -0.4773
  890MOL0     C20063   7.317   9.942   3.813  0.0099  0.4351  0.5182
  890MOL0     C20064   7.203   9.855   3.799 -0.0446  0.2749 -0.4911
  890MOL0     N20065   6.565   9.961   3.844  1.1193  0.3426 -0.1587
  890MOL0     N20066   6.458  10.006   3.779 -0.8531 -0.3765  0.4206
  890MOL0     C20067   5.284  10.149   3.650 -0.7846  0.3730 -0.7034
  890MOL0     C20068   5.177  10.096   3.582  0.2533  0.0476 -0.2225
  890MOL0     C20069   4.713  10.021   3.480 -0.1555  0.2096  0.4565
  890MOL0     C20070   4.581  10.074   3.454  0.3766 -0.0532 -0.6919
  890MOL0     C20071   4.494  10.008   3.378 -0.0559  0.5067 -0.4550
  890MOL0     C20072   4.521   9.891   3.315  0.1825 -0.2685  1.0394
  890MOL0     O20073   4.433   9.818   3.236 -0.0184  0.1292  0.1136
  890MOL0     C20074   4.319   9.883   3.178  0.6750  1.1684  0.4900
  890MOL0     C20075   4.241   9.787   3.080  0.4042  0.2235  0.3955
  890MOL0     C20076   4.198   9.661   3.165 -0.3571 -0.3659 -0.1677
  890MOL0     C20077   4.294   9.549   3.138 -0.3890 -0.5181  0.3592
  890MOL0     C20078   4.264   9.436   3.220  1.3898 -0.0183  0.6809
  890MOL0     C20079   4.252   9.344   3.302 -0.5891  0.0630  1.3070
  890MOL0     C20080   4.635   9.828   3.352  0.1422 -0.5405  0.3620
  890MOL0     C20081   4.741   9.886   3.423  0.9644 -0.6674  0.2793
  890MOL0     C20082   4.855   9.805   3.450  0.1223  0.6645 -0.8063
  890MOL0     H20083   4.929  10.216   3.790  1.3510  1.0824  1.0597
  890MOL0     H20084   5.133  10.342   3.878  1.9833 -1.8222  2.1823
  890MOL0     H20085   5.544  10.264   3.927  1.8150 -2.1527  1.2687
  890MOL0     H20086   5.484  10.124   3.842  0.8736  0.5848 -2.7086
  890MOL0     H20087   5.581  10.382   3.706 -2.3004 -0.3601 -0.1149
  890MOL0     H20088   5.549  10.233   3.627  0.7595 -0.2867  0.2176
  890MOL0     H20089   5.769  10.301   3.823  0.0356  3.8331 -2.8927
  890MOL0     H20090   5.803  10.278   3.657 -2.2976  2.1324 -3.2342
  890MOL0     H20091   5.691  10.036   3.820 -1.1358  2.1262 -0.3516
  890MOL0     H20092   5.763  10.044   3.654  1.0632 -0.8940 -0.0267
  890MOL0     H20093   5.974  10.146   3.799 -0.0476  0.7848  2.0828
  890MOL0     H20094   5.872  10.082   3.930 -1.3279  2.6838 -1.0691
  890MOL0     H20095   5.878   9.862   3.874  0.0879  0.2957 -0.7162
  890MOL0     H20096   5.956   9.904   3.715  0.4223  0.6738 -0.5643
  890MOL0     H20097   6.134   9.801   3.883  2.1172  0.8597  1.0077
  890MOL0     H20098   6.094   9.929   3.992  0.1460 -0.9040 -0.1371
  890MOL0     H20099   6.191   9.952   3.694 -1.8067  0.5145  0.1724
  890MOL0     H20100   6.185  10.090   3.793  1.3630  0.0127 -2.0666
  890MOL0     H20101   6.331   9.856   4.040  1.5562  0.3730 -0.1238
  890MOL0     H20102   6.688   9.910   4.110  1.6968 -2.3874 -0.1768
  890MOL0     H20103   6.541   9.840   4.165  2.7829  0.3025  2.6017
  890MOL0     H20104   6.687   9.644   4.120  1.5152 -2.8429 -2.1524
  890MOL0     H20105   6.565   9.668   3.987 -0.8527  1.3527 -0.8801
  890MOL0     H20106   6.733   9.716   3.833 -2.7692  1.1309  0.8285
  890MOL0     H20107   6.799   9.591   3.929 -0.0341  0.3278 -4.5368
  890MOL0     H20108   6.929   9.771   4.060  3.0047  1.5125 -1.3290
  890MOL0     H20109   6.838   9.889   3.959 -1.1961 -0.2439  1.3331
  890MOL0     H20110   7.005  10.003   4.030 -0.1977 -4.9956  1.6874
  890MOL0     H20111   7.183  10.177   4.020 -0.8658 -1.0009  0.3935
  890MOL0     H20112   7.738   9.984   3.763  0.8636 -0.4665  1.4126
  890MOL0     H20113   7.976  10.066   3.743  0.8390  1.6166 -0.6875
  890MOL0     H20114   8.172  10.187   3.886 -2.8035 -0.7592  0.0497
  890MOL0     H20115   8.154  10.151   3.716  1.1158 -0.6214  0.8490
  890MOL0     H20116   8.296  10.366   3.668 -0.4088 -0.6108  0.1508
  890MOL0     H20117   8.303  10.398   3.843 -1.6743  1.0863  0.0285
  890MOL0     H20118   8.422  10.170   3.872  0.0800  0.2524 -0.5361
  890MOL0     H20119   8.417  10.148   3.696 -0.2944  2.7793 -1.4714
  890MOL0     H20120   8.561  10.375   3.841 -3.5017 -0.1859  1.5647
  890MOL0     H20121   8.545  10.357   3.670  1.1124  0.9065  0.3147
  890MOL0     H20122   8.675  10.155   3.683  2.5960 -1.7668  1.2050
  890MOL0     H20123   8.674  10.153   3.860 -1.0053  1.9360  1.0405
  890MOL0     H20124   8.807  10.380   3.700  0.2518 -1.9779 -2.1391
  890MOL0     H20125   8.818  10.362   3.873 -0.1374 -0.1754 -0.7739
  890MOL0     H20126   8.898  10.162   3.646  0.9215 -2.1551  0.4231
  890MOL0     H20127   8.939  10.145   3.815 -0.0275  1.5735  1.1660
  890MOL0     H20128   9.061  10.375   3.663 -2.2134 -1.6549 -2.3202
  890MOL0     H20129   9.078  10.319   3.836  1.0741  1.0652 -0.8717
  890MOL0     H20130   7.837  10.466   3.827  0.1957 -0.8223  2.4091
  890MOL0     H20131   7.621  10.389   3.847  0.5695  1.6958 -1.0643
  890MOL0     H20132   7.406   9.927   3.753  0.5672  4.4447  0.0762
  890MOL0     H20133   7.212   9.761   3.747 -2.8220  0.5580 -1.6378
  890MOL0     H20134   5.384  10.133   3.609 -1.6617 -0.2510 -2.7194
  890MOL0     H20135   5.193  10.045   3.487 -0.7128 -0.9435  0.1275
  890MOL0     H20136   4.551  10.165   3.505 -0.3414 -1.1957  1.0043
  890MOL0     H20137   4.393  10.048   3.373  0.3592  2.3884  2.8135
  890MOL0     H20138   4.348   9.974   3.125  0.5684 -0.1930 -2.0753
  890MOL0     H20139   4.235   9.905   3.244  0.3411  0.5587  0.2784
  890MOL0     H20140   4.304   9.750   2.999 -0.7813 -4.5397  1.3560
  890MOL0     H20141   4.153   9.842   3.047  0.9733  0.8751 -0.0610
  890MOL0     H20142   4.097   9.625   3.141 -0.8124  1.6986 -1.7038
  890MOL0     H20143   4.183   9.684   3.271 -0.9826  0.7838 -0.4929
  890MOL0     H20144   4.276   9.505   3.039  0.0853  2.7842 -1.3193
  890MOL0     H20145   4.396   9.582   3.156 -0.4977  0.2245 -0.3357
  890MOL0     H20146   4.208   9.265   3.359 -0.6054 -0.8613  0.0483
  890MOL0     H20147   4.655   9.727   3.320  3.1398  0.0197  0.2443
  890MOL0     H20148   4.859   9.784   3.558 -1.5918  2.8697 -0.2480
  890MOL0     H20149   4.849   9.704   3.408  0.0275 -0.9192  2.6416
  890MOL0     H20150   4.943   9.854   3.407  0.6793 -0.6707 -1.2354
  891MOL0     O20151   5.231   0.836   1.318  1.0817  0.3760  0.6243
  891MOL0     C20152   5.156   0.846   1.223  0.4828  0.2940  0.1313
  891MOL0     O20153   5.184   0.910   1.102  0.4636  0.0407  0.3863
  891MOL0     C20154   5.308   0.962   1.071  0.0282  0.0843 -0.7974
  891MOL0     C20155   5.371   0.930   0.946  0.9957 -0.4660 -0.2200
  891MOL0     C20156   5.503   0.968   0.914  0.2162 -0.7826 -0.4690
  891MOL0     C20157   5.581   1.033   1.011  0.6729  0.1899 -0.7278
  891MOL0     O20158   5.708   1.051   0.984 -0.5354 -0.7432 -0.1443
  891MOL0     C20159   5.797   0.947   1.030  0.5234 -0.8283 -0.6336
  891MOL0     C20160   5.934   0.972   0.967  0.1500 -0.3561 -0.1703
  891MOL0     C20161   6.038   0.891   1.039 -0.2721  0.5999 -0.2939
  891MOL0     C20162   6.173   0.921   0.980  1.0547 -0.2155  0.2249
  891MOL0     C20163   6.275   0.807   1.018  0.3201 -0.5045  0.5722
  891MOL0     C20164   6.418   0.840   0.990 -0.8476 -0.1882 -0.1295
  891MOL0     C20165   6.469   0.965   1.054  1.2238  0.4357  0.1905
  891MOL0     C20166   6.622   0.947   1.051  0.4198  0.1381 -0.3694
  891MOL0     N20167   6.669   1.008   1.176 -0.1568 -0.3390  0.7283
  891MOL0     C20168   6.668   0.956   1.303 -0.4888  0.1556 -0.9954
  891MOL0     C20169   6.690   1.054   1.388  0.0936 -0.3622 -0.0611
  891MOL0     C20170   6.684   1.049   1.539  0.6654 -0.4616 -0.5553
  891MOL0     C20171   6.772   0.939   1.591 -0.3994  0.5573 -0.3293
  891MOL0     C20172   6.925   0.959   1.553  0.3241  0.1176 -1.2346
  891MOL0     C20173   6.984   1.087   1.598  0.0165 -0.7898  0.1624
  891MOL0     O20174   7.121   1.103   1.592  0.6532 -0.5115 -0.2028
  891MOL0     C20175   7.187   1.122   1.476  0.1667  0.1051 -0.4827
  891MOL0     C20176   7.132   1.136   1.347 -0.4013  0.1118 -0.1446
  891MOL0     C20177   7.219   1.163   1.238  1.0334 -0.1329 -0.0679
  891MOL0     C20178   7.360   1.178   1.270  0.2425  0.9565  0.1137
  891MOL0     C20179   7.455   1.223   1.163  0.1617  0.1056 -0.5512
  891MOL0     O20180   7.588   1.244   1.191  0.5552  0.5813  0.2935
  891MOL0     C20181   7.681   1.249   1.092 -0.0541 -0.7555  0.0943
  891MOL0     C20182   7.776   1.352   1.110 -0.2752 -0.1367  0.8515
  891MOL0     C20183   7.871   1.366   1.012  0.6632 -0.7673 -0.4661
  891MOL0     C20184   7.866   1.282   0.898  0.0569  0.4681  0.3044
  891MOL0     O20185   7.954   1.292   0.795 -0.0212  0.4049  0.7136
  891MOL0     C20186   8.089   1.342   0.812 -0.1397  0.0039 -0.3035
  891MOL0     C20187   8.097   1.493   0.786 -0.7051  0.1207 -0.3927
  891MOL0     C20188   8.019   1.531   0.657 -0.5373 -0.2976 -0.7401
  891MOL0     C20189   8.042   1.677   0.613  0.0729 -0.4306  1.1974
  891MOL0     C20190   7.997   1.721   0.472  0.6775  0.6640  0.2209
  891MOL0     C20191   7.967   1.874   0.462  0.5631 -0.5743 -0.4086
  891MOL0     C20192   7.999   1.922   0.313 -1.0797 -0.8647  0.3659
  891MOL0     C20193   7.929   2.050   0.278  0.1044 -0.4872  0.3899
  891MOL0    Cl20194   7.895   2.057   0.105  0.3732  0.2483  0.1244
  891MOL0     C20195   7.767   1.189   0.880 -0.1670 -1.0086  0.4811
  891MOL0     C20196   7.679   1.167   0.984 -0.4667 -0.4950 -0.1069
  891MOL0     O20197   7.402   1.254   1.063 -0.6121  0.3590  0.2121
  891MOL0     C20198   7.410   1.170   1.405  0.1248 -0.3741 -0.7095
  891MOL0     C20199   7.327   1.141   1.503  0.1953 -0.4743  1.0632
  891MOL0     N20200   6.717   1.159   1.313 -0.0141 -0.6422 -0.1316
  891MOL0     N20201   6.721   1.132   1.184  0.1778  0.3853 -0.1667
  891MOL0     C20202   5.519   1.069   1.133 -0.2991  0.1747 -0.3570
  891MOL0     C20203   5.383   1.026   1.162 -0.1338  0.3306  0.1449
  891MOL0     C20204   5.035   0.764   1.233 -0.5342 -0.5933 -0.2775
  891MOL0     C20205   5.017   0.655   1.145 -0.3217  0.3243 -0.3347
  891MOL0     C20206   4.888   0.594   1.139  0.1805  0.2196 -0.2747
  891MOL0     C20207   4.786   0.651   1.209 -0.0830  0.2340 -0.2400
  891MOL0     O20208   4.654   0.602   1.213  0.3430  0.2850  0.6217
  891MOL0     C20209   4.610   0.534   1.094 -0.0798  0.5031  0.9410
  891MOL0     C20210   4.457   0.512   1.107 -0.2190  0.2453  0.3491
  891MOL0     C20211   4.400   0.407   1.003  0.0980  0.2721  0.1485
  891MOL0     C20212   4.250   0.393   1.016 -0.1424 -0.3614 -0.0319
  891MOL0     C20213   4.177   0.523   1.018  0.1126  0.0356  0.3515
  891MOL0     C20214   4.134   0.636   1.005 -0.0098  0.5965  0.4889
  891MOL0     C20215   4.805   0.755   1.296 -0.8317  0.8596  0.5498
  891MOL0     C20216   4.924   0.814   1.314  0.0367  0.0046  0.3890
  891MOL0     C20217   4.934   0.927   1.408 -0.2793 -0.5433  0.5546
  891MOL0     H20218   5.315   0.862   0.883  0.9930 -1.1748  0.5295
  891MOL0     H20219   5.560   0.948   0.823  2.6714  0.8082  0.5973
  891MOL0     H20220   5.806   0.961   1.138 -1.6688 -0.7124 -0.4178
  891MOL0     H20221   5.753   0.850   1.005  0.6179 -0.8212 -0.8316
  891MOL0     H20222   5.963   1.077   0.969 -0.0315 -0.3060 -0.1478
  891MOL0     H20223   5.945   0.957   0.859  3.3390  0.2018 -0.0233
  891MOL0     H20224   6.015   0.784   1.032  3.7378 -0.5195  1.0635
  891MOL0     H20225   6.040   0.925   1.143  0.0326  0.9639 -0.4148
  891MOL0     H20226   6.157   0.929   0.872  0.0325 -2.0492  0.2006
  891MOL0     H20227   6.202   1.019   1.017  0.4479 -0.3304  1.0377
  891MOL0     H20228   6.254   0.787   1.124 -0.1027 -1.4869  0.3139
  891MOL0     H20229   6.254   0.711   0.972 -1.9902 -0.7044  1.8988
  891MOL0     H20230   6.477   0.748   0.996  0.2801  0.5861  1.8700
  891MOL0     H20231   6.428   0.867   0.885 -1.5858  2.7440  0.4715
  891MOL0     H20232   6.440   0.978   1.158  3.3810 -1.5142  1.1296
  891MOL0     H20233   6.429   1.048   0.995  0.1631 -2.0679 -2.9659
  891MOL0     H20234   6.667   0.847   1.050  4.0883  1.4170  3.8745
  891MOL0     H20235   6.659   1.013   0.972 -1.5079  0.4526 -1.0560
  891MOL0     H20236   6.644   0.858   1.342 -0.3021 -0.3173 -2.0412
  891MOL0     H20237   6.705   1.144   1.588  0.3622 -1.5578  1.8636
  891MOL0     H20238   6.584   1.033   1.580  0.5396  2.7245  0.6885
  891MOL0     H20239   6.768   0.944   1.700 -1.4834  0.8003 -0.3651
  891MOL0     H20240   6.740   0.837   1.569  5.0667 -1.6066  0.0680
  891MOL0     H20241   6.940   0.950   1.445 -1.2274  0.1214 -1.4667
  891MOL0     H20242   6.979   0.877   1.601  2.9338  2.1529 -0.4757
  891MOL0     H20243   6.945   1.104   1.699 -3.6945 -0.0346 -1.2384
  891MOL0     H20244   6.946   1.166   1.533 -1.3221  0.3851  2.2402
  891MOL0     H20245   7.026   1.149   1.328 -0.2287  1.7849 -0.1699
  891MOL0     H20246   7.185   1.181   1.136  0.0005  2.4101  0.6445
  891MOL0     H20247   7.773   1.425   1.190 -0.2013  0.3856  0.3856
  891MOL0     H20248   7.943   1.448   1.016 -0.4100  0.2496 -1.1716
  891MOL0     H20249   8.133   1.320   0.910 -0.5884  0.3560 -0.0190
  891MOL0     H20250   8.147   1.286   0.739  0.9033  0.4731  0.1447
  891MOL0     H20251   8.051   1.548   0.868  0.1790  0.5346 -0.1702
  891MOL0     H20252   8.203   1.519   0.783 -0.1508 -1.8450  0.9253
  891MOL0     H20253   8.023   1.470   0.567  1.7405 -1.5622  0.1216
  891MOL0     H20254   7.914   1.537   0.687  0.3505  1.0789  2.6216
  891MOL0     H20255   8.148   1.705   0.620 -0.3417  2.5979 -1.9088
  891MOL0     H20256   7.996   1.745   0.685  1.7626  2.4173 -0.1993
  891MOL0     H20257   7.913   1.662   0.436  0.3546  1.9914 -1.3539
  891MOL0     H20258   8.077   1.708   0.398 -1.3264 -0.0573 -1.9201
  891MOL0     H20259   7.862   1.898   0.483  1.4741  1.6552  2.0669
  891MOL0     H20260   8.028   1.931   0.532 -2.8105  1.4036  1.2153
  891MOL0     H20261   7.989   1.843   0.239  3.5453 -1.9666  0.6082
  891MOL0     H20262   8.106   1.943   0.304 -0.9136 -1.1577  1.4517
  891MOL0     H20263   7.835   2.058   0.332  0.0473 -1.2787  0.4192
  891MOL0     H20264   7.987   2.139   0.304 -1.1665  0.7990 -0.9423
  891MOL0     H20265   7.776   1.118   0.798  3.9852  0.5230 -0.6586
  891MOL0     H20266   7.616   1.079   0.987  3.0461 -3.2517  0.2749
  891MOL0     H20267   7.516   1.184   1.423 -0.0424  0.1220 -0.1043
  891MOL0     H20268   7.358   1.141   1.607  1.6494 -1.0683  0.6511
  891MOL0     H20269   5.579   1.114   1.211 -0.4222 -2.1523  1.1690
  891MOL0     H20270   5.352   1.052   1.263 -0.6042 -2.3135  0.7325
  891MOL0     H20271   5.100   0.611   1.091  2.1403 -0.8502  3.9352
  891MOL0     H20272   4.883   0.504   1.078  0.3445  0.3207 -0.4373
  891MOL0     H20273   4.660   0.436   1.094  2.7532  1.8255 -0.2150
  891MOL0     H20274   4.642   0.580   1.000 -1.8739 -0.4737 -0.1999
  891MOL0     H20275   4.411   0.610   1.096 -1.6003 -0.4476 -0.3142
  891MOL0     H20276   4.437   0.483   1.210  3.0086 -1.0646  0.7381
  891MOL0     H20277   4.444   0.308   1.017  0.0422  0.1791 -0.2990
  891MOL0     H20278   4.418   0.450   0.903  1.8332  0.2974  0.4420
  891MOL0     H20279   4.214   0.340   0.928  2.2366 -0.5333 -0.9839
  891MOL0     H20280   4.227   0.326   1.100  0.4466  0.2592  0.6375
  891MOL0     H20281   4.083   0.729   0.995 -0.8590  0.2055  1.0427
  891MOL0     H20282   4.723   0.779   1.364 -1.5151 -0.2257  0.1255
  891MOL0     H20283   4.845   0.992   1.408  0.1003 -0.0113 -0.1886
  891MOL0     H20284   4.943   0.880   1.506  0.7380  0.0471  0.7509
  891MOL0     H20285   5.015   0.993   1.376 -1.4660  0.8110  0.2512
  892MOL0     O20286   8.548  11.069   9.725 -0.0312  0.0492 -0.1279
  892MOL0     C20287   8.500  11.095   9.619 -0.9666  0.4494  0.4792
  892MOL0     O20288   8.577  11.130   9.513  0.1655  0.0580  0.7230
  892MOL0     C20289   8.714  11.120   9.519  0.2812  0.0073  0.3800
  892MOL0     C20290   8.800  11.229   9.544 -0.1702 -0.2280 -1.0669
  892MOL0     C20291   8.940  11.213   9.556 -0.2555  0.2688 -0.2282
  892MOL0     C20292   8.996  11.089   9.536  0.5737  0.1770  0.3246
  892MOL0     O20293   9.135  11.070   9.546  0.7970 -0.6522  0.4553
  892MOL0     C20294   9.180  10.949   9.609  0.3753 -0.3622  1.2226
  892MOL0     C20295   9.335  10.949   9.596 -0.3175 -1.0204  0.4983
  892MOL0     C20296   9.389  10.950   9.456  0.3113 -0.3878 -0.1750
  892MOL0     C20297   9.542  10.943   9.449 -0.2644  0.0228 -0.4275
  892MOL0     C20298   9.593  10.802   9.462  0.3752 -0.5563 -0.0818
  892MOL0     C20299   9.717  10.781   9.372 -0.1517 -0.2252 -0.5335
  892MOL0     C20300   9.729  10.623   9.360  1.3308 -0.9228 -0.5405
  892MOL0     C20301   9.842  10.573   9.272 -0.4348 -1.0294 -0.0683
  892MOL0     N20302   9.978  10.627   9.291 -0.3029  0.0766 -0.1016
  892MOL0     C20303  10.014  10.748   9.257 -0.4102  0.6865 -0.4284
  892MOL0     C20304  10.156  10.754   9.272  0.2639  0.2798  0.7422
  892MOL0     C20305  10.243  10.879   9.233  0.6612  1.5271  0.0925
  892MOL0     C20306  10.383  10.832   9.189 -0.8303  0.4546  0.3326
  892MOL0     C20307  10.465  10.954   9.144 -0.5874 -0.1180  0.0301
  892MOL0     C20308  10.598  10.914   9.088  0.1271 -0.4702  0.4511
  892MOL0     O20309  10.691  10.865   9.188  0.1191  0.5020  0.5466
  892MOL0     C20310  10.830  10.869   9.150  1.0608  0.2607  0.3947
  892MOL0     C20311  10.928  10.840   9.250  0.3807 -0.1623  0.0017
  892MOL0     C20312  11.064  10.829   9.220 -0.1381  0.4946 -0.0157
  892MOL0     C20313  11.110  10.859   9.096 -0.4094 -0.5208 -0.2975
  892MOL0     C20314  11.249  10.865   9.055  0.3832 -0.1641 -0.1510
  892MOL0     O20315  11.298  10.888   8.921  0.9379  0.3674  0.7955
  892MOL0     C20316  11.429  10.883   8.916  0.3663  0.8692  0.2468
  892MOL0     C20317  11.467  10.754   8.889 -0.0016 -0.3119  0.3615
  892MOL0     C20318  11.606  10.725   8.873 -0.7703 -0.3499 -0.6279
  892MOL0     C20319  11.703  10.841   8.880  0.2855 -0.0997 -0.9724
  892MOL0     O20320  11.837  10.835   8.846 -0.6782  0.3785 -0.6304
  892MOL0     C20321  11.893  10.704   8.813 -0.3412 -0.3989 -0.1680
  892MOL0     C20322  12.031  10.709   8.764  0.4917 -0.5687 -0.1477
  892MOL0     C20323  12.119  10.801   8.850 -0.2454 -0.7863  0.2497
  892MOL0     C20324  12.266  10.802   8.790  0.7274 -0.1989 -0.3266
  892MOL0     C20325  12.367  10.868   8.879 -0.2609  0.3969 -0.1599
  892MOL0     C20326  12.484  10.773   8.903  1.1917  0.2812 -0.4612
  892MOL0     C20327  12.588  10.832   9.000 -0.3201  0.3986  0.4597
  892MOL0     C20328  12.740  10.816   8.958  0.0242  0.1519  1.3020
  892MOL0    Cl20329  12.762  10.649   8.903  0.4839  0.1132  0.0300
  892MOL0     C20330  11.655  10.967   8.911  0.1701 -0.5200 -1.1114
  892MOL0     C20331  11.515  10.994   8.930 -0.5595 -0.1585  0.7941
  892MOL0     O20332  11.316  10.847   9.158  0.0668 -0.1578 -0.0829
  892MOL0     C20333  11.018  10.901   8.999 -0.7341 -0.3824 -0.0756
  892MOL0     C20334  10.882  10.903   9.024  0.2574  0.8764  0.0083
  892MOL0     N20335  10.197  10.625   9.296 -0.0577 -0.1442  0.2073
  892MOL0     N20336  10.090  10.561   9.317  0.0216 -0.5015 -0.1986
  892MOL0     C20337   8.914  10.990   9.487 -0.1980 -0.3723  0.0428
  892MOL0     C20338   8.776  11.001   9.485  0.0904  0.1704 -0.0006
  892MOL0     C20339   8.346  11.106   9.598  0.1660 -0.0020 -0.5797
  892MOL0     C20340   8.303  11.173   9.479 -1.0345 -0.1123  0.6948
  892MOL0     C20341   8.172  11.163   9.434  1.1533 -0.3255 -0.1545
  892MOL0     C20342   8.078  11.106   9.515  1.0652 -0.2607 -0.0797
  892MOL0     O20343   7.945  11.104   9.457  0.2303 -0.0351 -0.2752
  892MOL0     C20344   7.837  11.048   9.536  0.0329  0.2393 -0.2086
  892MOL0     C20345   7.700  11.070   9.479 -0.1054 -0.5733 -0.3355
  892MOL0     C20346   7.587  11.003   9.549 -0.7681  1.1549 -0.6618
  892MOL0     C20347   7.594  10.842   9.554  0.1452 -0.1524  0.2052
  892MOL0     C20348   7.466  10.790   9.601  0.0259  0.3187  0.3114
  892MOL0     C20349   7.363  10.759   9.647  0.0904 -0.4573 -1.3958
  892MOL0     C20350   8.110  11.054   9.639 -0.9387 -0.0887  0.2995
  892MOL0     C20351   8.247  11.044   9.682 -0.4558  0.1133  0.1356
  892MOL0     C20352   8.274  10.970   9.807 -0.2187  0.7806 -0.3428
  892MOL0     H20353   8.760  11.329   9.556  0.3919 -0.0557 -0.6425
  892MOL0     H20354   9.004  11.293   9.594 -0.3619 -1.2898  3.6959
  892MOL0     H20355   9.129  10.949   9.705 -0.6558  0.7669  0.6962
  892MOL0     H20356   9.145  10.855   9.563 -0.4295  0.6458 -0.3334
  892MOL0     H20357   9.376  10.866   9.655  1.7307 -0.0282  0.5447
  892MOL0     H20358   9.384  11.031   9.650 -0.3414 -0.3630 -0.4580
  892MOL0     H20359   9.366  11.052   9.424 -0.2014  0.7468  3.3435
  892MOL0     H20360   9.331  10.888   9.388  0.5306  1.0708 -1.7656
  892MOL0     H20361   9.574  10.991   9.356 -1.5897 -1.8827 -1.9363
  892MOL0     H20362   9.592  10.991   9.534 -1.4072 -1.4742  1.1649
  892MOL0     H20363   9.607  10.768   9.565  1.0577 -3.9978 -1.1613
  892MOL0     H20364   9.516  10.739   9.417 -0.5654  1.3190 -1.2351
  892MOL0     H20365   9.718  10.833   9.276  2.3687  0.8124 -0.0347
  892MOL0     H20366   9.795  10.829   9.433 -1.6106  1.3467  0.1746
  892MOL0     H20367   9.632  10.584   9.329 -0.6642  1.8791  1.6260
  892MOL0     H20368   9.754  10.572   9.454  0.5349  0.5780  0.5330
  892MOL0     H20369   9.837  10.464   9.281 -2.5438 -0.8811  1.3924
  892MOL0     H20370   9.818  10.605   9.170  4.7537  1.5542 -0.7763
  892MOL0     H20371   9.947  10.830   9.234 -0.9806  1.0901  2.3795
  892MOL0     H20372  10.176  10.914   9.154 -1.8023  0.0827  1.4014
  892MOL0     H20373  10.250  10.941   9.323 -0.4561 -1.5758  2.4777
  892MOL0     H20374  10.417  10.765   9.269  0.4148  2.4263  1.5559
  892MOL0     H20375  10.384  10.768   9.100  3.0214  1.0814 -0.2577
  892MOL0     H20376  10.486  11.021   9.228 -0.5458  2.0071 -1.6045
  892MOL0     H20377  10.414  11.018   9.071 -0.4403 -0.2578 -0.1956
  892MOL0     H20378  10.637  10.995   9.026  0.3445 -0.1055  1.0550
  892MOL0     H20379  10.577  10.832   9.019 -1.4301 -0.0533  0.3919
  892MOL0     H20380  10.896  10.819   9.352  0.7169 -1.0526 -0.0708
  892MOL0     H20381  11.134  10.805   9.299 -0.0397  2.6468  0.5902
  892MOL0     H20382  11.396  10.680   8.853  1.2415 -1.3888  0.0443
  892MOL0     H20383  11.629  10.619   8.866  0.4470 -0.0616 -1.2159
  892MOL0     H20384  11.876  10.641   8.900 -0.0690  0.6387  0.6603
  892MOL0     H20385  11.834  10.662   8.731 -0.7931  2.0928 -1.2341
  892MOL0     H20386  12.071  10.607   8.767  3.5040  0.5199 -0.7891
  892MOL0     H20387  12.023  10.740   8.660  2.4637  0.8991  0.1011
  892MOL0     H20388  12.078  10.903   8.845 -0.3326 -0.8689 -2.0540
  892MOL0     H20389  12.112  10.788   8.958  0.3255 -0.7461  0.2943
  892MOL0     H20390  12.255  10.861   8.699 -0.0262 -1.7821 -1.3155
  892MOL0     H20391  12.296  10.697   8.777 -2.4716 -1.3774  0.8700
  892MOL0     H20392  12.315  10.897   8.972 -3.4980  2.2967 -2.3646
  892MOL0     H20393  12.401  10.967   8.848  0.6568 -0.1562 -0.9726
  892MOL0     H20394  12.448  10.678   8.944 -0.6988  1.6100  1.1575
  892MOL0     H20395  12.523  10.753   8.803 -1.0927  0.6883 -1.4939
  892MOL0     H20396  12.577  10.782   9.096 -0.3353  2.3627  1.5383
  892MOL0     H20397  12.558  10.936   9.019 -1.6902  0.3674 -1.2250
  892MOL0     H20398  12.758  10.884   8.875  1.6951  0.5131  1.9156
  892MOL0     H20399  12.801  10.846   9.044 -0.6553  1.0949  1.4687
  892MOL0     H20400  11.714  11.058   8.903 -1.0886  0.2369 -2.2000
  892MOL0     H20401  11.479  11.096   8.937 -1.8631 -0.6134  0.9508
  892MOL0     H20402  11.042  10.949   8.905 -3.7905 -1.9549 -1.8340
  892MOL0     H20403  10.818  10.942   8.945  2.3543  1.7006 -1.3843
  892MOL0     H20404   8.949  10.892   9.458  2.9893  1.0522 -1.2965
  892MOL0     H20405   8.720  10.912   9.460  1.7380 -0.3471 -2.1263
  892MOL0     H20406   8.377  11.235   9.430 -1.1502  1.1035  1.9659
  892MOL0     H20407   8.139  11.211   9.343 -1.3744 -0.4514  0.6191
  892MOL0     H20408   7.834  11.081   9.640  1.2012 -1.9495  0.5741
  892MOL0     H20409   7.858  10.941   9.546 -1.2319  0.2029  2.8875
  892MOL0     H20410   7.698  11.053   9.371 -2.2545 -1.5088 -0.1944
  892MOL0     H20411   7.675  11.176   9.489  1.5776 -0.2679  1.1068
  892MOL0     H20412   7.492  11.035   9.504 -0.6937  1.8469 -0.3337
  892MOL0     H20413   7.581  11.050   9.648 -0.9773  0.6804 -0.4431
  892MOL0     H20414   7.600  10.812   9.449  3.2802  2.2723 -0.4364
  892MOL0     H20415   7.682  10.812   9.612  0.9111  0.3685 -0.6621
  892MOL0     H20416   7.270  10.747   9.700  1.1591  1.1727  1.0367
  892MOL0     H20417   8.031  11.021   9.706 -1.3833  0.0814 -0.1328
  892MOL0     H20418   8.311  11.042   9.881 -0.4138 -0.2485  0.7876
  892MOL0     H20419   8.177  10.926   9.832 -1.9405  2.6490 -3.0782
  892MOL0     H20420   8.336  10.882   9.789 -1.2827 -1.2443  4.3301
  893MOL0     O20421   0.924   4.003   2.626 -0.8886  0.3136  0.8392
  893MOL0     C20422   0.878   4.073   2.540  1.0692 -0.2660  0.5597
  893MOL0     O20423   0.761   4.046   2.467  0.8952  0.4412  0.2896
  893MOL0     C20424   0.669   3.954   2.503  0.5357 -0.0689 -0.1831
  893MOL0     C20425   0.706   3.823   2.543 -0.2138 -0.0208 -0.0560
  893MOL0     C20426   0.612   3.728   2.573  0.3347 -0.8945  0.0790
  893MOL0     C20427   0.473   3.753   2.553  0.0318  0.0686 -0.2164
  893MOL0     O20428   0.369   3.671   2.578  0.4320  0.1163  0.1878
  893MOL0     C20429   0.395   3.533   2.582 -1.0306 -0.8897  0.0841
  893MOL0     C20430   0.265   3.455   2.585 -1.1253  0.0636 -0.0422
  893MOL0     C20431   0.192   3.485   2.712 -0.0793  0.1793  0.1570
  893MOL0     C20432   0.066   3.397   2.744  0.4870 -0.1905  0.2054
  893MOL0     C20433   0.012   3.408   2.895 -0.0364 -0.7136 -0.1979
  893MOL0     C20434  -0.024   3.550   2.930  0.0471  0.2319 -0.1517
  893MOL0     C20435  -0.060   3.537   3.084 -0.8946 -0.5963  0.9230
  893MOL0     C20436  -0.115   3.666   3.127  0.4567 -0.5464 -0.0740
  893MOL0     N20437  -0.152   3.654   3.264 -0.0079  0.2845  0.2180
  893MOL0     C20438  -0.092   3.704   3.371  0.3892  0.0809  0.1732
  893MOL0     C20439  -0.180   3.683   3.475  0.8076 -1.0422 -0.2111
  893MOL0     C20440  -0.153   3.736   3.618  0.4578  0.0718  0.7343
  893MOL0     C20441   0.001   3.729   3.664  0.8846 -0.5467 -0.2209
  893MOL0     C20442   0.021   3.816   3.782 -0.2851  0.1401  0.5342
  893MOL0     C20443   0.167   3.829   3.836  0.9089  0.1699 -0.3959
  893MOL0     O20444   0.174   3.911   3.951 -0.7294 -0.1579 -0.0550
  893MOL0     C20445   0.307   3.948   3.962 -0.0761 -0.1260 -0.0393
  893MOL0     C20446   0.334   4.083   4.003 -0.0185 -0.3710 -0.1793
  893MOL0     C20447   0.467   4.132   3.997  0.0747 -0.2220 -0.8901
  893MOL0     C20448   0.575   4.059   3.957  0.5174  0.1151 -0.1044
  893MOL0     C20449   0.720   4.112   3.943  0.0327 -0.4024 -1.0694
  893MOL0     O20450   0.820   4.025   3.945 -0.3911 -0.0146  0.1050
  893MOL0     C20451   0.947   4.072   3.933 -0.2592  0.1524 -0.5482
  893MOL0     C20452   1.002   4.139   4.047 -0.3831  0.0468  0.4390
  893MOL0     C20453   1.126   4.192   4.030 -1.3603  0.1280  1.1030
  893MOL0     C20454   1.200   4.181   3.910 -0.1486  1.1883 -0.0220
  893MOL0     O20455   1.320   4.242   3.920 -0.7102 -0.2388 -0.3764
  893MOL0     C20456   1.413   4.247   3.806 -0.6233 -0.9359 -0.2458
  893MOL0     C20457   1.559   4.269   3.838  0.1004  0.5247 -0.6894
  893MOL0     C20458   1.617   4.133   3.904  0.1562 -0.5438  0.1507
  893MOL0     C20459   1.764   4.150   3.951  0.4777  1.3063 -0.4101
  893MOL0     C20460   1.793   4.272   4.022 -0.2585 -1.3638  0.9499
  893MOL0     C20461   1.949   4.269   4.066  0.1565  0.3523  0.5980
  893MOL0     C20462   1.969   4.178   4.185  0.4930  0.2037  0.1439
  893MOL0     C20463   2.110   4.184   4.242  0.0370 -0.0568 -0.3705
  893MOL0    Cl20464   2.224   4.100   4.134 -0.2236 -0.7931  0.4734
  893MOL0     C20465   1.143   4.107   3.812 -0.1994 -0.8323  0.1317
  893MOL0     C20466   1.015   4.058   3.813 -0.8101 -1.2492 -0.1230
  893MOL0     O20467   0.728   4.237   3.947 -0.2571  0.8874  0.0004
  893MOL0     C20468   0.548   3.923   3.928  0.3266  0.2728  0.4343
  893MOL0     C20469   0.420   3.870   3.937  0.0375  0.3131 -0.7119
  893MOL0     N20470  -0.296   3.632   3.425  0.2746  0.2440 -0.6543
  893MOL0     N20471  -0.277   3.617   3.302  0.3760 -0.2435  0.5069
  893MOL0     C20472   0.437   3.874   2.507  0.2950 -0.1687  0.7367
  893MOL0     C20473   0.529   3.973   2.479 -0.5671  0.3168 -0.1221
  893MOL0     C20474   0.963   4.188   2.497  0.2674 -0.1915 -0.7887
  893MOL0     C20475   0.913   4.259   2.392  0.2014 -0.7222 -0.2682
  893MOL0     C20476   0.989   4.366   2.339  0.5031 -1.3333  0.1018
  893MOL0     C20477   1.112   4.403   2.383  0.1190 -0.4025  0.2962
  893MOL0     O20478   1.171   4.517   2.321  0.5019  0.7234  0.4006
  893MOL0     C20479   1.299   4.556   2.378  0.1681  0.1363 -0.0261
  893MOL0     C20480   1.290   4.646   2.505 -0.9849 -0.0974 -0.0994
  893MOL0     C20481   1.232   4.787   2.460  0.1633  0.5365  1.0018
  893MOL0     C20482   1.224   4.882   2.573 -0.1160 -0.3340  0.2399
  893MOL0     C20483   1.364   4.930   2.588  0.2903 -0.4415 -0.6192
  893MOL0     C20484   1.473   4.972   2.614 -0.1923  0.8872 -0.4642
  893MOL0     C20485   1.169   4.329   2.483  0.3058  0.0346 -0.0812
  893MOL0     C20486   1.094   4.222   2.542  0.4745  0.7300 -0.3258
  893MOL0     C20487   1.174   4.148   2.648 -0.3213  0.0383  0.0728
  893MOL0     H20488   0.810   3.794   2.547  0.1742  1.3512  0.1578
  893MOL0     H20489   0.646   3.634   2.617  0.9823 -1.0456 -0.7204
  893MOL0     H20490   0.457   3.518   2.492 -0.6992  2.8277 -0.4611
  893MOL0     H20491   0.452   3.503   2.670 -3.1610 -4.8498  0.3504
  893MOL0     H20492   0.281   3.348   2.568  0.9054  0.3794 -0.3665
  893MOL0     H20493   0.211   3.496   2.499 -2.4880 -1.6433 -0.0413
  893MOL0     H20494   0.176   3.593   2.704 -1.8623 -0.1931 -2.2781
  893MOL0     H20495   0.258   3.468   2.798 -1.1901 -1.5450  0.7130
  893MOL0     H20496  -0.016   3.424   2.677 -0.5050  0.1776  1.5417
  893MOL0     H20497   0.099   3.292   2.740  0.9657 -0.1894  2.7190
  893MOL0     H20498  -0.078   3.346   2.896 -0.5414 -0.0228 -0.9439
  893MOL0     H20499   0.085   3.355   2.956 -2.1072 -4.2582 -0.5210
  893MOL0     H20500   0.050   3.627   2.906 -0.7832  0.8811 -0.7159
  893MOL0     H20501  -0.114   3.585   2.877  0.4096  0.6941 -0.4768
  893MOL0     H20502   0.021   3.512   3.153 -0.0395 -3.5499 -0.9862
  893MOL0     H20503  -0.145   3.468   3.096 -0.5647 -0.7922  2.3206
  893MOL0     H20504  -0.048   3.751   3.112  2.3068 -2.1482 -1.3597
  893MOL0     H20505  -0.208   3.683   3.073 -0.3538 -3.4551  0.2163
  893MOL0     H20506   0.006   3.751   3.376  0.3640 -0.0261  2.6661
  893MOL0     H20507  -0.188   3.839   3.625  0.4094  0.1139 -0.0144
  893MOL0     H20508  -0.202   3.674   3.693 -2.6827  1.3624 -0.0877
  893MOL0     H20509   0.018   3.622   3.678 -1.6515 -0.9267  0.6097
  893MOL0     H20510   0.073   3.763   3.589  1.3035  1.8443  1.1775
  893MOL0     H20511  -0.031   3.758   3.860 -1.5844 -0.0107 -0.4106
  893MOL0     H20512  -0.022   3.915   3.765 -1.1971 -0.3294  0.0284
  893MOL0     H20513   0.227   3.873   3.756  0.2146  2.5634  0.3307
  893MOL0     H20514   0.198   3.724   3.850 -1.0555 -0.1457  2.4072
  893MOL0     H20515   0.261   4.151   4.046  1.3480  0.4132  1.0322
  893MOL0     H20516   0.479   4.235   4.031  3.1847  0.2898 -3.1112
  893MOL0     H20517   0.943   4.156   4.137 -0.4345  1.7380  0.1252
  893MOL0     H20518   1.168   4.253   4.109 -0.2761  3.6615 -1.8583
  893MOL0     H20519   1.402   4.147   3.763  1.6291 -1.2284 -0.2588
  893MOL0     H20520   1.384   4.327   3.737  1.9243  1.0954  0.8630
  893MOL0     H20521   1.625   4.282   3.752  2.9599 -0.5693  1.2228
  893MOL0     H20522   1.561   4.351   3.910 -1.5010 -0.2375  0.2793
  893MOL0     H20523   1.548   4.098   3.981 -0.7346 -1.7976 -1.1599
  893MOL0     H20524   1.618   4.049   3.833  0.2786 -0.9900  0.6763
  893MOL0     H20525   1.827   4.134   3.863 -0.7746 -3.1310 -0.7229
  893MOL0     H20526   1.789   4.070   4.022  1.8903  3.0961  1.2211
  893MOL0     H20527   1.728   4.287   4.109 -1.7009  0.6767 -0.3824
  893MOL0     H20528   1.776   4.354   3.951 -1.7544 -3.0711 -0.8023
  893MOL0     H20529   2.002   4.231   3.978  0.2660 -0.1086  0.8620
  893MOL0     H20530   1.982   4.368   4.097 -0.8060  0.5021  1.2037
  893MOL0     H20531   1.944   4.074   4.160 -4.0913  0.6828  1.7896
  893MOL0     H20532   1.894   4.196   4.262 -0.6835 -1.4459 -0.5427
  893MOL0     H20533   2.121   4.293   4.250 -2.9999  0.4864 -1.9394
  893MOL0     H20534   2.107   4.141   4.342 -1.8448  1.9286  0.4989
  893MOL0     H20535   1.204   4.097   3.723 -3.1379  3.1930 -2.7389
  893MOL0     H20536   0.968   4.025   3.722  2.0799  0.1596 -2.2908
  893MOL0     H20537   0.623   3.852   3.894 -0.1821  1.1453 -2.9148
  893MOL0     H20538   0.417   3.762   3.927  0.5522  0.3327 -1.1075
  893MOL0     H20539   0.336   3.899   2.475 -0.5594  0.7649  3.7834
  893MOL0     H20540   0.500   4.070   2.441  1.2372  2.4295  3.3749
  893MOL0     H20541   0.815   4.236   2.350  0.8529 -5.1693  0.1307
  893MOL0     H20542   0.949   4.421   2.255 -0.0656 -1.2373  0.4284
  893MOL0     H20543   1.361   4.605   2.303  0.2894 -0.2759 -0.1973
  893MOL0     H20544   1.367   4.472   2.398 -0.3502 -0.3064 -0.0731
  893MOL0     H20545   1.396   4.660   2.529 -0.5289 -1.9399 -0.8917
  893MOL0     H20546   1.231   4.589   2.578  0.5650  1.7161  2.7410
  893MOL0     H20547   1.130   4.764   2.427  0.2064 -0.8447  1.7652
  893MOL0     H20548   1.294   4.827   2.379  2.6545 -0.8201  2.1258
  893MOL0     H20549   1.157   4.963   2.543 -0.5714 -0.3773  1.1325
  893MOL0     H20550   1.177   4.845   2.664  0.0562 -0.9019  0.1023
  893MOL0     H20551   1.564   5.026   2.632  1.1869 -1.8316  1.5081
  893MOL0     H20552   1.265   4.346   2.529  1.3946 -0.7991 -1.9460
  893MOL0     H20553   1.212   4.055   2.606  1.2509  0.6308  0.1262
  893MOL0     H20554   1.256   4.213   2.681  0.6026 -0.7377 -0.6691
  893MOL0     H20555   1.119   4.118   2.737 -2.9622  2.7314 -0.4840
  894MOL0     O20556  11.280   7.443   4.096  0.8172 -0.7504  0.7025
  894MOL0     C20557  11.294   7.481   3.978 -0.6422  0.8472  0.7781
  894MOL0     O20558  11.397   7.458   3.898 -0.0722 -0.8105  0.3587
  894MOL0     C20559  11.526   7.423   3.941  0.0312 -0.5807  0.2658
  894MOL0     C20560  11.638   7.441   3.857 -0.3376  0.2643 -0.6071
  894MOL0     C20561  11.773   7.421   3.888  0.8910 -0.0852 -0.4511
  894MOL0     C20562  11.795   7.364   4.017 -0.5665 -0.7420 -0.2862
  894MOL0     O20563  11.913   7.338   4.076 -0.2584 -0.6661  0.3423
  894MOL0     C20564  12.007   7.454   4.068  0.7354 -0.2332 -0.3747
  894MOL0     C20565  12.141   7.416   4.111  0.4573 -0.5621 -0.1546
  894MOL0     C20566  12.238   7.533   4.097 -0.2182  0.0716 -0.6617
  894MOL0     C20567  12.370   7.486   4.144 -0.3217 -1.0572  0.1892
  894MOL0     C20568  12.479   7.597   4.117 -0.1288  0.5229  0.1542
  894MOL0     C20569  12.624   7.540   4.165 -0.0752 -0.1238 -0.0123
  894MOL0     C20570  12.618   7.488   4.313 -0.2814 -0.6410  0.7614
  894MOL0     C20571  12.738   7.540   4.388  0.5444 -0.2224  0.8554
  894MOL0     N20572  12.868   7.516   4.319 -0.3467 -0.4977  0.3945
  894MOL0     C20573  12.940   7.395   4.315 -0.8187  0.4424 -0.9651
  894MOL0     C20574  13.049   7.414   4.244  0.7311 -0.0446  0.2185
  894MOL0     C20575  13.164   7.318   4.216  0.2782 -0.1853 -0.1304
  894MOL0     C20576  13.277   7.388   4.130  0.3723  0.3981  0.4719
  894MOL0     C20577  13.413   7.308   4.138 -0.4551 -0.2863  1.0793
  894MOL0     C20578  13.542   7.371   4.087  0.4259  0.4853  0.2362
  894MOL0     O20579  13.633   7.262   4.101  0.7761 -0.4559 -0.7266
  894MOL0     C20580  13.759   7.272   4.060 -0.9096  0.9768  0.0463
  894MOL0     C20581  13.826   7.160   4.101  0.0795 -0.2619  0.4047
  894MOL0     C20582  13.966   7.158   4.074 -0.3630  0.1507 -0.1699
  894MOL0     C20583  14.033   7.261   4.013 -0.7880  0.3864 -0.7648
  894MOL0     C20584  14.172   7.252   3.989 -0.1953  0.1122  0.6230
  894MOL0     O20585  14.236   7.368   3.953 -0.0327 -0.9757 -0.3383
  894MOL0     C20586  14.370   7.347   3.919 -0.0076 -0.6440  0.0697
  894MOL0     C20587  14.393   7.341   3.784  0.0726  0.1853  0.1926
  894MOL0     C20588  14.522   7.345   3.731 -0.1424  0.2052 -0.4515
  894MOL0     C20589  14.633   7.344   3.814 -0.1226  0.4006  0.1368
  894MOL0     O20590  14.762   7.352   3.770 -0.1604  0.0738  0.5347
  894MOL0     C20591  14.791   7.331   3.624 -0.5136  0.6360 -1.0445
  894MOL0     C20592  14.942   7.323   3.604  0.1285  0.6993 -0.0469
  894MOL0     C20593  15.011   7.205   3.695  0.3016  1.2735  0.2459
  894MOL0     C20594  15.152   7.194   3.667 -0.5259  0.0673  0.7385
  894MOL0     C20595  15.213   7.062   3.725  0.4260  0.2269 -0.4720
  894MOL0     C20596  15.347   7.096   3.792  0.4486  0.3428  0.7549
  894MOL0     C20597  15.457   7.116   3.688  0.7385 -0.6602 -0.6238
  894MOL0     C20598  15.597   7.148   3.742  0.3472  0.0551 -0.3357
  894MOL0    Cl20599  15.714   7.140   3.610  0.1365 -0.2317  0.1020
  894MOL0     C20600  14.615   7.344   3.952  1.2200 -1.1991 -1.0533
  894MOL0     C20601  14.477   7.342   4.002 -0.4885 -0.1407 -0.1569
  894MOL0     O20602  14.229   7.144   4.009 -0.0242  0.1518  0.2371
  894MOL0     C20603  13.956   7.368   3.967  0.3684  0.3842 -0.1898
  894MOL0     C20604  13.823   7.381   3.999 -0.3892  0.2046  0.4064
  894MOL0     N20605  13.037   7.539   4.195 -0.6919 -0.5884  0.5409
  894MOL0     N20606  12.937   7.603   4.234 -0.4347  0.0414 -0.8075
  894MOL0     C20607  11.685   7.347   4.102 -0.3445  0.5158 -0.4002
  894MOL0     C20608  11.554   7.364   4.063  0.1342  0.7994 -0.4396
  894MOL0     C20609  11.170   7.543   3.919  0.4331 -0.6508  0.3277
  894MOL0     C20610  11.168   7.572   3.781 -0.5067  0.0775  0.3445
  894MOL0     C20611  11.052   7.607   3.714  0.5740  0.6664  0.4411
  894MOL0     C20612  10.928   7.620   3.781  0.3433  0.8431  0.1692
  894MOL0     O20613  10.807   7.646   3.715  0.1677 -0.3192 -0.0131
  894MOL0     C20614  10.710   7.535   3.715 -0.6218 -0.6678 -0.5118
  894MOL0     C20615  10.623   7.547   3.589  0.3202  0.4237  0.6284
  894MOL0     C20616  10.696   7.531   3.451 -0.0975  0.8275  0.1064
  894MOL0     C20617  10.626   7.445   3.347  0.1492  0.2946  0.8166
  894MOL0     C20618  10.510   7.528   3.298  0.4669  0.2475  0.0326
  894MOL0     C20619  10.409   7.569   3.252  0.2288 -0.9684 -0.1194
  894MOL0     C20620  10.922   7.592   3.918  1.3028 -0.0446  0.9035
  894MOL0     C20621  11.044   7.563   3.984 -0.0532 -0.7589 -0.2215
  894MOL0     C20622  11.037   7.567   4.136 -0.0868 -0.1417  0.1209
  894MOL0     H20623  11.629   7.481   3.757 -0.4828 -0.2094 -0.7867
  894MOL0     H20624  11.846   7.447   3.812 -0.2678 -2.1625 -2.3963
  894MOL0     H20625  12.008   7.492   3.965 -0.0068  2.5881  0.5422
  894MOL0     H20626  11.995   7.537   4.139  5.2145  0.2839  0.0327
  894MOL0     H20627  12.185   7.341   4.044  3.5249  1.4099 -0.5402
  894MOL0     H20628  12.145   7.379   4.214 -1.2991  0.4465  0.3160
  894MOL0     H20629  12.205   7.615   4.162  0.3997  2.2988 -2.9834
  894MOL0     H20630  12.237   7.573   3.995 -0.5823 -1.9640 -1.4991
  894MOL0     H20631  12.356   7.448   4.246  2.1699 -0.2272  0.9103
  894MOL0     H20632  12.398   7.397   4.087 -0.5880 -1.5533  0.8227
  894MOL0     H20633  12.488   7.609   4.008 -2.3594  2.0761  0.0725
  894MOL0     H20634  12.470   7.697   4.161 -0.7624  1.5425 -2.1204
  894MOL0     H20635  12.662   7.460   4.101  0.9004  0.0368  0.3609
  894MOL0     H20636  12.688   7.626   4.145 -1.1350  0.7778  0.3434
  894MOL0     H20637  12.622   7.379   4.320 -3.4596 -1.2614 -3.1633
  894MOL0     H20638  12.526   7.525   4.357  0.1731  2.3253 -0.5684
  894MOL0     H20639  12.709   7.645   4.396  0.2640  0.0245 -2.1479
  894MOL0     H20640  12.741   7.492   4.486  1.8192 -2.7745 -0.3132
  894MOL0     H20641  12.905   7.309   4.371 -0.3901  0.9609  0.1488
  894MOL0     H20642  13.196   7.287   4.316 -3.8623 -0.9068  1.1323
  894MOL0     H20643  13.131   7.224   4.171 -1.8536  0.4134  0.0675
  894MOL0     H20644  13.247   7.385   4.025 -0.6967  0.1837  0.7718
  894MOL0     H20645  13.285   7.491   4.167 -1.7122  0.6195  0.4512
  894MOL0     H20646  13.394   7.215   4.085  1.6966  0.6163 -1.5006
  894MOL0     H20647  13.428   7.296   4.246  1.2478 -1.2958  0.7646
  894MOL0     H20648  13.578   7.454   4.149  4.2411 -1.2898  0.7274
  894MOL0     H20649  13.538   7.399   3.982  0.7358 -0.6566 -0.0899
  894MOL0     H20650  13.765   7.081   4.143 -1.0407  0.9528  1.1315
  894MOL0     H20651  14.017   7.071   4.115 -1.4073  0.6973  2.5115
  894MOL0     H20652  14.308   7.349   3.717 -0.1450 -0.7394  0.3395
  894MOL0     H20653  14.520   7.330   3.623 -1.5792 -1.3519 -0.2431
  894MOL0     H20654  14.753   7.237   3.582 -0.2256 -0.8904  1.8311
  894MOL0     H20655  14.763   7.418   3.564  2.3283  4.9301  3.0946
  894MOL0     H20656  14.961   7.313   3.497 -0.9205 -0.7556 -0.1387
  894MOL0     H20657  14.991   7.417   3.631  2.5773 -0.7961  1.0058
  894MOL0     H20658  15.004   7.222   3.802  2.4212  2.7424  0.2104
  894MOL0     H20659  14.977   7.105   3.666 -1.1583  2.0820 -1.0283
  894MOL0     H20660  15.202   7.287   3.694 -0.1951  0.9034 -2.3448
  894MOL0     H20661  15.158   7.190   3.558  1.5534 -1.0697  0.8538
  894MOL0     H20662  15.235   6.992   3.644  1.7646 -1.6594  1.4096
  894MOL0     H20663  15.133   7.023   3.789 -3.0508  3.3452 -2.4300
  894MOL0     H20664  15.327   7.184   3.855 -1.0911  1.7141 -1.5288
  894MOL0     H20665  15.371   7.016   3.863  1.1138  2.2763  2.8667
  894MOL0     H20666  15.413   7.186   3.617 -3.4111 -2.6563 -0.3395
  894MOL0     H20667  15.463   7.023   3.630  1.2222 -0.7093 -0.4993
  894MOL0     H20668  15.594   7.242   3.798 -2.2525 -0.2729  0.1861
  894MOL0     H20669  15.630   7.065   3.806 -0.0939  1.0822  1.2937
  894MOL0     H20670  14.700   7.341   4.019  0.9058 -0.7126 -0.6250
  894MOL0     H20671  14.460   7.346   4.109  1.0153 -1.7485  0.1880
  894MOL0     H20672  14.020   7.448   3.932  2.2967 -1.1748 -0.4640
  894MOL0     H20673  13.761   7.468   3.981 -0.4447  0.5728  2.1307
  894MOL0     H20674  11.701   7.307   4.201 -4.0521  2.7497  1.3090
  894MOL0     H20675  11.477   7.327   4.130  1.9534 -0.9268  0.8038
  894MOL0     H20676  11.260   7.569   3.722  0.3119 -0.3722  1.6026
  894MOL0     H20677  11.056   7.633   3.609  1.4761 -3.3617 -0.7106
  894MOL0     H20678  10.653   7.537   3.809  3.9512  0.7546  2.5853
  894MOL0     H20679  10.765   7.440   3.718  1.9656  0.6621  3.3989
  894MOL0     H20680  10.578   7.646   3.601 -1.2889 -0.5393  3.5588
  894MOL0     H20681  10.543   7.472   3.596  0.1885  0.4242 -0.5375
  894MOL0     H20682  10.796   7.494   3.477 -0.2201 -0.6691 -1.3555
  894MOL0     H20683  10.704   7.628   3.402  2.3881  0.1644 -0.9313
  894MOL0     H20684  10.688   7.424   3.259  1.6523  1.2106  1.6212
  894MOL0     H20685  10.593   7.352   3.393  0.5746  0.7700  2.1259
  894MOL0     H20686  10.316   7.604   3.211  0.3155  0.7382  1.0455
  894MOL0     H20687  10.835   7.603   3.982 -0.4630  0.7829 -1.5165
  894MOL0     H20688  10.953   7.632   4.161  1.4796  2.4959 -0.9834
  894MOL0     H20689  11.029   7.472   4.190 -1.6256  1.1432  2.3050
  894MOL0     H20690  11.129   7.612   4.173 -0.6158 -0.1214  1.4716
  895MOL0     O20691  11.031  10.912   2.079 -0.3834  0.0689 -0.0240
  895MOL0     C20692  10.997  11.000   2.003 -0.3620 -0.4142 -0.5706
  895MOL0     O20693  10.999  10.995   1.864  0.6297  0.1162  0.1221
  895MOL0     C20694  11.042  10.881   1.806 -0.4185  0.2533  0.1674
  895MOL0     C20695  10.966  10.824   1.704  0.2419  0.7209  0.2629
  895MOL0     C20696  11.019  10.714   1.632  0.7066 -0.7979 -0.6985
  895MOL0     C20697  11.149  10.673   1.641  0.1348  0.8215 -1.3467
  895MOL0     O20698  11.204  10.557   1.586  0.2046  0.0388 -0.1804
  895MOL0     C20699  11.153  10.515   1.460  0.5351  0.3994  0.1428
  895MOL0     C20700  11.200  10.616   1.339 -0.2351  0.5681  0.2812
  895MOL0     C20701  11.235  10.557   1.205 -0.1148 -0.0937  0.0047
  895MOL0     C20702  11.109  10.539   1.118  0.0689  0.1218  0.0418
  895MOL0     C20703  11.153  10.513   0.968  0.3260 -0.9286 -0.2897
  895MOL0     C20704  11.174  10.640   0.883 -0.2866 -0.6027 -0.3613
  895MOL0     C20705  11.103  10.636   0.744 -0.3767  0.3154 -0.4261
  895MOL0     C20706  10.953  10.643   0.752 -0.6389 -0.0897 -0.9827
  895MOL0     N20707  10.885  10.684   0.625  0.8071 -1.0928  0.2704
  895MOL0     C20708  10.867  10.810   0.571 -0.2784  0.4563  0.5358
  895MOL0     C20709  10.847  10.787   0.443 -0.4686  0.1396 -0.2436
  895MOL0     C20710  10.827  10.903   0.350  0.7167  0.3636 -0.6059
  895MOL0     C20711  10.955  10.985   0.358 -0.7565  0.3619 -0.7027
  895MOL0     C20712  10.949  11.112   0.443  0.1334  0.5039 -0.2821
  895MOL0     C20713  11.068  11.145   0.522  0.5251  0.5660  0.5991
  895MOL0     O20714  11.057  11.267   0.596 -0.0983  0.4266  0.3686
  895MOL0     C20715  11.169  11.309   0.664  0.1667  0.8040 -0.2586
  895MOL0     C20716  11.298  11.249   0.657  0.6259 -0.3655 -0.2115
  895MOL0     C20717  11.408  11.319   0.710 -0.0394  0.5725  0.0160
  895MOL0     C20718  11.394  11.421   0.800  0.2407  0.8920  0.1047
  895MOL0     C20719  11.505  11.503   0.855 -0.0425 -0.2003 -0.2893
  895MOL0     O20720  11.471  11.618   0.923  0.0625  0.1699  0.1480
  895MOL0     C20721  11.560  11.710   0.967 -0.4966 -0.5521 -0.7301
  895MOL0     C20722  11.581  11.726   1.106 -0.3483 -0.0063 -0.1139
  895MOL0     C20723  11.669  11.824   1.154  0.9918 -0.4817  0.7362
  895MOL0     C20724  11.726  11.924   1.066 -0.3169  0.5271  0.3722
  895MOL0     O20725  11.800  12.025   1.115  0.1931  0.5654 -0.4076
  895MOL0     C20726  11.899  12.080   1.028  0.7321  0.3818  0.3513
  895MOL0     C20727  12.004  12.151   1.107 -0.1105  0.8224 -0.6082
  895MOL0     C20728  12.068  12.058   1.211 -0.3230  0.3593 -0.2014
  895MOL0     C20729  12.145  11.933   1.147  0.5813  0.5067  0.0772
  895MOL0     C20730  12.274  11.922   1.231  0.4288 -0.1859  0.5898
  895MOL0     C20731  12.314  11.775   1.221  0.4175  1.1364  0.1745
  895MOL0     C20732  12.440  11.739   1.303 -1.3399  0.2078  0.4243
  895MOL0     C20733  12.567  11.751   1.223 -0.1147 -0.1316 -0.0578
  895MOL0    Cl20734  12.702  11.758   1.328  0.4319  0.1491  0.2141
  895MOL0     C20735  11.703  11.900   0.926 -0.5455  0.2877  0.4500
  895MOL0     C20736  11.624  11.788   0.877  0.0443 -0.0637  0.0815
  895MOL0     O20737  11.620  11.468   0.838 -0.1897  0.4560 -0.0863
  895MOL0     C20738  11.264  11.466   0.827  0.1148  0.5504 -0.5827
  895MOL0     C20739  11.155  11.412   0.758  0.6354  0.2369 -0.1606
  895MOL0     N20740  10.858  10.654   0.409  0.0389  0.2881 -0.0930
  895MOL0     N20741  10.871  10.589   0.524  0.7846 -0.1531  0.6520
  895MOL0     C20742  11.218  10.732   1.746  0.5393  0.4840  0.3451
  895MOL0     C20743  11.172  10.835   1.824  0.5177  0.3084 -0.5106
  895MOL0     C20744  10.954  11.128   2.063  0.3863 -0.6507  0.7947
  895MOL0     C20745  10.851  11.199   1.997 -0.0488  0.2804  0.9644
  895MOL0     C20746  10.803  11.322   2.040 -0.0546  0.5068  0.1197
  895MOL0     C20747  10.847  11.373   2.162 -0.8222  1.0778 -0.4681
  895MOL0     O20748  10.808  11.477   2.241 -0.3138  0.6369 -0.3289
  895MOL0     C20749  10.683  11.536   2.213 -0.3090  0.2414 -0.2338
  895MOL0     C20750  10.572  11.459   2.287 -0.5005 -0.0467 -0.7785
  895MOL0     C20751  10.594  11.489   2.444 -0.4631  0.4440 -0.4081
  895MOL0     C20752  10.475  11.415   2.514  0.1124  0.1167  0.0765
  895MOL0     C20753  10.348  11.454   2.458 -0.2566  0.6106  0.0639
  895MOL0     C20754  10.244  11.509   2.422  0.2496  0.4515  0.2809
  895MOL0     C20755  10.955  11.300   2.221  1.0355  0.7854  0.4075
  895MOL0     C20756  11.012  11.183   2.174 -0.8913  0.9708 -0.1370
  895MOL0     C20757  11.141  11.140   2.248 -0.3429 -0.7330  1.3661
  895MOL0     H20758  10.872  10.868   1.671  0.1581  0.5305  0.2455
  895MOL0     H20759  10.951  10.670   1.560  0.1438 -1.1056  0.0079
  895MOL0     H20760  11.195  10.416   1.438 -1.8495 -0.8481  0.8935
  895MOL0     H20761  11.046  10.501   1.447  0.3071  2.4296 -0.4646
  895MOL0     H20762  11.288  10.670   1.377  0.0651  3.6385 -4.0561
  895MOL0     H20763  11.115  10.684   1.329 -0.3505  0.3113 -0.5131
  895MOL0     H20764  11.274  10.455   1.214  0.7836  0.1436 -0.9768
  895MOL0     H20765  11.302  10.625   1.152 -0.5550  1.6232  1.5286
  895MOL0     H20766  11.055  10.459   1.169  0.4272 -0.2389 -0.1432
  895MOL0     H20767  11.036  10.621   1.121  2.3432  2.3230 -1.3320
  895MOL0     H20768  11.252  10.468   0.980  1.4466  1.0121 -1.7557
  895MOL0     H20769  11.086  10.442   0.920 -2.1626 -1.7758  3.9472
  895MOL0     H20770  11.130  10.721   0.941 -0.7660 -1.0677 -0.0730
  895MOL0     H20771  11.282  10.658   0.879 -0.7335  3.2051  0.8953
  895MOL0     H20772  11.139  10.546   0.694 -2.1534  0.1247 -1.4239
  895MOL0     H20773  11.131  10.727   0.690  0.9640  0.6324  0.7380
  895MOL0     H20774  10.907  10.546   0.774 -2.5575  0.0227 -3.9540
  895MOL0     H20775  10.933  10.722   0.825  2.1967  1.1869 -1.4621
  895MOL0     H20776  10.865  10.904   0.626 -1.9092 -0.1104  1.5154
  895MOL0     H20777  10.797  10.853   0.257 -4.8543 -3.7565  2.7198
  895MOL0     H20778  10.734  10.950   0.385  0.7967  0.0340  0.0581
  895MOL0     H20779  11.037  10.926   0.401 -0.5127  1.9878  1.1867
  895MOL0     H20780  10.981  11.012   0.255  1.3174 -3.3339 -1.3677
  895MOL0     H20781  10.858  11.105   0.503 -2.7875  0.7995 -4.3149
  895MOL0     H20782  10.937  11.193   0.371  1.1874  0.3596 -0.6332
  895MOL0     H20783  11.153  11.160   0.455 -0.1495 -0.6297 -0.5615
  895MOL0     H20784  11.097  11.054   0.574 -0.1936 -0.9025 -1.4562
  895MOL0     H20785  11.317  11.155   0.606  1.0447  0.5156 -1.7634
  895MOL0     H20786  11.509  11.280   0.699 -0.9361 -1.9175 -0.0317
  895MOL0     H20787  11.529  11.659   1.174 -0.4672  0.2758  0.0759
  895MOL0     H20788  11.678  11.832   1.262  1.6909  0.4245  0.6303
  895MOL0     H20789  11.939  11.995   0.971 -3.0794  0.1001 -2.2964
  895MOL0     H20790  11.848  12.144   0.956  1.5860 -1.0566 -1.6484
  895MOL0     H20791  12.075  12.197   1.038  1.4423  0.4414  0.6804
  895MOL0     H20792  11.953  12.235   1.156  0.5178  0.8756 -0.0167
  895MOL0     H20793  12.139  12.113   1.274  0.1401 -2.2893  1.7689
  895MOL0     H20794  11.990  12.021   1.278  1.2107 -0.5092  1.1856
  895MOL0     H20795  12.154  11.923   1.038 -1.3189  0.0159 -0.0640
  895MOL0     H20796  12.086  11.842   1.159  0.2818  0.9100  1.8091
  895MOL0     H20797  12.264  11.952   1.336  2.7756  0.8424  0.5970
  895MOL0     H20798  12.352  11.987   1.190  1.5105 -3.1026 -2.4788
  895MOL0     H20799  12.232  11.714   1.260  1.7380  0.7462  2.5093
  895MOL0     H20800  12.329  11.743   1.117  0.9846  1.7582  0.0567
  895MOL0     H20801  12.444  11.635   1.336 -0.2880 -1.8510 -5.0510
  895MOL0     H20802  12.453  11.801   1.392  0.8914  0.4218  0.0076
  895MOL0     H20803  12.566  11.659   1.163 -2.3780 -1.3910  1.7231
  895MOL0     H20804  12.577  11.833   1.152  0.3665  0.4730  0.6941
  895MOL0     H20805  11.741  11.969   0.851  1.0993 -1.0445 -0.0168
  895MOL0     H20806  11.603  11.775   0.772  1.3801 -2.8876  0.0776
  895MOL0     H20807  11.238  11.543   0.899 -0.6632  0.6339 -0.9387
  895MOL0     H20808  11.056  11.453   0.774 -0.7767 -2.9120 -0.0131
  895MOL0     H20809  11.319  10.693   1.741 -0.7154 -2.9378 -1.3529
  895MOL0     H20810  11.233  10.892   1.894 -1.5419  0.0639  1.6253
  895MOL0     H20811  10.829  11.176   1.893 -0.7275 -1.1364  1.3949
  895MOL0     H20812  10.719  11.365   1.987 -3.6034 -1.3584  3.7125
  895MOL0     H20813  10.668  11.528   2.105  0.2951 -1.2300 -0.2359
  895MOL0     H20814  10.678  11.640   2.248 -0.8278 -0.5591  2.2399
  895MOL0     H20815  10.574  11.351   2.267 -3.0616 -0.0994 -1.0327
  895MOL0     H20816  10.474  11.495   2.253 -1.0853 -0.1856  0.6904
  895MOL0     H20817  10.595  11.595   2.470 -1.9807  0.2017  0.7933
  895MOL0     H20818  10.680  11.437   2.485 -1.5748 -0.6654  0.5946
  895MOL0     H20819  10.476  11.306   2.505  0.3062 -0.1477  2.6329
  895MOL0     H20820  10.475  11.436   2.621  2.1710 -0.3223  0.2011
  895MOL0     H20821  10.162  11.569   2.387 -0.6765 -1.7749 -1.6625
  895MOL0     H20822  10.996  11.345   2.311  0.8047 -0.2608  1.0624
  895MOL0     H20823  11.183  11.211   2.320  2.1651 -1.0381  0.2863
  895MOL0     H20824  11.126  11.047   2.304 -1.0909 -0.6521  1.3083
  895MOL0     H20825  11.219  11.113   2.176 -2.1534 -1.5245 -0.3995
  896MOL0     O20826   4.825   6.523  10.503  0.2459 -0.7439 -0.1663
  896MOL0     C20827   4.861   6.608  10.588 -0.1699 -0.0864 -0.0829
  896MOL0     O20828   4.981   6.653  10.611 -0.0017  0.1598 -0.1785
  896MOL0     C20829   5.093   6.575  10.572  0.0086 -0.0070  0.1272
  896MOL0     C20830   5.211   6.645  10.541 -0.6717  0.2077 -0.5547
  896MOL0     C20831   5.329   6.584  10.507 -0.4460  0.4977  0.5025
  896MOL0     C20832   5.334   6.440  10.511 -0.0516 -0.1424 -0.0739
  896MOL0     O20833   5.438   6.358  10.476  0.5858  0.2318 -0.4341
  896MOL0     C20834   5.490   6.409  10.350  0.6456  0.2580 -0.1750
  896MOL0     C20835   5.552   6.287  10.279 -0.4441  0.7002  0.6253
  896MOL0     C20836   5.704   6.256  10.308 -0.2599  0.7519  0.4596
  896MOL0     C20837   5.738   6.133  10.226  0.2430  0.4799  0.2511
  896MOL0     C20838   5.885   6.102  10.188  0.2385 -0.2690  0.6308
  896MOL0     C20839   5.968   6.048  10.311  0.7583 -0.1930 -0.8258
  896MOL0     C20840   6.114   6.010  10.291 -0.9827 -0.1561  0.4882
  896MOL0     C20841   6.220   6.126  10.287  0.1302  0.1094  0.8683
  896MOL0     N20842   6.352   6.063  10.297  0.4239 -1.1542 -0.2039
  896MOL0     C20843   6.421   5.996  10.201 -0.0839  0.2891 -0.3142
  896MOL0     C20844   6.530   5.947  10.270 -0.0088  0.1131 -0.4393
  896MOL0     C20845   6.633   5.855  10.208  0.2525  0.2617 -0.1240
  896MOL0     C20846   6.757   5.821  10.291 -0.5209 -0.2868 -0.1257
  896MOL0     C20847   6.852   5.733  10.210  0.0826 -1.7760 -0.3094
  896MOL0     C20848   6.967   5.689  10.291  0.0776  0.0871 -0.5612
  896MOL0     O20849   7.081   5.657  10.212  0.3782 -1.0295  0.4832
  896MOL0     C20850   7.191   5.611  10.274 -0.5465  0.1872  0.4579
  896MOL0     C20851   7.248   5.512  10.202  0.3588  1.0032  0.4303
  896MOL0     C20852   7.360   5.447  10.253 -0.0142  0.8291 -0.6179
  896MOL0     C20853   7.419   5.482  10.377  0.3791  0.5054  0.1148
  896MOL0     C20854   7.553   5.421  10.434 -0.6410  0.1221 -0.1716
  896MOL0     O20855   7.621   5.349  10.340  0.8490  0.0659  0.4560
  896MOL0     C20856   7.744   5.293  10.363  0.7283  0.2840  0.5747
  896MOL0     C20857   7.790   5.245  10.487 -0.2033  0.4189  0.7056
  896MOL0     C20858   7.922   5.186  10.489  0.0874  0.6300  0.4376
  896MOL0     C20859   8.000   5.170  10.371  1.0434  0.1611  0.5550
  896MOL0     O20860   8.136   5.134  10.374  0.4760  0.6073  0.0526
  896MOL0     C20861   8.205   5.086  10.486  0.7224  0.7784 -0.2719
  896MOL0     C20862   8.336   5.021  10.429 -0.9192  0.2467 -0.9533
  896MOL0     C20863   8.403   4.926  10.523 -0.2899  0.1009 -0.0695
  896MOL0     C20864   8.492   4.999  10.620 -0.0860  0.0647 -0.3615
  896MOL0     C20865   8.547   4.907  10.717 -0.5422 -0.5917  0.6976
  896MOL0     C20866   8.656   4.970  10.806  0.1314 -0.0669  0.5144
  896MOL0     C20867   8.608   5.087  10.899 -0.4254 -0.0198  0.5137
  896MOL0     C20868   8.525   5.035  11.013  0.4066 -0.3086  0.6021
  896MOL0    Cl20869   8.512   5.164  11.133 -0.3024 -0.0481 -0.4797
  896MOL0     C20870   7.945   5.203  10.247  0.0518 -0.4882 -0.7250
  896MOL0     C20871   7.822   5.269  10.247  0.4430 -0.7041 -0.1743
  896MOL0     O20872   7.594   5.442  10.548  0.0043 -0.5846 -0.9975
  896MOL0     C20873   7.350   5.572  10.452 -0.6218 -0.3299  1.1710
  896MOL0     C20874   7.238   5.645  10.398 -0.2308 -0.6497 -0.2787
  896MOL0     N20875   6.527   5.984  10.401  0.3334  0.2978  0.1455
  896MOL0     N20876   6.418   6.053  10.418 -0.0804  0.6449 -0.6013
  896MOL0     C20877   5.214   6.366  10.552  0.0289  0.1540  0.3889
  896MOL0     C20878   5.091   6.433  10.574 -0.6902 -0.1759 -0.3193
  896MOL0     C20879   4.755   6.679  10.667  0.2928 -0.0465  0.3268
  896MOL0     C20880   4.635   6.708  10.591 -1.4122 -0.2139 -0.1436
  896MOL0     C20881   4.528   6.774  10.659  0.8092  0.2784 -0.2770
  896MOL0     C20882   4.529   6.791  10.800  0.0122 -0.0288 -0.9579
  896MOL0     O20883   4.432   6.844  10.886 -0.2276  0.0014 -0.1488
  896MOL0     C20884   4.307   6.899  10.829 -0.0313  0.3235  0.8491
  896MOL0     C20885   4.324   7.029  10.745 -0.1721  0.6845 -0.2122
  896MOL0     C20886   4.194   7.076  10.687  0.2720 -0.6387  0.4594
  896MOL0     C20887   4.204   7.211  10.621  0.8804 -0.8500  0.0996
  896MOL0     C20888   4.095   7.228  10.527 -0.0094  0.4361  0.4217
  896MOL0     C20889   3.997   7.247  10.460  0.2137  0.2322  1.3861
  896MOL0     C20890   4.654   6.764  10.871 -0.0444 -0.3970  0.1327
  896MOL0     C20891   4.767   6.703  10.806 -0.5249 -0.0951  0.4801
  896MOL0     C20892   4.895   6.690  10.894  0.8655  0.2372 -0.1208
  896MOL0     H20893   5.207   6.754  10.544  1.2501  0.5144 -3.7460
  896MOL0     H20894   5.415   6.646  10.485 -1.8592  1.2522 -3.8668
  896MOL0     H20895   5.404   6.444  10.292 -0.6985 -0.4592  1.3213
  896MOL0     H20896   5.564   6.490  10.360 -0.1562  0.8188  1.4993
  896MOL0     H20897   5.550   6.320  10.175  0.1389  3.1089  1.3150
  896MOL0     H20898   5.489   6.198  10.291  1.1088 -0.6687 -0.7431
  896MOL0     H20899   5.719   6.238  10.415  0.3562 -0.3397  0.1978
  896MOL0     H20900   5.774   6.334  10.277  0.3535  0.7084  1.6838
  896MOL0     H20901   5.714   6.056  10.300  0.9579 -1.0159 -1.0273
  896MOL0     H20902   5.677   6.120  10.136 -0.6196 -0.8730  1.0001
  896MOL0     H20903   5.864   6.021  10.117  5.1853 -1.2113 -0.1399
  896MOL0     H20904   5.938   6.183  10.137  1.6301  0.7715  3.5382
  896MOL0     H20905   5.946   6.106  10.401  1.3702 -2.2673  0.7255
  896MOL0     H20906   5.928   5.951  10.341  0.2521  0.2210 -0.1424
  896MOL0     H20907   6.124   5.954  10.197  0.5882  2.8406 -1.2697
  896MOL0     H20908   6.142   5.946  10.376 -1.1640 -1.6450 -0.5278
  896MOL0     H20909   6.215   6.193  10.200 -0.6430  1.2929  1.7897
  896MOL0     H20910   6.218   6.198  10.369 -0.1305  1.4668 -0.2735
  896MOL0     H20911   6.391   5.982  10.098 -1.0330  3.3855 -0.5615
  896MOL0     H20912   6.582   5.759  10.194 -0.7491  0.4249  1.9240
  896MOL0     H20913   6.656   5.884  10.106  0.2654  0.8161  0.0322
  896MOL0     H20914   6.804   5.919  10.299  0.3164 -0.4059 -2.7405
  896MOL0     H20915   6.741   5.774  10.389  0.9890  1.3995  0.9843
  896MOL0     H20916   6.904   5.785  10.129 -1.1696 -1.4960 -0.9605
  896MOL0     H20917   6.797   5.653  10.160 -1.9510 -0.9503  0.5194
  896MOL0     H20918   6.938   5.603  10.352 -1.3756  0.9107 -0.0635
  896MOL0     H20919   7.002   5.761  10.365 -0.3102  0.3851 -0.6678
  896MOL0     H20920   7.203   5.464  10.116  3.7365  1.9642 -2.0812
  896MOL0     H20921   7.412   5.370  10.195  0.9876 -0.6009  2.0009
  896MOL0     H20922   7.735   5.252  10.581 -2.0144 -1.0204 -0.1848
  896MOL0     H20923   7.959   5.146  10.583 -1.5201  0.6093  1.1118
  896MOL0     H20924   8.238   5.180  10.533  0.0096  2.4411 -2.8389
  896MOL0     H20925   8.149   5.035  10.564 -0.1019  3.5192  1.0825
  896MOL0     H20926   8.305   4.966  10.340 -2.0635  2.7303 -2.2076
  896MOL0     H20927   8.394   5.105  10.390 -0.2412 -0.0796 -0.6583
  896MOL0     H20928   8.328   4.874  10.583  1.5003 -0.4872  1.8178
  896MOL0     H20929   8.459   4.862  10.454  2.5645  0.5317  1.6707
  896MOL0     H20930   8.433   5.075  10.672 -3.1625 -1.2386 -1.7279
  896MOL0     H20931   8.570   5.045  10.559  0.2607 -0.0095  0.0217
  896MOL0     H20932   8.599   4.827  10.664 -1.5347 -0.4269 -0.5936
  896MOL0     H20933   8.472   4.849  10.772 -0.4480 -2.4267 -1.0044
  896MOL0     H20934   8.698   4.890  10.868 -1.4573  0.3529  2.2508
  896MOL0     H20935   8.737   5.010  10.745 -1.4242  0.0590 -1.5795
  896MOL0     H20936   8.549   5.166  10.852  0.4048  0.8133  0.8669
  896MOL0     H20937   8.694   5.140  10.940 -1.8694  2.7469  0.1714
  896MOL0     H20938   8.428   5.003  10.974  1.4019 -0.2688 -2.0727
  896MOL0     H20939   8.580   4.952  11.058  1.9964 -0.1148 -0.8641
  896MOL0     H20940   8.006   5.201  10.158 -1.2228 -4.0907 -1.6617
  896MOL0     H20941   7.769   5.307  10.161 -0.8759 -3.0199 -0.4760
  896MOL0     H20942   7.388   5.608  10.547 -2.3493  1.0966  1.3632
  896MOL0     H20943   7.210   5.725  10.466 -0.0237  0.4792 -1.4879
  896MOL0     H20944   5.224   6.258  10.558  2.4531  0.2376 -1.0724
  896MOL0     H20945   5.000   6.382  10.602 -1.4829  2.2936  1.9702
  896MOL0     H20946   4.635   6.694  10.483 -0.2364  4.4634 -0.9405
  896MOL0     H20947   4.436   6.795  10.606  1.2027 -1.3843 -1.7361
  896MOL0     H20948   4.236   6.933  10.905  0.0617  0.6081  0.8110
  896MOL0     H20949   4.265   6.820  10.766  2.8068  0.7986 -1.8808
  896MOL0     H20950   4.400   7.024  10.666 -0.0629  2.1318 -0.2422
  896MOL0     H20951   4.356   7.113  10.807 -4.7418  1.4432  1.5200
  896MOL0     H20952   4.121   7.099  10.766  0.6623  0.3398  0.5350
  896MOL0     H20953   4.154   7.001  10.617  1.1987 -0.9628  0.2693
  896MOL0     H20954   4.195   7.301  10.684 -2.2346 -1.9818  1.4683
  896MOL0     H20955   4.301   7.217  10.572  0.7952 -4.3475 -0.7342
  896MOL0     H20956   3.925   7.260  10.382  1.1000 -2.7796 -0.0894
  896MOL0     H20957   4.660   6.806  10.971 -0.6377 -3.5206  1.6313
  896MOL0     H20958   4.973   6.759  10.861  3.8351 -0.8602  3.8460
  896MOL0     H20959   4.875   6.705  11.000 -0.5684 -1.9359 -0.0350
  896MOL0     H20960   4.934   6.589  10.878  0.9963  0.6284 -2.9253
  897MOL0     O20961   8.610   6.321   4.874  0.5638 -0.0143  0.7270
  897MOL0     C20962   8.593   6.303   4.757  0.2237  0.5569 -0.0551
  897MOL0     O20963   8.675   6.351   4.651  0.4713 -0.0539  0.4317
  897MOL0     C20964   8.775   6.443   4.683  0.5307  1.4038  0.8657
  897MOL0     C20965   8.767   6.578   4.654 -0.5451  0.8940 -0.5458
  897MOL0     C20966   8.869   6.670   4.685 -0.0028 -0.0517 -0.1908
  897MOL0     C20967   8.983   6.618   4.753  0.5165  0.2547  0.6217
  897MOL0     O20968   9.071   6.699   4.806  0.0529 -0.9781 -0.3079
  897MOL0     C20969   9.131   6.792   4.714  0.2020  0.9868  0.1533
  897MOL0     C20970   9.269   6.828   4.757 -0.3239 -0.7845 -0.2033
  897MOL0     C20971   9.318   6.929   4.655 -0.4034  0.7242 -0.0925
  897MOL0     C20972   9.438   7.015   4.704  0.2016  0.1126 -0.2464
  897MOL0     C20973   9.571   6.945   4.740 -0.7132 -0.6888 -0.9694
  897MOL0     C20974   9.677   7.049   4.773  0.1792  0.2216 -0.5020
  897MOL0     C20975   9.789   7.071   4.671  0.5603  0.4410  0.2445
  897MOL0     C20976   9.736   7.149   4.550 -0.6592  0.2175  0.5597
  897MOL0     N20977   9.852   7.232   4.484  0.7642 -0.1475 -0.4510
  897MOL0     C20978   9.826   7.324   4.378 -1.1602 -0.1118 -0.9395
  897MOL0     C20979   9.946   7.366   4.352  0.6561 -0.1989  0.9986
  897MOL0     C20980   9.968   7.482   4.250 -0.4720  0.2097  0.6107
  897MOL0     C20981  10.091   7.451   4.155  0.3986  0.1020 -0.8730
  897MOL0     C20982  10.087   7.545   4.027  1.4097  0.2928 -0.7004
  897MOL0     C20983  10.219   7.538   3.954 -0.1632  0.5361 -0.8209
  897MOL0     O20984  10.236   7.414   3.904  0.8262  0.4610  0.2003
  897MOL0     C20985  10.226   7.391   3.772 -0.7544 -1.0924 -0.8092
  897MOL0     C20986  10.322   7.298   3.723 -0.0194  0.1379 -0.1417
  897MOL0     C20987  10.323   7.264   3.583  0.2251 -0.4216  0.8037
  897MOL0     C20988  10.222   7.311   3.501  0.6990  0.5430  0.4234
  897MOL0     C20989  10.219   7.277   3.359  0.0137  0.0733  0.3495
  897MOL0     O20990  10.129   7.348   3.296  0.6594  0.3682 -0.0979
  897MOL0     C20991  10.090   7.308   3.174  0.5588  0.1383 -0.0588
  897MOL0     C20992  10.086   7.406   3.078 -0.3021  0.9842 -0.2524
  897MOL0     C20993  10.039   7.372   2.950  0.4825  0.2750  0.1555
  897MOL0     C20994   9.981   7.244   2.919  0.3799 -0.1635  0.3955
  897MOL0     O20995   9.938   7.217   2.792 -0.3389  0.4977  0.2578
  897MOL0     C20996   9.818   7.283   2.764  0.8579  0.9113 -0.4818
  897MOL0     C20997   9.776   7.232   2.621 -0.4945  0.3330 -0.0661
  897MOL0     C20998   9.650   7.326   2.587 -0.5288  0.8078  0.2191
  897MOL0     C20999   9.684   7.459   2.514  0.5091 -0.4659 -0.5477
  897MOL0     C21000   9.559   7.541   2.487  0.6467 -0.6250  0.2545
  897MOL0     C21001   9.446   7.465   2.415  0.0497 -0.6177  0.0075
  897MOL0     C21002   9.469   7.418   2.265  0.6962  1.3971 -0.2047
  897MOL0     C21003   9.514   7.524   2.168  0.4599 -0.5854 -0.3485
  897MOL0    Cl21004   9.681   7.587   2.200 -0.4780  0.1371 -0.6410
  897MOL0     C21005   9.983   7.158   3.024  1.8821  0.0382 -0.1947
  897MOL0     C21006  10.040   7.179   3.154  0.6080  0.3972  0.3466
  897MOL0     O21007  10.291   7.193   3.306  0.2296 -0.3954  0.8640
  897MOL0     C21008  10.137   7.413   3.555  1.0803 -0.1190  0.2523
  897MOL0     C21009  10.143   7.457   3.683  0.3779 -1.2541 -0.2944
  897MOL0     N21010  10.034   7.296   4.427  0.1728 -0.6803  0.5951
  897MOL0     N21011   9.981   7.206   4.497 -0.5838  0.1583  0.2131
  897MOL0     C21012   8.994   6.479   4.777 -0.0401  0.3835 -0.0828
  897MOL0     C21013   8.888   6.395   4.752  0.2118  0.1766 -0.0500
  897MOL0     C21014   8.488   6.209   4.721  0.7883  0.2153  0.5532
  897MOL0     C21015   8.491   6.162   4.586 -0.2972  0.4066 -0.8607
  897MOL0     C21016   8.376   6.095   4.526  0.2727 -0.1778  0.1900
  897MOL0     C21017   8.268   6.069   4.605  0.2652 -0.2348  0.4649
  897MOL0     O21018   8.176   6.002   4.532  0.4078  0.2225 -0.1242
  897MOL0     C21019   8.052   5.984   4.606  0.1110 -0.3137 -0.5359
  897MOL0     C21020   7.936   5.944   4.515 -0.3339 -0.5996  0.1814
  897MOL0     C21021   7.804   5.922   4.583 -0.7298 -0.0678  0.3356
  897MOL0     C21022   7.803   5.827   4.703  0.4271 -0.2735 -0.6689
  897MOL0     C21023   7.672   5.849   4.759  0.0020 -0.4582  0.4620
  897MOL0     C21024   7.564   5.888   4.797  0.1578 -0.1549  0.3787
  897MOL0     C21025   8.273   6.094   4.749 -0.0646  0.0270  0.1093
  897MOL0     C21026   8.380   6.160   4.804 -0.4172 -0.2990  0.0040
  897MOL0     C21027   8.374   6.194   4.951  0.2160 -0.0798  0.3350
  897MOL0     H21028   8.684   6.622   4.599 -1.3532  0.4699  0.3083
  897MOL0     H21029   8.854   6.773   4.653 -3.4822 -0.5892 -0.7464
  897MOL0     H21030   9.152   6.755   4.613  3.9551  2.1743  0.3478
  897MOL0     H21031   9.073   6.884   4.701  0.1787  0.7333 -1.8639
  897MOL0     H21032   9.331   6.738   4.760 -0.0326 -0.5650  1.1176
  897MOL0     H21033   9.286   6.877   4.854  1.7253 -2.5894  0.4165
  897MOL0     H21034   9.233   6.989   4.621 -1.5176 -0.2858  0.8204
  897MOL0     H21035   9.351   6.864   4.574 -2.0648 -0.5994  0.2514
  897MOL0     H21036   9.466   7.080   4.621  1.8051 -0.9107 -0.5488
  897MOL0     H21037   9.394   7.074   4.785  1.9018  1.6918 -0.4024
  897MOL0     H21038   9.558   6.872   4.820  2.1872  0.0823  0.3433
  897MOL0     H21039   9.606   6.883   4.658  2.0070  2.0131 -2.0433
  897MOL0     H21040   9.621   7.142   4.783 -0.4544 -0.2960  1.2803
  897MOL0     H21041   9.708   7.033   4.877 -2.0213 -1.7518 -0.0758
  897MOL0     H21042   9.852   6.984   4.648  1.6566  1.5590 -1.1799
  897MOL0     H21043   9.859   7.137   4.722  1.9750 -1.2413  0.6044
  897MOL0     H21044   9.712   7.074   4.474  2.5392 -0.0257 -0.3565
  897MOL0     H21045   9.651   7.214   4.574 -1.7283 -1.2311  0.8172
  897MOL0     H21046   9.730   7.358   4.340 -2.7988  0.0305  2.9158
  897MOL0     H21047   9.882   7.490   4.182 -0.9014 -1.8613  0.8337
  897MOL0     H21048   9.993   7.579   4.292  0.2266  0.6828 -0.8412
  897MOL0     H21049  10.184   7.465   4.212 -0.9043  2.4957  0.8438
  897MOL0     H21050  10.088   7.344   4.133 -0.7656 -0.6932  2.5022
  897MOL0     H21051  10.062   7.647   4.060  2.4898  0.2364  0.3781
  897MOL0     H21052  10.005   7.513   3.963  0.9697  0.9326 -0.4661
  897MOL0     H21053  10.304   7.563   4.019 -1.1935 -1.7638  1.6322
  897MOL0     H21054  10.212   7.609   3.871  0.9161 -0.4735 -1.8184
  897MOL0     H21055  10.404   7.267   3.786  2.0953  1.3961 -2.1173
  897MOL0     H21056  10.402   7.205   3.536  0.7350  0.8598 -0.0094
  897MOL0     H21057  10.100   7.507   3.113 -0.8678  0.0311  3.1418
  897MOL0     H21058  10.033   7.448   2.873 -3.7447 -0.3171 -0.3254
  897MOL0     H21059   9.741   7.249   2.834 -1.1245 -2.2278 -3.8099
  897MOL0     H21060   9.832   7.392   2.754  2.3508  0.9817  1.7440
  897MOL0     H21061   9.855   7.253   2.548 -2.8332  0.2524 -2.8118
  897MOL0     H21062   9.751   7.125   2.619  0.2823  0.1099  1.4584
  897MOL0     H21063   9.597   7.266   2.513  2.2327 -0.3041 -1.0125
  897MOL0     H21064   9.583   7.345   2.672 -0.9594 -1.5790  0.4893
  897MOL0     H21065   9.738   7.433   2.423  2.0347 -0.9303  0.4706
  897MOL0     H21066   9.753   7.520   2.572 -0.9327 -0.5961  1.4005
  897MOL0     H21067   9.586   7.630   2.430  0.5719 -0.2395  0.8167
  897MOL0     H21068   9.517   7.572   2.583 -0.5081  0.8348 -0.6763
  897MOL0     H21069   9.426   7.372   2.469  0.3688 -0.5799  0.1913
  897MOL0     H21070   9.359   7.531   2.416  1.4084  1.2565 -0.1801
  897MOL0     H21071   9.369   7.385   2.235  0.3349  3.2162 -1.1780
  897MOL0     H21072   9.540   7.335   2.259 -0.7917 -0.3178  2.9782
  897MOL0     H21073   9.515   7.489   2.065  0.0204 -1.2315 -0.1384
  897MOL0     H21074   9.434   7.596   2.189  2.7195  0.9873  4.1052
  897MOL0     H21075   9.950   7.062   2.986 -0.0290  0.8236 -0.6716
  897MOL0     H21076  10.022   7.104   3.231  1.3481  2.0416  2.2087
  897MOL0     H21077  10.081   7.482   3.492  1.8181 -0.2250 -0.5459
  897MOL0     H21078  10.079   7.535   3.722  2.2196  0.3334 -0.3042
  897MOL0     H21079   9.086   6.440   4.820 -0.5378 -0.4783  0.2175
  897MOL0     H21080   8.888   6.291   4.781 -0.0032  0.0565 -0.4791
  897MOL0     H21081   8.569   6.183   4.514 -0.2620 -1.0624 -1.2833
  897MOL0     H21082   8.370   6.075   4.419  0.6712  1.5398 -0.1743
  897MOL0     H21083   8.023   6.080   4.650 -0.9997 -1.0127  0.3241
  897MOL0     H21084   8.075   5.907   4.681  1.8100  1.2496  0.6482
  897MOL0     H21085   7.972   5.852   4.469 -0.1061 -0.0822 -0.6941
  897MOL0     H21086   7.920   6.026   4.444  1.2127  0.9990  1.6081
  897MOL0     H21087   7.735   5.890   4.504 -1.4236  2.5667 -0.2110
  897MOL0     H21088   7.762   6.019   4.610 -4.5496 -1.1490 -1.0376
  897MOL0     H21089   7.810   5.722   4.671  0.2159 -0.2555 -0.7751
  897MOL0     H21090   7.879   5.848   4.780 -0.0723 -4.4283  1.2753
  897MOL0     H21091   7.475   5.921   4.848 -1.2047 -4.3213  1.0441
  897MOL0     H21092   8.196   6.062   4.819 -0.9588  2.5431  0.3561
  897MOL0     H21093   8.272   6.183   4.987  1.1782  0.2936  3.5270
  897MOL0     H21094   8.420   6.111   5.007 -1.8641 -0.2984  1.8404
  897MOL0     H21095   8.416   6.291   4.979 -0.7023  1.1912 -2.4007
  898MOL0     O21096   7.323   4.195   0.981  1.0429 -0.0116 -0.7966
  898MOL0     C21097   7.287   4.079   0.995  0.9507  0.6854 -0.3897
  898MOL0     O21098   7.365   3.977   1.038  0.1083  0.3745 -0.2167
  898MOL0     C21099   7.499   4.005   1.072 -0.4847  0.0867  0.4640
  898MOL0     C21100   7.605   3.972   0.988  0.3429  0.5807  0.4739
  898MOL0     C21101   7.734   4.002   1.014 -0.9044 -0.1814  0.4614
  898MOL0     C21102   7.766   4.051   1.143 -0.5331  0.7864  0.6775
  898MOL0     O21103   7.891   4.085   1.190  0.3171 -0.3636  0.2060
  898MOL0     C21104   7.997   4.003   1.145  0.5173  0.1822  0.0934
  898MOL0     C21105   8.126   4.049   1.212 -0.9470  0.2341  0.5897
  898MOL0     C21106   8.131   4.056   1.368  0.3875  0.1573  0.4279
  898MOL0     C21107   8.276   4.081   1.421 -0.5260 -0.3089 -0.4246
  898MOL0     C21108   8.272   4.097   1.578 -0.2087 -0.6760 -0.1458
  898MOL0     C21109   8.339   4.234   1.627 -0.1082 -0.4999  0.0276
  898MOL0     C21110   8.406   4.220   1.766  0.0899 -0.1802  0.1099
  898MOL0     C21111   8.497   4.103   1.787 -0.3172 -0.4821  0.4234
  898MOL0     N21112   8.576   4.114   1.910 -0.0524  0.3289 -0.3887
  898MOL0     C21113   8.712   4.149   1.914 -0.2980  0.0600 -0.3094
  898MOL0     C21114   8.745   4.156   2.050  1.1319 -0.5644 -0.7712
  898MOL0     C21115   8.881   4.187   2.125  0.3527 -0.1519 -0.1520
  898MOL0     C21116   8.967   4.292   2.048  0.0651  0.0636 -0.0380
  898MOL0     C21117   9.076   4.353   2.147  0.1066 -1.0078  0.5535
  898MOL0     C21118   9.199   4.410   2.077  0.0230 -0.1579  0.5027
  898MOL0     O21119   9.285   4.479   2.168  0.6367 -0.1374 -0.2505
  898MOL0     C21120   9.406   4.516   2.140 -1.0199 -0.1360  0.2295
  898MOL0     C21121   9.466   4.491   2.011 -0.3703 -0.3528 -0.1052
  898MOL0     C21122   9.600   4.537   1.986 -0.0981 -1.0232  0.0458
  898MOL0     C21123   9.675   4.601   2.089  0.2701  0.2489 -0.1252
  898MOL0     C21124   9.808   4.649   2.063 -0.4642  0.3198  0.1888
  898MOL0     O21125   9.856   4.658   1.928  0.1251 -1.2505 -0.0662
  898MOL0     C21126   9.992   4.685   1.889  0.4775 -0.3825 -0.3556
  898MOL0     C21127  10.100   4.631   1.956 -0.9926  0.6081 -0.2552
  898MOL0     C21128  10.235   4.670   1.917 -0.1441  0.4702  0.1406
  898MOL0     C21129  10.249   4.753   1.809  0.0802  0.4340  0.4899
  898MOL0     O21130  10.370   4.795   1.761 -0.0608 -0.4813  0.2087
  898MOL0     C21131  10.488   4.724   1.780 -0.4945 -0.2826 -0.9958
  898MOL0     C21132  10.599   4.809   1.726 -0.1042  0.1989  0.1796
  898MOL0     C21133  10.739   4.746   1.742  0.6947  0.4615 -0.2274
  898MOL0     C21134  10.834   4.829   1.655  1.0418  0.3581 -0.5357
  898MOL0     C21135  10.980   4.802   1.694 -0.2951  0.5907 -0.7386
  898MOL0     C21136  11.078   4.892   1.608 -0.2979 -0.4704  0.4122
  898MOL0     C21137  11.223   4.880   1.671  0.8963  0.9112 -0.1461
  898MOL0     C21138  11.324   4.959   1.579  0.4882 -0.2508 -0.6975
  898MOL0    Cl21139  11.488   4.952   1.656  0.8442  0.2060 -0.4862
  898MOL0     C21140  10.135   4.809   1.746 -0.0857  0.1939  0.0010
  898MOL0     C21141  10.007   4.774   1.786 -0.0297  0.3639 -0.1243
  898MOL0     O21142   9.881   4.655   2.160 -0.4923 -0.0868  0.3479
  898MOL0     C21143   9.615   4.615   2.211  0.0857  0.0406 -0.2088
  898MOL0     C21144   9.484   4.579   2.236 -0.6938 -0.6393  0.1783
  898MOL0     N21145   8.625   4.118   2.121 -0.0617 -0.1761  0.8436
  898MOL0     N21146   8.531   4.097   2.035 -0.1668  0.1572  0.9255
  898MOL0     C21147   7.664   4.076   1.235  0.3762  0.2126  0.1000
  898MOL0     C21148   7.533   4.057   1.198 -0.0104  0.0396 -0.2450
  898MOL0     C21149   7.142   4.032   0.971 -1.0911  0.9195 -0.4860
  898MOL0     C21150   7.091   3.916   1.036 -0.2368  0.7091  0.2648
  898MOL0     C21151   6.961   3.872   1.010 -0.5573  0.4860  0.1725
  898MOL0     C21152   6.871   3.938   0.924  0.1630 -0.2006  0.0043
  898MOL0     O21153   6.742   3.888   0.920 -0.0079  0.3796 -0.5390
  898MOL0     C21154   6.649   3.940   0.822  0.4405  0.4159 -0.0363
  898MOL0     C21155   6.517   3.863   0.845 -0.3168  0.1590  0.3008
  898MOL0     C21156   6.455   3.896   0.985 -0.5396 -0.7972  0.2053
  898MOL0     C21157   6.327   3.800   0.998 -0.6054 -0.5222 -0.2924
  898MOL0     C21158   6.357   3.692   1.100  0.2639 -0.6245 -0.5258
  898MOL0     C21159   6.386   3.601   1.177 -0.4936  0.1381  0.1025
  898MOL0     C21160   6.929   4.046   0.855 -0.1060 -0.7222  0.1437
  898MOL0     C21161   7.066   4.096   0.873 -0.0074  0.1923  0.2577
  898MOL0     C21162   7.124   4.210   0.788  0.4298 -0.0486  0.7724
  898MOL0     H21163   7.582   3.954   0.883  2.2447  0.2624  0.0832
  898MOL0     H21164   7.798   3.998   0.927 -1.3180  0.8226  0.0944
  898MOL0     H21165   7.973   3.903   1.183  0.5047 -0.0224 -0.4493
  898MOL0     H21166   8.008   4.004   1.036  0.9028 -2.6788  0.0190
  898MOL0     H21167   8.150   4.148   1.172 -2.8374  1.4266  2.1966
  898MOL0     H21168   8.203   3.979   1.179  0.6749  2.9422 -1.8031
  898MOL0     H21169   8.087   3.968   1.416  1.9274 -0.2099  1.2041
  898MOL0     H21170   8.062   4.137   1.392 -1.6347 -1.1270 -0.7360
  898MOL0     H21171   8.336   3.992   1.397  0.2857  0.2780 -0.6053
  898MOL0     H21172   8.325   4.168   1.376 -0.8892  0.2163  0.1884
  898MOL0     H21173   8.170   4.091   1.618 -0.9309  1.1150 -1.5951
  898MOL0     H21174   8.334   4.012   1.608  2.1411  0.3419 -1.8009
  898MOL0     H21175   8.413   4.263   1.552  1.0912 -1.9078  0.6152
  898MOL0     H21176   8.267   4.316   1.636 -1.4691 -1.4357 -1.7240
  898MOL0     H21177   8.332   4.215   1.846  1.0900 -1.4196  0.9935
  898MOL0     H21178   8.460   4.315   1.769 -0.8419  0.5398 -2.7194
  898MOL0     H21179   8.433   4.016   1.804  2.7016 -2.8245  0.5998
  898MOL0     H21180   8.557   4.095   1.697 -0.9530  1.8812 -0.2648
  898MOL0     H21181   8.769   4.179   1.827  0.9717  0.8175  0.7483
  898MOL0     H21182   8.858   4.222   2.226  2.9739 -0.8505  0.7646
  898MOL0     H21183   8.933   4.091   2.132 -0.0308 -0.3042  0.7985
  898MOL0     H21184   9.014   4.248   1.960 -1.8657  0.4478 -1.3328
  898MOL0     H21185   8.912   4.377   2.008 -0.1311  1.2332  2.4986
  898MOL0     H21186   9.122   4.282   2.216  1.6708  0.4167  1.0565
  898MOL0     H21187   9.030   4.436   2.202 -1.8848 -0.4543 -1.7334
  898MOL0     H21188   9.173   4.478   1.994  4.0105 -1.1475 -1.8120
  898MOL0     H21189   9.249   4.330   2.023 -0.8298  1.1155 -2.3790
  898MOL0     H21190   9.420   4.422   1.941  2.1044 -0.4866 -1.7295
  898MOL0     H21191   9.650   4.506   1.895 -1.8747 -0.7740 -1.0591
  898MOL0     H21192  10.084   4.553   2.029 -0.3782 -0.0837 -0.8362
  898MOL0     H21193  10.317   4.620   1.967 -1.1576 -3.9475 -2.0756
  898MOL0     H21194  10.498   4.706   1.888  1.3662  2.3438 -0.6418
  898MOL0     H21195  10.490   4.628   1.729 -0.5909  0.3188 -2.1494
  898MOL0     H21196  10.579   4.828   1.620  0.0040 -0.3737  0.0558
  898MOL0     H21197  10.605   4.906   1.776  1.3138  1.3682 -2.0716
  898MOL0     H21198  10.757   4.754   1.849 -3.5726 -2.4389  0.9799
  898MOL0     H21199  10.741   4.641   1.710 -0.0575  0.2409  0.4250
  898MOL0     H21200  10.806   4.933   1.674 -1.8424 -0.0560 -1.8834
  898MOL0     H21201  10.811   4.815   1.549 -2.3779  2.3419 -0.2264
  898MOL0     H21202  10.993   4.695   1.676  0.0498  0.6162 -0.6598
  898MOL0     H21203  11.002   4.815   1.800  1.6577 -1.5466 -0.7800
  898MOL0     H21204  11.076   4.872   1.501  2.3992  1.0071  0.0022
  898MOL0     H21205  11.044   4.995   1.605  0.4199 -0.2422 -0.1621
  898MOL0     H21206  11.252   4.774   1.671 -1.4122  0.2128  0.6603
  898MOL0     H21207  11.221   4.917   1.774 -1.3920  1.2898 -0.2690
  898MOL0     H21208  11.324   4.901   1.486 -2.4130 -0.6453 -0.5422
  898MOL0     H21209  11.296   5.063   1.557  1.0324  0.6639  2.4821
  898MOL0     H21210  10.142   4.887   1.671  0.7283  0.9902  0.8866
  898MOL0     H21211   9.914   4.812   1.746 -0.8784  0.9968  2.2858
  898MOL0     H21212   9.672   4.663   2.289  1.2520 -2.2566  0.4448
  898MOL0     H21213   9.439   4.595   2.334 -1.4072  1.5406 -0.4442
  898MOL0     H21214   7.693   4.101   1.337  3.8399 -1.4644 -0.3268
  898MOL0     H21215   7.448   4.073   1.263 -1.3245  1.0653 -2.1051
  898MOL0     H21216   7.144   3.865   1.115  0.5438 -1.9677 -1.7979
  898MOL0     H21217   6.934   3.781   1.063  0.6938 -0.5321 -0.8711
  898MOL0     H21218   6.694   3.917   0.726 -0.5296 -0.4794 -0.2964
  898MOL0     H21219   6.644   4.049   0.838  1.2542  0.4492  0.0269
  898MOL0     H21220   6.529   3.756   0.828  0.6709  0.6637 -2.7584
  898MOL0     H21221   6.450   3.904   0.769  0.3906 -0.5549 -0.7326
  898MOL0     H21222   6.424   4.001   0.985 -0.1480 -0.6688 -0.7834
  898MOL0     H21223   6.528   3.890   1.066 -1.9651 -0.5457  1.5576
  898MOL0     H21224   6.241   3.856   1.036 -0.1446  0.3499 -0.4842
  898MOL0     H21225   6.305   3.761   0.898 -0.4022  0.3522 -0.6937
  898MOL0     H21226   6.418   3.514   1.230 -1.0408 -0.7675 -1.0162
  898MOL0     H21227   6.867   4.116   0.801  1.3946 -1.1148 -2.2369
  898MOL0     H21228   7.219   4.180   0.742  1.2474 -0.1681  2.4677
  898MOL0     H21229   7.053   4.242   0.710  1.4435  2.5067  0.7807
  898MOL0     H21230   7.142   4.302   0.844 -0.2304 -0.7127  2.0987
  899MOL0     O21231   0.043   1.057   7.117 -0.2049 -0.0923 -0.6314
  899MOL0     C21232   0.003   0.946   7.136  0.4002 -0.3296  0.7022
  899MOL0     O21233   0.069   0.850   7.205  0.0546  0.0142 -0.1466
  899MOL0     C21234   0.198   0.894   7.247  0.1811 -0.3195  0.1253
  899MOL0     C21235   0.224   0.980   7.361  0.6414 -0.0905 -0.4098
  899MOL0     C21236   0.350   1.041   7.385 -0.4756 -0.0763 -0.8683
  899MOL0     C21237   0.453   1.019   7.297  0.0001 -0.5629 -0.1464
  899MOL0     O21238   0.568   1.093   7.326  0.5712 -0.1619 -1.0367
  899MOL0     C21239   0.683   1.063   7.249  0.0418  0.5142  0.1194
  899MOL0     C21240   0.810   1.127   7.302 -0.0399  0.3926 -0.2002
  899MOL0     C21241   0.815   1.126   7.455 -0.3602 -0.5835  0.3789
  899MOL0     C21242   0.952   1.155   7.506 -0.0218  0.8303  0.3727
  899MOL0     C21243   0.956   1.191   7.656 -0.2023  0.6059  0.2128
  899MOL0     C21244   1.100   1.178   7.715  0.1046  0.1329 -0.0307
  899MOL0     C21245   1.202   1.273   7.644 -0.0137  0.4152 -0.5699
  899MOL0     C21246   1.156   1.419   7.641  0.6565  0.4051 -0.0774
  899MOL0     N21247   1.257   1.493   7.562 -0.0033  0.4233  0.4083
  899MOL0     C21248   1.334   1.593   7.600 -0.1483 -0.9462  0.1340
  899MOL0     C21249   1.413   1.622   7.492  0.3182 -0.0159  0.2902
  899MOL0     C21250   1.505   1.741   7.475 -0.6399  0.5040 -0.0198
  899MOL0     C21251   1.651   1.703   7.523  0.7296 -0.4369 -0.0561
  899MOL0     C21252   1.748   1.822   7.517 -1.3806  0.0869  0.0281
  899MOL0     C21253   1.884   1.789   7.595  0.9195  0.3181  0.3379
  899MOL0     O21254   1.939   1.913   7.623  0.7021  0.1723  0.0635
  899MOL0     C21255   2.078   1.912   7.634 -0.3997 -0.6409 -0.3512
  899MOL0     C21256   2.159   2.034   7.616  1.9460  0.7630  0.0781
  899MOL0     C21257   2.292   2.036   7.645 -0.9232 -0.3525  0.2516
  899MOL0     C21258   2.359   1.916   7.693  0.4021  0.9230  0.4973
  899MOL0     C21259   2.502   1.911   7.715 -0.3478  0.3439 -0.4594
  899MOL0     O21260   2.558   1.793   7.756 -0.1907 -0.6112 -0.5887
  899MOL0     C21261   2.699   1.799   7.783  0.2221 -0.4459 -0.5915
  899MOL0     C21262   2.794   1.780   7.679 -0.2075  0.0311 -0.3606
  899MOL0     C21263   2.933   1.791   7.708 -0.3568 -0.2973  0.1255
  899MOL0     C21264   2.976   1.812   7.840 -0.1966 -0.1535 -0.3105
  899MOL0     O21265   3.114   1.847   7.871 -0.3781  0.5344  0.2569
  899MOL0     C21266   3.215   1.868   7.771 -0.0783 -0.6904  0.1445
  899MOL0     C21267   3.336   1.926   7.837 -0.6629  1.2096  0.2118
  899MOL0     C21268   3.326   2.070   7.894  0.3258  1.3678 -0.3989
  899MOL0     C21269   3.452   2.104   7.970 -0.6912  0.0180 -0.0906
  899MOL0     C21270   3.424   2.247   8.035 -0.2541  1.6153 -1.1968
  899MOL0     C21271   3.333   2.245   8.161 -0.3947  1.1925 -0.1703
  899MOL0     C21272   3.270   2.385   8.203  0.5249 -0.0071  0.6766
  899MOL0     C21273   3.354   2.450   8.306  0.2202  0.4423 -0.6736
  899MOL0    Cl21274   3.294   2.381   8.469 -0.0949  0.3653  0.0353
  899MOL0     C21275   2.880   1.814   7.940 -0.0927 -1.3015 -0.7714
  899MOL0     C21276   2.739   1.808   7.911 -0.3325 -0.1888 -0.1325
  899MOL0     O21277   2.573   2.004   7.678  0.2808  0.0717  0.3794
  899MOL0     C21278   2.282   1.799   7.715  1.1260  0.5948 -0.8734
  899MOL0     C21279   2.143   1.798   7.685 -0.1385 -0.4833 -0.6152
  899MOL0     N21280   1.378   1.544   7.380  0.7277 -0.1998  0.3280
  899MOL0     N21281   1.288   1.460   7.432 -0.7362  0.4814 -0.1017
  899MOL0     C21282   0.433   0.933   7.185 -0.5185  1.2790  0.6196
  899MOL0     C21283   0.302   0.881   7.156  0.2931 -0.2246 -0.1359
  899MOL0     C21284  -0.124   0.900   7.085 -0.3236 -0.8455 -0.3929
  899MOL0     C21285  -0.128   0.778   7.005  0.1656  0.1052 -0.6491
  899MOL0     C21286  -0.254   0.718   6.968 -0.3613 -0.5338  0.3604
  899MOL0     C21287  -0.368   0.789   6.988  0.0039  0.0895  0.0508
  899MOL0     O21288  -0.476   0.717   6.955  1.1196  0.3531  0.3066
  899MOL0     C21289  -0.610   0.757   6.991  0.7536 -0.5540  0.9324
  899MOL0     C21290  -0.650   0.863   6.892  0.2822  0.0140  0.2266
  899MOL0     C21291  -0.803   0.891   6.896  0.4068 -0.5671 -0.6249
  899MOL0     C21292  -0.857   0.911   7.037  0.7636 -0.5050  0.2348
  899MOL0     C21293  -1.000   0.903   7.028  0.1792 -0.3137 -0.1720
  899MOL0     C21294  -1.122   0.897   7.029 -0.4888  0.0774  0.1798
  899MOL0     C21295  -0.365   0.914   7.062  0.3039  0.6294 -1.0466
  899MOL0     C21296  -0.243   0.965   7.108  0.1373  0.0144 -0.2670
  899MOL0     C21297  -0.259   1.100   7.176 -0.2815  1.0220  0.0869
  899MOL0     H21298   0.135   1.001   7.419 -0.1974 -1.4849 -1.1283
  899MOL0     H21299   0.369   1.112   7.465  0.7137 -1.7748  0.4348
  899MOL0     H21300   0.701   0.955   7.249  1.5724  0.7151 -2.0591
  899MOL0     H21301   0.651   1.100   7.151  1.4716  3.2384  0.5891
  899MOL0     H21302   0.804   1.231   7.271  1.9695  0.1951 -1.3448
  899MOL0     H21303   0.896   1.074   7.260 -0.2172 -2.2152  2.3583
  899MOL0     H21304   0.778   1.034   7.501  2.3264 -2.2342 -0.5086
  899MOL0     H21305   0.745   1.205   7.484  0.4705 -0.8547  3.4574
  899MOL0     H21306   1.023   1.073   7.496  1.4790  1.8491  2.1408
  899MOL0     H21307   0.989   1.242   7.450 -0.4869  1.0088  0.3353
  899MOL0     H21308   0.897   1.280   7.682  0.2710  1.2822 -0.9708
  899MOL0     H21309   0.902   1.112   7.709  3.6395 -2.4776  0.0390
  899MOL0     H21310   1.102   1.192   7.823  2.9151 -0.9069  0.1206
  899MOL0     H21311   1.134   1.076   7.698  0.2812  0.4860 -2.1103
  899MOL0     H21312   1.232   1.238   7.544  1.7018 -0.1896  0.1149
  899MOL0     H21313   1.295   1.285   7.701  0.8668 -1.0574 -1.6112
  899MOL0     H21314   1.058   1.421   7.592  1.1301 -2.0966 -1.2505
  899MOL0     H21315   1.148   1.461   7.742  1.2902  1.7191 -0.5456
  899MOL0     H21316   1.340   1.639   7.698  0.6484 -1.3569  0.2850
  899MOL0     H21317   1.503   1.772   7.370  1.1673 -1.0824 -0.5757
  899MOL0     H21318   1.475   1.826   7.537  1.8108  0.4597  1.3583
  899MOL0     H21319   1.654   1.665   7.625  3.5599 -2.3874 -0.7390
  899MOL0     H21320   1.685   1.617   7.463  3.5986  1.3871 -1.2338
  899MOL0     H21321   1.700   1.916   7.545 -0.3729 -0.0992  2.5859
  899MOL0     H21322   1.790   1.842   7.417  2.1429 -1.3634  1.0377
  899MOL0     H21323   1.941   1.716   7.538 -0.7662 -0.2272 -0.7322
  899MOL0     H21324   1.850   1.750   7.692 -0.6736  1.1774  0.1721
  899MOL0     H21325   2.103   2.125   7.597  0.4482  0.2536  1.7127
  899MOL0     H21326   2.349   2.127   7.626  0.1878 -1.6851 -3.7774
  899MOL0     H21327   2.760   1.751   7.581  0.5900  2.5306 -1.4719
  899MOL0     H21328   3.003   1.779   7.627 -0.0379  0.2837  0.3054
  899MOL0     H21329   3.234   1.774   7.717 -1.7855 -1.1093  0.2302
  899MOL0     H21330   3.189   1.938   7.691  0.5787 -1.8391 -1.1408
  899MOL0     H21331   3.358   1.865   7.925 -0.2390  1.8916  0.5886
  899MOL0     H21332   3.420   1.919   7.769 -1.7656 -0.1331 -1.0729
  899MOL0     H21333   3.321   2.133   7.805  3.9517  1.5222 -0.6368
  899MOL0     H21334   3.235   2.076   7.954  0.4008  1.0515 -0.2499
  899MOL0     H21335   3.539   2.127   7.907 -0.3946 -1.4745 -0.2598
  899MOL0     H21336   3.478   2.032   8.048  0.3467  0.7907  0.3005
  899MOL0     H21337   3.382   2.326   7.971 -0.8747  1.3983 -1.0647
  899MOL0     H21338   3.519   2.295   8.060  0.4475  0.1468 -0.9545
  899MOL0     H21339   3.250   2.178   8.138 -0.6646  1.6100 -0.4034
  899MOL0     H21340   3.388   2.201   8.245  0.6141  3.0812  0.1982
  899MOL0     H21341   3.167   2.370   8.235 -3.4624  3.8287 -7.3735
  899MOL0     H21342   3.251   2.448   8.116 -3.1853 -0.6582  0.8685
  899MOL0     H21343   3.460   2.426   8.291  0.3871  0.8107 -0.0839
  899MOL0     H21344   3.336   2.557   8.307 -0.5939  0.3172  0.5324
  899MOL0     H21345   2.907   1.826   8.044  2.6720 -2.2850 -1.2875
  899MOL0     H21346   2.661   1.803   7.987 -0.6958 -1.7051 -0.5773
  899MOL0     H21347   2.317   1.714   7.772 -2.7001 -0.5917 -0.0034
  899MOL0     H21348   2.096   1.702   7.705  0.3549 -1.0188 -1.9470
  899MOL0     H21349   0.508   0.911   7.110 -1.2175  0.7903  0.0480
  899MOL0     H21350   0.272   0.825   7.069 -0.1890 -0.9112  0.4660
  899MOL0     H21351  -0.033   0.735   6.978  1.1043  0.4570  1.7867
  899MOL0     H21352  -0.255   0.624   6.913 -0.5569 -0.9237  1.0095
  899MOL0     H21353  -0.614   0.796   7.093  1.3900 -0.1110  0.7907
  899MOL0     H21354  -0.685   0.678   6.983 -1.3541  1.5155 -1.4343
  899MOL0     H21355  -0.628   0.836   6.788  0.0583  3.4442 -0.8400
  899MOL0     H21356  -0.602   0.957   6.921  0.0434 -0.1081  1.0493
  899MOL0     H21357  -0.861   0.810   6.852 -1.2684  0.5219 -0.5087
  899MOL0     H21358  -0.818   0.982   6.837 -1.3079 -1.1255 -1.1098
  899MOL0     H21359  -0.835   0.826   7.101 -0.1178  0.4696  1.8947
  899MOL0     H21360  -0.826   1.004   7.084  1.7656 -0.4221 -0.5419
  899MOL0     H21361  -1.229   0.900   7.038 -0.5995  2.8004 -1.0511
  899MOL0     H21362  -0.459   0.968   7.068 -0.9121 -1.5066  0.8558
  899MOL0     H21363  -0.232   1.173   7.099 -2.5631 -2.8094 -4.9428
  899MOL0     H21364  -0.363   1.119   7.204  0.9896  2.5687  4.6735
  899MOL0     H21365  -0.205   1.100   7.271  0.1302 -0.9533 -0.1096
  900MOL0     O21366   2.173  10.571  10.998  0.3681  0.0143 -0.4657
  900MOL0     C21367   2.110  10.471  10.961  0.2892 -0.4767 -0.5092
  900MOL0     O21368   2.151  10.339  10.980 -0.3691 -0.0524  0.1345
  900MOL0     C21369   2.246  10.327  11.076  0.3986  0.5220  0.2219
  900MOL0     C21370   2.377  10.376  11.067 -0.1217  0.2793  0.1164
  900MOL0     C21371   2.461  10.359  11.181 -0.2869  0.8249  0.3726
  900MOL0     C21372   2.416  10.282  11.288  0.2123  0.0396  0.5392
  900MOL0     O21373   2.507  10.247  11.387 -0.1638 -0.0479  0.3682
  900MOL0     C21374   2.486  10.323  11.507  0.1234 -0.4839  0.6708
  900MOL0     C21375   2.556  10.252  11.622  1.3222  0.4697 -0.6472
  900MOL0     C21376   2.553  10.350  11.740  0.1605  0.3632  0.2690
  900MOL0     C21377   2.646  10.285  11.843 -0.6509  0.0425 -0.5308
  900MOL0     C21378   2.693  10.378  11.968  0.5239 -0.3470 -0.3049
  900MOL0     C21379   2.763  10.308  12.082  0.0557 -0.0333 -0.7269
  900MOL0     C21380   2.862  10.212  12.026 -0.0818 -1.1169 -0.1032
  900MOL0     C21381   2.947  10.134  12.127  0.1274  0.4652  0.4888
  900MOL0     N21382   2.998  10.211  12.235 -0.3191  0.9697  0.8175
  900MOL0     C21383   3.128  10.260  12.236  0.1302 -0.3489 -0.5040
  900MOL0     C21384   3.155  10.295  12.365  0.2065  0.2617  0.3226
  900MOL0     C21385   3.273  10.363  12.404 -0.9796 -0.0952 -0.6291
  900MOL0     C21386   3.294  10.499  12.337 -0.1728  0.6733 -0.0238
  900MOL0     C21387   3.397  10.585  12.414 -0.7728  0.0424  0.3703
  900MOL0     C21388   3.368  10.731  12.446  1.4632 -0.3521  0.2787
  900MOL0     O21389   3.413  10.830  12.355 -0.0413 -0.0250  0.7163
  900MOL0     C21390   3.520  10.899  12.395 -0.8436  0.0258 -0.0794
  900MOL0     C21391   3.522  11.031  12.367  0.2350 -0.5503 -0.6782
  900MOL0     C21392   3.642  11.114  12.391  0.5730  0.3002  0.3830
  900MOL0     C21393   3.754  11.065  12.456 -0.0957  0.1567 -0.3792
  900MOL0     C21394   3.873  11.138  12.497 -0.4174 -0.1571  0.2099
  900MOL0     O21395   3.982  11.063  12.529  0.0117 -0.0300  0.0589
  900MOL0     C21396   4.091  11.125  12.585 -1.3604 -0.1339 -0.6881
  900MOL0     C21397   4.090  11.168  12.722 -1.1110 -0.1036 -0.2790
  900MOL0     C21398   4.205  11.234  12.774  0.9006 -0.2237  1.1659
  900MOL0     C21399   4.318  11.263  12.694 -1.2611 -0.3782  0.1527
  900MOL0     O21400   4.421  11.328  12.758  0.9418  0.2331  0.1343
  900MOL0     C21401   4.474  11.445  12.687  0.3696  0.6462  0.0380
  900MOL0     C21402   4.625  11.446  12.676 -0.7496  0.1837  0.0171
  900MOL0     C21403   4.680  11.564  12.595  0.2942 -0.6181 -0.3474
  900MOL0     C21404   4.802  11.545  12.500  0.4274 -0.6697 -0.4283
  900MOL0     C21405   4.930  11.512  12.576  0.5069  0.5102 -0.0277
  900MOL0     C21406   5.013  11.419  12.487 -0.4297 -0.3453 -0.3841
  900MOL0     C21407   5.147  11.378  12.550 -0.0948  0.1238  0.1315
  900MOL0     C21408   5.258  11.337  12.451 -0.6091  0.3081 -0.5576
  900MOL0    Cl21409   5.301  11.470  12.347 -0.1882  0.3482  0.4443
  900MOL0     C21410   4.321  11.215  12.570  0.6384 -0.4185  0.0272
  900MOL0     C21411   4.205  11.145  12.509 -0.6152  1.3256 -0.4334
  900MOL0     O21412   3.870  11.267  12.494 -0.5562  0.4250  0.3389
  900MOL0     C21413   3.747  10.928  12.494  0.3077 -0.4311 -0.2703
  900MOL0     C21414   3.636  10.847  12.459  1.0897  0.6099  0.5259
  900MOL0     N21415   3.044  10.252  12.439  0.1977 -0.0869 -1.2136
  900MOL0     N21416   2.947  10.208  12.354 -0.5761  0.7865  0.1430
  900MOL0     C21417   2.284  10.238  11.291  0.0869 -0.5987  0.2643
  900MOL0     C21418   2.200  10.252  11.187  0.4125  0.6287  0.4205
  900MOL0     C21419   1.968  10.496  10.910 -0.1414 -0.3009 -0.3027
  900MOL0     C21420   1.884  10.384  10.888  0.1720 -0.2367  0.4433
  900MOL0     C21421   1.752  10.394  10.838  0.5463 -0.1124 -0.0392
  900MOL0     C21422   1.708  10.522  10.805 -0.4166  0.2033 -0.1945
  900MOL0     O21423   1.590  10.556  10.739 -0.3976  0.4471 -0.0730
  900MOL0     C21424   1.502  10.459  10.694 -0.0410  0.1978 -0.1697
  900MOL0     C21425   1.415  10.526  10.593  0.4164 -0.1768  0.3172
  900MOL0     C21426   1.481  10.595  10.460 -0.6650  0.8048 -0.3917
  900MOL0     C21427   1.379  10.653  10.360 -0.2553  0.9663  0.9488
  900MOL0     C21428   1.326  10.563  10.258 -0.1809  0.1740  0.0758
  900MOL0     C21429   1.285  10.486  10.171 -0.2213  0.1459  0.6684
  900MOL0     C21430   1.780  10.629  10.842  0.1029  1.1872  0.0642
  900MOL0     C21431   1.912  10.626  10.888  0.4539 -0.7756 -0.3556
  900MOL0     C21432   1.973  10.764  10.910 -0.8645 -0.1183 -1.2995
  900MOL0     H21433   2.421  10.429  10.983 -0.2237 -0.3541 -0.3445
  900MOL0     H21434   2.567  10.382  11.186  0.1459 -0.8788 -0.2656
  900MOL0     H21435   2.541  10.416  11.490 -0.0422 -0.5128 -0.0429
  900MOL0     H21436   2.380  10.344  11.524 -0.0673 -1.5562  0.8423
  900MOL0     H21437   2.649  10.219  11.576 -0.0547 -1.7857 -2.0099
  900MOL0     H21438   2.507  10.155  11.638  0.7261 -0.0795 -4.7434
  900MOL0     H21439   2.452  10.353  11.781 -1.6776  1.0025 -3.7994
  900MOL0     H21440   2.577  10.455  11.722  0.1880  0.5464  1.3279
  900MOL0     H21441   2.610  10.191  11.886 -0.6241 -0.8962 -2.4540
  900MOL0     H21442   2.743  10.263  11.798 -0.6272  0.0605 -0.4891
  900MOL0     H21443   2.772  10.442  11.927  2.2082 -1.9914  0.2123
  900MOL0     H21444   2.614  10.443  12.007  1.1795 -0.1922  0.8064
  900MOL0     H21445   2.807  10.387  12.143 -3.3999  2.2575 -0.8566
  900MOL0     H21446   2.694  10.253  12.147  1.2774  0.8541  1.3861
  900MOL0     H21447   2.924  10.267  11.954 -0.5226 -1.5481 -0.8283
  900MOL0     H21448   2.811  10.130  11.975 -2.1914 -0.6983  1.2436
  900MOL0     H21449   2.889  10.055  12.174  0.9858 -1.1473 -1.0699
  900MOL0     H21450   3.027  10.089  12.068 -1.3383 -0.7306 -0.6796
  900MOL0     H21451   3.189  10.281  12.149 -2.2801  1.4368 -1.8684
  900MOL0     H21452   3.263  10.393  12.508 -1.8242  0.3540 -0.8283
  900MOL0     H21453   3.359  10.300  12.380 -2.4179 -1.8667 -1.3564
  900MOL0     H21454   3.318  10.499  12.230 -1.4395 -0.3465 -0.3333
  900MOL0     H21455   3.201  10.555  12.356  0.2625  1.7138 -0.8756
  900MOL0     H21456   3.489  10.579  12.354  0.8100  1.9407  2.3919
  900MOL0     H21457   3.423  10.540  12.510 -0.6294  1.6865  1.1483
  900MOL0     H21458   3.392  10.757  12.550 -0.1538 -1.2375  0.9130
  900MOL0     H21459   3.259  10.734  12.450  1.3348 -2.5838 -0.4541
  900MOL0     H21460   3.434  11.082  12.331 -2.8139 -4.3615  0.7366
  900MOL0     H21461   3.630  11.213  12.348 -1.3957 -0.5690 -1.2291
  900MOL0     H21462   4.013  11.139  12.793  0.7185 -4.3098  0.3322
  900MOL0     H21463   4.198  11.251  12.881  1.1395  0.4534  1.0795
  900MOL0     H21464   4.422  11.458  12.591 -2.0487 -3.0035  0.6471
  900MOL0     H21465   4.452  11.531  12.750  0.9856  0.1892  0.8970
  900MOL0     H21466   4.652  11.443  12.782  0.0196 -0.8671 -0.2006
  900MOL0     H21467   4.667  11.352  12.639  0.2786 -0.0242  1.6029
  900MOL0     H21468   4.598  11.601  12.532 -0.4816  1.8195  1.9142
  900MOL0     H21469   4.702  11.640  12.670  1.3532 -2.1005  0.9038
  900MOL0     H21470   4.823  11.639  12.448 -5.1558  2.8665  2.6894
  900MOL0     H21471   4.770  11.480  12.418  4.7497 -1.0184 -2.0942
  900MOL0     H21472   4.903  11.471  12.674 -2.5327 -1.4672 -1.5143
  900MOL0     H21473   4.987  11.604  12.592 -0.6592  1.2936 -0.2716
  900MOL0     H21474   4.964  11.322  12.472  0.6333 -0.9887  0.1461
  900MOL0     H21475   5.024  11.456  12.384  2.6846 -1.3346 -0.4987
  900MOL0     H21476   5.130  11.292  12.615 -3.8972 -0.5463 -1.4889
  900MOL0     H21477   5.192  11.459  12.608 -1.0015 -0.0622  1.1181
  900MOL0     H21478   5.346  11.315  12.512 -0.3276 -1.0008 -1.4034
  900MOL0     H21479   5.230  11.245  12.398  0.6151  0.7795 -2.1136
  900MOL0     H21480   4.406  11.234  12.505 -2.0019 -0.5471 -3.8093
  900MOL0     H21481   4.216  11.097  12.413 -1.6870  2.4294 -1.1273
  900MOL0     H21482   3.825  10.876  12.549  1.4581  1.2712 -0.2290
  900MOL0     H21483   3.620  10.743  12.485 -1.1964  0.8613  0.3344
  900MOL0     H21484   2.254  10.165  11.366 -2.0083  0.8787  0.9328
  900MOL0     H21485   2.098  10.221  11.207  0.6892 -1.0442 -0.5927
  900MOL0     H21486   1.929  10.285  10.885  2.3273  0.6966 -1.5042
  900MOL0     H21487   1.688  10.309  10.818  0.0621  0.2515 -0.0626
  900MOL0     H21488   1.435  10.423  10.772 -1.3644 -1.0555 -1.8012
  900MOL0     H21489   1.547  10.373  10.644  0.9181  1.5911 -1.8330
  900MOL0     H21490   1.353  10.597  10.649 -0.9667  0.2244 -1.6300
  900MOL0     H21491   1.342  10.462  10.543 -1.7164  2.6076 -0.4538
  900MOL0     H21492   1.543  10.521  10.409  1.4292 -1.0770  4.3126
  900MOL0     H21493   1.546  10.676  10.493  0.2576  0.5012 -1.4056
  900MOL0     H21494   1.291  10.689  10.414 -1.1894 -0.2814  0.3052
  900MOL0     H21495   1.429  10.741  10.317  0.9554 -1.0251 -2.0564
  900MOL0     H21496   1.241  10.416  10.103 -1.4671 -0.1479  1.7381
  900MOL0     H21497   1.739  10.725  10.812  0.1224  1.2637  0.2852
  900MOL0     H21498   1.958  10.788  11.016 -2.3833 -0.6868 -1.3607
  900MOL0     H21499   2.079  10.759  10.883 -0.6405 -2.3507 -0.2668
  900MOL0     H21500   1.924  10.846  10.857  0.8516  2.1769  0.4844
  901MOL0     O21501   7.537   6.513   0.986  0.6343 -0.2765  0.4377
  901MOL0     C21502   7.439   6.467   1.055  0.4344 -0.7305  0.1123
  901MOL0     O21503   7.443   6.452   1.189 -0.4795  0.3385 -0.1246
  901MOL0     C21504   7.557   6.472   1.261 -0.3747 -0.7046  0.2386
  901MOL0     C21505   7.564   6.601   1.322  0.0422  0.1065  0.5405
  901MOL0     C21506   7.677   6.638   1.385 -0.2049  0.0406 -0.7110
  901MOL0     C21507   7.782   6.540   1.393  0.1154 -0.2084  0.0830
  901MOL0     O21508   7.878   6.573   1.488 -0.0286  0.4204  0.1255
  901MOL0     C21509   8.012   6.536   1.453 -0.8705  0.1075  0.5554
  901MOL0     C21510   8.076   6.672   1.481 -1.4206 -0.0320 -0.1897
  901MOL0     C21511   8.224   6.655   1.450  0.2407 -0.3352  0.4184
  901MOL0     C21512   8.262   6.705   1.308 -0.6411  0.1853  0.0467
  901MOL0     C21513   8.421   6.694   1.284 -0.4907 -0.3367  0.3038
  901MOL0     C21514   8.523   6.765   1.381  0.0800 -0.5745  0.7914
  901MOL0     C21515   8.675   6.720   1.348  0.9661 -0.5689 -0.9604
  901MOL0     C21516   8.774   6.760   1.447 -0.3507 -0.2969 -0.1898
  901MOL0     N21517   8.912   6.742   1.388 -0.0673 -0.3615  0.2115
  901MOL0     C21518   8.984   6.624   1.378 -0.5836 -0.2698 -0.1021
  901MOL0     C21519   9.104   6.667   1.338  0.5126  0.2738 -0.2930
  901MOL0     C21520   9.216   6.574   1.295  0.5933 -0.4124 -0.6437
  901MOL0     C21521   9.350   6.644   1.326 -0.0167  0.7197 -0.2829
  901MOL0     C21522   9.476   6.562   1.290  0.0876  0.4098 -0.0238
  901MOL0     C21523   9.599   6.643   1.323 -0.1196 -1.0934  0.7040
  901MOL0     O21524   9.712   6.567   1.281  0.0030 -0.1149  0.7518
  901MOL0     C21525   9.832   6.628   1.252 -0.1928 -0.1367 -0.3542
  901MOL0     C21526   9.923   6.574   1.163  0.4003  0.2474  0.0208
  901MOL0     C21527  10.044   6.636   1.128  0.1764 -0.1691 -0.4202
  901MOL0     C21528  10.077   6.758   1.187 -0.7316 -0.8929 -0.7617
  901MOL0     C21529  10.216   6.818   1.161  0.5235 -0.2491  0.4035
  901MOL0     O21530  10.317   6.731   1.142  0.7025  0.8570  0.0023
  901MOL0     C21531  10.447   6.762   1.154  0.0768  0.6755 -0.3805
  901MOL0     C21532  10.541   6.716   1.061  1.2025  0.4778 -0.1808
  901MOL0     C21533  10.676   6.759   1.057 -0.6087 -0.4960  0.3092
  901MOL0     C21534  10.716   6.838   1.163 -1.2470 -0.0014  0.2180
  901MOL0     O21535  10.850   6.877   1.156 -0.3823 -0.0458 -0.0264
  901MOL0     C21536  10.911   6.919   1.277  0.7036  0.2723  0.3608
  901MOL0     C21537  11.060   6.895   1.280  0.5289 -0.7190 -1.1687
  901MOL0     C21538  11.119   6.959   1.402 -0.3883  0.6065 -0.3506
  901MOL0     C21539  11.269   6.951   1.424 -0.4763 -0.0532  0.1193
  901MOL0     C21540  11.350   7.002   1.311  0.0431  1.5131  0.8466
  901MOL0     C21541  11.502   7.026   1.357 -0.4521 -0.0478 -0.1974
  901MOL0     C21542  11.598   7.080   1.249 -0.5743 -0.5101 -0.2342
  901MOL0     C21543  11.734   7.119   1.309 -0.8126  0.0686 -0.1996
  901MOL0    Cl21544  11.794   6.984   1.386  0.5106  0.0542 -0.2114
  901MOL0     C21545  10.624   6.868   1.265  0.1001 -0.6594 -0.9201
  901MOL0     C21546  10.486   6.830   1.263 -0.7514 -0.7441 -0.6943
  901MOL0     O21547  10.225   6.943   1.170 -0.4910  0.0148  0.3617
  901MOL0     C21548   9.984   6.825   1.273 -0.0843  0.1013 -0.1434
  901MOL0     C21549   9.866   6.756   1.313  0.1510 -0.3618  0.6986
  901MOL0     N21550   9.107   6.803   1.333  0.2253 -0.1318  1.1876
  901MOL0     N21551   8.987   6.843   1.351  0.2730 -0.7182  0.6204
  901MOL0     C21552   7.773   6.414   1.329 -0.1185  0.2338  0.2644
  901MOL0     C21553   7.651   6.382   1.267 -0.7763 -1.1464 -0.2029
  901MOL0     C21554   7.305   6.440   0.997  0.6119 -0.0818  0.2588
  901MOL0     C21555   7.285   6.488   0.865 -0.9442  1.1214  0.9160
  901MOL0     C21556   7.175   6.449   0.795 -0.9907  0.5843  0.5604
  901MOL0     C21557   7.075   6.374   0.853  0.0079  0.2229 -0.5946
  901MOL0     O21558   6.975   6.331   0.771  1.0233 -0.5676  0.0746
  901MOL0     C21559   6.963   6.376   0.636  0.1619 -0.5856  0.1216
  901MOL0     C21560   6.848   6.299   0.566 -0.7665 -0.2153 -0.4575
  901MOL0     C21561   6.719   6.300   0.649 -0.2535  0.7322 -0.5455
  901MOL0     C21562   6.601   6.231   0.558  0.0861 -0.5371 -0.2539
  901MOL0     C21563   6.472   6.216   0.630  0.1860 -0.0961 -0.4867
  901MOL0     C21564   6.363   6.206   0.686  0.0407  0.4219 -0.6477
  901MOL0     C21565   7.100   6.321   0.984  0.2506 -0.5252 -0.8858
  901MOL0     C21566   7.212   6.353   1.059 -0.8667  1.0873  0.7550
  901MOL0     C21567   7.231   6.282   1.193 -0.1757  0.3052 -0.2299
  901MOL0     H21568   7.469   6.654   1.325 -0.1183 -0.2035  1.8438
  901MOL0     H21569   7.683   6.733   1.438 -0.2666  0.7821 -1.9878
  901MOL0     H21570   8.052   6.474   1.534  0.8070  3.2998  2.3642
  901MOL0     H21571   8.033   6.490   1.356 -1.2651  0.6957  0.1910
  901MOL0     H21572   8.069   6.708   1.584 -2.2141  2.3015 -0.9967
  901MOL0     H21573   8.026   6.746   1.417 -0.3210  1.2574  0.3844
  901MOL0     H21574   8.259   6.555   1.478  2.0768  0.3959  0.9046
  901MOL0     H21575   8.281   6.719   1.518 -1.1258  0.3393  0.9574
  901MOL0     H21576   8.202   6.634   1.250 -0.0772  0.2770 -0.6609
  901MOL0     H21577   8.228   6.806   1.281 -2.5488  0.4135  2.8437
  901MOL0     H21578   8.451   6.590   1.277  2.0865  0.4276 -1.4686
  901MOL0     H21579   8.444   6.734   1.185 -1.4878 -2.2344 -0.7287
  901MOL0     H21580   8.517   6.874   1.374 -2.3512 -0.7071  0.1066
  901MOL0     H21581   8.495   6.736   1.483 -0.0615 -1.9768  0.3818
  901MOL0     H21582   8.709   6.754   1.249 -0.0480  0.4170 -0.9883
  901MOL0     H21583   8.671   6.610   1.339 -1.8642 -0.5287 -1.0240
  901MOL0     H21584   8.760   6.866   1.470  0.1330 -0.3262  0.2510
  901MOL0     H21585   8.765   6.702   1.539 -0.2797  0.6829  0.4549
  901MOL0     H21586   8.941   6.524   1.386  1.9902 -1.6254 -1.6945
  901MOL0     H21587   9.209   6.481   1.352  0.6767 -0.4864 -0.7547
  901MOL0     H21588   9.224   6.549   1.189  1.3285  0.6485 -0.8539
  901MOL0     H21589   9.351   6.738   1.268  3.1602 -0.3731 -2.2775
  901MOL0     H21590   9.356   6.661   1.433  2.6548  3.0761 -0.6814
  901MOL0     H21591   9.469   6.549   1.182  1.6306  0.7067 -0.1858
  901MOL0     H21592   9.477   6.465   1.341 -1.5663 -0.0556 -0.8161
  901MOL0     H21593   9.600   6.673   1.428  0.4274 -2.6267  1.1717
  901MOL0     H21594   9.581   6.731   1.261  2.6588 -1.1014 -0.2715
  901MOL0     H21595   9.899   6.474   1.131  1.8801 -0.0616 -0.1964
  901MOL0     H21596  10.115   6.593   1.058  0.0075 -1.0813 -0.0545
  901MOL0     H21597  10.497   6.659   0.979 -0.7601  1.5790  0.0579
  901MOL0     H21598  10.746   6.740   0.976  0.7009 -3.8514  2.0033
  901MOL0     H21599  10.893   7.026   1.291 -0.8188  0.7598 -3.9267
  901MOL0     H21600  10.862   6.870   1.362  0.5933 -0.7587 -0.2890
  901MOL0     H21601  11.084   6.788   1.279  2.8509 -0.2461 -0.5677
  901MOL0     H21602  11.095   6.939   1.186 -0.6871  0.3228 -1.1587
  901MOL0     H21603  11.090   7.064   1.404 -2.3357  0.1208 -0.8572
  901MOL0     H21604  11.057   6.919   1.483 -2.5116 -1.1569 -2.7108
  901MOL0     H21605  11.291   6.844   1.417 -0.1287  0.0424 -0.3399
  901MOL0     H21606  11.300   6.982   1.524  1.4898  1.3330 -0.8369
  901MOL0     H21607  11.305   7.098   1.284  1.1151  2.1525  1.2618
  901MOL0     H21608  11.345   6.947   1.217  0.1773  3.4339 -0.3449
  901MOL0     H21609  11.491   7.099   1.438 -1.4339  1.1284 -1.3439
  901MOL0     H21610  11.546   6.937   1.401 -3.3669 -0.5678  1.9553
  901MOL0     H21611  11.545   7.166   1.208 -3.4694 -2.0251  0.0552
  901MOL0     H21612  11.610   6.997   1.179  3.7327  0.5619 -1.0464
  901MOL0     H21613  11.809   7.145   1.234 -2.9362  0.8848 -2.1532
  901MOL0     H21614  11.727   7.195   1.388  0.4791 -1.7151  1.7270
  901MOL0     H21615  10.642   6.936   1.348 -1.2421  0.4068 -1.4556
  901MOL0     H21616  10.421   6.855   1.346 -1.0550  0.0630 -1.1601
  901MOL0     H21617  10.008   6.926   1.305 -2.2862  0.1226  1.6595
  901MOL0     H21618   9.803   6.813   1.380  0.9199 -1.5839  2.5329
  901MOL0     H21619   7.845   6.332   1.333 -2.9493 -2.4621 -0.0001
  901MOL0     H21620   7.639   6.285   1.219 -2.7063  0.1469 -2.4925
  901MOL0     H21621   7.351   6.557   0.813 -0.0804 -0.5526 -0.2945
  901MOL0     H21622   7.181   6.490   0.695 -1.5605  0.5729  0.5184
  901MOL0     H21623   7.046   6.370   0.565 -0.2614  0.1175 -0.4471
  901MOL0     H21624   6.929   6.480   0.634  3.2673  0.5301 -1.7913
  901MOL0     H21625   6.896   6.202   0.553  0.8822  0.5741 -0.4824
  901MOL0     H21626   6.824   6.333   0.465  0.8788  0.0824 -0.7769
  901MOL0     H21627   6.686   6.402   0.671 -2.7237 -0.4156  1.6682
  901MOL0     H21628   6.717   6.242   0.741 -1.8699  0.4185 -0.7382
  901MOL0     H21629   6.590   6.289   0.465 -2.1800  0.3911  0.5173
  901MOL0     H21630   6.634   6.133   0.522 -1.3576 -0.7195 -1.1748
  901MOL0     H21631   6.278   6.208   0.751  1.6788  2.0859  1.6195
  901MOL0     H21632   7.035   6.251   1.036  1.6999  0.2666  2.2547
  901MOL0     H21633   7.235   6.351   1.278  0.9423  0.3373 -0.2907
  901MOL0     H21634   7.151   6.210   1.212 -2.6522  3.1094  0.7312
  901MOL0     H21635   7.327   6.230   1.189 -0.4149 -0.0941 -1.6661
  902MOL0     O21636   1.709   7.753   9.695  0.5395 -0.6457  0.4629
  902MOL0     C21637   1.670   7.638   9.650 -0.2643 -0.6488 -0.6631
  902MOL0     O21638   1.745   7.557   9.571 -0.3546 -0.0642 -0.0180
  902MOL0     C21639   1.875   7.602   9.545 -0.1059 -1.1178  0.5628
  902MOL0     C21640   1.983   7.536   9.603  0.4165 -0.2320 -0.3856
  902MOL0     C21641   2.116   7.585   9.589  0.7869  0.6313  0.0976
  902MOL0     C21642   2.139   7.686   9.496  0.2993  0.2491 -0.5392
  902MOL0     O21643   2.268   7.722   9.481  0.4006 -0.4994 -0.3174
  902MOL0     C21644   2.283   7.858   9.438 -1.0205 -0.6307 -0.6893
  902MOL0     C21645   2.440   7.894   9.429 -0.0922 -0.4192  1.2927
  902MOL0     C21646   2.505   7.815   9.317 -0.4930  0.1393 -0.6461
  902MOL0     C21647   2.651   7.795   9.343  0.4245 -0.5700 -1.1195
  902MOL0     C21648   2.725   7.931   9.376 -0.5601  0.1665 -0.7965
  902MOL0     C21649   2.874   7.905   9.376 -0.2068  0.2322 -0.2431
  902MOL0     C21650   2.939   7.866   9.240  0.5971  0.5436  0.1111
  902MOL0     C21651   3.074   7.807   9.270  0.7420  0.1815  0.2974
  902MOL0     N21652   3.179   7.825   9.171 -0.6719  0.1993  0.0466
  902MOL0     C21653   3.314   7.831   9.209 -0.2143 -0.0054 -0.1787
  902MOL0     C21654   3.375   7.836   9.090  0.7191  0.8629 -0.3756
  902MOL0     C21655   3.519   7.862   9.057 -0.0693 -0.0724 -0.2963
  902MOL0     C21656   3.588   7.963   9.143  0.1068  0.4859  0.1949
  902MOL0     C21657   3.738   7.976   9.098  0.1585 -0.0052 -0.2199
  902MOL0     C21658   3.790   8.103   9.158 -0.0470 -0.0568  0.5294
  902MOL0     O21659   3.925   8.105   9.150  0.6929 -0.1877  0.0288
  902MOL0     C21660   3.992   8.204   9.214 -0.0753  0.2060  0.3484
  902MOL0     C21661   4.129   8.178   9.214 -0.0278 -0.0445 -0.2074
  902MOL0     C21662   4.217   8.251   9.290 -0.0423 -0.6338 -0.0306
  902MOL0     C21663   4.162   8.345   9.380  0.7655  0.5578 -0.4093
  902MOL0     C21664   4.255   8.412   9.474  0.4391  0.3962  0.5664
  902MOL0     O21665   4.382   8.358   9.482  0.5410 -0.1256 -0.0090
  902MOL0     C21666   4.476   8.419   9.561 -0.4484 -0.0434  0.5648
  902MOL0     C21667   4.507   8.368   9.688 -0.4661  1.0296 -0.0288
  902MOL0     C21668   4.606   8.419   9.763 -0.0146 -0.0846 -1.1130
  902MOL0     C21669   4.679   8.531   9.714 -0.1939  0.2526  0.1922
  902MOL0     O21670   4.774   8.585   9.795  0.0695 -0.5090 -0.4869
  902MOL0     C21671   4.910   8.564   9.757  0.0472 -0.2313 -0.0334
  902MOL0     C21672   5.018   8.630   9.849  0.1408  0.1315  0.0182
  902MOL0     C21673   5.162   8.593   9.812  0.1151 -0.2631 -0.2469
  902MOL0     C21674   5.217   8.704   9.720  0.0829  0.5793  0.4985
  902MOL0     C21675   5.365   8.683   9.686 -0.1825 -0.2741 -0.1259
  902MOL0     C21676   5.398   8.540   9.639  0.2178 -0.2845 -0.3977
  902MOL0     C21677   5.547   8.547   9.606  0.0125 -0.4441 -0.0767
  902MOL0     C21678   5.603   8.428   9.521 -0.1591  0.1744 -0.0762
  902MOL0    Cl21679   5.774   8.412   9.517  0.0984  0.0205  0.2014
  902MOL0     C21680   4.652   8.585   9.585 -0.3632 -0.4371 -0.3924
  902MOL0     C21681   4.555   8.524   9.507  0.5818 -0.0771 -0.4252
  902MOL0     O21682   4.215   8.507   9.537 -0.1892 -0.5982 -0.0495
  902MOL0     C21683   4.022   8.375   9.377  0.0574 -0.5157 -0.6981
  902MOL0     C21684   3.933   8.300   9.299  0.2196 -0.5459 -0.8860
  902MOL0     N21685   3.285   7.838   8.990  0.1274  0.1190  0.2681
  902MOL0     N21686   3.162   7.826   9.036  0.0318  0.5948 -0.6912
  902MOL0     C21687   2.030   7.737   9.422  0.3886  0.0266  0.7986
  902MOL0     C21688   1.895   7.707   9.457  0.0246 -0.1046 -0.6315
  902MOL0     C21689   1.532   7.609   9.692 -0.3645  0.1109  1.1223
  902MOL0     C21690   1.443   7.701   9.640  0.1068  0.9877 -0.5693
  902MOL0     C21691   1.311   7.679   9.675  1.0824 -0.0213 -0.7239
  902MOL0     C21692   1.267   7.572   9.759  0.4743 -1.0083 -0.1686
  902MOL0     O21693   1.136   7.553   9.789 -0.1453  0.3916 -0.0395
  902MOL0     C21694   1.097   7.496   9.918  0.1007  0.1524  0.7608
  902MOL0     C21695   1.019   7.367   9.894 -0.0270 -0.2084  0.2054
  902MOL0     C21696   0.871   7.380   9.859  0.3655  0.4195 -0.3900
  902MOL0     C21697   0.783   7.323   9.977  0.1283 -0.6421 -0.6400
  902MOL0     C21698   0.766   7.175   9.961 -0.0376 -0.0973 -0.6163
  902MOL0     C21699   0.743   7.057   9.941 -0.6900  0.2435 -0.8736
  902MOL0     C21700   1.359   7.481   9.797 -0.8250  0.5696  0.5576
  902MOL0     C21701   1.494   7.497   9.767 -0.5021  0.2018  0.8327
  902MOL0     C21702   1.594   7.397   9.820 -0.2630  0.4841  0.5115
  902MOL0     H21703   1.966   7.458   9.677 -0.0668 -0.1201 -0.3715
  902MOL0     H21704   2.192   7.539   9.652  0.3450  0.5147  0.5587
  902MOL0     H21705   2.242   7.879   9.339 -0.1697  0.1271 -0.8958
  902MOL0     H21706   2.238   7.934   9.502 -1.9663 -2.4005  0.8360
  902MOL0     H21707   2.489   7.875   9.525  1.9618  2.6627  0.9671
  902MOL0     H21708   2.445   7.999   9.400  0.6023 -0.0392  2.7278
  902MOL0     H21709   2.500   7.877   9.227 -1.2163  1.1684  0.0879
  902MOL0     H21710   2.460   7.717   9.303 -1.0549  0.2157  0.5385
  902MOL0     H21711   2.670   7.729   9.428  0.7473 -0.2198 -0.9128
  902MOL0     H21712   2.685   7.751   9.249  0.8617 -1.2856 -0.6374
  902MOL0     H21713   2.706   8.009   9.301  0.9443  0.1915 -1.1842
  902MOL0     H21714   2.693   7.972   9.472  0.4609 -1.0524  0.0854
  902MOL0     H21715   2.930   7.993   9.410  0.2510 -0.3931  0.6505
  902MOL0     H21716   2.886   7.829   9.454 -0.7992  2.2786  1.9889
  902MOL0     H21717   2.963   7.952   9.177  3.8998 -0.7576 -0.6339
  902MOL0     H21718   2.883   7.794   9.178  0.4966 -0.3187  1.1674
  902MOL0     H21719   3.107   7.858   9.361  0.8208 -0.7428  0.7937
  902MOL0     H21720   3.073   7.700   9.293  4.3225 -0.1227 -0.4920
  902MOL0     H21721   3.358   7.822   9.308  1.1556 -0.5982 -0.8189
  902MOL0     H21722   3.578   7.772   9.076  0.3814  0.8003  3.1020
  902MOL0     H21723   3.528   7.890   8.952  1.4055 -0.8305 -0.4044
  902MOL0     H21724   3.534   8.058   9.129 -0.5709  0.2842  1.2721
  902MOL0     H21725   3.590   7.929   9.247 -0.4057  0.6800  0.2724
  902MOL0     H21726   3.752   7.987   8.990  0.3712 -1.6879 -0.3943
  902MOL0     H21727   3.797   7.887   9.120  1.5865  1.3755  1.9667
  902MOL0     H21728   3.763   8.112   9.263 -0.6566 -3.2058  0.7347
  902MOL0     H21729   3.753   8.182   9.092  3.7877 -1.0347 -3.2231
  902MOL0     H21730   4.171   8.097   9.156 -0.2080  1.5075 -2.6658
  902MOL0     H21731   4.323   8.238   9.271  0.1901  1.0152  0.0640
  902MOL0     H21732   4.445   8.288   9.726 -0.8271 -0.1661 -2.8519
  902MOL0     H21733   4.614   8.374   9.861 -1.4645 -0.9831 -1.3637
  902MOL0     H21734   4.924   8.459   9.730 -1.1135 -0.1824 -0.9208
  902MOL0     H21735   4.921   8.615   9.662 -2.6764  0.4395 -0.0850
  902MOL0     H21736   5.007   8.739   9.849  0.2978  0.1492 -0.2836
  902MOL0     H21737   4.998   8.602   9.952 -0.3009  0.0345 -0.0918
  902MOL0     H21738   5.221   8.576   9.903 -1.4526 -3.7496  0.2868
  902MOL0     H21739   5.155   8.491   9.772 -0.1620 -1.1316  1.8949
  902MOL0     H21740   5.210   8.803   9.766  0.0392  1.9923 -2.2998
  902MOL0     H21741   5.161   8.720   9.628  1.1154  0.9281 -0.0954
  902MOL0     H21742   5.423   8.723   9.770 -0.9002 -1.2119  0.8323
  902MOL0     H21743   5.388   8.748   9.600 -1.1532 -0.6115 -0.6480
  902MOL0     H21744   5.386   8.462   9.716 -0.6566  1.4020  1.2758
  902MOL0     H21745   5.340   8.512   9.551 -2.0713  2.2585  0.1592
  902MOL0     H21746   5.604   8.568   9.697 -2.6752  1.4317  1.3307
  902MOL0     H21747   5.570   8.631   9.540  4.4764 -1.6631 -0.3928
  902MOL0     H21748   5.579   8.333   9.568  1.5961 -1.2271 -1.8834
  902MOL0     H21749   5.548   8.439   9.427 -2.7463 -1.2590  1.1502
  902MOL0     H21750   4.701   8.676   9.553 -3.4797  2.0341  1.3101
  902MOL0     H21751   4.534   8.561   9.407 -1.3919 -1.3555 -0.5400
  902MOL0     H21752   3.972   8.450   9.438 -2.3791 -1.1163 -1.8272
  902MOL0     H21753   3.826   8.313   9.302  0.0383  1.2781 -5.8097
  902MOL0     H21754   2.044   7.806   9.339 -2.5963  2.0431  1.7787
  902MOL0     H21755   1.808   7.748   9.407  0.0213 -1.0210 -1.4191
  902MOL0     H21756   1.473   7.777   9.568  0.6900  0.9832 -0.3349
  902MOL0     H21757   1.232   7.745   9.640  0.7764  0.3089  0.5402
  902MOL0     H21758   1.035   7.562   9.979 -2.4251 -1.5091  0.1487
  902MOL0     H21759   1.185   7.478   9.981  0.2357 -2.7632 -0.1079
  902MOL0     H21760   1.034   7.299   9.978  1.4962  0.9066  0.8996
  902MOL0     H21761   1.066   7.322   9.807 -0.1881 -0.1865  0.1072
  902MOL0     H21762   0.861   7.316   9.770  1.3610 -0.1761 -0.1003
  902MOL0     H21763   0.838   7.481   9.835  1.1922  0.4777 -1.3729
  902MOL0     H21764   0.810   7.364  10.075  0.3689  2.5130 -1.9194
  902MOL0     H21765   0.680   7.355   9.959 -0.1528 -0.7456  0.7079
  902MOL0     H21766   0.705   6.957   9.937 -0.8145  0.2616 -0.2280
  902MOL0     H21767   1.325   7.395   9.854 -0.2690  0.0119  0.0651
  902MOL0     H21768   1.683   7.457   9.841 -0.6762  1.3248 -0.0924
  902MOL0     H21769   1.563   7.363   9.920  0.3210 -1.2490  0.1480
  902MOL0     H21770   1.604   7.319   9.744 -3.0031 -1.0212  1.5393
  903MOL0     O21771   8.139  10.235   5.578  0.0519  0.1807  0.5482
  903MOL0     C21772   8.018  10.249   5.544 -0.6858  0.2529 -0.1607
  903MOL0     O21773   7.940  10.364   5.561  0.0476 -0.3861  0.1656
  903MOL0     C21774   8.015  10.472   5.617  1.0603  0.6607 -0.3329
  903MOL0     C21775   8.039  10.484   5.747 -0.2457 -1.4254 -0.1008
  903MOL0     C21776   8.114  10.601   5.799  0.3148 -0.2480 -0.0797
  903MOL0     C21777   8.162  10.700   5.715 -0.1821  1.3441  0.4683
  903MOL0     O21778   8.244  10.800   5.737  0.2666 -0.5360 -0.0789
  903MOL0     C21779   8.296  10.818   5.867  0.1033 -0.2040  0.0917
  903MOL0     C21780   8.385  10.944   5.866  0.5501  0.2096  0.6055
  903MOL0     C21781   8.511  10.935   5.774  0.8544  0.1998  0.3201
  903MOL0     C21782   8.604  11.048   5.823 -0.8450 -1.0562  0.1680
  903MOL0     C21783   8.716  11.083   5.719 -0.5543  0.7784 -0.2264
  903MOL0     C21784   8.779  11.214   5.750  0.0588 -0.5357  0.1363
  903MOL0     C21785   8.881  11.250   5.646 -0.2419  0.7297  0.5562
  903MOL0     C21786   8.911  11.404   5.660  0.0458  0.4665  0.4143
  903MOL0     N21787   8.952  11.448   5.796  0.2736 -0.0457  0.6288
  903MOL0     C21788   9.064  11.404   5.856 -0.6318  0.3246  0.2118
  903MOL0     C21789   9.050  11.429   5.983  0.6025  0.4292 -0.1603
  903MOL0     C21790   9.149  11.396   6.092  0.1924  0.7203  0.1265
  903MOL0     C21791   9.253  11.501   6.124  1.0586 -0.6239 -0.1291
  903MOL0     C21792   9.172  11.626   6.182 -0.6464  0.1366  0.1858
  903MOL0     C21793   9.279  11.731   6.233  0.6400 -0.1897 -0.9496
  903MOL0     O21794   9.212  11.859   6.261 -0.0597  0.0680 -0.0598
  903MOL0     C21795   9.154  11.885   6.390  0.7309 -0.3426  0.2377
  903MOL0     C21796   9.175  11.823   6.513  0.4211 -0.1013 -1.4668
  903MOL0     C21797   9.127  11.872   6.641 -0.0695  0.0208  0.3284
  903MOL0     C21798   9.050  11.996   6.635 -0.5122  0.7171 -0.1037
  903MOL0     C21799   9.005  12.064   6.765  0.7402 -0.3740 -0.0358
  903MOL0     O21800   8.940  12.178   6.750  0.5983  0.0881 -0.3163
  903MOL0     C21801   8.874  12.223   6.867  0.2798 -0.2878  0.0153
  903MOL0     C21802   8.929  12.335   6.931 -0.2996 -0.6427 -0.2566
  903MOL0     C21803   8.887  12.370   7.059  0.2419  0.4447 -0.5271
  903MOL0     C21804   8.788  12.289   7.124  0.2036 -0.3581  0.6780
  903MOL0     O21805   8.747  12.325   7.256  0.0841  0.4874 -0.1541
  903MOL0     C21806   8.675  12.448   7.264  0.1264  0.2680 -0.4272
  903MOL0     C21807   8.602  12.442   7.398  0.7876  0.6786  1.0539
  903MOL0     C21808   8.473  12.359   7.387  0.2238 -0.3636 -1.0701
  903MOL0     C21809   8.427  12.328   7.533  0.2661  0.4253 -0.2695
  903MOL0     C21810   8.341  12.208   7.539 -0.1246  0.2778 -0.7783
  903MOL0     C21811   8.395  12.080   7.486  0.1438  0.6405  0.1425
  903MOL0     C21812   8.524  12.015   7.548 -1.0343 -0.4037  0.2132
  903MOL0     C21813   8.515  11.982   7.690  0.3558 -0.4392 -0.4829
  903MOL0    Cl21814   8.671  11.931   7.758  0.1102  0.0220 -0.4168
  903MOL0     C21815   8.730  12.188   7.054 -0.2245  0.2888  0.2772
  903MOL0     C21816   8.771  12.149   6.923 -1.0414  0.3571  0.0072
  903MOL0     O21817   9.029  12.011   6.865  0.2111 -0.0928 -0.1725
  903MOL0     C21818   9.025  12.058   6.510  0.3511  0.5716  0.2658
  903MOL0     C21819   9.084  12.006   6.391 -0.2466  0.9459 -0.3865
  903MOL0     N21820   8.929  11.494   6.006 -0.0242 -0.9019  0.0945
  903MOL0     N21821   8.867  11.505   5.890 -0.1485 -0.5530  0.5043
  903MOL0     C21822   8.134  10.684   5.574 -0.0173  0.1888  0.2273
  903MOL0     C21823   8.052  10.573   5.529 -0.1430 -0.9017  0.0500
  903MOL0     C21824   7.952  10.131   5.483  0.3281  1.2315  0.2028
  903MOL0     C21825   7.814  10.134   5.471  0.5176 -0.0193  0.7515
  903MOL0     C21826   7.738  10.028   5.419 -0.0254 -0.6923 -0.2654
  903MOL0     C21827   7.797   9.911   5.377 -0.2245 -0.3057  0.2331
  903MOL0     O21828   7.720   9.810   5.321  0.3024  0.3125 -0.2862
  903MOL0     C21829   7.576   9.821   5.319 -0.1176 -0.3478  0.3512
  903MOL0     C21830   7.509   9.691   5.264  0.0372  0.8516 -0.9017
  903MOL0     C21831   7.355   9.689   5.290  0.0557 -0.0556 -0.8360
  903MOL0     C21832   7.297   9.554   5.247 -0.3476 -0.2725  0.0628
  903MOL0     C21833   7.157   9.539   5.291  0.4580  0.9526  0.2741
  903MOL0     C21834   7.048   9.497   5.316 -1.3664 -0.2272  0.4130
  903MOL0     C21835   7.939   9.903   5.386 -0.1086 -0.5377  1.0352
  903MOL0     C21836   8.019  10.014   5.427 -0.2968  1.0518 -0.4286
  903MOL0     C21837   8.173   9.987   5.423 -0.2744  0.0394  0.8054
  903MOL0     H21838   8.017  10.410   5.823  0.8538 -1.7177 -0.0485
  903MOL0     H21839   8.125  10.604   5.907  0.2656 -0.5427 -0.0655
  903MOL0     H21840   8.202  10.836   5.922  0.4465  1.0355  0.2982
  903MOL0     H21841   8.351  10.729   5.899  0.8490 -1.3585 -3.9307
  903MOL0     H21842   8.412  10.976   5.968 -0.6621  1.2983  0.6109
  903MOL0     H21843   8.321  11.023   5.825 -1.4520 -0.2117  2.7012
  903MOL0     H21844   8.478  10.954   5.672 -1.7752 -1.9948  0.6650
  903MOL0     H21845   8.551  10.834   5.781 -0.5163 -0.3512  0.4452
  903MOL0     H21846   8.552  11.138   5.856  1.9204  0.6096  0.2969
  903MOL0     H21847   8.652  11.027   5.919  0.5993  2.3325  0.3166
  903MOL0     H21848   8.783  10.996   5.720 -2.4520 -0.8983  3.2933
  903MOL0     H21849   8.673  11.093   5.620 -0.4915  3.9569 -0.0140
  903MOL0     H21850   8.697  11.287   5.761 -0.6964 -1.4816  1.0448
  903MOL0     H21851   8.815  11.197   5.852  1.3032 -1.2434 -0.4046
  903MOL0     H21852   8.844  11.231   5.545 -2.8043  2.6171  1.0420
  903MOL0     H21853   8.967  11.182   5.654 -1.8059 -1.9896 -2.8098
  903MOL0     H21854   8.986  11.426   5.584 -0.2328  0.3768  0.1102
  903MOL0     H21855   8.815  11.452   5.638 -1.0261  0.6143  4.6397
  903MOL0     H21856   9.149  11.361   5.805  0.2657  2.3862 -0.1428
  903MOL0     H21857   9.092  11.367   6.181  1.3396  0.4535  0.7935
  903MOL0     H21858   9.203  11.302   6.072 -1.2062 -0.0870 -0.0126
  903MOL0     H21859   9.315  11.465   6.208  0.0462 -0.0573  0.8938
  903MOL0     H21860   9.323  11.529   6.045  0.4846 -0.6416 -0.6395
  903MOL0     H21861   9.111  11.585   6.263 -0.8658 -2.5183 -1.1844
  903MOL0     H21862   9.108  11.675   6.107  2.1334  1.6079 -1.3858
  903MOL0     H21863   9.356  11.750   6.158  1.8580 -2.5064 -0.3758
  903MOL0     H21864   9.330  11.696   6.324  0.8540 -1.1036 -1.4138
  903MOL0     H21865   9.242  11.738   6.511  2.7238  1.4954  0.8854
  903MOL0     H21866   9.139  11.820   6.736  0.9894 -2.8796 -1.2682
  903MOL0     H21867   9.000  12.403   6.885  2.0509 -1.1253  2.4110
  903MOL0     H21868   8.922  12.457   7.113  2.9002  0.4037 -2.0182
  903MOL0     H21869   8.739  12.536   7.257  0.3367  0.0204 -2.2080
  903MOL0     H21870   8.604  12.458   7.181 -2.3164  4.0528  1.7852
  903MOL0     H21871   8.673  12.412   7.475 -0.9418 -0.5914  2.2323
  903MOL0     H21872   8.578  12.540   7.440  2.0350  0.2421  2.8827
  903MOL0     H21873   8.394  12.413   7.334 -0.9074 -0.2135  0.6715
  903MOL0     H21874   8.489  12.270   7.325 -4.6842 -1.5447 -1.1002
  903MOL0     H21875   8.366  12.405   7.581 -0.6943 -0.9785  0.8619
  903MOL0     H21876   8.508  12.297   7.600  1.1676 -1.6526 -2.1842
  903MOL0     H21877   8.252  12.218   7.476 -0.9871 -0.4799  0.2863
  903MOL0     H21878   8.299  12.181   7.637 -0.3649 -1.1206 -1.2359
  903MOL0     H21879   8.321  12.002   7.507  1.3973 -0.4360  0.7050
  903MOL0     H21880   8.409  12.083   7.377  0.1471  2.5016  0.1566
  903MOL0     H21881   8.609  12.075   7.514  0.5917 -2.6214  0.1461
  903MOL0     H21882   8.538  11.923   7.491 -1.2455 -0.7676  0.7457
  903MOL0     H21883   8.498  12.079   7.738  2.0660 -0.5576  0.4331
  903MOL0     H21884   8.432  11.912   7.700  1.3052 -1.8921 -2.1378
  903MOL0     H21885   8.647  12.126   7.090 -0.4622 -1.0729 -2.3779
  903MOL0     H21886   8.742  12.053   6.881 -1.4044  0.5432 -0.1769
  903MOL0     H21887   8.960  12.146   6.502 -1.9511 -0.8473  1.9795
  903MOL0     H21888   9.059  12.065   6.303 -1.2219  0.2866 -0.5683
  903MOL0     H21889   8.174  10.743   5.491 -0.5895  0.4548  0.1340
  903MOL0     H21890   8.025  10.571   5.424 -3.8399 -0.4929  0.8542
  903MOL0     H21891   7.771  10.228   5.503  1.4798  1.1530 -1.1837
  903MOL0     H21892   7.630  10.036   5.420 -0.2319 -2.7965  0.0761
  903MOL0     H21893   7.541   9.914   5.273  1.2702 -0.2298 -0.5217
  903MOL0     H21894   7.543   9.821   5.423  1.5771  2.0496  0.9950
  903MOL0     H21895   7.547   9.607   5.322 -1.1908 -0.9436 -2.5734
  903MOL0     H21896   7.540   9.669   5.161 -3.4361 -2.9788 -1.3610
  903MOL0     H21897   7.320   9.777   5.237  1.1619  0.9762  0.0912
  903MOL0     H21898   7.334   9.698   5.397 -1.3810 -0.4529 -1.0735
  903MOL0     H21899   7.314   9.535   5.140  0.3115 -1.7741  0.4032
  903MOL0     H21900   7.349   9.475   5.301  0.0383 -1.2198 -1.6401
  903MOL0     H21901   6.955   9.448   5.338 -1.6657  0.3829  0.5230
  903MOL0     H21902   7.979   9.817   5.334 -2.4253 -0.6841 -0.6331
  903MOL0     H21903   8.202   9.892   5.377 -2.1311 -1.4024  2.4326
  903MOL0     H21904   8.217  10.062   5.357 -0.9528 -0.1370  0.1418
  903MOL0     H21905   8.215   9.992   5.524  0.0966  2.2110  0.5808
  904MOL0     O21906   8.354   0.140   0.080  0.1059 -0.4880  0.3384
  904MOL0     C21907   8.335   0.076   0.184  0.3747  0.1221 -1.4242
  904MOL0     O21908   8.428  -0.001   0.246 -0.4743  0.2666  0.3267
  904MOL0     C21909   8.545  -0.027   0.175  1.0584 -0.3965 -0.2122
  904MOL0     C21910   8.571  -0.111   0.069 -0.3556  0.9245 -0.4414
  904MOL0     C21911   8.691  -0.137   0.003 -0.3921 -0.1493  1.2335
  904MOL0     C21912   8.800  -0.057   0.041  0.2724 -0.1954  0.2782
  904MOL0     O21913   8.924  -0.059  -0.017 -0.2391 -0.2292  0.7246
  904MOL0     C21914   8.961  -0.158  -0.115  0.1403  0.2248 -0.1689
  904MOL0     C21915   9.110  -0.142  -0.129  0.6313 -0.8972  0.2234
  904MOL0     C21916   9.185  -0.260  -0.167  0.4885  0.0843 -0.6072
  904MOL0     C21917   9.325  -0.225  -0.207  0.4950  0.4750  0.0643
  904MOL0     C21918   9.407  -0.338  -0.276 -0.3216  0.1684  0.0468
  904MOL0     C21919   9.560  -0.317  -0.257  0.3654  0.3503  0.5606
  904MOL0     C21920   9.646  -0.433  -0.313 -0.1658 -0.7075  0.2885
  904MOL0     C21921   9.776  -0.436  -0.235  0.6742 -0.7051 -0.3926
  904MOL0     N21922   9.851  -0.314  -0.267  0.4005 -0.1398  0.6723
  904MOL0     C21923   9.951  -0.261  -0.198 -0.0190  0.2339  0.1561
  904MOL0     C21924  10.021  -0.179  -0.275 -1.1910 -0.5964  0.4434
  904MOL0     C21925  10.152  -0.109  -0.259 -0.0374 -0.1777  0.3848
  904MOL0     C21926  10.221  -0.164  -0.128 -1.1622  0.0525 -0.4446
  904MOL0     C21927  10.366  -0.114  -0.120  0.2588  0.0724 -0.5409
  904MOL0     C21928  10.427  -0.176   0.005 -0.5774 -0.6344  0.0943
  904MOL0     O21929  10.366  -0.130   0.124 -0.2939  0.5488 -0.6464
  904MOL0     C21930  10.421  -0.052   0.227 -0.6147  0.5240 -0.4204
  904MOL0     C21931  10.550   0.000   0.223 -0.1607 -0.0603  0.6836
  904MOL0     C21932  10.608   0.070   0.331 -0.1280 -0.0965 -0.6402
  904MOL0     C21933  10.532   0.084   0.450  0.0909  0.3947  0.4977
  904MOL0     C21934  10.595   0.150   0.558 -0.0642 -0.4209 -0.1884
  904MOL0     O21935  10.732   0.193   0.544  0.0032  0.5582 -0.4094
  904MOL0     C21936  10.816   0.240   0.645  0.3547 -0.3693  0.3355
  904MOL0     C21937  10.795   0.250   0.789  0.2884 -0.5963  0.0043
  904MOL0     C21938  10.885   0.315   0.874  0.5309 -0.0541  0.1366
  904MOL0     C21939  10.992   0.383   0.817 -0.5007  0.6155 -0.6568
  904MOL0     O21940  11.067   0.466   0.898 -0.1007  0.1795 -0.1066
  904MOL0     C21941  11.124   0.590   0.850 -0.2625 -0.2996  0.8927
  904MOL0     C21942  11.270   0.583   0.825  0.3576 -0.1403 -1.1771
  904MOL0     C21943  11.330   0.717   0.856  0.3701 -0.5305 -0.6713
  904MOL0     C21944  11.377   0.739   1.001  0.3395  0.7231 -0.5962
  904MOL0     C21945  11.465   0.865   0.991  0.5424  0.2250  0.7188
  904MOL0     C21946  11.533   0.898   1.113 -0.8517  0.8167 -0.3536
  904MOL0     C21947  11.620   1.026   1.097  0.8589  0.4172  0.2082
  904MOL0     C21948  11.690   1.073   1.225 -0.1501 -0.5344  0.1132
  904MOL0    Cl21949  11.786   1.230   1.197  0.2200  0.2920 -0.2290
  904MOL0     C21950  11.016   0.371   0.676  0.3323  0.3393 -0.4986
  904MOL0     C21951  10.928   0.305   0.592  0.0253  0.7803  0.0081
  904MOL0     O21952  10.524   0.169   0.655  0.7328 -0.1701  0.5931
  904MOL0     C21953  10.401   0.038   0.454 -0.0769 -0.1603  0.4831
  904MOL0     C21954  10.348  -0.024   0.345  0.0671  0.0364  0.2483
  904MOL0     N21955   9.961  -0.186  -0.407  0.0654 -0.6232 -0.8980
  904MOL0     N21956   9.863  -0.260  -0.396  0.0542 -0.0801 -0.7023
  904MOL0     C21957   8.778   0.034   0.144 -0.1368 -0.4675 -0.0104
  904MOL0     C21958   8.654   0.046   0.215  0.4342 -0.0723  0.0050
  904MOL0     C21959   8.218   0.098   0.267 -0.1774 -0.3284 -0.9254
  904MOL0     C21960   8.214   0.026   0.392 -0.2957  0.4486 -0.0307
  904MOL0     C21961   8.099   0.024   0.468  0.4320 -1.0765 -0.1011
  904MOL0     C21962   7.991   0.100   0.440 -0.0427 -1.0401 -0.2421
  904MOL0     O21963   7.884   0.103   0.527 -0.4509  1.1811  0.4868
  904MOL0     C21964   7.761   0.150   0.473 -0.1041  0.4524  0.6953
  904MOL0     C21965   7.646   0.116   0.575  0.3758 -0.7325 -0.4095
  904MOL0     C21966   7.503   0.135   0.519  0.5144 -0.8198 -0.0889
  904MOL0     C21967   7.414   0.069   0.631 -0.7597  0.2192 -0.0933
  904MOL0     C21968   7.269   0.091   0.595 -0.0378 -0.7059  0.1767
  904MOL0     C21969   7.155   0.119   0.554 -0.0817  0.6055 -1.0726
  904MOL0     C21970   7.998   0.186   0.322  0.0418 -0.2270 -0.8230
  904MOL0     C21971   8.107   0.181   0.230  0.1797  0.2010  0.6439
  904MOL0     C21972   8.088   0.251   0.108  0.0208  0.4009  0.9913
  904MOL0     H21973   8.487  -0.157   0.019 -0.2424  0.8492 -0.5643
  904MOL0     H21974   8.701  -0.206  -0.080 -0.9371  0.5982  0.5312
  904MOL0     H21975   8.937  -0.256  -0.071  0.3104 -0.3791 -1.3952
  904MOL0     H21976   8.908  -0.149  -0.210  2.3357  2.3478 -1.3129
  904MOL0     H21977   9.144  -0.102  -0.033 -2.0401  1.1568  0.4300
  904MOL0     H21978   9.128  -0.063  -0.203  0.7280  0.2082  1.4056
  904MOL0     H21979   9.138  -0.300  -0.258 -0.2557 -1.3971  0.3891
  904MOL0     H21980   9.189  -0.351  -0.106 -0.6628 -0.7375 -1.7052
  904MOL0     H21981   9.318  -0.141  -0.277  0.0556 -0.7983 -1.4698
  904MOL0     H21982   9.373  -0.186  -0.117 -2.7315  1.7462  1.3814
  904MOL0     H21983   9.384  -0.434  -0.228  3.9597 -0.0491  2.1014
  904MOL0     H21984   9.383  -0.341  -0.382  1.0427  3.2562 -0.4391
  904MOL0     H21985   9.584  -0.219  -0.300  0.7497  0.0739  0.1334
  904MOL0     H21986   9.591  -0.304  -0.153 -0.1909 -1.9919  1.0711
  904MOL0     H21987   9.665  -0.418  -0.420 -0.9513 -1.8366 -0.0190
  904MOL0     H21988   9.594  -0.529  -0.307 -1.3051 -0.6025 -4.3910
  904MOL0     H21989   9.763  -0.466  -0.130  0.2752  0.2592 -0.1512
  904MOL0     H21990   9.834  -0.509  -0.292  0.0220 -1.7794  0.2875
  904MOL0     H21991   9.973  -0.298  -0.098 -2.6455 -4.9400 -0.8108
  904MOL0     H21992  10.223  -0.132  -0.339  1.9641  0.9054  1.7611
  904MOL0     H21993  10.141  -0.001  -0.242 -0.7419 -0.0427 -0.8583
  904MOL0     H21994  10.172  -0.134  -0.035  0.8349 -0.4281  0.8296
  904MOL0     H21995  10.221  -0.273  -0.120 -0.2204  0.1327  1.2099
  904MOL0     H21996  10.372  -0.005  -0.123  2.1555 -0.0188 -1.6438
  904MOL0     H21997  10.426  -0.143  -0.208 -0.3605 -1.1599 -0.5803
  904MOL0     H21998  10.533  -0.149   0.004 -1.2105  2.1458  0.1776
  904MOL0     H21999  10.417  -0.284  -0.007 -0.7843 -0.7979  1.5354
  904MOL0     H22000  10.616  -0.022   0.140 -0.9720  0.1621 -0.0272
  904MOL0     H22001  10.709   0.107   0.314 -0.2571 -0.4123 -2.3647
  904MOL0     H22002  10.704   0.207   0.828 -1.3992  2.4774 -0.2618
  904MOL0     H22003  10.860   0.312   0.979 -0.2660  0.2486 -0.0366
  904MOL0     H22004  11.081   0.632   0.759  2.3353 -2.7073 -1.6732
  904MOL0     H22005  11.093   0.657   0.930 -1.0469 -0.3829  0.6661
  904MOL0     H22006  11.308   0.506   0.892 -0.4442  1.0891  0.8012
  904MOL0     H22007  11.296   0.565   0.720  2.3640  0.9136 -0.9088
  904MOL0     H22008  11.427   0.715   0.805  2.1129 -2.0423  2.3581
  904MOL0     H22009  11.267   0.800   0.823 -1.9627 -1.9523 -0.0095
  904MOL0     H22010  11.426   0.655   1.051 -1.8103  0.8628  1.9955
  904MOL0     H22011  11.292   0.765   1.065 -2.2473 -2.3538 -2.4875
  904MOL0     H22012  11.399   0.949   0.967  1.4178  0.8799  0.5421
  904MOL0     H22013  11.531   0.864   0.904  0.2104 -0.3894  0.4665
  904MOL0     H22014  11.472   0.905   1.204 -0.0243 -1.3034  0.4381
  904MOL0     H22015  11.608   0.822   1.137 -0.7143  0.8680 -0.6185
  904MOL0     H22016  11.551   1.106   1.068  2.0923  0.8901 -1.5638
  904MOL0     H22017  11.693   1.019   1.015  1.3385  0.2620  0.6432
  904MOL0     H22018  11.619   1.078   1.308 -0.1809 -1.7374  0.1812
  904MOL0     H22019  11.760   0.991   1.243  0.1535 -0.1901  0.5239
  904MOL0     H22020  11.106   0.422   0.642  0.5199 -0.6997 -1.6256
  904MOL0     H22021  10.948   0.296   0.486  0.8572  2.0840  0.0281
  904MOL0     H22022  10.342   0.044   0.544  3.3283 -0.2543  2.9279
  904MOL0     H22023  10.245  -0.052   0.362  0.4300 -1.4675  0.1881
  904MOL0     H22024   8.854   0.111   0.154  1.3525 -1.7941 -0.5973
  904MOL0     H22025   8.661   0.122   0.293  0.3901  0.6833 -0.7197
  904MOL0     H22026   8.298  -0.033   0.428 -1.5702 -2.3589 -1.3603
  904MOL0     H22027   8.103  -0.034   0.559  0.4101 -2.1151 -0.7443
  904MOL0     H22028   7.753   0.097   0.377  0.6515  0.6568  0.5089
  904MOL0     H22029   7.776   0.256   0.451 -0.0492  0.5342  1.1317
  904MOL0     H22030   7.673   0.190   0.651  0.8987  0.1281 -1.4178
  904MOL0     H22031   7.657   0.015   0.615 -0.9876 -1.2630 -1.3046
  904MOL0     H22032   7.491   0.090   0.420  3.6593  0.6992 -1.2944
  904MOL0     H22033   7.484   0.242   0.517  1.0926 -0.6423  1.8810
  904MOL0     H22034   7.432  -0.037   0.613  3.0387  0.8279 -0.7629
  904MOL0     H22035   7.426   0.114   0.730 -4.8129  2.3062 -0.3375
  904MOL0     H22036   7.054   0.134   0.523 -0.9395 -2.2433  0.1130
  904MOL0     H22037   7.904   0.233   0.293 -0.1719 -1.2777 -1.9482
  904MOL0     H22038   8.101   0.174   0.031  0.0354  3.2775 -2.1450
  904MOL0     H22039   7.992   0.301   0.091 -0.4064 -0.6313  0.2461
  904MOL0     H22040   8.174   0.312   0.078  1.3941 -1.9865 -0.3146
  905MOL0     O22041   3.702   9.796   4.168 -0.3187 -0.2593  0.1467
  905MOL0     C22042   3.669   9.677   4.154  0.3602 -1.0834 -1.4031
  905MOL0     O22043   3.753   9.574   4.120 -0.2924  0.3416 -0.0146
  905MOL0     C22044   3.885   9.609   4.108 -0.2508 -0.3381 -0.1641
  905MOL0     C22045   3.944   9.662   3.995 -0.8069 -0.2257  0.0984
  905MOL0     C22046   4.084   9.682   4.000 -0.7874 -0.4400  0.0430
  905MOL0     C22047   4.165   9.667   4.118  0.4205  0.2509  0.5266
  905MOL0     O22048   4.299   9.683   4.137 -0.3021  0.3325  0.0030
  905MOL0     C22049   4.396   9.692   4.029  0.0638  1.2310 -0.5405
  905MOL0     C22050   4.529   9.714   4.102  0.7348 -0.6145  0.0418
  905MOL0     C22051   4.577   9.591   4.187  0.1993 -0.0791  0.2582
  905MOL0     C22052   4.710   9.606   4.248 -0.3817  1.4357 -0.3463
  905MOL0     C22053   4.755   9.472   4.312 -0.1160 -0.4196  1.3663
  905MOL0     C22054   4.691   9.430   4.450  0.3141  0.1382 -0.1721
  905MOL0     C22055   4.776   9.326   4.516  0.2867  0.1667 -0.6097
  905MOL0     C22056   4.711   9.262   4.634  0.8731  0.3291  0.0786
  905MOL0     N22057   4.795   9.165   4.703 -0.8850 -0.3697  0.0690
  905MOL0     C22058   4.911   9.193   4.776 -0.4979 -0.3613 -0.2016
  905MOL0     C22059   4.984   9.083   4.800 -0.1529 -0.0313 -0.4247
  905MOL0     C22060   5.107   9.045   4.882 -0.4220 -1.2035  0.1827
  905MOL0     C22061   5.228   9.118   4.826 -0.7064  0.2663  0.7115
  905MOL0     C22062   5.356   9.073   4.891  0.0769 -0.2867 -0.4865
  905MOL0     C22063   5.487   9.141   4.843  0.5775  0.3928 -0.1300
  905MOL0     O22064   5.476   9.283   4.844  0.3742  0.3133 -0.7375
  905MOL0     C22065   5.592   9.361   4.827  0.2436 -0.0785 -0.6281
  905MOL0     C22066   5.725   9.311   4.804 -0.5545  0.4030  0.4544
  905MOL0     C22067   5.832   9.403   4.794 -0.4626 -0.4534 -0.4642
  905MOL0     C22068   5.811   9.540   4.798 -0.0018  0.1527 -0.6326
  905MOL0     C22069   5.924   9.631   4.783 -0.8034 -0.2159  0.7220
  905MOL0     O22070   6.041   9.560   4.776 -0.0871 -0.3909 -0.3887
  905MOL0     C22071   6.152   9.641   4.749  0.7731 -0.1481  0.1453
  905MOL0     C22072   6.188   9.765   4.799  0.4787  1.2498 -0.0493
  905MOL0     C22073   6.303   9.830   4.762  0.4774  0.0748  0.5333
  905MOL0     C22074   6.389   9.766   4.678  0.0756 -0.7595 -0.0605
  905MOL0     O22075   6.507   9.827   4.653 -0.1474  0.6400 -0.2915
  905MOL0     C22076   6.607   9.751   4.584 -0.1185 -0.4731  0.5851
  905MOL0     C22077   6.727   9.850   4.561 -0.0399 -0.2954 -0.4520
  905MOL0     C22078   6.835   9.761   4.508 -0.6571 -0.8405  0.4104
  905MOL0     C22079   6.966   9.830   4.445  0.1953 -0.3071 -0.6285
  905MOL0     C22080   7.095   9.748   4.473  0.1122  0.5147  0.1422
  905MOL0     C22081   7.200   9.798   4.362  0.6860  0.5668  0.5120
  905MOL0     C22082   7.225   9.947   4.390  0.1261  0.6490  0.3071
  905MOL0     C22083   7.332   9.992   4.299 -0.6998  0.0686 -0.0505
  905MOL0    Cl22084   7.497   9.969   4.385  0.5911  0.0124  0.0570
  905MOL0     C22085   6.358   9.645   4.624  0.1621  0.4269 -0.1573
  905MOL0     C22086   6.236   9.585   4.657 -0.1066 -0.2958  0.3616
  905MOL0     O22087   5.906   9.754   4.785 -0.2579 -0.0544 -0.2095
  905MOL0     C22088   5.680   9.581   4.810  0.1582  0.4038  0.7170
  905MOL0     C22089   5.573   9.498   4.821  0.3910  0.1667 -0.3663
  905MOL0     N22090   4.915   8.991   4.732 -0.1712  0.2491 -0.0543
  905MOL0     N22091   4.803   9.034   4.681  0.4933 -0.1607  0.9764
  905MOL0     C22092   4.095   9.633   4.231 -0.2818 -0.4846  0.4580
  905MOL0     C22093   3.958   9.602   4.232 -0.8832  0.6700  0.0208
  905MOL0     C22094   3.528   9.649   4.153 -0.3743 -0.1709 -0.5509
  905MOL0     C22095   3.482   9.561   4.049 -0.3761  0.5631  0.7099
  905MOL0     C22096   3.348   9.531   4.033  0.1634  0.4390 -0.1187
  905MOL0     C22097   3.252   9.594   4.104  0.5329  1.2806 -0.2949
  905MOL0     O22098   3.110   9.574   4.091 -0.4523 -0.4226  0.9187
  905MOL0     C22099   3.073   9.515   3.961  0.3515  0.8858 -0.1432
  905MOL0     C22100   2.917   9.528   3.950 -0.9065  1.6244 -0.3740
  905MOL0     C22101   2.861   9.394   4.013  0.0793 -0.5775 -0.0846
  905MOL0     C22102   2.727   9.361   3.947  0.0998  0.7196 -0.1138
  905MOL0     C22103   2.667   9.237   3.995 -0.1801 -0.4026 -0.0601
  905MOL0     C22104   2.623   9.160   4.074 -0.1258 -0.3920 -0.8304
  905MOL0     C22105   3.294   9.675   4.209 -0.3530 -0.8005 -0.5950
  905MOL0     C22106   3.430   9.702   4.235  0.0416 -0.3720 -0.9316
  905MOL0     C22107   3.469   9.789   4.355 -1.1131 -0.9712 -0.2300
  905MOL0     H22108   3.875   9.682   3.914 -1.3607 -0.6963  0.4435
  905MOL0     H22109   4.133   9.716   3.909 -1.9972  0.6922 -0.2217
  905MOL0     H22110   4.380   9.608   3.961 -2.0478 -0.9979  2.4669
  905MOL0     H22111   4.379   9.781   3.967  1.7003  0.4745 -2.2024
  905MOL0     H22112   4.517   9.798   4.172  1.4653 -1.1638  0.8386
  905MOL0     H22113   4.607   9.744   4.031 -0.2920  0.7129 -0.5754
  905MOL0     H22114   4.565   9.500   4.127 -1.7562  0.3491 -0.0822
  905MOL0     H22115   4.494   9.573   4.257  0.7468  2.1642  1.5739
  905MOL0     H22116   4.779   9.638   4.169  0.0621 -0.9507 -0.9891
  905MOL0     H22117   4.709   9.684   4.325  0.5029  1.9834 -0.8735
  905MOL0     H22118   4.745   9.397   4.233  1.3903  0.4796  0.2616
  905MOL0     H22119   4.864   9.479   4.322  0.0122 -0.7481  0.3233
  905MOL0     H22120   4.684   9.522   4.509  2.6246 -0.3566  0.9701
  905MOL0     H22121   4.598   9.381   4.419  0.4332 -1.4129  1.7501
  905MOL0     H22122   4.872   9.366   4.551  0.4936 -0.5959 -0.2753
  905MOL0     H22123   4.797   9.250   4.441  0.7584 -1.4348  1.0556
  905MOL0     H22124   4.685   9.349   4.696  2.4634  1.9773 -1.4302
  905MOL0     H22125   4.617   9.217   4.601  0.6844 -0.6674  1.8539
  905MOL0     H22126   4.949   9.287   4.814  0.8653  0.0781 -2.5228
  905MOL0     H22127   5.082   9.072   4.985 -0.7263  0.6070 -0.3214
  905MOL0     H22128   5.134   8.940   4.873  2.4585 -0.4364 -1.0116
  905MOL0     H22129   5.240   9.100   4.719  1.2390  0.5223  0.8492
  905MOL0     H22130   5.210   9.226   4.824 -2.7925  0.0621 -3.7029
  905MOL0     H22131   5.375   8.965   4.891 -0.3139 -0.4225 -3.3843
  905MOL0     H22132   5.348   9.094   4.998  2.1273 -3.3080  0.4079
  905MOL0     H22133   5.505   9.100   4.744  0.8557 -0.3297  0.2075
  905MOL0     H22134   5.570   9.103   4.904 -1.6419 -1.4037  1.9656
  905MOL0     H22135   5.734   9.204   4.788 -0.3945  0.6167 -0.9848
  905MOL0     H22136   5.931   9.363   4.772 -0.3683 -0.7574  0.4830
  905MOL0     H22137   6.127   9.811   4.876 -0.2705 -0.0184  0.1392
  905MOL0     H22138   6.318   9.925   4.811  0.8113  0.5305 -0.4137
  905MOL0     H22139   6.643   9.662   4.636 -1.7461 -2.5304 -1.5999
  905MOL0     H22140   6.573   9.714   4.487  2.0125  0.1012 -0.4450
  905MOL0     H22141   6.702   9.927   4.488 -4.1767 -0.3448  0.6860
  905MOL0     H22142   6.761   9.909   4.647 -1.9012 -0.6788  0.5901
  905MOL0     H22143   6.867   9.712   4.601 -2.8363  0.3160  1.8791
  905MOL0     H22144   6.793   9.692   4.434 -1.1136 -0.5060  0.3463
  905MOL0     H22145   6.980   9.930   4.485 -0.7660 -1.4771  2.9467
  905MOL0     H22146   6.944   9.851   4.340  0.7819  2.2037 -0.3078
  905MOL0     H22147   7.084   9.639   4.462  4.0607  0.0613 -1.2455
  905MOL0     H22148   7.133   9.764   4.574 -0.1689  1.0272  0.1695
  905MOL0     H22149   7.295   9.743   4.356 -0.0342 -0.5569 -1.4611
  905MOL0     H22150   7.145   9.787   4.268 -1.0799  0.1635  1.5589
  905MOL0     H22151   7.258   9.974   4.491  2.1052 -2.2172  0.5471
  905MOL0     H22152   7.129   9.997   4.376 -0.4904  0.0331  2.0133
  905MOL0     H22153   7.334   9.940   4.203  4.2996  1.3157 -0.8919
  905MOL0     H22154   7.307  10.099   4.297 -1.2043  0.0706  2.4596
  905MOL0     H22155   6.428   9.579   4.573 -0.2849  0.1900 -0.4680
  905MOL0     H22156   6.207   9.488   4.618 -2.6665  0.2522  0.7333
  905MOL0     H22157   5.661   9.688   4.812 -2.0393  0.1785 -1.9450
  905MOL0     H22158   5.470   9.530   4.833 -1.4036 -5.4483  3.0403
  905MOL0     H22159   4.164   9.628   4.315  0.2932  2.0499  0.2319
  905MOL0     H22160   3.907   9.565   4.321 -1.3511 -1.5732 -1.1203
  905MOL0     H22161   3.549   9.516   3.976 -0.4867 -0.0858  1.0026
  905MOL0     H22162   3.315   9.482   3.942  2.2943  1.1034 -1.3140
  905MOL0     H22163   3.120   9.416   3.967  1.7527  1.4816 -0.7719
  905MOL0     H22164   3.116   9.565   3.873  2.5532 -0.8225 -0.1336
  905MOL0     H22165   2.897   9.530   3.843 -0.4204  2.0818 -0.4617
  905MOL0     H22166   2.881   9.621   3.996  1.9300  2.1505  1.0569
  905MOL0     H22167   2.860   9.404   4.122  0.5824  0.2545 -0.1466
  905MOL0     H22168   2.927   9.307   3.999  2.0849  0.6769  1.1566
  905MOL0     H22169   2.648   9.432   3.971 -2.2499 -2.2479  1.7393
  905MOL0     H22170   2.743   9.357   3.839  0.8520  2.6277 -0.1010
  905MOL0     H22171   2.589   9.087   4.145  2.4294 -2.1483 -1.2908
  905MOL0     H22172   3.217   9.723   4.269  0.8812 -1.8341  1.9761
  905MOL0     H22173   3.391   9.783   4.431 -1.5051 -0.9005 -0.6241
  905MOL0     H22174   3.561   9.757   4.406 -0.1723  3.2429  1.0575
  905MOL0     H22175   3.487   9.891   4.320 -2.0274 -1.0472 -0.9667
  906MOL0     O22176   9.832   4.008   8.187 -0.2000  0.7123 -0.3779
  906MOL0     C22177   9.781   3.935   8.099 -0.5437  1.2030  0.7927
  906MOL0     O22178   9.685   3.975   8.009 -0.0069  0.3535 -0.0435
  906MOL0     C22179   9.625   4.102   8.024 -0.3157 -0.2184 -0.0193
  906MOL0     C22180   9.697   4.219   8.045 -0.7303  0.3238  0.2164
  906MOL0     C22181   9.628   4.343   8.038 -0.1633  0.2299  0.7457
  906MOL0     C22182   9.490   4.354   8.014 -0.2979  0.6309  0.7240
  906MOL0     O22183   9.447   4.478   8.005  0.3377  0.4996  0.1693
  906MOL0     C22184   9.306   4.497   7.992  1.1140 -0.7999  0.5996
  906MOL0     C22185   9.248   4.533   8.126 -0.3505 -0.0135 -0.0852
  906MOL0     C22186   9.092   4.541   8.116  0.0126  0.9296  0.9255
  906MOL0     C22187   9.007   4.599   8.237 -0.7305 -0.2933  0.7925
  906MOL0     C22188   8.878   4.527   8.261 -0.4421  0.4699  0.2602
  906MOL0     C22189   8.788   4.585   8.378 -0.0244  0.8258  0.5338
  906MOL0     C22190   8.654   4.508   8.387  0.0482  0.8606  0.0220
  906MOL0     C22191   8.556   4.543   8.285  0.9203 -0.1105  0.0404
  906MOL0     N22192   8.440   4.454   8.268 -0.0488  0.8227 -0.3102
  906MOL0     C22193   8.417   4.358   8.169  0.4716  0.0940 -0.0604
  906MOL0     C22194   8.292   4.317   8.190  0.2546 -0.0881 -0.2874
  906MOL0     C22195   8.227   4.221   8.100  0.0622 -0.3569  1.1862
  906MOL0     C22196   8.293   4.082   8.084  0.2428  0.3060 -0.2828
  906MOL0     C22197   8.209   3.986   7.996 -0.1140 -0.1244  0.4761
  906MOL0     C22198   8.269   3.843   7.982  0.6021  0.4638  0.8237
  906MOL0     O22199   8.412   3.865   7.950 -0.2712  0.5275 -0.9710
  906MOL0     C22200   8.494   3.754   7.961 -0.0458  0.4049 -1.5761
  906MOL0     C22201   8.631   3.772   7.939  0.0069 -0.4116  0.3000
  906MOL0     C22202   8.726   3.677   7.942 -0.4088  1.1365 -0.7691
  906MOL0     C22203   8.688   3.543   7.967  0.7558  0.3010  0.6507
  906MOL0     C22204   8.770   3.421   7.965  0.0316 -0.4214  0.4285
  906MOL0     O22205   8.726   3.301   7.919 -0.1786 -0.0666  0.1333
  906MOL0     C22206   8.827   3.207   7.924 -0.3126  0.1585  0.5648
  906MOL0     C22207   8.919   3.198   7.822 -0.1264  0.7261 -0.0645
  906MOL0     C22208   9.029   3.106   7.825 -0.6798 -0.0228 -0.3369
  906MOL0     C22209   9.053   3.035   7.940 -0.2668  0.4354 -0.8535
  906MOL0     O22210   9.163   2.952   7.948  0.3128 -0.2638  0.4091
  906MOL0     C22211   9.139   2.824   7.896  0.1700  0.4587  0.2758
  906MOL0     C22212   9.269   2.742   7.870  0.2767  0.0475  0.0134
  906MOL0     C22213   9.368   2.831   7.788 -0.4057  0.4143 -0.2598
  906MOL0     C22214   9.501   2.769   7.758 -0.3419  0.1344 -0.1123
  906MOL0     C22215   9.607   2.870   7.698  0.0673 -0.7988  0.2515
  906MOL0     C22216   9.745   2.808   7.689 -0.8261  0.1568 -0.3354
  906MOL0     C22217   9.861   2.898   7.672 -0.6810  0.6314  1.0101
  906MOL0     C22218   9.993   2.819   7.652 -0.3878 -1.0581 -1.3684
  906MOL0    Cl22219  10.131   2.937   7.638 -0.4931  0.4131 -0.2093
  906MOL0     C22220   8.944   3.020   8.032 -0.1644 -0.6236  0.2964
  906MOL0     C22221   8.838   3.111   8.032  0.2705  0.9028  0.3915
  906MOL0     O22222   8.887   3.458   7.994  0.0369  0.0453 -0.5537
  906MOL0     C22223   8.548   3.522   7.989  0.4688  0.0989 -0.0638
  906MOL0     C22224   8.460   3.625   7.992  0.6383 -1.2137  0.3366
  906MOL0     N22225   8.238   4.375   8.298  1.0208 -0.5801  0.8540
  906MOL0     N22226   8.324   4.456   8.344  0.2655 -0.3800  0.2846
  906MOL0     C22227   9.420   4.229   8.007 -0.1189  0.0339  0.9831
  906MOL0     C22228   9.491   4.113   7.999  0.6367  0.0112 -0.5869
  906MOL0     C22229   9.814   3.785   8.091 -0.4660  0.5108 -0.2048
  906MOL0     C22230   9.707   3.699   8.054 -0.0800  0.7777 -0.0433
  906MOL0     C22231   9.725   3.561   8.035  0.5063 -0.0794 -0.2993
  906MOL0     C22232   9.847   3.497   8.055  0.3106 -0.5894 -0.1947
  906MOL0     O22233   9.864   3.364   8.023 -0.5699 -0.3435 -0.4630
  906MOL0     C22234   9.758   3.292   7.961 -0.9852  0.0720 -0.0970
  906MOL0     C22235   9.817   3.151   7.959  1.1689  0.0846  0.4041
  906MOL0     C22236   9.818   3.073   8.090 -0.3515 -0.6772 -0.0632
  906MOL0     C22237   9.848   2.929   8.075 -0.7020 -0.1621  0.5829
  906MOL0     C22238   9.997   2.915   8.070 -0.3837 -0.1811 -0.9177
  906MOL0     C22239  10.119   2.913   8.063 -0.5184 -0.1632 -0.6496
  906MOL0     C22240   9.959   3.583   8.089  0.4617  0.0973 -0.3930
  906MOL0     C22241   9.943   3.722   8.095 -0.5312  0.1399  0.9001
  906MOL0     C22242  10.061   3.802   8.132  0.0544 -0.1562 -0.3611
  906MOL0     H22243   9.805   4.218   8.040 -0.7727 -0.8154 -2.6747
  906MOL0     H22244   9.684   4.431   8.067 -0.2459 -0.3471  2.8175
  906MOL0     H22245   9.296   4.590   7.935  1.9360 -0.7731  0.4844
  906MOL0     H22246   9.248   4.422   7.938 -1.8508  3.0711 -2.2247
  906MOL0     H22247   9.286   4.632   8.150 -1.2358 -0.0998  1.7629
  906MOL0     H22248   9.269   4.458   8.203  2.1220 -0.3825 -1.0018
  906MOL0     H22249   9.056   4.439   8.103  2.8012  0.2297 -3.6596
  906MOL0     H22250   9.061   4.593   8.024 -0.0625 -2.3873 -1.0810
  906MOL0     H22251   9.062   4.594   8.331 -0.9627  4.1146  1.3802
  906MOL0     H22252   8.982   4.703   8.215 -3.1328 -0.6787  1.3882
  906MOL0     H22253   8.811   4.524   8.174  0.4778 -1.5474 -0.4346
  906MOL0     H22254   8.898   4.423   8.284 -0.4188 -0.5095 -3.4452
  906MOL0     H22255   8.835   4.573   8.476 -0.3705 -1.7531  0.4563
  906MOL0     H22256   8.760   4.690   8.364 -1.3038  0.3588 -0.6618
  906MOL0     H22257   8.616   4.519   8.489  1.7031 -1.9581  1.0747
  906MOL0     H22258   8.676   4.401   8.375 -1.3714  0.5489  0.0033
  906MOL0     H22259   8.512   4.640   8.310  1.1818  0.1190 -0.3729
  906MOL0     H22260   8.599   4.555   8.185  0.2419 -1.2313 -0.4075
  906MOL0     H22261   8.490   4.322   8.097 -1.9037 -2.1523 -1.5143
  906MOL0     H22262   8.120   4.206   8.115 -0.5675 -0.4417 -2.5587
  906MOL0     H22263   8.227   4.259   7.998  0.3708 -0.5666  1.1076
  906MOL0     H22264   8.393   4.098   8.044  0.8118 -1.1830  0.4638
  906MOL0     H22265   8.313   4.029   8.177  3.4782  0.3262 -0.8510
  906MOL0     H22266   8.190   4.027   7.896 -3.5685 -0.5843  0.8095
  906MOL0     H22267   8.110   3.989   8.042  0.5457  2.1384  1.8834
  906MOL0     H22268   8.218   3.794   7.898 -2.2187  2.0932  1.4398
  906MOL0     H22269   8.252   3.796   8.079  0.3873  0.6882  0.8957
  906MOL0     H22270   8.663   3.875   7.927 -1.0007  0.0150  1.1679
  906MOL0     H22271   8.831   3.699   7.926 -0.3873  0.7520 -1.1776
  906MOL0     H22272   8.922   3.271   7.742  1.7150  2.6354  1.6316
  906MOL0     H22273   9.111   3.098   7.755  0.7715 -0.0084  1.2914
  906MOL0     H22274   9.093   2.769   7.978  0.3488 -0.5727 -0.2902
  906MOL0     H22275   9.077   2.826   7.806 -0.7760 -1.7564  0.8168
  906MOL0     H22276   9.317   2.725   7.966  1.8452  2.2125 -0.3233
  906MOL0     H22277   9.245   2.644   7.825  0.2137 -1.0521  2.3216
  906MOL0     H22278   9.332   2.854   7.688 -1.2877 -1.7734 -0.5001
  906MOL0     H22279   9.384   2.924   7.844 -3.0659  1.4691 -1.1086
  906MOL0     H22280   9.490   2.679   7.696 -2.4789 -0.9623  1.7004
  906MOL0     H22281   9.543   2.736   7.854  0.7827 -0.1947 -0.6989
  906MOL0     H22282   9.617   2.960   7.759  2.7721  0.9999 -2.5707
  906MOL0     H22283   9.565   2.904   7.603  0.0971  2.6585  1.3366
  906MOL0     H22284   9.774   2.743   7.772  2.5815  1.1751 -0.5541
  906MOL0     H22285   9.749   2.735   7.607  2.8976  0.4532 -0.5669
  906MOL0     H22286   9.880   2.956   7.764  3.4832  1.4824 -0.1829
  906MOL0     H22287   9.838   2.957   7.582 -1.8367 -1.1651  0.0704
  906MOL0     H22288  10.012   2.745   7.731 -0.4341  0.5835  0.2428
  906MOL0     H22289   9.996   2.755   7.564 -1.7353  0.3972 -2.5270
  906MOL0     H22290   8.945   2.962   8.123  3.6019 -2.3632 -0.6670
  906MOL0     H22291   8.772   3.108   8.118 -0.8574 -0.9809 -0.4806
  906MOL0     H22292   8.501   3.424   7.990  0.3711  0.1438  0.8253
  906MOL0     H22293   8.358   3.591   8.004  0.2100  0.4267  1.6643
  906MOL0     H22294   9.314   4.220   7.983  0.8672 -4.0421 -3.4918
  906MOL0     H22295   9.444   4.015   7.994  1.2201 -0.3849  1.0165
  906MOL0     H22296   9.606   3.738   8.060 -0.0409  0.9449 -0.4378
  906MOL0     H22297   9.632   3.517   8.000 -0.8946  1.8344  0.7992
  906MOL0     H22298   9.739   3.326   7.858  2.9288 -0.9552 -1.3364
  906MOL0     H22299   9.669   3.296   8.025 -0.2088 -0.7590  1.0691
  906MOL0     H22300   9.911   3.148   7.903  0.7237  0.3619 -0.3666
  906MOL0     H22301   9.742   3.102   7.897  0.5184 -0.3640  1.5234
  906MOL0     H22302   9.714   3.082   8.120  0.2743  0.1443  2.0027
  906MOL0     H22303   9.881   3.121   8.166  2.1441 -2.0091 -1.1588
  906MOL0     H22304   9.806   2.884   8.165  0.1937 -1.2724  0.4606
  906MOL0     H22305   9.794   2.885   7.990 -2.7842  2.0529  0.6322
  906MOL0     H22306  10.226   2.907   8.061 -0.5331 -0.8494  0.0573
  906MOL0     H22307  10.056   3.535   8.095  1.0615  1.2704 -0.5218
  906MOL0     H22308  10.028   3.881   8.200  0.8483  0.2926 -0.4747
  906MOL0     H22309  10.143   3.751   8.185  1.1742 -0.8577 -2.6328
  906MOL0     H22310  10.098   3.842   8.037  0.3218 -1.7054 -0.9451
  907MOL0     O22311   0.034   5.136   8.144  0.6473 -0.7128 -0.5773
  907MOL0     C22312   0.096   5.070   8.225 -0.1759 -0.4942 -0.0586
  907MOL0     O22313   0.102   4.933   8.234  0.3881 -0.6599 -0.0325
  907MOL0     C22314   0.028   4.860   8.151 -0.0172 -0.6236  0.5964
  907MOL0     C22315   0.097   4.793   8.046  0.7535  0.8135 -0.5254
  907MOL0     C22316   0.008   4.714   7.963 -0.5728  0.3028 -0.3973
  907MOL0     C22317  -0.130   4.707   7.983  0.3065 -0.6862  0.1253
  907MOL0     O22318  -0.191   4.621   7.900 -0.3938  0.0075 -0.6559
  907MOL0     C22319  -0.327   4.599   7.902  1.1298  0.2170  1.2112
  907MOL0     C22320  -0.360   4.530   7.764  0.5277  0.6403 -0.4589
  907MOL0     C22321  -0.513   4.493   7.759  0.7508 -0.1727  0.2189
  907MOL0     C22322  -0.563   4.469   7.623  0.4154  1.6086  0.3144
  907MOL0     C22323  -0.700   4.392   7.609 -0.6578 -0.0292  0.1546
  907MOL0     C22324  -0.808   4.431   7.711 -0.7861  0.7216 -0.0922
  907MOL0     C22325  -0.955   4.370   7.683  0.0550 -0.4504  0.8628
  907MOL0     C22326  -1.009   4.380   7.544  0.3515 -0.4854  0.5956
  907MOL0     N22327  -1.137   4.312   7.530  0.2388 -0.1554  1.1589
  907MOL0     C22328  -1.197   4.196   7.587 -1.0080 -0.4749 -0.5806
  907MOL0     C22329  -1.324   4.197   7.537 -0.1089  0.3890 -0.1153
  907MOL0     C22330  -1.427   4.095   7.576 -0.7856 -0.0817 -0.0825
  907MOL0     C22331  -1.524   4.144   7.686  0.5058 -1.0914 -0.0966
  907MOL0     C22332  -1.605   4.274   7.654 -0.5112  0.4975 -0.4491
  907MOL0     C22333  -1.538   4.395   7.725  0.7088 -0.7118  0.5145
  907MOL0     O22334  -1.628   4.507   7.708 -0.0473 -0.1033  0.6287
  907MOL0     C22335  -1.579   4.627   7.681  0.2596 -1.2050 -0.1120
  907MOL0     C22336  -1.638   4.734   7.750  0.4260  0.2598 -0.2392
  907MOL0     C22337  -1.582   4.860   7.758 -0.1610 -0.8394 -0.4687
  907MOL0     C22338  -1.465   4.893   7.689  0.4251 -0.4733  0.1022
  907MOL0     C22339  -1.416   5.029   7.697  0.3346 -0.4277 -0.0434
  907MOL0     O22340  -1.328   5.057   7.595  0.5904 -0.3100  0.3710
  907MOL0     C22341  -1.258   5.182   7.593 -0.2417 -0.7211  0.1063
  907MOL0     C22342  -1.242   5.240   7.469 -0.0559 -0.2267  0.2408
  907MOL0     C22343  -1.166   5.355   7.451 -0.2045  0.1516 -0.0394
  907MOL0     C22344  -1.107   5.417   7.561  0.3283 -0.2981  0.2999
  907MOL0     O22345  -1.030   5.525   7.561 -0.2361 -0.0517  0.0961
  907MOL0     C22346  -0.931   5.535   7.449  0.6537 -0.3316 -0.9283
  907MOL0     C22347  -0.824   5.438   7.477 -0.5094  0.4409  0.9664
  907MOL0     C22348  -0.732   5.424   7.353 -0.4664 -0.0600  0.1486
  907MOL0     C22349  -0.607   5.344   7.401 -0.4217 -0.7321  0.6770
  907MOL0     C22350  -0.520   5.284   7.291 -0.1187 -0.2769  0.0104
  907MOL0     C22351  -0.403   5.212   7.344  0.2401  0.4774  0.5087
  907MOL0     C22352  -0.340   5.124   7.220 -0.1931  0.4715 -0.4435
  907MOL0     C22353  -0.219   5.050   7.268 -0.8623  0.4934  0.5063
  907MOL0    Cl22354  -0.072   5.171   7.276  0.0673  0.1515  0.3697
  907MOL0     C22355  -1.123   5.358   7.688  0.2943 -0.0047 -0.1546
  907MOL0     C22356  -1.200   5.246   7.703  0.9451  0.1073 -0.5917
  907MOL0     O22357  -1.454   5.103   7.786 -0.4385 -0.2775 -0.2581
  907MOL0     C22358  -1.417   4.797   7.598 -0.0597  0.0011  0.1460
  907MOL0     C22359  -1.470   4.662   7.600 -0.9387  0.8426  0.3421
  907MOL0     N22360  -1.344   4.305   7.458 -0.6258  1.4026  0.2715
  907MOL0     N22361  -1.238   4.378   7.456 -0.1285  0.4211 -0.5165
  907MOL0     C22362  -0.182   4.774   8.085  0.2526 -1.1081 -0.1281
  907MOL0     C22363  -0.112   4.848   8.174 -0.7439 -0.0279 -0.5128
  907MOL0     C22364   0.190   5.139   8.321 -0.6623 -0.2434 -0.1959
  907MOL0     C22365   0.307   5.180   8.264  0.1762  0.2800 -0.3679
  907MOL0     C22366   0.396   5.252   8.353  0.0285 -0.0013  0.4616
  907MOL0     C22367   0.364   5.292   8.486  0.7272  0.1724 -0.4910
  907MOL0     O22368   0.463   5.356   8.560 -0.0381 -0.7291  0.2949
  907MOL0     C22369   0.413   5.435   8.675 -0.4268 -0.1018 -0.3523
  907MOL0     C22370   0.518   5.544   8.689 -0.7985  0.4475  1.0819
  907MOL0     C22371   0.661   5.492   8.724 -0.0834 -0.0147  0.0198
  907MOL0     C22372   0.758   5.601   8.739 -0.0665  0.1733  0.3521
  907MOL0     C22373   0.723   5.709   8.837  0.8417 -0.7217 -0.2738
  907MOL0     C22374   0.687   5.810   8.911  0.6612  0.1812  0.2776
  907MOL0     C22375   0.236   5.259   8.529 -0.7836  0.4019 -0.1506
  907MOL0     C22376   0.150   5.176   8.456 -0.6363  0.8330  0.0505
  907MOL0     C22377   0.015   5.138   8.495  0.3074 -0.3783 -0.0511
  907MOL0     H22378   0.204   4.807   8.041  0.8375  1.0904  1.3343
  907MOL0     H22379   0.049   4.645   7.890 -0.9705  0.0247 -0.3593
  907MOL0     H22380  -0.368   4.538   7.984  0.2468  1.6498  1.8729
  907MOL0     H22381  -0.387   4.690   7.906 -1.5350 -1.3531 -0.1603
  907MOL0     H22382  -0.309   4.434   7.762  0.2699  0.5113 -0.9270
  907MOL0     H22383  -0.334   4.588   7.675 -0.1631 -0.7770 -1.6332
  907MOL0     H22384  -0.571   4.578   7.797  0.6592 -0.7229  1.3426
  907MOL0     H22385  -0.536   4.399   7.811  1.3426  0.0143  0.8305
  907MOL0     H22386  -0.569   4.561   7.564 -0.0022  1.2391 -0.2439
  907MOL0     H22387  -0.488   4.418   7.563 -3.5249 -1.3799 -2.6715
  907MOL0     H22388  -0.730   4.425   7.509 -0.3387 -1.8573 -0.5870
  907MOL0     H22389  -0.681   4.284   7.619 -1.7747 -0.4364 -1.5831
  907MOL0     H22390  -0.765   4.421   7.812 -4.9553  0.1671  1.8261
  907MOL0     H22391  -0.810   4.538   7.689  0.7436  0.4437 -1.8138
  907MOL0     H22392  -1.016   4.418   7.760 -0.6628 -0.3123  0.2158
  907MOL0     H22393  -0.934   4.265   7.707 -1.4527 -0.7319  1.0744
  907MOL0     H22394  -1.031   4.486   7.529 -1.5957 -0.5340  2.6490
  907MOL0     H22395  -0.933   4.335   7.478  0.1833 -0.2570  0.2457
  907MOL0     H22396  -1.155   4.131   7.663 -1.7182  1.4536  1.5927
  907MOL0     H22397  -1.486   4.068   7.488  0.8976 -2.3737 -0.6114
  907MOL0     H22398  -1.370   4.011   7.616  1.2960 -0.1068 -2.7558
  907MOL0     H22399  -1.604   4.070   7.702 -1.2900  0.6550 -0.5057
  907MOL0     H22400  -1.473   4.145   7.783  1.2213 -0.0543 -0.4739
  907MOL0     H22401  -1.704   4.280   7.700  0.7281 -0.9512  2.7310
  907MOL0     H22402  -1.621   4.282   7.547 -1.3532 -2.5920 -0.6596
  907MOL0     H22403  -1.435   4.414   7.694 -0.8437  1.8491 -3.9595
  907MOL0     H22404  -1.540   4.374   7.833 -2.8578  2.1275  1.1780
  907MOL0     H22405  -1.724   4.706   7.810  0.8363 -1.0992 -0.2477
  907MOL0     H22406  -1.628   4.930   7.827 -0.1547 -2.1823  0.9394
  907MOL0     H22407  -1.284   5.179   7.390 -0.9439 -2.2650  2.1785
  907MOL0     H22408  -1.137   5.382   7.350  0.8480 -0.4953  0.0719
  907MOL0     H22409  -0.975   5.502   7.355  1.8714  0.4285 -1.7973
  907MOL0     H22410  -0.900   5.640   7.446  0.0631 -0.1793 -2.2134
  907MOL0     H22411  -0.776   5.477   7.567  2.3694  1.3663 -0.8230
  907MOL0     H22412  -0.864   5.337   7.486  1.5877 -0.5487 -0.1820
  907MOL0     H22413  -0.797   5.378   7.278 -0.8531  0.2700  0.2800
  907MOL0     H22414  -0.695   5.521   7.318 -0.1734 -0.9772 -2.2346
  907MOL0     H22415  -0.640   5.266   7.470  1.1637 -0.1509  2.1933
  907MOL0     H22416  -0.542   5.408   7.462  1.4350 -3.3222  1.6135
  907MOL0     H22417  -0.488   5.362   7.221 -1.8676  0.6270  0.1645
  907MOL0     H22418  -0.579   5.208   7.239  0.1705 -2.0521  2.1368
  907MOL0     H22419  -0.337   5.293   7.379 -0.8794  0.9121  1.6953
  907MOL0     H22420  -0.422   5.149   7.431  0.6583 -0.6424 -0.1914
  907MOL0     H22421  -0.337   5.187   7.130  0.5740 -1.7333 -2.0333
  907MOL0     H22422  -0.413   5.050   7.187  2.0934 -2.1806  0.1288
  907MOL0     H22423  -0.239   4.999   7.363 -1.0387 -2.1808 -0.8869
  907MOL0     H22424  -0.194   4.973   7.195 -2.0760 -0.0865  0.6785
  907MOL0     H22425  -1.059   5.400   7.766 -0.7927 -0.0692  0.7949
  907MOL0     H22426  -1.209   5.195   7.798 -0.9212 -1.1039 -1.3614
  907MOL0     H22427  -1.334   4.832   7.537 -0.6050 -2.2916 -2.1159
  907MOL0     H22428  -1.422   4.592   7.532 -1.4266  0.9869 -0.1553
  907MOL0     H22429  -0.287   4.760   8.111  0.1309  1.0161  0.6939
  907MOL0     H22430  -0.161   4.905   8.252 -1.1590  0.9101 -1.4371
  907MOL0     H22431   0.336   5.164   8.160  1.4827 -0.2029  0.0547
  907MOL0     H22432   0.494   5.273   8.311 -0.0731  0.4019  0.4312
  907MOL0     H22433   0.407   5.377   8.767  0.0216 -0.6606 -0.6686
  907MOL0     H22434   0.319   5.490   8.665 -0.3277 -0.3387 -3.8479
  907MOL0     H22435   0.489   5.618   8.764 -1.3756  2.1400 -0.7450
  907MOL0     H22436   0.516   5.610   8.603 -4.0262 -0.3890  0.3565
  907MOL0     H22437   0.691   5.415   8.653  0.6273 -0.9593  1.3061
  907MOL0     H22438   0.652   5.433   8.816  2.8671  0.5238  0.7602
  907MOL0     H22439   0.859   5.567   8.764 -0.7931 -2.4858 -0.0115
  907MOL0     H22440   0.772   5.640   8.638  3.0045 -0.7259  0.3161
  907MOL0     H22441   0.668   5.893   8.977  1.8189 -0.6718  1.7375
  907MOL0     H22442   0.205   5.291   8.628  0.7832  5.4668 -1.0081
  907MOL0     H22443  -0.005   5.034   8.470  1.7892 -0.6132 -0.3868
  907MOL0     H22444  -0.003   5.161   8.600 -0.0777 -2.9126  0.4973
  907MOL0     H22445  -0.062   5.186   8.434  0.6897 -0.3666 -0.5351
  908MOL0     O22446  10.935   6.868   6.108 -0.6622  0.0659  0.1168
  908MOL0     C22447  10.936   6.747   6.091 -0.6668  0.0150  1.1676
  908MOL0     O22448  10.825   6.672   6.111  0.1786  0.1228  0.5535
  908MOL0     C22449  10.700   6.720   6.077 -0.4410  1.0205  0.2305
  908MOL0     C22450  10.625   6.640   5.980  0.6476 -0.8989  0.3168
  908MOL0     C22451  10.505   6.699   5.934 -0.0658  0.7179 -0.2968
  908MOL0     C22452  10.450   6.816   5.993  0.4690 -0.0510 -0.2478
  908MOL0     O22453  10.340   6.859   5.933 -0.3429 -0.3015 -0.4399
  908MOL0     C22454  10.353   7.001   5.907 -0.0519 -0.0574 -0.0405
  908MOL0     C22455  10.422   7.029   5.774  0.5528 -0.2496  0.4995
  908MOL0     C22456  10.415   6.905   5.680  0.3774 -0.1475 -0.4385
  908MOL0     C22457  10.418   6.954   5.537  0.3363 -0.6452 -0.4054
  908MOL0     C22458  10.454   6.853   5.426 -0.8456 -0.3157  0.2565
  908MOL0     C22459  10.370   6.726   5.427 -0.2842 -0.3599 -0.1948
  908MOL0     C22460  10.222   6.759   5.392  0.4040 -0.2719 -0.5807
  908MOL0     C22461  10.194   6.797   5.250 -0.9863 -1.1734  1.0027
  908MOL0     N22462  10.261   6.704   5.155  0.4320 -0.0924  0.4459
  908MOL0     C22463  10.226   6.569   5.134 -0.4612  0.0287  0.6925
  908MOL0     C22464  10.328   6.509   5.065 -0.0096  0.3497 -0.5499
  908MOL0     C22465  10.341   6.365   5.033  0.6578  0.2046 -0.5665
  908MOL0     C22466  10.479   6.314   5.056 -0.4961 -0.2240 -0.5821
  908MOL0     C22467  10.511   6.310   5.200 -0.4595 -0.2120 -0.5953
  908MOL0     C22468  10.630   6.227   5.234 -0.8622 -0.1757 -0.2778
  908MOL0     O22469  10.750   6.284   5.187 -0.3948  0.0163 -0.0396
  908MOL0     C22470  10.864   6.210   5.203 -0.3460  0.1280  0.2930
  908MOL0     C22471  10.885   6.081   5.244  0.6042  0.0694  0.2147
  908MOL0     C22472  11.011   6.028   5.271  0.4694 -0.1808 -0.0616
  908MOL0     C22473  11.126   6.109   5.271  0.0443 -0.3845  0.2868
  908MOL0     C22474  11.267   6.055   5.302  0.6880 -0.0419 -0.8185
  908MOL0     O22475  11.381   6.127   5.275  0.3515  0.5675 -0.3923
  908MOL0     C22476  11.511   6.077   5.289 -0.5851  0.3879  0.4806
  908MOL0     C22477  11.588   6.114   5.406  0.3955  0.0933 -0.6487
  908MOL0     C22478  11.712   6.055   5.422 -0.4479 -0.0315 -0.5288
  908MOL0     C22479  11.769   5.984   5.312 -0.3130 -0.1037 -0.2351
  908MOL0     O22480  11.899   5.944   5.320 -0.3686 -0.1886 -0.3337
  908MOL0     C22481  11.907   5.822   5.398 -0.2469  0.6576  0.4742
  908MOL0     C22482  12.046   5.762   5.374 -0.3144 -0.0430  0.2044
  908MOL0     C22483  12.062   5.616   5.428  0.1164 -0.1142  0.8057
  908MOL0     C22484  12.198   5.568   5.390  0.0762 -0.0913 -0.0125
  908MOL0     C22485  12.286   5.552   5.513 -0.3293  0.3101  0.1798
  908MOL0     C22486  12.432   5.510   5.475  0.8685  0.2893 -0.2875
  908MOL0     C22487  12.534   5.626   5.473  0.2111  0.2261 -1.2773
  908MOL0     C22488  12.668   5.590   5.404  0.1697  0.4426 -0.6468
  908MOL0    Cl22489  12.761   5.741   5.408 -0.3418 -0.1409  0.2804
  908MOL0     C22490  11.687   5.955   5.205 -0.0764  0.6157 -0.4561
  908MOL0     C22491  11.552   5.991   5.199  0.1017 -0.2520  0.8338
  908MOL0     O22492  11.269   5.941   5.349  0.5633 -0.3742  0.4932
  908MOL0     C22493  11.102   6.244   5.253 -0.6367 -0.0590  0.6463
  908MOL0     C22494  10.972   6.297   5.216  0.5166 -1.1181  0.3640
  908MOL0     N22495  10.429   6.608   5.062  0.8370 -0.3202 -0.9173
  908MOL0     N22496  10.389   6.723   5.106  0.7298  0.9935  0.0175
  908MOL0     C22497  10.519   6.876   6.098 -0.3801  0.7531 -0.3880
  908MOL0     C22498  10.648   6.832   6.138 -0.0686  0.1223 -0.1953
  908MOL0     C22499  11.068   6.678   6.063 -0.5330  0.1696  0.1425
  908MOL0     C22500  11.090   6.614   5.939 -0.4357  0.0046  0.7361
  908MOL0     C22501  11.213   6.566   5.912 -0.3431  1.1435 -0.8162
  908MOL0     C22502  11.319   6.571   6.006  0.7284 -0.2927  1.1426
  908MOL0     O22503  11.446   6.532   5.967  0.4598 -0.0829  0.1979
  908MOL0     C22504  11.560   6.597   6.027 -0.2636  1.0398 -0.1392
  908MOL0     C22505  11.591   6.740   5.989 -0.8620  0.0263 -0.5082
  908MOL0     C22506  11.701   6.805   6.080  0.7701  0.3057  1.0357
  908MOL0     C22507  11.688   6.960   6.081  0.7650 -0.9426  0.1477
  908MOL0     C22508  11.674   7.022   5.947 -0.3668  0.1808  0.2502
  908MOL0     C22509  11.667   7.074   5.838 -0.3504  1.1157 -0.0178
  908MOL0     C22510  11.291   6.631   6.129  0.2676  0.2038  0.8037
  908MOL0     C22511  11.175   6.687   6.159 -0.5122 -0.4173 -0.6439
  908MOL0     C22512  11.159   6.738   6.297 -0.5459 -0.4107  0.2040
  908MOL0     H22513  10.661   6.547   5.938  4.0188  0.6454 -0.5665
  908MOL0     H22514  10.466   6.656   5.843 -0.3938 -0.3071  0.3079
  908MOL0     H22515  10.250   7.037   5.892 -0.5504 -1.8046 -1.2367
  908MOL0     H22516  10.396   7.063   5.985  2.9174 -0.9290 -0.8750
  908MOL0     H22517  10.526   7.060   5.784  0.4695  0.6429 -1.0622
  908MOL0     H22518  10.373   7.117   5.731  2.9953  1.1792  0.4616
  908MOL0     H22519  10.318   6.860   5.701  1.0109 -1.4917 -0.3486
  908MOL0     H22520  10.502   6.844   5.704  1.2689  0.4724 -1.9105
  908MOL0     H22521  10.319   7.001   5.532 -0.7148 -2.5306  1.2711
  908MOL0     H22522  10.492   7.035   5.540 -0.0768 -0.2387 -0.8771
  908MOL0     H22523  10.457   6.915   5.336 -0.1720 -0.5482  0.1077
  908MOL0     H22524  10.559   6.823   5.436 -1.0797 -1.8007 -1.2224
  908MOL0     H22525  10.405   6.652   5.354 -3.0538 -0.9565 -1.0132
  908MOL0     H22526  10.369   6.673   5.522  1.0442  0.0632  0.0793
  908MOL0     H22527  10.177   6.830   5.461  1.8665  1.1905 -1.0683
  908MOL0     H22528  10.171   6.663   5.408  1.8576 -0.9304  0.3513
  908MOL0     H22529  10.085   6.808   5.239 -1.2495 -2.1980  2.3103
  908MOL0     H22530  10.231   6.900   5.244  0.4714 -1.5613  2.5475
  908MOL0     H22531  10.134   6.525   5.170 -1.2522  0.8651 -0.2501
  908MOL0     H22532  10.284   6.304   5.103  1.2370 -4.5523 -3.7670
  908MOL0     H22533  10.317   6.329   4.932  0.3481 -1.3374  0.0299
  908MOL0     H22534  10.496   6.215   5.014 -0.4338 -0.0838 -0.8861
  908MOL0     H22535  10.552   6.380   5.009  2.3871 -2.1808  0.8738
  908MOL0     H22536  10.422   6.264   5.244 -1.7364  0.5445 -2.3053
  908MOL0     H22537  10.524   6.412   5.237  2.3529  0.4001 -2.9015
  908MOL0     H22538  10.621   6.128   5.187  5.2274 -1.9261  1.3040
  908MOL0     H22539  10.639   6.214   5.342  2.4023  2.9266  0.0154
  908MOL0     H22540  10.797   6.021   5.265  0.1099  0.6332 -0.1973
  908MOL0     H22541  11.020   5.922   5.296  1.1997 -0.4040 -1.1713
  908MOL0     H22542  11.534   6.173   5.479  2.7619  1.5208  0.0766
  908MOL0     H22543  11.776   6.077   5.507  2.0445  0.1984 -2.3615
  908MOL0     H22544  11.902   5.840   5.506  2.1565  1.0648  0.5765
  908MOL0     H22545  11.832   5.748   5.371 -0.6236  1.0619  0.4015
  908MOL0     H22546  12.063   5.774   5.266  1.3946 -0.3795  0.3972
  908MOL0     H22547  12.122   5.824   5.422  2.2667 -3.0323  0.3376
  908MOL0     H22548  12.047   5.608   5.536 -0.7428 -0.0052  0.7079
  908MOL0     H22549  11.988   5.556   5.374 -0.2412 -1.4319  2.6271
  908MOL0     H22550  12.259   5.640   5.334 -0.3284  0.2890  0.0383
  908MOL0     H22551  12.192   5.472   5.337  0.7883 -0.1821  0.0546
  908MOL0     H22552  12.237   5.471   5.567  0.8739 -0.5701 -0.0128
  908MOL0     H22553  12.280   5.648   5.566 -1.0855 -2.1834  5.1941
  908MOL0     H22554  12.457   5.435   5.550 -1.0054 -3.0149 -2.7117
  908MOL0     H22555  12.432   5.461   5.377  2.3179 -1.0448  0.3471
  908MOL0     H22556  12.549   5.661   5.576 -0.5285  0.8083 -1.3538
  908MOL0     H22557  12.487   5.709   5.420 -1.9216  1.1088  1.6899
  908MOL0     H22558  12.727   5.508   5.447 -1.2278 -0.8840 -1.1814
  908MOL0     H22559  12.662   5.568   5.297  0.0369 -1.6245 -0.2619
  908MOL0     H22560  11.730   5.890   5.130 -1.7836  0.0937 -1.0097
  908MOL0     H22561  11.486   5.952   5.122  0.8463 -0.7430  0.4321
  908MOL0     H22562  11.183   6.316   5.254 -0.7007  0.0715  3.1842
  908MOL0     H22563  10.968   6.403   5.195  3.4338 -0.9966 -0.0056
  908MOL0     H22564  10.475   6.959   6.150 -0.1676 -0.3615  1.6746
  908MOL0     H22565  10.708   6.888   6.210 -1.9125 -0.2810  1.7605
  908MOL0     H22566  11.016   6.615   5.860  0.7342 -0.0307 -0.3873
  908MOL0     H22567  11.233   6.521   5.815  0.2722  1.7227 -0.9715
  908MOL0     H22568  11.646   6.545   5.985  1.8411  3.0304  1.4921
  908MOL0     H22569  11.567   6.580   6.135  1.2744  1.1240 -0.2051
  908MOL0     H22570  11.496   6.793   6.006 -1.2125 -1.2556  1.9996
  908MOL0     H22571  11.601   6.752   5.881 -4.3744 -0.3139 -0.9951
  908MOL0     H22572  11.799   6.782   6.037  1.0252 -1.7923  2.6158
  908MOL0     H22573  11.680   6.766   6.180 -2.9117 -3.9864 -1.0212
  908MOL0     H22574  11.605   6.989   6.145 -1.3833 -0.7919 -2.4961
  908MOL0     H22575  11.778   7.000   6.127 -0.8937  1.7585  1.2696
  908MOL0     H22576  11.659   7.111   5.738 -2.8496 -0.4924 -0.4884
  908MOL0     H22577  11.363   6.633   6.210 -1.0289  0.7414  1.9861
  908MOL0     H22578  11.080   6.689   6.355 -0.9541  2.1665  2.0353
  908MOL0     H22579  11.249   6.748   6.359 -0.4096  1.4612 -0.2169
  908MOL0     H22580  11.130   6.844   6.289  0.6961 -0.1148 -0.6398
  909MOL0     O22581  10.516  11.290   3.888 -0.5231  0.4425  0.0718
  909MOL0     C22582  10.489  11.181   3.938 -0.2675 -0.0465 -0.1899
  909MOL0     O22583  10.578  11.112   4.013  0.8683  0.0962  0.3308
  909MOL0     C22584  10.672  11.178   4.091  0.2860  0.6236  1.2579
  909MOL0     C22585  10.644  11.299   4.156 -0.0697  0.4702  0.0577
  909MOL0     C22586  10.730  11.350   4.253  0.3261 -0.4637  0.3780
  909MOL0     C22587  10.855  11.301   4.270 -1.1107  0.2355 -0.4924
  909MOL0     O22588  10.956  11.349   4.343  0.5671  0.4445  0.2533
  909MOL0     C22589  10.946  11.483   4.378  0.6725  0.4860  0.2579
  909MOL0     C22590  11.079  11.494   4.444 -0.0113 -0.0118 -0.0531
  909MOL0     C22591  11.082  11.446   4.594 -0.0910  0.2446 -0.1772
  909MOL0     C22592  11.209  11.482   4.660  0.2405  0.5550  0.2169
  909MOL0     C22593  11.207  11.454   4.813 -0.1193  0.2280  0.0959
  909MOL0     C22594  11.347  11.472   4.886  0.3916 -0.4337  0.1658
  909MOL0     C22595  11.412  11.612   4.877 -0.2475 -0.5544  0.0336
  909MOL0     C22596  11.319  11.725   4.926 -0.4750  1.1506  0.0381
  909MOL0     N22597  11.369  11.853   4.884 -0.6795 -0.1354  0.5205
  909MOL0     C22598  11.499  11.886   4.900 -1.1850  0.2835  0.5108
  909MOL0     C22599  11.503  12.021   4.859 -0.5257 -0.4355  0.1742
  909MOL0     C22600  11.624  12.105   4.866  0.3703 -0.3725  0.5675
  909MOL0     C22601  11.639  12.206   4.756  0.1801  0.2982 -0.5016
  909MOL0     C22602  11.713  12.147   4.639 -0.4829 -0.0777 -0.1118
  909MOL0     C22603  11.716  12.242   4.518  0.0449 -0.4562  0.5992
  909MOL0     O22604  11.813  12.346   4.518  0.0575 -0.4528 -0.4462
  909MOL0     C22605  11.943  12.332   4.495  0.5546 -0.2851 -0.1446
  909MOL0     C22606  12.006  12.211   4.457 -0.4426  0.1223  1.1469
  909MOL0     C22607  12.145  12.194   4.440 -0.3092 -0.1421  0.7067
  909MOL0     C22608  12.230  12.304   4.456  0.5647  0.9855  0.1125
  909MOL0     C22609  12.374  12.291   4.439  0.4608 -0.2832 -0.1802
  909MOL0     O22610  12.452  12.403   4.428 -0.4825  0.1236  0.6229
  909MOL0     C22611  12.589  12.400   4.402 -0.7483  0.9353 -0.6070
  909MOL0     C22612  12.626  12.502   4.306  0.9948 -0.5919  0.3330
  909MOL0     C22613  12.761  12.505   4.267  0.9687  0.2872  0.1073
  909MOL0     C22614  12.850  12.415   4.326  0.1807 -0.4900  0.5764
  909MOL0     O22615  12.980  12.395   4.270 -0.6463 -0.0235 -0.0116
  909MOL0     C22616  13.004  12.412   4.134 -0.3155 -0.0386  0.0218
  909MOL0     C22617  12.970  12.294   4.045 -0.8130  0.2149 -0.6261
  909MOL0     C22618  13.060  12.173   4.057  0.2020  0.2047 -0.2958
  909MOL0     C22619  13.195  12.188   3.986 -0.4809 -0.9247  0.5254
  909MOL0     C22620  13.266  12.051   3.992 -0.5905 -0.4432  0.0079
  909MOL0     C22621  13.412  12.085   3.944  0.6684 -0.1331 -0.3399
  909MOL0     C22622  13.420  12.036   3.792 -0.6296 -0.6347  0.7889
  909MOL0     C22623  13.403  11.885   3.764 -0.0282 -0.7316  0.5953
  909MOL0    Cl22624  13.504  11.798   3.885 -0.1979  0.5345  0.4249
  909MOL0     C22625  12.816  12.324   4.436 -0.5772 -0.2597 -0.1713
  909MOL0     C22626  12.683  12.321   4.482 -0.0285 -0.5637  0.7063
  909MOL0     O22627  12.419  12.176   4.442  0.2450  0.1874  0.2915
  909MOL0     C22628  12.175  12.424   4.493  0.1334 -0.8580  0.4260
  909MOL0     C22629  12.033  12.440   4.515  0.0776 -0.6205  0.6937
  909MOL0     N22630  11.375  12.045   4.811 -0.1152 -0.1299  0.1248
  909MOL0     N22631  11.292  11.952   4.835  0.2101  0.1498  0.2861
  909MOL0     C22632  10.890  11.188   4.194 -0.0758 -0.0396  0.3158
  909MOL0     C22633  10.799  11.127   4.111  0.3594 -0.8829 -0.0547
  909MOL0     C22634  10.344  11.132   3.917  0.4149  0.1146  0.4668
  909MOL0     C22635  10.258  11.212   3.851 -0.9574 -0.4143  0.2558
  909MOL0     C22636  10.133  11.179   3.833  0.2328 -0.1469 -0.4145
  909MOL0     C22637  10.075  11.059   3.877  0.1802 -0.1712 -0.3921
  909MOL0     O22638   9.944  11.031   3.847  0.1033  0.2089  0.0160
  909MOL0     C22639   9.891  11.069   3.723 -0.3566 -0.3724  0.5842
  909MOL0     C22640   9.777  10.973   3.686  0.1547 -0.5725  0.4301
  909MOL0     C22641   9.712  10.996   3.550 -0.3492  0.4417  0.5795
  909MOL0     C22642   9.615  10.877   3.518  0.5350  0.0333 -0.7675
  909MOL0     C22643   9.490  10.878   3.603 -0.9212  0.0883 -0.2493
  909MOL0     C22644   9.378  10.857   3.644  0.6134 -0.3512 -0.6334
  909MOL0     C22645  10.162  10.969   3.938 -0.1196  0.1302  0.4643
  909MOL0     C22646  10.300  11.008   3.963  0.1318  0.3287 -0.5098
  909MOL0     C22647  10.383  10.900   4.024 -0.2018  0.4884  0.3186
  909MOL0     H22648  10.549  11.351   4.148 -0.8674 -0.7710  1.0568
  909MOL0     H22649  10.703  11.437   4.313 -1.1365 -1.5098  1.2931
  909MOL0     H22650  10.940  11.558   4.299 -0.7912  0.3035  0.1820
  909MOL0     H22651  10.867  11.498   4.452 -1.3009  0.6216 -1.7921
  909MOL0     H22652  11.109  11.598   4.433  0.1094  0.1758  1.7813
  909MOL0     H22653  11.151  11.435   4.386  1.1265  1.5684 -0.3030
  909MOL0     H22654  11.078  11.337   4.598  1.6778  0.1374 -0.1690
  909MOL0     H22655  10.994  11.488   4.643  0.6440 -0.6592  2.0221
  909MOL0     H22656  11.303  11.450   4.614  1.8785 -1.0167  4.1816
  909MOL0     H22657  11.207  11.590   4.643 -1.5403  0.1982 -2.4336
  909MOL0     H22658  11.136  11.528   4.850  0.7848  1.3760 -0.3812
  909MOL0     H22659  11.173  11.352   4.832 -0.9917  0.2308 -1.3660
  909MOL0     H22660  11.343  11.435   4.989 -0.2187 -2.7534 -0.6315
  909MOL0     H22661  11.424  11.408   4.840  0.1028 -0.4314 -0.3223
  909MOL0     H22662  11.448  11.628   4.775 -0.9867  0.9418 -0.0247
  909MOL0     H22663  11.495  11.612   4.947 -0.4320 -1.5113  0.2675
  909MOL0     H22664  11.222  11.710   4.878 -0.5739 -3.0382  1.1227
  909MOL0     H22665  11.302  11.724   5.034  1.2717 -0.7746  0.3629
  909MOL0     H22666  11.581  11.831   4.943 -2.2932 -0.9239  1.1612
  909MOL0     H22667  11.598  12.172   4.948 -0.4018 -1.6564  1.4239
  909MOL0     H22668  11.718  12.054   4.888 -0.0487 -0.9014  1.2041
  909MOL0     H22669  11.543  12.241   4.718 -1.1806 -0.2095  2.2391
  909MOL0     H22670  11.686  12.293   4.803 -1.4097  0.7174  0.3995
  909MOL0     H22671  11.671  12.051   4.608 -0.5785 -0.7500  2.0113
  909MOL0     H22672  11.816  12.136   4.671 -1.2964 -0.9477  2.4176
  909MOL0     H22673  11.624  12.301   4.516  0.6762  0.6511  2.1894
  909MOL0     H22674  11.723  12.186   4.424 -1.5798  1.0450 -0.4766
  909MOL0     H22675  11.942  12.125   4.439 -0.9803  0.9520 -1.3766
  909MOL0     H22676  12.186  12.100   4.404  0.6136  0.1901  0.8607
  909MOL0     H22677  12.569  12.580   4.256  2.3219 -1.1037 -2.1668
  909MOL0     H22678  12.783  12.559   4.176 -3.8326 -1.9260 -2.7219
  909MOL0     H22679  12.961  12.502   4.090 -0.2616 -0.2591 -0.4886
  909MOL0     H22680  13.110  12.433   4.113 -0.5589 -1.3018 -3.0641
  909MOL0     H22681  12.870  12.262   4.076 -0.1690 -1.2593  0.0011
  909MOL0     H22682  12.968  12.323   3.940 -0.8789 -1.0186 -0.9715
  909MOL0     H22683  13.087  12.153   4.162 -0.5065 -1.3504 -0.3878
  909MOL0     H22684  13.001  12.092   4.013  0.6151 -1.0049  1.2867
  909MOL0     H22685  13.256  12.258   4.043  0.3275 -0.5147 -0.7962
  909MOL0     H22686  13.194  12.213   3.879 -0.2152  0.3566  0.7993
  909MOL0     H22687  13.224  11.970   3.933  1.6574  0.1511 -2.6491
  909MOL0     H22688  13.270  12.012   4.094  0.5380  3.6681  1.7283
  909MOL0     H22689  13.429  12.192   3.953  0.6908  0.0901 -2.4903
  909MOL0     H22690  13.491  12.037   4.002  1.0332  1.2412  0.3456
  909MOL0     H22691  13.516  12.070   3.753 -2.2096  2.1874 -0.9331
  909MOL0     H22692  13.350  12.100   3.738  2.0163  1.3025 -0.5759
  909MOL0     H22693  13.295  11.879   3.783 -0.1459  2.4139  1.5053
  909MOL0     H22694  13.432  11.852   3.664  0.2734 -2.3553  1.1951
  909MOL0     H22695  12.896  12.267   4.481  0.5319  4.3459  4.7177
  909MOL0     H22696  12.638  12.260   4.559  0.7254 -0.2142  1.4332
  909MOL0     H22697  12.236  12.510   4.518 -0.3404 -0.9135  1.8705
  909MOL0     H22698  11.986  12.528   4.557 -0.8461  1.6389 -4.3318
  909MOL0     H22699  10.992  11.153   4.187  1.1264  3.0833  0.4587
  909MOL0     H22700  10.824  11.031   4.066  0.6815 -0.9072  0.1727
  909MOL0     H22701  10.283  11.313   3.822 -0.0238 -0.6979  0.0619
  909MOL0     H22702  10.067  11.257   3.798 -0.0394  0.5045  1.4450
  909MOL0     H22703   9.964  11.070   3.641  0.4198  0.7454  1.2700
  909MOL0     H22704   9.857  11.173   3.728  1.5061  0.7113 -4.0562
  909MOL0     H22705   9.694  10.971   3.757 -1.9365  1.2089 -1.7939
  909MOL0     H22706   9.813  10.871   3.672 -2.1879 -1.3102 -0.7102
  909MOL0     H22707   9.788  10.994   3.471 -1.2528  0.2063 -0.3092
  909MOL0     H22708   9.660  11.092   3.546  1.3468  1.3745 -0.4644
  909MOL0     H22709   9.581  10.895   3.415 -1.4733  1.9485  0.1437
  909MOL0     H22710   9.663  10.779   3.517 -1.8229 -1.2059 -2.7009
  909MOL0     H22711   9.274  10.867   3.667  1.4358  1.2906  3.1134
  909MOL0     H22712  10.124  10.871   3.965 -1.2423  0.6483  0.8058
  909MOL0     H22713  10.445  10.849   3.951 -1.0695  1.6108 -1.2554
  909MOL0     H22714  10.436  10.953   4.104 -0.0608  0.2349  0.3940
  909MOL0     H22715  10.307  10.841   4.078 -0.1033  0.5227  0.4971
  910MOL0     O22716   7.047   6.120   4.023 -0.1508  0.1070  0.1847
  910MOL0     C22717   6.998   6.144   4.123  0.9347 -0.5739 -0.0284
  910MOL0     O22718   7.079   6.177   4.233 -0.2986  0.1857  0.9823
  910MOL0     C22719   7.210   6.193   4.212  0.7052 -0.5539 -0.5831
  910MOL0     C22720   7.300   6.098   4.259 -0.9691 -0.3837  0.1004
  910MOL0     C22721   7.443   6.102   4.241 -0.3192 -0.0543 -0.1926
  910MOL0     C22722   7.495   6.211   4.174  0.2744 -0.8736  0.5819
  910MOL0     O22723   7.629   6.226   4.158  0.2411 -0.1005  0.0910
  910MOL0     C22724   7.709   6.214   4.280  0.5858 -0.2674  0.7000
  910MOL0     C22725   7.683   6.317   4.386  1.2517 -0.2159  0.2220
  910MOL0     C22726   7.602   6.274   4.508  0.2659 -0.4388 -0.4338
  910MOL0     C22727   7.613   6.380   4.622 -1.1312  0.0282 -0.9212
  910MOL0     C22728   7.512   6.366   4.742 -0.0316  0.1612  0.7763
  910MOL0     C22729   7.373   6.420   4.708  0.8658  0.2623  0.1921
  910MOL0     C22730   7.354   6.564   4.760  0.2409 -0.5034 -0.1927
  910MOL0     C22731   7.453   6.667   4.713  0.4344  0.3408 -0.5744
  910MOL0     N22732   7.410   6.806   4.747 -0.1057  0.0780  0.4206
  910MOL0     C22733   7.478   6.923   4.781 -0.0618  0.4445 -0.3850
  910MOL0     C22734   7.389   7.020   4.784 -0.0381  0.0317 -0.8292
  910MOL0     C22735   7.404   7.170   4.793  0.0446 -0.9173  0.4346
  910MOL0     C22736   7.404   7.237   4.648 -0.1642  0.6907  0.0140
  910MOL0     C22737   7.370   7.379   4.646  0.7127 -1.1218 -0.1770
  910MOL0     C22738   7.486   7.468   4.676 -0.4503 -0.2020  0.6628
  910MOL0     O22739   7.586   7.471   4.573 -0.2364 -0.3085  0.4498
  910MOL0     C22740   7.693   7.549   4.591  1.0273 -0.4657 -0.2305
  910MOL0     C22741   7.702   7.654   4.682 -0.4418  0.8360 -0.0893
  910MOL0     C22742   7.820   7.723   4.696  0.0701  0.0401  0.5472
  910MOL0     C22743   7.935   7.699   4.616  0.0240  0.5973  0.1239
  910MOL0     C22744   8.052   7.772   4.633 -1.0912  0.4363  0.2713
  910MOL0     O22745   8.074   7.826   4.762  0.1135 -0.1866  0.0446
  910MOL0     C22746   8.204   7.847   4.781 -0.0883 -0.0440 -0.7962
  910MOL0     C22747   8.282   7.768   4.877  0.1344 -0.0234  0.1859
  910MOL0     C22748   8.411   7.807   4.904  0.3946  0.0400  0.8215
  910MOL0     C22749   8.460   7.926   4.844 -0.1471 -0.4884 -0.4807
  910MOL0     O22750   8.579   7.985   4.883 -0.2062 -0.4052 -0.1485
  910MOL0     C22751   8.634   7.942   5.004 -0.0891 -1.3731  1.0792
  910MOL0     C22752   8.742   8.033   5.044 -0.0109 -0.0710  0.3722
  910MOL0     C22753   8.853   7.966   5.121  0.7103  0.1596  1.1972
  910MOL0     C22754   8.952   8.070   5.166  0.0323 -0.4284  0.1702
  910MOL0     C22755   9.065   8.002   5.241  0.0881  0.5497 -0.4914
  910MOL0     C22756   9.187   8.073   5.281  0.1325  0.0892 -0.4788
  910MOL0     C22757   9.285   7.979   5.362  0.1181 -0.0646  0.6200
  910MOL0     C22758   9.387   8.045   5.451 -0.2060  0.4710 -0.4751
  910MOL0    Cl22759   9.520   8.089   5.353 -0.1958  0.2323  0.1821
  910MOL0     C22760   8.392   7.991   4.748 -0.1597  0.3942 -0.2981
  910MOL0     C22761   8.267   7.955   4.713 -0.7861  0.7930  0.4558
  910MOL0     O22762   8.130   7.772   4.536  0.5085  0.4668  0.9219
  910MOL0     C22763   7.920   7.601   4.520 -0.2145  0.2247 -0.1985
  910MOL0     C22764   7.798   7.526   4.506  1.0273 -0.2948 -0.2849
  910MOL0     N22765   7.269   6.961   4.765  0.3004  0.3659  0.6378
  910MOL0     N22766   7.280   6.836   4.733 -0.3362 -0.6163  0.6105
  910MOL0     C22767   7.414   6.305   4.126  0.4603 -0.0076 -0.5787
  910MOL0     C22768   7.273   6.308   4.157  0.2257 -0.0083 -0.5103
  910MOL0     C22769   6.859   6.115   4.150  0.5155  0.2286 -0.1761
  910MOL0     C22770   6.808   6.188   4.253  0.5484  0.4462  0.1081
  910MOL0     C22771   6.671   6.166   4.293 -0.0883  0.0032 -0.6729
  910MOL0     C22772   6.586   6.085   4.222  0.6155  0.2951 -0.2232
  910MOL0     O22773   6.455   6.085   4.270  0.3622 -0.0710 -0.0963
  910MOL0     C22774   6.361   5.990   4.220 -0.1522  1.2657  0.1894
  910MOL0     C22775   6.270   6.046   4.106  0.7654 -0.1146  0.1671
  910MOL0     C22776   6.337   6.131   3.996 -0.1986 -1.2212  1.1241
  910MOL0     C22777   6.222   6.192   3.902 -0.2043 -0.5375 -0.5076
  910MOL0     C22778   6.151   6.098   3.820 -0.1291 -0.0551 -0.1710
  910MOL0     C22779   6.084   6.010   3.758  0.7712 -0.1529  0.4170
  910MOL0     C22780   6.640   6.010   4.107 -0.1224  0.1890  0.0989
  910MOL0     C22781   6.777   6.026   4.079  0.6304  0.1098  0.3801
  910MOL0     C22782   6.830   5.946   3.971 -0.3048  0.1141 -0.3966
  910MOL0     H22783   7.264   6.013   4.316  0.1683  0.4760  2.1833
  910MOL0     H22784   7.505   6.024   4.286  1.3578  1.7708  0.8297
  910MOL0     H22785   7.717   6.111   4.315  2.2029 -1.5516 -2.9919
  910MOL0     H22786   7.807   6.237   4.238 -1.5580  1.0258 -4.4680
  910MOL0     H22787   7.643   6.406   4.338  0.8400 -1.3195 -1.5771
  910MOL0     H22788   7.781   6.350   4.422  0.9066  4.0637 -2.1801
  910MOL0     H22789   7.647   6.183   4.550  0.9243 -0.3776 -0.9794
  910MOL0     H22790   7.496   6.263   4.481  0.7754  0.3221 -3.1236
  910MOL0     H22791   7.711   6.369   4.668 -0.7959  2.4308 -0.9049
  910MOL0     H22792   7.608   6.481   4.579 -2.9629  1.5779  2.5020
  910MOL0     H22793   7.507   6.262   4.774 -1.6276  0.5103  1.7718
  910MOL0     H22794   7.546   6.425   4.827  0.6030 -0.2344  0.8024
  910MOL0     H22795   7.366   6.419   4.599  0.6130  2.3785  0.1516
  910MOL0     H22796   7.302   6.345   4.745 -0.4516  1.5717  0.4166
  910MOL0     H22797   7.359   6.558   4.869  2.3271 -1.9589 -0.2971
  910MOL0     H22798   7.254   6.601   4.736 -1.0072 -3.0594  0.6399
  910MOL0     H22799   7.547   6.656   4.768  0.2052  0.2898 -0.1888
  910MOL0     H22800   7.484   6.663   4.608  0.8355 -0.1709 -0.4375
  910MOL0     H22801   7.583   6.936   4.806 -0.2171 -0.4420  0.8481
  910MOL0     H22802   7.325   7.212   4.856 -0.4875  0.6745 -1.2039
  910MOL0     H22803   7.499   7.203   4.836  1.9435  0.1874 -3.9987
  910MOL0     H22804   7.505   7.220   4.609  0.5768  0.3297  2.0069
  910MOL0     H22805   7.330   7.183   4.586  2.2612 -2.8016 -0.1496
  910MOL0     H22806   7.287   7.394   4.716  1.3156  2.0017 -0.0007
  910MOL0     H22807   7.333   7.411   4.548  0.5921  1.6829  0.6817
  910MOL0     H22808   7.529   7.436   4.771 -3.0913 -1.3228  1.5644
  910MOL0     H22809   7.447   7.569   4.682 -2.1126 -0.6610 -1.2631
  910MOL0     H22810   7.615   7.684   4.739  0.2258  0.1441  1.3353
  910MOL0     H22811   7.829   7.812   4.758  0.0208 -0.3099  1.0563
  910MOL0     H22812   8.234   7.680   4.920  0.7701 -1.7026 -2.3290
  910MOL0     H22813   8.477   7.737   4.954 -0.7184 -2.4635 -1.0637
  910MOL0     H22814   8.558   7.928   5.082 -1.6814  3.1604  0.6274
  910MOL0     H22815   8.678   7.844   4.979  1.0313 -1.8061  4.2928
  910MOL0     H22816   8.785   8.076   4.952 -1.4415  1.4226  0.3610
  910MOL0     H22817   8.703   8.113   5.107 -0.4383 -0.4704  0.6130
  910MOL0     H22818   8.803   7.906   5.197 -1.1339  0.5833  0.3953
  910MOL0     H22819   8.906   7.902   5.049 -0.2301  0.4428  0.2201
  910MOL0     H22820   8.907   8.148   5.228 -1.3765 -1.3173  0.3196
  910MOL0     H22821   8.987   8.123   5.077 -4.1093 -2.5457 -3.0627
  910MOL0     H22822   9.090   7.904   5.199 -1.4852 -0.8380  1.5789
  910MOL0     H22823   9.024   7.969   5.337  3.5693  0.4128  1.1432
  910MOL0     H22824   9.238   8.116   5.194 -0.0762  3.0690  0.7761
  910MOL0     H22825   9.156   8.164   5.333 -2.5122  0.3917 -2.4230
  910MOL0     H22826   9.338   7.908   5.297 -0.1038 -1.9071  2.3621
  910MOL0     H22827   9.217   7.924   5.428 -3.4046  1.4430 -1.4843
  910MOL0     H22828   9.358   8.138   5.501 -0.5325 -0.0047  0.2452
  910MOL0     H22829   9.425   7.976   5.526 -0.9957  1.5363  0.9627
  910MOL0     H22830   8.435   8.083   4.709  1.0676  0.9891  2.2153
  910MOL0     H22831   8.202   8.019   4.655  0.3491  1.3809 -0.1832
  910MOL0     H22832   7.996   7.555   4.459 -0.6823  1.5925 -1.8864
  910MOL0     H22833   7.779   7.448   4.433 -2.1654 -0.6552  0.7852
  910MOL0     H22834   7.459   6.387   4.072  0.5969  2.3099  2.8053
  910MOL0     H22835   7.209   6.388   4.120 -1.3986 -0.7086  0.6879
  910MOL0     H22836   6.867   6.262   4.306  0.6771  0.0275  0.5560
  910MOL0     H22837   6.638   6.205   4.388 -1.6763 -0.6022 -0.9387
  910MOL0     H22838   6.293   5.959   4.300  2.2895 -3.1536  0.8688
  910MOL0     H22839   6.408   5.899   4.183 -0.8243  0.3697  1.4531
  910MOL0     H22840   6.184   6.100   4.148 -0.2832 -2.3400  1.0220
  910MOL0     H22841   6.234   5.957   4.055 -0.1211 -0.3867  1.2367
  910MOL0     H22842   6.403   6.072   3.932 -2.2446  0.2083 -2.5703
  910MOL0     H22843   6.385   6.220   4.037 -0.2177 -0.5676 -0.2507
  910MOL0     H22844   6.143   6.248   3.953  0.0371  0.0062 -0.7178
  910MOL0     H22845   6.265   6.272   3.842  1.0612 -0.4191  0.5208
  910MOL0     H22846   6.024   5.940   3.703 -0.4310  2.8025 -2.4130
  910MOL0     H22847   6.585   5.932   4.056 -1.0067  0.7570  0.1614
  910MOL0     H22848   6.749   5.906   3.909  0.7232 -1.5800 -0.7015
  910MOL0     H22849   6.887   6.008   3.902 -1.2406  1.4962  0.0263
  910MOL0     H22850   6.882   5.855   4.002 -1.1485 -0.4078 -0.4568
  911MOL0     O22851   2.524   4.098   2.486 -0.6835 -0.5632 -0.4229
  911MOL0     C22852   2.523   4.190   2.570 -0.3165  0.3778 -0.1396
  911MOL0     O22853   2.581   4.313   2.548  0.4581 -0.5297  0.5786
  911MOL0     C22854   2.643   4.325   2.421 -0.4847 -1.0553 -0.0554
  911MOL0     C22855   2.580   4.412   2.325  0.4056 -0.4363 -0.7509
  911MOL0     C22856   2.663   4.468   2.228 -0.0211  0.7359  0.2704
  911MOL0     C22857   2.793   4.427   2.203  0.5172  0.3232 -0.2537
  911MOL0     O22858   2.867   4.495   2.107 -0.1390  0.2915 -0.2452
  911MOL0     C22859   3.007   4.461   2.108 -0.1520 -0.1771 -0.1796
  911MOL0     C22860   3.093   4.546   2.005 -0.2774 -0.5973 -0.0627
  911MOL0     C22861   3.070   4.694   2.031 -0.9474  0.7296 -0.1880
  911MOL0     C22862   3.172   4.769   1.944 -0.2305  0.0152 -0.5426
  911MOL0     C22863   3.151   4.912   1.955 -0.0139  0.0994 -0.1211
  911MOL0     C22864   3.186   4.975   1.819  0.1213 -0.0920 -0.1921
  911MOL0     C22865   3.153   5.132   1.802 -0.8820 -0.6433 -0.4880
  911MOL0     C22866   3.203   5.193   1.677  0.4256  0.1845  0.0448
  911MOL0     N22867   3.349   5.200   1.691 -0.6688 -0.1098 -0.9105
  911MOL0     C22868   3.434   5.100   1.655  0.3978 -1.1186 -0.2099
  911MOL0     C22869   3.562   5.153   1.670  0.4997 -1.7443  0.4045
  911MOL0     C22870   3.686   5.070   1.654 -0.3562  0.4769 -0.4187
  911MOL0     C22871   3.804   5.164   1.633 -0.2370  0.3162  0.0231
  911MOL0     C22872   3.944   5.096   1.595 -0.2134  0.0414  0.9749
  911MOL0     C22873   4.037   5.209   1.564  0.2933  0.1860  0.1469
  911MOL0     O22874   4.154   5.144   1.512 -0.5149  0.0516  0.6624
  911MOL0     C22875   4.259   5.219   1.456  0.0320 -0.3788 -0.4258
  911MOL0     C22876   4.258   5.362   1.428  0.4992  0.4015 -0.0686
  911MOL0     C22877   4.365   5.418   1.373 -0.8878  0.7041  0.3957
  911MOL0     C22878   4.483   5.348   1.342  0.1093 -0.5334 -0.0517
  911MOL0     C22879   4.596   5.424   1.290  0.3239 -0.8705 -0.1291
  911MOL0     O22880   4.578   5.557   1.273 -0.2376  0.2086  0.7417
  911MOL0     C22881   4.685   5.636   1.268 -0.1271 -1.1734  0.2845
  911MOL0     C22882   4.709   5.704   1.148  0.1217  0.3166  0.3677
  911MOL0     C22883   4.818   5.785   1.141 -0.2209 -0.9139 -0.6163
  911MOL0     C22884   4.902   5.810   1.259  0.3884 -0.0532 -0.8628
  911MOL0     O22885   5.006   5.897   1.273  0.2448 -0.7894 -0.0112
  911MOL0     C22886   5.091   5.930   1.164 -0.6485 -0.5904  0.0809
  911MOL0     C22887   5.228   5.912   1.217 -0.3070  0.3769 -0.1371
  911MOL0     C22888   5.330   5.916   1.104  0.6072  0.3031 -0.2316
  911MOL0     C22889   5.339   5.786   1.026 -0.2594  0.8450  0.1799
  911MOL0     C22890   5.438   5.804   0.917 -0.1298  0.0227 -0.3919
  911MOL0     C22891   5.578   5.767   0.963 -0.2288  0.2253 -0.1745
  911MOL0     C22892   5.675   5.783   0.848 -0.4131  0.2082  0.1183
  911MOL0     C22893   5.817   5.787   0.899  0.2482 -0.0854 -1.2390
  911MOL0    Cl22894   5.922   5.824   0.766  0.2592 -0.1557  0.0525
  911MOL0     C22895   4.873   5.750   1.382 -0.3721  0.2707  0.6479
  911MOL0     C22896   4.774   5.652   1.375 -0.0517  0.7614 -0.4473
  911MOL0     O22897   4.695   5.359   1.256  0.2562 -0.6776 -0.3074
  911MOL0     C22898   4.475   5.207   1.356 -0.3432 -0.3342  0.0821
  911MOL0     C22899   4.365   5.139   1.407  0.1264 -0.0794 -1.0031
  911MOL0     N22900   3.544   5.287   1.716 -0.0122 -0.5715 -0.1355
  911MOL0     N22901   3.417   5.312   1.733  0.4371 -0.3337  0.6823
  911MOL0     C22902   2.851   4.333   2.290  0.2596  1.0810 -0.1618
  911MOL0     C22903   2.779   4.292   2.400  0.3535  0.5796 -0.0458
  911MOL0     C22904   2.439   4.193   2.692 -0.3720 -0.4685 -0.5708
  911MOL0     C22905   2.425   4.318   2.766 -0.4171 -0.3278  0.3502
  911MOL0     C22906   2.341   4.338   2.876  1.2068  0.5111  1.6172
  911MOL0     C22907   2.257   4.227   2.909 -0.6993 -0.2100  0.5717
  911MOL0     O22908   2.163   4.222   3.011 -0.2819 -0.3949  0.2777
  911MOL0     C22909   2.161   4.327   3.105 -1.2935  0.5363 -0.1350
  911MOL0     C22910   2.055   4.435   3.081 -0.6918  0.1165  0.1819
  911MOL0     C22911   1.932   4.437   3.180 -0.3997  1.1442  0.1687
  911MOL0     C22912   1.812   4.352   3.134 -1.3670 -0.4356  0.3350
  911MOL0     C22913   1.707   4.360   3.228  0.6407  0.7563 -0.3917
  911MOL0     C22914   1.621   4.369   3.310  0.4414 -0.7837 -0.1491
  911MOL0     C22915   2.262   4.109   2.826  0.0533  0.1492 -0.1540
  911MOL0     C22916   2.357   4.085   2.734 -0.9802 -0.2705  0.0195
  911MOL0     C22917   2.379   3.947   2.682 -0.1073 -0.7286  0.2088
  911MOL0     H22918   2.484   4.460   2.343  0.9453  0.6208 -0.5879
  911MOL0     H22919   2.621   4.546   2.164 -0.1512  0.7317  0.3515
  911MOL0     H22920   3.050   4.486   2.205 -1.1978 -0.2005  0.3034
  911MOL0     H22921   3.023   4.356   2.082 -1.1962 -0.2969 -0.3720
  911MOL0     H22922   3.066   4.529   1.900  0.6215  0.0196 -0.4036
  911MOL0     H22923   3.199   4.526   2.020 -0.1164  0.2459 -0.0398
  911MOL0     H22924   3.077   4.721   2.136 -3.4068  1.3966 -0.1207
  911MOL0     H22925   2.965   4.702   2.001 -1.5517  3.2549  2.1922
  911MOL0     H22926   3.274   4.743   1.974 -1.1003 -2.0137  0.9055
  911MOL0     H22927   3.154   4.733   1.842  5.0929 -1.0784 -1.4020
  911MOL0     H22928   3.047   4.927   1.984  0.7209  1.5648  1.9717
  911MOL0     H22929   3.225   4.949   2.027  0.4577 -0.8912 -0.0715
  911MOL0     H22930   3.288   4.947   1.792 -1.1302 -2.5061 -3.0783
  911MOL0     H22931   3.122   4.927   1.743  1.9394 -0.6755 -1.4170
  911MOL0     H22932   3.211   5.178   1.882  1.6027 -0.0765 -2.5061
  911MOL0     H22933   3.047   5.156   1.818 -0.4683  0.0023  1.5418
  911MOL0     H22934   3.175   5.145   1.583 -1.6014  3.2105 -1.0339
  911MOL0     H22935   3.161   5.293   1.668  0.5090  0.0858 -1.8456
  911MOL0     H22936   3.420   5.005   1.605 -1.5037 -0.3979 -1.1557
  911MOL0     H22937   3.704   5.016   1.747 -1.8657  3.1336  1.5569
  911MOL0     H22938   3.670   4.998   1.574 -1.5157  0.5732 -0.2856
  911MOL0     H22939   3.785   5.239   1.556  4.3564  1.9718  0.2103
  911MOL0     H22940   3.820   5.211   1.730 -2.9606  0.1810  0.6141
  911MOL0     H22941   3.917   5.040   1.505 -1.9601 -0.5227  1.8032
  911MOL0     H22942   3.989   5.034   1.672  0.1247 -2.0665 -0.8183
  911MOL0     H22943   4.050   5.263   1.659 -2.2708 -1.6106  1.6417
  911MOL0     H22944   3.987   5.285   1.503 -2.8817  0.3347  2.6613
  911MOL0     H22945   4.168   5.416   1.458 -1.7967 -2.0543 -1.9810
  911MOL0     H22946   4.357   5.525   1.359  1.4486  0.9052  0.2223
  911MOL0     H22947   4.643   5.682   1.065  0.4709 -2.3199  0.7115
  911MOL0     H22948   4.844   5.844   1.054  1.9352 -1.8100 -0.6406
  911MOL0     H22949   5.075   5.863   1.079  1.9504 -0.4463 -0.6073
  911MOL0     H22950   5.076   6.033   1.130 -0.4666 -0.5233  0.1992
  911MOL0     H22951   5.245   5.985   1.297 -2.3689 -0.3393  1.0181
  911MOL0     H22952   5.231   5.815   1.269  1.2612  0.4248 -0.0988
  911MOL0     H22953   5.296   6.001   1.043  1.2514 -0.4230 -1.6281
  911MOL0     H22954   5.429   5.955   1.130  1.2804 -1.4861  0.0050
  911MOL0     H22955   5.244   5.759   0.981 -0.0580 -1.4914  1.0292
  911MOL0     H22956   5.372   5.705   1.091  2.6141  2.2881  0.6866
  911MOL0     H22957   5.417   5.893   0.857 -2.0292  0.2590  0.5316
  911MOL0     H22958   5.404   5.733   0.841 -1.8151  0.8859 -0.4764
  911MOL0     H22959   5.603   5.840   1.041  2.7488 -0.1672 -0.6471
  911MOL0     H22960   5.585   5.663   0.999  1.3730  0.5069  0.3955
  911MOL0     H22961   5.658   5.880   0.799  0.8356  1.2135  1.5821
  911MOL0     H22962   5.656   5.711   0.768  0.2128 -1.5979  1.5419
  911MOL0     H22963   5.826   5.879   0.958  3.8823 -0.0564 -1.6071
  911MOL0     H22964   5.853   5.705   0.962  3.2096  3.0137  1.5788
  911MOL0     H22965   4.940   5.747   1.467 -1.3131  2.1474  1.5236
  911MOL0     H22966   4.771   5.585   1.460 -2.2816  0.2228 -0.8645
  911MOL0     H22967   4.548   5.142   1.309 -2.6970 -3.0931 -0.0760
  911MOL0     H22968   4.342   5.033   1.405 -3.1062  0.5281 -1.0786
  911MOL0     H22969   2.950   4.292   2.275 -0.5260 -0.7442 -0.5236
  911MOL0     H22970   2.818   4.221   2.472 -2.6095 -0.9358  0.2393
  911MOL0     H22971   2.483   4.405   2.734  2.3468 -1.9726  0.5077
  911MOL0     H22972   2.323   4.434   2.924 -0.6771 -0.5264  3.1117
  911MOL0     H22973   2.257   4.377   3.122 -1.6593  0.6294  1.7822
  911MOL0     H22974   2.135   4.280   3.200 -0.8660  0.1284 -0.2121
  911MOL0     H22975   2.021   4.441   2.978  1.9396 -0.7294 -0.8160
  911MOL0     H22976   2.104   4.532   3.099  0.1280 -0.2466 -0.0448
  911MOL0     H22977   1.901   4.541   3.174 -1.5059  0.7640 -1.0960
  911MOL0     H22978   1.958   4.417   3.284 -2.1132  1.8823  0.7772
  911MOL0     H22979   1.774   4.388   3.038 -0.3415 -0.2070  0.0003
  911MOL0     H22980   1.859   4.254   3.125  3.0311  1.6215 -2.4307
  911MOL0     H22981   1.541   4.378   3.381  0.8376 -5.7823  1.3307
  911MOL0     H22982   2.194   4.028   2.848  2.0721 -1.6313 -0.1449
  911MOL0     H22983   2.487   3.928   2.674  0.6200  1.8683  2.2242
  911MOL0     H22984   2.341   3.868   2.748 -1.4584 -0.5385 -0.3277
  911MOL0     H22985   2.332   3.935   2.584  0.7404 -0.4552 -0.2411
  912MOL0     O22986   5.954   8.518   2.389  0.5108 -0.0352 -0.2770
  912MOL0     C22987   6.045   8.514   2.303 -0.3688  0.0818 -0.5791
  912MOL0     O22988   6.173   8.464   2.323 -0.0182 -0.3387  0.4317
  912MOL0     C22989   6.197   8.350   2.399  0.6019 -0.1500  0.2661
  912MOL0     C22990   6.097   8.261   2.453  0.0778 -1.7346  0.4760
  912MOL0     C22991   6.128   8.149   2.528 -0.1321 -0.4258  0.4699
  912MOL0     C22992   6.259   8.129   2.564  0.6249  0.1996  0.1001
  912MOL0     O22993   6.296   8.019   2.637  0.4467  0.4165  0.1526
  912MOL0     C22994   6.201   7.956   2.722 -0.2743  0.4888 -0.0585
  912MOL0     C22995   6.250   7.854   2.815  1.0025 -0.7005 -0.2770
  912MOL0     C22996   6.342   7.922   2.914 -0.3643 -0.0143 -0.3146
  912MOL0     C22997   6.421   7.818   2.992  0.1806  0.0113 -0.1742
  912MOL0     C22998   6.516   7.889   3.096 -0.2925 -0.1396  0.2036
  912MOL0     C22999   6.575   7.763   3.171 -1.0018 -0.8600 -0.1560
  912MOL0     C23000   6.610   7.818   3.310 -0.8387 -0.1826 -0.1505
  912MOL0     C23001   6.498   7.812   3.410  0.3843  1.1264 -0.7591
  912MOL0     N23002   6.447   7.678   3.442 -0.0921 -0.5875 -0.7841
  912MOL0     C23003   6.312   7.653   3.461 -0.2583  0.9420  0.0978
  912MOL0     C23004   6.304   7.528   3.516 -0.1163 -0.1966  0.1178
  912MOL0     C23005   6.184   7.449   3.547 -0.1837 -0.3561 -0.6278
  912MOL0     C23006   6.133   7.497   3.682  0.6083 -1.4267  0.3458
  912MOL0     C23007   6.038   7.400   3.741 -0.0400 -0.3237  0.1773
  912MOL0     C23008   5.906   7.386   3.665 -0.3295  0.0249  0.7291
  912MOL0     O23009   5.834   7.312   3.760 -0.4739 -0.0505  0.8435
  912MOL0     C23010   5.703   7.287   3.743 -1.3790  0.8535  0.0956
  912MOL0     C23011   5.619   7.245   3.854  0.4847 -1.2583  0.4536
  912MOL0     C23012   5.483   7.226   3.852 -0.7601 -0.5292 -0.0330
  912MOL0     C23013   5.422   7.241   3.725  0.2020  0.4359 -1.1413
  912MOL0     C23014   5.282   7.238   3.715  0.3592  0.1666 -0.3423
  912MOL0     O23015   5.238   7.194   3.586  0.3198  0.5821  0.2729
  912MOL0     C23016   5.105   7.207   3.549  0.4347  0.3302 -0.5637
  912MOL0     C23017   4.992   7.199   3.627  0.5531 -0.4557  0.3306
  912MOL0     C23018   4.867   7.207   3.556 -0.0191  1.4687  0.0121
  912MOL0     C23019   4.853   7.234   3.426  0.9085  0.0735 -0.5453
  912MOL0     O23020   4.729   7.220   3.364  0.3423 -0.0783  0.0156
  912MOL0     C23021   4.623   7.310   3.412  0.1346  0.3721  0.3040
  912MOL0     C23022   4.667   7.447   3.437 -0.6056  0.6210 -0.3067
  912MOL0     C23023   4.547   7.541   3.466 -1.0932 -0.3582  0.6555
  912MOL0     C23024   4.460   7.513   3.578 -0.3006 -0.5912 -0.1896
  912MOL0     C23025   4.346   7.621   3.589  0.3179  0.8283  0.7643
  912MOL0     C23026   4.195   7.591   3.572  0.3899  0.2782  0.2531
  912MOL0     C23027   4.169   7.522   3.447  0.9641 -0.9670 -0.2046
  912MOL0     C23028   4.025   7.523   3.383  1.0880 -0.1893  0.6696
  912MOL0    Cl23029   3.905   7.451   3.495 -0.4832 -0.4256  0.4951
  912MOL0     C23030   4.966   7.255   3.351  0.7180  0.5015  0.1549
  912MOL0     C23031   5.097   7.237   3.409  0.8854 -0.2077 -1.5660
  912MOL0     O23032   5.211   7.287   3.802 -0.2403 -0.9746 -0.6980
  912MOL0     C23033   5.503   7.273   3.613  0.2964  0.0466  0.0984
  912MOL0     C23034   5.643   7.292   3.622  0.4580 -0.2078  0.5760
  912MOL0     N23035   6.428   7.473   3.512 -0.6673  0.6988  0.2126
  912MOL0     N23036   6.515   7.573   3.485  0.8269  0.2820  0.7550
  912MOL0     C23037   6.357   8.224   2.515  0.1364  0.6541 -0.4803
  912MOL0     C23038   6.328   8.324   2.429  0.2002  0.1923 -1.0633
  912MOL0     C23039   6.003   8.567   2.178 -0.1598  0.2728  0.7596
  912MOL0     C23040   5.876   8.552   2.126  0.3308  0.5699 -0.0605
  912MOL0     C23041   5.854   8.590   1.996  0.4017 -0.6864  0.3599
  912MOL0     C23042   5.949   8.657   1.914 -1.1159 -0.7184 -0.6111
  912MOL0     O23043   5.907   8.715   1.801 -0.3283 -0.1835 -0.7013
  912MOL0     C23044   5.936   8.853   1.769 -0.3820  0.2434 -0.8472
  912MOL0     C23045   5.835   8.914   1.672 -0.6757 -0.5637  0.6834
  912MOL0     C23046   5.720   8.964   1.751  0.4248 -0.0902 -0.1385
  912MOL0     C23047   5.627   9.055   1.679  0.5272 -0.6933 -0.2917
  912MOL0     C23048   5.489   9.062   1.724  1.1131  0.0687 -0.9230
  912MOL0     C23049   5.365   9.064   1.760  0.0545 -0.1036 -0.6522
  912MOL0     C23050   6.076   8.684   1.968  0.3664  0.0301 -0.2206
  912MOL0     C23051   6.103   8.637   2.102 -0.0671 -0.6289  0.6389
  912MOL0     C23052   6.235   8.687   2.153 -0.6215 -0.6394 -0.0893
  912MOL0     H23053   5.996   8.276   2.416  0.3136 -2.9345 -0.7688
  912MOL0     H23054   6.039   8.093   2.554  0.8225 -2.8334 -1.0927
  912MOL0     H23055   6.155   8.036   2.780 -1.3885  0.3083 -0.6656
  912MOL0     H23056   6.119   7.905   2.669 -0.4022 -0.8480  1.3328
  912MOL0     H23057   6.303   7.782   2.753 -2.2563 -1.5413 -2.3329
  912MOL0     H23058   6.166   7.807   2.867  0.7891 -0.1225 -0.0853
  912MOL0     H23059   6.295   7.988   2.988  0.3667 -1.4592  1.5176
  912MOL0     H23060   6.414   7.975   2.851  0.5047 -0.8010 -0.0047
  912MOL0     H23061   6.344   7.757   3.041  0.1082 -1.1587 -1.6949
  912MOL0     H23062   6.490   7.763   2.929  0.6818  1.8542 -1.3180
  912MOL0     H23063   6.591   7.948   3.043 -2.4196  0.3723 -2.4882
  912MOL0     H23064   6.457   7.957   3.157  1.5989  1.0942  0.7465
  912MOL0     H23065   6.503   7.681   3.180  0.1267 -2.8375 -5.4491
  912MOL0     H23066   6.669   7.733   3.124  0.6247  2.2746  0.8323
  912MOL0     H23067   6.665   7.913   3.304 -1.5514  0.2282 -0.2656
  912MOL0     H23068   6.691   7.759   3.354 -0.6664 -0.4921 -0.8695
  912MOL0     H23069   6.536   7.857   3.502  0.7529 -0.3162 -0.1808
  912MOL0     H23070   6.425   7.876   3.359 -1.4929 -1.8799 -2.1104
  912MOL0     H23071   6.231   7.723   3.448  1.1899  3.2720  2.7082
  912MOL0     H23072   6.105   7.466   3.474 -0.1147 -0.1927 -0.6655
  912MOL0     H23073   6.196   7.340   3.543 -2.2468 -0.6120 -0.6630
  912MOL0     H23074   6.223   7.501   3.744 -0.7474 -1.6894  2.4243
  912MOL0     H23075   6.093   7.598   3.684  2.0518 -0.7806 -1.1806
  912MOL0     H23076   6.018   7.448   3.837  3.0580 -1.3836  1.4530
  912MOL0     H23077   6.088   7.304   3.758 -0.1213 -0.7746 -1.8992
  912MOL0     H23078   5.924   7.317   3.582 -2.7406 -2.9911  2.4965
  912MOL0     H23079   5.862   7.481   3.632 -0.3643 -1.1086 -2.9354
  912MOL0     H23080   5.677   7.227   3.944 -0.1594 -4.5102  0.3404
  912MOL0     H23081   5.432   7.204   3.945  1.8229 -1.4387  1.2561
  912MOL0     H23082   4.990   7.187   3.735  2.1983  0.6629  0.5285
  912MOL0     H23083   4.773   7.211   3.609 -0.2076 -0.8688 -0.0593
  912MOL0     H23084   4.542   7.318   3.339  1.2861  3.3541 -0.7822
  912MOL0     H23085   4.581   7.268   3.504  2.4485  1.1230  1.7873
  912MOL0     H23086   4.741   7.463   3.516 -3.0376  2.2357  1.7868
  912MOL0     H23087   4.712   7.477   3.342 -2.7159  1.7304 -1.0170
  912MOL0     H23088   4.593   7.640   3.456  0.6873 -1.3489 -2.5348
  912MOL0     H23089   4.479   7.546   3.380 -2.3673 -1.4690  1.5489
  912MOL0     H23090   4.515   7.515   3.673 -1.6141  0.8996  0.5877
  912MOL0     H23091   4.407   7.417   3.572 -0.4097 -0.4325 -2.3074
  912MOL0     H23092   4.360   7.705   3.520 -0.4664 -1.2329 -2.0862
  912MOL0     H23093   4.339   7.664   3.690 -0.3492  1.7428  0.3424
  912MOL0     H23094   4.145   7.542   3.657  0.5310  3.2437  2.2037
  912MOL0     H23095   4.143   7.687   3.576  0.5394  0.3419  0.7715
  912MOL0     H23096   4.196   7.417   3.459  0.2300 -1.4238 -2.2069
  912MOL0     H23097   4.232   7.568   3.370 -0.4296  1.9808  0.2627
  912MOL0     H23098   3.988   7.626   3.379 -2.0617 -1.2692 -2.2476
  912MOL0     H23099   4.017   7.469   3.289 -1.2383 -1.3862  1.4811
  912MOL0     H23100   4.953   7.253   3.243 -1.1730 -0.7265  0.3499
  912MOL0     H23101   5.191   7.238   3.354  1.1934  3.0616 -1.1422
  912MOL0     H23102   5.455   7.284   3.516  3.3102  0.7989 -1.4336
  912MOL0     H23103   5.702   7.329   3.538 -2.7824  2.4704 -0.7276
  912MOL0     H23104   6.452   8.195   2.559  1.4136 -0.7851 -3.8286
  912MOL0     H23105   6.410   8.383   2.390 -2.1200  3.2950 -1.6258
  912MOL0     H23106   5.799   8.519   2.195  1.9396  0.4076  1.7340
  912MOL0     H23107   5.751   8.566   1.971  0.4503  0.0850 -0.6624
  912MOL0     H23108   6.033   8.853   1.718 -1.1287  0.5677 -2.3330
  912MOL0     H23109   5.948   8.918   1.857 -3.4173 -2.4658  1.8308
  912MOL0     H23110   5.805   8.844   1.594 -1.2552  0.6534 -0.2178
  912MOL0     H23111   5.875   8.995   1.610  0.5793 -2.9944 -1.9245
  912MOL0     H23112   5.747   9.011   1.845  5.1507 -0.1953 -1.2162
  912MOL0     H23113   5.672   8.874   1.790  1.4690 -0.7534 -0.3598
  912MOL0     H23114   5.660   9.159   1.676 -1.5475  0.0190 -3.3790
  912MOL0     H23115   5.622   9.022   1.575  2.2317  1.3630 -1.1043
  912MOL0     H23116   5.266   9.070   1.800 -0.1962  1.1490 -1.4241
  912MOL0     H23117   6.149   8.739   1.910 -1.1323  0.3865 -1.8634
  912MOL0     H23118   6.310   8.611   2.178  1.5994  0.6606 -2.3095
  912MOL0     H23119   6.286   8.747   2.077  0.8513  0.6484  1.8064
  912MOL0     H23120   6.208   8.754   2.235 -4.6064 -1.4639 -0.5487
  913MOL0     O23121   7.705   5.304   1.797  0.2469 -0.2299  1.5931
  913MOL0     C23122   7.672   5.403   1.728 -0.0691 -0.0994  0.5715
  913MOL0     O23123   7.753   5.484   1.654  0.2889 -0.4301 -0.1572
  913MOL0     C23124   7.888   5.455   1.659  0.6730  0.4033  0.2296
  913MOL0     C23125   7.959   5.456   1.775  0.5499 -0.5758 -0.0942
  913MOL0     C23126   8.094   5.425   1.777  0.5265  0.3172 -0.0632
  913MOL0     C23127   8.165   5.406   1.659 -0.1747  0.3247  0.1054
  913MOL0     O23128   8.295   5.375   1.665  0.3684 -0.0660  0.5826
  913MOL0     C23129   8.380   5.362   1.555  0.8600 -1.2501 -0.1049
  913MOL0     C23130   8.521   5.371   1.610  0.4392  0.7126 -0.3569
  913MOL0     C23131   8.550   5.257   1.701 -0.1663 -0.0071  0.5739
  913MOL0     C23132   8.705   5.232   1.704 -0.2856  0.1868  0.4253
  913MOL0     C23133   8.736   5.139   1.812  0.3273  0.4450 -0.5899
  913MOL0     C23134   8.876   5.115   1.829  0.4404 -0.6042  0.2732
  913MOL0     C23135   8.949   5.211   1.920  1.0965  0.0860 -0.7640
  913MOL0     C23136   9.103   5.239   1.884  0.4822  0.2084 -0.1662
  913MOL0     N23137   9.191   5.125   1.884 -0.5095 -0.1068  0.0634
  913MOL0     C23138   9.285   5.084   1.984 -0.5512 -0.4239  0.3371
  913MOL0     C23139   9.362   4.983   1.913 -0.4437  0.5542 -0.6572
  913MOL0     C23140   9.470   4.903   1.987  0.5515 -0.4302 -0.4763
  913MOL0     C23141   9.611   4.963   1.946  0.5247  0.0114  0.0506
  913MOL0     C23142   9.687   4.978   2.077  0.4435  0.3069 -0.1779
  913MOL0     C23143   9.833   5.011   2.046  0.9173 -0.9499  1.2235
  913MOL0     O23144   9.839   5.130   1.961 -0.3821  0.4382  0.1713
  913MOL0     C23145   9.959   5.162   1.905  0.1584 -0.6874 -0.5774
  913MOL0     C23146  10.076   5.088   1.940  0.0423  0.2101  0.3629
  913MOL0     C23147  10.197   5.120   1.880 -0.5336 -0.6881  1.3026
  913MOL0     C23148  10.206   5.216   1.778 -0.4118  0.6480 -0.0251
  913MOL0     C23149  10.322   5.239   1.704 -0.1354  0.3399 -0.7176
  913MOL0     O23150  10.439   5.182   1.751  0.6407  0.3355 -0.6578
  913MOL0     C23151  10.552   5.190   1.684  0.6689 -0.5261  0.6172
  913MOL0     C23152  10.569   5.114   1.563  0.0171 -0.1093 -0.6811
  913MOL0     C23153  10.690   5.116   1.491  0.6318 -0.1597  0.5226
  913MOL0     C23154  10.796   5.198   1.528 -0.5080 -0.7308 -0.3610
  913MOL0     O23155  10.903   5.192   1.448  0.1223  0.3097 -0.1802
  913MOL0     C23156  11.016   5.281   1.466  0.5343 -0.0648 -0.2462
  913MOL0     C23157  11.093   5.286   1.340 -0.1052 -0.3892  0.3281
  913MOL0     C23158  11.031   5.384   1.237 -0.3481 -0.2493  1.1893
  913MOL0     C23159  11.103   5.390   1.101 -0.2473  0.5921 -0.2364
  913MOL0     C23160  11.214   5.491   1.086  0.1929 -0.6302 -0.4454
  913MOL0     C23161  11.266   5.520   0.946 -0.9285  0.6185 -0.9299
  913MOL0     C23162  11.357   5.646   0.942  0.0652 -0.1538 -0.3454
  913MOL0     C23163  11.482   5.659   1.027 -0.0977  0.1751 -0.2969
  913MOL0    Cl23164  11.600   5.772   0.973  0.2261  0.4717  0.0645
  913MOL0     C23165  10.788   5.262   1.655 -0.1023 -0.1270 -0.2780
  913MOL0     C23166  10.673   5.249   1.735  0.3654  0.4126  0.4480
  913MOL0     O23167  10.311   5.301   1.598 -0.0783  0.6923  0.3853
  913MOL0     C23168  10.087   5.288   1.750  0.0806 -0.1506 -1.1659
  913MOL0     C23169   9.961   5.254   1.808  0.0667 -0.2046 -0.7842
  913MOL0     N23170   9.317   4.965   1.783  0.4269 -0.2815 -0.6738
  913MOL0     N23171   9.222   5.055   1.772  0.0542  0.4407 -0.2922
  913MOL0     C23172   8.087   5.411   1.538 -0.9104 -0.1164  0.5194
  913MOL0     C23173   7.949   5.436   1.533  0.0909 -0.0575  0.3618
  913MOL0     C23174   7.529   5.433   1.723  0.0451  0.0456 -1.1653
  913MOL0     C23175   7.445   5.373   1.819 -0.6945  0.2383 -0.3665
  913MOL0     C23176   7.311   5.399   1.838 -0.5974 -0.0346 -0.3601
  913MOL0     C23177   7.246   5.483   1.744 -0.1157 -0.8192  0.6913
  913MOL0     O23178   7.109   5.513   1.741 -0.4316 -0.2776 -0.1396
  913MOL0     C23179   7.028   5.457   1.838  0.0977 -0.9597  0.5335
  913MOL0     C23180   6.880   5.497   1.800 -0.0856  0.2968 -0.4286
  913MOL0     C23181   6.847   5.475   1.654  1.0686 -1.0895 -0.5133
  913MOL0     C23182   6.874   5.334   1.615 -0.1977  0.8589 -0.8105
  913MOL0     C23183   6.818   5.303   1.488  0.2478  0.4093  1.0520
  913MOL0     C23184   6.769   5.292   1.382 -0.3894  0.2834 -0.3943
  913MOL0     C23185   7.328   5.538   1.638  0.0062 -0.0299 -0.2901
  913MOL0     C23186   7.469   5.515   1.622  0.1609  0.5670  0.7511
  913MOL0     C23187   7.533   5.575   1.501  0.3739  0.2807  0.4848
  913MOL0     H23188   7.899   5.475   1.864  2.6473  0.5871  1.1626
  913MOL0     H23189   8.139   5.415   1.875  0.7519 -0.1358 -0.2142
  913MOL0     H23190   8.372   5.260   1.516  1.1537 -0.7123 -1.6458
  913MOL0     H23191   8.361   5.426   1.468  0.7193  0.2334  0.9887
  913MOL0     H23192   8.541   5.464   1.665 -0.0086  1.1947 -0.9894
  913MOL0     H23193   8.592   5.363   1.527  1.1936  2.0214  0.1254
  913MOL0     H23194   8.505   5.165   1.662 -0.3997  0.0254  0.7667
  913MOL0     H23195   8.518   5.270   1.805  0.3398 -5.3461  1.6823
  913MOL0     H23196   8.729   5.181   1.610 -2.2749 -0.7344  0.3709
  913MOL0     H23197   8.760   5.326   1.716 -0.0765  0.0219  0.7950
  913MOL0     H23198   8.694   5.179   1.905 -1.8234  0.1710 -1.3759
  913MOL0     H23199   8.679   5.048   1.789 -2.1233  1.3605  1.3102
  913MOL0     H23200   8.897   5.013   1.862 -1.6629 -0.6691  1.5989
  913MOL0     H23201   8.925   5.122   1.731  3.9351 -1.5767  1.8198
  913MOL0     H23202   8.964   5.179   2.023  2.8085  0.9539 -0.6957
  913MOL0     H23203   8.888   5.302   1.921 -0.9577 -1.2032  1.5012
  913MOL0     H23204   9.100   5.266   1.778  1.4295 -3.7093 -1.3551
  913MOL0     H23205   9.158   5.318   1.936  0.5986  0.5407 -0.7875
  913MOL0     H23206   9.292   5.121   2.086 -0.1001 -0.5579  0.3588
  913MOL0     H23207   9.445   4.919   2.093  1.4218  0.6609 -0.4174
  913MOL0     H23208   9.466   4.796   1.968  0.0185 -0.6763  0.9140
  913MOL0     H23209   9.673   4.912   1.872  0.7202  1.7422 -1.0170
  913MOL0     H23210   9.592   5.066   1.917 -3.5105 -0.3490  0.8089
  913MOL0     H23211   9.664   4.885   2.129 -2.8747 -1.3657 -4.0841
  913MOL0     H23212   9.639   5.054   2.140 -1.5594 -1.1490  0.1257
  913MOL0     H23213   9.871   4.926   1.987  1.6019  1.3027 -1.8227
  913MOL0     H23214   9.893   5.021   2.136  0.2257 -0.6974  1.6639
  913MOL0     H23215  10.078   5.003   2.008  2.6807 -0.3304 -0.2832
  913MOL0     H23216  10.279   5.052   1.902 -0.0355 -0.2508  0.8310
  913MOL0     H23217  10.481   5.067   1.520 -0.2912  1.6799 -2.0708
  913MOL0     H23218  10.693   5.060   1.398 -1.8729  1.0563 -0.4061
  913MOL0     H23219  10.972   5.377   1.496 -0.7672 -0.6415 -0.2408
  913MOL0     H23220  11.079   5.250   1.550 -2.4650  0.3732  2.3973
  913MOL0     H23221  11.194   5.323   1.358 -0.2858  0.3280 -0.0994
  913MOL0     H23222  11.109   5.184   1.304  1.7519 -0.1327  0.3011
  913MOL0     H23223  10.931   5.345   1.217  0.7107 -2.5461  0.0154
  913MOL0     H23224  11.024   5.485   1.280  0.6671  1.1824 -1.7134
  913MOL0     H23225  11.035   5.424   1.022 -0.0865 -2.3961 -1.7966
  913MOL0     H23226  11.133   5.291   1.066 -1.3235  0.6389 -1.3322
  913MOL0     H23227  11.293   5.453   1.152 -1.6937  0.8044  2.8766
  913MOL0     H23228  11.168   5.582   1.125 -0.0717 -0.6692 -0.6668
  913MOL0     H23229  11.318   5.434   0.903 -2.0360  0.0358 -1.1352
  913MOL0     H23230  11.176   5.538   0.886 -1.2739 -1.2513 -1.0179
  913MOL0     H23231  11.293   5.734   0.954 -1.0403 -0.8070 -1.2212
  913MOL0     H23232  11.394   5.654   0.839 -1.0184  0.7992 -0.6885
  913MOL0     H23233  11.456   5.686   1.130 -1.6796 -3.6313  0.5112
  913MOL0     H23234  11.527   5.560   1.037 -0.5390 -0.1420 -1.2979
  913MOL0     H23235  10.877   5.307   1.698  0.0415 -0.1620 -0.5394
  913MOL0     H23236  10.665   5.299   1.830  0.1601  1.2902 -0.0204
  913MOL0     H23237  10.094   5.369   1.678  0.7061  2.5285  1.6868
  913MOL0     H23238   9.869   5.310   1.791 -0.8518 -1.5158 -0.2839
  913MOL0     H23239   8.138   5.395   1.444  1.0193 -0.9168  1.6534
  913MOL0     H23240   7.899   5.430   1.437 -2.1682 -0.6709  1.5176
  913MOL0     H23241   7.493   5.300   1.884 -2.0846 -0.6817 -0.3223
  913MOL0     H23242   7.246   5.352   1.911 -1.1000 -1.8625 -1.8869
  913MOL0     H23243   7.052   5.492   1.939  2.8934 -0.1614 -0.3219
  913MOL0     H23244   7.036   5.348   1.840  1.3257 -0.8719  0.8688
  913MOL0     H23245   6.875   5.604   1.818  1.8920  0.6614 -1.6465
  913MOL0     H23246   6.811   5.445   1.867  0.4236 -1.0277 -0.8821
  913MOL0     H23247   6.899   5.553   1.597  1.3094 -0.2075  0.8882
  913MOL0     H23248   6.738   5.485   1.647  1.1224 -0.6196 -0.7235
  913MOL0     H23249   6.982   5.322   1.612 -0.1650  0.7170  0.3647
  913MOL0     H23250   6.822   5.264   1.682  1.4722 -1.1268 -1.4959
  913MOL0     H23251   6.747   5.280   1.278  0.7350  0.2533 -0.6450
  913MOL0     H23252   7.285   5.597   1.559  2.6011  2.1174 -0.2289
  913MOL0     H23253   7.592   5.488   1.473 -0.9424 -0.0154 -1.6030
  913MOL0     H23254   7.457   5.592   1.424 -1.5267 -2.5386  1.5366
  913MOL0     H23255   7.589   5.661   1.538  0.0978  1.4915 -1.7401
  914MOL0     O23256   3.261   9.984   1.180  1.0262 -0.1103  0.0206
  914MOL0     C23257   3.180   9.984   1.275  0.3176 -0.5816  0.6579
  914MOL0     O23258   3.183  10.068   1.381  0.1449  1.1035  0.4341
  914MOL0     C23259   3.281  10.158   1.402  0.2630 -0.7067 -0.1349
  914MOL0     C23260   3.247  10.290   1.385 -0.6749  0.0356  0.0363
  914MOL0     C23261   3.342  10.390   1.400 -0.9999  0.7671 -0.8849
  914MOL0     C23262   3.472  10.353   1.463 -0.0662 -0.2401  0.1724
  914MOL0     O23263   3.571  10.438   1.508 -1.2084  0.2098 -0.0895
  914MOL0     C23264   3.555  10.575   1.458 -0.2185  0.4715  0.7342
  914MOL0     C23265   3.674  10.668   1.490 -0.4653 -0.0195 -0.3210
  914MOL0     C23266   3.798  10.623   1.413 -0.0221  0.1632  0.2653
  914MOL0     C23267   3.925  10.700   1.459  0.1600  0.3915 -0.2780
  914MOL0     C23268   4.049  10.660   1.378 -0.9729  0.4072  0.3544
  914MOL0     C23269   4.165  10.745   1.415 -0.5724  0.4003  0.7569
  914MOL0     C23270   4.293  10.691   1.348 -0.7062  0.4482  0.0908
  914MOL0     C23271   4.395  10.806   1.307 -0.0203  1.2713 -0.2200
  914MOL0     N23272   4.452  10.869   1.428 -0.0572 -0.2001 -0.8110
  914MOL0     C23273   4.390  10.974   1.506  0.0915 -0.5439 -0.4370
  914MOL0     C23274   4.497  11.048   1.561  0.7956  0.3246  1.6790
  914MOL0     C23275   4.483  11.164   1.641 -0.4124  0.2124 -0.4455
  914MOL0     C23276   4.482  11.126   1.791 -0.0515  0.5773  0.6530
  914MOL0     C23277   4.381  11.008   1.829 -0.2819 -0.6305  0.3018
  914MOL0     C23278   4.361  11.011   1.977  0.3800  0.2776 -0.1894
  914MOL0     O23279   4.275  11.117   2.008  0.0825 -0.4569  0.2080
  914MOL0     C23280   4.285  11.144   2.141  0.8958  0.9958 -0.1256
  914MOL0     C23281   4.396  11.205   2.179  0.5652 -0.7133  0.1031
  914MOL0     C23282   4.416  11.236   2.318 -1.0418 -0.7937  0.6462
  914MOL0     C23283   4.318  11.223   2.410  0.2869  0.5625  0.2288
  914MOL0     C23284   4.334  11.271   2.552  1.0691 -0.6528  0.6332
  914MOL0     O23285   4.452  11.326   2.584 -0.5930  0.2833  0.3343
  914MOL0     C23286   4.467  11.395   2.703 -0.0266  0.5061 -0.0435
  914MOL0     C23287   4.596  11.415   2.745  0.8820  0.0085 -0.2111
  914MOL0     C23288   4.630  11.467   2.870 -0.0974  0.2450 -0.3023
  914MOL0     C23289   4.533  11.511   2.950  0.7109 -0.3009  0.3017
  914MOL0     O23290   4.553  11.593   3.058  0.0205  0.1544 -0.0053
  914MOL0     C23291   4.673  11.571   3.125 -0.6072 -0.4128  0.0072
  914MOL0     C23292   4.659  11.618   3.273  0.3115  0.9479  0.0217
  914MOL0     C23293   4.777  11.545   3.352  0.2906 -0.6555  0.1225
  914MOL0     C23294   4.914  11.601   3.306 -0.7119 -0.0506  0.4332
  914MOL0     C23295   5.021  11.592   3.412  0.1086  0.0106  0.4323
  914MOL0     C23296   5.153  11.644   3.367 -0.5784 -0.0667 -0.5456
  914MOL0     C23297   5.266  11.651   3.476 -0.3917  0.2564  0.2548
  914MOL0     C23298   5.406  11.678   3.423 -0.7262 -0.1823 -0.0051
  914MOL0    Cl23299   5.452  11.572   3.290  0.4080  0.0828 -0.1007
  914MOL0     C23300   4.400  11.506   2.906 -0.1475  0.5842 -0.4173
  914MOL0     C23301   4.365  11.450   2.785 -0.9079 -0.9681  0.5366
  914MOL0     O23302   4.240  11.250   2.634  0.1710  0.1401 -0.5164
  914MOL0     C23303   4.203  11.173   2.368 -0.4080  0.9055 -0.2788
  914MOL0     C23304   4.181  11.128   2.237 -0.3556  0.6041 -0.5046
  914MOL0     N23305   4.615  10.987   1.521 -1.5060  0.2001  0.0491
  914MOL0     N23306   4.589  10.885   1.443  0.3149 -0.5796 -0.0433
  914MOL0     C23307   3.498  10.219   1.481 -0.1197 -0.2473 -0.3494
  914MOL0     C23308   3.402  10.122   1.458 -0.5742 -0.1291 -0.5413
  914MOL0     C23309   3.078   9.881   1.295 -0.3553 -0.1163 -0.8088
  914MOL0     C23310   2.976   9.877   1.199  0.6402  0.3701 -0.2304
  914MOL0     C23311   2.871   9.784   1.208  0.3050 -0.2441  0.7552
  914MOL0     C23312   2.867   9.686   1.309 -0.4904  0.6588  1.2131
  914MOL0     O23313   2.785   9.578   1.312 -0.1751  0.0734  0.5899
  914MOL0     C23314   2.679   9.581   1.213  0.0240  0.6165 -0.0073
  914MOL0     C23315   2.627   9.440   1.209  0.0937 -0.0575  0.4326
  914MOL0     C23316   2.730   9.324   1.169  0.4409  0.0595  0.4033
  914MOL0     C23317   2.777   9.322   1.025 -0.7788  0.1217 -0.0747
  914MOL0     C23318   2.670   9.305   0.924 -0.3005  0.0973 -0.1007
  914MOL0     C23319   2.591   9.270   0.840 -0.0394 -0.5260 -0.9186
  914MOL0     C23320   2.964   9.694   1.409 -0.0770  0.5565  0.2278
  914MOL0     C23321   3.066   9.790   1.407 -0.1662  0.4648 -0.4792
  914MOL0     C23322   3.167   9.781   1.512  0.7434  0.6004 -0.2614
  914MOL0     H23323   3.152  10.318   1.342 -0.5154 -0.3920 -0.6148
  914MOL0     H23324   3.309  10.488   1.365  1.0914  2.4561  1.5112
  914MOL0     H23325   3.539  10.580   1.350 -2.1536  3.5689  1.0323
  914MOL0     H23326   3.460  10.618   1.492 -1.1881  0.1038 -1.3642
  914MOL0     H23327   3.699  10.662   1.597 -0.4442 -1.9785 -0.4064
  914MOL0     H23328   3.647  10.772   1.472  1.1922  0.9600  2.2496
  914MOL0     H23329   3.777  10.657   1.312  2.9438  1.3096 -0.0609
  914MOL0     H23330   3.825  10.517   1.420  3.1540  0.9168  0.9786
  914MOL0     H23331   3.907  10.807   1.450  2.4903  1.3092  3.6643
  914MOL0     H23332   3.942  10.689   1.566  0.6691  1.1899 -0.2714
  914MOL0     H23333   4.077  10.555   1.385  0.7754  0.3802 -4.2431
  914MOL0     H23334   4.023  10.681   1.274  2.4684 -1.1703 -0.9727
  914MOL0     H23335   4.145  10.852   1.402 -4.7725 -0.1422  1.3907
  914MOL0     H23336   4.175  10.736   1.524 -2.4634  1.0116  1.0284
  914MOL0     H23337   4.268  10.646   1.252  1.1924 -2.2559  0.7494
  914MOL0     H23338   4.344  10.616   1.409 -5.3012 -2.9147  0.2692
  914MOL0     H23339   4.483  10.776   1.250 -1.3056  0.3235 -1.7730
  914MOL0     H23340   4.347  10.888   1.251 -3.1516 -0.6546 -0.6214
  914MOL0     H23341   4.283  10.990   1.502  0.0764 -0.6354 -0.4060
  914MOL0     H23342   4.566  11.230   1.613 -1.1758  0.9662 -0.9957
  914MOL0     H23343   4.395  11.224   1.615  0.6352  0.6362 -3.3840
  914MOL0     H23344   4.582  11.089   1.814  0.7987  1.3540 -1.5358
  914MOL0     H23345   4.466  11.220   1.845  0.2006  0.7543  0.4190
  914MOL0     H23346   4.433  10.914   1.805  0.0272 -0.0186 -1.5504
  914MOL0     H23347   4.292  11.016   1.766  0.2757  1.3891 -0.2912
  914MOL0     H23348   4.452  11.002   2.037 -0.3513 -0.7611  0.8340
  914MOL0     H23349   4.303  10.923   2.008  3.7974 -1.8304  0.7980
  914MOL0     H23350   4.469  11.233   2.103  1.5856 -1.3576  0.8386
  914MOL0     H23351   4.511  11.279   2.350 -1.8958  0.7562  1.2212
  914MOL0     H23352   4.675  11.388   2.677 -0.0545 -1.5194 -0.7418
  914MOL0     H23353   4.735  11.457   2.896 -0.3303  0.7046  0.8714
  914MOL0     H23354   4.713  11.469   3.133 -0.2119 -0.1444  2.0327
  914MOL0     H23355   4.749  11.640   3.088 -1.4117  0.9282  0.7746
  914MOL0     H23356   4.663  11.726   3.294  0.7367  0.7344  1.0762
  914MOL0     H23357   4.565  11.576   3.311  1.7062 -2.4560  0.0175
  914MOL0     H23358   4.759  11.562   3.458 -2.1223 -1.6812 -0.0688
  914MOL0     H23359   4.783  11.436   3.341 -1.0798 -0.5027 -3.3367
  914MOL0     H23360   4.905  11.705   3.273  0.1202 -0.3843 -0.9012
  914MOL0     H23361   4.940  11.547   3.215 -3.1500 -1.2144  0.3398
  914MOL0     H23362   5.043  11.490   3.444 -3.0756 -0.5830  1.1013
  914MOL0     H23363   4.989  11.649   3.500 -0.1022 -0.2078  0.4977
  914MOL0     H23364   5.197  11.594   3.280 -0.0979 -0.9099  0.1740
  914MOL0     H23365   5.139  11.749   3.338  0.9746  0.2153 -0.3363
  914MOL0     H23366   5.268  11.548   3.512  2.0304 -0.5344 -1.8243
  914MOL0     H23367   5.244  11.726   3.552 -0.2973  0.5364  0.0076
  914MOL0     H23368   5.421  11.779   3.383 -1.8414  0.0436  0.1272
  914MOL0     H23369   5.484  11.658   3.496 -1.2772 -3.8373 -0.2272
  914MOL0     H23370   4.324  11.553   2.969 -1.4575 -1.7761 -0.1174
  914MOL0     H23371   4.263  11.463   2.751 -0.4801  0.3751 -0.3116
  914MOL0     H23372   4.122  11.169   2.440 -0.0742  4.0995  0.4365
  914MOL0     H23373   4.088  11.081   2.205 -0.4531  0.5547 -0.1471
  914MOL0     H23374   3.588  10.186   1.533 -0.8320 -0.2199  0.9410
  914MOL0     H23375   3.437  10.020   1.471  1.8311  0.6645 -0.2723
  914MOL0     H23376   2.972   9.955   1.123  2.5720  1.9798  1.2029
  914MOL0     H23377   2.806   9.777   1.122  0.9323  2.5139 -0.0225
  914MOL0     H23378   2.725   9.593   1.114 -0.5811 -0.8563 -0.5018
  914MOL0     H23379   2.598   9.648   1.245 -0.0404  1.2176 -1.3442
  914MOL0     H23380   2.540   9.423   1.145 -0.9033  0.7712  1.5264
  914MOL0     H23381   2.585   9.421   1.308 -1.4570 -0.5828 -0.2867
  914MOL0     H23382   2.679   9.227   1.175  1.8747 -0.8415 -1.0541
  914MOL0     H23383   2.813   9.324   1.240  1.3828  2.7960 -0.5888
  914MOL0     H23384   2.836   9.413   1.012  1.2427 -0.9423  1.3084
  914MOL0     H23385   2.847   9.240   1.005 -0.2048  0.0920  1.9077
  914MOL0     H23386   2.523   9.235   0.766 -1.9010 -1.5543  1.1572
  914MOL0     H23387   2.962   9.608   1.476  0.4818 -0.2388 -0.7517
  914MOL0     H23388   3.268   9.791   1.470 -0.5688  0.3430 -3.8794
  914MOL0     H23389   3.146   9.851   1.593  0.4475 -1.3009  1.3809
  914MOL0     H23390   3.160   9.687   1.567  4.2214  0.7244  0.6297
  915MOL0     O23391   0.932   6.829   5.567 -1.1269 -0.8328 -0.4985
  915MOL0     C23392   0.865   6.766   5.487 -0.3591 -0.2301 -0.0150
  915MOL0     O23393   0.910   6.673   5.403 -0.6627  0.1927  0.2104
  915MOL0     C23394   1.045   6.666   5.391  0.4234  0.8349 -0.3417
  915MOL0     C23395   1.119   6.589   5.483  0.2669  0.4701  0.5879
  915MOL0     C23396   1.262   6.573   5.479  0.5095 -0.2129 -0.2610
  915MOL0     C23397   1.318   6.618   5.357  0.0568  0.2835 -0.4170
  915MOL0     O23398   1.453   6.598   5.334 -0.5672 -0.5400  0.1973
  915MOL0     C23399   1.524   6.689   5.252 -0.5400 -0.9064 -0.6973
  915MOL0     C23400   1.671   6.650   5.264 -0.5014  0.4490 -0.0431
  915MOL0     C23401   1.693   6.516   5.190 -0.1000  1.7207 -0.0856
  915MOL0     C23402   1.839   6.472   5.209  0.6790 -0.3843  0.0874
  915MOL0     C23403   1.858   6.329   5.163 -0.1310 -0.2383 -0.1249
  915MOL0     C23404   1.920   6.318   5.027 -0.2625 -0.1766  0.0463
  915MOL0     C23405   2.080   6.333   5.034 -0.0368 -0.3939 -0.1232
  915MOL0     C23406   2.138   6.320   4.895  0.4129  0.3161  0.0394
  915MOL0     N23407   2.281   6.291   4.899  1.0327 -0.6110 -0.8709
  915MOL0     C23408   2.380   6.384   4.932  0.8757  0.1492 -0.9014
  915MOL0     C23409   2.495   6.327   4.892 -0.4409  0.8283 -0.0891
  915MOL0     C23410   2.629   6.388   4.899 -0.1537 -0.2219  0.0140
  915MOL0     C23411   2.713   6.329   4.781  0.1119 -1.0439 -0.6253
  915MOL0     C23412   2.812   6.440   4.735 -0.3218 -0.6908  0.0399
  915MOL0     C23413   2.912   6.385   4.632  0.3994  0.0154  0.8139
  915MOL0     O23414   3.040   6.405   4.676 -0.1373  0.2287  0.0398
  915MOL0     C23415   3.082   6.340   4.793 -0.6684  0.3777  0.1497
  915MOL0     C23416   3.138   6.414   4.894 -0.9688  0.0135  0.3257
  915MOL0     C23417   3.199   6.346   4.998  0.4233 -0.0673 -0.1863
  915MOL0     C23418   3.196   6.207   5.008 -0.3249  0.6223 -0.3004
  915MOL0     C23419   3.263   6.135   5.113 -0.3870 -0.4355 -0.0906
  915MOL0     O23420   3.247   6.002   5.111  0.6711 -0.0748 -0.5315
  915MOL0     C23421   3.301   5.921   5.201  0.0481  0.0380 -1.2121
  915MOL0     C23422   3.310   5.949   5.342  1.0315 -0.6242  0.4041
  915MOL0     C23423   3.368   5.855   5.430  0.3761 -0.4601  0.5682
  915MOL0     C23424   3.409   5.730   5.380 -0.2570  0.2120  0.1182
  915MOL0     O23425   3.462   5.630   5.454 -0.1258  0.1011  0.3665
  915MOL0     C23426   3.430   5.627   5.594 -1.1644 -0.2160  0.1593
  915MOL0     C23427   3.560   5.656   5.681 -0.4612  0.1083 -0.2023
  915MOL0     C23428   3.656   5.541   5.662  0.0922  0.3358 -0.2599
  915MOL0     C23429   3.763   5.554   5.773 -0.1439  0.0799  0.0535
  915MOL0     C23430   3.868   5.674   5.755 -0.1882 -0.6362  0.1168
  915MOL0     C23431   3.977   5.646   5.643 -0.1838 -0.3934 -0.3526
  915MOL0     C23432   4.094   5.743   5.656 -0.3901  0.0842  0.0757
  915MOL0     C23433   4.179   5.757   5.528  0.3363  1.4690 -0.3831
  915MOL0    Cl23434   4.250   5.594   5.477  0.5614 -0.3842 -0.2186
  915MOL0     C23435   3.405   5.704   5.240 -0.7413  0.2935 -0.1667
  915MOL0     C23436   3.351   5.802   5.153  0.8221  0.0284  0.2691
  915MOL0     O23437   3.318   6.196   5.201  0.6563 -0.2827  0.5198
  915MOL0     C23438   3.112   6.135   4.921 -0.0856  0.6695 -0.2099
  915MOL0     C23439   3.052   6.201   4.816  0.5779 -0.6773  0.1404
  915MOL0     N23440   2.473   6.195   4.850 -0.0631  0.6413 -0.4309
  915MOL0     N23441   2.343   6.179   4.848  0.4113  0.1578 -0.5834
  915MOL0     C23442   1.249   6.699   5.271 -0.5850 -0.8418  0.4750
  915MOL0     C23443   1.113   6.725   5.288  0.0899  0.2873 -0.7043
  915MOL0     C23444   0.720   6.784   5.504  0.6419 -0.1936  0.3541
  915MOL0     C23445   0.667   6.834   5.621 -0.3856  0.6257  0.2347
  915MOL0     C23446   0.531   6.849   5.643  0.2233  0.1444  0.5175
  915MOL0     C23447   0.443   6.822   5.539 -0.3859 -0.8922 -0.0387
  915MOL0     O23448   0.308   6.862   5.572 -0.3132  0.3314  0.2634
  915MOL0     C23449   0.209   6.815   5.481  0.1686  0.2934 -0.7487
  915MOL0     C23450   0.086   6.782   5.560  0.9146  0.3888  0.8907
  915MOL0     C23451   0.014   6.906   5.616 -0.1210  0.2295 -0.3808
  915MOL0     C23452  -0.101   6.864   5.702 -0.7349 -0.5545  0.5676
  915MOL0     C23453  -0.223   6.832   5.628 -0.0382  0.1596 -0.3461
  915MOL0     C23454  -0.313   6.791   5.557 -0.4714  0.5018  0.9187
  915MOL0     C23455   0.489   6.778   5.420 -0.7913 -0.4622  0.6288
  915MOL0     C23456   0.621   6.751   5.397 -0.0379 -0.4924 -0.3432
  915MOL0     C23457   0.665   6.676   5.273 -0.0182 -0.4589 -0.3367
  915MOL0     H23458   1.063   6.553   5.568 -1.2234  2.2054  0.4164
  915MOL0     H23459   1.321   6.517   5.551  0.5435 -0.1629 -0.2505
  915MOL0     H23460   1.499   6.695   5.146  2.0573  2.3792 -1.2957
  915MOL0     H23461   1.504   6.789   5.292  0.8395  0.6496 -3.5466
  915MOL0     H23462   1.714   6.639   5.364  0.9669 -0.0444 -0.6904
  915MOL0     H23463   1.732   6.722   5.209 -1.5312  0.7331 -0.8519
  915MOL0     H23464   1.662   6.522   5.085 -2.5845 -2.1364  0.2119
  915MOL0     H23465   1.639   6.433   5.237 -0.4127  2.9350  1.7858
  915MOL0     H23466   1.907   6.537   5.153  0.5785 -1.3635 -1.2294
  915MOL0     H23467   1.858   6.471   5.317  1.4974 -0.8698 -0.0481
  915MOL0     H23468   1.918   6.276   5.238  0.3799 -0.2686 -0.5437
  915MOL0     H23469   1.764   6.273   5.162  0.4451 -1.2400 -1.2805
  915MOL0     H23470   1.886   6.222   4.987 -2.2665  0.0613  1.0271
  915MOL0     H23471   1.878   6.394   4.961 -1.1471 -1.2465 -0.6489
  915MOL0     H23472   2.125   6.256   5.096  0.5815  1.0603  1.3003
  915MOL0     H23473   2.107   6.429   5.079  0.9954 -0.6983 -0.0890
  915MOL0     H23474   2.095   6.249   4.823 -1.7086  1.8769 -0.2956
  915MOL0     H23475   2.127   6.407   4.830  0.9514 -0.0547 -0.5747
  915MOL0     H23476   2.375   6.484   4.975  0.2687 -0.6999  1.1008
  915MOL0     H23477   2.635   6.497   4.905 -3.1413 -0.0353  2.6895
  915MOL0     H23478   2.659   6.350   4.997 -2.7326 -1.1489  0.5284
  915MOL0     H23479   2.759   6.239   4.822 -0.1448 -0.8273  0.1491
  915MOL0     H23480   2.651   6.301   4.695 -0.1190 -3.0804  0.1612
  915MOL0     H23481   2.869   6.485   4.816 -4.4996 -0.5373  3.1736
  915MOL0     H23482   2.748   6.515   4.687  2.0770  0.1337 -2.1421
  915MOL0     H23483   2.899   6.451   4.547  4.2473 -0.0739 -0.0601
  915MOL0     H23484   2.885   6.282   4.607  0.2291  0.1334  0.5170
  915MOL0     H23485   3.160   6.519   4.877  1.5644 -0.4869  0.0335
  915MOL0     H23486   3.258   6.409   5.063  1.7079  0.8935 -2.1915
  915MOL0     H23487   3.271   6.041   5.384 -3.1008 -1.4895 -1.1271
  915MOL0     H23488   3.380   5.876   5.536  1.9196  0.6839  0.2066
  915MOL0     H23489   3.351   5.692   5.633 -0.3666 -0.1696  1.7990
  915MOL0     H23490   3.398   5.529   5.631  0.2136 -0.7521 -0.0057
  915MOL0     H23491   3.599   5.755   5.656  0.3190 -0.7590 -2.7651
  915MOL0     H23492   3.532   5.660   5.786 -2.8330  0.5112 -0.8086
  915MOL0     H23493   3.608   5.442   5.655 -2.3201  1.3004  1.1234
  915MOL0     H23494   3.708   5.558   5.568  2.4746 -1.0040  0.7398
  915MOL0     H23495   3.818   5.462   5.793 -1.0890 -0.8712 -1.5310
  915MOL0     H23496   3.705   5.577   5.863 -0.9849 -0.4262 -0.3481
  915MOL0     H23497   3.912   5.690   5.854 -0.0690  0.2848 -0.0752
  915MOL0     H23498   3.816   5.766   5.729 -0.1309 -0.7105 -0.2746
  915MOL0     H23499   4.012   5.543   5.655 -0.7586 -0.6636 -0.8962
  915MOL0     H23500   3.935   5.652   5.542 -3.9157  0.7547  1.0977
  915MOL0     H23501   4.165   5.715   5.735 -1.0163 -1.1158  0.2266
  915MOL0     H23502   4.055   5.844   5.671  1.1167  0.5969  0.8132
  915MOL0     H23503   4.111   5.786   5.447 -1.7658  0.5618  0.9888
  915MOL0     H23504   4.264   5.824   5.545  3.8356 -2.0943 -2.1886
  915MOL0     H23505   3.429   5.604   5.208 -1.9985 -0.1352  0.1723
  915MOL0     H23506   3.357   5.792   5.045 -0.3838 -2.7752  0.3726
  915MOL0     H23507   3.096   6.028   4.924 -2.6762  1.0184 -0.0025
  915MOL0     H23508   2.994   6.140   4.747 -1.1672  0.4724  0.5363
  915MOL0     H23509   1.296   6.749   5.186 -0.2894 -1.4206  0.2955
  915MOL0     H23510   1.050   6.789   5.227 -0.4929  0.5543  0.1745
  915MOL0     H23511   0.732   6.868   5.701 -0.2421  2.3410 -0.5699
  915MOL0     H23512   0.497   6.894   5.736  1.3503  0.4749  0.7772
  915MOL0     H23513   0.245   6.725   5.431  3.3108  0.9599  0.0797
  915MOL0     H23514   0.182   6.887   5.403  0.4137  0.5484 -0.6012
  915MOL0     H23515   0.117   6.712   5.638 -1.2649 -0.1762  1.3164
  915MOL0     H23516   0.020   6.732   5.489 -0.0631  0.2944  1.8552
  915MOL0     H23517  -0.016   6.966   5.530  0.5323 -0.5432 -1.1787
  915MOL0     H23518   0.077   6.955   5.691  1.6173 -2.4098  0.0301
  915MOL0     H23519  -0.063   6.789   5.772  0.1742 -2.9206 -2.2353
  915MOL0     H23520  -0.125   6.945   5.771  1.3824  0.5050  0.1293
  915MOL0     H23521  -0.393   6.775   5.487 -0.2039 -1.8574  1.0666
  915MOL0     H23522   0.423   6.751   5.338 -0.3503 -1.2880  0.5333
  915MOL0     H23523   0.581   6.683   5.203  0.6379  2.6444 -0.9400
  915MOL0     H23524   0.745   6.727   5.218  0.3550  0.0913  0.7075
  915MOL0     H23525   0.694   6.573   5.298  0.7253 -0.2579 -0.3546
  916MOL0     O23526   2.125   6.504   7.743 -0.0916 -0.4624 -0.4403
  916MOL0     C23527   2.134   6.619   7.781 -0.5611 -0.5548 -0.9082
  916MOL0     O23528   2.251   6.686   7.780  0.1176 -0.6724  0.1262
  916MOL0     C23529   2.370   6.643   7.731  0.4361 -0.6962  0.6662
  916MOL0     C23530   2.372   6.563   7.612  0.1841  0.2201 -0.2921
  916MOL0     C23531   2.493   6.515   7.559 -0.9058  0.8417  0.1084
  916MOL0     C23532   2.608   6.541   7.626  0.9278 -0.2459  0.6786
  916MOL0     O23533   2.724   6.497   7.569  0.1786 -0.3917 -0.1086
  916MOL0     C23534   2.790   6.596   7.496  0.0304 -0.6353  0.5472
  916MOL0     C23535   2.903   6.536   7.413 -0.3209  0.1719 -0.9289
  916MOL0     C23536   2.961   6.632   7.315  0.2644 -1.1570  1.4150
  916MOL0     C23537   3.104   6.581   7.274 -0.0082  0.1467 -0.0805
  916MOL0     C23538   3.196   6.700   7.229 -0.3527 -0.2962  0.4838
  916MOL0     C23539   3.255   6.671   7.083  0.4355 -0.0132 -0.1221
  916MOL0     C23540   3.358   6.776   7.046 -0.8279 -0.3450 -0.0293
  916MOL0     C23541   3.439   6.761   6.919 -0.4695  0.1239 -0.1066
  916MOL0     N23542   3.346   6.767   6.804  0.5009 -0.3830 -0.4696
  916MOL0     C23543   3.259   6.871   6.780  0.2835 -0.0670 -0.3803
  916MOL0     C23544   3.199   6.827   6.667  0.3250  0.1566 -0.4109
  916MOL0     C23545   3.112   6.905   6.579 -0.5788 -0.1919  0.7518
  916MOL0     C23546   3.013   6.986   6.661 -0.0693 -0.2239  0.2514
  916MOL0     C23547   2.931   7.072   6.565 -0.0224  0.0760 -0.1952
  916MOL0     C23548   2.863   7.188   6.632 -0.1084 -0.3335 -0.0708
  916MOL0     O23549   2.788   7.152   6.758 -0.3195 -0.3715  0.1789
  916MOL0     C23550   2.659   7.100   6.753 -0.1311 -0.2947  0.6205
  916MOL0     C23551   2.595   7.070   6.639  0.6588 -0.2790  0.3592
  916MOL0     C23552   2.473   7.003   6.635 -0.5878  0.1160 -0.3727
  916MOL0     C23553   2.403   6.963   6.748 -0.4337  0.4139  0.3351
  916MOL0     C23554   2.272   6.900   6.738  0.0274  0.1353  0.2452
  916MOL0     O23555   2.204   6.915   6.614 -0.2097 -0.3917  0.0222
  916MOL0     C23556   2.082   6.843   6.594 -0.2195  0.0791  0.4372
  916MOL0     C23557   1.964   6.916   6.589  0.3036  0.7343  0.2781
  916MOL0     C23558   1.840   6.858   6.580 -0.9047  0.1812 -0.2210
  916MOL0     C23559   1.821   6.713   6.572 -1.1756  0.0900 -0.9311
  916MOL0     O23560   1.701   6.647   6.562  0.3556  0.1558  0.8645
  916MOL0     C23561   1.574   6.718   6.537  0.5254  0.4691 -0.4930
  916MOL0     C23562   1.532   6.653   6.402 -0.8401  0.4964 -0.8382
  916MOL0     C23563   1.408   6.735   6.362  0.3236 -0.1541 -1.2519
  916MOL0     C23564   1.327   6.681   6.240 -0.4607 -0.1409  0.2777
  916MOL0     C23565   1.226   6.775   6.184  0.1173  1.0973  0.0846
  916MOL0     C23566   1.158   6.725   6.057 -0.0000 -0.4400 -0.3321
  916MOL0     C23567   1.031   6.802   6.038  0.3857 -0.7151 -0.2831
  916MOL0     C23568   0.953   6.752   5.917  0.2443 -0.7832  0.2571
  916MOL0    Cl23569   0.885   6.605   5.926  0.2070  0.1934 -0.2921
  916MOL0     C23570   1.948   6.639   6.571  0.4728  0.5204 -0.0908
  916MOL0     C23571   2.072   6.704   6.596 -0.0418 -1.0034 -0.5477
  916MOL0     O23572   2.220   6.865   6.843  0.0157  0.0150  0.4916
  916MOL0     C23573   2.465   6.991   6.872 -0.2922 -0.3097 -0.1586
  916MOL0     C23574   2.597   7.051   6.875  0.7004 -0.4006  0.2138
  916MOL0     N23575   3.223   6.700   6.637 -0.2040  0.5607  0.6003
  916MOL0     N23576   3.310   6.668   6.718  0.1693 -0.6950 -0.5284
  916MOL0     C23577   2.610   6.612   7.742  0.0140 -0.2950 -0.7742
  916MOL0     C23578   2.491   6.668   7.797  0.0974 -0.1672 -0.7634
  916MOL0     C23579   2.007   6.699   7.795 -0.1328 -0.1060 -0.5398
  916MOL0     C23580   2.005   6.838   7.768 -0.7543  0.2867 -0.7465
  916MOL0     C23581   1.891   6.914   7.790  0.7884  0.6804  0.7410
  916MOL0     C23582   1.770   6.864   7.821 -0.6806  0.1338 -0.2395
  916MOL0     O23583   1.661   6.948   7.830  0.0606 -0.6684 -0.2120
  916MOL0     C23584   1.530   6.899   7.845  0.1846  0.3178  0.1185
  916MOL0     C23585   1.498   6.878   7.990  0.0820 -0.7105  0.6124
  916MOL0     C23586   1.359   6.806   8.023  0.1151  0.3510  0.2466
  916MOL0     C23587   1.343   6.662   7.969 -0.8048 -0.0348 -0.1323
  916MOL0     C23588   1.450   6.560   7.995  0.1642 -0.7611 -0.0465
  916MOL0     C23589   1.537   6.475   8.005  0.8033 -0.8971  0.1580
  916MOL0     C23590   1.765   6.725   7.861  0.1146 -1.0151  0.5726
  916MOL0     C23591   1.880   6.648   7.851  0.1827  0.4100 -0.4900
  916MOL0     C23592   1.878   6.507   7.894  0.1281 -0.1595  0.2869
  916MOL0     H23593   2.280   6.539   7.560 -0.3275  2.8305 -0.7443
  916MOL0     H23594   2.502   6.447   7.475  0.0712  1.6592 -0.4699
  916MOL0     H23595   2.713   6.645   7.436 -0.5499 -0.5998  1.3052
  916MOL0     H23596   2.830   6.673   7.562 -0.1789  0.0115 -0.0654
  916MOL0     H23597   2.861   6.448   7.363 -2.1090  1.1826 -1.2638
  916MOL0     H23598   2.976   6.497   7.484 -0.9329  0.1551 -0.3091
  916MOL0     H23599   2.964   6.728   7.366  2.9067 -1.0337  1.1490
  916MOL0     H23600   2.902   6.648   7.224  1.2448 -2.1681  0.5494
  916MOL0     H23601   3.164   6.531   7.350  2.3922 -0.8806 -2.4662
  916MOL0     H23602   3.084   6.509   7.194 -1.9775 -1.3408  1.6594
  916MOL0     H23603   3.147   6.798   7.225 -2.8733 -1.5146 -0.3400
  916MOL0     H23604   3.276   6.715   7.302  1.0411 -2.3365 -0.5327
  916MOL0     H23605   3.312   6.578   7.072 -0.8101 -0.7458 -0.6307
  916MOL0     H23606   3.170   6.661   7.014  1.0022 -2.6181 -0.5795
  916MOL0     H23607   3.431   6.780   7.127  0.5098 -2.6056 -1.0304
  916MOL0     H23608   3.295   6.866   7.048 -0.4548 -0.0956  0.7966
  916MOL0     H23609   3.519   6.834   6.903 -0.9859  0.0517 -4.0584
  916MOL0     H23610   3.497   6.668   6.924  2.0292  1.6455  2.3165
  916MOL0     H23611   3.264   6.968   6.829  1.6526  0.3696 -1.3151
  916MOL0     H23612   3.165   6.983   6.525  0.7736 -1.2146  0.5544
  916MOL0     H23613   3.066   6.839   6.506 -0.3593 -1.3578  1.6333
  916MOL0     H23614   2.946   6.914   6.709 -1.7199  1.4526  0.5627
  916MOL0     H23615   3.060   7.048   6.738 -1.3669 -3.0218  3.5740
  916MOL0     H23616   2.864   7.006   6.510 -0.7961  0.9608 -0.3225
  916MOL0     H23617   2.997   7.113   6.488 -1.0725  1.1275 -0.5587
  916MOL0     H23618   2.802   7.242   6.559  1.7807  0.2269 -1.2817
  916MOL0     H23619   2.935   7.268   6.652  0.9899 -0.9190 -1.5055
  916MOL0     H23620   2.639   7.087   6.542  0.9029 -2.4000  0.0657
  916MOL0     H23621   2.442   6.962   6.540 -0.4653 -1.3781  0.2104
  916MOL0     H23622   1.972   7.023   6.578  3.4990  0.7883  2.0039
  916MOL0     H23623   1.749   6.918   6.573 -2.8782 -2.7592 -2.6145
  916MOL0     H23624   1.498   6.701   6.613  1.4351 -1.6191  0.0252
  916MOL0     H23625   1.579   6.827   6.538  1.1402  0.4691  1.6209
  916MOL0     H23626   1.601   6.665   6.318 -0.8876  0.9099 -0.8198
  916MOL0     H23627   1.516   6.548   6.426 -1.9310  0.8654  0.1359
  916MOL0     H23628   1.342   6.751   6.448  0.0057 -0.5003 -1.4332
  916MOL0     H23629   1.446   6.835   6.337 -0.0765  0.0008 -1.2479
  916MOL0     H23630   1.275   6.588   6.264  2.7013 -2.1344  0.0046
  916MOL0     H23631   1.402   6.654   6.164 -1.7367  0.0173 -1.0782
  916MOL0     H23632   1.273   6.873   6.167  2.6272 -0.3620 -2.2007
  916MOL0     H23633   1.152   6.786   6.263 -2.0974  1.3908 -1.8988
  916MOL0     H23634   1.231   6.732   5.975  1.2712  0.2546  0.7981
  916MOL0     H23635   1.125   6.622   6.066 -0.7035 -0.5218 -3.1162
  916MOL0     H23636   1.044   6.907   6.013  0.9957 -0.6146  0.4363
  916MOL0     H23637   0.976   6.801   6.133  1.4602 -0.3693  0.3673
  916MOL0     H23638   0.875   6.825   5.894  0.5139  0.8619  3.9351
  916MOL0     H23639   1.024   6.735   5.834 -2.6598 -0.6212 -2.4478
  916MOL0     H23640   1.944   6.530   6.565 -1.1676  0.6692 -3.2721
  916MOL0     H23641   2.167   6.651   6.603 -0.8897 -2.4442  0.5976
  916MOL0     H23642   2.432   6.960   6.971 -0.8087  1.1703  0.1524
  916MOL0     H23643   2.645   7.081   6.967  2.8399 -2.5707 -0.1153
  916MOL0     H23644   2.706   6.634   7.787  0.9798  0.8824 -3.2283
  916MOL0     H23645   2.492   6.727   7.888 -2.2485 -2.8994  1.2056
  916MOL0     H23646   2.103   6.876   7.741  1.3533 -3.3157  1.1161
  916MOL0     H23647   1.880   7.022   7.785  2.2690  0.8053 -0.8133
  916MOL0     H23648   1.521   6.804   7.791  2.0477  1.3905 -2.2965
  916MOL0     H23649   1.452   6.966   7.806 -0.6275 -2.1880 -2.9736
  916MOL0     H23650   1.507   6.981   8.027 -1.9671 -0.7319  1.3221
  916MOL0     H23651   1.580   6.820   8.033 -0.9660 -3.6726 -1.0888
  916MOL0     H23652   1.271   6.864   7.991 -1.2678 -1.4388  0.6159
  916MOL0     H23653   1.349   6.792   8.131  0.6154 -1.3576  0.1020
  916MOL0     H23654   1.244   6.634   8.007 -0.5025 -2.3070 -0.8798
  916MOL0     H23655   1.343   6.669   7.860 -0.5199 -1.5305 -0.2497
  916MOL0     H23656   1.622   6.410   8.013  2.5219  1.0200 -1.2192
  916MOL0     H23657   1.674   6.678   7.897 -1.6284  2.6755  1.4780
  916MOL0     H23658   1.830   6.501   7.993  2.0430  1.4280  1.3654
  916MOL0     H23659   1.816   6.443   7.830 -0.0355  0.6301 -0.3511
  916MOL0     H23660   1.974   6.456   7.903 -0.7641 -1.5926  2.6178
  917MOL0     O23661   3.078   4.611  11.038 -0.3000  0.6476 -0.0643
  917MOL0     C23662   3.101   4.492  11.042  0.7203 -0.2354  0.5169
  917MOL0     O23663   3.150   4.412  10.939 -0.1478 -0.1874 -0.5390
  917MOL0     C23664   3.176   4.466  10.809 -1.1297 -0.6993 -0.8337
  917MOL0     C23665   3.268   4.388  10.733 -0.2630 -0.1332  0.2733
  917MOL0     C23666   3.329   4.445  10.616  0.5428  0.5854  0.1928
  917MOL0     C23667   3.291   4.565  10.563 -0.0183 -0.4108 -0.0039
  917MOL0     O23668   3.340   4.616  10.448  0.3812  0.0524  0.8569
  917MOL0     C23669   3.476   4.608  10.419 -0.1289  0.5248  0.2985
  917MOL0     C23670   3.503   4.713  10.315 -0.0220 -0.3499 -0.0308
  917MOL0     C23671   3.634   4.677  10.238  0.0184 -0.2756  0.6667
  917MOL0     C23672   3.667   4.823  10.191 -0.3574 -0.5498  0.1373
  917MOL0     C23673   3.779   4.810  10.083  0.5006 -1.0426 -0.7406
  917MOL0     C23674   3.909   4.749  10.148  0.4159  0.3449 -0.6795
  917MOL0     C23675   4.026   4.750  10.042  0.2788  0.5163 -0.6753
  917MOL0     C23676   4.118   4.628  10.062 -0.0098 -0.2548 -0.8212
  917MOL0     N23677   4.199   4.618   9.946  0.5015  0.5567  0.0181
  917MOL0     C23678   4.290   4.713   9.920  0.0044 -0.8783  1.0104
  917MOL0     C23679   4.351   4.663   9.812  0.1997 -0.7667  0.5463
  917MOL0     C23680   4.468   4.731   9.745 -0.4072  1.3467 -1.2129
  917MOL0     C23681   4.602   4.658   9.736  0.6078  0.3944  0.2356
  917MOL0     C23682   4.671   4.647   9.875 -0.8311 -1.3060  0.6339
  917MOL0     C23683   4.811   4.575   9.850  0.2909 -0.1881  0.4315
  917MOL0     O23684   4.898   4.666   9.780  0.2943 -0.6257  0.3171
  917MOL0     C23685   5.011   4.610   9.737  0.0215  0.4032  0.8058
  917MOL0     C23686   5.070   4.492   9.779  0.3291  0.0416 -0.3475
  917MOL0     C23687   5.181   4.436   9.717 -0.3333  0.4128  0.4160
  917MOL0     C23688   5.248   4.512   9.616  0.6742  0.0809 -0.6798
  917MOL0     C23689   5.376   4.467   9.560 -0.7035 -0.1068  0.8346
  917MOL0     O23690   5.422   4.358   9.625  0.2347  0.0462  0.5576
  917MOL0     C23691   5.548   4.298   9.603 -0.2802  0.8190 -1.0613
  917MOL0     C23692   5.656   4.339   9.527 -0.8625 -0.0779  0.2138
  917MOL0     C23693   5.778   4.263   9.536 -0.4069 -0.4944  0.1746
  917MOL0     C23694   5.778   4.140   9.600 -0.9187  0.6705  0.4551
  917MOL0     O23695   5.902   4.077   9.611 -0.1979  0.1464  0.4196
  917MOL0     C23696   5.946   4.047   9.746 -0.5198 -0.2617  0.1756
  917MOL0     C23697   6.089   3.989   9.738 -0.2834  0.0069  0.0360
  917MOL0     C23698   6.196   4.103   9.735 -0.0477  0.4390  0.3003
  917MOL0     C23699   6.331   4.031   9.694  0.0652  0.4100  0.3958
  917MOL0     C23700   6.421   4.136   9.631 -0.5652  0.0746 -0.7113
  917MOL0     C23701   6.565   4.099   9.630 -0.2591 -0.0874 -0.1371
  917MOL0     C23702   6.643   4.213   9.564  0.1631  0.5287 -0.1687
  917MOL0     C23703   6.659   4.354   9.627 -1.0278 -0.5673  0.0029
  917MOL0    Cl23704   6.708   4.332   9.797 -0.6233  0.3676  0.2875
  917MOL0     C23705   5.679   4.106   9.686  0.0686 -0.3949  0.1223
  917MOL0     C23706   5.560   4.179   9.679  0.1362 -0.5503 -0.0513
  917MOL0     O23707   5.433   4.518   9.462  1.1560 -0.2297 -0.0847
  917MOL0     C23708   5.202   4.650   9.593  0.3240  0.2984  0.4968
  917MOL0     C23709   5.087   4.690   9.650  0.3356  0.4187  0.0383
  917MOL0     N23710   4.286   4.549   9.768 -0.1503  0.1317 -0.0632
  917MOL0     N23711   4.189   4.528   9.843 -1.1342 -0.2979 -0.2306
  917MOL0     C23712   3.200   4.644  10.637 -0.7234  0.3286 -0.5617
  917MOL0     C23713   3.142   4.600  10.758 -1.0257  0.1634  0.6291
  917MOL0     C23714   3.129   4.444  11.180  0.4568 -0.3177  0.9416
  917MOL0     C23715   3.237   4.353  11.188  0.2678 -0.2933  0.3156
  917MOL0     C23716   3.270   4.302  11.314  0.2475 -0.2914  0.4760
  917MOL0     C23717   3.191   4.323  11.431  0.3941 -0.4665  0.7195
  917MOL0     O23718   3.213   4.271  11.556 -0.0161 -0.2888  0.0814
  917MOL0     C23719   3.324   4.193  11.596 -0.0012 -0.8977 -0.2524
  917MOL0     C23720   3.341   4.214  11.752  0.5178 -0.6193 -0.2573
  917MOL0     C23721   3.329   4.362  11.801  1.1747  0.0981  0.1054
  917MOL0     C23722   3.196   4.390  11.881  0.4840  0.1693 -0.8263
  917MOL0     C23723   3.172   4.531  11.903  0.0818  0.7869 -0.5652
  917MOL0     C23724   3.178   4.645  11.928 -0.2523  0.6399 -0.4697
  917MOL0     C23725   3.076   4.404  11.417  0.4183 -0.2534  0.6909
  917MOL0     C23726   3.045   4.467  11.292  0.2827 -0.1740  0.4929
  917MOL0     C23727   2.925   4.547  11.287 -0.0434  0.6405 -0.4958
  917MOL0     H23728   3.301   4.294  10.776 -0.8098 -0.3939  0.1286
  917MOL0     H23729   3.402   4.382  10.567 -0.4615 -0.2440 -0.2696
  917MOL0     H23730   3.548   4.620  10.500  2.1587 -0.3789 -1.4868
  917MOL0     H23731   3.485   4.510  10.369 -1.0527 -0.1506  1.4286
  917MOL0     H23732   3.512   4.803  10.375  2.1895 -0.8607  0.4648
  917MOL0     H23733   3.430   4.732  10.236  0.7154 -0.5189 -0.7668
  917MOL0     H23734   3.619   4.608  10.154 -2.0749 -1.0266  1.5993
  917MOL0     H23735   3.699   4.630  10.312  1.8296 -1.6753 -1.6536
  917MOL0     H23736   3.576   4.865  10.147 -0.6007 -1.1448  0.0638
  917MOL0     H23737   3.693   4.879  10.281  1.2997 -0.4242 -0.3916
  917MOL0     H23738   3.745   4.755   9.995 -1.7787  0.1018 -0.6448
  917MOL0     H23739   3.796   4.914  10.052 -2.0212  0.1099  1.4099
  917MOL0     H23740   3.939   4.813  10.232  2.1840 -0.1559 -0.8999
  917MOL0     H23741   3.882   4.648  10.179 -0.6562  0.9250  0.3395
  917MOL0     H23742   4.090   4.837  10.061  1.6071 -0.7657  1.0580
  917MOL0     H23743   3.975   4.765   9.946 -1.5425  1.2458  0.3643
  917MOL0     H23744   4.180   4.633  10.152  0.3325 -0.4490 -1.0437
  917MOL0     H23745   4.050   4.544  10.080  0.5671 -0.5599 -0.0341
  917MOL0     H23746   4.325   4.802   9.972  1.5183 -1.0198  0.2891
  917MOL0     H23747   4.430   4.746   9.643  0.5230 -0.5310 -1.8885
  917MOL0     H23748   4.477   4.823   9.802 -3.1760  1.6678 -1.1774
  917MOL0     H23749   4.593   4.551   9.717  1.3214 -0.1256  2.5067
  917MOL0     H23750   4.664   4.712   9.663  2.3019 -0.0606  1.2826
  917MOL0     H23751   4.611   4.592   9.949  1.7566  0.1200  4.1033
  917MOL0     H23752   4.707   4.741   9.919  0.4979 -1.4300 -0.1233
  917MOL0     H23753   4.796   4.491   9.781 -0.4055  1.4740 -1.5406
  917MOL0     H23754   4.849   4.547   9.948 -0.5375 -1.9581  0.2754
  917MOL0     H23755   5.030   4.440   9.865 -2.5266  2.5444  0.0184
  917MOL0     H23756   5.217   4.339   9.749 -0.3698  0.0943 -0.4869
  917MOL0     H23757   5.657   4.430   9.468 -0.1930 -1.3386 -1.8398
  917MOL0     H23758   5.858   4.299   9.471 -0.3712  0.3220  0.6600
  917MOL0     H23759   5.952   4.138   9.806 -1.8692  0.4464 -0.7190
  917MOL0     H23760   5.882   3.979   9.803 -0.4437  0.8220  1.6102
  917MOL0     H23761   6.103   3.923   9.824  0.0967 -2.4359 -1.7947
  917MOL0     H23762   6.106   3.929   9.647  1.4778  1.9589 -1.0188
  917MOL0     H23763   6.179   4.181   9.660  3.0880  4.5035  3.3630
  917MOL0     H23764   6.215   4.155   9.829  1.6403 -2.3087  1.6167
  917MOL0     H23765   6.304   3.954   9.621 -2.1136  0.1813  1.3386
  917MOL0     H23766   6.383   3.986   9.779 -0.2441  0.2372  0.4959
  917MOL0     H23767   6.408   4.226   9.692  0.9736 -1.0102  1.3306
  917MOL0     H23768   6.392   4.171   9.531  0.4607  2.9802 -0.0927
  917MOL0     H23769   6.599   4.086   9.734  0.0071 -3.7269 -0.5405
  917MOL0     H23770   6.583   4.006   9.574  2.5134  0.4762 -0.3313
  917MOL0     H23771   6.598   4.231   9.466 -4.6183  0.2790  1.7117
  917MOL0     H23772   6.739   4.170   9.535 -0.5029 -1.3285  0.2810
  917MOL0     H23773   6.731   4.415   9.570  0.2718 -1.6918  0.3875
  917MOL0     H23774   6.566   4.411   9.620  0.6761  2.4152 -0.3552
  917MOL0     H23775   5.691   4.010   9.734  1.9390  0.1986  0.9303
  917MOL0     H23776   5.485   4.135   9.745  0.3415 -2.9448 -1.3322
  917MOL0     H23777   5.260   4.726   9.540  0.3851  1.0418  1.6084
  917MOL0     H23778   5.047   4.789   9.633 -0.8592 -0.0656 -0.0850
  917MOL0     H23779   3.192   4.747  10.604  1.8372  0.8577  0.2274
  917MOL0     H23780   3.088   4.681  10.807 -2.0489  2.4016 -3.7080
  917MOL0     H23781   3.285   4.326  11.094 -0.9242 -0.7468 -0.1732
  917MOL0     H23782   3.369   4.257  11.313  0.4863  0.2162 -0.5102
  917MOL0     H23783   3.420   4.228  11.559  0.1707  1.8069  2.3335
  917MOL0     H23784   3.319   4.087  11.570 -0.5220 -0.5689 -1.5754
  917MOL0     H23785   3.432   4.175  11.799 -1.2409 -0.7976  3.3128
  917MOL0     H23786   3.271   4.149  11.805  1.9367 -1.8672  0.1935
  917MOL0     H23787   3.329   4.436  11.720 -0.9950  3.5720  2.9680
  917MOL0     H23788   3.414   4.394  11.861  1.4016 -0.0475 -0.1367
  917MOL0     H23789   3.104   4.350  11.839 -0.0350  2.4809 -2.0724
  917MOL0     H23790   3.202   4.344  11.980 -1.8782  0.1975 -0.6265
  917MOL0     H23791   3.192   4.745  11.967  1.2191  1.0073 -1.8309
  917MOL0     H23792   3.009   4.415  11.502  0.5057  0.6943  0.6517
  917MOL0     H23793   2.857   4.512  11.365 -0.1415 -5.0294 -2.6478
  917MOL0     H23794   2.929   4.655  11.301 -0.5951  0.5689  0.2901
  917MOL0     H23795   2.868   4.536  11.194 -0.8551  1.0657 -0.0572
  918MOL0     O23796   8.930   3.196   4.074 -0.6267  0.1893  0.1010
  918MOL0     C23797   8.886   3.086   4.094  0.6826 -0.3661  0.6158
  918MOL0     O23798   8.966   2.970   4.102  1.2204  0.5676  0.2225
  918MOL0     C23799   9.101   2.986   4.102 -0.6311  0.6774  0.6213
  918MOL0     C23800   9.151   3.049   4.212 -0.7204 -0.5287 -0.4299
  918MOL0     C23801   9.291   3.071   4.221 -1.1583 -0.3692 -0.2117
  918MOL0     C23802   9.376   3.022   4.120  0.5337  0.3868  0.1753
  918MOL0     O23803   9.512   3.033   4.118  0.0133 -0.2298 -0.5973
  918MOL0     C23804   9.584   2.997   4.238  1.5793  0.0291 -0.7716
  918MOL0     C23805   9.731   2.981   4.198  0.4466 -0.6559 -0.1644
  918MOL0     C23806   9.824   2.951   4.323 -0.1106 -0.8195 -0.3597
  918MOL0     C23807   9.972   2.978   4.288  0.3918  0.6379  0.2462
  918MOL0     C23808  10.021   2.869   4.195 -0.4119  0.2277  0.0016
  918MOL0     C23809  10.174   2.861   4.175  0.0338  0.1223 -0.4010
  918MOL0     C23810  10.226   2.738   4.104  0.5680  0.6632 -0.5962
  918MOL0     C23811  10.152   2.710   3.968  0.0748 -0.7379  0.2188
  918MOL0     N23812  10.178   2.811   3.859  0.1099  0.3892 -0.2904
  918MOL0     C23813  10.309   2.850   3.815 -0.4455  1.5521 -1.1474
  918MOL0     C23814  10.279   2.959   3.732  0.1474 -0.1800 -0.4415
  918MOL0     C23815  10.375   3.052   3.654 -0.4492 -0.0765 -0.1729
  918MOL0     C23816  10.469   3.128   3.747  0.4313  1.0828  0.2052
  918MOL0     C23817  10.523   3.263   3.689 -0.2246  0.2360  1.1392
  918MOL0     C23818  10.649   3.331   3.737  0.2906  0.3790 -0.3837
  918MOL0     O23819  10.758   3.235   3.725  0.0312  0.2773  0.0123
  918MOL0     C23820  10.878   3.267   3.777 -0.2252 -0.3920 -0.1814
  918MOL0     C23821  10.931   3.186   3.877 -1.0170  0.2949  0.7439
  918MOL0     C23822  11.060   3.208   3.926  0.6217 -0.3450  0.5046
  918MOL0     C23823  11.136   3.318   3.882 -0.2601 -0.0444 -0.7359
  918MOL0     C23824  11.270   3.335   3.929  0.0086  0.7364  0.5547
  918MOL0     O23825  11.321   3.464   3.905  0.2992 -0.0712 -1.2618
  918MOL0     C23826  11.454   3.475   3.939 -0.0015 -0.0571  1.7899
  918MOL0     C23827  11.483   3.537   4.060 -1.1013 -0.0312 -0.2964
  918MOL0     C23828  11.620   3.549   4.097  0.5336 -0.4145  0.5234
  918MOL0     C23829  11.724   3.495   4.024 -0.1571 -0.1729 -0.9610
  918MOL0     O23830  11.859   3.520   4.057  0.1941 -0.1480 -0.2481
  918MOL0     C23831  11.900   3.611   4.156  0.1015 -0.5647 -0.0498
  918MOL0     C23832  12.050   3.573   4.197  0.6880  0.8818  0.6406
  918MOL0     C23833  12.152   3.634   4.101  0.1677  0.5268  0.0800
  918MOL0     C23834  12.295   3.623   4.153 -1.0785  0.3221 -0.4928
  918MOL0     C23835  12.381   3.709   4.061  0.1595 -0.3308 -0.2257
  918MOL0     C23836  12.524   3.706   4.105 -0.6816  0.6267  0.5022
  918MOL0     C23837  12.631   3.780   4.012 -0.5848 -0.6155 -0.6575
  918MOL0     C23838  12.768   3.790   4.088  1.1944  0.0279  0.3353
  918MOL0    Cl23839  12.775   3.924   4.215 -0.1704  0.0905  0.0006
  918MOL0     C23840  11.691   3.436   3.903  0.6702  0.3747 -0.3818
  918MOL0     C23841  11.557   3.414   3.862  0.4033 -0.3712  0.4301
  918MOL0     O23842  11.331   3.237   3.974  0.5960 -0.2379 -0.4053
  918MOL0     C23843  11.086   3.394   3.781 -0.6328 -0.3533 -0.3127
  918MOL0     C23844  10.953   3.378   3.740  0.2149 -0.5409  0.2775
  918MOL0     N23845  10.138   2.965   3.717 -0.1952  1.3502  0.4609
  918MOL0     N23846  10.084   2.871   3.785  0.0738 -0.0426 -0.6274
  918MOL0     C23847   9.323   2.964   4.002  0.2895  0.6390  0.7377
  918MOL0     C23848   9.185   2.950   3.994  1.1911 -0.4529  0.0247
  918MOL0     C23849   8.741   3.079   4.094  0.7004 -0.2576 -0.2309
  918MOL0     C23850   8.682   3.061   4.218 -0.7940 -0.0821 -0.0332
  918MOL0     C23851   8.539   3.075   4.232 -0.3063  0.0001 -0.7617
  918MOL0     C23852   8.460   3.110   4.122  0.1206 -0.1725 -0.2797
  918MOL0     O23853   8.323   3.111   4.133 -0.2723  0.6120 -0.2786
  918MOL0     C23854   8.256   3.101   4.257  0.7686 -0.0549  0.7229
  918MOL0     C23855   8.111   3.140   4.229  0.1873 -0.5827  0.8759
  918MOL0     C23856   8.101   3.288   4.178 -0.1910  0.8404  0.0213
  918MOL0     C23857   7.961   3.310   4.134  0.7398  0.2514  0.1246
  918MOL0     C23858   7.942   3.446   4.086 -1.5257 -0.3189 -0.0996
  918MOL0     C23859   7.926   3.558   4.032  0.0081  0.5550 -0.2397
  918MOL0     C23860   8.518   3.135   4.001 -0.5424 -0.0079 -0.0662
  918MOL0     C23861   8.659   3.107   3.985 -0.1354  0.0198 -0.1725
  918MOL0     C23862   8.727   3.115   3.852 -0.3047  0.2847 -0.2563
  918MOL0     H23863   9.090   3.078   4.297  2.2457 -2.0047  2.4118
  918MOL0     H23864   9.333   3.111   4.313 -2.6957 -0.8364  0.7368
  918MOL0     H23865   9.553   3.059   4.322  0.9947  0.3656 -1.2206
  918MOL0     H23866   9.556   2.897   4.272  2.1686  0.7353  2.0457
  918MOL0     H23867   9.766   3.077   4.159 -0.7822  0.1753  0.7118
  918MOL0     H23868   9.742   2.904   4.121  2.5497  1.2811 -1.9602
  918MOL0     H23869   9.811   2.853   4.369  3.6009 -0.9331  0.7714
  918MOL0     H23870   9.805   3.029   4.398 -1.1919 -0.7666 -0.6702
  918MOL0     H23871   9.986   3.080   4.252 -0.1623  0.6326 -0.0105
  918MOL0     H23872  10.029   2.962   4.379 -0.1634  2.1726  0.8837
  918MOL0     H23873  10.002   2.772   4.241  1.8132 -0.9788 -1.4266
  918MOL0     H23874   9.968   2.874   4.100 -0.6132 -3.1524 -0.1609
  918MOL0     H23875  10.206   2.951   4.120 -0.3931  0.6475  0.2072
  918MOL0     H23876  10.223   2.847   4.271  1.3721 -2.3712 -1.3436
  918MOL0     H23877  10.199   2.656   4.173 -0.5013  1.5717  0.1083
  918MOL0     H23878  10.334   2.743   4.090  0.4859  1.0628 -1.1062
  918MOL0     H23879  10.193   2.623   3.916  3.4277  2.0444 -2.3089
  918MOL0     H23880  10.045   2.696   3.986 -0.0120  0.1321  0.4446
  918MOL0     H23881  10.405   2.810   3.847 -1.3903  0.3309  0.3457
  918MOL0     H23882  10.432   2.984   3.589 -0.8833 -0.2975 -0.3324
  918MOL0     H23883  10.328   3.135   3.601 -0.3015  0.0531 -0.0979
  918MOL0     H23884  10.409   3.142   3.837 -0.0323 -2.2281  0.5384
  918MOL0     H23885  10.558   3.072   3.779 -0.6976 -0.2256  1.1948
  918MOL0     H23886  10.448   3.343   3.682  0.5979  0.9588  0.0024
  918MOL0     H23887  10.548   3.243   3.584 -1.0200  0.2075  0.9511
  918MOL0     H23888  10.650   3.371   3.838 -0.7452 -1.0294  0.2200
  918MOL0     H23889  10.659   3.415   3.667 -5.2921 -1.0961 -3.5570
  918MOL0     H23890  10.883   3.091   3.900  2.3280 -0.8236  4.1984
  918MOL0     H23891  11.101   3.138   3.998  0.4619 -1.9490 -0.8961
  918MOL0     H23892  11.401   3.569   4.123 -0.2937 -1.4561  1.5898
  918MOL0     H23893  11.631   3.608   4.188 -2.1024 -0.3822  0.8927
  918MOL0     H23894  11.885   3.707   4.107 -0.5070 -2.1499 -3.2849
  918MOL0     H23895  11.835   3.604   4.244  0.1229  0.1395  0.0218
  918MOL0     H23896  12.063   3.606   4.301  0.2074 -1.5319  1.5346
  918MOL0     H23897  12.042   3.464   4.205 -2.5112  1.0415  0.5093
  918MOL0     H23898  12.153   3.590   4.001  2.8839  0.7133 -0.0562
  918MOL0     H23899  12.124   3.740   4.095 -0.8511  0.1865 -1.7940
  918MOL0     H23900  12.314   3.517   4.135 -1.2261  0.0212  1.0138
  918MOL0     H23901  12.310   3.646   4.259  2.6105  0.2474 -0.8674
  918MOL0     H23902  12.353   3.815   4.057 -0.3626 -0.4786 -0.6084
  918MOL0     H23903  12.373   3.681   3.955 -0.7661 -0.3518 -0.1583
  918MOL0     H23904  12.535   3.747   4.206  0.7844  0.7380  0.3176
  918MOL0     H23905  12.543   3.599   4.114 -0.4793  0.2332 -3.1717
  918MOL0     H23906  12.602   3.880   3.979  1.5953  0.9876  1.8576
  918MOL0     H23907  12.652   3.724   3.920  0.5591 -1.6001  0.1806
  918MOL0     H23908  12.801   3.691   4.124 -1.5243 -1.0002  0.1988
  918MOL0     H23909  12.845   3.818   4.016 -1.0973  3.4620 -0.9950
  918MOL0     H23910  11.774   3.403   3.842  2.8598  1.8074  1.6698
  918MOL0     H23911  11.535   3.361   3.769  1.7601  1.2999 -0.9243
  918MOL0     H23912  11.151   3.475   3.750  0.8058 -0.9984  0.8961
  918MOL0     H23913  10.924   3.451   3.665  0.6088  1.1858  1.7496
  918MOL0     H23914   9.388   2.920   3.927  1.7339 -0.4787  2.5415
  918MOL0     H23915   9.134   2.900   3.912  3.1855  0.5376 -1.9080
  918MOL0     H23916   8.749   3.041   4.301  2.1737 -0.0829 -2.2484
  918MOL0     H23917   8.511   3.050   4.333  1.5114 -0.5867 -0.3549
  918MOL0     H23918   8.297   3.175   4.326 -1.8410  2.1515  0.0923
  918MOL0     H23919   8.263   2.999   4.298  0.3930 -1.4865 -2.4527
  918MOL0     H23920   8.063   3.127   4.326 -1.3368 -0.8229  0.1147
  918MOL0     H23921   8.083   3.062   4.158 -1.6228 -0.5768  1.5307
  918MOL0     H23922   8.162   3.305   4.089 -0.0554  0.5343  0.0536
  918MOL0     H23923   8.138   3.362   4.250  1.6339 -0.4277  0.4887
  918MOL0     H23924   7.936   3.241   4.053  0.2096  1.4482 -0.7744
  918MOL0     H23925   7.895   3.290   4.219  0.6437 -1.4568 -0.3147
  918MOL0     H23926   7.899   3.655   3.998  2.0636  1.3980  0.3621
  918MOL0     H23927   8.454   3.167   3.919 -2.5245  0.4902  1.5752
  918MOL0     H23928   8.798   3.033   3.838  1.5215  1.7727 -0.1458
  918MOL0     H23929   8.662   3.120   3.765  0.6980  0.8833 -0.9907
  918MOL0     H23930   8.791   3.204   3.852 -0.2837  0.4093 -3.6901
  919MOL0     O23931   9.618   7.009   0.432 -0.4546 -0.7743  0.0460
  919MOL0     C23932   9.701   6.943   0.376  0.4814  0.1708  0.6865
  919MOL0     O23933   9.675   6.818   0.318  0.1822  0.3095 -0.1841
  919MOL0     C23934   9.564   6.737   0.344 -0.1588  0.2095 -0.3538
  919MOL0     C23935   9.550   6.641   0.244  0.7691 -0.1147 -0.0556
  919MOL0     C23936   9.436   6.546   0.257  0.0609 -0.7286  0.1214
  919MOL0     C23937   9.341   6.571   0.362  0.0172 -0.4899  0.2600
  919MOL0     O23938   9.232   6.486   0.359 -0.4955 -0.5472  0.6317
  919MOL0     C23939   9.126   6.540   0.438 -0.3537 -0.1183  0.1894
  919MOL0     C23940   9.002   6.468   0.416  0.3789 -0.6199 -0.1395
  919MOL0     C23941   8.957   6.468   0.265  0.2126  0.4143  0.1473
  919MOL0     C23942   8.812   6.412   0.261 -0.1351  0.0324  0.2767
  919MOL0     C23943   8.767   6.422   0.113  0.5594 -0.9583  0.3782
  919MOL0     C23944   8.734   6.565   0.075 -0.6023  0.0904 -0.0087
  919MOL0     C23945   8.636   6.568  -0.046 -0.4195 -0.4357 -0.7544
  919MOL0     C23946   8.588   6.712  -0.061  0.0087  0.0513 -0.5460
  919MOL0     N23947   8.692   6.813  -0.082  0.5509  0.0446  0.5815
  919MOL0     C23948   8.751   6.832  -0.205  0.4758  0.4967 -0.5870
  919MOL0     C23949   8.848   6.917  -0.177 -0.4290  0.0774 -0.6366
  919MOL0     C23950   8.960   6.966  -0.277 -0.4683  0.0286 -0.1228
  919MOL0     C23951   8.999   7.118  -0.251 -0.3004  0.2977 -0.3026
  919MOL0     C23952   9.147   7.146  -0.277 -0.3946  0.1720  0.1556
  919MOL0     C23953   9.200   7.283  -0.239 -0.0203  0.3961 -0.3530
  919MOL0     O23954   9.313   7.306  -0.326  0.3892 -0.1265  0.1868
  919MOL0     C23955   9.390   7.420  -0.305  0.2210  0.4052  0.1992
  919MOL0     C23956   9.340   7.544  -0.274  0.0427 -0.1985  0.0025
  919MOL0     C23957   9.426   7.657  -0.253 -1.1019 -0.3502  0.0866
  919MOL0     C23958   9.566   7.636  -0.263 -0.2670  0.2585  0.5715
  919MOL0     C23959   9.660   7.749  -0.262  0.4002 -0.2341  0.1139
  919MOL0     O23960   9.795   7.717  -0.249  0.2233  0.6560 -0.5515
  919MOL0     C23961   9.887   7.818  -0.225  0.2389 -0.8798  0.0736
  919MOL0     C23962  10.020   7.778  -0.258  0.5277 -0.0014 -0.4500
  919MOL0     C23963  10.125   7.873  -0.254 -0.6335  1.0454  0.0995
  919MOL0     C23964  10.101   8.005  -0.210 -0.1039 -0.0975 -0.1810
  919MOL0     O23965  10.202   8.095  -0.194  0.2614 -0.0503 -0.3655
  919MOL0     C23966  10.269   8.132  -0.321  0.7629  0.3457 -0.6947
  919MOL0     C23967  10.397   8.054  -0.333  0.4529 -0.1113 -0.1847
  919MOL0     C23968  10.489   8.083  -0.226 -0.4900 -0.2374 -0.7324
  919MOL0     C23969  10.552   8.226  -0.211 -0.6337  0.3906 -0.2218
  919MOL0     C23970  10.638   8.235  -0.083  0.0621 -0.7925 -0.4306
  919MOL0     C23971  10.714   8.365  -0.052  0.2110  0.2172 -0.5326
  919MOL0     C23972  10.770   8.359   0.086  0.4407  0.9512  0.0530
  919MOL0     C23973  10.833   8.494   0.128  0.5985  0.3604 -0.4060
  919MOL0    Cl23974  10.961   8.539   0.016  0.3795  0.1073 -0.1670
  919MOL0     C23975   9.974   8.031  -0.151  0.4382  0.9426 -0.0194
  919MOL0     C23976   9.872   7.939  -0.155 -0.2223 -0.7244 -1.0119
  919MOL0     O23977   9.615   7.865  -0.253  0.2639 -0.6034  0.2425
  919MOL0     C23978   9.616   7.510  -0.304 -0.2555 -0.2662 -0.4087
  919MOL0     C23979   9.532   7.406  -0.317 -0.0260 -0.1029  0.4295
  919MOL0     N23980   8.844   6.962  -0.052 -0.0192  0.3380  0.1032
  919MOL0     N23981   8.746   6.899   0.011 -0.3077  0.0245 -0.0006
  919MOL0     C23982   9.373   6.681   0.457  0.4946  1.0798  0.4187
  919MOL0     C23983   9.481   6.757   0.443 -0.7894 -0.3870  0.6074
  919MOL0     C23984   9.842   6.999   0.349 -0.0330  0.3599  0.0394
  919MOL0     C23985   9.863   7.132   0.327  1.3290 -1.1738 -0.1939
  919MOL0     C23986   9.991   7.182   0.314 -0.1463 -0.7928 -0.5250
  919MOL0     C23987  10.106   7.106   0.339 -0.3922  0.3509  0.1673
  919MOL0     O23988  10.231   7.152   0.342  0.2929 -0.3724 -0.1588
  919MOL0     C23989  10.266   7.290   0.353  0.6804  0.1119  0.3914
  919MOL0     C23990  10.418   7.319   0.359 -0.3717  0.6016 -0.5032
  919MOL0     C23991  10.483   7.258   0.241 -0.9902  0.1450  0.3283
  919MOL0     C23992  10.632   7.296   0.249 -0.3206  0.2636  0.4099
  919MOL0     C23993  10.698   7.235   0.135 -0.2273  0.5719  0.0235
  919MOL0     C23994  10.757   7.196   0.035  0.4388  0.1171  0.5177
  919MOL0     C23995  10.087   6.972   0.360  0.1415  0.5162 -0.4325
  919MOL0     C23996   9.956   6.912   0.356 -0.1409  1.5637  0.6306
  919MOL0     C23997   9.943   6.769   0.372 -0.2141 -0.4048 -0.1166
  919MOL0     H23998   9.624   6.627   0.166  1.8349 -1.0333  1.0894
  919MOL0     H23999   9.417   6.478   0.175 -0.3766  0.7555 -1.0438
  919MOL0     H24000   9.153   6.521   0.542  0.6495 -0.7652 -0.1793
  919MOL0     H24001   9.119   6.648   0.424  1.9525  0.0028 -0.2985
  919MOL0     H24002   8.935   6.527   0.479  1.9673  2.1367 -0.8930
  919MOL0     H24003   9.009   6.367   0.457  3.5502 -2.4518 -4.3947
  919MOL0     H24004   9.024   6.398   0.214  1.3780 -0.1954  2.3854
  919MOL0     H24005   8.972   6.566   0.218  0.5437  0.1036 -0.4063
  919MOL0     H24006   8.820   6.308   0.295  0.9118 -0.0535 -0.1714
  919MOL0     H24007   8.741   6.453   0.332 -3.6665 -2.1976 -1.6490
  919MOL0     H24008   8.838   6.373   0.046 -1.1160 -3.4967  0.3520
  919MOL0     H24009   8.676   6.362   0.114  0.9909 -1.6254  2.2665
  919MOL0     H24010   8.696   6.626   0.157  1.8021  1.1286  0.4357
  919MOL0     H24011   8.819   6.626   0.041 -1.9697  3.0882  1.5490
  919MOL0     H24012   8.551   6.499  -0.046  1.1571 -2.5047  0.9343
  919MOL0     H24013   8.683   6.536  -0.139 -1.6255  0.3139 -1.6538
  919MOL0     H24014   8.519   6.707  -0.146 -3.0630  2.2428  1.5782
  919MOL0     H24015   8.524   6.749   0.020 -1.2125 -2.1368 -0.4176
  919MOL0     H24016   8.740   6.784  -0.302  1.1245  0.6129 -0.7273
  919MOL0     H24017   9.043   6.898  -0.254  0.3966  0.9793 -0.3713
  919MOL0     H24018   8.943   6.960  -0.385  1.1960  2.0136 -0.5597
  919MOL0     H24019   8.939   7.181  -0.317 -1.6754 -1.4417 -0.7645
  919MOL0     H24020   8.969   7.143  -0.149  0.8114 -0.3465  0.2023
  919MOL0     H24021   9.170   7.136  -0.384 -1.1402  2.3837 -0.2558
  919MOL0     H24022   9.196   7.060  -0.231 -2.0027 -0.7724  0.2134
  919MOL0     H24023   9.236   7.280  -0.136  2.2085  1.7139 -1.0427
  919MOL0     H24024   9.120   7.357  -0.253 -2.6880 -2.2793 -0.5033
  919MOL0     H24025   9.233   7.558  -0.260 -0.3573  1.2271 -3.3905
  919MOL0     H24026   9.389   7.758  -0.243 -2.7415 -1.0283  1.4855
  919MOL0     H24027  10.039   7.681  -0.302 -0.4567  0.1534 -1.2444
  919MOL0     H24028  10.221   7.837  -0.289 -0.2717  0.4604  1.5898
  919MOL0     H24029  10.202   8.109  -0.405 -2.2733 -0.2997  1.6995
  919MOL0     H24030  10.293   8.238  -0.334 -0.1281  0.6856  0.2581
  919MOL0     H24031  10.374   7.947  -0.341 -1.6339  0.3041 -0.1073
  919MOL0     H24032  10.449   8.076  -0.426  0.5824  0.7914  0.0932
  919MOL0     H24033  10.443   8.067  -0.128 -0.5432 -0.1791 -0.7469
  919MOL0     H24034  10.579   8.021  -0.235 -0.2170  0.0930 -0.3333
  919MOL0     H24035  10.483   8.311  -0.209  0.0467  0.9513  1.3591
  919MOL0     H24036  10.618   8.245  -0.296  2.1819 -0.6880  1.5463
  919MOL0     H24037  10.720   8.163  -0.094  2.7778  1.5948  2.1185
  919MOL0     H24038  10.585   8.207   0.009  1.1463 -2.0281 -0.1389
  919MOL0     H24039  10.786   8.396  -0.129  1.0366  1.1111  0.5651
  919MOL0     H24040  10.639   8.445  -0.045 -2.0828 -1.6596 -2.1941
  919MOL0     H24041  10.850   8.284   0.089  0.4181  0.9235 -0.0335
  919MOL0     H24042  10.700   8.337   0.167  0.7623 -1.4834 -0.2679
  919MOL0     H24043  10.754   8.570   0.124  0.9696  0.8640  1.0848
  919MOL0     H24044  10.880   8.489   0.227 -0.6971  1.6767  0.3219
  919MOL0     H24045   9.953   8.129  -0.111 -0.9068  0.4053  0.6366
  919MOL0     H24046   9.777   7.976  -0.118 -1.5510 -2.0096 -2.9226
  919MOL0     H24047   9.722   7.490  -0.320  0.1824 -1.5748  3.1453
  919MOL0     H24048   9.574   7.308  -0.332  1.0008  0.0540  2.0939
  919MOL0     H24049   9.307   6.698   0.542 -0.8126 -3.2428  0.5160
  919MOL0     H24050   9.503   6.829   0.521  3.0301  2.8653 -3.0347
  919MOL0     H24051   9.774   7.194   0.326  2.1580  0.0672  0.1744
  919MOL0     H24052  10.014   7.287   0.303  0.1236 -0.5279  1.9712
  919MOL0     H24053  10.218   7.311   0.449 -0.2567 -0.6419  0.1066
  919MOL0     H24054  10.226   7.346   0.268  1.6872  2.1026  1.1678
  919MOL0     H24055  10.460   7.287   0.455  0.1406 -0.6464 -1.1129
  919MOL0     H24056  10.425   7.427   0.345 -0.2165  0.4535 -1.6167
  919MOL0     H24057  10.440   7.305   0.152  0.3557  1.7129  0.4518
  919MOL0     H24058  10.478   7.149   0.237  0.0711  0.0634  0.8699
  919MOL0     H24059  10.642   7.405   0.246 -2.8640  0.5476 -2.1275
  919MOL0     H24060  10.681   7.251   0.336 -0.1537 -0.0384  0.1581
  919MOL0     H24061  10.820   7.161  -0.044 -0.4813 -1.0978  0.2957
  919MOL0     H24062  10.172   6.907   0.381 -0.8503 -0.5420  0.4195
  919MOL0     H24063   9.899   6.749   0.470 -1.9505  3.3615  0.0289
  919MOL0     H24064   9.875   6.718   0.305 -0.0325  0.4890 -0.9974
  919MOL0     H24065  10.036   6.712   0.361 -0.6907 -0.9252 -1.5673
  920MOL0     O24066   4.292   0.497   1.704  0.0415 -0.9333  0.1851
  920MOL0     C24067   4.295   0.619   1.722 -1.0758 -0.5590 -0.4691
  920MOL0     O24068   4.393   0.704   1.690 -0.4637 -0.1166  0.3901
  920MOL0     C24069   4.519   0.656   1.664  0.2128 -0.3139 -0.2103
  920MOL0     C24070   4.557   0.573   1.559 -0.4662 -0.7010  0.6352
  920MOL0     C24071   4.686   0.517   1.540 -0.5030  0.0255 -0.0475
  920MOL0     C24072   4.786   0.547   1.638  0.5543 -0.4038  0.5896
  920MOL0     O24073   4.906   0.489   1.632 -0.4619 -0.0338 -0.4875
  920MOL0     C24074   4.990   0.508   1.516  0.2054  0.6320 -0.2546
  920MOL0     C24075   5.094   0.405   1.495  0.3863 -0.0010  0.2497
  920MOL0     C24076   5.199   0.446   1.394  0.7815 -0.6972 -0.5469
  920MOL0     C24077   5.319   0.354   1.406  0.9942 -0.0936 -0.2026
  920MOL0     C24078   5.419   0.375   1.287 -0.2033 -0.0693 -0.9775
  920MOL0     C24079   5.501   0.499   1.301 -0.1046  0.3741  0.2362
  920MOL0     C24080   5.427   0.632   1.290  0.0911  0.6720  0.1030
  920MOL0     C24081   5.513   0.744   1.245  0.3713 -0.4435 -0.1214
  920MOL0     N24082   5.644   0.743   1.315  0.1312 -0.2046 -0.1848
  920MOL0     C24083   5.753   0.680   1.275 -0.1173  0.2302  0.6742
  920MOL0     C24084   5.858   0.733   1.350  0.1121  0.2340 -0.1688
  920MOL0     C24085   6.002   0.690   1.344  0.0355 -1.1982 -0.0358
  920MOL0     C24086   6.004   0.532   1.365 -0.2666  0.1671 -0.8171
  920MOL0     C24087   6.138   0.474   1.431  0.9145 -0.5657  0.6462
  920MOL0     C24088   6.260   0.521   1.354 -0.1402 -0.2567 -0.7577
  920MOL0     O24089   6.375   0.485   1.433  0.0883 -0.5795 -0.0642
  920MOL0     C24090   6.495   0.530   1.390 -0.0978 -0.1648  0.2104
  920MOL0     C24091   6.600   0.522   1.477 -0.6091 -0.6185 -0.2828
  920MOL0     C24092   6.732   0.569   1.446 -0.3305 -1.0830  0.2368
  920MOL0     C24093   6.760   0.614   1.313  0.5639  0.6485  0.9348
  920MOL0     C24094   6.893   0.655   1.258 -0.3960 -0.2360 -0.0082
  920MOL0     O24095   6.997   0.635   1.337 -0.6385 -0.3283 -0.2087
  920MOL0     C24096   7.114   0.655   1.281 -0.3820  0.6114  0.1925
  920MOL0     C24097   7.178   0.550   1.211  0.3427 -0.7196  0.8924
  920MOL0     C24098   7.297   0.579   1.155  0.3530 -1.2003 -0.0126
  920MOL0     C24099   7.362   0.705   1.156  0.9545 -0.2278 -0.1715
  920MOL0     O24100   7.477   0.712   1.076  0.1212 -0.5397 -0.8940
  920MOL0     C24101   7.579   0.794   1.139  0.4991 -0.3627  0.9070
  920MOL0     C24102   7.719   0.782   1.085  0.0229  0.5584  0.1173
  920MOL0     C24103   7.822   0.864   1.160  0.2184  0.0119  0.1217
  920MOL0     C24104   7.942   0.889   1.067 -0.6561 -0.1423  0.3755
  920MOL0     C24105   8.026   1.006   1.136 -0.2434 -0.2814 -0.3589
  920MOL0     C24106   8.153   1.023   1.049  1.0861  0.2705  0.5478
  920MOL0     C24107   8.243   1.136   1.093  0.4201  0.0363  0.6004
  920MOL0     C24108   8.376   1.161   1.015  0.8860 -0.4593 -0.2224
  920MOL0    Cl24109   8.480   1.022   1.011 -0.2643 -0.2131 -0.0514
  920MOL0     C24110   7.293   0.807   1.227 -0.0841 -0.6592  0.1845
  920MOL0     C24111   7.176   0.781   1.298 -0.0412  0.7996  0.3150
  920MOL0     O24112   6.896   0.695   1.139  0.0493 -0.7180 -0.7367
  920MOL0     C24113   6.655   0.613   1.221 -0.3806  0.5904  0.1498
  920MOL0     C24114   6.522   0.579   1.261 -0.3708  0.2122 -0.4541
  920MOL0     N24115   5.794   0.815   1.450 -0.5133  0.2939 -0.0740
  920MOL0     N24116   5.668   0.814   1.432 -0.2710  0.0146  0.1721
  920MOL0     C24117   4.747   0.612   1.754 -0.4956  0.7929 -0.1877
  920MOL0     C24118   4.624   0.686   1.757  0.1515  0.1602 -0.8385
  920MOL0     C24119   4.195   0.694   1.811  0.0833  0.1686  0.0664
  920MOL0     C24120   4.182   0.836   1.790 -0.0334  0.3284 -0.1536
  920MOL0     C24121   4.085   0.904   1.856 -0.6960  0.2924 -0.2639
  920MOL0     C24122   3.998   0.848   1.949 -0.0853 -0.2640 -0.1125
  920MOL0     O24123   3.898   0.926   2.025 -0.3147  0.1070 -0.9830
  920MOL0     C24124   3.895   1.071   2.007  0.6333 -0.0890  0.1707
  920MOL0     C24125   3.790   1.118   2.104 -0.3440  0.3070  0.1547
  920MOL0     C24126   3.644   1.063   2.104 -0.4536 -0.3043  0.4081
  920MOL0     C24127   3.579   1.023   1.970  0.3195 -0.0086 -0.1222
  920MOL0     C24128   3.431   1.044   1.986 -0.5048  0.4960  0.1463
  920MOL0     C24129   3.311   1.062   1.992  0.2947 -0.1744  0.5110
  920MOL0     C24130   4.021   0.707   1.972  0.2737 -0.2404 -0.4601
  920MOL0     C24131   4.120   0.636   1.917  0.4205 -0.3023  0.5276
  920MOL0     C24132   4.133   0.492   1.969 -0.2880 -0.2186  0.6803
  920MOL0     H24133   4.483   0.535   1.489  3.0271 -3.0790 -2.1581
  920MOL0     H24134   4.705   0.453   1.455  2.5228  0.9439 -0.2031
  920MOL0     H24135   4.940   0.516   1.420  1.6128 -1.0264 -1.1729
  920MOL0     H24136   5.055   0.593   1.539 -0.5498  1.1445  0.0386
  920MOL0     H24137   5.051   0.312   1.457  0.0959  1.6426 -3.9618
  920MOL0     H24138   5.151   0.388   1.587  0.2464  1.7153  0.6945
  920MOL0     H24139   5.221   0.553   1.401 -1.5597 -0.1066 -1.0722
  920MOL0     H24140   5.157   0.447   1.292 -0.3644  3.0135 -0.2059
  920MOL0     H24141   5.369   0.366   1.503 -2.2690 -0.2386  1.6772
  920MOL0     H24142   5.281   0.252   1.397  0.9101 -0.0427 -0.4317
  920MOL0     H24143   5.488   0.290   1.287 -2.0040 -1.6147 -0.1149
  920MOL0     H24144   5.357   0.382   1.197 -1.0870  0.1027 -0.3740
  920MOL0     H24145   5.556   0.500   1.396  1.9274  0.4547 -0.8738
  920MOL0     H24146   5.569   0.488   1.216  0.0115 -0.0087  0.3786
  920MOL0     H24147   5.393   0.659   1.390  1.8199 -1.0224  1.2059
  920MOL0     H24148   5.336   0.613   1.231  0.7153 -2.6502  0.0283
  920MOL0     H24149   5.511   0.753   1.136 -1.2897  0.3470 -0.0444
  920MOL0     H24150   5.473   0.840   1.280  0.0153 -0.2160 -1.1204
  920MOL0     H24151   5.758   0.604   1.198  0.9395  1.8412 -0.9401
  920MOL0     H24152   6.048   0.722   1.250  0.1894  0.0471  0.4453
  920MOL0     H24153   6.060   0.736   1.425  3.0640 -2.5587 -1.2551
  920MOL0     H24154   5.914   0.500   1.420  1.2088 -0.3080  1.4904
  920MOL0     H24155   5.996   0.475   1.272  0.0599 -1.5582  0.1591
  920MOL0     H24156   6.136   0.365   1.443 -0.9925 -1.0331 -2.5644
  920MOL0     H24157   6.153   0.526   1.526  0.5120  4.7557 -1.8210
  920MOL0     H24158   6.259   0.628   1.329 -1.6491  0.2244  1.1513
  920MOL0     H24159   6.265   0.470   1.258  1.8591  0.5653 -1.1416
  920MOL0     H24160   6.583   0.479   1.575  2.6125 -0.2402  0.5616
  920MOL0     H24161   6.807   0.557   1.524 -0.9208 -0.8597  0.8556
  920MOL0     H24162   7.139   0.450   1.225 -3.5250  0.5440  0.3657
  920MOL0     H24163   7.356   0.512   1.093 -0.5538  0.7181 -3.2085
  920MOL0     H24164   7.545   0.897   1.123  2.5315  0.2014 -0.1104
  920MOL0     H24165   7.582   0.779   1.248  0.7719 -1.2484  0.7848
  920MOL0     H24166   7.752   0.677   1.084 -0.2020  0.2740 -5.3685
  920MOL0     H24167   7.724   0.804   0.978 -2.3262 -0.4479 -0.2662
  920MOL0     H24168   7.776   0.960   1.185 -0.2749 -0.4889  1.1965
  920MOL0     H24169   7.842   0.821   1.258 -0.7007  3.3072  1.8901
  920MOL0     H24170   7.908   0.911   0.966  0.7375 -1.1839 -0.3564
  920MOL0     H24171   8.005   0.800   1.062 -1.0675 -0.4245  0.2649
  920MOL0     H24172   8.038   0.979   1.241  0.0597 -1.3319 -0.6495
  920MOL0     H24173   7.969   1.099   1.144  3.0520  1.9133 -0.0838
  920MOL0     H24174   8.209   0.930   1.059 -0.3059 -0.5953  0.5132
  920MOL0     H24175   8.132   1.034   0.942  1.1479 -0.7228  0.4299
  920MOL0     H24176   8.263   1.125   1.200  1.9412  0.1050  0.3455
  920MOL0     H24177   8.186   1.229   1.083  1.3139  0.6313  0.9596
  920MOL0     H24178   8.357   1.198   0.914  0.0575  0.6167  0.2978
  920MOL0     H24179   8.427   1.248   1.057  1.0242 -0.5689 -0.1653
  920MOL0     H24180   7.330   0.907   1.244 -1.9998  0.0469  0.5273
  920MOL0     H24181   7.125   0.858   1.354 -2.8512 -0.9513  0.3323
  920MOL0     H24182   6.676   0.639   1.117  0.8731 -0.7273  0.0360
  920MOL0     H24183   6.444   0.571   1.186 -3.2730  1.4327  2.2482
  920MOL0     H24184   4.810   0.618   1.842 -1.3265  3.9614  0.3197
  920MOL0     H24185   4.615   0.756   1.840  1.0505 -0.9910  0.2682
  920MOL0     H24186   4.237   0.899   1.720 -1.7941  2.9516  0.6931
  920MOL0     H24187   4.062   1.008   1.834  0.9863  0.1781 -3.1694
  920MOL0     H24188   3.866   1.100   1.906  1.9754  1.2700  0.1353
  920MOL0     H24189   3.994   1.107   2.040  0.2723  1.9483 -0.7883
  920MOL0     H24190   3.791   1.226   2.091  1.2993  0.0386 -2.7734
  920MOL0     H24191   3.828   1.103   2.206  0.5168 -1.5774 -0.3919
  920MOL0     H24192   3.580   1.139   2.149 -0.3877  0.2923 -0.4893
  920MOL0     H24193   3.638   0.983   2.179  0.8894  0.0955  0.9764
  920MOL0     H24194   3.615   1.083   1.886  0.3892 -1.5579 -1.2317
  920MOL0     H24195   3.610   0.923   1.940 -0.6527 -0.2952 -0.2273
  920MOL0     H24196   3.206   1.073   1.976  0.0433 -2.3424  0.2924
  920MOL0     H24197   3.947   0.664   2.039  0.5670 -1.0359 -0.6461
  920MOL0     H24198   4.059   0.426   1.923 -0.8390  0.8344  0.0345
  920MOL0     H24199   4.236   0.457   1.959 -0.5268 -0.9978  0.8931
  920MOL0     H24200   4.120   0.483   2.077  1.4330  0.1625  0.9453
  921MOL0     O24201   2.525  10.714   9.028 -1.4776 -0.3085 -0.2933
  921MOL0     C24202   2.427  10.782   8.998 -0.8360 -0.6046  0.2384
  921MOL0     O24203   2.417  10.878   8.900 -0.3967  0.8963 -0.0206
  921MOL0     C24204   2.529  10.914   8.834  1.1131 -0.1962 -0.1454
  921MOL0     C24205   2.571  10.852   8.720 -0.4905 -0.4357  0.1011
  921MOL0     C24206   2.685  10.904   8.652 -0.9160 -0.6089  0.6852
  921MOL0     C24207   2.758  10.998   8.703  0.7170  0.0795  0.2602
  921MOL0     O24208   2.857  11.069   8.638 -0.0380 -0.2369  0.2147
  921MOL0     C24209   2.947  11.014   8.540 -0.2555  0.0642  0.0182
  921MOL0     C24210   3.054  11.118   8.519  0.5182 -0.0855  0.2238
  921MOL0     C24211   3.169  11.060   8.435 -0.1069 -0.5157 -0.8538
  921MOL0     C24212   3.285  11.165   8.407  0.7183 -0.1602  0.1115
  921MOL0     C24213   3.413  11.124   8.339  0.3876 -0.5901 -0.4664
  921MOL0     C24214   3.412  11.073   8.196  0.5482 -0.0147  0.1521
  921MOL0     C24215   3.553  11.028   8.146 -0.2344 -0.3011 -0.9517
  921MOL0     C24216   3.556  10.974   8.001  0.0442  0.8782 -0.3750
  921MOL0     N24217   3.681  10.916   7.950  0.6093 -0.4268 -0.3739
  921MOL0     C24218   3.772  10.847   8.025 -0.6056  0.2471  0.2084
  921MOL0     C24219   3.868  10.804   7.929 -0.2562  0.5624  0.2320
  921MOL0     C24220   3.989  10.716   7.956  0.3119  0.7609 -0.2548
  921MOL0     C24221   4.101  10.803   8.008 -0.4090 -0.1438  0.1108
  921MOL0     C24222   4.237  10.729   7.990  0.3289 -0.6618 -0.1679
  921MOL0     C24223   4.359  10.827   8.000  1.1194  1.3102  0.4049
  921MOL0     O24224   4.381  10.864   8.135  0.1353  0.2085  0.7195
  921MOL0     C24225   4.513  10.898   8.172 -0.2706  0.3344  0.3322
  921MOL0     C24226   4.526  11.016   8.252  0.1290  1.0690 -0.0065
  921MOL0     C24227   4.652  11.040   8.305 -0.1559  0.3027 -0.1205
  921MOL0     C24228   4.775  10.970   8.286 -0.2204  0.4451 -0.4055
  921MOL0     C24229   4.893  11.002   8.357  0.2984  0.0222  0.1534
  921MOL0     O24230   4.988  10.913   8.372  0.1383  0.1453 -0.2347
  921MOL0     C24231   5.091  10.942   8.458 -0.2221  0.5623 -0.3337
  921MOL0     C24232   5.082  10.947   8.600 -0.2257  0.4746 -0.1960
  921MOL0     C24233   5.194  10.978   8.681 -0.8809  0.0796 -0.5741
  921MOL0     C24234   5.322  10.997   8.622  0.8123 -0.1419  0.1085
  921MOL0     O24235   5.425  11.025   8.706  0.1527 -0.0273  0.2310
  921MOL0     C24236   5.555  11.036   8.645 -0.0179 -0.4255  0.5891
  921MOL0     C24237   5.664  11.057   8.763 -0.3545 -0.6691  0.4133
  921MOL0     C24238   5.688  10.923   8.832  0.3319 -0.1173  0.3029
  921MOL0     C24239   5.763  10.826   8.751  0.0065 -0.7269 -0.0747
  921MOL0     C24240   5.745  10.679   8.808  0.3788  0.3168  0.3668
  921MOL0     C24241   5.777  10.661   8.951 -0.4132 -0.3823 -0.0355
  921MOL0     C24242   5.732  10.518   8.983 -0.5139 -0.9233  0.6162
  921MOL0     C24243   5.768  10.487   9.127 -0.3670  0.5602 -0.6076
  921MOL0    Cl24244   5.938  10.515   9.176  0.1890 -0.2518 -0.0460
  921MOL0     C24245   5.333  10.964   8.487  0.3623  0.2206  0.6202
  921MOL0     C24246   5.216  10.934   8.408  0.3676  0.3968  0.3889
  921MOL0     O24247   4.904  11.122   8.388 -0.5567  0.3627 -1.0257
  921MOL0     C24248   4.762  10.866   8.187  0.2836 -0.4717 -0.3784
  921MOL0     C24249   4.634  10.824   8.137 -0.0620  0.5602  0.2440
  921MOL0     N24250   3.823  10.842   7.801 -0.1122  0.2176 -0.2714
  921MOL0     N24251   3.713  10.915   7.813 -0.3526 -0.4371  0.5515
  921MOL0     C24252   2.728  11.054   8.829 -0.8441 -0.6543 -0.2156
  921MOL0     C24253   2.615  11.012   8.896 -0.3991  0.0092 -0.0007
  921MOL0     C24254   2.297  10.734   9.056 -0.1993 -0.3750  0.2311
  921MOL0     C24255   2.173  10.745   8.986  0.2428  0.2802  0.0337
  921MOL0     C24256   2.054  10.691   9.034 -0.5983 -0.4141 -1.0103
  921MOL0     C24257   2.049  10.627   9.164  0.9766 -0.7314 -0.4536
  921MOL0     O24258   1.931  10.595   9.226  0.7939  0.5626  0.0031
  921MOL0     C24259   1.800  10.622   9.165 -0.4708  0.4388  0.7835
  921MOL0     C24260   1.708  10.633   9.292 -0.2326  0.0374  1.2037
  921MOL0     C24261   1.579  10.692   9.234  0.5071 -0.3737  0.2021
  921MOL0     C24262   1.488  10.758   9.341  0.6269 -0.1170 -1.1631
  921MOL0     C24263   1.500  10.903   9.328  0.2053 -0.5906 -0.1477
  921MOL0     C24264   1.518  11.023   9.306 -0.3826 -0.0389 -0.1815
  921MOL0     C24265   2.175  10.604   9.222 -0.5064 -0.2321  0.4571
  921MOL0     C24266   2.295  10.651   9.174 -0.0704 -0.3087  0.3806
  921MOL0     C24267   2.420  10.619   9.258  0.2770 -0.5508 -0.5797
  921MOL0     H24268   2.512  10.770   8.680  3.4207 -2.8195 -1.3506
  921MOL0     H24269   2.714  10.885   8.549  1.6310  4.2134  0.2513
  921MOL0     H24270   2.992  10.920   8.573 -1.2987 -0.3522  0.2890
  921MOL0     H24271   2.892  10.978   8.453  0.7036 -1.4540  0.0047
  921MOL0     H24272   3.096  11.156   8.612  2.7457 -0.9660 -0.3459
  921MOL0     H24273   3.008  11.207   8.474  1.0767 -0.0404 -0.2729
  921MOL0     H24274   3.131  11.007   8.348  0.9309 -1.2876 -0.8530
  921MOL0     H24275   3.196  10.982   8.507 -0.7665  2.1443  2.5305
  921MOL0     H24276   3.240  11.248   8.352 -1.4783 -1.0781  0.3991
  921MOL0     H24277   3.311  11.197   8.508  1.4225 -0.0489 -0.1007
  921MOL0     H24278   3.460  11.221   8.355  0.1791 -0.5873  0.1242
  921MOL0     H24279   3.467  11.057   8.407 -1.0210 -0.7006  0.5649
  921MOL0     H24280   3.350  10.983   8.200 -2.3979  1.9552  3.0329
  921MOL0     H24281   3.362  11.135   8.121  0.9735  0.4786  0.2716
  921MOL0     H24282   3.606  10.964   8.217 -1.7267 -0.0378  0.4607
  921MOL0     H24283   3.608  11.123   8.145  1.0335 -0.9922 -2.5560
  921MOL0     H24284   3.476  10.900   7.990  0.0228  0.5072  1.8070
  921MOL0     H24285   3.528  11.063   7.945  3.2066  1.1737 -1.6967
  921MOL0     H24286   3.772  10.828   8.132  1.4808 -0.0454  0.2038
  921MOL0     H24287   3.970  10.636   8.028  1.7388  2.2734  1.9352
  921MOL0     H24288   4.014  10.667   7.862 -0.4446 -2.6995  1.1787
  921MOL0     H24289   4.105  10.896   7.951 -1.2984  0.5963  1.2069
  921MOL0     H24290   4.090  10.814   8.117  1.0739 -1.6983  0.4627
  921MOL0     H24291   4.241  10.706   7.883 -2.9804 -1.9137 -0.1539
  921MOL0     H24292   4.252  10.643   8.056  2.7013  1.3397  2.0774
  921MOL0     H24293   4.352  10.920   7.942 -3.2906  1.5556  0.9649
  921MOL0     H24294   4.448  10.776   7.962  1.2514  2.7437 -1.3499
  921MOL0     H24295   4.443  11.074   8.293  0.3438 -0.1217  2.3091
  921MOL0     H24296   4.654  11.119   8.380  1.1038  1.4617 -1.3331
  921MOL0     H24297   4.983  10.922   8.637 -0.3171  1.2547  0.0972
  921MOL0     H24298   5.180  10.984   8.788  1.2488  1.0173 -0.2960
  921MOL0     H24299   5.584  10.949   8.585 -1.4731  0.6008 -1.7310
  921MOL0     H24300   5.552  11.124   8.580 -1.3845 -0.4610  0.5722
  921MOL0     H24301   5.758  11.093   8.721 -1.4956  1.2328 -0.6456
  921MOL0     H24302   5.618  11.132   8.829 -2.8968 -1.4680 -0.3249
  921MOL0     H24303   5.754  10.935   8.918 -0.1762  2.0261  0.4456
  921MOL0     H24304   5.594  10.883   8.871  1.1666 -1.5500  0.9665
  921MOL0     H24305   5.870  10.849   8.757  0.2341 -1.5985 -0.5735
  921MOL0     H24306   5.752  10.826   8.642 -2.1274  0.5002  0.0936
  921MOL0     H24307   5.799  10.608   8.745 -1.0408 -1.6468  1.2377
  921MOL0     H24308   5.637  10.664   8.794  0.4115  1.5975 -1.6159
  921MOL0     H24309   5.886  10.669   8.953 -0.2325 -2.0232 -1.2359
  921MOL0     H24310   5.734  10.735   9.019  1.7917  1.4006 -0.4404
  921MOL0     H24311   5.784  10.446   8.918 -0.4975 -0.3846  0.0240
  921MOL0     H24312   5.625  10.503   8.969 -0.9301  1.2254  1.1406
  921MOL0     H24313   5.697  10.536   9.195 -0.6227 -1.9888  1.1046
  921MOL0     H24314   5.742  10.381   9.134 -0.2679  0.6379  1.4977
  921MOL0     H24315   5.425  10.944   8.433 -1.6647 -3.8443 -1.8698
  921MOL0     H24316   5.220  10.890   8.309  3.3769  0.3722  0.4433
  921MOL0     H24317   4.846  10.805   8.156  0.5076 -0.6828  0.6062
  921MOL0     H24318   4.619  10.728   8.088  0.9060  0.9766 -0.9108
  921MOL0     H24319   2.788  11.135   8.871  1.7488 -3.0214  0.9708
  921MOL0     H24320   2.590  11.063   8.989 -0.2346 -2.4873  1.5088
  921MOL0     H24321   2.181  10.812   8.901  0.8277 -0.6461 -0.6616
  921MOL0     H24322   1.956  10.689   8.988 -1.0404  2.6447 -0.3735
  921MOL0     H24323   1.773  10.539   9.099  1.9871 -0.2894  0.5741
  921MOL0     H24324   1.799  10.720   9.118  1.1749  1.5734  2.9373
  921MOL0     H24325   1.752  10.702   9.365  0.9861  1.4616 -0.7811
  921MOL0     H24326   1.695  10.535   9.339  0.2222 -0.6214 -0.0123
  921MOL0     H24327   1.522  10.610   9.191 -3.0139  1.6480  0.5878
  921MOL0     H24328   1.597  10.755   9.146 -2.3206 -1.3243 -1.1909
  921MOL0     H24329   1.384  10.731   9.320  0.4855 -0.8391  0.3099
  921MOL0     H24330   1.520  10.736   9.444  1.3035  2.4761 -0.7356
  921MOL0     H24331   1.554  11.120   9.277 -1.5752  0.8882  1.2883
  921MOL0     H24332   2.177  10.567   9.324 -0.0246 -1.5390 -0.0110
  921MOL0     H24333   2.400  10.558   9.346 -1.6114  0.3528 -0.3326
  921MOL0     H24334   2.487  10.547   9.209  0.3171 -0.6292 -0.4109
  921MOL0     H24335   2.465  10.716   9.280 -0.3843 -0.2413 -0.5923
  922MOL0     O24336   1.003  10.861   8.056 -0.7263  0.5447  0.1531
  922MOL0     C24337   0.961  10.830   7.944  0.1099  0.2618  0.1004
  922MOL0     O24338   1.033  10.833   7.825 -0.1004 -0.0846 -0.1515
  922MOL0     C24339   1.090  10.953   7.810  0.4667  0.4539 -0.1296
  922MOL0     C24340   1.214  10.984   7.866 -0.3222 -0.5246  0.6196
  922MOL0     C24341   1.267  11.111   7.846 -0.6176 -0.9193 -0.4827
  922MOL0     C24342   1.196  11.212   7.783 -0.6918  0.0644  0.7462
  922MOL0     O24343   1.241  11.338   7.771 -0.3193  0.4345  0.1187
  922MOL0     C24344   1.385  11.348   7.742 -0.2810 -0.7312  0.2092
  922MOL0     C24345   1.467  11.399   7.867 -0.1786 -0.0519  0.5988
  922MOL0     C24346   1.620  11.412   7.840  1.1559 -0.0766  0.1446
  922MOL0     C24347   1.664  11.513   7.938 -0.6379  0.8590 -0.4914
  922MOL0     C24348   1.815  11.527   7.969  0.1350  0.1857 -0.5784
  922MOL0     C24349   1.879  11.422   8.073 -0.0758 -0.1049 -0.0433
  922MOL0     C24350   2.030  11.443   8.075  0.1426  0.5068 -0.5363
  922MOL0     C24351   2.100  11.312   8.097 -0.4491  0.7370  0.3402
  922MOL0     N24352   2.239  11.342   8.149 -0.5373 -0.1144 -0.1660
  922MOL0     C24353   2.260  11.364   8.281 -0.3282 -1.0800  0.0388
  922MOL0     C24354   2.394  11.358   8.308 -0.3416 -0.6560 -0.1321
  922MOL0     C24355   2.459  11.340   8.447  0.2455  0.6178 -0.1868
  922MOL0     C24356   2.497  11.187   8.486  0.5075 -0.4091  0.3772
  922MOL0     C24357   2.369  11.114   8.534  0.6158  0.4540  1.0150
  922MOL0     C24358   2.304  11.036   8.417 -0.3689 -0.4851 -0.3350
  922MOL0     O24359   2.184  10.975   8.460  0.4178  0.3734 -0.1819
  922MOL0     C24360   2.077  11.020   8.391  0.9621 -1.0873 -0.4624
  922MOL0     C24361   2.045  10.995   8.264 -0.0269 -0.9388  0.8927
  922MOL0     C24362   1.920  11.030   8.205  0.4331  0.6305 -0.1059
  922MOL0     C24363   1.822  11.097   8.281  0.4471 -0.9205  1.1798
  922MOL0     C24364   1.688  11.128   8.218  0.0094 -0.4420  0.2356
  922MOL0     O24365   1.617  11.229   8.285 -0.8016 -0.0871 -0.1647
  922MOL0     C24366   1.486  11.256   8.249  0.2658  0.1979 -0.3682
  922MOL0     C24367   1.400  11.152   8.206 -0.1248 -0.2760 -1.0065
  922MOL0     C24368   1.272  11.179   8.157 -0.0488 -0.5862  0.3742
  922MOL0     C24369   1.228  11.310   8.141  0.4127  0.2674 -0.2401
  922MOL0     O24370   1.102  11.335   8.098 -0.1508  0.1464 -0.0645
  922MOL0     C24371   1.006  11.230   8.127 -0.6147 -0.2553 -0.0587
  922MOL0     C24372   0.868  11.291   8.101  0.2644  0.0998 -0.5455
  922MOL0     C24373   0.817  11.378   8.219 -0.9296  0.0732 -0.6498
  922MOL0     C24374   0.679  11.426   8.209 -0.4086  0.7210  0.6159
  922MOL0     C24375   0.635  11.506   8.332 -0.5820  0.9361 -0.2287
  922MOL0     C24376   0.501  11.585   8.295 -0.8453 -0.4994 -0.4437
  922MOL0     C24377   0.400  11.490   8.227 -0.4267 -0.1896 -0.1400
  922MOL0     C24378   0.265  11.561   8.235  0.7085  0.5871 -0.4314
  922MOL0    Cl24379   0.137  11.471   8.174 -0.2107  0.3048 -0.2711
  922MOL0     C24380   1.306  11.415   8.198  0.5883  1.2639 -0.1634
  922MOL0     C24381   1.437  11.388   8.238 -0.9949 -0.1262 -0.3730
  922MOL0     O24382   1.655  11.070   8.117 -0.1419 -0.5997  0.4700
  922MOL0     C24383   1.850  11.142   8.415 -0.5746  0.4309  0.3593
  922MOL0     C24384   1.982  11.105   8.463 -1.3753  0.3404 -0.3161
  922MOL0     N24385   2.465  11.336   8.189  0.7319 -0.2694 -0.2173
  922MOL0     N24386   2.369  11.327   8.098  1.0468  0.2720  0.1235
  922MOL0     C24387   1.068  11.191   7.730 -0.8414  0.4476  0.2782
  922MOL0     C24388   1.017  11.055   7.743  0.1613 -0.4585 -0.1678
  922MOL0     C24389   0.825  10.761   7.955  0.5371 -0.1043 -0.3155
  922MOL0     C24390   0.719  10.833   8.017  0.0427  0.4305  0.1757
  922MOL0     C24391   0.593  10.773   8.026 -0.4975  0.4731  0.4475
  922MOL0     C24392   0.564  10.646   7.972  0.3145 -0.6896  1.0960
  922MOL0     O24393   0.436  10.599   7.953 -0.3278 -0.1826  1.1040
  922MOL0     C24394   0.337  10.641   8.045  0.2858  0.1773  0.0997
  922MOL0     C24395   0.238  10.521   8.049 -0.8883  0.0702 -0.0720
  922MOL0     C24396   0.105  10.574   8.056  0.6274  0.4918  0.0379
  922MOL0     C24397   0.004  10.449   8.074  0.3663  0.7148 -0.2747
  922MOL0     C24398  -0.141  10.506   8.086  0.3124 -0.0402  1.1052
  922MOL0     C24399  -0.254  10.545   8.074 -0.8749 -0.0788  1.1916
  922MOL0     C24400   0.671  10.580   7.910  0.5644  0.8758  0.0225
  922MOL0     C24401   0.800  10.629   7.898  0.0512 -0.0282  0.0479
  922MOL0     C24402   0.902  10.541   7.814  0.5428  0.0544 -0.5458
  922MOL0     H24403   1.254  10.906   7.929  0.4948  0.0352  0.8015
  922MOL0     H24404   1.363  11.132   7.894 -0.2544 -0.2419 -1.4782
  922MOL0     H24405   1.422  11.251   7.709  0.8371 -0.3394  0.2649
  922MOL0     H24406   1.406  11.423   7.666  1.2899 -0.1811  1.1512
  922MOL0     H24407   1.455  11.324   7.946 -0.7740 -1.9712 -1.2200
  922MOL0     H24408   1.426  11.491   7.909  2.2719  0.6289  1.6537
  922MOL0     H24409   1.634  11.449   7.738  1.6646  1.0630  0.6023
  922MOL0     H24410   1.671  11.315   7.841 -2.5551 -2.2161 -0.8014
  922MOL0     H24411   1.622  11.605   7.897 -1.6247  1.8465  2.4564
  922MOL0     H24412   1.619  11.509   8.038  0.6380 -0.9465  0.0612
  922MOL0     H24413   1.871  11.524   7.875  0.3224 -1.3673 -0.4377
  922MOL0     H24414   1.833  11.625   8.014 -2.9698  0.6190 -0.0172
  922MOL0     H24415   1.844  11.448   8.174  2.6910  2.3654  0.4384
  922MOL0     H24416   1.852  11.322   8.039 -1.6163  0.0033  0.7852
  922MOL0     H24417   2.041  11.511   8.160 -2.9117 -0.4235  0.7380
  922MOL0     H24418   2.058  11.489   7.980 -0.2353 -2.0019 -1.9442
  922MOL0     H24419   2.045  11.247   8.166  0.1129  0.2128  0.3087
  922MOL0     H24420   2.107  11.265   7.999 -2.3199 -0.4206  0.7107
  922MOL0     H24421   2.183  11.385   8.354 -2.0574  3.2815 -2.6464
  922MOL0     H24422   2.559  11.385   8.447  0.7108 -0.3501  1.1555
  922MOL0     H24423   2.386  11.384   8.516  0.0990  0.0299  0.0417
  922MOL0     H24424   2.550  11.141   8.402 -2.0759  0.6642 -2.0381
  922MOL0     H24425   2.564  11.188   8.572  3.3067 -2.0671 -1.6387
  922MOL0     H24426   2.293  11.181   8.576 -0.8894 -0.2939 -0.3904
  922MOL0     H24427   2.401  11.051   8.618 -0.8310  3.2792  3.8969
  922MOL0     H24428   2.378  10.961   8.388 -2.4847 -3.3184  0.9845
  922MOL0     H24429   2.289  11.107   8.335  1.5547  0.8303  0.3921
  922MOL0     H24430   2.124  10.939   8.215  1.8445  1.9264  0.3908
  922MOL0     H24431   1.903  10.990   8.106 -1.4608 -0.6426  0.6595
  922MOL0     H24432   1.419  11.045   8.212  4.2054 -0.0172 -4.8067
  922MOL0     H24433   1.214  11.090   8.134 -1.2983 -0.2036  1.8250
  922MOL0     H24434   1.014  11.151   8.052 -0.9703  0.6025 -1.0311
  922MOL0     H24435   1.010  11.184   8.226 -1.6272  2.1361  1.1555
  922MOL0     H24436   0.867  11.344   8.005  2.0960  1.1812 -0.0041
  922MOL0     H24437   0.793  11.211   8.097 -0.0871  0.4667 -2.4112
  922MOL0     H24438   0.840  11.321   8.309  2.2316  2.0626 -0.0155
  922MOL0     H24439   0.886  11.463   8.226 -0.6795 -0.0987 -0.9856
  922MOL0     H24440   0.617  11.336   8.198  1.0703 -0.4221  1.3402
  922MOL0     H24441   0.673  11.494   8.123  1.2314  1.4476  1.0486
  922MOL0     H24442   0.715  11.568   8.374 -0.6271  0.1175  1.1146
  922MOL0     H24443   0.624  11.429   8.410 -3.7759  3.0895  1.6736
  922MOL0     H24444   0.459  11.627   8.387  1.7443  0.3090  0.4416
  922MOL0     H24445   0.521  11.666   8.225  1.0648  1.7647  2.4481
  922MOL0     H24446   0.387  11.396   8.280  2.6101  0.9047  2.8254
  922MOL0     H24447   0.425  11.461   8.124 -0.7153 -1.2558  0.0776
  922MOL0     H24448   0.243  11.591   8.338 -0.2971  1.4587 -0.8748
  922MOL0     H24449   0.269  11.654   8.177 -0.9549  1.8763  1.3661
  922MOL0     H24450   1.258  11.511   8.184 -1.4702  0.5165  1.3260
  922MOL0     H24451   1.501  11.474   8.258  0.4403 -1.2847  0.2123
  922MOL0     H24452   1.778  11.194   8.478 -0.4514 -0.6068  1.4003
  922MOL0     H24453   1.995  11.130   8.568 -2.4879 -1.1441  0.2170
  922MOL0     H24454   1.011  11.268   7.680  0.3003  1.2668  0.1831
  922MOL0     H24455   0.926  11.023   7.693 -0.9255 -1.4450  2.2659
  922MOL0     H24456   0.751  10.929   8.056 -0.1012  0.4197  0.3208
  922MOL0     H24457   0.514  10.829   8.075 -0.1061  1.2540  0.2014
  922MOL0     H24458   0.286  10.733   8.013  0.1961  0.7525  1.7813
  922MOL0     H24459   0.389  10.666   8.138 -2.3415  1.2952  1.3609
  922MOL0     H24460   0.268  10.449   8.127  0.8669  0.8262  0.0068
  922MOL0     H24461   0.254  10.463   7.958  3.2044  1.2285 -0.2933
  922MOL0     H24462   0.093  10.627   7.961  0.0686  0.6512  0.1954
  922MOL0     H24463   0.096  10.652   8.132 -0.0826 -0.4864  1.0075
  922MOL0     H24464   0.001  10.371   7.998 -1.3962  0.1010  0.3615
  922MOL0     H24465   0.036  10.397   8.165 -0.1719  0.8068 -0.0241
  922MOL0     H24466  -0.349  10.591   8.052 -0.6762 -0.5489 -0.8947
  922MOL0     H24467   0.656  10.488   7.854  1.5222 -0.8991  2.5137
  922MOL0     H24468   0.994  10.521   7.869  1.4503 -3.0502 -2.8973
  922MOL0     H24469   0.857  10.453   7.767  0.2591  1.0411 -2.2101
  922MOL0     H24470   0.924  10.591   7.719 -0.6855  0.5083 -0.6118
  923MOL0     O24471  10.997   1.389   8.185 -0.1238  0.1497 -0.3893
  923MOL0     C24472  10.935   1.299   8.132 -0.1010 -0.2498  0.1167
  923MOL0     O24473  10.997   1.175   8.094  0.4277 -0.2223  0.0921
  923MOL0     C24474  11.128   1.167   8.125  0.2737  0.0465  0.1462
  923MOL0     C24475  11.167   1.109   8.249 -0.2089  0.6869 -0.5464
  923MOL0     C24476  11.307   1.089   8.287 -0.1970  0.0424 -0.2013
  923MOL0     C24477  11.398   1.140   8.199  0.4031 -0.1777  0.9431
  923MOL0     O24478  11.529   1.123   8.224 -0.4934  0.3378 -0.3147
  923MOL0     C24479  11.580   1.146   8.359 -0.0455  1.0893 -0.9204
  923MOL0     C24480  11.693   1.248   8.372  0.2069 -0.2306  0.2180
  923MOL0     C24481  11.823   1.190   8.335 -0.4098  0.0379 -0.3455
  923MOL0     C24482  11.832   1.049   8.265  0.0854  0.4725  0.5740
  923MOL0     C24483  11.972   1.022   8.224  0.3689  0.2704  0.2939
  923MOL0     C24484  11.983   0.896   8.140 -0.4310  0.3861 -0.1730
  923MOL0     C24485  12.123   0.853   8.102 -0.3628 -0.4816  0.2512
  923MOL0     C24486  12.180   0.948   7.986  0.4866  0.1787 -0.0893
  923MOL0     N24487  12.322   0.930   7.967 -0.5214 -0.2278 -0.0679
  923MOL0     C24488  12.373   0.832   7.885 -0.0707 -0.5195  0.0882
  923MOL0     C24489  12.509   0.847   7.883  0.6071  0.1933  0.3711
  923MOL0     C24490  12.603   0.756   7.807  0.4133 -0.7276 -0.0821
  923MOL0     C24491  12.724   0.832   7.751 -0.9084 -0.5078  0.7212
  923MOL0     C24492  12.818   0.866   7.869 -0.1724  0.1175 -0.3135
  923MOL0     C24493  12.906   0.968   7.813  0.3495 -0.1730  0.4698
  923MOL0     O24494  13.031   0.980   7.879 -0.2138 -0.1220 -0.0537
  923MOL0     C24495  13.051   1.060   7.990 -0.1716  0.1963  0.3070
  923MOL0     C24496  13.179   1.083   8.023  0.1859 -0.4688 -0.9617
  923MOL0     C24497  13.205   1.161   8.135  0.9649 -0.6477 -0.3681
  923MOL0     C24498  13.099   1.228   8.210  0.2080 -0.8079 -0.9615
  923MOL0     C24499  13.132   1.304   8.331 -0.2361 -0.3446 -0.0067
  923MOL0     O24500  13.032   1.321   8.409  0.1157  0.5604 -0.3989
  923MOL0     C24501  13.036   1.416   8.510  0.3654  0.7542 -0.7966
  923MOL0     C24502  13.087   1.545   8.489  0.2956  0.9426  0.6173
  923MOL0     C24503  13.104   1.640   8.583  0.1338 -0.5339 -0.1928
  923MOL0     C24504  13.059   1.617   8.714  0.1198  0.8308  0.0616
  923MOL0     O24505  13.050   1.710   8.813  0.1742 -0.5177 -0.3696
  923MOL0     C24506  13.147   1.815   8.812 -0.3314  0.1940  0.5573
  923MOL0     C24507  13.147   1.867   8.952 -0.3140  0.5973  0.0028
  923MOL0     C24508  13.032   1.967   8.984 -0.4198 -0.7525 -0.8129
  923MOL0     C24509  13.021   1.998   9.135  0.4071  0.4839  0.1355
  923MOL0     C24510  12.876   2.042   9.162  0.2042 -1.0216  0.5912
  923MOL0     C24511  12.867   2.092   9.303 -0.2874  0.3910 -0.5446
  923MOL0     C24512  12.949   2.214   9.344 -0.1990 -0.4968  0.0988
  923MOL0     C24513  12.940   2.231   9.493  1.1167 -0.6440  0.0449
  923MOL0    Cl24514  13.022   2.097   9.578 -0.0890  0.0714 -0.0544
  923MOL0     C24515  13.023   1.485   8.745 -0.3921 -0.3031  0.3300
  923MOL0     C24516  13.009   1.384   8.645  0.1546 -0.4048  0.6902
  923MOL0     O24517  13.245   1.342   8.347  0.2805 -0.5780 -0.4459
  923MOL0     C24518  12.968   1.220   8.157 -0.0032  0.1875 -0.5165
  923MOL0     C24519  12.946   1.127   8.055  0.8395 -0.1438 -0.8511
  923MOL0     N24520  12.540   0.957   7.966  0.7907  0.0158  0.1749
  923MOL0     N24521  12.427   0.991   8.031  0.1256 -0.6903 -0.5039
  923MOL0     C24522  11.350   1.204   8.083 -0.1777 -0.1592  0.4249
  923MOL0     C24523  11.221   1.215   8.038  0.3721  0.5448  0.1104
  923MOL0     C24524  10.794   1.328   8.098  0.6392 -0.5693 -0.5865
  923MOL0     C24525  10.740   1.457   8.111  0.2299 -0.2006  0.1408
  923MOL0     C24526  10.607   1.489   8.062 -0.0591 -0.3744  0.7294
  923MOL0     C24527  10.527   1.395   8.006  0.3757 -0.2548 -0.8014
  923MOL0     O24528  10.408   1.425   7.956  0.2444 -0.4527 -0.1785
  923MOL0     C24529  10.291   1.343   7.997 -0.3274 -0.7916  0.3005
  923MOL0     C24530  10.168   1.382   7.921  0.6702  0.3749  0.2976
  923MOL0     C24531  10.125   1.523   7.947  0.0829  0.1849 -0.1969
  923MOL0     C24532   9.980   1.542   7.894  0.2115 -0.2069 -0.3552
  923MOL0     C24533   9.964   1.506   7.752  0.1034 -0.1976  0.3567
  923MOL0     C24534   9.969   1.478   7.633 -0.0190 -0.4748  0.2886
  923MOL0     C24535  10.580   1.257   8.005  1.1094 -0.0439 -0.4374
  923MOL0     C24536  10.715   1.224   8.045  1.3602  0.6298  0.1062
  923MOL0     C24537  10.757   1.081   8.008 -0.2190  0.5247 -0.3954
  923MOL0     H24538  11.087   1.074   8.313  3.0082 -1.7866  2.6027
  923MOL0     H24539  11.336   1.048   8.383 -0.2898  2.1697  0.7820
  923MOL0     H24540  11.502   1.195   8.417  1.7389  3.9532 -0.7562
  923MOL0     H24541  11.610   1.053   8.408 -2.0359  1.1153  0.4710
  923MOL0     H24542  11.698   1.291   8.473 -2.5199  2.0906 -0.5153
  923MOL0     H24543  11.665   1.329   8.304 -2.7006 -0.4462  1.0486
  923MOL0     H24544  11.877   1.178   8.430  0.5080  0.6698 -0.7742
  923MOL0     H24545  11.880   1.266   8.280  1.7172  0.5839  2.3819
  923MOL0     H24546  11.795   0.969   8.329  3.1959  0.0690  2.0717
  923MOL0     H24547  11.786   1.036   8.167  0.7050  1.7922  0.0900
  923MOL0     H24548  12.013   1.108   8.170  0.4937  0.2834  0.4081
  923MOL0     H24549  12.040   1.008   8.308  3.2428 -3.7828 -2.3438
  923MOL0     H24550  11.932   0.819   8.198 -2.9289  2.6154  0.8248
  923MOL0     H24551  11.930   0.909   8.045 -0.0348  1.1354 -0.3027
  923MOL0     H24552  12.120   0.747   8.076 -0.2812 -1.1143  2.5488
  923MOL0     H24553  12.197   0.868   8.181  1.5352 -0.4324 -1.4653
  923MOL0     H24554  12.130   0.914   7.895  2.5009 -0.5247 -1.0073
  923MOL0     H24555  12.168   1.055   8.002  2.8566  0.0072  4.3434
  923MOL0     H24556  12.329   0.747   7.834  0.2798 -0.4813 -0.2818
  923MOL0     H24557  12.637   0.675   7.872  1.7829 -0.3116 -0.2659
  923MOL0     H24558  12.554   0.690   7.734  2.9553 -4.3195  1.1789
  923MOL0     H24559  12.777   0.785   7.667  0.5042 -0.4804  1.5776
  923MOL0     H24560  12.675   0.919   7.707  0.3952 -1.4536 -2.9528
  923MOL0     H24561  12.870   0.782   7.915  1.1926  1.4998  0.7886
  923MOL0     H24562  12.772   0.920   7.952 -2.0803  1.7674 -2.3104
  923MOL0     H24563  12.846   1.058   7.798 -2.1276 -1.9683 -1.2369
  923MOL0     H24564  12.922   0.952   7.706 -0.0073  3.4610 -0.2657
  923MOL0     H24565  13.261   1.033   7.973  0.9916  0.9379 -1.0853
  923MOL0     H24566  13.311   1.174   8.158  1.2453 -3.2664  0.1032
  923MOL0     H24567  13.123   1.590   8.397  1.4364 -1.3173 -0.1191
  923MOL0     H24568  13.148   1.734   8.551  0.1789 -0.5330 -0.1267
  923MOL0     H24569  13.245   1.773   8.787 -0.7815 -0.2752 -0.4532
  923MOL0     H24570  13.124   1.897   8.744 -1.1315 -1.3677 -1.1357
  923MOL0     H24571  13.131   1.782   9.018 -0.8215  2.8754  2.9916
  923MOL0     H24572  13.247   1.911   8.956 -0.2797  0.6855 -1.2205
  923MOL0     H24573  13.036   2.061   8.928  1.2426  2.3065  3.8335
  923MOL0     H24574  12.941   1.914   8.954 -0.9597 -0.2337 -0.1444
  923MOL0     H24575  13.087   2.079   9.171 -2.0825  2.8128 -0.2350
  923MOL0     H24576  13.047   1.910   9.195  0.6023  0.3423 -0.1539
  923MOL0     H24577  12.803   1.966   9.131 -2.0224  1.0177  0.5101
  923MOL0     H24578  12.864   2.131   9.098  0.6521 -1.3370  0.0573
  923MOL0     H24579  12.763   2.127   9.311 -0.9604 -1.2221 -1.7185
  923MOL0     H24580  12.901   2.015   9.372  3.6521  0.6837 -1.9393
  923MOL0     H24581  12.906   2.300   9.292  2.4557 -0.3786 -2.1332
  923MOL0     H24582  13.056   2.212   9.322  0.2654  0.3979  2.0023
  923MOL0     H24583  12.980   2.330   9.519 -0.1095 -0.3072  0.7129
  923MOL0     H24584  12.836   2.242   9.522  0.4772  3.3450 -2.8357
  923MOL0     H24585  12.992   1.450   8.843 -1.1537 -0.8505 -0.0958
  923MOL0     H24586  12.984   1.280   8.664 -0.7872 -0.2583  0.3437
  923MOL0     H24587  12.886   1.285   8.186 -0.8721 -1.6245  1.3195
  923MOL0     H24588  12.846   1.105   8.020  0.5079 -2.0573  1.0843
  923MOL0     H24589  11.433   1.240   8.023  2.1882 -0.6662  3.1415
  923MOL0     H24590  11.198   1.260   7.942 -0.1490  2.3107  1.0222
  923MOL0     H24591  10.803   1.540   8.143 -1.5158  1.3232 -0.2478
  923MOL0     H24592  10.583   1.594   8.051  4.0752  0.5801 -1.3823
  923MOL0     H24593  10.278   1.349   8.106 -3.0755  0.4169 -0.0049
  923MOL0     H24594  10.307   1.236   7.981 -0.6502 -0.3293 -4.5441
  923MOL0     H24595  10.089   1.311   7.947 -0.1895  1.7818  1.7288
  923MOL0     H24596  10.176   1.365   7.813  1.6618 -2.4552  0.7103
  923MOL0     H24597  10.189   1.598   7.900 -2.3403  1.1035 -2.3070
  923MOL0     H24598  10.112   1.547   8.052  2.2899  1.6021 -0.1895
  923MOL0     H24599   9.915   1.475   7.950  2.5430 -2.0465  0.3551
  923MOL0     H24600   9.958   1.647   7.915  1.1533  0.1472 -1.0236
  923MOL0     H24601   9.964   1.448   7.530 -0.2402  1.4976 -0.3132
  923MOL0     H24602  10.509   1.181   7.972 -0.0399 -0.4594  2.6875
  923MOL0     H24603  10.801   1.043   8.101 -0.1743  1.3868 -0.0528
  923MOL0     H24604  10.678   1.013   7.976  1.7133 -1.2362 -1.7469
  923MOL0     H24605  10.829   1.092   7.926 -0.5475 -0.3366 -0.8141
  924MOL0     O24606   3.550  11.337  11.012 -0.9109 -0.2191  0.0331
  924MOL0     C24607   3.441  11.368  10.963  0.2207  0.1169 -0.0298
  924MOL0     O24608   3.424  11.446  10.853 -0.5439 -0.0519 -0.6804
  924MOL0     C24609   3.529  11.480  10.772  0.6691 -0.1593 -0.1018
  924MOL0     C24610   3.605  11.384  10.694  0.1584  0.2633 -0.5573
  924MOL0     C24611   3.715  11.427  10.614  0.2945 -0.9235  0.2056
  924MOL0     C24612   3.757  11.562  10.605 -0.2685  0.1986  0.4666
  924MOL0     O24613   3.866  11.590  10.522 -0.3984  0.1214  0.0267
  924MOL0     C24614   3.946  11.702  10.557  0.6804 -0.4587  0.1659
  924MOL0     C24615   4.068  11.735  10.457  0.0592 -0.3104  0.5626
  924MOL0     C24616   4.176  11.625  10.488 -0.0739 -0.9910 -0.8324
  924MOL0     C24617   4.314  11.668  10.443  0.8937 -0.3067  0.4536
  924MOL0     C24618   4.418  11.561  10.463  0.5252  0.2051  0.2488
  924MOL0     C24619   4.402  11.441  10.376 -0.6435 -0.3063 -0.0018
  924MOL0     C24620   4.528  11.339  10.389  1.2095  0.8674  0.1781
  924MOL0     C24621   4.665  11.397  10.347  0.0639  0.2645  0.1205
  924MOL0     N24622   4.750  11.283  10.304  0.0818  0.4849 -0.4144
  924MOL0     C24623   4.785  11.187  10.395 -0.7105  0.6262 -0.4680
  924MOL0     C24624   4.862  11.107  10.323 -0.5950  0.7948  0.8131
  924MOL0     C24625   4.910  10.982  10.373 -0.3998  1.5332 -0.2204
  924MOL0     C24626   5.052  10.990  10.422  0.3376  0.0344  1.1773
  924MOL0     C24627   5.151  11.009  10.307 -0.2328  1.2764  0.0035
  924MOL0     C24628   5.295  10.996  10.350  0.9101 -0.2787  0.2373
  924MOL0     O24629   5.322  10.858  10.399 -1.0014 -0.2905 -0.5401
  924MOL0     C24630   5.449  10.826  10.440 -0.2899  0.2138  0.4937
  924MOL0     C24631   5.564  10.913  10.431  0.3256  0.7923 -0.4419
  924MOL0     C24632   5.688  10.872  10.467 -0.0715 -0.1584 -0.0447
  924MOL0     C24633   5.706  10.745  10.527 -0.6725  0.3303  0.2613
  924MOL0     C24634   5.844  10.695  10.559  0.2347  0.1203 -0.1175
  924MOL0     O24635   5.951  10.784  10.536  0.1549  0.1313 -0.2148
  924MOL0     C24636   6.076  10.731  10.531  0.2683  0.4807 -0.9040
  924MOL0     C24637   6.169  10.812  10.597  0.6835  0.3609  0.3255
  924MOL0     C24638   6.307  10.787  10.598  0.2141 -0.7190 -0.5134
  924MOL0     C24639   6.359  10.673  10.538  0.4678 -0.8479 -1.1240
  924MOL0     O24640   6.492  10.630  10.542  0.3198  0.6774 -0.5289
  924MOL0     C24641   6.576  10.690  10.644 -0.5771  0.3163 -0.4029
  924MOL0     C24642   6.694  10.600  10.660 -0.2327 -0.3342 -0.9020
  924MOL0     C24643   6.646  10.458  10.712 -1.3726  0.1003 -0.2394
  924MOL0     C24644   6.766  10.358  10.719 -0.3306  0.0293  0.5228
  924MOL0     C24645   6.901  10.394  10.782  0.1915 -0.7525 -0.9934
  924MOL0     C24646   6.895  10.393  10.937  0.6062  0.5819  0.0959
  924MOL0     C24647   6.936  10.246  10.992 -0.1537  0.2994  0.3219
  924MOL0     C24648   6.943  10.250  11.143 -0.2851 -1.2466 -0.0174
  924MOL0    Cl24649   6.782  10.264  11.211 -0.2637 -0.3991  0.1094
  924MOL0     C24650   6.266  10.583  10.479 -0.6291  0.0831 -0.0107
  924MOL0     C24651   6.125  10.621  10.473 -0.3871  0.3504  0.4309
  924MOL0     O24652   5.861  10.577  10.592 -0.2691 -0.0199  0.1473
  924MOL0     C24653   5.592  10.657  10.553 -1.1606 -0.0324 -0.5563
  924MOL0     C24654   5.462  10.701  10.509 -0.3342 -0.4371  0.0124
  924MOL0     N24655   4.878  11.152  10.197 -0.3611  0.3377  0.1527
  924MOL0     N24656   4.810  11.265  10.190 -0.5705  0.1129 -0.0122
  924MOL0     C24657   3.683  11.653  10.681 -0.1048  0.0408  0.7245
  924MOL0     C24658   3.573  11.611  10.769  0.0085 -0.6058  0.1756
  924MOL0     C24659   3.319  11.320  11.025 -0.1845 -0.0299 -0.1017
  924MOL0     C24660   3.228  11.421  11.068  0.0072  0.0236  0.4154
  924MOL0     C24661   3.109  11.388  11.134 -0.9133  0.0936  0.2671
  924MOL0     C24662   3.085  11.256  11.160  0.2593  0.7039  0.3410
  924MOL0     O24663   2.968  11.219  11.229  0.4151  0.0746  0.1408
  924MOL0     C24664   2.845  11.298  11.224 -0.4361 -0.0569 -0.3994
  924MOL0     C24665   2.761  11.239  11.336  0.4877 -0.7114 -0.1189
  924MOL0     C24666   2.619  11.300  11.339  0.3923 -0.0620 -0.0795
  924MOL0     C24667   2.595  11.448  11.379  0.1587  0.1226  0.1307
  924MOL0     C24668   2.588  11.531  11.260  0.7138 -0.0498  0.2771
  924MOL0     C24669   2.560  11.580  11.156 -1.2998  0.4220  0.0913
  924MOL0     C24670   3.167  11.150  11.109  0.0483 -0.3554  0.4733
  924MOL0     C24671   3.284  11.182  11.039  0.5809 -0.7575  0.3294
  924MOL0     C24672   3.370  11.069  10.982  0.0552 -0.6646 -0.2682
  924MOL0     H24673   3.581  11.279  10.687 -0.3023  0.3542 -0.4046
  924MOL0     H24674   3.768  11.360  10.547  0.8025 -1.9855  1.6198
  924MOL0     H24675   3.879  11.786  10.539 -0.2557 -1.0469  0.8112
  924MOL0     H24676   3.982  11.694  10.660  0.1026 -0.5604  0.3594
  924MOL0     H24677   4.103  11.836  10.479  0.4405  0.2440 -2.2362
  924MOL0     H24678   4.047  11.727  10.350 -1.8605  1.5776  0.7319
  924MOL0     H24679   4.149  11.527  10.446  4.5863 -2.7268 -0.3935
  924MOL0     H24680   4.176  11.622  10.598  1.9765 -0.3810 -0.7709
  924MOL0     H24681   4.310  11.697  10.338  0.3380  2.5400  1.1885
  924MOL0     H24682   4.347  11.751  10.505 -0.8868 -0.0480  1.1080
  924MOL0     H24683   4.514  11.597  10.426 -0.5230  3.5524  0.3884
  924MOL0     H24684   4.439  11.528  10.565  2.7507  0.1818 -0.1665
  924MOL0     H24685   4.321  11.379  10.417  0.8012 -1.6469  0.9246
  924MOL0     H24686   4.375  11.470  10.274  0.0569 -0.7532 -0.3154
  924MOL0     H24687   4.505  11.262  10.315 -0.1471  0.8059  0.6370
  924MOL0     H24688   4.537  11.296  10.489 -0.2219 -1.7511 -0.7303
  924MOL0     H24689   4.632  11.469  10.271 -1.5118  1.5263  1.9210
  924MOL0     H24690   4.701  11.453  10.433 -2.5429  1.8569  0.2858
  924MOL0     H24691   4.759  11.177  10.500  0.8049 -1.9405 -0.2517
  924MOL0     H24692   4.856  10.945  10.461 -0.8642 -2.0574 -1.8624
  924MOL0     H24693   4.894  10.893  10.313  0.9769  0.2502  1.2208
  924MOL0     H24694   5.066  11.069  10.496  1.0167 -0.1526  1.2524
  924MOL0     H24695   5.082  10.892  10.459  0.4541 -0.1505  0.6029
  924MOL0     H24696   5.129  11.109  10.267  1.3192  1.3949 -0.6252
  924MOL0     H24697   5.119  10.942  10.226 -2.4970 -1.1585  2.6994
  924MOL0     H24698   5.316  11.073  10.424  2.4819 -0.7922  0.3588
  924MOL0     H24699   5.359  11.023  10.266 -0.2545  1.8490 -0.0264
  924MOL0     H24700   5.559  11.005  10.373  1.6186  1.3407  0.2682
  924MOL0     H24701   5.777  10.932  10.453 -0.8722  1.3393  0.9691
  924MOL0     H24702   6.135  10.897  10.656 -1.7820 -0.5512  0.2889
  924MOL0     H24703   6.366  10.865  10.645  2.1681 -1.9457 -0.8259
  924MOL0     H24704   6.616  10.783  10.602  0.9541 -0.9005 -1.7615
  924MOL0     H24705   6.531  10.711  10.742 -0.5711 -1.1402 -0.0604
  924MOL0     H24706   6.732  10.600  10.558  1.1890  2.0618 -0.4627
  924MOL0     H24707   6.762  10.637  10.738  0.3594 -3.7112  0.3811
  924MOL0     H24708   6.608  10.458  10.815  0.9563  0.9766  0.6916
  924MOL0     H24709   6.574  10.404  10.650  0.4123 -3.3510  0.4267
  924MOL0     H24710   6.794  10.338  10.615 -1.6454  1.6376 -0.1906
  924MOL0     H24711   6.738  10.263  10.766  0.1228 -0.1422  0.4506
  924MOL0     H24712   6.937  10.492  10.751  0.0969 -0.4042 -0.0340
  924MOL0     H24713   6.977  10.328  10.739 -2.0212 -2.0596 -3.2220
  924MOL0     H24714   6.960  10.472  10.976 -0.6954  2.1238 -0.7478
  924MOL0     H24715   6.790  10.414  10.964  0.9883  3.4108 -0.3094
  924MOL0     H24716   7.032  10.220  10.948 -0.5632  0.9271 -0.9680
  924MOL0     H24717   6.864  10.167  10.968 -2.2637  2.3477 -0.4675
  924MOL0     H24718   6.989  10.156  11.176 -1.2669 -1.5088  0.6495
  924MOL0     H24719   7.001  10.331  11.188 -0.6528 -0.7382 -0.4504
  924MOL0     H24720   6.310  10.490  10.445  0.4210  1.3553 -2.3695
  924MOL0     H24721   6.059  10.547  10.430 -1.5002  2.5591 -1.9401
  924MOL0     H24722   5.599  10.559  10.599 -1.5870  1.1131  2.1631
  924MOL0     H24723   5.370  10.649  10.536 -2.3084  3.2064  1.0714
  924MOL0     H24724   3.708  11.759  10.682 -1.5395  0.4412 -0.7929
  924MOL0     H24725   3.529  11.691  10.828  0.8283  0.6131 -0.8148
  924MOL0     H24726   3.238  11.525  11.037  2.9705  0.0816  1.2058
  924MOL0     H24727   3.048  11.469  11.173  0.4082  0.3595  1.9355
  924MOL0     H24728   2.792  11.281  11.130 -2.5214  0.5633  0.6213
  924MOL0     H24729   2.857  11.406  11.240 -1.2031 -0.3497  2.8420
  924MOL0     H24730   2.806  11.242  11.436  0.8096 -3.4590 -0.0939
  924MOL0     H24731   2.757  11.131  11.323  2.2102 -1.2067  2.5463
  924MOL0     H24732   2.576  11.245  11.423 -1.6060 -2.1786 -2.3282
  924MOL0     H24733   2.576  11.286  11.240 -0.7250 -0.3211  0.4303
  924MOL0     H24734   2.503  11.467  11.436 -0.1324 -0.1384 -0.2451
  924MOL0     H24735   2.680  11.480  11.440  0.7528  0.7675 -1.0001
  924MOL0     H24736   2.544  11.637  11.067 -0.9233  0.7640  0.2392
  924MOL0     H24737   3.159  11.043  11.129  2.8301 -1.5849 -3.4859
  924MOL0     H24738   3.302  10.998  10.934  0.2540 -1.0622  0.0409
  924MOL0     H24739   3.430  11.119  10.905 -0.4171  0.8065  0.2815
  924MOL0     H24740   3.433  11.031  11.062  1.1830  2.3235  0.3963
  925MOL0     O24741   9.323   9.697   5.733  0.4216  0.4081 -0.2495
  925MOL0     C24742   9.341   9.603   5.804 -0.8804  0.7419  0.0542
  925MOL0     O24743   9.459   9.548   5.836 -0.6876  0.1263 -0.2752
  925MOL0     C24744   9.575   9.623   5.819  0.4345  0.1616  0.5417
  925MOL0     C24745   9.645   9.621   5.692  0.7024 -0.9351  0.7266
  925MOL0     C24746   9.775   9.673   5.684  0.0047  0.7690 -0.0859
  925MOL0     C24747   9.845   9.706   5.789  0.2109 -0.3319 -0.4553
  925MOL0     O24748   9.976   9.737   5.756 -1.3803  0.1055  0.1623
  925MOL0     C24749  10.081   9.692   5.847 -0.1426 -0.6808  0.5427
  925MOL0     C24750  10.225   9.683   5.785  0.3381  0.6821  0.1322
  925MOL0     C24751  10.336   9.626   5.882 -0.3865  0.4903 -0.3668
  925MOL0     C24752  10.442   9.587   5.780  0.3226 -0.2029 -0.1189
  925MOL0     C24753  10.589   9.570   5.828  0.2349  0.5223 -0.3115
  925MOL0     C24754  10.688   9.516   5.719 -0.0093 -1.1608 -0.2175
  925MOL0     C24755  10.826   9.505   5.770  0.3068 -0.4689 -0.5188
  925MOL0     C24756  10.900   9.632   5.776 -1.1830 -0.6290  0.4461
  925MOL0     N24757  11.044   9.596   5.776 -0.6951 -0.1282 -0.4342
  925MOL0     C24758  11.106   9.532   5.879  0.3580 -0.3636  0.1368
  925MOL0     C24759  11.210   9.464   5.826  0.5095 -0.9743  1.1382
  925MOL0     C24760  11.300   9.376   5.892  0.2680 -0.1435 -0.0043
  925MOL0     C24761  11.225   9.246   5.928  0.3599 -0.2861 -0.7257
  925MOL0     C24762  11.306   9.122   5.902  0.9085 -0.4733  0.3993
  925MOL0     C24763  11.410   9.085   5.999  0.5921  0.3315 -0.2889
  925MOL0     O24764  11.492   9.192   6.035  0.1359 -0.2200  0.1201
  925MOL0     C24765  11.618   9.169   6.087 -0.3014 -0.1084 -0.3639
  925MOL0     C24766  11.696   9.284   6.112 -0.1274 -0.6401  0.3080
  925MOL0     C24767  11.828   9.273   6.151  0.1099  0.3449  0.1303
  925MOL0     C24768  11.888   9.146   6.166 -0.5158  0.4637 -0.1288
  925MOL0     C24769  12.029   9.143   6.214  0.6061 -0.3307  0.2909
  925MOL0     O24770  12.090   9.261   6.250 -0.3160  1.0059  0.0953
  925MOL0     C24771  12.232   9.262   6.245  0.0272 -0.8521  0.5028
  925MOL0     C24772  12.283   9.236   6.116 -0.1051  0.0856  0.6440
  925MOL0     C24773  12.424   9.222   6.093  1.8820 -0.2536  0.2757
  925MOL0     C24774  12.513   9.251   6.200  0.2130  0.5825 -0.3616
  925MOL0     O24775  12.652   9.241   6.199  0.0900  0.0664  0.4244
  925MOL0     C24776  12.722   9.225   6.076 -0.1559 -0.4157  0.9015
  925MOL0     C24777  12.870   9.208   6.094  0.0079 -0.2486  0.3410
  925MOL0     C24778  12.941   9.163   5.959  0.7098 -0.6770  0.4440
  925MOL0     C24779  13.084   9.107   5.977 -0.1292  0.2596  0.4920
  925MOL0     C24780  13.124   9.005   5.863  0.6748 -0.9041 -0.6968
  925MOL0     C24781  13.265   9.018   5.801 -0.7052  0.1147 -0.2071
  925MOL0     C24782  13.274   8.915   5.688  0.8556 -0.1355 -0.0439
  925MOL0     C24783  13.391   8.923   5.597 -0.6928  0.0528  0.7368
  925MOL0    Cl24784  13.548   8.878   5.667 -0.0088 -0.3315  0.0157
  925MOL0     C24785  12.458   9.267   6.326  0.0245  0.3474 -1.2719
  925MOL0     C24786  12.321   9.273   6.348 -0.1751 -0.0883  0.0546
  925MOL0     O24787  12.083   9.031   6.207  0.1463 -0.4216  0.0578
  925MOL0     C24788  11.817   9.033   6.131  0.6534 -0.3217  1.0290
  925MOL0     C24789  11.688   9.044   6.090  0.0581  1.0119  0.8686
  925MOL0     N24790  11.224   9.502   5.691  0.9537 -0.0576  0.4944
  925MOL0     N24791  11.127   9.578   5.662 -0.0638 -0.0811 -0.6864
  925MOL0     C24792   9.784   9.700   5.919 -0.3993 -0.3625 -0.1319
  925MOL0     C24793   9.645   9.668   5.930 -0.0755 -0.3238 -0.2204
  925MOL0     C24794   9.221   9.519   5.843  0.7578 -0.2275  0.5837
  925MOL0     C24795   9.228   9.441   5.961 -0.1769 -0.8672  0.2261
  925MOL0     C24796   9.111   9.393   6.017 -0.6077 -0.6444 -0.8187
  925MOL0     C24797   8.991   9.395   5.950 -0.0413 -0.2625 -0.1035
  925MOL0     O24798   8.876   9.338   6.001 -0.4578  0.0911 -0.1678
  925MOL0     C24799   8.870   9.270   6.126  0.6374 -0.3613 -0.0796
  925MOL0     C24800   8.911   9.124   6.120  0.2273 -0.3056 -0.6293
  925MOL0     C24801   8.860   9.045   6.246 -0.5573 -0.1938  0.8490
  925MOL0     C24802   8.719   8.985   6.230 -0.1406 -0.8049 -0.3440
  925MOL0     C24803   8.636   9.066   6.318  0.8113  0.0670 -0.0056
  925MOL0     C24804   8.567   9.128   6.392  0.8591 -0.5035  0.0050
  925MOL0     C24805   8.984   9.462   5.825 -0.4362 -0.0344  0.9139
  925MOL0     C24806   9.097   9.524   5.774  0.5835  0.8301  0.5700
  925MOL0     C24807   9.073   9.580   5.634  0.3091 -0.4125 -0.3709
  925MOL0     H24808   9.596   9.596   5.598  0.3808 -0.0804  0.6531
  925MOL0     H24809   9.810   9.687   5.582  0.5504  0.0496 -0.0078
  925MOL0     H24810  10.071   9.766   5.926 -0.0784  1.3906 -1.2760
  925MOL0     H24811  10.054   9.595   5.890 -1.6990 -0.3434  0.3797
  925MOL0     H24812  10.240   9.787   5.754 -1.2794  1.2220  1.0246
  925MOL0     H24813  10.218   9.616   5.700  0.2088 -0.7192  1.2075
  925MOL0     H24814  10.311   9.536   5.939  3.4036 -0.5111 -0.0119
  925MOL0     H24815  10.366   9.709   5.947 -0.4998  0.4017 -0.1992
  925MOL0     H24816  10.410   9.501   5.720  1.1408  0.2196 -1.1877
  925MOL0     H24817  10.444   9.671   5.710 -2.4496 -2.0178 -2.6663
  925MOL0     H24818  10.627   9.658   5.881  0.6446 -0.4192  1.0239
  925MOL0     H24819  10.600   9.508   5.917  1.8998 -0.3976 -1.1109
  925MOL0     H24820  10.649   9.423   5.676 -3.2063  0.8566 -2.0614
  925MOL0     H24821  10.695   9.598   5.647  1.3371 -2.3149 -1.4643
  925MOL0     H24822  10.888   9.451   5.698  0.1922 -1.0588 -0.1886
  925MOL0     H24823  10.842   9.446   5.861 -1.5056 -0.7379 -0.3421
  925MOL0     H24824  10.888   9.699   5.690 -1.1953 -0.1703  0.8057
  925MOL0     H24825  10.884   9.681   5.872  1.1451 -1.6308  1.4106
  925MOL0     H24826  11.074   9.521   5.983 -0.7126  1.4851  0.0468
  925MOL0     H24827  11.385   9.359   5.825  0.8865  0.2597  0.6677
  925MOL0     H24828  11.339   9.425   5.981 -2.5986 -0.7168  1.6991
  925MOL0     H24829  11.194   9.247   6.033 -0.6758 -0.1845 -1.0222
  925MOL0     H24830  11.136   9.239   5.865 -0.9109  1.2107  0.8195
  925MOL0     H24831  11.348   9.116   5.801  0.9479 -1.7228  0.4803
  925MOL0     H24832  11.238   9.037   5.911  1.3465 -0.8827 -0.0987
  925MOL0     H24833  11.467   9.004   5.952 -1.0666 -0.6322 -0.7405
  925MOL0     H24834  11.360   9.041   6.085  0.7543  1.3063  0.3155
  925MOL0     H24835  11.657   9.384   6.128 -0.6487 -0.6020 -1.0944
  925MOL0     H24836  11.879   9.358   6.195  0.5821  0.7852 -1.2186
  925MOL0     H24837  12.211   9.216   6.038 -0.3807 -0.4023  1.0175
  925MOL0     H24838  12.455   9.191   5.994 -1.3315  0.3076 -1.0420
  925MOL0     H24839  12.690   9.138   6.018 -5.6978  1.2081  0.8966
  925MOL0     H24840  12.690   9.316   6.024 -0.7536 -0.1668  1.6629
  925MOL0     H24841  12.919   9.300   6.126 -0.6883 -0.4294  2.0212
  925MOL0     H24842  12.894   9.129   6.166  0.0058 -0.3684  0.2114
  925MOL0     H24843  12.879   9.084   5.915  2.1797 -3.1139  2.5030
  925MOL0     H24844  12.937   9.244   5.884  2.4216 -1.2036 -0.2629
  925MOL0     H24845  13.109   9.061   6.073  3.4406  0.7267 -0.0732
  925MOL0     H24846  13.150   9.194   5.976 -2.1561  1.9524 -2.9751
  925MOL0     H24847  13.061   9.040   5.781  2.4017  2.3200 -0.8029
  925MOL0     H24848  13.095   8.903   5.890  0.2800 -0.8114 -0.7750
  925MOL0     H24849  13.282   9.115   5.753  2.1271 -1.6053 -3.0564
  925MOL0     H24850  13.333   9.012   5.887 -2.8598  0.4611  1.6212
  925MOL0     H24851  13.184   8.925   5.627 -0.0845  0.1428  1.3214
  925MOL0     H24852  13.270   8.816   5.734 -1.3061  0.0307  0.2219
  925MOL0     H24853  13.371   8.856   5.513 -1.4611 -0.7779  1.5615
  925MOL0     H24854  13.380   9.020   5.549 -0.9352 -0.2689  0.1352
  925MOL0     H24855  12.515   9.293   6.414 -4.1816  0.4851  1.7042
  925MOL0     H24856  12.278   9.290   6.447 -0.3610 -2.8449  0.5399
  925MOL0     H24857  11.861   8.934   6.140  2.0168  0.2344  0.7940
  925MOL0     H24858  11.646   8.949   6.059  0.4226  0.9648  0.4981
  925MOL0     H24859   9.843   9.719   6.008  0.7279 -2.6847 -0.2934
  925MOL0     H24860   9.605   9.673   6.031 -0.9476 -0.8654 -0.5339
  925MOL0     H24861   9.327   9.431   6.005  1.1876 -0.7820 -2.6536
  925MOL0     H24862   9.127   9.342   6.112  0.8786  3.2344  1.2044
  925MOL0     H24863   8.765   9.277   6.157  0.8856 -0.8257  0.9274
  925MOL0     H24864   8.925   9.325   6.204  1.0398 -0.0679 -0.5689
  925MOL0     H24865   9.020   9.132   6.123  0.1264  0.9669  0.7227
  925MOL0     H24866   8.863   9.080   6.033 -5.4201 -0.3676  2.0747
  925MOL0     H24867   8.879   9.110   6.331  0.3412 -0.9562  1.2542
  925MOL0     H24868   8.925   8.958   6.258  1.2682  0.9637 -0.1280
  925MOL0     H24869   8.685   8.991   6.126 -0.1885 -0.3312 -0.3038
  925MOL0     H24870   8.721   8.883   6.269  1.7459 -0.4162  0.6637
  925MOL0     H24871   8.509   9.190   6.458  1.1047  0.9811 -1.1118
  925MOL0     H24872   8.881   9.475   5.794 -0.9627 -4.0696  0.4598
  925MOL0     H24873   9.147   9.548   5.561  1.3823 -0.1987  0.5834
  925MOL0     H24874   8.973   9.567   5.593  0.8097 -2.6332 -0.9925
  925MOL0     H24875   9.091   9.688   5.639  3.1448 -0.5973 -3.1632
  926MOL0     O24876   5.454   1.543   5.000  0.1088  0.4699 -0.0114
  926MOL0     C24877   5.377   1.617   4.951  0.1649 -0.8147 -0.5133
  926MOL0     O24878   5.406   1.709   4.850 -0.6196  0.2620 -0.2116
  926MOL0     C24879   5.527   1.683   4.784 -0.2876  0.2417  0.4986
  926MOL0     C24880   5.642   1.744   4.821 -0.0249 -0.0053 -0.9810
  926MOL0     C24881   5.754   1.731   4.739 -0.6045 -0.1548 -1.1017
  926MOL0     C24882   5.762   1.653   4.629 -0.3494  0.5061  0.3832
  926MOL0     O24883   5.867   1.623   4.548  0.5798 -0.1845 -0.4640
  926MOL0     C24884   5.993   1.676   4.592 -0.3039 -0.0758 -0.5108
  926MOL0     C24885   6.065   1.576   4.683 -0.0978  0.1734  0.3280
  926MOL0     C24886   6.194   1.641   4.734  0.0976  0.0552 -0.3915
  926MOL0     C24887   6.304   1.531   4.767 -0.6148 -0.0009  0.7073
  926MOL0     C24888   6.380   1.485   4.647  0.9579  0.1637 -0.3281
  926MOL0     C24889   6.449   1.352   4.673  0.7944  0.5773  0.1991
  926MOL0     C24890   6.562   1.325   4.571 -0.1735  0.3241 -0.5006
  926MOL0     C24891   6.671   1.207   4.576  0.8325  0.5342  0.3734
  926MOL0     N24892   6.596   1.091   4.625 -0.1028 -0.2052  0.5340
  926MOL0     C24893   6.636   1.013   4.728 -0.4092  0.8961 -0.0305
  926MOL0     C24894   6.559   0.896   4.723 -0.4337 -0.7659 -0.8060
  926MOL0     C24895   6.583   0.783   4.821 -1.1350 -0.1547  0.0252
  926MOL0     C24896   6.520   0.649   4.776 -0.6238  0.5475 -0.2550
  926MOL0     C24897   6.517   0.542   4.883 -1.0611  0.5246 -0.2244
  926MOL0     C24898   6.656   0.506   4.946 -0.6020 -0.5634 -0.2685
  926MOL0     O24899   6.750   0.460   4.845  0.0323  0.3114  0.6502
  926MOL0     C24900   6.884   0.431   4.874 -0.4310  0.6957  0.8013
  926MOL0     C24901   6.929   0.416   5.001 -0.3106  0.6737 -0.6318
  926MOL0     C24902   7.070   0.393   5.035  0.6141 -0.6398  0.0109
  926MOL0     C24903   7.159   0.353   4.927 -0.0548 -0.1283 -0.6164
  926MOL0     C24904   7.301   0.328   4.963  0.2417 -0.1348 -0.7209
  926MOL0     O24905   7.329   0.343   5.096 -0.5180 -1.8223 -0.8981
  926MOL0     C24906   7.456   0.301   5.135 -0.3105  0.5000  0.0118
  926MOL0     C24907   7.551   0.397   5.160  0.9525  0.0112  0.4192
  926MOL0     C24908   7.678   0.368   5.212  1.3831 -1.0126  0.4470
  926MOL0     C24909   7.722   0.232   5.222 -0.2221  0.7735 -0.6354
  926MOL0     O24910   7.840   0.192   5.275  0.1706  0.6358 -0.4752
  926MOL0     C24911   7.961   0.222   5.204 -0.6453 -0.0068 -0.1654
  926MOL0     C24912   8.074   0.168   5.280 -0.9426 -0.0414 -1.1979
  926MOL0     C24913   8.094   0.019   5.252  0.0658  0.9853  0.0220
  926MOL0     C24914   8.218  -0.050   5.314 -0.5237 -0.3718  0.5160
  926MOL0     C24915   8.221  -0.202   5.289  1.1310 -0.8981 -0.9571
  926MOL0     C24916   8.291  -0.280   5.399  0.4190 -0.3780 -0.4238
  926MOL0     C24917   8.438  -0.229   5.414  0.3886  0.3914  0.3238
  926MOL0     C24918   8.528  -0.302   5.311  0.1404  0.0861  0.0246
  926MOL0    Cl24919   8.685  -0.235   5.324 -0.0087  0.4266  0.1550
  926MOL0     C24920   7.626   0.134   5.180 -0.4043  0.2836 -0.6726
  926MOL0     C24921   7.496   0.165   5.137 -0.5306 -0.8621  0.6523
  926MOL0     O24922   7.372   0.296   4.878  0.0375  0.2161 -0.1189
  926MOL0     C24923   7.112   0.363   4.795 -0.2429 -0.3182  0.4834
  926MOL0     C24924   6.974   0.398   4.774  0.2467  0.3337 -0.2498
  926MOL0     N24925   6.474   0.902   4.619 -0.4778  0.0589  0.3636
  926MOL0     N24926   6.501   1.015   4.557  0.1149  0.2124 -0.4941
  926MOL0     C24927   5.638   1.585   4.597 -0.7328 -0.1526  0.0804
  926MOL0     C24928   5.525   1.594   4.670  0.2083 -0.6032 -1.6077
  926MOL0     C24929   5.239   1.621   5.003 -0.6804  0.2356  0.4733
  926MOL0     C24930   5.135   1.694   4.936  0.1366 -0.4660 -1.0401
  926MOL0     C24931   5.007   1.715   4.983  0.5024  0.1130  0.1117
  926MOL0     C24932   4.956   1.641   5.086  0.1678  0.2042 -1.0385
  926MOL0     O24933   4.827   1.662   5.132  0.7490  0.3119 -0.2518
  926MOL0     C24934   4.792   1.629   5.267 -0.0476 -0.2281 -0.6263
  926MOL0     C24935   4.841   1.739   5.358  0.6509 -0.1406 -0.8744
  926MOL0     C24936   4.793   1.881   5.322 -0.4313  0.1502 -0.0596
  926MOL0     C24937   4.641   1.898   5.328 -0.6363  0.5160  0.6109
  926MOL0     C24938   4.590   1.898   5.463  0.5025  0.4895  0.5285
  926MOL0     C24939   4.527   1.895   5.571 -1.0204  0.0583  0.6152
  926MOL0     C24940   5.050   1.545   5.134  0.3028  0.6167  0.7940
  926MOL0     C24941   5.187   1.543   5.105 -0.0176 -0.1317 -0.3877
  926MOL0     C24942   5.272   1.447   5.189  0.5053 -0.4607  0.0772
  926MOL0     H24943   5.646   1.813   4.905 -0.9819 -1.5369  0.4133
  926MOL0     H24944   5.841   1.788   4.771 -0.6691 -0.2166 -0.8126
  926MOL0     H24945   6.054   1.702   4.505  0.2294  4.0934  0.8923
  926MOL0     H24946   5.982   1.773   4.640  1.6425  0.3627 -0.8755
  926MOL0     H24947   6.077   1.477   4.638 -1.0171 -0.9729  2.4701
  926MOL0     H24948   6.005   1.556   4.772  0.0092 -1.2382  0.1033
  926MOL0     H24949   6.167   1.698   4.823  2.4411 -0.2989  0.6252
  926MOL0     H24950   6.228   1.705   4.652 -0.1054 -1.0302 -1.3469
  926MOL0     H24951   6.388   1.554   4.833  1.2476 -1.6445 -0.9526
  926MOL0     H24952   6.256   1.447   4.817 -1.9662  0.4801  0.2616
  926MOL0     H24953   6.309   1.470   4.565 -2.1690  0.7154  2.0970
  926MOL0     H24954   6.445   1.560   4.600  0.1330  1.2888  0.2577
  926MOL0     H24955   6.494   1.356   4.773 -2.2167 -1.8883  1.8305
  926MOL0     H24956   6.375   1.272   4.675  0.4105  0.9268  2.0922
  926MOL0     H24957   6.623   1.416   4.573 -0.8690  0.8221  2.1539
  926MOL0     H24958   6.513   1.309   4.475  1.9808 -1.0706 -1.4415
  926MOL0     H24959   6.706   1.195   4.473 -1.1409 -1.1320 -0.1734
  926MOL0     H24960   6.755   1.226   4.643  0.5795 -1.6176  1.4111
  926MOL0     H24961   6.710   1.038   4.804  0.3389  1.5649 -0.9542
  926MOL0     H24962   6.692   0.777   4.820 -0.7830  3.6785 -1.1592
  926MOL0     H24963   6.553   0.817   4.921 -3.8008 -0.3416 -0.6138
  926MOL0     H24964   6.417   0.670   4.745 -0.2401  1.0210 -1.2446
  926MOL0     H24965   6.566   0.608   4.686  2.6254  1.0776  1.0310
  926MOL0     H24966   6.474   0.445   4.855 -0.2392 -0.3355  1.3501
  926MOL0     H24967   6.461   0.576   4.970 -0.2556  2.4588 -0.4321
  926MOL0     H24968   6.644   0.427   5.020  1.9152  1.3362  2.3847
  926MOL0     H24969   6.700   0.590   5.000  0.1943 -2.6177  2.5131
  926MOL0     H24970   6.853   0.424   5.078  0.6596  2.6227  0.2034
  926MOL0     H24971   7.102   0.379   5.138 -1.2240 -3.4574  0.3274
  926MOL0     H24972   7.519   0.500   5.143  5.1856  1.5590  0.5043
  926MOL0     H24973   7.751   0.448   5.225 -2.0672  2.2427  1.4366
  926MOL0     H24974   7.946   0.194   5.099 -1.2451  0.5016 -0.2190
  926MOL0     H24975   7.973   0.330   5.216  1.0162 -0.0872 -0.7789
  926MOL0     H24976   8.162   0.225   5.247 -0.7747 -0.3242 -1.2428
  926MOL0     H24977   8.068   0.184   5.388  3.8542  0.2308 -0.7389
  926MOL0     H24978   8.006  -0.035   5.289  0.1724  0.3793 -0.5961
  926MOL0     H24979   8.100  -0.001   5.144  0.9914  0.3368  0.1863
  926MOL0     H24980   8.215  -0.029   5.422 -0.4357 -0.6666  0.5765
  926MOL0     H24981   8.313  -0.010   5.277 -0.0790  0.1504  2.1318
  926MOL0     H24982   8.265  -0.221   5.191 -0.8457 -1.4187 -1.7932
  926MOL0     H24983   8.121  -0.242   5.266  0.3877  1.6500 -2.5878
  926MOL0     H24984   8.230  -0.256   5.487 -0.2801  2.1430 -1.5126
  926MOL0     H24985   8.293  -0.389   5.391 -1.0847 -0.2990 -2.4610
  926MOL0     H24986   8.489  -0.251   5.509  1.8625 -2.6465 -1.0105
  926MOL0     H24987   8.449  -0.124   5.385  1.8294 -0.3694 -2.2515
  926MOL0     H24988   8.544  -0.409   5.329  0.1549  0.2920  1.3417
  926MOL0     H24989   8.484  -0.296   5.211 -3.6748  0.0757  1.5275
  926MOL0     H24990   7.653   0.028   5.180  0.9745  0.5570  2.0025
  926MOL0     H24991   7.417   0.099   5.102 -1.6052  1.8295 -2.5400
  926MOL0     H24992   7.175   0.343   4.710 -1.3492 -0.9416 -0.2150
  926MOL0     H24993   6.932   0.381   4.675  1.4056 -3.9608 -0.2051
  926MOL0     H24994   5.641   1.513   4.516 -0.0142 -0.5618  0.4639
  926MOL0     H24995   5.431   1.543   4.648  0.8577 -3.0674  0.7714
  926MOL0     H24996   5.165   1.759   4.855  2.3434 -0.4092 -0.2199
  926MOL0     H24997   4.938   1.783   4.934 -1.7412 -1.1193  1.3932
  926MOL0     H24998   4.822   1.530   5.302 -1.7575  0.2263  2.4879
  926MOL0     H24999   4.684   1.631   5.284 -0.3801 -0.4814 -2.4405
  926MOL0     H25000   4.950   1.737   5.370  0.5718  1.9541  0.7568
  926MOL0     H25001   4.811   1.704   5.458 -0.1444  1.4351 -0.5260
  926MOL0     H25002   4.824   1.909   5.221 -0.7963  0.5045 -0.0747
  926MOL0     H25003   4.840   1.948   5.394 -0.7523 -0.3050  0.5821
  926MOL0     H25004   4.602   1.989   5.283  0.0105  0.5791  0.1646
  926MOL0     H25005   4.590   1.819   5.273  1.0888  0.4415 -0.9895
  926MOL0     H25006   4.459   1.895   5.654 -0.8359  1.0410  0.7841
  926MOL0     H25007   5.015   1.479   5.212  1.2979 -0.5885  0.2688
  926MOL0     H25008   5.342   1.511   5.243 -0.1984  1.4939 -1.2037
  926MOL0     H25009   5.197   1.393   5.248 -0.6263 -0.4524 -1.2918
  926MOL0     H25010   5.321   1.377   5.121  1.3838 -0.4217  0.6594
  927MOL0     O25011   1.658   0.211   6.762 -0.4023  0.2804  0.0604
  927MOL0     C25012   1.607   0.118   6.703 -0.5922  0.2207  0.5736
  927MOL0     O25013   1.686   0.019   6.643  0.0141  0.2543 -0.1365
  927MOL0     C25014   1.823   0.034   6.644  0.1536  0.3530 -0.0611
  927MOL0     C25015   1.887   0.152   6.589 -0.2658 -0.0555  0.4270
  927MOL0     C25016   2.029   0.160   6.587  0.5069 -0.0693 -0.9958
  927MOL0     C25017   2.120   0.062   6.647  0.0120  0.1946  1.1185
  927MOL0     O25018   2.254   0.103   6.649  0.6275 -0.4585  0.1673
  927MOL0     C25019   2.333   0.038   6.746  1.0140 -0.5323  0.3958
  927MOL0     C25020   2.476   0.078   6.724 -0.8117  0.4753  0.0653
  927MOL0     C25021   2.560   0.012   6.828 -0.4973 -0.4820 -0.5302
  927MOL0     C25022   2.700   0.082   6.821 -0.7921 -0.1715  0.7735
  927MOL0     C25023   2.788   0.031   6.930 -0.3868  0.1373 -0.4898
  927MOL0     C25024   2.934   0.073   6.908 -0.4051 -0.5912 -0.2654
  927MOL0     C25025   3.021  -0.012   7.005  0.1627  0.2963  0.6443
  927MOL0     C25026   3.169   0.041   6.994  0.8865  0.2034 -0.5505
  927MOL0     N25027   3.242  -0.026   7.098  0.5409  0.1432 -0.6928
  927MOL0     C25028   3.345  -0.122   7.069  0.2513  0.4366 -0.5831
  927MOL0     C25029   3.393  -0.143   7.192 -0.9024 -0.2072 -0.6023
  927MOL0     C25030   3.513  -0.238   7.224  1.2184 -0.3710 -1.1232
  927MOL0     C25031   3.612  -0.157   7.314 -0.1005  0.8498 -0.6646
  927MOL0     C25032   3.756  -0.226   7.320 -0.5100 -0.1198 -0.3186
  927MOL0     C25033   3.875  -0.146   7.358  0.0595  0.0087  0.4397
  927MOL0     O25034   3.892  -0.039   7.262 -0.3882 -0.3463  1.0568
  927MOL0     C25035   3.997   0.050   7.277  0.2141  0.7188  0.6019
  927MOL0     C25036   4.101   0.033   7.366 -0.2661 -0.3716  0.0298
  927MOL0     C25037   4.206   0.126   7.379  0.3796  0.3933  0.3512
  927MOL0     C25038   4.218   0.231   7.286  0.3241  0.2613  0.8611
  927MOL0     C25039   4.334   0.318   7.290 -0.4620  0.3693  0.3856
  927MOL0     O25040   4.427   0.303   7.404 -0.1253 -0.2491 -0.3143
  927MOL0     C25041   4.548   0.373   7.426 -0.0836 -0.8510  0.2737
  927MOL0     C25042   4.649   0.315   7.502 -0.0016  0.3198 -1.4799
  927MOL0     C25043   4.759   0.394   7.527 -0.3916  0.5999  0.2671
  927MOL0     C25044   4.780   0.517   7.471  0.2159  0.2146 -0.1445
  927MOL0     O25045   4.915   0.557   7.482 -0.1115  0.2519 -0.7664
  927MOL0     C25046   4.945   0.686   7.424  0.1602 -0.0905  0.2610
  927MOL0     C25047   5.087   0.721   7.455  0.4785 -0.3331 -0.4156
  927MOL0     C25048   5.091   0.842   7.549 -0.1393 -0.0838  0.2734
  927MOL0     C25049   5.230   0.861   7.617  0.9868 -0.3790 -0.6570
  927MOL0     C25050   5.217   0.992   7.697 -0.5066  0.6887  1.0311
  927MOL0     C25051   5.351   1.018   7.775 -0.3429 -0.3379 -0.9163
  927MOL0     C25052   5.335   1.149   7.850  0.1595 -0.2701 -0.9023
  927MOL0     C25053   5.350   1.128   7.998  1.6745  0.4312  0.6169
  927MOL0    Cl25054   5.212   1.021   8.041  0.1782 -0.1089 -0.9155
  927MOL0     C25055   4.678   0.568   7.387 -0.8546 -0.2572 -0.6840
  927MOL0     C25056   4.561   0.506   7.373  0.3835  0.8594  0.5894
  927MOL0     O25057   4.340   0.404   7.196 -0.6580  0.1941  0.3311
  927MOL0     C25058   4.114   0.257   7.200 -0.1418 -0.0840 -0.0273
  927MOL0     C25059   4.006   0.160   7.193  1.0115 -0.5567 -0.4111
  927MOL0     N25060   3.316  -0.080   7.293 -0.0833  0.1927 -0.3214
  927MOL0     N25061   3.223  -0.008   7.234 -0.5431 -0.3826  0.3213
  927MOL0     C25062   2.059  -0.057   6.690 -0.2331  0.4459 -0.1013
  927MOL0     C25063   1.913  -0.073   6.688 -1.3792 -1.0971 -1.1401
  927MOL0     C25064   1.462   0.101   6.693 -0.7802  0.1567 -0.2217
  927MOL0     C25065   1.411  -0.005   6.625 -0.2366  0.1121  0.4463
  927MOL0     C25066   1.278  -0.032   6.606 -0.4520  0.6821  0.0102
  927MOL0     C25067   1.179   0.057   6.662  0.0352  0.9442  0.4564
  927MOL0     O25068   1.041   0.054   6.641 -0.4441 -0.3202 -0.5285
  927MOL0     C25069   0.990  -0.070   6.590  0.2258  0.4606  0.4268
  927MOL0     C25070   0.837  -0.072   6.583 -0.1312  0.2828  0.8090
  927MOL0     C25071   0.759  -0.041   6.708  0.0742  0.1088 -0.2939
  927MOL0     C25072   0.642  -0.146   6.732 -0.3835  0.9877  0.0865
  927MOL0     C25073   0.688  -0.283   6.779 -0.5071 -0.7132  0.5740
  927MOL0     C25074   0.710  -0.392   6.819  0.4435  0.7801 -0.4577
  927MOL0     C25075   1.238   0.166   6.730  0.2353  0.0923 -1.1164
  927MOL0     C25076   1.373   0.191   6.757  0.4614 -0.2172  0.5025
  927MOL0     C25077   1.413   0.311   6.854  0.1129  0.4136  0.2184
  927MOL0     H25078   1.828   0.232   6.547 -1.2533 -1.8424 -1.8177
  927MOL0     H25079   2.078   0.251   6.556 -0.1122 -0.5720 -3.7051
  927MOL0     H25080   2.289   0.066   6.841 -4.1918 -0.5082 -1.7115
  927MOL0     H25081   2.335  -0.070   6.726  0.0671 -0.3772 -0.6525
  927MOL0     H25082   2.490   0.181   6.755  1.4099 -0.2471  1.7000
  927MOL0     H25083   2.515   0.071   6.622 -2.3448 -0.2009 -0.5076
  927MOL0     H25084   2.577  -0.093   6.803  0.4719 -0.7252  1.0312
  927MOL0     H25085   2.515   0.016   6.928 -0.3032  1.3215 -0.4808
  927MOL0     H25086   2.757   0.073   6.728  0.4582 -1.3808  1.6184
  927MOL0     H25087   2.697   0.191   6.835  0.9247  0.9947 -5.0978
  927MOL0     H25088   2.760   0.069   7.029  0.6219  1.4862 -0.6827
  927MOL0     H25089   2.791  -0.078   6.935 -1.3949  0.1381  0.2583
  927MOL0     H25090   2.971   0.048   6.808  2.1527 -2.7838  1.0673
  927MOL0     H25091   2.950   0.178   6.937 -0.8970 -0.6434  0.2056
  927MOL0     H25092   3.020  -0.117   6.976  1.9614  0.3488  0.2758
  927MOL0     H25093   2.975  -0.007   7.104 -0.8572 -0.4705  0.2237
  927MOL0     H25094   3.208   0.021   6.894  0.1313 -0.7350 -0.6711
  927MOL0     H25095   3.162   0.149   7.010 -0.8698  0.1121 -0.4578
  927MOL0     H25096   3.357  -0.170   6.973 -1.1090 -2.7912  0.7205
  927MOL0     H25097   3.476  -0.322   7.284 -0.3104 -0.9997 -2.8456
  927MOL0     H25098   3.559  -0.276   7.133  1.4604 -0.6935 -0.8688
  927MOL0     H25099   3.627  -0.052   7.286 -1.1747  2.0437  2.6733
  927MOL0     H25100   3.572  -0.161   7.416  2.1755 -1.7791  0.2584
  927MOL0     H25101   3.770  -0.276   7.223 -1.6925 -2.4525  0.6327
  927MOL0     H25102   3.747  -0.306   7.394 -0.1749 -0.7090 -0.8969
  927MOL0     H25103   3.965  -0.208   7.360 -0.1423 -0.2823  0.7916
  927MOL0     H25104   3.854  -0.119   7.462 -1.7994 -1.3689  0.4709
  927MOL0     H25105   4.089  -0.041   7.444 -1.2249  0.0768  0.3226
  927MOL0     H25106   4.266   0.104   7.467  2.9067  0.8471 -1.1397
  927MOL0     H25107   4.633   0.220   7.551  4.7357 -1.6310 -3.0587
  927MOL0     H25108   4.830   0.337   7.587 -3.6944 -4.8473 -0.3105
  927MOL0     H25109   4.929   0.674   7.316  1.1049 -0.0345  0.1035
  927MOL0     H25110   4.882   0.764   7.467  1.7664  2.0045 -0.9914
  927MOL0     H25111   5.145   0.643   7.505 -0.3837  0.5660  2.1761
  927MOL0     H25112   5.136   0.740   7.359  0.9303  0.8641  0.0323
  927MOL0     H25113   5.074   0.932   7.491  3.1216  0.9636  0.7080
  927MOL0     H25114   5.011   0.834   7.624  0.6419 -1.7060  0.9860
  927MOL0     H25115   5.310   0.881   7.545  2.1755  5.2325  1.6835
  927MOL0     H25116   5.250   0.774   7.681  4.0611  1.9417  1.8613
  927MOL0     H25117   5.131   0.991   7.764 -0.1311 -1.3576  1.5472
  927MOL0     H25118   5.197   1.076   7.631 -2.7259  0.4908  1.3732
  927MOL0     H25119   5.364   0.934   7.844  0.4889  0.2534 -0.3358
  927MOL0     H25120   5.438   1.011   7.709  0.0049 -0.5403 -0.4457
  927MOL0     H25121   5.236   1.194   7.844  1.4250  2.6982 -1.5981
  927MOL0     H25122   5.413   1.222   7.824  0.3149  0.4281  1.2591
  927MOL0     H25123   5.449   1.086   8.019  0.8048 -2.3156 -0.3318
  927MOL0     H25124   5.339   1.226   8.045  0.0287 -0.7769  2.9384
  927MOL0     H25125   4.689   0.662   7.334 -2.7391  1.4022  1.6394
  927MOL0     H25126   4.480   0.536   7.307 -0.3961 -0.5248  0.8711
  927MOL0     H25127   4.106   0.345   7.137  2.9419  1.0316  0.9065
  927MOL0     H25128   3.936   0.170   7.110 -1.0945 -0.4989  1.2759
  927MOL0     H25129   2.129  -0.122   6.742  0.8272  1.7604  0.1767
  927MOL0     H25130   1.880  -0.161   6.742  0.9164 -1.3337  0.0186
  927MOL0     H25131   1.479  -0.077   6.583 -0.2162  0.7903 -0.7286
  927MOL0     H25132   1.262  -0.123   6.550 -0.6530  2.2549 -2.6991
  927MOL0     H25133   1.033  -0.158   6.639  2.1378  0.9816 -0.2047
  927MOL0     H25134   1.026  -0.084   6.488  0.4067 -3.9432  0.9124
  927MOL0     H25135   0.795  -0.164   6.543  0.3411  0.4285 -0.0467
  927MOL0     H25136   0.805  -0.002   6.505  0.1857 -0.4100  0.0357
  927MOL0     H25137   0.707   0.053   6.690 -4.1942 -2.5201 -3.8903
  927MOL0     H25138   0.820  -0.025   6.797  0.7493  1.7286 -1.0127
  927MOL0     H25139   0.567  -0.122   6.808  0.3041  0.1970  1.0392
  927MOL0     H25140   0.584  -0.163   6.641  2.2398 -2.0996 -1.2123
  927MOL0     H25141   0.711  -0.493   6.856 -4.2031  1.0028  0.9045
  927MOL0     H25142   1.170   0.237   6.775 -1.6666 -2.2839 -0.0368
  927MOL0     H25143   1.448   0.398   6.797  0.6362 -0.3816 -0.7133
  927MOL0     H25144   1.325   0.340   6.912  1.8466  1.8055  2.2495
  927MOL0     H25145   1.486   0.261   6.918 -1.2835 -1.7200  0.2695
  928MOL0     O25146   9.713   1.534   0.828 -0.1312 -0.0017  0.2409
  928MOL0     C25147   9.668   1.495   0.721 -0.2460  0.5854  0.2163
  928MOL0     O25148   9.678   1.369   0.672  0.6787  0.5212  0.3124
  928MOL0     C25149   9.693   1.269   0.768 -0.3767 -0.3283  0.1115
  928MOL0     C25150   9.579   1.193   0.809  0.3526 -0.2173 -0.2056
  928MOL0     C25151   9.597   1.093   0.906 -0.1442  0.4653 -0.4148
  928MOL0     C25152   9.720   1.063   0.955 -0.9287 -1.0784  0.6540
  928MOL0     O25153   9.751   0.955   1.036  0.6399  0.1871 -0.0601
  928MOL0     C25154   9.649   0.903   1.125 -0.1691 -0.0586 -0.4881
  928MOL0     C25155   9.715   0.815   1.238  0.1408  0.1993 -0.0912
  928MOL0     C25156   9.778   0.908   1.343  0.1917  0.9377 -0.0029
  928MOL0     C25157   9.717   0.854   1.481 -0.1714 -0.5288 -0.5978
  928MOL0     C25158   9.798   0.913   1.601 -0.7634 -1.0353 -0.2760
  928MOL0     C25159   9.750   1.053   1.641  0.1329  0.2369  0.1454
  928MOL0     C25160   9.834   1.097   1.761 -0.2853 -0.1075 -0.3337
  928MOL0     C25161   9.800   1.237   1.800 -0.3586  0.2459  0.3175
  928MOL0     N25162   9.660   1.263   1.841  0.0843 -0.2859 -0.2650
  928MOL0     C25163   9.621   1.233   1.963  0.2851 -0.3513  0.2814
  928MOL0     C25164   9.507   1.315   1.980 -0.4479 -1.6527  0.2269
  928MOL0     C25165   9.432   1.339   2.110  0.2346 -0.1263 -0.0545
  928MOL0     C25166   9.422   1.476   2.153  0.1228 -0.7063 -0.4213
  928MOL0     C25167   9.563   1.541   2.182 -0.5409  0.4459  0.2003
  928MOL0     C25168   9.539   1.676   2.237  0.0131 -0.2376  0.4251
  928MOL0     O25169   9.657   1.750   2.240  0.9959  0.3726 -0.1947
  928MOL0     C25170   9.668   1.882   2.280  0.1499  0.5715  0.3495
  928MOL0     C25171   9.572   1.948   2.355  0.5089  0.4515  0.8727
  928MOL0     C25172   9.601   2.074   2.401  0.0746  0.0622 -0.6616
  928MOL0     C25173   9.720   2.143   2.383 -0.2716  0.3585 -0.8072
  928MOL0     C25174   9.742   2.279   2.411 -0.0239  0.0379 -0.1938
  928MOL0     O25175   9.865   2.339   2.384 -0.3600 -0.8310  0.3105
  928MOL0     C25176   9.881   2.480   2.397 -0.0461  0.2163 -0.4326
  928MOL0     C25177   9.784   2.587   2.407 -0.2795  0.8132  0.6659
  928MOL0     C25178   9.825   2.718   2.429  0.3094  0.7113  0.5340
  928MOL0     C25179   9.954   2.748   2.464 -0.5162  0.0850  0.3699
  928MOL0     O25180  10.003   2.879   2.474  0.1723 -0.3890  0.9756
  928MOL0     C25181  10.085   2.915   2.587  0.6615 -0.8215  0.1021
  928MOL0     C25182  10.220   2.981   2.551 -0.2376 -0.7164 -0.5411
  928MOL0     C25183  10.310   2.983   2.681 -0.0319 -0.1585 -0.3438
  928MOL0     C25184  10.437   3.070   2.649  0.4448 -0.4832  0.6119
  928MOL0     C25185  10.529   3.110   2.767 -0.0582 -0.0820 -0.7210
  928MOL0     C25186  10.446   3.159   2.887 -0.3446  0.2552 -0.2719
  928MOL0     C25187  10.348   3.280   2.856  0.0215  0.2117  0.3090
  928MOL0     C25188  10.409   3.421   2.887 -0.4369  0.4712  0.1655
  928MOL0    Cl25189  10.475   3.434   3.049 -0.1588  0.3641 -0.3977
  928MOL0     C25190  10.045   2.640   2.478  0.9395  0.3213  0.5228
  928MOL0     C25191  10.009   2.515   2.427 -0.2673 -0.5373 -0.1013
  928MOL0     O25192   9.641   2.334   2.453  0.4832 -0.2622  0.5491
  928MOL0     C25193   9.813   2.078   2.316 -0.6233 -0.0634  0.2904
  928MOL0     C25194   9.791   1.942   2.268 -0.4150 -0.4938  0.6564
  928MOL0     N25195   9.482   1.392   1.864 -0.3525  0.6661 -0.1960
  928MOL0     N25196   9.579   1.357   1.781  0.2389  0.4582 -0.8602
  928MOL0     C25197   9.839   1.126   0.904 -0.3644  0.3373 -0.4681
  928MOL0     C25198   9.822   1.230   0.810  0.3186 -0.1262  0.0273
  928MOL0     C25199   9.616   1.601   0.628 -0.0089 -0.0559  0.1922
  928MOL0     C25200   9.606   1.562   0.490 -0.4259  0.4445 -0.1204
  928MOL0     C25201   9.560   1.657   0.394 -1.1458 -0.4097  0.2273
  928MOL0     C25202   9.530   1.783   0.440  0.0619 -0.2928  0.6691
  928MOL0     O25203   9.518   1.888   0.346 -0.0777  0.5005  0.2418
  928MOL0     C25204   9.410   1.982   0.373  0.2996  0.0279  0.1225
  928MOL0     C25205   9.408   2.075   0.249  0.4617 -0.2911  0.1987
  928MOL0     C25206   9.547   2.089   0.174  0.3809  0.3605  0.0020
  928MOL0     C25207   9.564   2.211   0.085  0.3149 -0.2999  0.0392
  928MOL0     C25208   9.657   2.172  -0.026  0.2591  0.7411  0.6353
  928MOL0     C25209   9.729   2.175  -0.125 -0.6927  0.3096 -0.7768
  928MOL0     C25210   9.545   1.821   0.570 -0.4168  0.2286 -0.5678
  928MOL0     C25211   9.579   1.733   0.674 -0.0087  0.5622  0.4658
  928MOL0     C25212   9.594   1.784   0.812 -0.1338 -0.3565  0.0922
  928MOL0     H25213   9.476   1.224   0.795  0.3441  0.7892  1.6213
  928MOL0     H25214   9.508   1.050   0.950  2.6554 -1.9667  3.5294
  928MOL0     H25215   9.583   0.980   1.167  0.5023  0.3508 -0.1555
  928MOL0     H25216   9.592   0.831   1.066 -2.4522  0.9280  0.4035
  928MOL0     H25217   9.799   0.766   1.187 -0.1849  2.3409 -2.9401
  928MOL0     H25218   9.654   0.738   1.286  0.7243 -0.3751 -0.2601
  928MOL0     H25219   9.745   1.011   1.325  0.4338  0.8066 -1.2668
  928MOL0     H25220   9.886   0.910   1.327  0.0140  3.2871 -1.3047
  928MOL0     H25221   9.611   0.873   1.496  0.1361  1.1768 -0.4389
  928MOL0     H25222   9.731   0.745   1.476 -0.1281 -0.6159  1.0387
  928MOL0     H25223   9.797   0.853   1.692  2.9076  1.2112  1.4772
  928MOL0     H25224   9.903   0.921   1.572 -1.1398  0.4198 -1.3555
  928MOL0     H25225   9.774   1.126   1.563 -0.7624  0.0159 -0.3551
  928MOL0     H25226   9.641   1.055   1.656  0.1702 -1.9128  1.1638
  928MOL0     H25227   9.940   1.079   1.745 -0.5713 -1.9946 -0.3784
  928MOL0     H25228   9.813   1.026   1.842 -0.4836  0.4656  0.1284
  928MOL0     H25229   9.870   1.280   1.871 -0.8365  0.7002  0.5174
  928MOL0     H25230   9.816   1.303   1.714  2.6855 -1.2382 -0.4070
  928MOL0     H25231   9.673   1.166   2.030 -0.7294 -1.7146 -0.2352
  928MOL0     H25232   9.329   1.305   2.101  0.9947 -2.6377 -0.2376
  928MOL0     H25233   9.477   1.279   2.190 -4.4668 -1.0283  2.2625
  928MOL0     H25234   9.367   1.531   2.076 -1.5017  1.4238  2.0425
  928MOL0     H25235   9.361   1.497   2.242 -0.3220  1.9283 -1.2553
  928MOL0     H25236   9.618   1.554   2.089 -3.0518 -1.1192 -1.6005
  928MOL0     H25237   9.610   1.480   2.260 -1.9236 -1.8388 -0.6547
  928MOL0     H25238   9.507   1.668   2.341 -0.3837  1.7067  0.4734
  928MOL0     H25239   9.461   1.727   2.180  1.4938  0.0053 -1.4882
  928MOL0     H25240   9.471   1.914   2.374 -0.3812  2.1818 -0.3769
  928MOL0     H25241   9.524   2.128   2.456 -0.8887  0.0879 -1.9805
  928MOL0     H25242   9.680   2.564   2.386  0.2485  0.5362 -2.0271
  928MOL0     H25243   9.747   2.792   2.414 -0.4775 -0.7625 -4.4807
  928MOL0     H25244  10.036   2.975   2.665  0.7409 -0.1754 -0.3390
  928MOL0     H25245  10.093   2.825   2.648  0.7990 -1.3606 -0.6983
  928MOL0     H25246  10.263   2.910   2.479 -1.6199  0.9885 -3.2050
  928MOL0     H25247  10.196   3.080   2.511 -0.9989  0.3162  2.2498
  928MOL0     H25248  10.251   3.022   2.764 -2.9523 -0.1720 -2.2741
  928MOL0     H25249  10.345   2.883   2.709  0.2390 -0.1058 -0.4859
  928MOL0     H25250  10.411   3.164   2.600 -1.4552 -0.6715  1.2069
  928MOL0     H25251  10.488   3.015   2.568  0.6839  0.8238 -0.1489
  928MOL0     H25252  10.607   3.179   2.736 -0.0282  1.5131  2.5756
  928MOL0     H25253  10.583   3.020   2.797  0.9106  0.7931  0.2236
  928MOL0     H25254  10.389   3.074   2.926 -0.4655  0.7821  0.7466
  928MOL0     H25255  10.514   3.186   2.968 -2.3729 -0.1831  1.6729
  928MOL0     H25256  10.251   3.264   2.904 -3.0634  0.2864 -5.0691
  928MOL0     H25257  10.332   3.279   2.748  1.5238 -0.4274  0.0635
  928MOL0     H25258  10.480   3.439   2.806  0.0044 -0.7889  0.2607
  928MOL0     H25259  10.330   3.496   2.874  2.3701  3.4560 -1.2769
  928MOL0     H25260  10.150   2.666   2.491  1.0326  0.1095  0.2272
  928MOL0     H25261  10.080   2.433   2.426  1.1630  0.6437 -0.5152
  928MOL0     H25262   9.914   2.114   2.299 -0.4103 -0.6346  0.3136
  928MOL0     H25263   9.874   1.892   2.218 -0.7648 -0.7087  0.2842
  928MOL0     H25264   9.933   1.080   0.933 -0.8757 -1.1092 -0.9840
  928MOL0     H25265   9.914   1.279   0.778  1.0672 -1.9289 -0.6779
  928MOL0     H25266   9.625   1.460   0.461 -2.2452 -0.2158  0.8811
  928MOL0     H25267   9.566   1.639   0.287  2.7591  1.9592 -0.1252
  928MOL0     H25268   9.427   2.040   0.464 -0.9457  3.6730 -1.7592
  928MOL0     H25269   9.316   1.928   0.383 -0.9766  2.4555  2.4076
  928MOL0     H25270   9.370   2.177   0.259  3.0274  0.7891 -0.1917
  928MOL0     H25271   9.339   2.033   0.176 -0.1328 -1.4401  1.3892
  928MOL0     H25272   9.557   1.996   0.117  2.2373  1.0801 -0.9171
  928MOL0     H25273   9.629   2.102   0.245  0.6468 -0.0082 -0.2339
  928MOL0     H25274   9.472   2.253   0.043  0.8177  0.4328 -0.3609
  928MOL0     H25275   9.610   2.299   0.130 -1.9671  0.4503  1.0514
  928MOL0     H25276   9.791   2.175  -0.212  0.6730 -2.9901  0.0251
  928MOL0     H25277   9.534   1.926   0.592  0.7593 -0.0765  1.7507
  928MOL0     H25278   9.569   1.890   0.817  3.5205  0.7174 -1.2117
  928MOL0     H25279   9.529   1.728   0.880  3.3679 -2.4175  2.0828
  928MOL0     H25280   9.694   1.774   0.857  0.6759  1.0064 -1.3233
  929MOL0     O25281   0.459   6.716   8.924  0.4032  0.1300  0.9119
  929MOL0     C25282   0.361   6.793   8.934 -0.2687 -0.3240 -0.2944
  929MOL0     O25283   0.370   6.926   8.956 -0.2016 -0.1092  0.1958
  929MOL0     C25284   0.496   6.987   8.946  0.1171 -0.6600  0.5509
  929MOL0     C25285   0.512   7.094   8.856  0.9282  0.2795 -0.1828
  929MOL0     C25286   0.631   7.164   8.850 -0.4436  0.0909 -0.2245
  929MOL0     C25287   0.747   7.126   8.919  0.2085 -0.3518  0.3933
  929MOL0     O25288   0.874   7.184   8.921 -0.3513 -0.0014  0.6816
  929MOL0     C25289   0.904   7.310   8.861 -0.8587 -0.2277 -0.0396
  929MOL0     C25290   1.042   7.352   8.902 -0.7390 -0.2422 -0.0447
  929MOL0     C25291   1.150   7.259   8.843 -1.5587  0.1414  0.1336
  929MOL0     C25292   1.289   7.332   8.840 -0.9415 -0.1588  0.1096
  929MOL0     C25293   1.393   7.274   8.744 -0.9748  0.9187 -0.8890
  929MOL0     C25294   1.349   7.252   8.607  0.8386  0.6897  0.2580
  929MOL0     C25295   1.454   7.232   8.505  0.4059  0.0456  0.1055
  929MOL0     C25296   1.467   7.365   8.424  0.3068  1.0467 -1.0197
  929MOL0     N25297   1.576   7.349   8.331  0.5206 -0.3461 -0.0372
  929MOL0     C25298   1.571   7.270   8.222 -0.0840  0.2838  0.2880
  929MOL0     C25299   1.696   7.270   8.181 -0.2774 -0.7603 -0.0304
  929MOL0     C25300   1.754   7.206   8.058 -0.2802  0.5386  0.5252
  929MOL0     C25301   1.691   7.266   7.922 -0.2996  0.6121  0.1109
  929MOL0     C25302   1.719   7.426   7.926 -0.0239  0.1443 -0.6521
  929MOL0     C25303   1.700   7.486   7.779  0.5913 -0.3718  0.6307
  929MOL0     O25304   1.608   7.424   7.684  0.2368  0.3801 -0.2488
  929MOL0     C25305   1.473   7.440   7.700 -0.3682 -0.5405  0.1333
  929MOL0     C25306   1.410   7.468   7.813  0.6138  0.1602  0.6534
  929MOL0     C25307   1.272   7.469   7.820 -0.0623 -0.0165  0.4773
  929MOL0     C25308   1.200   7.438   7.708  0.4773  0.4196  0.7406
  929MOL0     C25309   1.050   7.438   7.704 -0.1259  0.5517  0.7446
  929MOL0     O25310   0.982   7.392   7.599 -0.6695  0.5280  0.0739
  929MOL0     C25311   0.851   7.346   7.616 -0.3019  0.3571 -0.3482
  929MOL0     C25312   0.817   7.223   7.573  0.0595  0.4172  0.0496
  929MOL0     C25313   0.682   7.185   7.581  0.9953  0.2229 -0.8674
  929MOL0     C25314   0.578   7.273   7.630 -0.5295 -0.0456  0.0448
  929MOL0     O25315   0.446   7.235   7.642 -0.5782  0.2507  0.8426
  929MOL0     C25316   0.414   7.129   7.729 -0.8328 -0.2515 -0.4974
  929MOL0     C25317   0.284   7.050   7.693  0.3361  0.6242 -0.4787
  929MOL0     C25318   0.164   7.142   7.731 -0.6437 -0.7375  0.0412
  929MOL0     C25319   0.033   7.073   7.684  0.1533 -0.8618 -0.6722
  929MOL0     C25320  -0.090   7.162   7.731 -0.0585  0.6080  0.8559
  929MOL0     C25321  -0.231   7.113   7.674  0.1217 -1.1594 -0.1844
  929MOL0     C25322  -0.264   6.961   7.701  0.4584 -0.5177 -0.2156
  929MOL0     C25323  -0.263   6.925   7.845  0.0602  0.1082  0.7270
  929MOL0    Cl25324  -0.410   7.004   7.906  0.6595 -0.2700 -0.0594
  929MOL0     C25325   0.605   7.408   7.640  0.0846  0.2872 -0.3341
  929MOL0     C25326   0.743   7.442   7.642  0.6402  0.4683  0.1708
  929MOL0     O25327   0.999   7.470   7.811  0.4793  0.3946  0.2386
  929MOL0     C25328   1.266   7.401   7.587 -0.4174 -0.8980  0.5897
  929MOL0     C25329   1.406   7.408   7.585  0.4559  0.0455  0.4148
  929MOL0     N25330   1.780   7.338   8.261 -0.5614 -0.1736 -0.8630
  929MOL0     N25331   1.700   7.393   8.351 -0.7330 -0.2241  0.2185
  929MOL0     C25332   0.738   7.019   9.004 -0.1152 -0.3667 -0.1237
  929MOL0     C25333   0.614   6.952   9.011 -0.2188  0.6207 -0.2707
  929MOL0     C25334   0.225   6.731   8.959 -0.1728 -0.3695  0.1501
  929MOL0     C25335   0.213   6.607   9.012 -0.3200  0.2765  0.4167
  929MOL0     C25336   0.087   6.559   9.042 -0.5477  0.1874 -0.6549
  929MOL0     C25337  -0.028   6.636   9.025  0.2896  0.1151 -0.1094
  929MOL0     O25338  -0.142   6.579   9.068  0.1837 -0.0685  0.1508
  929MOL0     C25339  -0.260   6.660   9.098 -0.4029  0.6261  0.3160
  929MOL0     C25340  -0.353   6.570   9.176 -0.2301  0.4031 -0.1480
  929MOL0     C25341  -0.300   6.504   9.312  0.0757  0.8832 -0.0465
  929MOL0     C25342  -0.297   6.353   9.299  0.8599 -0.4042 -1.0055
  929MOL0     C25343  -0.206   6.297   9.402 -0.9766 -0.1628  0.5755
  929MOL0     C25344  -0.112   6.250   9.473 -0.2014  0.2813  0.0265
  929MOL0     C25345  -0.016   6.767   8.974  0.4279  0.2291 -0.7972
  929MOL0     C25346   0.113   6.814   8.936 -0.0089 -0.8985 -0.2522
  929MOL0     C25347   0.128   6.946   8.859 -0.1148  0.5489  0.5517
  929MOL0     H25348   0.428   7.139   8.804  0.9381 -1.1020 -1.4496
  929MOL0     H25349   0.618   7.241   8.774 -0.0255 -0.3247 -0.7252
  929MOL0     H25350   0.910   7.309   8.752  2.3826  3.7778 -0.1436
  929MOL0     H25351   0.825   7.383   8.881 -1.8681 -1.5774  1.1726
  929MOL0     H25352   1.053   7.348   9.011  1.4204  0.1533 -0.1866
  929MOL0     H25353   1.056   7.456   8.871 -0.8593 -0.7357 -1.8657
  929MOL0     H25354   1.124   7.209   8.749 -1.8467 -2.1241  1.3387
  929MOL0     H25355   1.152   7.165   8.898  0.6150 -0.0749 -0.2185
  929MOL0     H25356   1.262   7.434   8.811 -0.5767  0.5004  1.9504
  929MOL0     H25357   1.339   7.332   8.937 -0.5755 -1.7257 -0.0531
  929MOL0     H25358   1.483   7.336   8.746  1.2532 -2.0323  0.7662
  929MOL0     H25359   1.425   7.176   8.782  0.8596  1.5389 -0.7042
  929MOL0     H25360   1.291   7.158   8.606  4.5857 -1.8304  0.3984
  929MOL0     H25361   1.279   7.332   8.581  0.2266 -0.0591 -0.4599
  929MOL0     H25362   1.423   7.161   8.428  0.9195  1.2219 -1.2360
  929MOL0     H25363   1.542   7.188   8.551  0.2247  0.0005  0.4135
  929MOL0     H25364   1.372   7.375   8.370 -1.3986 -0.2069  1.5370
  929MOL0     H25365   1.493   7.451   8.486  0.3533  1.3626 -1.4739
  929MOL0     H25366   1.492   7.230   8.158 -0.7046  3.5072 -1.1529
  929MOL0     H25367   1.863   7.214   8.062 -0.3015  0.3664  2.5268
  929MOL0     H25368   1.741   7.097   8.058  0.1452  0.1553 -5.5819
  929MOL0     H25369   1.732   7.218   7.832  1.4674  1.6665  0.3096
  929MOL0     H25370   1.585   7.244   7.911 -0.3228  0.5323  0.4842
  929MOL0     H25371   1.824   7.442   7.954  0.2198  0.7228 -1.8163
  929MOL0     H25372   1.659   7.481   7.999  0.9841  1.4334 -0.7482
  929MOL0     H25373   1.794   7.494   7.724 -1.6929 -0.0617 -3.7051
  929MOL0     H25374   1.677   7.593   7.788 -0.6452 -0.6450  0.9120
  929MOL0     H25375   1.462   7.505   7.900 -1.1266  1.2800  1.2692
  929MOL0     H25376   1.221   7.508   7.907  0.2863  0.5237  0.4397
  929MOL0     H25377   0.891   7.155   7.530 -2.4198 -0.9152 -2.5128
  929MOL0     H25378   0.650   7.081   7.571 -2.4735  1.0891 -0.1097
  929MOL0     H25379   0.490   7.051   7.722 -1.2087 -0.6753  0.0420
  929MOL0     H25380   0.412   7.167   7.832  0.8627 -1.7683  0.1330
  929MOL0     H25381   0.285   7.024   7.587 -1.3296 -1.1331 -0.1241
  929MOL0     H25382   0.263   6.962   7.754 -0.9796 -0.2135 -2.0489
  929MOL0     H25383   0.172   7.176   7.834  1.5396 -1.0861  0.0267
  929MOL0     H25384   0.167   7.233   7.670 -5.0722 -1.3832 -1.5421
  929MOL0     H25385   0.041   6.980   7.740 -3.4983 -2.9122 -3.1482
  929MOL0     H25386   0.035   7.039   7.580 -1.1876 -1.0161 -0.6645
  929MOL0     H25387  -0.084   7.266   7.698 -0.5949  0.0680 -1.0642
  929MOL0     H25388  -0.089   7.165   7.840  0.4755 -2.2599  1.0054
  929MOL0     H25389  -0.295   7.194   7.709  1.9071  0.2301  0.0714
  929MOL0     H25390  -0.226   7.128   7.566 -1.1834 -1.1416 -0.2552
  929MOL0     H25391  -0.187   6.906   7.646 -1.0608 -1.0228 -1.9118
  929MOL0     H25392  -0.361   6.935   7.658  0.2807  0.1574 -0.2455
  929MOL0     H25393  -0.284   6.818   7.855 -0.1822  0.2096  1.3518
  929MOL0     H25394  -0.182   6.970   7.903 -2.0834  1.7053  2.6528
  929MOL0     H25395   0.522   7.478   7.650  0.1972  0.3531  0.1736
  929MOL0     H25396   0.776   7.537   7.685  4.3509 -1.9582  3.3437
  929MOL0     H25397   1.217   7.387   7.492 -0.0250  2.6306 -0.2605
  929MOL0     H25398   1.461   7.363   7.503  1.5190 -0.7747  1.5420
  929MOL0     H25399   0.826   6.987   9.059  0.5448 -0.2230 -1.0646
  929MOL0     H25400   0.631   6.862   9.070  0.0039 -0.2750 -1.6414
  929MOL0     H25401   0.304   6.550   9.026 -0.6253 -0.3690 -0.2460
  929MOL0     H25402   0.064   6.460   9.079 -0.4313  0.8492  1.2823
  929MOL0     H25403  -0.311   6.699   9.009 -2.3046  1.3702  1.6748
  929MOL0     H25404  -0.242   6.752   9.153  0.7870  0.1378  0.7764
  929MOL0     H25405  -0.397   6.502   9.103  0.9183 -0.2780 -0.2220
  929MOL0     H25406  -0.429   6.641   9.212  1.5476  1.1405  2.4283
  929MOL0     H25407  -0.374   6.527   9.390  0.4738 -1.8401  1.2611
  929MOL0     H25408  -0.202   6.544   9.338 -0.0677  0.3792  1.3854
  929MOL0     H25409  -0.392   6.298   9.307  0.2404  0.5858 -1.4337
  929MOL0     H25410  -0.253   6.324   9.203  1.0890 -6.1971  0.4552
  929MOL0     H25411  -0.056   6.206   9.553 -2.5965 -1.4554  0.8584
  929MOL0     H25412  -0.106   6.823   8.950 -0.3376 -1.0542 -1.0029
  929MOL0     H25413   0.035   6.966   8.804 -1.3163 -4.2523  0.3200
  929MOL0     H25414   0.153   7.027   8.928 -1.1027  3.1873 -1.9640
  929MOL0     H25415   0.204   6.924   8.784 -0.5868 -2.9430  0.9330
  930MOL0     O25416   7.768   8.147  10.913  0.0576  0.0611  0.3708
  930MOL0     C25417   7.651   8.168  10.903 -0.5609 -0.7381 -0.2845
  930MOL0     O25418   7.597   8.285  10.861 -0.0193  0.3550  0.5041
  930MOL0     C25419   7.672   8.402  10.838  0.3410  0.3206 -0.0577
  930MOL0     C25420   7.666   8.515  10.920  0.2216 -0.3474 -0.3342
  930MOL0     C25421   7.745   8.629  10.904 -0.0840  0.2480 -0.7536
  930MOL0     C25422   7.833   8.637  10.798 -0.5669 -0.8770  0.7978
  930MOL0     O25423   7.919   8.741  10.769 -0.7657  0.2393  0.7462
  930MOL0     C25424   7.930   8.858  10.856 -0.2140  0.0564 -0.1471
  930MOL0     C25425   8.008   8.973  10.787 -0.1848  0.3351  1.0275
  930MOL0     C25426   8.162   8.955  10.778 -0.4418  0.1409 -0.2017
  930MOL0     C25427   8.205   8.839  10.695 -0.0759  0.2977  0.6194
  930MOL0     C25428   8.353   8.800  10.695  0.9670 -0.0585  0.5555
  930MOL0     C25429   8.435   8.925  10.672 -0.0367 -0.2662 -0.3711
  930MOL0     C25430   8.460   8.965  10.530 -0.4402 -0.4646  0.7967
  930MOL0     C25431   8.518   9.103  10.517  0.5122  0.2740  0.2388
  930MOL0     N25432   8.637   9.122  10.598  0.3053 -0.8770  0.2281
  930MOL0     C25433   8.764   9.077  10.569  0.0625  0.9550  0.0035
  930MOL0     C25434   8.830   9.129  10.672 -0.1619 -0.2009 -0.4255
  930MOL0     C25435   8.979   9.115  10.705 -0.3446  0.2109 -0.7280
  930MOL0     C25436   9.071   9.170  10.601  0.8540 -1.0241  0.2551
  930MOL0     C25437   9.080   9.080  10.470  0.0052 -0.1258  0.0839
  930MOL0     C25438   9.218   9.104  10.404  1.1656  0.2584  0.0464
  930MOL0     O25439   9.231   9.241  10.365 -0.2345  0.2166  1.1946
  930MOL0     C25440   9.355   9.289  10.322  0.0846 -0.0768 -0.0305
  930MOL0     C25441   9.474   9.213  10.311 -0.2342 -0.0827  1.2429
  930MOL0     C25442   9.591   9.284  10.275  0.1208  0.1764  0.2785
  930MOL0     C25443   9.592   9.420  10.263  0.4011 -0.6673 -0.8348
  930MOL0     C25444   9.710   9.501  10.235  0.2558 -1.7837 -0.5034
  930MOL0     O25445   9.820   9.431  10.205  0.3333  0.3998  0.3837
  930MOL0     C25446   9.938   9.494  10.177 -0.2858  0.0455  0.3672
  930MOL0     C25447  10.012   9.447  10.069 -0.2140 -0.0468 -0.5576
  930MOL0     C25448  10.145   9.497  10.046  0.5535  0.4197 -0.0854
  930MOL0     C25449  10.205   9.589  10.134  0.3763  0.8062  0.1078
  930MOL0     O25450  10.332   9.636  10.114 -0.1625  0.2777  0.1323
  930MOL0     C25451  10.405   9.706  10.221  0.1981 -0.2860 -0.6724
  930MOL0     C25452  10.554   9.724  10.173  0.8930  0.2159 -0.3359
  930MOL0     C25453  10.631   9.816  10.262  1.1000 -0.4291 -0.9908
  930MOL0     C25454  10.773   9.846  10.207  0.3007 -0.3815  0.6034
  930MOL0     C25455  10.847   9.931  10.316 -0.9537  0.4861  0.5805
  930MOL0     C25456  10.973   9.994  10.248 -0.1042 -0.4479 -1.2137
  930MOL0     C25457  11.074  10.057  10.346 -0.0847  0.1212  0.2076
  930MOL0     C25458  11.198  10.119  10.282 -0.1341  0.0722  0.5600
  930MOL0    Cl25459  11.160  10.232  10.141  0.2745  0.0402  0.1161
  930MOL0     C25460  10.131   9.610  10.256  0.7338 -0.3440  0.0080
  930MOL0     C25461  10.009   9.560  10.271 -0.2458  0.1293 -0.5785
  930MOL0     O25462   9.700   9.628  10.251 -0.5187  0.0348  0.1331
  930MOL0     C25463   9.474   9.498  10.277  0.3917  0.3131 -1.0015
  930MOL0     C25464   9.353   9.425  10.292 -0.5021 -0.6225 -0.5916
  930MOL0     N25465   8.753   9.197  10.756  0.4719  0.0778 -0.8197
  930MOL0     N25466   8.635   9.189  10.713  0.3328 -0.0964  0.1114
  930MOL0     C25467   7.838   8.530  10.706 -0.4423  0.0885  0.4037
  930MOL0     C25468   7.764   8.407  10.730  0.7104 -0.6409 -0.3254
  930MOL0     C25469   7.554   8.050  10.929 -1.2019 -0.3675  0.5835
  930MOL0     C25470   7.416   8.080  10.960  0.0130  0.4274  0.3315
  930MOL0     C25471   7.312   7.991  10.983 -0.0335 -0.7207 -1.0112
  930MOL0     C25472   7.344   7.848  10.996  0.6251  0.4227 -0.0745
  930MOL0     O25473   7.257   7.748  11.016  0.3696  0.2480 -0.5050
  930MOL0     C25474   7.141   7.751  11.105 -0.8337  0.6321 -0.6838
  930MOL0     C25475   7.040   7.635  11.071 -0.9853  0.6182  0.8950
  930MOL0     C25476   6.937   7.585  11.176 -0.3639  0.0223  0.3865
  930MOL0     C25477   6.815   7.522  11.109  0.4650  0.3166 -1.1023
  930MOL0     C25478   6.690   7.535  11.186  0.0591 -0.2485  0.4345
  930MOL0     C25479   6.604   7.574  11.266  0.1242  0.2691  0.1100
  930MOL0     C25480   7.482   7.815  10.975  0.3138  0.8338 -0.2257
  930MOL0     C25481   7.582   7.906  10.939 -0.6875 -0.1793 -0.1618
  930MOL0     C25482   7.717   7.851  10.912  0.5924 -0.0982 -0.2045
  930MOL0     H25483   7.593   8.508  10.999  2.1966 -1.7273  1.4839
  930MOL0     H25484   7.737   8.709  10.978  2.2673 -0.0172 -0.1335
  930MOL0     H25485   7.826   8.883  10.877 -0.5597 -0.0910 -1.5730
  930MOL0     H25486   7.982   8.834  10.949  0.9537 -0.8091 -0.9809
  930MOL0     H25487   7.998   9.066  10.842 -0.3445  0.7965  0.2301
  930MOL0     H25488   7.970   8.998  10.688  1.4635  2.2737  0.8198
  930MOL0     H25489   8.205   8.945  10.878 -0.7705 -0.0585 -0.0807
  930MOL0     H25490   8.214   9.040  10.731 -0.6979 -1.2237 -3.1850
  930MOL0     H25491   8.156   8.745  10.723  2.5191 -0.4708  3.0029
  930MOL0     H25492   8.180   8.865  10.591  0.8813 -3.4161 -0.7200
  930MOL0     H25493   8.380   8.761  10.794  0.0972 -1.6483  0.1976
  930MOL0     H25494   8.372   8.724  10.618  0.7357  2.7405 -2.5132
  930MOL0     H25495   8.425   9.006  10.745  2.7268 -1.4494  1.4788
  930MOL0     H25496   8.534   8.887  10.699 -1.2061 -4.2673 -1.1530
  930MOL0     H25497   8.364   8.950  10.479 -0.0157  0.8904 -0.4661
  930MOL0     H25498   8.532   8.899  10.481 -0.7002 -1.5701  1.8555
  930MOL0     H25499   8.543   9.125  10.413 -1.6546  0.8275 -0.2071
  930MOL0     H25500   8.446   9.180  10.546  0.7719  1.2685 -1.6091
  930MOL0     H25501   8.785   9.021  10.478 -1.0526  2.0503 -0.9652
  930MOL0     H25502   8.998   9.170  10.798 -1.2469 -1.0686  0.2457
  930MOL0     H25503   9.011   9.012  10.721 -0.2554  0.4607  0.8715
  930MOL0     H25504   9.039   9.273  10.587  4.9951  0.8586  2.6105
  930MOL0     H25505   9.171   9.177  10.645  0.2840 -0.4213  1.5183
  930MOL0     H25506   9.011   9.111  10.391  1.8493 -0.0516 -1.5934
  930MOL0     H25507   9.067   8.973  10.485  2.9862 -1.0086 -2.4984
  930MOL0     H25508   9.230   9.042  10.314  2.2640 -0.0546  0.3937
  930MOL0     H25509   9.298   9.079  10.474  2.6071  1.7439 -0.9980
  930MOL0     H25510   9.486   9.108  10.332  3.2093 -0.1084 -0.2464
  930MOL0     H25511   9.675   9.221  10.245 -1.9611 -0.5552 -5.0084
  930MOL0     H25512   9.978   9.378   9.992  0.6392 -1.1885  0.0414
  930MOL0     H25513  10.201   9.466   9.959 -1.5463 -1.0307 -1.0211
  930MOL0     H25514  10.354   9.800  10.246  0.0747 -1.0279  2.1517
  930MOL0     H25515  10.398   9.655  10.317 -0.2694  0.7160 -0.1577
  930MOL0     H25516  10.602   9.627  10.189  0.0723  0.1176  1.8852
  930MOL0     H25517  10.558   9.763  10.071 -1.4871  3.1619  0.5517
  930MOL0     H25518  10.574   9.907  10.283  2.3794  0.4092 -0.9608
  930MOL0     H25519  10.647   9.765  10.358  0.3876  2.2188  0.6647
  930MOL0     H25520  10.768   9.906  10.115  3.4985  0.1924  0.6751
  930MOL0     H25521  10.824   9.751  10.188 -0.4751 -0.8375  0.7355
  930MOL0     H25522  10.880   9.868  10.399 -3.8968 -0.6606  1.0029
  930MOL0     H25523  10.795  10.021  10.350  0.1613  2.0669 -1.5719
  930MOL0     H25524  11.019   9.925  10.176 -2.7920 -2.7680 -0.8563
  930MOL0     H25525  10.926  10.077  10.195 -1.7751  0.6577  1.7649
  930MOL0     H25526  11.108   9.980  10.416 -0.1273 -0.3572 -0.2939
  930MOL0     H25527  11.025  10.138  10.401 -1.9317 -0.5947 -0.2817
  930MOL0     H25528  11.266  10.172  10.350 -0.0713  2.3406 -1.1493
  930MOL0     H25529  11.269  10.039  10.259  0.1028 -0.0678  1.7011
  930MOL0     H25530  10.181   9.653  10.343  3.4870 -1.0595 -1.0966
  930MOL0     H25531   9.952   9.587  10.358 -0.0088  0.1119 -0.4164
  930MOL0     H25532   9.461   9.606  10.283 -1.5410  0.0547  3.1835
  930MOL0     H25533   9.262   9.483  10.302  0.1838  1.0605 -3.1504
  930MOL0     H25534   7.907   8.528  10.623  3.5099 -1.4495  3.4234
  930MOL0     H25535   7.762   8.327  10.657 -1.9024  1.1119 -2.3857
  930MOL0     H25536   7.382   8.181  10.941 -0.9026  0.4252  1.7860
  930MOL0     H25537   7.213   8.020  11.017 -0.9429 -1.9967 -2.4315
  930MOL0     H25538   7.088   7.844  11.083 -0.8824  0.6481 -0.4976
  930MOL0     H25539   7.177   7.751  11.208  1.5150  4.8089 -1.2822
  930MOL0     H25540   7.088   7.550  11.022  0.8179 -0.0605  3.6022
  930MOL0     H25541   6.980   7.673  10.989  0.0708 -0.1549 -0.2626
  930MOL0     H25542   6.894   7.678  11.214 -3.7485 -0.0597 -2.7185
  930MOL0     H25543   6.980   7.516  11.250 -0.0700  0.9013  1.0521
  930MOL0     H25544   6.799   7.554  11.006 -2.0582 -3.2266 -2.0223
  930MOL0     H25545   6.837   7.416  11.093 -0.1779 -0.3553  1.8420
  930MOL0     H25546   6.524   7.606  11.329 -0.6292 -1.3111  0.0074
  930MOL0     H25547   7.502   7.708  10.978 -1.7200  0.3999 -0.3469
  930MOL0     H25548   7.720   7.741  10.917  0.8156 -0.1360 -1.0565
  930MOL0     H25549   7.757   7.874  10.813  1.9822  0.8558  0.5437
  930MOL0     H25550   7.783   7.896  10.987  0.8582  1.0596 -1.1191
  931MOL0     O25551   5.298   2.491   2.520  0.1308  0.3732  0.6127
  931MOL0     C25552   5.240   2.449   2.418  0.5492 -0.9064  0.4303
  931MOL0     O25553   5.276   2.478   2.288 -0.6391  0.2200 -0.3358
  931MOL0     C25554   5.400   2.529   2.250  0.5536 -0.3358  0.0696
  931MOL0     C25555   5.516   2.510   2.321 -0.5460  1.4786  0.4599
  931MOL0     C25556   5.644   2.556   2.282  0.3203  0.0542  0.5174
  931MOL0     C25557   5.648   2.633   2.167  0.0416 -0.1315  0.6581
  931MOL0     O25558   5.756   2.685   2.105 -0.3137  0.1041  0.5234
  931MOL0     C25559   5.888   2.676   2.175 -0.2131  0.4183  0.6272
  931MOL0     C25560   5.995   2.741   2.095 -0.0770  0.3502 -0.0663
  931MOL0     C25561   6.138   2.702   2.137 -0.8759  0.5614  0.3838
  931MOL0     C25562   6.242   2.728   2.023  0.3548  0.4705  0.3819
  931MOL0     C25563   6.376   2.705   2.071 -0.1770  0.3675 -0.1644
  931MOL0     C25564   6.484   2.747   1.976  0.2949 -0.0614  0.1149
  931MOL0     C25565   6.617   2.707   2.029 -0.6205 -0.3377  0.0960
  931MOL0     C25566   6.726   2.774   1.954 -0.3527 -0.2538 -0.2759
  931MOL0     N25567   6.857   2.755   2.009  0.1467  0.1091  0.0719
  931MOL0     C25568   6.961   2.701   1.944 -0.4340  1.0062  0.7054
  931MOL0     C25569   7.068   2.721   2.020 -0.7647  0.1896 -0.4777
  931MOL0     C25570   7.215   2.685   1.974 -0.0315 -0.2922  0.8985
  931MOL0     C25571   7.247   2.536   2.006  0.3774 -0.3700 -0.5067
  931MOL0     C25572   7.249   2.533   2.165 -0.1097  0.1506  0.0089
  931MOL0     C25573   7.367   2.607   2.232  0.7736  0.0282 -1.1084
  931MOL0     O25574   7.358   2.586   2.366 -0.6320  0.5821  0.1106
  931MOL0     C25575   7.491   2.554   2.419 -0.4954 -1.6225 -0.4408
  931MOL0     C25576   7.603   2.643   2.418  0.2638  0.6752 -0.2984
  931MOL0     C25577   7.726   2.610   2.455  0.1975 -1.2602  0.2801
  931MOL0     C25578   7.761   2.477   2.478  0.4450 -0.5183  0.0935
  931MOL0     C25579   7.900   2.430   2.494 -1.0700 -0.1301  0.3949
  931MOL0     O25580   8.006   2.520   2.489  0.7367 -0.3848  0.5187
  931MOL0     C25581   8.140   2.485   2.515  0.7823  0.6613  0.3182
  931MOL0     C25582   8.200   2.360   2.555 -0.3044  0.2195 -0.3294
  931MOL0     C25583   8.337   2.348   2.579 -1.1576  0.0919  0.3351
  931MOL0     C25584   8.417   2.462   2.563  0.5221  0.5870  0.5480
  931MOL0     O25585   8.553   2.452   2.554  0.0124  0.1466 -0.2594
  931MOL0     C25586   8.614   2.373   2.657 -0.0040 -0.0812 -0.1338
  931MOL0     C25587   8.768   2.393   2.678  1.1164 -0.0147 -0.6392
  931MOL0     C25588   8.811   2.534   2.655  0.7926 -0.1751  0.0197
  931MOL0     C25589   8.963   2.553   2.695  0.6668  0.2009  0.0195
  931MOL0     C25590   9.005   2.695   2.679 -0.1848  0.9391 -0.2815
  931MOL0     C25591   9.029   2.756   2.536 -0.6435  0.1409  0.4328
  931MOL0     C25592   9.154   2.703   2.462  0.1369 -0.6419  0.0957
  931MOL0     C25593   9.290   2.752   2.527  1.1835 -0.9812  0.3193
  931MOL0    Cl25594   9.435   2.679   2.464  0.4593  0.2778 -0.0157
  931MOL0     C25595   8.358   2.585   2.534  0.4342 -0.7804 -1.3451
  931MOL0     C25596   8.225   2.592   2.499  0.2695  0.4355 -0.6377
  931MOL0     O25597   7.910   2.311   2.523 -0.0206  0.1907 -0.5960
  931MOL0     C25598   7.650   2.388   2.485 -0.5815  0.3694  0.4504
  931MOL0     C25599   7.522   2.424   2.452 -0.6148 -0.4099 -0.3520
  931MOL0     N25600   7.035   2.789   2.139  0.7714  0.9041  0.8441
  931MOL0     N25601   6.903   2.808   2.128 -0.8399 -0.6136  0.0721
  931MOL0     C25602   5.537   2.634   2.084 -0.2816  0.2419  0.3898
  931MOL0     C25603   5.415   2.585   2.124  0.6751  0.1447  1.1630
  931MOL0     C25604   5.098   2.408   2.436  0.3130  0.2192  0.6510
  931MOL0     C25605   5.008   2.413   2.317  0.5756  0.6299 -0.5109
  931MOL0     C25606   4.873   2.378   2.326  0.2934 -0.3098  0.6788
  931MOL0     C25607   4.822   2.322   2.436  0.6613  1.0847  0.6835
  931MOL0     O25608   4.688   2.266   2.438 -0.3720  0.5113  0.1321
  931MOL0     C25609   4.656   2.174   2.330 -0.8297 -0.4826  0.2281
  931MOL0     C25610   4.511   2.125   2.338  0.6156 -0.5547 -0.5498
  931MOL0     C25611   4.408   2.225   2.293  0.2879  0.1137 -0.2668
  931MOL0     C25612   4.265   2.161   2.273  0.3024 -0.2407  0.4569
  931MOL0     C25613   4.217   2.118   2.405 -0.1299 -0.7197 -0.8190
  931MOL0     C25614   4.195   2.080   2.513  0.0917 -1.4427  0.3878
  931MOL0     C25615   4.904   2.313   2.548  0.7446 -0.9302  0.7015
  931MOL0     C25616   5.038   2.347   2.552  0.4941 -0.4940  0.2761
  931MOL0     C25617   5.127   2.320   2.676 -0.2097 -0.0471  0.1922
  931MOL0     H25618   5.493   2.448   2.406 -2.4166 -0.4650 -1.3472
  931MOL0     H25619   5.736   2.548   2.339  0.1981 -1.7969  0.5293
  931MOL0     H25620   5.885   2.701   2.282  1.6216 -0.6380  0.9517
  931MOL0     H25621   5.920   2.571   2.180 -1.7494 -0.1700 -0.8178
  931MOL0     H25622   5.980   2.848   2.111  1.5673  1.2074 -3.3782
  931MOL0     H25623   5.988   2.735   1.986  0.1866 -1.1379 -0.0236
  931MOL0     H25624   6.144   2.598   2.171 -1.6218 -0.0907 -1.3742
  931MOL0     H25625   6.162   2.764   2.224  2.7906  1.7373 -1.2948
  931MOL0     H25626   6.224   2.666   1.935  0.7051  1.1788 -0.1981
  931MOL0     H25627   6.236   2.834   1.995 -1.5225 -0.6354 -4.1781
  931MOL0     H25628   6.391   2.753   2.168  1.7048 -0.9644  0.2558
  931MOL0     H25629   6.388   2.599   2.097  0.8605  0.1614 -1.3823
  931MOL0     H25630   6.476   2.706   1.874 -3.5878  0.1071  0.1830
  931MOL0     H25631   6.464   2.853   1.956 -1.1265 -0.5392 -1.2580
  931MOL0     H25632   6.620   2.599   2.041 -0.7157 -0.3688 -0.1343
  931MOL0     H25633   6.626   2.756   2.126 -0.1666 -0.2254  0.0000
  931MOL0     H25634   6.713   2.746   1.849  0.5619 -1.8020 -0.0102
  931MOL0     H25635   6.709   2.882   1.962 -0.5784 -0.3589  0.8656
  931MOL0     H25636   6.963   2.650   1.848  0.4958  0.0001  1.2336
  931MOL0     H25637   7.214   2.693   1.865 -0.7366  0.4290  0.9498
  931MOL0     H25638   7.291   2.753   2.011  1.7458 -1.2329 -0.8262
  931MOL0     H25639   7.159   2.474   1.984  2.1684 -3.1979 -0.1585
  931MOL0     H25640   7.339   2.510   1.952  0.7739 -1.3316  0.6055
  931MOL0     H25641   7.247   2.425   2.178 -2.8667  0.1392 -0.0046
  931MOL0     H25642   7.156   2.576   2.204  0.3450  2.8809 -1.6266
  931MOL0     H25643   7.364   2.715   2.214  0.0835  0.0818 -0.7236
  931MOL0     H25644   7.458   2.575   2.182  1.7898 -0.3501  0.8733
  931MOL0     H25645   7.568   2.746   2.411  0.4503  0.9149  1.6800
  931MOL0     H25646   7.803   2.687   2.461 -0.6433 -0.5070  2.3621
  931MOL0     H25647   8.138   2.272   2.564 -2.2477  1.5419 -0.0201
  931MOL0     H25648   8.381   2.256   2.615  0.5715  0.7998  0.0986
  931MOL0     H25649   8.562   2.393   2.750  2.1879  0.4845  1.0503
  931MOL0     H25650   8.606   2.265   2.639  1.3581 -0.3931  0.9259
  931MOL0     H25651   8.789   2.362   2.780  2.6606 -0.4876 -1.0783
  931MOL0     H25652   8.815   2.322   2.609  1.5654 -2.0079  1.5808
  931MOL0     H25653   8.796   2.558   2.550  2.0325 -3.0205 -0.8982
  931MOL0     H25654   8.753   2.603   2.718  0.4800 -0.2005 -0.2400
  931MOL0     H25655   9.032   2.495   2.634  0.2478 -0.5711  0.2652
  931MOL0     H25656   8.975   2.515   2.796  0.1024 -0.3517 -0.1140
  931MOL0     H25657   9.097   2.702   2.738 -0.8619 -0.2728  1.0006
  931MOL0     H25658   8.926   2.756   2.723 -1.0777  1.1617 -2.0904
  931MOL0     H25659   8.945   2.750   2.467 -0.3864  4.1327 -0.4821
  931MOL0     H25660   9.043   2.864   2.548  0.0597 -0.0621  1.6340
  931MOL0     H25661   9.164   2.729   2.356  3.2532 -2.2041 -0.0978
  931MOL0     H25662   9.155   2.594   2.471 -0.4861 -0.5794  1.0808
  931MOL0     H25663   9.296   2.861   2.527 -1.5670 -0.6584  3.8110
  931MOL0     H25664   9.284   2.745   2.636 -2.2748 -0.0609  0.3094
  931MOL0     H25665   8.434   2.663   2.530  1.1820 -1.3664  0.4494
  931MOL0     H25666   8.183   2.686   2.466 -2.1161 -0.1478  0.5543
  931MOL0     H25667   7.669   2.286   2.520 -2.9898  0.1547  1.3260
  931MOL0     H25668   7.441   2.354   2.464 -1.9197  1.2975  1.4023
  931MOL0     H25669   5.545   2.685   1.988  2.0449 -2.4592 -1.0028
  931MOL0     H25670   5.338   2.587   2.047  0.4177 -3.0249  1.1999
  931MOL0     H25671   5.046   2.455   2.224  0.5173  1.0433 -0.3501
  931MOL0     H25672   4.807   2.398   2.242  1.0024  1.1337  0.4353
  931MOL0     H25673   4.730   2.093   2.331  2.0780  1.9259 -1.9539
  931MOL0     H25674   4.669   2.227   2.236 -0.2281  1.8611  1.5531
  931MOL0     H25675   4.491   2.093   2.441  0.0900  1.7825  0.1313
  931MOL0     H25676   4.494   2.038   2.275  3.3482 -1.1658 -0.5900
  931MOL0     H25677   4.437   2.274   2.200 -2.0525  0.3572 -0.9342
  931MOL0     H25678   4.409   2.304   2.368  1.3834 -0.4490  0.3325
  931MOL0     H25679   4.198   2.235   2.227  3.9905  3.0151 -0.1952
  931MOL0     H25680   4.259   2.076   2.205 -1.4812  0.1451  0.0672
  931MOL0     H25681   4.180   2.053   2.616  2.6709  2.2709  1.9420
  931MOL0     H25682   4.868   2.252   2.631 -0.9994 -3.0552 -1.4676
  931MOL0     H25683   5.181   2.409   2.707 -2.2109  0.7092  1.7403
  931MOL0     H25684   5.075   2.286   2.765  1.4376  1.1920  1.6909
  931MOL0     H25685   5.202   2.247   2.644 -1.1349 -2.9504  4.0122
  932MOL0     O25686   8.978  10.899   9.135 -0.2575  0.2030  0.7059
  932MOL0     C25687   8.895  10.988   9.111 -0.4194 -0.0388 -0.3348
  932MOL0     O25688   8.925  11.115   9.061  0.3882  0.8293  0.5451
  932MOL0     C25689   9.062  11.134   9.055 -0.2818  0.1676 -0.3790
  932MOL0     C25690   9.133  11.099   8.937  0.1392 -0.1753 -0.9770
  932MOL0     C25691   9.264  11.144   8.926 -0.2425 -0.1416 -0.6246
  932MOL0     C25692   9.327  11.224   9.018 -0.0778  0.3738 -0.6408
  932MOL0     O25693   9.451  11.261   8.981  0.0955  0.8023  0.1884
  932MOL0     C25694   9.537  11.327   9.074 -0.0658 -0.3585  0.4113
  932MOL0     C25695   9.674  11.348   9.014  0.4584  0.2057 -0.7062
  932MOL0     C25696   9.670  11.445   8.892  0.8755  0.6135 -0.7699
  932MOL0     C25697   9.780  11.405   8.778  0.9263  0.2889  0.2497
  932MOL0     C25698   9.914  11.392   8.840 -0.3142  0.4660 -0.1072
  932MOL0     C25699  10.031  11.371   8.735 -0.5575 -0.0549 -0.1957
  932MOL0     C25700  10.034  11.463   8.615  0.2130 -0.3167 -0.2317
  932MOL0     C25701  10.170  11.436   8.543 -0.6208 -0.7878  0.2208
  932MOL0     N25702  10.282  11.515   8.609  0.4318  0.1444  0.2416
  932MOL0     C25703  10.308  11.646   8.588  0.9752  0.0440 -0.4234
  932MOL0     C25704  10.416  11.674   8.666 -0.2570 -0.3746 -0.2846
  932MOL0     C25705  10.478  11.810   8.687  0.1374  0.0963 -0.3241
  932MOL0     C25706  10.627  11.808   8.634 -0.8878 -0.7340 -0.5215
  932MOL0     C25707  10.691  11.947   8.672  0.7697  0.5005  0.5464
  932MOL0     C25708  10.827  11.962   8.606 -1.2904  0.3578 -0.2474
  932MOL0     O25709  10.865  12.093   8.653 -0.1585 -0.7397  0.0441
  932MOL0     C25710  10.991  12.148   8.627  0.1134 -0.1576  0.4533
  932MOL0     C25711  11.079  12.080   8.546  0.3639  0.0534  0.4596
  932MOL0     C25712  11.216  12.111   8.540  0.3123 -0.3928  0.2400
  932MOL0     C25713  11.267  12.219   8.602 -0.4601  0.4563  0.3487
  932MOL0     C25714  11.417  12.254   8.594 -0.2380  0.9592  0.0819
  932MOL0     O25715  11.445  12.361   8.677 -0.0064  0.2453 -0.9801
  932MOL0     C25716  11.572  12.383   8.730 -0.2288  0.0949 -0.2729
  932MOL0     C25717  11.674  12.285   8.744  0.7488  0.7267  0.3324
  932MOL0     C25718  11.793  12.316   8.806 -0.4444 -0.3696  0.7631
  932MOL0     C25719  11.831  12.447   8.840  0.3697  0.1811  0.8048
  932MOL0     O25720  11.938  12.493   8.896 -0.6205  0.6151 -0.1945
  932MOL0     C25721  11.965  12.456   9.033 -0.7155 -0.3410 -0.6428
  932MOL0     C25722  12.066  12.336   9.039 -0.4865  0.3193  0.1079
  932MOL0     C25723  12.149  12.331   9.165 -0.2214  0.5407 -0.4620
  932MOL0     C25724  12.281  12.249   9.145 -0.0662 -1.0944  0.4668
  932MOL0     C25725  12.391  12.269   9.253  0.7322 -0.0352  0.2474
  932MOL0     C25726  12.524  12.217   9.196  0.2398 -0.4713 -1.0033
  932MOL0     C25727  12.620  12.242   9.314  0.3340 -0.3524  0.4207
  932MOL0     C25728  12.757  12.270   9.256  0.0454 -0.1897 -0.2391
  932MOL0    Cl25729  12.844  12.134   9.203 -0.0750 -0.0181  0.0173
  932MOL0     C25730  11.733  12.547   8.813  0.1944 -0.4751 -0.8897
  932MOL0     C25731  11.601  12.519   8.774 -0.9414 -0.0013  0.3824
  932MOL0     O25732  11.484  12.211   8.501  0.2141 -0.0665  0.0154
  932MOL0     C25733  11.173  12.304   8.678 -0.7828  0.3531  0.5550
  932MOL0     C25734  11.036  12.260   8.694  0.0158 -0.7439  0.1800
  932MOL0     N25735  10.456  11.554   8.723  0.6594 -0.3496 -0.4300
  932MOL0     N25736  10.375  11.461   8.690 -0.0986  0.3322  0.2610
  932MOL0     C25737   9.266  11.248   9.134  0.6640 -0.2699  0.0540
  932MOL0     C25738   9.137  11.194   9.158 -0.0581 -0.6335 -0.2627
  932MOL0     C25739   8.752  10.952   9.131  0.9464  0.0438  0.2685
  932MOL0     C25740   8.706  10.815   9.127 -0.3658 -0.1212  0.2198
  932MOL0     C25741   8.577  10.777   9.166  0.3498 -0.4550 -0.4240
  932MOL0     C25742   8.478  10.869   9.199 -0.2744  0.3706  0.8673
  932MOL0     O25743   8.355  10.814   9.218  0.1247 -0.1977 -0.9516
  932MOL0     C25744   8.237  10.891   9.187  0.0937 -0.2607  0.2162
  932MOL0     C25745   8.202  10.839   9.051  0.6467  0.0839  0.6795
  932MOL0     C25746   8.067  10.874   8.986  0.1986  0.7637  0.5236
  932MOL0     C25747   8.054  10.800   8.852 -1.0728 -0.2155  0.2384
  932MOL0     C25748   8.041  10.653   8.874  0.1308 -0.2409 -1.0505
  932MOL0     C25749   8.037  10.530   8.877  0.6157 -0.9337  0.0076
  932MOL0     C25750   8.507  11.008   9.192  0.2419  0.7780 -0.2320
  932MOL0     C25751   8.638  11.044   9.152  0.1646  0.1586 -0.2464
  932MOL0     C25752   8.665  11.192   9.168 -0.5971  0.4044  0.2621
  932MOL0     H25753   9.080  11.044   8.860  1.6560 -0.4781 -1.8434
  932MOL0     H25754   9.333  11.114   8.848  1.5224 -0.1742  0.8803
  932MOL0     H25755   9.515  11.433   9.092 -0.7901 -0.5160  0.4636
  932MOL0     H25756   9.550  11.263   9.161 -0.7085 -3.2345 -1.4805
  932MOL0     H25757   9.704  11.248   8.981  0.6398  0.3130 -0.8725
  932MOL0     H25758   9.751  11.373   9.088  4.4105  0.0883 -4.3600
  932MOL0     H25759   9.684  11.549   8.925 -3.9189  2.2818 -3.0766
  932MOL0     H25760   9.575  11.454   8.840  1.5811  1.7155 -1.9135
  932MOL0     H25761   9.752  11.315   8.723 -2.0499  1.4760 -0.3882
  932MOL0     H25762   9.787  11.484   8.703  1.1896 -0.3762 -0.4404
  932MOL0     H25763   9.935  11.487   8.890 -0.9398  1.6297 -1.9411
  932MOL0     H25764   9.913  11.309   8.911 -1.2949 -0.4203 -1.1181
  932MOL0     H25765  10.121  11.373   8.797  0.5942 -2.4442 -1.6476
  932MOL0     H25766  10.026  11.271   8.690  0.0015  0.0243 -0.4444
  932MOL0     H25767  10.031  11.566   8.652  0.2993 -2.0384  5.4504
  932MOL0     H25768   9.950  11.446   8.548  1.8405  0.6990 -2.6630
  932MOL0     H25769  10.188  11.329   8.553  0.3058 -0.5555  1.3149
  932MOL0     H25770  10.163  11.454   8.435 -0.6089 -2.2486 -0.0326
  932MOL0     H25771  10.256  11.718   8.526 -2.4116 -2.7140 -1.1148
  932MOL0     H25772  10.407  11.882   8.645 -2.1634 -0.6505  1.9872
  932MOL0     H25773  10.475  11.827   8.795 -0.2163 -3.5477  0.3756
  932MOL0     H25774  10.688  11.728   8.677 -0.5261 -0.9705 -1.4705
  932MOL0     H25775  10.639  11.803   8.526 -2.3983  0.4868 -0.7828
  932MOL0     H25776  10.691  11.949   8.782 -0.0731 -3.9315  0.8164
  932MOL0     H25777  10.622  12.025   8.639  0.8635  0.2489 -0.2641
  932MOL0     H25778  10.815  11.959   8.497  4.5755  3.8902 -1.4388
  932MOL0     H25779  10.905  11.888   8.630 -0.4336  0.5272 -2.2930
  932MOL0     H25780  11.041  11.995   8.490 -1.4839 -1.0500  3.2046
  932MOL0     H25781  11.275  12.048   8.474  0.3499  0.2491 -0.3393
  932MOL0     H25782  11.656  12.179   8.730  0.3477  0.7643  0.5356
  932MOL0     H25783  11.858  12.230   8.822 -1.4162 -1.3818 -0.4700
  932MOL0     H25784  11.998  12.538   9.097 -0.5357 -2.3375  1.9921
  932MOL0     H25785  11.868  12.430   9.077 -1.2568  4.1934  1.5267
  932MOL0     H25786  11.999  12.250   9.030 -1.5971  1.1282  0.3030
  932MOL0     H25787  12.145  12.350   8.965  2.4688  0.5986  3.0700
  932MOL0     H25788  12.180  12.436   9.179 -0.9006  0.8208 -1.0079
  932MOL0     H25789  12.088  12.292   9.247  1.2056 -1.4862 -0.3117
  932MOL0     H25790  12.325  12.287   9.053 -1.2791  0.8766  0.6486
  932MOL0     H25791  12.260  12.142   9.132  3.1083 -1.9601  1.5367
  932MOL0     H25792  12.382  12.214   9.348 -0.1568 -2.1580 -1.0024
  932MOL0     H25793  12.393  12.378   9.258 -1.5144  0.0414  0.2952
  932MOL0     H25794  12.505  12.111   9.177 -2.3616 -0.0957 -0.9021
  932MOL0     H25795  12.553  12.259   9.099  1.4017 -3.3977 -2.0172
  932MOL0     H25796  12.614  12.156   9.381 -4.2558 -0.2065  0.5296
  932MOL0     H25797  12.585  12.333   9.363 -0.7995 -0.7393  0.3643
  932MOL0     H25798  12.750  12.350   9.182  0.7987  2.3753  2.2407
  932MOL0     H25799  12.822  12.312   9.334  0.4173 -2.3249  0.6765
  932MOL0     H25800  11.763  12.647   8.843  0.8159 -1.5250  2.4733
  932MOL0     H25801  11.535  12.605   8.765  0.9301  2.2273  4.6388
  932MOL0     H25802  11.208  12.394   8.727  0.1074 -0.4797  1.4692
  932MOL0     H25803  10.975  12.318   8.762  1.3221  1.0594 -0.1249
  932MOL0     H25804   9.310  11.302   9.217  0.5134  0.8330 -0.5653
  932MOL0     H25805   9.090  11.207   9.254 -0.2527 -3.0776  0.0146
  932MOL0     H25806   8.786  10.742   9.116 -1.1946 -1.1115  0.5465
  932MOL0     H25807   8.531  10.680   9.148 -1.5700  0.7629 -2.7760
  932MOL0     H25808   8.242  11.000   9.186 -2.1750 -0.1053 -1.2864
  932MOL0     H25809   8.162  10.874   9.265 -1.0234  0.3525 -0.6875
  932MOL0     H25810   8.208  10.731   9.065 -1.4935  0.0065  1.3878
  932MOL0     H25811   8.280  10.872   8.982  0.9320 -0.6659  0.6360
  932MOL0     H25812   8.069  10.982   8.970  4.2522  0.7806  0.0447
  932MOL0     H25813   7.988  10.863   9.060  1.4914 -0.2563  1.8243
  932MOL0     H25814   7.972  10.842   8.793  1.6130  1.4647 -2.5666
  932MOL0     H25815   8.142  10.830   8.795 -1.3969  4.5900  1.8470
  932MOL0     H25816   8.032  10.423   8.872 -0.2054 -0.8303 -2.1695
  932MOL0     H25817   8.432  11.083   9.213  0.1666  0.4385  0.7842
  932MOL0     H25818   8.565  11.236   9.168 -0.7567  0.6230 -4.6780
  932MOL0     H25819   8.720  11.224   9.257 -2.0900  0.7961  1.0771
  932MOL0     H25820   8.707  11.244   9.082 -2.3071  2.8751  0.8053
  933MOL0     O25821   2.054   1.286  10.592 -0.8419  0.0671  0.2117
  933MOL0     C25822   1.958   1.302  10.662  0.0634 -0.0283 -0.3237
  933MOL0     O25823   1.960   1.360  10.793  0.0872 -0.2639  0.4053
  933MOL0     C25824   2.076   1.411  10.849  0.3726 -0.2688 -0.4019
  933MOL0     C25825   2.071   1.520  10.937  1.0072 -0.0249 -0.6249
  933MOL0     C25826   2.180   1.570  11.002 -0.2767  0.3781 -0.5465
  933MOL0     C25827   2.309   1.519  10.968  0.6729 -0.4780 -0.3417
  933MOL0     O25828   2.426   1.579  11.010  0.2945 -0.4162  0.6203
  933MOL0     C25829   2.433   1.726  11.035  0.4848  0.0970 -0.3826
  933MOL0     C25830   2.571   1.759  11.090 -0.3203 -0.6057  0.3962
  933MOL0     C25831   2.588   1.909  11.096 -0.4192  0.0342 -0.3396
  933MOL0     C25832   2.711   1.952  11.178  0.3697  0.1632 -0.4866
  933MOL0     C25833   2.726   2.099  11.164 -0.4450  0.4360 -0.8481
  933MOL0     C25834   2.828   2.172  11.260  0.8624  0.5016  0.9563
  933MOL0     C25835   2.823   2.328  11.226  0.6649 -0.4677 -1.2926
  933MOL0     C25836   2.702   2.406  11.285 -0.1863  0.8483  0.0727
  933MOL0     N25837   2.697   2.402  11.431 -0.4288 -0.0607 -0.4329
  933MOL0     C25838   2.636   2.309  11.512 -0.1548  0.1840 -0.5154
  933MOL0     C25839   2.680   2.334  11.644  0.7202 -0.7375 -0.7373
  933MOL0     C25840   2.641   2.251  11.759  0.4066 -0.8124  0.5695
  933MOL0     C25841   2.540   2.322  11.851 -0.5890  0.6886  0.4182
  933MOL0     C25842   2.492   2.236  11.968  0.4931 -0.4259  0.3251
  933MOL0     C25843   2.602   2.188  12.064  0.1564  0.3842  0.3209
  933MOL0     O25844   2.664   2.301  12.132 -0.0732 -0.1909 -0.4116
  933MOL0     C25845   2.800   2.301  12.125  0.4336 -0.4426  0.3642
  933MOL0     C25846   2.865   2.421  12.085 -0.4974  0.4094 -0.9607
  933MOL0     C25847   3.009   2.422  12.097  0.1788  0.3514 -0.4345
  933MOL0     C25848   3.083   2.312  12.140  0.6743 -0.1221 -0.5290
  933MOL0     C25849   3.233   2.315  12.153 -0.6940 -0.7880 -0.1150
  933MOL0     O25850   3.283   2.444  12.143 -0.6704 -0.1389 -0.6811
  933MOL0     C25851   3.418   2.457  12.163  0.0193  0.6405  0.4682
  933MOL0     C25852   3.461   2.466  12.290 -0.3092  0.7667 -0.0100
  933MOL0     C25853   3.596   2.504  12.316  0.1273  0.8444 -0.0778
  933MOL0     C25854   3.689   2.518  12.213  0.7239  0.5846  0.5051
  933MOL0     O25855   3.820   2.554  12.240  0.0182 -0.1150 -0.6615
  933MOL0     C25856   3.876   2.577  12.367 -0.2053 -0.3295 -0.2510
  933MOL0     C25857   4.022   2.593  12.349 -0.0842  0.3705  0.0984
  933MOL0     C25858   4.110   2.628  12.462  0.7898  0.4334 -0.3766
  933MOL0     C25859   4.260   2.628  12.441 -0.2168 -0.7503  0.2910
  933MOL0     C25860   4.337   2.652  12.564 -0.3443 -0.1801  0.4640
  933MOL0     C25861   4.486   2.666  12.521  0.3808 -0.7180  0.6306
  933MOL0     C25862   4.572   2.666  12.642  1.2532  0.2905  0.8296
  933MOL0     C25863   4.722   2.668  12.611 -0.1143 -0.3512  0.8618
  933MOL0    Cl25864   4.787   2.518  12.547  0.3359  0.1448 -0.1417
  933MOL0     C25865   3.645   2.490  12.083  0.4418 -0.1228  0.8271
  933MOL0     C25866   3.503   2.469  12.060  0.6589 -0.4253 -0.7070
  933MOL0     O25867   3.300   2.212  12.166  0.7732  0.0605 -0.5402
  933MOL0     C25868   3.023   2.184  12.158 -0.3048 -0.3243 -0.4650
  933MOL0     C25869   2.879   2.185  12.152  0.5434 -0.0572  0.4683
  933MOL0     N25870   2.753   2.447  11.639  0.3343  0.0047 -0.0655
  933MOL0     N25871   2.773   2.477  11.517 -0.6512  0.2627  0.1766
  933MOL0     C25872   2.322   1.423  10.866  0.1035 -0.3447  0.2858
  933MOL0     C25873   2.207   1.366  10.822 -0.1745  0.1937  0.0827
  933MOL0     C25874   1.817   1.283  10.613  0.0235  0.0679  0.2071
  933MOL0     C25875   1.708   1.316  10.706  0.2680  0.8437 -0.0234
  933MOL0     C25876   1.574   1.295  10.671  0.4862 -0.0377 -0.8988
  933MOL0     C25877   1.541   1.248  10.542 -0.2584 -0.4031  1.0329
  933MOL0     O25878   1.415   1.230  10.499  0.1582 -0.8970 -0.2118
  933MOL0     C25879   1.291   1.262  10.557  0.3601 -0.5281  0.1373
  933MOL0     C25880   1.196   1.278  10.441  0.0439 -0.2751  0.1985
  933MOL0     C25881   1.047   1.287  10.495 -0.2355 -0.3404  0.4838
  933MOL0     C25882   0.962   1.317  10.374  0.3364  0.5444  0.1156
  933MOL0     C25883   0.821   1.322  10.411  1.4849  0.0267 -0.3629
  933MOL0     C25884   0.698   1.331  10.437  0.1135  0.2555 -0.1009
  933MOL0     C25885   1.641   1.229  10.450 -0.1074  0.9831  0.4847
  933MOL0     C25886   1.779   1.235  10.479 -0.1500  0.6199  0.2912
  933MOL0     C25887   1.885   1.205  10.375  0.2833 -0.1154 -0.5897
  933MOL0     H25888   1.972   1.562  10.951  0.8142 -0.7990  0.4663
  933MOL0     H25889   2.179   1.651  11.075 -0.6259 -1.8724  2.0708
  933MOL0     H25890   2.404   1.793  10.954  2.1010 -1.1142 -2.0645
  933MOL0     H25891   2.364   1.736  11.119  0.4907 -0.4726 -0.3062
  933MOL0     H25892   2.646   1.724  11.018 -0.5618  0.2654 -0.2917
  933MOL0     H25893   2.595   1.720  11.189  0.6401 -0.9836  0.0285
  933MOL0     H25894   2.495   1.951  11.137 -0.5524  0.4687 -1.0832
  933MOL0     H25895   2.585   1.945  10.993 -1.4106  0.0602 -0.3170
  933MOL0     H25896   2.709   1.927  11.284  1.5131  1.3498 -0.1527
  933MOL0     H25897   2.798   1.898  11.140  0.9474  0.7050  0.0351
  933MOL0     H25898   2.775   2.106  11.067  1.6107  0.8234  0.1673
  933MOL0     H25899   2.626   2.143  11.174 -1.9478 -2.5408 -1.5726
  933MOL0     H25900   2.807   2.141  11.363 -3.7658 -3.0463 -0.6867
  933MOL0     H25901   2.932   2.146  11.239  0.2665 -1.6467  0.4057
  933MOL0     H25902   2.833   2.360  11.122  1.9354  4.1194 -0.0406
  933MOL0     H25903   2.913   2.368  11.274 -0.6212  0.1370  0.7323
  933MOL0     H25904   2.721   2.507  11.248  4.6109 -0.0929 -0.5922
  933MOL0     H25905   2.603   2.384  11.243  0.0866  2.3589 -1.4439
  933MOL0     H25906   2.574   2.225  11.483 -1.8205  1.5863 -1.2315
  933MOL0     H25907   2.589   2.161  11.723  0.2150 -0.8636  0.9636
  933MOL0     H25908   2.728   2.236  11.823  1.2535  0.6335 -0.1946
  933MOL0     H25909   2.590   2.412  11.888 -1.3573 -0.1673  3.9251
  933MOL0     H25910   2.463   2.357  11.782  2.9488  0.7500 -3.9380
  933MOL0     H25911   2.440   2.151  11.922 -0.6391  0.5110 -0.1930
  933MOL0     H25912   2.427   2.302  12.027 -1.3319  0.5047 -2.5016
  933MOL0     H25913   2.672   2.121  12.012 -1.9504 -2.0685  0.4602
  933MOL0     H25914   2.549   2.132  12.141 -1.9198  2.3569  0.4331
  933MOL0     H25915   2.824   2.514  12.048 -1.6582  0.3879  0.1957
  933MOL0     H25916   3.065   2.512  12.072 -1.1053  0.6064 -2.5504
  933MOL0     H25917   3.392   2.455  12.373  0.1870 -0.2996  0.2889
  933MOL0     H25918   3.622   2.511  12.422 -1.2294 -0.9335  0.4139
  933MOL0     H25919   3.836   2.669  12.411  1.2711 -0.4924  1.5785
  933MOL0     H25920   3.868   2.487  12.429  1.5519 -1.0422 -0.9982
  933MOL0     H25921   4.055   2.496  12.310 -0.9447  0.7273 -1.5891
  933MOL0     H25922   4.035   2.661  12.264  0.6269  2.5730  1.8589
  933MOL0     H25923   4.080   2.728  12.496 -0.1093  0.6122 -1.6421
  933MOL0     H25924   4.074   2.553  12.533 -1.1547  1.6627  0.0265
  933MOL0     H25925   4.293   2.703  12.369  2.4683 -0.6997  1.4431
  933MOL0     H25926   4.297   2.538  12.391 -3.7905 -0.1112 -4.1445
  933MOL0     H25927   4.317   2.569  12.632 -3.1502  0.7547  0.9140
  933MOL0     H25928   4.305   2.745  12.613 -0.7949  0.5806 -1.1904
  933MOL0     H25929   4.516   2.569  12.481 -0.7752 -1.2689  1.0529
  933MOL0     H25930   4.500   2.754  12.457  3.1281 -2.2586 -1.0838
  933MOL0     H25931   4.552   2.575  12.700 -0.6736 -0.7557 -1.3439
  933MOL0     H25932   4.559   2.754  12.706 -0.9007  1.7812 -1.5197
  933MOL0     H25933   4.756   2.756  12.555 -0.8148  0.7513  2.1281
  933MOL0     H25934   4.772   2.690  12.706  1.6909  0.7088 -0.2561
  933MOL0     H25935   3.717   2.501  12.002 -0.6916  2.1475  0.0222
  933MOL0     H25936   3.461   2.457  11.960  0.7926 -3.1844 -0.4990
  933MOL0     H25937   3.083   2.096  12.175 -1.3309 -0.7207  1.3986
  933MOL0     H25938   2.836   2.085  12.157 -3.6935  1.5261 -0.4050
  933MOL0     H25939   2.423   1.391  10.842  0.3802 -2.1571  3.3047
  933MOL0     H25940   2.235   1.283  10.757 -0.4020  0.6539 -0.6176
  933MOL0     H25941   1.718   1.361  10.804  0.5467  1.9110 -0.5343
  933MOL0     H25942   1.492   1.313  10.740 -1.3554 -0.7087 -2.7953
  933MOL0     H25943   1.291   1.354  10.615  1.1693  0.0339 -0.7171
  933MOL0     H25944   1.270   1.180  10.626 -0.7581  0.3357  0.8500
  933MOL0     H25945   1.200   1.190  10.377  2.2328 -1.9991  2.5107
  933MOL0     H25946   1.222   1.368  10.385  1.4526 -1.7298 -1.5886
  933MOL0     H25947   1.037   1.376  10.559 -0.6558 -0.2012  0.2294
  933MOL0     H25948   1.026   1.198  10.555  3.0102 -1.0191  0.7598
  933MOL0     H25949   0.986   1.396  10.302 -4.6523  1.2937 -1.1153
  933MOL0     H25950   0.962   1.223  10.318  1.9431  1.7163 -1.9778
  933MOL0     H25951   0.593   1.348  10.447 -0.5003 -2.5246 -0.9040
  933MOL0     H25952   1.613   1.184  10.355  0.1717 -0.3082  0.9888
  933MOL0     H25953   1.850   1.169  10.278  1.3417  1.1922 -1.4940
  933MOL0     H25954   1.926   1.305  10.360  0.8294 -0.3272 -0.5220
  933MOL0     H25955   1.970   1.145  10.409  0.1654 -0.3813 -0.7617
  934MOL0     O25956   0.720   2.770   7.330  0.4108 -0.1573  0.0368
  934MOL0     C25957   0.677   2.881   7.361 -0.4115  0.7741  0.0290
  934MOL0     O25958   0.758   2.983   7.364 -0.2321 -0.4601 -0.1318
  934MOL0     C25959   0.890   2.952   7.356 -0.0653 -0.4491  0.2104
  934MOL0     C25960   0.966   2.912   7.471  0.2693  0.3782  0.0836
  934MOL0     C25961   1.103   2.888   7.459 -0.2633 -1.5406  0.2394
  934MOL0     C25962   1.167   2.902   7.337 -0.7880  0.4641  0.3769
  934MOL0     O25963   1.300   2.882   7.338  0.8647 -0.1191 -0.0567
  934MOL0     C25964   1.388   2.987   7.292  0.1230  0.8557  0.3483
  934MOL0     C25965   1.528   2.943   7.274  0.0189 -1.0050  0.4527
  934MOL0     C25966   1.594   2.922   7.402  0.5473 -0.0851 -1.3945
  934MOL0     C25967   1.669   2.785   7.427  0.3247  0.1535  0.1374
  934MOL0     C25968   1.787   2.752   7.335 -0.4829  0.3421 -0.6064
  934MOL0     C25969   1.871   2.866   7.280 -0.2284 -0.7813  0.3041
  934MOL0     C25970   1.986   2.820   7.195  0.1355  0.0413  0.3270
  934MOL0     C25971   2.054   2.931   7.119 -0.2066 -0.1577  0.4519
  934MOL0     N25972   2.119   2.887   6.992  0.2335  1.1391 -0.3134
  934MOL0     C25973   2.068   2.801   6.897  0.0485  0.3154  0.1383
  934MOL0     C25974   2.167   2.783   6.806 -0.3862 -0.6414 -0.8863
  934MOL0     C25975   2.152   2.712   6.677  0.4347  0.4236 -0.4525
  934MOL0     C25976   2.067   2.801   6.585  0.7381 -0.2274  1.2238
  934MOL0     C25977   2.050   2.723   6.450  0.0186 -0.1580  0.0892
  934MOL0     C25978   2.175   2.692   6.372  0.5426 -0.6044  0.0878
  934MOL0     O25979   2.242   2.819   6.346  0.3419 -0.2879  0.9746
  934MOL0     C25980   2.340   2.822   6.254  0.1762  0.1449 -1.1537
  934MOL0     C25981   2.385   2.952   6.211 -0.6130  0.1162 -0.2341
  934MOL0     C25982   2.497   2.962   6.128  0.4831 -0.1537 -0.1083
  934MOL0     C25983   2.563   2.845   6.081  0.1134  0.7457  0.3057
  934MOL0     C25984   2.664   2.859   5.974  0.0840 -0.7656 -0.1952
  934MOL0     O25985   2.714   2.742   5.921  0.1647 -0.6275 -0.2225
  934MOL0     C25986   2.841   2.735   5.867  1.5337 -0.6469 -0.1442
  934MOL0     C25987   2.854   2.675   5.740  0.5610 -0.9718 -0.7835
  934MOL0     C25988   2.974   2.658   5.685 -0.1041  0.4374 -0.1444
  934MOL0     C25989   3.094   2.699   5.758  0.4081  0.6169  0.3884
  934MOL0     O25990   3.219   2.672   5.721 -0.6551 -0.8554 -0.5159
  934MOL0     C25991   3.251   2.651   5.585  0.1172 -0.3241 -0.1803
  934MOL0     C25992   3.391   2.703   5.534 -0.4071  0.0408 -0.3738
  934MOL0     C25993   3.437   2.641   5.407  0.1396 -0.6438  0.5308
  934MOL0     C25994   3.364   2.704   5.279  0.9254  0.2356 -0.7968
  934MOL0     C25995   3.433   2.656   5.146 -0.1971  0.1118 -0.4557
  934MOL0     C25996   3.589   2.667   5.119  0.9962 -0.6613  0.4768
  934MOL0     C25997   3.629   2.595   4.988  0.8744  0.8560  0.0940
  934MOL0     C25998   3.592   2.693   4.870  0.1108 -0.2826 -0.7954
  934MOL0    Cl25999   3.697   2.835   4.874 -0.2571  0.0352  0.4975
  934MOL0     C26000   3.072   2.764   5.882 -0.4906  0.0030  0.7298
  934MOL0     C26001   2.946   2.790   5.933  0.1157  0.2213  0.6221
  934MOL0     O26002   2.707   2.969   5.948  0.7960 -0.5418  0.0472
  934MOL0     C26003   2.529   2.719   6.140  0.1176  0.1425  0.5593
  934MOL0     C26004   2.416   2.711   6.233 -0.2490 -0.7417 -0.5628
  934MOL0     N26005   2.279   2.855   6.857  0.0829  0.7260  0.3990
  934MOL0     N26006   2.249   2.914   6.959 -0.1466  0.7250 -0.8507
  934MOL0     C26007   1.093   2.937   7.223 -0.9224  0.4160  0.2278
  934MOL0     C26008   0.956   2.971   7.235  0.0775  0.0148 -0.1759
  934MOL0     C26009   0.529   2.910   7.357 -0.4158 -0.8264 -0.1516
  934MOL0     C26010   0.488   3.026   7.431  0.1260  0.5999  0.3183
  934MOL0     C26011   0.349   3.050   7.436 -0.3574  0.3417 -0.1364
  934MOL0     C26012   0.254   2.968   7.374 -0.3624  0.0968  0.6694
  934MOL0     O26013   0.131   3.012   7.359  0.5118 -0.4866 -1.0178
  934MOL0     C26014   0.035   2.903   7.386  0.7905  0.0078 -0.4720
  934MOL0     C26015  -0.088   2.953   7.462  0.1872  0.8516 -0.4921
  934MOL0     C26016  -0.209   2.844   7.461  0.2498 -0.3333 -0.9198
  934MOL0     C26017  -0.350   2.903   7.476 -0.5121 -0.3842  0.6006
  934MOL0     C26018  -0.377   2.971   7.349 -0.8513  0.6277  0.7498
  934MOL0     C26019  -0.388   3.025   7.246 -1.3049  0.4757  1.1312
  934MOL0     C26020   0.300   2.851   7.312  0.2460 -0.2870 -0.2094
  934MOL0     C26021   0.433   2.816   7.310 -0.0569  0.5454 -0.3448
  934MOL0     C26022   0.473   2.699   7.225 -0.8769 -0.2804 -0.3518
  934MOL0     H26023   0.927   2.905   7.572 -0.3891 -1.5057 -0.2577
  934MOL0     H26024   1.161   2.867   7.549  1.9575  0.2441 -0.6770
  934MOL0     H26025   1.355   3.018   7.192 -1.3744 -0.6858  0.3322
  934MOL0     H26026   1.395   3.080   7.349  1.9128  1.2660 -0.4561
  934MOL0     H26027   1.583   3.028   7.232 -0.1062 -1.0074  0.2810
  934MOL0     H26028   1.531   2.859   7.204 -1.1752 -1.8770  1.4061
  934MOL0     H26029   1.513   2.916   7.475  1.3682 -3.2814 -0.5699
  934MOL0     H26030   1.673   2.996   7.420  0.9574 -0.3769 -1.9613
  934MOL0     H26031   1.702   2.781   7.531 -1.4431 -0.9427  0.7034
  934MOL0     H26032   1.589   2.712   7.412 -1.7814  2.3796 -0.2339
  934MOL0     H26033   1.843   2.678   7.392 -0.9766 -0.1884 -0.8066
  934MOL0     H26034   1.749   2.706   7.244 -0.3170 -0.6727 -0.1743
  934MOL0     H26035   1.806   2.919   7.209 -0.9199 -2.8980 -0.7021
  934MOL0     H26036   1.906   2.938   7.355  1.2113 -0.0680 -0.9989
  934MOL0     H26037   1.953   2.736   7.133 -1.6541 -1.1296  2.6903
  934MOL0     H26038   2.053   2.776   7.270 -3.3416 -1.0723  3.0664
  934MOL0     H26039   1.976   3.006   7.103 -1.5131 -0.5816  4.0673
  934MOL0     H26040   2.121   2.983   7.188  1.1388 -0.2146 -0.7669
  934MOL0     H26041   1.972   2.750   6.892  1.3952 -2.2881 -1.0339
  934MOL0     H26042   2.250   2.686   6.637  0.5189  0.6293 -0.3834
  934MOL0     H26043   2.085   2.626   6.687  0.6283  0.5327  2.9949
  934MOL0     H26044   1.964   2.810   6.622 -0.2378 -0.0620 -1.3775
  934MOL0     H26045   2.090   2.906   6.567 -3.1818  0.8688  1.6348
  934MOL0     H26046   1.992   2.775   6.373  4.5701  1.0684 -2.8728
  934MOL0     H26047   2.009   2.627   6.484 -0.6953  0.6743  1.7186
  934MOL0     H26048   2.143   2.648   6.277 -2.0409  0.8167  0.1874
  934MOL0     H26049   2.226   2.608   6.419  0.3646 -0.8172 -0.0959
  934MOL0     H26050   2.326   3.037   6.243 -0.6184  0.7580 -1.8476
  934MOL0     H26051   2.510   3.063   6.090  0.1511 -0.6437 -1.5822
  934MOL0     H26052   2.774   2.626   5.685 -1.3116 -0.1345  1.0617
  934MOL0     H26053   2.986   2.601   5.594  3.7617 -1.0294  1.0873
  934MOL0     H26054   3.248   2.542   5.572 -0.3578 -0.4973  1.1735
  934MOL0     H26055   3.184   2.695   5.510 -0.2635 -2.2672 -1.0361
  934MOL0     H26056   3.384   2.812   5.527  5.0840  0.5857 -1.8907
  934MOL0     H26057   3.469   2.691   5.610  1.0301 -1.2287 -1.9937
  934MOL0     H26058   3.545   2.659   5.403 -0.1714  1.1692 -1.8103
  934MOL0     H26059   3.415   2.534   5.404 -4.3031  0.1176 -0.6193
  934MOL0     H26060   3.388   2.811   5.284  0.6005  0.2902 -0.2641
  934MOL0     H26061   3.257   2.681   5.283  0.9228  0.1336 -1.3849
  934MOL0     H26062   3.381   2.711   5.067 -0.7207  3.8133  2.1735
  934MOL0     H26063   3.417   2.548   5.141  1.3877 -0.2931  1.6597
  934MOL0     H26064   3.605   2.775   5.112 -2.2914 -0.1278 -0.5485
  934MOL0     H26065   3.652   2.627   5.199  1.2432 -0.3602  0.4317
  934MOL0     H26066   3.569   2.503   4.989  0.4880  1.1026  0.6094
  934MOL0     H26067   3.732   2.560   4.983 -0.2231 -2.8011 -4.5287
  934MOL0     H26068   3.603   2.649   4.770  1.4652 -3.5133  0.6387
  934MOL0     H26069   3.493   2.738   4.885 -0.0788 -1.4885  2.4921
  934MOL0     H26070   3.158   2.797   5.939 -0.6422  1.8595 -0.0294
  934MOL0     H26071   2.924   2.837   6.028  0.8060  0.1591  0.8135
  934MOL0     H26072   2.586   2.632   6.109  1.4046  0.6975  1.2801
  934MOL0     H26073   2.408   2.610   6.272 -1.1739 -1.5453 -2.6925
  934MOL0     H26074   1.140   2.945   7.125  1.2826 -2.7325  0.8697
  934MOL0     H26075   0.900   3.017   7.154 -0.8072 -1.8340 -0.6575
  934MOL0     H26076   0.555   3.104   7.466  2.2838 -0.4112 -1.3122
  934MOL0     H26077   0.321   3.147   7.476  1.3989  1.6913 -2.0009
  934MOL0     H26078   0.082   2.829   7.452  2.0579 -0.5213 -1.9221
  934MOL0     H26079   0.004   2.844   7.300  2.1405 -0.3452 -0.7399
  934MOL0     H26080  -0.127   3.047   7.422 -2.1661  0.1351 -0.0420
  934MOL0     H26081  -0.074   2.964   7.570 -1.3620  1.8137 -0.3523
  934MOL0     H26082  -0.204   2.781   7.551 -0.1657 -0.9423 -1.3178
  934MOL0     H26083  -0.196   2.780   7.374  2.5139 -0.7902 -0.3033
  934MOL0     H26084  -0.429   2.833   7.503  0.9410 -1.5831  1.9201
  934MOL0     H26085  -0.342   2.986   7.546  0.6724 -0.7128  0.8732
  934MOL0     H26086  -0.395   3.067   7.148 -0.4055 -0.7384  0.5234
  934MOL0     H26087   0.230   2.790   7.256 -1.7217 -0.8549  2.6272
  934MOL0     H26088   0.513   2.634   7.303 -1.1609  0.3090  0.2989
  934MOL0     H26089   0.388   2.663   7.166  0.8373  0.4935 -3.5245
  934MOL0     H26090   0.557   2.720   7.158  0.7978  0.9406  1.9937
  935MOL0     O26091   1.459  10.681   7.501 -0.2416  0.1462 -0.3922
  935MOL0     C26092   1.419  10.780   7.445 -0.5524 -0.0627  0.6017
  935MOL0     O26093   1.497  10.881   7.406  0.0827 -0.2264 -0.0849
  935MOL0     C26094   1.632  10.897   7.440 -0.5715  0.4276 -0.3352
  935MOL0     C26095   1.720  10.898   7.333  0.6369 -0.0834  0.6651
  935MOL0     C26096   1.847  10.933   7.371  0.2351  0.0091  0.3424
  935MOL0     C26097   1.889  10.957   7.505  0.6243 -0.1570 -0.5147
  935MOL0     O26098   2.017  10.994   7.537  0.1309  0.7728 -0.0394
  935MOL0     C26099   2.126  10.957   7.453 -0.7606  0.3242  0.6135
  935MOL0     C26100   2.253  11.007   7.521  0.0880 -0.3617 -0.6438
  935MOL0     C26101   2.295  10.946   7.650  0.0523  0.4611 -0.3350
  935MOL0     C26102   2.406  11.035   7.720 -0.3605 -1.0502  0.5338
  935MOL0     C26103   2.450  10.978   7.855  0.1717  0.2241 -0.1666
  935MOL0     C26104   2.568  11.062   7.914 -0.4408 -0.0920  0.9918
  935MOL0     C26105   2.603  11.024   8.059 -0.0275  0.1238  0.4437
  935MOL0     C26106   2.716  11.111   8.109 -0.1555  0.2165  0.6567
  935MOL0     N26107   2.857  11.074   8.080  0.2307 -0.8431  0.0980
  935MOL0     C26108   2.899  11.000   7.975  0.1422  0.3969  0.2155
  935MOL0     C26109   3.037  11.018   7.982  0.8387 -0.8446  0.3969
  935MOL0     C26110   3.134  10.967   7.884 -0.1036 -0.4550  0.0636
  935MOL0     C26111   3.192  11.090   7.817  0.0766 -0.5979  0.1234
  935MOL0     C26112   3.293  11.045   7.708 -0.2372  0.5596 -0.4403
  935MOL0     C26113   3.320  11.157   7.617 -0.0990 -0.1477 -0.5799
  935MOL0     O26114   3.378  11.265   7.684 -0.2375  0.1731  0.1547
  935MOL0     C26115   3.510  11.272   7.713 -0.7494 -0.5998 -0.6227
  935MOL0     C26116   3.610  11.170   7.686 -0.1783 -0.8424 -0.3091
  935MOL0     C26117   3.748  11.202   7.699  1.3275  0.1798  0.2116
  935MOL0     C26118   3.784  11.324   7.745  0.4472 -0.2840  0.1500
  935MOL0     C26119   3.924  11.357   7.752  0.3087  0.5698 -0.1736
  935MOL0     O26120   3.956  11.453   7.846  0.3752 -0.3986  0.5442
  935MOL0     C26121   4.071  11.518   7.847  0.2399 -0.0782  0.5948
  935MOL0     C26122   4.115  11.569   7.968  0.5545 -0.1158  2.2010
  935MOL0     C26123   4.228  11.653   7.976 -0.1150  0.2223  0.5755
  935MOL0     C26124   4.304  11.684   7.869  0.8336 -0.0619 -0.7168
  935MOL0     O26125   4.414  11.757   7.867  0.0240 -0.4646  0.8037
  935MOL0     C26126   4.505  11.733   7.970  0.4208  0.2201 -0.9386
  935MOL0     C26127   4.644  11.783   7.917  0.3185  0.6004 -0.0267
  935MOL0     C26128   4.730  11.782   8.042  0.2452  0.8237  0.0475
  935MOL0     C26129   4.870  11.836   8.010  0.2040 -1.0774 -0.3980
  935MOL0     C26130   4.863  11.988   7.984 -0.3285  0.6332  0.3338
  935MOL0     C26131   4.850  12.076   8.110 -0.0743  0.4802 -0.9671
  935MOL0     C26132   4.861  12.223   8.072 -0.5918 -0.4207  0.0943
  935MOL0     C26133   4.783  12.307   8.187  0.3558 -0.4346  0.0727
  935MOL0    Cl26134   4.880  12.302   8.344  0.3638  0.1622  0.5331
  935MOL0     C26135   4.265  11.636   7.742  1.0802 -0.9120  0.1793
  935MOL0     C26136   4.151  11.549   7.740 -0.1293 -0.0888 -0.3018
  935MOL0     O26137   4.004  11.308   7.670  0.1223  0.2991  0.1036
  935MOL0     C26138   3.692  11.419   7.789  0.6036  0.2478  0.3897
  935MOL0     C26139   3.552  11.390   7.771  0.0429  0.2946 -0.6246
  935MOL0     N26140   3.070  11.102   8.086  0.5562  0.4906  0.3239
  935MOL0     N26141   2.959  11.142   8.141  0.0005 -0.6163 -1.2733
  935MOL0     C26142   1.786  10.960   7.609  0.8332  1.3478 -0.2876
  935MOL0     C26143   1.658  10.926   7.579 -0.1898  1.3273  0.7271
  935MOL0     C26144   1.271  10.787   7.408 -1.1888 -0.3119  0.7686
  935MOL0     C26145   1.192  10.912   7.408  0.2327 -0.3958 -0.8215
  935MOL0     C26146   1.058  10.916   7.375 -0.4631  0.3267 -1.0953
  935MOL0     C26147   0.992  10.804   7.326  0.5223 -0.8058 -0.3949
  935MOL0     O26148   0.858  10.815   7.299 -0.0314 -0.1824 -0.0636
  935MOL0     C26149   0.783  10.747   7.406  0.3464  0.5796 -0.4601
  935MOL0     C26150   0.740  10.846   7.512 -0.0353  0.3651 -0.1099
  935MOL0     C26151   0.606  10.805   7.567  0.1550 -0.3313  0.5331
  935MOL0     C26152   0.559  10.900   7.673  0.0385 -0.4287  0.0132
  935MOL0     C26153   0.433  10.957   7.617  0.0991  0.4910 -0.1067
  935MOL0     C26154   0.332  10.999   7.575  0.0415  0.2493 -0.2390
  935MOL0     C26155   1.067  10.688   7.306  0.6183 -0.2773 -0.3465
  935MOL0     C26156   1.195  10.670   7.362 -0.4399  0.2060  0.7225
  935MOL0     C26157   1.246  10.528   7.370 -0.6412  0.4604  1.1529
  935MOL0     H26158   1.694  10.871   7.231 -2.6926  0.2111  1.3070
  935MOL0     H26159   1.926  10.930   7.296 -1.3976  0.8597 -1.5011
  935MOL0     H26160   2.127  10.850   7.433 -0.0214  0.0011  2.2321
  935MOL0     H26161   2.133  11.020   7.364 -3.3306 -0.6634 -0.3849
  935MOL0     H26162   2.229  11.114   7.531  0.0041 -0.4899  0.8086
  935MOL0     H26163   2.335  10.998   7.449 -0.3773 -1.4252 -1.0477
  935MOL0     H26164   2.337  10.846   7.639 -0.7101 -0.3027  2.7264
  935MOL0     H26165   2.214  10.935   7.723 -0.1149  0.4755 -0.5173
  935MOL0     H26166   2.491  11.049   7.653 -2.2172 -0.5761 -1.8388
  935MOL0     H26167   2.362  11.134   7.736  1.8410 -0.2410  1.9763
  935MOL0     H26168   2.368  10.975   7.928  0.7790 -3.1217  0.5068
  935MOL0     H26169   2.483  10.874   7.847  2.3392  0.4064  3.8560
  935MOL0     H26170   2.649  11.035   7.846 -1.6456 -0.4351 -0.3496
  935MOL0     H26171   2.560  11.171   7.906  0.9121 -0.0774 -0.5087
  935MOL0     H26172   2.619  10.917   8.076 -0.1059  0.2738  1.5461
  935MOL0     H26173   2.515  11.042   8.121  0.4141  0.2173  1.0438
  935MOL0     H26174   2.696  11.213   8.075  2.4468  0.6898  0.3642
  935MOL0     H26175   2.701  11.129   8.216 -2.3226  3.0851  0.0065
  935MOL0     H26176   2.844  10.943   7.901 -1.5500 -1.8131  2.9611
  935MOL0     H26177   3.208  10.904   7.934  0.4093  1.0171  1.2022
  935MOL0     H26178   3.082  10.903   7.811  0.5079  1.0289 -1.7619
  935MOL0     H26179   3.109  11.141   7.768 -0.6625 -3.1689 -1.5222
  935MOL0     H26180   3.242  11.158   7.887 -0.1309 -1.2645  0.9474
  935MOL0     H26181   3.234  10.979   7.643 -0.7248  1.1615 -0.6173
  935MOL0     H26182   3.382  11.003   7.755 -1.2935  0.7870  1.8868
  935MOL0     H26183   3.229  11.192   7.568  1.6435  0.1867 -3.8556
  935MOL0     H26184   3.384  11.123   7.535 -1.3154 -0.5833 -1.3739
  935MOL0     H26185   3.581  11.072   7.649 -0.2687 -0.4703 -1.2514
  935MOL0     H26186   3.821  11.123   7.685 -0.5406 -1.6596  0.3698
  935MOL0     H26187   4.039  11.548   8.043 -0.2754 -0.9385  1.1612
  935MOL0     H26188   4.257  11.685   8.076  0.8480 -0.9324  0.7021
  935MOL0     H26189   4.480  11.792   8.059  2.1601  0.8911 -0.8488
  935MOL0     H26190   4.510  11.629   8.002  0.3999 -0.4565 -3.0126
  935MOL0     H26191   4.682  11.718   7.838 -2.0351 -1.1132  0.1535
  935MOL0     H26192   4.629  11.887   7.885 -0.3569  0.4719 -0.1459
  935MOL0     H26193   4.673  11.833   8.120  0.3075  2.0999 -0.7135
  935MOL0     H26194   4.757  11.685   8.085  3.0070  1.4692 -0.0444
  935MOL0     H26195   4.918  11.783   7.928  2.0037 -2.2129  1.2939
  935MOL0     H26196   4.929  11.807   8.097 -0.7791 -2.7177 -0.2426
  935MOL0     H26197   4.787  12.015   7.910 -1.2520 -1.8770  0.2785
  935MOL0     H26198   4.959  12.014   7.939  0.1506 -0.0934  0.9162
  935MOL0     H26199   4.751  12.054   8.151  0.0298 -0.5234 -1.2290
  935MOL0     H26200   4.934  12.049   8.174 -1.7131 -0.0028  1.0886
  935MOL0     H26201   4.824  12.253   7.973  1.2325  2.7875  0.2491
  935MOL0     H26202   4.966  12.251   8.060 -1.2107  2.6753  1.0128
  935MOL0     H26203   4.776  12.413   8.161  2.1845 -0.4062 -0.4756
  935MOL0     H26204   4.683  12.266   8.207  2.2311 -4.9796  1.4885
  935MOL0     H26205   4.317  11.660   7.650  1.4498 -0.7741  0.4233
  935MOL0     H26206   4.126  11.515   7.640  2.1065 -0.1753 -0.8873
  935MOL0     H26207   3.719  11.506   7.849  0.5487  0.3544  0.2606
  935MOL0     H26208   3.474  11.463   7.793  1.3810  1.2768  1.2306
  935MOL0     H26209   1.812  10.981   7.712 -0.3122 -0.9992  0.5526
  935MOL0     H26210   1.586  10.911   7.658  0.3802 -0.2919  0.9794
  935MOL0     H26211   1.240  10.999   7.451 -2.7263  2.3039 -2.6111
  935MOL0     H26212   0.995  11.004   7.384 -1.0516 -0.2002  0.2963
  935MOL0     H26213   0.839  10.666   7.453 -0.7385  1.4240  2.5284
  935MOL0     H26214   0.693  10.714   7.353 -0.5203  0.9619  0.7472
  935MOL0     H26215   0.715  10.943   7.466 -2.3363 -0.8882 -1.7014
  935MOL0     H26216   0.810  10.854   7.596 -0.5237 -0.3375  0.3726
  935MOL0     H26217   0.617  10.708   7.616  2.4070 -0.6260 -0.3964
  935MOL0     H26218   0.535  10.787   7.486 -2.2835  1.2458  2.2152
  935MOL0     H26219   0.537  10.840   7.762  0.3405  0.6539  0.8430
  935MOL0     H26220   0.638  10.973   7.695  1.6053 -1.0946 -2.8217
  935MOL0     H26221   0.243  11.050   7.544 -0.3708  0.9327  1.8685
  935MOL0     H26222   1.003  10.606   7.273  0.3287 -0.8589  1.5307
  935MOL0     H26223   1.350  10.521   7.336 -0.6988  1.6122  0.7032
  935MOL0     H26224   1.250  10.487   7.471 -0.5792  0.7210  1.2579
  935MOL0     H26225   1.181  10.471   7.304 -1.4341  0.7099  1.7109
  936MOL0     O26226   7.717   0.458   7.154  0.7065 -0.1888  0.4844
  936MOL0     C26227   7.617   0.475   7.083  0.3845 -0.0828  0.3043
  936MOL0     O26228   7.615   0.470   6.946  0.2186 -0.4099 -0.9307
  936MOL0     C26229   7.726   0.426   6.884  0.8882 -0.7110  0.1646
  936MOL0     C26230   7.857   0.472   6.901  0.1752 -0.1414  0.9439
  936MOL0     C26231   7.969   0.430   6.829 -0.1623  0.0295  1.2694
  936MOL0     C26232   7.957   0.325   6.745 -0.4088  0.9653 -0.3834
  936MOL0     O26233   8.068   0.264   6.686  0.1764 -0.0482 -0.2923
  936MOL0     C26234   8.082   0.279   6.545  0.1297  1.0162 -0.0907
  936MOL0     C26235   8.215   0.237   6.474 -0.3522  0.3083  0.6355
  936MOL0     C26236   8.344   0.273   6.548 -0.0449 -0.0775 -0.8152
  936MOL0     C26237   8.468   0.262   6.455 -0.5245 -0.3497  0.7105
  936MOL0     C26238   8.593   0.298   6.529  0.6142  0.2552 -0.4077
  936MOL0     C26239   8.733   0.302   6.457  0.2936  1.1495  0.2417
  936MOL0     C26240   8.730   0.400   6.341  0.2933 -0.6486  1.0626
  936MOL0     C26241   8.847   0.390   6.248 -0.2338  0.7047 -0.7592
  936MOL0     N26242   8.827   0.487   6.134 -0.0335 -0.4020 -0.2375
  936MOL0     C26243   8.769   0.464   6.015 -1.0874 -0.2152 -0.5538
  936MOL0     C26244   8.747   0.580   5.949 -0.7893 -0.0330  0.4860
  936MOL0     C26245   8.693   0.583   5.808  0.0416  0.7619 -0.1969
  936MOL0     C26246   8.798   0.531   5.701  0.7429  0.4612  0.4799
  936MOL0     C26247   8.750   0.516   5.557  0.1479 -0.5047  0.9055
  936MOL0     C26248   8.863   0.494   5.463 -0.4604  0.5313  1.4036
  936MOL0     O26249   8.930   0.622   5.448 -0.2410 -0.9598 -0.6832
  936MOL0     C26250   9.048   0.619   5.387 -1.1825  0.0972  0.2442
  936MOL0     C26251   9.141   0.712   5.425 -0.3089  1.2586 -0.7628
  936MOL0     C26252   9.269   0.724   5.357  0.2540 -0.3515 -1.2911
  936MOL0     C26253   9.293   0.642   5.250 -0.2707 -0.4704 -0.1739
  936MOL0     C26254   9.425   0.653   5.172  0.6203  0.0773 -0.0119
  936MOL0     O26255   9.517   0.736   5.230  0.9800 -0.5325 -0.2852
  936MOL0     C26256   9.639   0.774   5.183 -0.9903  0.1175 -0.5783
  936MOL0     C26257   9.707   0.871   5.265  1.0072  0.0513 -0.2442
  936MOL0     C26258   9.830   0.927   5.226 -0.1237 -0.1582  0.3176
  936MOL0     C26259   9.903   0.872   5.110 -0.7240 -0.1415  0.2243
  936MOL0     O26260  10.027   0.932   5.079 -0.0152 -0.2251 -0.1989
  936MOL0     C26261  10.107   0.890   4.971 -0.9025 -0.4457 -0.1824
  936MOL0     C26262  10.254   0.920   5.017 -0.5911  0.2361 -0.1486
  936MOL0     C26263  10.322   1.019   4.917 -0.2860 -0.1651  0.1032
  936MOL0     C26264  10.461   1.071   4.977  0.2457 -0.9957  0.8232
  936MOL0     C26265  10.515   1.210   4.954  0.4464 -0.4126  0.5745
  936MOL0     C26266  10.504   1.246   4.804  0.1479 -0.1673  0.2013
  936MOL0     C26267  10.598   1.365   4.766  0.0612  0.3743  0.2725
  936MOL0     C26268  10.599   1.391   4.614  1.1018 -1.1377 -0.3236
  936MOL0    Cl26269  10.751   1.477   4.589  0.0643  0.0023 -0.0744
  936MOL0     C26270   9.829   0.780   5.036 -0.4307 -0.6187  0.5781
  936MOL0     C26271   9.708   0.732   5.068  0.4569 -0.0605  0.3322
  936MOL0     O26272   9.442   0.584   5.071  0.5275  0.0316  0.8859
  936MOL0     C26273   9.193   0.552   5.209 -0.9224  0.0192 -0.7521
  936MOL0     C26274   9.075   0.540   5.281 -0.3399  0.0241  0.4809
  936MOL0     N26275   8.808   0.674   6.028  0.8468 -1.0739  0.2491
  936MOL0     N26276   8.859   0.616   6.134  0.1184  0.3466 -0.0140
  936MOL0     C26277   7.830   0.268   6.722  0.2338 -0.1490 -0.5535
  936MOL0     C26278   7.719   0.325   6.788  0.2930 -0.3471 -1.0030
  936MOL0     C26279   7.487   0.498   7.151  0.8024 -0.2880  0.5419
  936MOL0     C26280   7.373   0.526   7.067 -0.4411  0.9591  0.0907
  936MOL0     C26281   7.244   0.520   7.114 -0.5385 -0.5941 -0.1697
  936MOL0     C26282   7.216   0.504   7.251 -0.0442  0.0926 -0.9981
  936MOL0     O26283   7.080   0.521   7.288  0.1237 -0.0838 -0.8048
  936MOL0     C26284   7.038   0.478   7.420  0.0942 -0.8268 -0.9117
  936MOL0     C26285   6.996   0.603   7.511 -0.7122 -0.3853  1.0102
  936MOL0     C26286   6.917   0.541   7.629  0.4561 -0.2787 -0.1031
  936MOL0     C26287   6.860   0.645   7.717  0.5234  1.1292 -0.0854
  936MOL0     C26288   6.774   0.583   7.818 -0.0711  0.3328 -0.0170
  936MOL0     C26289   6.700   0.519   7.896  0.1735 -0.2655  0.2960
  936MOL0     C26290   7.330   0.497   7.335 -0.1817 -0.3234 -0.0690
  936MOL0     C26291   7.464   0.493   7.289 -0.1490  0.0408 -1.4827
  936MOL0     C26292   7.562   0.496   7.405 -0.3449 -0.5442 -0.0113
  936MOL0     H26293   7.877   0.561   6.960  0.2681  1.9337 -2.0231
  936MOL0     H26294   8.069   0.463   6.855  0.7750 -1.5425 -0.1236
  936MOL0     H26295   8.007   0.213   6.501  1.6998 -3.7311  3.4878
  936MOL0     H26296   8.055   0.379   6.509  1.0010 -0.4912 -6.1303
  936MOL0     H26297   8.219   0.289   6.378  0.1713 -0.4532  0.2391
  936MOL0     H26298   8.212   0.129   6.461 -0.6042  0.3013  0.7399
  936MOL0     H26299   8.343   0.207   6.636 -1.3942 -1.1701 -1.6259
  936MOL0     H26300   8.318   0.375   6.576 -1.4487 -0.3907 -0.9161
  936MOL0     H26301   8.478   0.162   6.412 -0.0157  0.2787 -0.6910
  936MOL0     H26302   8.451   0.317   6.362  0.8606 -3.5643 -1.6035
  936MOL0     H26303   8.572   0.399   6.563  1.0862  0.3085 -0.2687
  936MOL0     H26304   8.596   0.245   6.624 -2.1068  1.0189  0.1910
  936MOL0     H26305   8.816   0.329   6.523  1.2438  0.4197 -0.6183
  936MOL0     H26306   8.768   0.203   6.426 -2.1816  0.2713  0.0234
  936MOL0     H26307   8.715   0.499   6.386 -0.6370  0.8418 -2.2395
  936MOL0     H26308   8.644   0.386   6.276 -0.1365  1.8218  1.0114
  936MOL0     H26309   8.949   0.406   6.286  0.3787 -3.2215 -0.3265
  936MOL0     H26310   8.841   0.285   6.217  2.3938 -1.8905  5.6544
  936MOL0     H26311   8.758   0.362   5.980 -0.7663 -1.3285  2.3049
  936MOL0     H26312   8.596   0.533   5.800 -1.1522  2.8749  0.1846
  936MOL0     H26313   8.659   0.685   5.787  1.6000  1.7137  1.5928
  936MOL0     H26314   8.889   0.592   5.692  1.6160 -0.8140  0.5144
  936MOL0     H26315   8.822   0.429   5.730  0.8346  0.5828  0.8513
  936MOL0     H26316   8.692   0.600   5.520  0.9978 -0.4371 -0.3057
  936MOL0     H26317   8.683   0.429   5.559 -0.2885 -0.1943 -0.0595
  936MOL0     H26318   8.818   0.475   5.365  1.3316 -1.5759  0.9188
  936MOL0     H26319   8.919   0.405   5.490 -0.5379 -0.4493 -1.3420
  936MOL0     H26320   9.116   0.768   5.515 -0.6046 -0.5692  0.3329
  936MOL0     H26321   9.345   0.790   5.398 -1.0050 -0.9453  2.3972
  936MOL0     H26322   9.653   0.900   5.355 -0.6894 -1.7769 -0.5979
  936MOL0     H26323   9.877   1.001   5.290 -2.4497  0.4452  1.4618
  936MOL0     H26324  10.105   0.782   4.953 -1.2089 -0.7069  1.2940
  936MOL0     H26325  10.075   0.941   4.880 -0.1973 -0.2135 -0.3048
  936MOL0     H26326  10.253   0.964   5.117  0.4043  0.3264 -0.1712
  936MOL0     H26327  10.323   0.836   5.029  1.2713  1.5697 -1.1172
  936MOL0     H26328  10.348   0.974   4.820 -2.2364  4.0164 -2.6323
  936MOL0     H26329  10.251   1.100   4.898  0.5638  0.0202 -2.7440
  936MOL0     H26330  10.528   0.994   4.935  0.4747  0.7014 -2.2262
  936MOL0     H26331  10.463   1.063   5.086  3.0344  1.2148  1.0383
  936MOL0     H26332  10.618   1.214   4.991  1.4012 -1.5801 -1.7361
  936MOL0     H26333  10.461   1.283   5.015  0.9665 -0.1772  0.7548
  936MOL0     H26334  10.537   1.159   4.746  1.2509 -0.1343  0.7575
  936MOL0     H26335  10.404   1.276   4.770 -0.3496 -0.6506  1.1881
  936MOL0     H26336  10.702   1.340   4.789  0.0965  0.1203 -0.1541
  936MOL0     H26337  10.575   1.455   4.824  0.4595  1.3298 -1.0029
  936MOL0     H26338  10.603   1.306   4.545  0.8436 -1.7829  0.4363
  936MOL0     H26339  10.521   1.461   4.585  2.2450 -0.1989 -1.1695
  936MOL0     H26340   9.871   0.736   4.946  0.1565  0.1489  0.4705
  936MOL0     H26341   9.672   0.651   5.006  0.8025  0.8439 -1.0930
  936MOL0     H26342   9.214   0.499   5.117  1.0536  2.8928 -2.1115
  936MOL0     H26343   9.004   0.470   5.237  0.9397 -2.4742  2.1619
  936MOL0     H26344   7.818   0.182   6.657 -4.7554 -2.2743  2.5677
  936MOL0     H26345   7.621   0.283   6.768  1.0434 -2.5884 -0.2479
  936MOL0     H26346   7.389   0.529   6.960 -2.6528  0.4349 -0.3152
  936MOL0     H26347   7.163   0.525   7.042 -0.3981 -0.5611 -0.3269
  936MOL0     H26348   7.118   0.432   7.478  3.1768  2.8702 -1.8503
  936MOL0     H26349   6.951   0.412   7.414 -2.2195  2.0183 -0.9347
  936MOL0     H26350   6.941   0.668   7.442  0.9082 -0.0851 -0.0494
  936MOL0     H26351   7.085   0.656   7.547 -0.5395 -1.2291  1.8733
  936MOL0     H26352   6.975   0.466   7.684  1.2811 -0.2609 -0.9291
  936MOL0     H26353   6.833   0.487   7.584 -0.8081 -1.0652  2.9342
  936MOL0     H26354   6.935   0.696   7.779  2.0610 -0.2613 -0.7118
  936MOL0     H26355   6.797   0.711   7.657 -1.7320 -0.0468  0.8665
  936MOL0     H26356   6.649   0.462   7.971 -2.0024  0.6628 -0.4085
  936MOL0     H26357   7.314   0.500   7.442  0.4426  0.5359  0.0097
  936MOL0     H26358   7.556   0.598   7.444 -2.1179  0.1726 -1.9484
  936MOL0     H26359   7.545   0.430   7.490 -1.7488 -0.4128 -0.1705
  936MOL0     H26360   7.665   0.500   7.367  0.1332 -1.3600  1.1583
  937MOL0     O26361   8.896   7.079   6.012  0.0342 -0.2347 -0.8096
  937MOL0     C26362   8.869   7.072   6.129 -0.5891 -0.8677 -0.5058
  937MOL0     O26363   8.957   7.029   6.222 -0.0910  0.0903  0.3832
  937MOL0     C26364   9.089   6.994   6.191  0.2122  0.1238 -0.2347
  937MOL0     C26365   9.130   6.925   6.072  0.1394  0.1124 -0.5061
  937MOL0     C26366   9.267   6.933   6.034  0.1391 -0.0894 -0.1355
  937MOL0     C26367   9.362   7.000   6.114  0.7269  0.2542  0.0648
  937MOL0     O26368   9.491   6.997   6.082 -0.9046  0.1924  0.4671
  937MOL0     C26369   9.588   6.942   6.185  0.8536 -0.2503  0.4136
  937MOL0     C26370   9.607   6.797   6.172  0.2655 -0.5622 -0.5667
  937MOL0     C26371   9.729   6.749   6.254  1.3493  0.4864  0.3169
  937MOL0     C26372   9.716   6.592   6.257 -0.3025  1.1041  0.0443
  937MOL0     C26373   9.837   6.534   6.333 -0.6454 -0.6247 -0.0443
  937MOL0     C26374   9.831   6.399   6.411 -0.6354  0.7881 -0.8721
  937MOL0     C26375   9.968   6.333   6.425 -0.7586 -0.7376  0.5105
  937MOL0     C26376   9.964   6.192   6.478 -0.2462  0.4531 -0.8844
  937MOL0     N26377  10.095   6.135   6.523 -0.7301 -0.4745 -0.3354
  937MOL0     C26378  10.183   6.071   6.441  0.2613  0.3913  0.1821
  937MOL0     C26379  10.301   6.066   6.506 -0.1296 -0.2304  0.1399
  937MOL0     C26380  10.433   5.990   6.474  1.0089  0.1783  0.0505
  937MOL0     C26381  10.562   6.060   6.513 -0.3054 -0.3069 -0.0428
  937MOL0     C26382  10.649   5.980   6.611  1.3777  0.2658 -0.2676
  937MOL0     C26383  10.787   6.051   6.637  0.7658  0.3287 -0.4458
  937MOL0     O26384  10.844   6.012   6.762 -0.6119 -0.3675  1.2701
  937MOL0     C26385  10.978   6.012   6.778  0.3829  0.1703  0.3158
  937MOL0     C26386  11.029   5.897   6.850 -0.4494 -0.5196  0.1883
  937MOL0     C26387  11.167   5.881   6.870 -0.0116  0.3562  0.4489
  937MOL0     C26388  11.262   5.964   6.797  0.1798 -0.4011 -0.4775
  937MOL0     C26389  11.406   5.940   6.810  0.5224 -0.4378  0.4809
  937MOL0     O26390  11.440   5.816   6.801  0.5187  0.7342  0.3181
  937MOL0     C26391  11.569   5.784   6.801 -0.3719 -0.1661  0.1211
  937MOL0     C26392  11.626   5.706   6.705 -0.5485  0.0087  0.0069
  937MOL0     C26393  11.763   5.681   6.714 -0.1536  0.4508  0.2951
  937MOL0     C26394  11.843   5.725   6.817 -0.3274 -0.7460  0.4497
  937MOL0     O26395  11.975   5.688   6.815  0.4172 -0.5327 -0.6186
  937MOL0     C26396  12.026   5.642   6.942 -0.2388 -0.1306 -0.3560
  937MOL0     C26397  12.164   5.581   6.918 -0.5286 -0.3061  1.0616
  937MOL0     C26398  12.260   5.663   6.850 -1.2622  0.4827  0.5232
  937MOL0     C26399  12.409   5.605   6.855  0.5374 -0.5548  0.2098
  937MOL0     C26400  12.513   5.669   6.767 -0.0235  0.0724 -0.0076
  937MOL0     C26401  12.653   5.621   6.799  0.4426 -0.1476  0.5627
  937MOL0     C26402  12.749   5.694   6.699  0.0069 -0.4873 -0.3600
  937MOL0     C26403  12.764   5.847   6.709  0.5263  0.1790  0.5987
  937MOL0    Cl26404  12.827   5.892   6.865  0.0512  0.4420 -0.0087
  937MOL0     C26405  11.788   5.798   6.924  0.2252  0.3081 -0.0014
  937MOL0     C26406  11.645   5.823   6.917  0.7259 -0.2347  0.3588
  937MOL0     O26407  11.480   6.037   6.807 -0.3860 -0.3716 -0.5181
  937MOL0     C26408  11.207   6.071   6.715  0.4726 -0.4486 -0.4976
  937MOL0     C26409  11.065   6.097   6.718  0.0024 -0.2913  0.0209
  937MOL0     N26410  10.278   6.142   6.617 -0.2552 -0.1946  0.2879
  937MOL0     N26411  10.161   6.192   6.626 -0.0346 -0.1083  0.4059
  937MOL0     C26412   9.316   7.066   6.229  0.2378  0.0647  0.1165
  937MOL0     C26413   9.182   7.058   6.265 -0.2149 -0.4908 -0.0049
  937MOL0     C26414   8.731   7.112   6.174 -0.2949  0.4421 -0.1511
  937MOL0     C26415   8.729   7.157   6.304  0.4403  1.1016  0.7579
  937MOL0     C26416   8.620   7.193   6.369  0.1233  0.2345 -1.0316
  937MOL0     C26417   8.498   7.197   6.313  0.4350  0.3030  1.2169
  937MOL0     O26418   8.392   7.245   6.388  0.8655  0.2639 -0.2824
  937MOL0     C26419   8.264   7.171   6.381 -1.0480 -0.8070  0.0550
  937MOL0     C26420   8.155   7.262   6.422  0.2054 -0.2606 -0.3107
  937MOL0     C26421   8.018   7.189   6.407 -0.6468  0.2918 -0.5207
  937MOL0     C26422   7.913   7.291   6.422  0.3813 -0.6663  0.1442
  937MOL0     C26423   7.889   7.313   6.568 -0.3895  0.1246 -0.2225
  937MOL0     C26424   7.867   7.332   6.686 -0.7616  0.6829  0.9449
  937MOL0     C26425   8.492   7.140   6.186 -0.0474 -0.4973  0.0193
  937MOL0     C26426   8.607   7.102   6.113 -0.3594  0.2058  0.1686
  937MOL0     C26427   8.579   7.070   5.965 -0.5800 -0.4029 -0.7955
  937MOL0     H26428   9.063   6.859   6.018  1.3650 -1.2357 -0.4369
  937MOL0     H26429   9.304   6.878   5.948  1.4731  0.3764  0.1068
  937MOL0     H26430   9.689   6.978   6.164 -0.1783  1.6715 -1.8336
  937MOL0     H26431   9.551   6.967   6.284 -1.5122  0.4018 -0.5711
  937MOL0     H26432   9.626   6.779   6.066 -1.1507 -0.8530 -0.7953
  937MOL0     H26433   9.520   6.734   6.192  0.9153 -1.4900 -0.6028
  937MOL0     H26434   9.721   6.788   6.356  1.0731  0.7749  0.1854
  937MOL0     H26435   9.823   6.781   6.208  1.0861 -0.3032 -0.7954
  937MOL0     H26436   9.632   6.559   6.319  0.3642 -1.7610 -0.4442
  937MOL0     H26437   9.718   6.548   6.157  1.1117 -0.3593  0.6742
  937MOL0     H26438   9.919   6.517   6.262 -1.6446  0.9180 -1.6412
  937MOL0     H26439   9.866   6.617   6.398  0.0954  0.3012 -1.5116
  937MOL0     H26440   9.790   6.413   6.511 -2.1971 -1.5809 -1.0882
  937MOL0     H26441   9.774   6.321   6.360  0.2803 -2.2776  2.4370
  937MOL0     H26442  10.025   6.387   6.501  2.2348 -2.4329 -0.3806
  937MOL0     H26443  10.028   6.334   6.334 -1.5037 -2.0158 -0.0146
  937MOL0     H26444   9.889   6.186   6.558 -1.5948 -0.5097 -2.1615
  937MOL0     H26445   9.918   6.122   6.408 -1.9089  2.8250 -2.3367
  937MOL0     H26446  10.163   6.044   6.338  0.5061  2.9679 -0.6153
  937MOL0     H26447  10.431   5.907   6.545  1.7886  3.2890  4.1606
  937MOL0     H26448  10.425   5.943   6.376 -0.3183 -0.7282  0.5583
  937MOL0     H26449  10.612   6.080   6.419  0.5280  0.8572  0.6298
  937MOL0     H26450  10.530   6.156   6.555  0.1824  0.5039 -1.4794
  937MOL0     H26451  10.673   5.883   6.568  1.7744  1.1233 -2.0737
  937MOL0     H26452  10.584   5.971   6.699  0.9455 -0.1421 -0.6220
  937MOL0     H26453  10.782   6.161   6.641  1.2782  0.3196  2.6221
  937MOL0     H26454  10.849   6.026   6.551  0.1302 -1.5797 -0.4014
  937MOL0     H26455  10.959   5.829   6.897 -0.5620 -0.2408  0.4307
  937MOL0     H26456  11.208   5.818   6.948  2.0560  1.1152  0.0647
  937MOL0     H26457  11.565   5.677   6.620 -0.1273 -2.1245  0.3807
  937MOL0     H26458  11.810   5.625   6.634 -3.9000 -1.7099 -0.6171
  937MOL0     H26459  12.035   5.730   7.007 -1.9389 -0.2364  0.0661
  937MOL0     H26460  11.956   5.568   6.982 -0.7342 -0.5640 -1.9838
  937MOL0     H26461  12.204   5.542   7.012 -0.1364  0.1688  1.0958
  937MOL0     H26462  12.141   5.490   6.860  2.1129 -1.2040  1.2721
  937MOL0     H26463  12.230   5.686   6.748  0.7120  1.0154  0.0161
  937MOL0     H26464  12.272   5.759   6.902  1.2954  0.6741 -0.2483
  937MOL0     H26465  12.402   5.503   6.815  2.5324 -0.6239 -0.0911
  937MOL0     H26466  12.440   5.601   6.960 -0.6513 -2.4037  0.5411
  937MOL0     H26467  12.519   5.774   6.797 -1.5940 -0.6349  3.2625
  937MOL0     H26468  12.491   5.646   6.662  0.6048 -0.9206  0.0725
  937MOL0     H26469  12.679   5.670   6.893  1.5840  1.5030 -0.5465
  937MOL0     H26470  12.651   5.512   6.800 -0.0488 -0.1796  3.4525
  937MOL0     H26471  12.724   5.646   6.604 -1.4477 -0.6556  0.0738
  937MOL0     H26472  12.850   5.673   6.735 -0.0759  0.7966  0.7180
  937MOL0     H26473  12.830   5.881   6.629 -1.9085  1.6703 -0.9086
  937MOL0     H26474  12.665   5.886   6.681  0.1627 -0.3423  1.1206
  937MOL0     H26475  11.847   5.826   7.011 -0.5375  0.7455  0.3817
  937MOL0     H26476  11.595   5.865   7.004  0.7101 -1.1918  0.8171
  937MOL0     H26477  11.255   6.138   6.644 -0.0143  0.2602 -0.1774
  937MOL0     H26478  11.022   6.178   6.660 -0.7741 -1.2203 -0.7292
  937MOL0     H26479   9.383   7.102   6.307  0.5056 -3.2407  1.6003
  937MOL0     H26480   9.149   7.103   6.358  1.5799  0.2224  0.3291
  937MOL0     H26481   8.825   7.161   6.355  1.3518  1.8518 -0.9037
  937MOL0     H26482   8.632   7.232   6.470 -3.1569  3.6153 -1.7382
  937MOL0     H26483   8.267   7.091   6.456  0.4586 -2.8519 -2.0416
  937MOL0     H26484   8.253   7.130   6.280 -1.9714  0.2861 -0.3075
  937MOL0     H26485   8.152   7.359   6.373  0.4115  1.3547  2.6479
  937MOL0     H26486   8.167   7.287   6.528 -2.7399  2.1873 -0.4207
  937MOL0     H26487   8.014   7.121   6.492 -1.4835  2.8316  1.6468
  937MOL0     H26488   8.014   7.145   6.307  0.2498  1.1667 -0.9604
  937MOL0     H26489   7.941   7.386   6.375  1.2012  2.1432  5.5246
  937MOL0     H26490   7.809   7.267   6.395  0.1377 -0.1266  0.5820
  937MOL0     H26491   7.868   7.355   6.791 -1.0959  3.6366  0.3874
  937MOL0     H26492   8.400   7.136   6.128  2.2903  2.7841 -4.4784
  937MOL0     H26493   8.474   7.049   5.946 -0.8915  2.6372 -3.2179
  937MOL0     H26494   8.607   7.149   5.895  0.0811 -1.1980 -1.4678
  937MOL0     H26495   8.647   6.990   5.933 -0.9482 -0.4818 -1.4082
  938MOL0     O26496   0.389   6.395   5.647  0.1956 -0.5572 -0.3892
  938MOL0     C26497   0.421   6.418   5.529  0.1372  0.8813 -0.1704
  938MOL0     O26498   0.536   6.452   5.484 -0.2641 -0.1499  0.3493
  938MOL0     C26499   0.638   6.375   5.529 -0.4790 -0.0386  0.1352
  938MOL0     C26500   0.674   6.248   5.477 -0.2154 -0.9745 -0.3909
  938MOL0     C26501   0.779   6.178   5.530 -0.4138 -0.1262  0.2382
  938MOL0     C26502   0.858   6.234   5.633 -0.5035 -0.1129  0.0204
  938MOL0     O26503   0.962   6.176   5.700 -0.0784  0.0247  0.3689
  938MOL0     C26504   1.007   6.050   5.651  0.2472  0.7470  1.1329
  938MOL0     C26505   1.082   6.064   5.516  0.4701 -0.4466 -0.6008
  938MOL0     C26506   1.189   6.171   5.514 -0.7326 -0.6626  0.3783
  938MOL0     C26507   1.315   6.133   5.595  0.1680  0.1831 -0.0761
  938MOL0     C26508   1.429   6.233   5.570 -0.2636  0.1980  0.0359
  938MOL0     C26509   1.563   6.173   5.624 -0.2750  0.5838 -0.0030
  938MOL0     C26510   1.676   6.279   5.605  0.7942  0.2756  0.0479
  938MOL0     C26511   1.662   6.404   5.689  0.0976 -0.7241  0.0414
  938MOL0     N26512   1.780   6.485   5.670  0.7587 -0.4845  1.3567
  938MOL0     C26513   1.910   6.437   5.668  0.2522  0.5730 -0.0844
  938MOL0     C26514   1.976   6.537   5.612 -0.6771  0.0176  0.6463
  938MOL0     C26515   2.125   6.524   5.579  0.0103  0.0377 -0.5173
  938MOL0     C26516   2.213   6.611   5.677 -0.1484  0.6805  0.2895
  938MOL0     C26517   2.355   6.572   5.655 -0.1438 -0.2005  0.2649
  938MOL0     C26518   2.453   6.656   5.733  0.3135  0.0305  0.0308
  938MOL0     O26519   2.583   6.608   5.708 -0.7233 -0.6583 -0.4119
  938MOL0     C26520   2.687   6.658   5.793  0.5976 -0.2557 -0.4638
  938MOL0     C26521   2.689   6.779   5.866  0.6293  0.4116  0.1910
  938MOL0     C26522   2.797   6.825   5.942 -0.2854  0.2878 -0.0550
  938MOL0     C26523   2.911   6.737   5.946 -0.2496 -0.3030  0.2050
  938MOL0     C26524   3.033   6.777   6.017 -0.2728 -0.2982 -0.2187
  938MOL0     O26525   3.142   6.688   6.006  0.5345  0.8185  0.1443
  938MOL0     C26526   3.247   6.700   6.094  0.2417 -0.2977 -0.6392
  938MOL0     C26527   3.236   6.717   6.243 -0.1509  0.7763  0.2908
  938MOL0     C26528   3.350   6.704   6.319 -0.0813 -0.4252 -0.1863
  938MOL0     C26529   3.483   6.673   6.268 -0.3755 -0.1163  0.4673
  938MOL0     O26530   3.593   6.660   6.350  0.4502  0.3683  0.1241
  938MOL0     C26531   3.584   6.659   6.494  0.4359  0.3226 -0.6176
  938MOL0     C26532   3.589   6.805   6.540 -0.6504 -0.4510 -0.2996
  938MOL0     C26533   3.726   6.867   6.501  0.4150  0.0655 -0.2070
  938MOL0     C26534   3.732   7.016   6.545 -0.2029  0.1253 -0.1792
  938MOL0     C26535   3.817   7.038   6.669 -0.1398 -0.3124 -0.5905
  938MOL0     C26536   3.966   7.060   6.636  0.1468 -0.2605 -0.8623
  938MOL0     C26537   4.057   7.042   6.759 -0.3912  0.3468 -0.6838
  938MOL0     C26538   4.040   7.140   6.875  0.2643 -1.0937  0.5412
  938MOL0    Cl26539   4.112   7.074   7.018 -0.0809 -0.0086  0.3938
  938MOL0     C26540   3.488   6.662   6.128 -0.3021 -0.4278  0.3773
  938MOL0     C26541   3.374   6.672   6.044  0.2140 -0.0072  0.5298
  938MOL0     O26542   3.034   6.885   6.071  0.4149 -0.7535 -0.7929
  938MOL0     C26543   2.912   6.616   5.876 -0.2534 -0.0850 -0.7329
  938MOL0     C26544   2.800   6.575   5.807 -0.1387 -0.2299  0.2799
  938MOL0     N26545   1.888   6.634   5.573 -0.2469 -0.2645  0.1827
  938MOL0     N26546   1.778   6.604   5.605  0.2069  0.0675 -0.3174
  938MOL0     C26547   0.826   6.362   5.679  0.4780  0.5362  0.1768
  938MOL0     C26548   0.718   6.434   5.628 -0.4887 -0.5926 -0.5907
  938MOL0     C26549   0.309   6.436   5.433  0.0583 -0.7368  0.2571
  938MOL0     C26550   0.336   6.432   5.298 -0.5586  0.0842  0.6482
  938MOL0     C26551   0.238   6.458   5.199 -0.8032  0.6571 -0.7147
  938MOL0     C26552   0.104   6.471   5.239  0.1556 -0.4239  0.3165
  938MOL0     O26553  -0.000   6.469   5.161 -0.4861 -0.6644 -1.3395
  938MOL0     C26554   0.003   6.573   5.068 -1.1197  0.2872 -0.0929
  938MOL0     C26555  -0.138   6.627   5.049  0.7954 -0.7228 -0.6282
  938MOL0     C26556  -0.144   6.777   5.065 -0.0513 -0.1491  0.6070
  938MOL0     C26557  -0.122   6.816   5.215 -0.4566 -0.0951  0.3780
  938MOL0     C26558  -0.154   6.955   5.227  0.6342 -0.1813  1.1131
  938MOL0     C26559  -0.194   7.070   5.238 -0.0616  0.5696  0.7795
  938MOL0     C26560   0.068   6.472   5.367  0.3564  0.9137 -0.2037
  938MOL0     C26561   0.166   6.443   5.468 -0.8616 -0.8113 -0.3746
  938MOL0     C26562   0.119   6.403   5.605 -0.7709 -0.0669 -1.2174
  938MOL0     H26563   0.626   6.192   5.397 -0.7403 -0.9021 -0.1315
  938MOL0     H26564   0.796   6.077   5.491  0.6934 -0.0821  0.5661
  938MOL0     H26565   1.084   6.012   5.719  3.8550  0.5159 -2.6221
  938MOL0     H26566   0.943   5.962   5.641  1.2373  0.0671  0.5910
  938MOL0     H26567   1.008   6.107   5.448  0.9440  1.7628  0.2023
  938MOL0     H26568   1.128   5.973   5.477  0.2271 -0.7062 -0.2813
  938MOL0     H26569   1.153   6.267   5.550  0.1582 -0.5719  1.0653
  938MOL0     H26570   1.221   6.192   5.411 -0.3816 -2.6401  0.0376
  938MOL0     H26571   1.293   6.136   5.703 -2.3939 -0.6424 -0.5104
  938MOL0     H26572   1.355   6.033   5.579  0.5843 -0.6061  4.4224
  938MOL0     H26573   1.437   6.262   5.465 -1.5733  1.3003  0.2133
  938MOL0     H26574   1.418   6.326   5.625  2.3618  0.4931  0.1507
  938MOL0     H26575   1.553   6.169   5.733  0.9329 -0.3113  0.0926
  938MOL0     H26576   1.596   6.074   5.590  1.7019 -0.2762  3.8875
  938MOL0     H26577   1.662   6.309   5.501 -0.8865  1.8788  0.6744
  938MOL0     H26578   1.769   6.226   5.628 -0.1514 -0.9161  1.3088
  938MOL0     H26579   1.572   6.460   5.661  0.0445 -1.5943 -1.6205
  938MOL0     H26580   1.656   6.385   5.797  3.1956 -0.9852  0.2429
  938MOL0     H26581   1.938   6.341   5.710 -1.5080 -1.4741 -3.1920
  938MOL0     H26582   2.158   6.420   5.585 -1.9202 -0.5497  1.0355
  938MOL0     H26583   2.137   6.552   5.474 -1.4703 -1.9033 -1.2760
  938MOL0     H26584   2.193   6.717   5.655  1.7531  0.5207 -2.8441
  938MOL0     H26585   2.179   6.592   5.779 -1.1989 -0.1734 -0.1952
  938MOL0     H26586   2.384   6.575   5.550  1.4134 -1.5588  0.6197
  938MOL0     H26587   2.358   6.466   5.682 -1.3846 -0.6847 -1.3382
  938MOL0     H26588   2.438   6.651   5.841 -0.7344  2.0036  0.0096
  938MOL0     H26589   2.451   6.759   5.696  1.0479 -0.5790 -1.8432
  938MOL0     H26590   2.608   6.851   5.863  1.7250  1.6748  0.2243
  938MOL0     H26591   2.781   6.925   5.981 -2.0110 -0.3628  1.0208
  938MOL0     H26592   3.141   6.747   6.287  0.7699  0.7932  2.4113
  938MOL0     H26593   3.342   6.717   6.426  1.8542 -2.4485  0.2682
  938MOL0     H26594   3.497   6.604   6.530  1.1971 -1.7117 -1.7517
  938MOL0     H26595   3.668   6.606   6.540 -0.5500  1.1611  2.4361
  938MOL0     H26596   3.514   6.869   6.495 -0.1953  0.2949 -0.0144
  938MOL0     H26597   3.571   6.804   6.648 -0.0083  2.3486 -0.1068
  938MOL0     H26598   3.805   6.816   6.557 -1.8813 -1.0560  2.1999
  938MOL0     H26599   3.742   6.853   6.394  0.7115 -1.3357 -0.0079
  938MOL0     H26600   3.633   7.055   6.570 -0.8972 -0.6959 -1.5435
  938MOL0     H26601   3.764   7.075   6.458  2.4946 -0.3740  0.3772
  938MOL0     H26602   3.808   6.957   6.741 -1.6527  1.5319  1.4227
  938MOL0     H26603   3.790   7.128   6.726  3.0426  0.1646  0.3551
  938MOL0     H26604   3.986   6.986   6.559 -3.4850 -2.5025  0.0947
  938MOL0     H26605   3.967   7.159   6.590 -0.9591 -0.6704 -1.8124
  938MOL0     H26606   4.160   7.047   6.723 -0.8694  0.2297 -2.1100
  938MOL0     H26607   4.044   6.944   6.805 -1.5414 -0.2069 -2.1237
  938MOL0     H26608   4.085   7.234   6.841  0.4546 -1.4064 -0.0827
  938MOL0     H26609   3.940   7.177   6.901 -0.1541  1.4487 -3.6924
  938MOL0     H26610   3.582   6.620   6.093 -0.3103 -2.5303  2.5936
  938MOL0     H26611   3.388   6.648   5.939  1.8141  1.5629  0.3447
  938MOL0     H26612   2.994   6.544   5.877 -1.3045 -1.3399  0.8842
  938MOL0     H26613   2.795   6.479   5.757  0.8028 -0.5988  0.8664
  938MOL0     H26614   0.890   6.388   5.763  0.5685  0.8811  0.0044
  938MOL0     H26615   0.689   6.526   5.678  2.9299  0.7670 -0.8484
  938MOL0     H26616   0.436   6.420   5.257 -1.1797  0.0916 -0.9494
  938MOL0     H26617   0.265   6.459   5.094 -2.0070 -2.8721 -1.1929
  938MOL0     H26618   0.033   6.539   4.969  0.4290  0.8102  0.1599
  938MOL0     H26619   0.067   6.659   5.092 -1.4943  0.3727  0.6352
  938MOL0     H26620  -0.210   6.582   5.118  3.8626 -0.0702  3.3406
  938MOL0     H26621  -0.167   6.607   4.945  0.9209  0.9545 -1.0207
  938MOL0     H26622  -0.242   6.807   5.025  0.3343  1.4533  0.8207
  938MOL0     H26623  -0.069   6.821   4.999 -1.9196 -0.3669 -1.8033
  938MOL0     H26624  -0.201   6.766   5.272 -2.9415  3.0106 -0.0791
  938MOL0     H26625  -0.017   6.805   5.244 -0.0937 -2.5141 -1.4633
  938MOL0     H26626  -0.232   7.170   5.245 -2.1695  0.0370 -1.7540
  938MOL0     H26627  -0.039   6.468   5.382  0.1846 -1.6551 -1.5179
  938MOL0     H26628   0.010   6.396   5.604 -0.9751 -1.2438  3.3542
  938MOL0     H26629   0.146   6.299   5.628 -0.2839  0.0882 -1.0841
  938MOL0     H26630   0.140   6.471   5.688 -0.2130  0.5193 -1.8355
  939MOL0     O26631   1.531   4.061   7.720  0.0179  0.1173 -0.0811
  939MOL0     C26632   1.457   4.073   7.820  0.0317  0.1800 -0.7287
  939MOL0     O26633   1.512   4.094   7.943 -0.3587  1.0647  0.3610
  939MOL0     C26634   1.644   4.106   7.970 -0.2876 -0.2476 -0.4056
  939MOL0     C26635   1.664   4.115   8.105  0.1231 -0.3167  0.4221
  939MOL0     C26636   1.795   4.126   8.164  0.3927  0.9750  0.8616
  939MOL0     C26637   1.902   4.129   8.075 -0.0528 -1.1344 -0.0912
  939MOL0     O26638   2.021   4.171   8.135  0.4510  0.4567 -0.5857
  939MOL0     C26639   2.137   4.193   8.051  0.1630  0.3488  0.4936
  939MOL0     C26640   2.248   4.267   8.120 -0.9049 -0.0105 -0.7164
  939MOL0     C26641   2.370   4.298   8.033  0.5713  0.4311  0.6054
  939MOL0     C26642   2.511   4.281   8.077 -0.5342 -0.3234 -0.4518
  939MOL0     C26643   2.604   4.353   7.983  0.0554  0.0535 -0.8070
  939MOL0     C26644   2.748   4.340   8.018 -1.2542  0.2164 -0.4014
  939MOL0     C26645   2.833   4.453   7.972  0.3076  0.5658  0.1759
  939MOL0     C26646   2.790   4.597   8.013 -0.0345  0.8716 -0.0755
  939MOL0     N26647   2.887   4.700   7.969  0.2060 -0.1050  0.0130
  939MOL0     C26648   3.020   4.713   8.013 -0.1708  0.4970 -0.1645
  939MOL0     C26649   3.053   4.830   7.967 -0.4169 -0.0039 -0.4045
  939MOL0     C26650   3.184   4.885   7.994 -0.4077  0.5794 -0.2126
  939MOL0     C26651   3.296   4.807   7.917 -0.5715 -0.2584  0.7191
  939MOL0     C26652   3.277   4.835   7.770  1.0243 -0.7423 -0.7922
  939MOL0     C26653   3.400   4.808   7.684 -0.0080  0.5923  0.8567
  939MOL0     O26654   3.495   4.910   7.709  0.0112  0.0584 -0.5034
  939MOL0     C26655   3.628   4.901   7.693  0.4106 -0.7776  0.5397
  939MOL0     C26656   3.700   5.018   7.713 -0.3016  0.0841 -0.1802
  939MOL0     C26657   3.842   5.013   7.704 -0.3000  0.0100  1.0008
  939MOL0     C26658   3.911   4.891   7.680 -0.0042  0.1340 -1.9563
  939MOL0     C26659   4.057   4.905   7.683  0.0646 -0.5003 -0.6769
  939MOL0     O26660   4.115   4.788   7.653  0.5114 -0.2351 -0.6361
  939MOL0     C26661   4.255   4.798   7.651 -0.4734  0.2179 -0.0195
  939MOL0     C26662   4.328   4.833   7.540 -0.4369 -0.1819  0.4740
  939MOL0     C26663   4.462   4.833   7.540  0.3820 -0.6354  0.2464
  939MOL0     C26664   4.534   4.769   7.644 -0.2094  0.0558 -0.2264
  939MOL0     O26665   4.667   4.744   7.639  0.7421 -0.1227  0.0699
  939MOL0     C26666   4.765   4.840   7.588 -0.2784 -0.3814  0.5540
  939MOL0     C26667   4.892   4.850   7.678 -0.4070  0.4111  0.6165
  939MOL0     C26668   4.957   4.709   7.685 -0.2080 -0.3420 -0.1996
  939MOL0     C26669   5.099   4.703   7.673 -0.2511  0.0961  0.3719
  939MOL0     C26670   5.166   4.782   7.784  0.1430  0.3347  0.6089
  939MOL0     C26671   5.319   4.772   7.756  0.1086  0.1786  0.1602
  939MOL0     C26672   5.377   4.822   7.623 -0.6962  0.3463  0.3143
  939MOL0     C26673   5.532   4.825   7.629 -0.2958 -0.2185 -0.0983
  939MOL0    Cl26674   5.603   4.955   7.723 -0.2797 -0.2490  0.3061
  939MOL0     C26675   4.457   4.714   7.755  0.5003 -0.4195  0.8670
  939MOL0     C26676   4.322   4.738   7.765  0.4947 -0.0721  0.5029
  939MOL0     O26677   4.109   5.011   7.729  0.0907  0.2281 -0.2816
  939MOL0     C26678   3.838   4.766   7.653  0.3911  0.7843  0.6313
  939MOL0     C26679   3.698   4.781   7.659  1.5146  0.0879  0.4798
  939MOL0     N26680   2.955   4.878   7.878  0.8210  0.3221 -0.4325
  939MOL0     N26681   2.859   4.793   7.881 -0.0389 -0.4429  0.3537
  939MOL0     C26682   1.884   4.105   7.939  0.4731  0.0970 -0.7932
  939MOL0     C26683   1.758   4.098   7.889 -0.3207 -0.7289 -0.2217
  939MOL0     C26684   1.304   4.058   7.829  0.5876  0.1786 -0.2117
  939MOL0     C26685   1.243   4.070   7.702 -0.4052  1.0993  0.1045
  939MOL0     C26686   1.105   4.058   7.687 -0.4020 -0.3599 -0.2484
  939MOL0     C26687   1.028   4.045   7.800  0.1115 -0.9235 -0.6841
  939MOL0     O26688   0.894   4.009   7.786 -0.2272 -0.8536  0.5408
  939MOL0     C26689   0.832   3.915   7.873  0.4554 -0.2868 -0.6180
  939MOL0     C26690   0.904   3.773   7.848 -0.1507 -0.7226  0.3254
  939MOL0     C26691   0.828   3.668   7.930  0.1801 -0.2194 -0.2238
  939MOL0     C26692   0.833   3.679   8.084  0.1635  0.9660 -1.1202
  939MOL0     C26693   0.973   3.663   8.107 -0.3370 -0.5012  0.2222
  939MOL0     C26694   1.094   3.661   8.135 -0.0791  0.1307  0.1916
  939MOL0     C26695   1.083   4.050   7.924 -0.7274 -0.5106 -0.5524
  939MOL0     C26696   1.221   4.054   7.946  0.1205 -0.3283 -0.3027
  939MOL0     C26697   1.271   4.051   8.096 -0.0984  0.6253 -0.0269
  939MOL0     H26698   1.577   4.096   8.166 -0.3742 -1.1819 -0.5192
  939MOL0     H26699   1.798   4.131   8.273 -3.7885  1.9418  1.1058
  939MOL0     H26700   2.178   4.100   8.011  0.8955  0.5895  0.6703
  939MOL0     H26701   2.104   4.256   7.968 -0.3292  1.0465  1.2004
  939MOL0     H26702   2.276   4.207   8.207 -2.1467  1.1073  0.5139
  939MOL0     H26703   2.204   4.360   8.158  0.1469  0.8498 -1.5619
  939MOL0     H26704   2.361   4.403   8.002 -1.0524  1.1261  3.0847
  939MOL0     H26705   2.367   4.238   7.942  0.8512  0.9755  0.2309
  939MOL0     H26706   2.540   4.328   8.172  7.7012 -0.1470 -2.2663
  939MOL0     H26707   2.528   4.173   8.069  0.1466 -0.1841 -0.9951
  939MOL0     H26708   2.596   4.305   7.885  0.7575 -0.5460 -0.5814
  939MOL0     H26709   2.567   4.456   7.988 -0.3257 -0.1484  2.4542
  939MOL0     H26710   2.766   4.332   8.125  2.6293 -0.4496 -0.9768
  939MOL0     H26711   2.788   4.245   7.982  0.0118  0.8299 -0.6504
  939MOL0     H26712   2.829   4.456   7.863 -2.1751  2.1174  0.2396
  939MOL0     H26713   2.939   4.439   7.996  0.2072  1.4355  1.2256
  939MOL0     H26714   2.697   4.617   7.959  0.6037  0.8735 -1.1957
  939MOL0     H26715   2.786   4.596   8.123  1.3544 -1.6482  0.0519
  939MOL0     H26716   3.061   4.655   8.095 -1.7248  0.2932  0.5237
  939MOL0     H26717   3.181   4.990   7.964  0.3093  0.0047 -2.4835
  939MOL0     H26718   3.207   4.881   8.101  0.8074  2.8719 -0.3299
  939MOL0     H26719   3.394   4.847   7.947  0.0474  0.1030 -1.6046
  939MOL0     H26720   3.292   4.699   7.939  1.3133 -1.1284 -2.5263
  939MOL0     H26721   3.252   4.941   7.774  0.8010 -0.8200  1.7860
  939MOL0     H26722   3.195   4.782   7.722  0.4655  0.8142 -1.6185
  939MOL0     H26723   3.366   4.814   7.580  0.2350  2.4774  0.8407
  939MOL0     H26724   3.435   4.706   7.696 -0.3383  0.0821 -1.8430
  939MOL0     H26725   3.652   5.105   7.757 -2.3114 -3.1860  4.8709
  939MOL0     H26726   3.869   5.113   7.737 -0.5786 -0.6335  3.3083
  939MOL0     H26727   4.283   4.868   7.448  1.0686  0.1319 -0.1774
  939MOL0     H26728   4.514   4.873   7.454 -0.0314  1.6348  0.9898
  939MOL0     H26729   4.793   4.816   7.485 -0.1096 -1.6790  0.8880
  939MOL0     H26730   4.734   4.945   7.592  0.8777  0.0117 -0.2426
  939MOL0     H26731   4.956   4.924   7.631  0.8203 -1.6706 -1.1771
  939MOL0     H26732   4.863   4.880   7.779  0.8090  0.2595  1.0294
  939MOL0     H26733   4.928   4.671   7.783  0.3476  2.9192  1.3394
  939MOL0     H26734   4.914   4.643   7.609  1.4965  1.0937 -2.5342
  939MOL0     H26735   5.125   4.749   7.577 -0.2496  0.1343  0.3912
  939MOL0     H26736   5.134   4.599   7.670  2.4395  0.8349  2.1389
  939MOL0     H26737   5.147   4.748   7.886 -2.1866 -0.0281  0.0989
  939MOL0     H26738   5.136   4.887   7.774 -0.1598  0.1765 -0.2257
  939MOL0     H26739   5.372   4.820   7.839 -0.2648  1.6084 -0.3995
  939MOL0     H26740   5.342   4.665   7.763 -1.9281 -0.1908  2.0760
  939MOL0     H26741   5.326   4.916   7.602 -1.4197  0.1647  1.1850
  939MOL0     H26742   5.364   4.745   7.546 -0.1350 -1.2542  1.7635
  939MOL0     H26743   5.561   4.731   7.677 -1.4223 -1.6052 -1.9414
  939MOL0     H26744   5.555   4.835   7.523  2.2722  0.5809  0.4841
  939MOL0     H26745   4.514   4.660   7.829  1.8148 -1.4701 -0.8569
  939MOL0     H26746   4.259   4.707   7.848 -1.4157 -2.5835 -1.7095
  939MOL0     H26747   3.882   4.676   7.611  2.4516  2.9071 -2.1514
  939MOL0     H26748   3.634   4.704   7.618  0.2456  1.3952 -0.0857
  939MOL0     H26749   1.966   4.102   7.867  0.7037  1.5299 -0.6172
  939MOL0     H26750   1.741   4.100   7.782  0.7251 -0.7886 -0.3954
  939MOL0     H26751   1.302   4.069   7.610  0.1648 -0.6539  0.4602
  939MOL0     H26752   1.054   4.058   7.591  1.1031 -1.1996 -1.0819
  939MOL0     H26753   0.727   3.905   7.845  0.7497  3.0681 -3.6529
  939MOL0     H26754   0.835   3.942   7.979 -1.9611  0.3164 -0.6492
  939MOL0     H26755   1.011   3.769   7.869 -0.4941 -1.0662  2.1522
  939MOL0     H26756   0.899   3.747   7.741  0.5493 -4.9225  1.1519
  939MOL0     H26757   0.868   3.568   7.911 -2.6167 -1.2746 -1.1938
  939MOL0     H26758   0.724   3.670   7.894  0.2205 -3.7061 -0.9038
  939MOL0     H26759   0.804   3.779   8.118 -0.0362  0.6328 -0.2688
  939MOL0     H26760   0.769   3.608   8.138  1.9927 -1.4346 -1.9706
  939MOL0     H26761   1.193   3.651   8.174  0.6874  1.1661 -1.4200
  939MOL0     H26762   1.009   4.040   8.003 -0.4902  0.6915 -0.1615
  939MOL0     H26763   1.342   3.970   8.115  0.4856  1.0809 -0.1968
  939MOL0     H26764   1.328   4.141   8.120 -3.5909  3.0328 -0.0176
  939MOL0     H26765   1.198   4.044   8.177  2.3453  2.5339  2.5435
  940MOL0     O26766   9.601   8.019   3.801 -0.3232 -0.2098 -0.1414
  940MOL0     C26767   9.497   8.048   3.857 -0.2332  0.4027 -0.8338
  940MOL0     O26768   9.474   8.154   3.949 -0.3723  0.5714  0.6576
  940MOL0     C26769   9.583   8.232   3.963  0.2066 -0.5494 -0.2811
  940MOL0     C26770   9.620   8.329   3.871  0.9406 -0.2794  0.3555
  940MOL0     C26771   9.736   8.407   3.885 -0.0250 -0.8173 -0.7421
  940MOL0     C26772   9.805   8.402   4.008 -0.0508 -0.5294 -0.3580
  940MOL0     O26773   9.911   8.483   4.025  0.1404  0.4558  0.3456
  940MOL0     C26774  10.030   8.413   4.065 -0.3900  0.9177  0.1802
  940MOL0     C26775  10.143   8.454   3.966 -1.0047 -0.8601  0.1189
  940MOL0     C26776  10.114   8.428   3.816 -0.6493  0.1516 -0.4453
  940MOL0     C26777  10.129   8.277   3.785  1.2076 -0.4941 -0.3623
  940MOL0     C26778  10.082   8.239   3.647 -0.3396  1.0540 -0.0938
  940MOL0     C26779   9.929   8.216   3.643  0.7278  0.5455  0.3254
  940MOL0     C26780   9.888   8.197   3.498  0.2438 -0.2319  0.7896
  940MOL0     C26781   9.742   8.130   3.496  0.5887 -0.3848  0.8380
  940MOL0     N26782   9.694   8.115   3.357  0.2921 -0.0138 -0.2172
  940MOL0     C26783   9.682   8.208   3.266 -0.2062 -0.6675  0.1182
  940MOL0     C26784   9.651   8.153   3.148 -0.5308 -0.3448 -0.1605
  940MOL0     C26785   9.633   8.233   3.028 -0.3429  0.5382  0.1282
  940MOL0     C26786   9.487   8.274   2.990  0.7916 -0.1415 -0.9007
  940MOL0     C26787   9.410   8.154   2.954  0.3477 -0.3067  0.5103
  940MOL0     C26788   9.267   8.208   2.913 -0.2993 -0.0277 -0.0701
  940MOL0     O26789   9.169   8.105   2.898  0.0764  0.0242 -0.1820
  940MOL0     C26790   9.039   8.142   2.879  0.1678  0.0014  0.5159
  940MOL0     C26791   8.947   8.039   2.911  0.2622 -0.2864  0.7638
  940MOL0     C26792   8.817   8.058   2.876  0.3478 -0.1995 -0.8308
  940MOL0     C26793   8.774   8.180   2.835  0.4141  0.1169  0.2840
  940MOL0     C26794   8.629   8.196   2.796  0.4809 -0.2202 -0.4221
  940MOL0     O26795   8.543   8.097   2.846 -0.0943 -0.9126  0.2543
  940MOL0     C26796   8.408   8.089   2.817 -0.5043 -1.0486  0.3962
  940MOL0     C26797   8.325   8.189   2.754 -0.0550 -0.6878  0.2876
  940MOL0     C26798   8.190   8.163   2.726 -0.7614  0.1936 -0.4359
  940MOL0     C26799   8.130   8.048   2.768  0.3799  0.0448  0.7454
  940MOL0     O26800   8.000   8.018   2.751  0.1548  0.4972 -0.6059
  940MOL0     C26801   7.924   8.102   2.658  0.2288  0.1093  0.2256
  940MOL0     C26802   7.794   8.031   2.630 -0.1371  0.9419  0.4430
  940MOL0     C26803   7.713   8.010   2.766 -0.6808 -0.4084  0.6521
  940MOL0     C26804   7.628   8.137   2.808  0.7987 -0.3021 -0.4278
  940MOL0     C26805   7.521   8.100   2.911 -0.7130 -0.0607 -0.2089
  940MOL0     C26806   7.445   8.222   2.978 -0.7893  0.4851 -0.2141
  940MOL0     C26807   7.319   8.174   3.042  0.8827 -0.3442  1.3642
  940MOL0     C26808   7.209   8.151   2.938  0.0472 -0.2898 -0.0308
  940MOL0    Cl26809   7.063   8.098   3.037  0.1906 -0.2548 -0.1021
  940MOL0     C26810   8.203   7.957   2.846 -0.7719  0.1296 -1.1380
  940MOL0     C26811   8.341   7.978   2.872 -0.3453 -0.2926  0.3094
  940MOL0     O26812   8.598   8.290   2.725 -0.0913 -0.0224  0.6659
  940MOL0     C26813   8.860   8.288   2.828 -0.4700  0.2369  0.3491
  940MOL0     C26814   8.996   8.266   2.845 -0.2965  0.0277  0.5137
  940MOL0     N26815   9.659   8.019   3.174 -0.2307 -0.5438  0.2040
  940MOL0     N26816   9.681   7.996   3.296  0.2882  0.6303  0.4518
  940MOL0     C26817   9.773   8.299   4.099  0.5142 -0.7596 -0.2538
  940MOL0     C26818   9.662   8.213   4.074  0.5870 -0.0933  0.5925
  940MOL0     C26819   9.378   7.974   3.815  0.3748 -0.5229 -0.0209
  940MOL0     C26820   9.283   7.956   3.914 -0.1819 -0.2613 -0.0940
  940MOL0     C26821   9.162   7.891   3.882 -0.0198 -0.3291 -0.3929
  940MOL0     C26822   9.144   7.831   3.757 -0.8934  0.1094  0.2439
  940MOL0     O26823   9.021   7.771   3.752 -0.3718  0.3508  0.4824
  940MOL0     C26824   8.981   7.696   3.631  0.6680 -0.2410 -0.0608
  940MOL0     C26825   8.843   7.634   3.662  0.2373  0.2791 -0.1437
  940MOL0     C26826   8.798   7.523   3.571 -0.4104 -0.2896 -0.4608
  940MOL0     C26827   8.652   7.498   3.572 -0.3851 -0.2804 -0.2101
  940MOL0     C26828   8.611   7.408   3.683  0.0075 -0.3171 -0.7874
  940MOL0     C26829   8.577   7.364   3.796 -0.7067  0.9304  0.0169
  940MOL0     C26830   9.252   7.838   3.664 -0.1754 -0.1044 -0.1561
  940MOL0     C26831   9.366   7.910   3.690  0.2379 -0.2374  0.0202
  940MOL0     C26832   9.459   7.922   3.575  0.0266  0.2778  0.1590
  940MOL0     H26833   9.553   8.339   3.787 -0.6236 -1.8508  1.3495
  940MOL0     H26834   9.762   8.467   3.799 -1.3751 -2.4597 -2.3857
  940MOL0     H26835  10.056   8.447   4.166  0.8127  1.6797 -0.3612
  940MOL0     H26836  10.019   8.305   4.058  0.1327  0.9392 -1.5142
  940MOL0     H26837  10.236   8.409   4.000 -1.0061 -0.7536  0.2675
  940MOL0     H26838  10.157   8.562   3.981  1.2431 -1.2666  1.3758
  940MOL0     H26839  10.195   8.475   3.760  1.4405 -1.8564  0.6799
  940MOL0     H26840  10.015   8.458   3.780 -1.1408 -0.7736  0.1042
  940MOL0     H26841  10.236   8.255   3.779  1.3109 -0.1953  0.2994
  940MOL0     H26842  10.079   8.215   3.859  2.9932 -0.6475  0.7700
  940MOL0     H26843  10.107   8.307   3.565 -0.2739 -0.6604 -1.5632
  940MOL0     H26844  10.129   8.144   3.619 -0.4169  0.9445  0.1430
  940MOL0     H26845   9.903   8.122   3.694  0.9809 -0.3238 -1.0940
  940MOL0     H26846   9.864   8.289   3.691 -0.3646  2.4741 -3.7110
  940MOL0     H26847   9.963   8.138   3.444  2.5000  2.6018  0.5808
  940MOL0     H26848   9.887   8.294   3.447  0.0946 -1.0391 -0.7972
  940MOL0     H26849   9.752   8.027   3.533 -0.2484 -1.4595 -1.6836
  940MOL0     H26850   9.669   8.182   3.558 -0.4306 -0.9705  0.1636
  940MOL0     H26851   9.685   8.316   3.281  0.5668 -0.2468 -2.5647
  940MOL0     H26852   9.692   8.325   3.030  3.1000 -1.5137  1.4959
  940MOL0     H26853   9.661   8.183   2.935 -0.0327  1.4764 -0.2965
  940MOL0     H26854   9.435   8.327   3.071 -2.4242 -0.0263 -2.8882
  940MOL0     H26855   9.486   8.341   2.904  0.3921  1.5135  0.3399
  940MOL0     H26856   9.393   8.090   3.040 -1.6060 -0.8139 -0.1886
  940MOL0     H26857   9.456   8.096   2.873 -1.7981 -1.1049 -0.2126
  940MOL0     H26858   9.266   8.261   2.817  2.6732 -2.3306 -1.5479
  940MOL0     H26859   9.237   8.270   2.999 -2.3154  0.7904 -1.2969
  940MOL0     H26860   8.976   7.940   2.945 -0.5715 -0.8681 -0.1451
  940MOL0     H26861   8.746   7.977   2.886  0.0715 -0.0574 -1.5779
  940MOL0     H26862   8.367   8.278   2.708  1.4011  0.3039  3.3177
  940MOL0     H26863   8.139   8.243   2.673  1.4952  1.5593 -0.6737
  940MOL0     H26864   7.912   8.199   2.706 -0.9347  1.4173 -2.4669
  940MOL0     H26865   7.968   8.120   2.559 -3.0003  0.8532 -1.2062
  940MOL0     H26866   7.741   8.079   2.548 -0.9038  0.2704  0.5309
  940MOL0     H26867   7.820   7.935   2.584  0.7525 -0.1642  3.0233
  940MOL0     H26868   7.646   7.927   2.743 -0.4840 -0.2567 -0.5205
  940MOL0     H26869   7.774   7.974   2.850 -0.2675 -0.9094  0.1432
  940MOL0     H26870   7.579   8.173   2.717 -1.4154  0.0876  0.8337
  940MOL0     H26871   7.701   8.206   2.850 -0.8329  1.3423 -0.1582
  940MOL0     H26872   7.579   8.048   2.988 -0.2711  1.0861  0.2666
  940MOL0     H26873   7.458   8.031   2.855 -3.4704  0.6471  1.8250
  940MOL0     H26874   7.518   8.270   3.044  0.2786 -0.8146 -0.4228
  940MOL0     H26875   7.412   8.296   2.905  0.6889  3.7637  2.1459
  940MOL0     H26876   7.294   8.257   3.109 -1.1745 -0.6330  1.0007
  940MOL0     H26877   7.337   8.085   3.102 -0.6196 -0.1631  2.1122
  940MOL0     H26878   7.199   8.235   2.868  3.3138  2.0228  1.9869
  940MOL0     H26879   7.237   8.073   2.867 -2.4702  0.8518 -2.4596
  940MOL0     H26880   8.146   7.872   2.883 -0.8731 -0.2838 -2.2068
  940MOL0     H26881   8.397   7.896   2.916 -0.1264 -0.2445  0.1239
  940MOL0     H26882   8.821   8.383   2.793 -0.8954 -0.4673 -1.1854
  940MOL0     H26883   9.079   8.335   2.843  0.3957 -0.7931 -1.5713
  940MOL0     H26884   9.830   8.279   4.189 -1.6508 -1.3531  1.0363
  940MOL0     H26885   9.635   8.143   4.152 -0.8790  0.7231  0.8520
  940MOL0     H26886   9.294   7.985   4.018 -1.7709 -1.5385  0.4634
  940MOL0     H26887   9.093   7.867   3.962  2.8005  0.0485  2.3702
  940MOL0     H26888   9.056   7.621   3.602 -0.8885 -1.6963 -0.5288
  940MOL0     H26889   8.975   7.758   3.541 -0.1081  0.9672  0.8095
  940MOL0     H26890   8.777   7.720   3.679  1.8311  1.5247 -0.0406
  940MOL0     H26891   8.860   7.598   3.763  1.1570  3.7954  1.0841
  940MOL0     H26892   8.846   7.430   3.603 -1.8175 -1.4280 -1.5258
  940MOL0     H26893   8.837   7.558   3.475  2.2084 -3.3977 -0.7274
  940MOL0     H26894   8.592   7.590   3.569  2.2539  1.5372 -1.2241
  940MOL0     H26895   8.624   7.437   3.486 -2.4629 -0.6316  0.6588
  940MOL0     H26896   8.539   7.330   3.890  0.4660 -1.2629 -0.2548
  940MOL0     H26897   9.244   7.786   3.569  3.2344 -3.4685  1.1199
  940MOL0     H26898   9.432   7.903   3.471  1.5509 -1.6983  0.0738
  940MOL0     H26899   9.493   8.026   3.569 -1.2601  0.6378 -3.5897
  940MOL0     H26900   9.541   7.853   3.593  0.0444 -0.1821 -1.5390
  941MOL0     O26901   0.647   9.378  10.937 -0.1932  0.4682 -0.3138
  941MOL0     C26902   0.697   9.389  10.823  0.3747 -0.5774 -0.2666
  941MOL0     O26903   0.646   9.339  10.704 -0.4004  0.3595 -0.3489
  941MOL0     C26904   0.527   9.281  10.694  0.8522  0.7907 -0.6930
  941MOL0     C26905   0.414   9.325  10.768 -0.1086  0.4155 -0.4450
  941MOL0     C26906   0.289   9.263  10.758  0.1819  0.0616  0.4446
  941MOL0     C26907   0.273   9.147  10.677 -0.0173  0.1295 -0.5503
  941MOL0     O26908   0.148   9.096  10.686 -0.8755  1.0998  0.3625
  941MOL0     C26909   0.120   8.962  10.642 -0.2549  0.8592 -0.9243
  941MOL0     C26910  -0.026   8.930  10.651  1.5533  0.0596  0.1572
  941MOL0     C26911  -0.044   8.773  10.627  0.0330  0.3169 -0.4058
  941MOL0     C26912   0.001   8.732  10.483 -0.1670 -0.3587 -0.3550
  941MOL0     C26913  -0.001   8.571  10.467  0.4529  0.7000 -0.4254
  941MOL0     C26914   0.108   8.503  10.546  0.4787  0.1189  0.5066
  941MOL0     C26915   0.244   8.530  10.483 -0.5881  0.2281 -0.7153
  941MOL0     C26916   0.349   8.440  10.535 -0.7659 -0.4741 -0.4754
  941MOL0     N26917   0.478   8.464  10.469  0.1895  0.6953 -0.7423
  941MOL0     C26918   0.605   8.481  10.528 -0.4368 -0.6272  1.0271
  941MOL0     C26919   0.692   8.493  10.417 -0.0516 -0.3498 -0.0848
  941MOL0     C26920   0.833   8.512  10.445 -0.0251 -0.6811  0.1034
  941MOL0     C26921   0.913   8.536  10.315  0.4762 -0.1320 -0.0092
  941MOL0     C26922   1.066   8.524  10.338 -0.4872  0.3238  0.7577
  941MOL0     C26923   1.147   8.622  10.249  0.8472 -0.0477 -0.0214
  941MOL0     O26924   1.268   8.555  10.231 -0.1406  0.6291  0.1392
  941MOL0     C26925   1.374   8.630  10.185 -0.8416 -0.2220 -0.2984
  941MOL0     C26926   1.503   8.579  10.191  0.3379  0.1831  0.1694
  941MOL0     C26927   1.615   8.648  10.128  0.3535 -0.1577 -1.3405
  941MOL0     C26928   1.598   8.779  10.088 -0.3519 -0.1652 -0.2315
  941MOL0     C26929   1.719   8.847  10.050 -0.1745 -0.3625 -0.3690
  941MOL0     O26930   1.830   8.778  10.079 -1.0228 -0.6174 -1.1969
  941MOL0     C26931   1.950   8.845  10.046  0.1047  0.9707 -0.0679
  941MOL0     C26932   2.021   8.786   9.948 -1.3122 -0.7841  0.2761
  941MOL0     C26933   2.157   8.826   9.929  0.1301  0.4662 -1.3373
  941MOL0     C26934   2.206   8.939  10.002  0.6657 -0.5162  0.1340
  941MOL0     O26935   2.325   9.004   9.969  0.8268 -0.3146 -0.7145
  941MOL0     C26936   2.435   8.920   9.931  0.7746  0.3376 -0.6750
  941MOL0     C26937   2.554   9.001   9.967 -0.0030  0.2666  0.6895
  941MOL0     C26938   2.689   8.970   9.907 -0.3260 -0.4076  0.6576
  941MOL0     C26939   2.805   9.051   9.970  0.5721  0.7681  0.8570
  941MOL0     C26940   2.934   8.968   9.955 -0.0002  0.0352  0.2716
  941MOL0     C26941   3.051   9.031  10.043  0.0429  0.4773 -0.4746
  941MOL0     C26942   3.150   9.121   9.962  0.3330  0.4015 -0.4034
  941MOL0     C26943   3.294   9.134  10.026  0.3518  0.5729 -0.6132
  941MOL0    Cl26944   3.375   8.985   9.980 -0.2998  0.0153  0.2941
  941MOL0     C26945   2.120   8.996  10.100  0.4789  0.2180  0.5201
  941MOL0     C26946   1.989   8.956  10.120 -0.1986  0.6687 -0.3987
  941MOL0     O26947   1.712   8.966  10.021 -0.3211  0.6768  0.2301
  941MOL0     C26948   1.470   8.836  10.097  0.6445  0.0829  0.8235
  941MOL0     C26949   1.353   8.757  10.128 -0.2408 -0.6013  0.4994
  941MOL0     N26950   0.621   8.483  10.301 -0.3427 -0.6242 -0.0664
  941MOL0     N26951   0.495   8.475  10.333  0.5995  0.0186 -0.2326
  941MOL0     C26952   0.382   9.099  10.600 -0.6862 -0.2299  0.0208
  941MOL0     C26953   0.505   9.171  10.609 -0.7078  0.0539 -0.9113
  941MOL0     C26954   0.814   9.491  10.804  0.0186  0.8289 -0.9333
  941MOL0     C26955   0.849   9.514  10.666  0.0055 -0.2748 -0.0504
  941MOL0     C26956   0.958   9.601  10.639  0.3321  0.0222  0.7442
  941MOL0     C26957   1.032   9.661  10.744 -0.8191  0.4838 -1.0659
  941MOL0     O26958   1.137   9.738  10.713 -0.1735  0.1126  0.5796
  941MOL0     C26959   1.240   9.762  10.808  0.4462  0.2023 -0.3082
  941MOL0     C26960   1.365   9.796  10.734  0.0560  0.6745  0.5835
  941MOL0     C26961   1.473   9.866  10.804  0.0832 -0.2154  0.2429
  941MOL0     C26962   1.552   9.764  10.887 -0.1879  0.0183 -0.9904
  941MOL0     C26963   1.638   9.694  10.792  0.7279  0.4502 -0.4471
  941MOL0     C26964   1.695   9.621  10.713  0.5436  0.2157 -0.1150
  941MOL0     C26965   0.992   9.642  10.876  0.4599 -0.0347 -0.0185
  941MOL0     C26966   0.885   9.562  10.912 -0.2430  1.2665 -0.1300
  941MOL0     C26967   0.842   9.577  11.050  0.1294 -0.7459 -0.6570
  941MOL0     H26968   0.424   9.409  10.836  0.3378 -0.3595  0.4642
  941MOL0     H26969   0.201   9.291  10.814  1.7550 -1.1518  3.8259
  941MOL0     H26970   0.150   8.944  10.539  1.5926 -2.3456  0.0360
  941MOL0     H26971   0.170   8.891  10.708 -0.8631  0.8719 -0.4397
  941MOL0     H26972  -0.083   8.981  10.573 -0.3157 -1.4315  0.4704
  941MOL0     H26973  -0.071   8.957  10.747  0.2101  1.8999 -0.9357
  941MOL0     H26974  -0.148   8.744  10.649  0.4006  0.8760  2.5297
  941MOL0     H26975   0.007   8.738  10.717 -1.1313  0.1997  0.2265
  941MOL0     H26976  -0.078   8.768  10.416 -0.0206  1.1360  0.2294
  941MOL0     H26977   0.105   8.764  10.469 -0.2027 -0.7629 -1.6686
  941MOL0     H26978  -0.098   8.538  10.505  0.6892  0.8234  0.3076
  941MOL0     H26979  -0.006   8.534  10.364  1.0546  2.6225 -1.2065
  941MOL0     H26980   0.116   8.532  10.651  0.0819 -1.0032  0.8668
  941MOL0     H26981   0.082   8.397  10.542  2.3985 -0.4055  1.0484
  941MOL0     H26982   0.275   8.632  10.507  2.7725 -1.0696  0.9970
  941MOL0     H26983   0.245   8.524  10.374  1.5241  1.1665 -0.7873
  941MOL0     H26984   0.354   8.455  10.643  0.5362 -1.9377 -0.2978
  941MOL0     H26985   0.331   8.333  10.520  2.0356 -0.8522 -1.8418
  941MOL0     H26986   0.637   8.476  10.632  2.7448 -1.2587  0.0981
  941MOL0     H26987   0.834   8.604  10.504 -1.6779  0.5686 -1.6990
  941MOL0     H26988   0.885   8.431  10.496  2.8378 -0.2440 -1.8590
  941MOL0     H26989   0.884   8.453  10.249  1.6104  0.8527 -1.8292
  941MOL0     H26990   0.893   8.634  10.271  0.7943 -0.8536 -1.8825
  941MOL0     H26991   1.086   8.422  10.305 -1.5227  0.2018  0.4646
  941MOL0     H26992   1.089   8.544  10.443  0.5429  3.0678  0.1123
  941MOL0     H26993   1.157   8.718  10.300  0.4306 -0.3679  0.6753
  941MOL0     H26994   1.106   8.626  10.147  1.8138  0.3417 -0.4029
  941MOL0     H26995   1.506   8.471  10.203  2.8858 -0.1468 -2.2673
  941MOL0     H26996   1.698   8.581  10.111 -0.5363 -1.6185 -0.1582
  941MOL0     H26997   1.970   8.723   9.875 -1.5816 -0.2733  0.0136
  941MOL0     H26998   2.217   8.782   9.850  2.5753 -0.0334  0.6742
  941MOL0     H26999   2.434   8.827   9.988  1.0782  0.2069 -0.8850
  941MOL0     H27000   2.420   8.901   9.824  0.5804  3.4356 -1.2926
  941MOL0     H27001   2.537   9.105   9.939 -1.2651 -0.1261 -0.0878
  941MOL0     H27002   2.554   9.005  10.077  1.1711  1.1936  0.6754
  941MOL0     H27003   2.689   8.865   9.937 -1.7266 -0.0761  1.9894
  941MOL0     H27004   2.685   8.968   9.798 -3.6968 -2.5837  0.6626
  941MOL0     H27005   2.795   9.104  10.066  1.6991  2.0995  0.2897
  941MOL0     H27006   2.813   9.134   9.899 -0.4311  1.0859  1.1046
  941MOL0     H27007   2.965   8.952   9.851  2.3144 -0.1649  0.9383
  941MOL0     H27008   2.914   8.872  10.002  1.1666 -1.0972 -1.4224
  941MOL0     H27009   3.011   9.090  10.126  1.3357  0.5145  0.1462
  941MOL0     H27010   3.096   8.942  10.087 -1.6668 -0.3051 -0.2279
  941MOL0     H27011   3.097   9.217   9.963 -3.0176 -1.2780  2.0556
  941MOL0     H27012   3.160   9.090   9.858 -0.8943 -3.0662  0.3865
  941MOL0     H27013   3.363   9.203   9.976  0.0367  0.8464 -0.6804
  941MOL0     H27014   3.297   9.156  10.133 -0.1571 -2.2332  0.0437
  941MOL0     H27015   2.156   9.088  10.146 -1.4019 -0.1806  2.9949
  941MOL0     H27016   1.919   9.009  10.184 -0.1106  1.6208 -1.0704
  941MOL0     H27017   1.452   8.939  10.067  0.9757 -0.7206 -2.4472
  941MOL0     H27018   1.258   8.807  10.113  0.5468  0.0447 -3.1859
  941MOL0     H27019   0.373   9.020  10.526  0.9234  0.8932 -1.4384
  941MOL0     H27020   0.588   9.122  10.558 -1.0404 -2.0234  0.4367
  941MOL0     H27021   0.809   9.455  10.584  0.5012  0.1515 -0.6062
  941MOL0     H27022   1.009   9.614  10.544  1.5172  0.6883  1.4540
  941MOL0     H27023   1.256   9.667  10.859 -0.4192  0.3257  0.2161
  941MOL0     H27024   1.212   9.838  10.882  0.2480 -1.7215  1.6995
  941MOL0     H27025   1.334   9.857  10.649 -3.2946  0.2953  1.4076
  941MOL0     H27026   1.390   9.699  10.690 -2.6741 -1.1589  2.7626
  941MOL0     H27027   1.420   9.928  10.878  1.3069  1.7874 -0.4801
  941MOL0     H27028   1.532   9.932  10.740 -1.0368  1.5228  0.9267
  941MOL0     H27029   1.617   9.812  10.961 -0.2948 -0.2679 -0.7101
  941MOL0     H27030   1.486   9.694  10.939 -2.3698  0.0447 -3.4862
  941MOL0     H27031   1.753   9.560  10.646  2.3489  0.9281  0.7096
  941MOL0     H27032   1.041   9.697  10.956 -0.6997 -0.2922  0.9019
  941MOL0     H27033   0.928   9.595  11.114 -0.2436 -0.0666 -0.3332
  941MOL0     H27034   0.775   9.662  11.067  2.4284  0.8600  0.9933
  941MOL0     H27035   0.776   9.495  11.081  0.5299 -0.6274  0.5566
  942MOL0     O27036   9.829  10.154   0.347  0.3345 -0.1141 -0.7152
  942MOL0     C27037   9.898  10.145   0.248  0.1150 -0.3668 -0.7587
  942MOL0     O27038   9.866  10.078   0.135 -0.5935  0.3085 -0.6331
  942MOL0     C27039   9.737  10.037   0.119  0.8115 -0.6292  0.1873
  942MOL0     C27040   9.666  10.125   0.038 -0.0354  0.6597  0.2458
  942MOL0     C27041   9.527  10.112   0.032 -0.5864  0.6985  0.3230
  942MOL0     C27042   9.454  10.009   0.106 -0.7608 -0.0191  0.6381
  942MOL0     O27043   9.319   9.982   0.088  0.3061 -0.8437  0.2401
  942MOL0     C27044   9.247   9.994   0.208 -0.0928 -0.1266 -0.6721
  942MOL0     C27045   9.218  10.138   0.246  0.7075 -1.0173  0.3719
  942MOL0     C27046   9.077  10.182   0.191 -0.6799  0.9408  0.0009
  942MOL0     C27047   9.042  10.302   0.274  0.7864  0.3358 -0.2295
  942MOL0     C27048   8.909  10.371   0.233  1.0448 -0.2677  0.0454
  942MOL0     C27049   8.787  10.285   0.269 -0.0104  0.0755 -0.4490
  942MOL0     C27050   8.652  10.362   0.238 -0.4366  0.2333 -0.0583
  942MOL0     C27051   8.533  10.274   0.285 -0.4863  0.3328 -0.1153
  942MOL0     N27052   8.392  10.326   0.263 -0.5655  0.5422  0.4695
  942MOL0     C27053   8.356  10.457   0.271 -0.0004 -0.3365 -0.0592
  942MOL0     C27054   8.223  10.454   0.245 -0.4671  0.2065  0.7994
  942MOL0     C27055   8.138  10.577   0.247 -0.1818 -0.1481  0.3091
  942MOL0     C27056   8.007  10.555   0.322  0.2461 -0.5987 -0.3351
  942MOL0     C27057   8.037  10.536   0.478 -0.5793 -0.0984  1.3023
  942MOL0     C27058   7.921  10.571   0.561 -0.3394  0.9192  0.0285
  942MOL0     O27059   7.860  10.699   0.556 -0.5648 -0.0065  0.8107
  942MOL0     C27060   7.734  10.695   0.589  1.1662 -0.8283 -0.1264
  942MOL0     C27061   7.640  10.672   0.492 -0.0866 -0.8194  0.1479
  942MOL0     C27062   7.504  10.676   0.534 -0.4712 -0.6616  1.4600
  942MOL0     C27063   7.464  10.704   0.662 -0.4357 -0.4188 -1.1309
  942MOL0     C27064   7.321  10.690   0.712 -0.7083 -0.5079  0.4470
  942MOL0     O27065   7.223  10.693   0.617  0.5377  0.6743 -0.0695
  942MOL0     C27066   7.088  10.670   0.659  0.1194  0.2448  0.0162
  942MOL0     C27067   6.989  10.771   0.626 -0.5888  0.1768  0.1391
  942MOL0     C27068   6.858  10.746   0.650  0.5265 -0.0019  0.1874
  942MOL0     C27069   6.818  10.621   0.708 -0.5651  0.3206  0.4904
  942MOL0     O27070   6.697  10.583   0.763  0.2885 -0.2368 -1.1017
  942MOL0     C27071   6.587  10.573   0.683 -0.0656 -0.5043 -0.2847
  942MOL0     C27072   6.543  10.431   0.641 -0.4106 -0.3189 -0.2371
  942MOL0     C27073   6.583  10.382   0.504  0.9567  1.0629 -0.0409
  942MOL0     C27074   6.524  10.247   0.475 -0.4173  1.1444  0.6828
  942MOL0     C27075   6.578  10.209   0.335  0.3570  0.2051  0.3332
  942MOL0     C27076   6.487  10.110   0.257  0.1524 -0.8819 -0.1182
  942MOL0     C27077   6.544  10.061   0.127  0.8492  1.1162  0.2271
  942MOL0     C27078   6.457   9.942   0.063  0.9177  0.1284  0.1824
  942MOL0    Cl27079   6.469   9.775   0.158 -0.1857  0.1387 -0.1738
  942MOL0     C27080   6.918  10.518   0.731 -0.4820 -0.9031 -0.3013
  942MOL0     C27081   7.055  10.543   0.707 -0.0718  0.2142 -0.1083
  942MOL0     O27082   7.300  10.674   0.829  0.6294 -0.3759  0.1937
  942MOL0     C27083   7.571  10.727   0.758  0.4774 -0.7187  0.2316
  942MOL0     C27084   7.703  10.729   0.719 -0.1508  0.3018  0.0912
  942MOL0     N27085   8.182  10.329   0.234  0.1905 -0.0480  0.1889
  942MOL0     N27086   8.281  10.246   0.238  0.9884  0.2423  0.5027
  942MOL0     C27087   9.534   9.926   0.187  0.6067  0.3696 -0.3081
  942MOL0     C27088   9.671   9.938   0.186  1.0125 -0.2855 -0.8977
  942MOL0     C27089  10.035  10.211   0.248 -0.4634  0.0550  0.7220
  942MOL0     C27090  10.133  10.160   0.160 -0.1674 -0.6129  1.1553
  942MOL0     C27091  10.258  10.222   0.154 -0.5693 -0.1070  0.2149
  942MOL0     C27092  10.289  10.326   0.241 -0.4201 -1.2566 -0.1900
  942MOL0     O27093  10.411  10.389   0.253 -0.0717  0.3978  0.1998
  942MOL0     C27094  10.519  10.381   0.165 -0.2117  0.1750  0.0326
  942MOL0     C27095  10.611  10.485   0.220 -0.3335 -0.3119  0.1397
  942MOL0     C27096  10.565  10.625   0.199 -1.3592 -0.0637  0.5932
  942MOL0     C27097  10.622  10.693   0.073 -0.0473 -0.0854 -0.4348
  942MOL0     C27098  10.572  10.647  -0.057  0.7618 -0.5640  0.4276
  942MOL0     C27099  10.547  10.615  -0.170 -1.0705 -0.1795 -0.0999
  942MOL0     C27100  10.177  10.381   0.313  0.2360  0.2731 -0.4416
  942MOL0     C27101  10.048  10.333   0.320 -0.5485 -0.2995  0.0889
  942MOL0     C27102   9.950  10.407   0.408 -0.2186  0.4069  0.9349
  942MOL0     H27103   9.714  10.209  -0.010  0.6138  0.2930  0.2490
  942MOL0     H27104   9.458  10.176  -0.022 -1.3241 -0.6747 -0.4440
  942MOL0     H27105   9.155   9.936   0.194  1.4084 -2.6825 -0.5793
  942MOL0     H27106   9.296   9.942   0.291 -0.5026  0.7104  0.1103
  942MOL0     H27107   9.289  10.214   0.210 -0.7752  0.5294  0.5392
  942MOL0     H27108   9.211  10.143   0.355  1.9334  0.8685  0.4297
  942MOL0     H27109   9.007  10.102   0.216 -0.8262  2.1468  4.1247
  942MOL0     H27110   9.091  10.208   0.085 -1.7664  0.4990 -0.2669
  942MOL0     H27111   9.041  10.273   0.379  0.8269 -1.2924 -0.6634
  942MOL0     H27112   9.126  10.372   0.270  1.0585  0.5672  4.3787
  942MOL0     H27113   8.904  10.467   0.286  1.5929 -0.9111  1.3097
  942MOL0     H27114   8.909  10.382   0.124  3.3176  1.0908  0.1154
  942MOL0     H27115   8.777  10.184   0.226 -0.7319 -1.0262  2.1235
  942MOL0     H27116   8.793  10.256   0.374  0.5058 -1.0907 -0.7740
  942MOL0     H27117   8.642  10.381   0.131 -3.4812 -2.2534 -0.3651
  942MOL0     H27118   8.654  10.452   0.300  0.7097  0.3338 -0.2048
  942MOL0     H27119   8.532  10.179   0.230 -2.7508 -1.5210  2.8142
  942MOL0     H27120   8.552  10.240   0.387  1.4608 -2.6920 -1.3582
  942MOL0     H27121   8.413  10.544   0.302  2.2856 -1.0108 -2.0929
  942MOL0     H27122   8.202  10.652   0.294 -2.7835  2.8504 -0.5431
  942MOL0     H27123   8.120  10.601   0.141 -0.3971 -1.3111  0.0666
  942MOL0     H27124   7.950  10.648   0.318  1.9831  0.5174 -0.6726
  942MOL0     H27125   7.942  10.483   0.272  0.4045  0.1853 -1.7455
  942MOL0     H27126   8.135  10.564   0.520  1.0175 -2.8374 -0.2367
  942MOL0     H27127   8.045  10.427   0.493 -1.4291 -0.3763 -0.1240
  942MOL0     H27128   7.958  10.544   0.660  2.0180  0.7586 -0.8440
  942MOL0     H27129   7.844  10.495   0.542  0.4487 -0.1344  0.9344
  942MOL0     H27130   7.670  10.672   0.387  1.5877  0.9912  0.5658
  942MOL0     H27131   7.421  10.675   0.464 -1.7498  2.2780  2.7630
  942MOL0     H27132   7.025  10.865   0.586 -1.4239  1.5591  2.4476
  942MOL0     H27133   6.784  10.824   0.646  1.0639  0.4545 -2.3042
  942MOL0     H27134   6.507  10.603   0.752  1.1636 -1.4699  1.6521
  942MOL0     H27135   6.584  10.640   0.597  0.3967  1.8241  1.4297
  942MOL0     H27136   6.584  10.366   0.719 -0.2048  0.3479  0.2219
  942MOL0     H27137   6.435  10.419   0.657 -0.0443 -1.6915  1.6295
  942MOL0     H27138   6.531  10.447   0.433 -2.0782 -2.7642 -1.6772
  942MOL0     H27139   6.692  10.391   0.498  0.9805  0.6704 -0.2487
  942MOL0     H27140   6.417  10.268   0.470 -1.3602 -2.6403  1.5233
  942MOL0     H27141   6.543  10.168   0.548  1.7924  1.1784  0.2027
  942MOL0     H27142   6.676  10.162   0.349  1.1388  1.7071  0.1461
  942MOL0     H27143   6.579  10.295   0.267 -2.5450  1.2776  1.4781
  942MOL0     H27144   6.475  10.022   0.322 -1.0699 -0.0409  0.8438
  942MOL0     H27145   6.386  10.148   0.241  0.2312 -1.5280 -2.5002
  942MOL0     H27146   6.648  10.031   0.140  0.2220 -1.2877  0.0250
  942MOL0     H27147   6.542  10.144   0.055 -0.6401 -0.3734 -1.5428
  942MOL0     H27148   6.353   9.975   0.073  0.3197 -1.6476  0.0928
  942MOL0     H27149   6.466   9.935  -0.046  1.3973 -0.5148  0.2587
  942MOL0     H27150   6.889  10.424   0.776  0.2252 -1.3623 -0.8057
  942MOL0     H27151   7.128  10.463   0.720 -0.5691 -0.1637  0.4176
  942MOL0     H27152   7.556  10.754   0.862  3.8068  1.1461  0.3465
  942MOL0     H27153   7.786  10.738   0.788  0.1572 -1.4161 -0.0074
  942MOL0     H27154   9.489   9.843   0.241  1.7705  0.5013  0.9301
  942MOL0     H27155   9.726   9.866   0.246  0.4125 -1.2590 -1.4876
  942MOL0     H27156  10.102  10.085   0.088 -1.4291  0.6315  0.3477
  942MOL0     H27157  10.331  10.191   0.080 -0.7465 -0.7442  0.3008
  942MOL0     H27158  10.491  10.404   0.062 -0.5629 -0.5106 -0.0308
  942MOL0     H27159  10.567  10.283   0.172  0.3785  0.3304 -1.3977
  942MOL0     H27160  10.700  10.469   0.158  0.8890  1.8752  1.2184
  942MOL0     H27161  10.650  10.473   0.321  0.6554  2.4133  0.1560
  942MOL0     H27162  10.602  10.672   0.291  0.9048  1.7764 -1.1084
  942MOL0     H27163  10.457  10.641   0.196 -1.3651 -0.1592 -2.3466
  942MOL0     H27164  10.598  10.800   0.076  1.1103  0.3233 -3.3042
  942MOL0     H27165  10.730  10.674   0.083 -0.3820 -1.4377  1.0540
  942MOL0     H27166  10.540  10.597  -0.276 -2.1103  2.4834 -0.5887
  942MOL0     H27167  10.191  10.479   0.357  2.5564 -0.1119 -0.2003
  942MOL0     H27168   9.986  10.508   0.432 -4.5121  2.1932  0.7800
  942MOL0     H27169   9.856  10.409   0.353 -2.3571  2.3980  4.2954
  942MOL0     H27170   9.933  10.355   0.502 -0.8833  0.3891  0.8061
  943MOL0     O27171  10.659   0.093   3.026  0.4160  0.9066 -0.0586
  943MOL0     C27172  10.627   0.155   3.126 -1.2214  0.3448 -0.5223
  943MOL0     O27173  10.717   0.199   3.213  0.1548  0.5073  0.1436
  943MOL0     C27174  10.829   0.113   3.234  1.0191  0.0873  1.0711
  943MOL0     C27175  10.822  -0.030   3.236 -0.1586 -0.9523 -0.2624
  943MOL0     C27176  10.944  -0.108   3.243 -0.2475 -0.0349 -0.6300
  943MOL0     C27177  11.072  -0.046   3.227  0.3496 -0.1868  0.2583
  943MOL0     O27178  11.188  -0.112   3.212 -0.3790 -0.3891 -0.1474
  943MOL0     C27179  11.164  -0.252   3.200 -0.6119 -0.2013  0.0988
  943MOL0     C27180  11.303  -0.315   3.163  0.5125 -0.7961 -1.2207
  943MOL0     C27181  11.298  -0.474   3.178 -0.3914  0.4093 -0.0166
  943MOL0     C27182  11.430  -0.538   3.150  0.0568  0.9216 -0.0687
  943MOL0     C27183  11.466  -0.558   3.001  0.3731 -0.5147 -1.0552
  943MOL0     C27184  11.622  -0.550   2.983  0.6903 -0.1076 -0.4012
  943MOL0     C27185  11.651  -0.593   2.840  0.1675  0.3152 -0.1477
  943MOL0     C27186  11.796  -0.614   2.807  0.0862  0.6998 -0.2468
  943MOL0     N27187  11.842  -0.751   2.825  0.0466  0.3595  0.0845
  943MOL0     C27188  11.773  -0.873   2.781  0.8934 -0.6054  0.5209
  943MOL0     C27189  11.841  -0.966   2.832 -1.1799  0.2149 -0.3823
  943MOL0     C27190  11.809  -1.109   2.798 -0.5223  0.1166 -1.0183
  943MOL0     C27191  11.735  -1.181   2.912 -0.6719  0.3940  0.2217
  943MOL0     C27192  11.821  -1.198   3.037 -1.1140  0.0306  0.0092
  943MOL0     C27193  11.736  -1.240   3.157  0.3450 -0.1976  0.4178
  943MOL0     O27194  11.782  -1.226   3.293 -0.2757 -0.6682 -0.4623
  943MOL0     C27195  11.854  -1.323   3.349  0.1146 -0.8990  0.7135
  943MOL0     C27196  11.928  -1.420   3.284 -0.6714  0.3609 -0.7972
  943MOL0     C27197  11.982  -1.528   3.357 -0.1858 -0.1893 -0.3081
  943MOL0     C27198  11.973  -1.532   3.498  0.6426 -1.7410  0.1069
  943MOL0     C27199  12.021  -1.647   3.571  0.2803 -0.5034  0.3921
  943MOL0     O27200  11.964  -1.671   3.699  0.4320  0.4200  0.6047
  943MOL0     C27201  12.017  -1.779   3.774 -0.0292 -0.7984  0.4704
  943MOL0     C27202  12.157  -1.781   3.804 -1.4850  1.0159 -0.3037
  943MOL0     C27203  12.226  -1.890   3.851 -0.3166 -0.1381  0.0192
  943MOL0     C27204  12.157  -2.003   3.879 -0.5548  0.3018  0.1978
  943MOL0     O27205  12.233  -2.109   3.917  1.1310 -0.9317 -0.2421
  943MOL0     C27206  12.169  -2.210   3.991  0.0380 -0.3368 -0.0038
  943MOL0     C27207  12.262  -2.322   4.029  0.2033  0.0638  0.0904
  943MOL0     C27208  12.348  -2.285   4.150  0.0344 -0.8947 -0.0769
  943MOL0     C27209  12.446  -2.391   4.190 -0.1035 -1.1092 -0.0773
  943MOL0     C27210  12.385  -2.514   4.252 -0.0159  0.4636  0.5804
  943MOL0     C27211  12.497  -2.608   4.299  0.1604  0.9384 -0.1097
  943MOL0     C27212  12.444  -2.720   4.384  0.2327 -0.3671 -0.0497
  943MOL0     C27213  12.553  -2.827   4.419 -0.3774  0.6390  0.2127
  943MOL0    Cl27214  12.662  -2.745   4.538  0.0735  0.2461  0.0435
  943MOL0     C27215  12.022  -2.010   3.854  0.0019 -0.2456  0.5033
  943MOL0     C27216  11.945  -1.896   3.806 -0.8827 -0.1837  0.0148
  943MOL0     O27217  12.098  -1.726   3.513 -0.5941 -0.2611 -1.0524
  943MOL0     C27218  11.909  -1.423   3.560 -0.9680 -0.5997  0.7514
  943MOL0     C27219  11.846  -1.324   3.483  0.1637  0.0989  0.6484
  943MOL0     N27220  11.950  -0.908   2.898  0.5138  0.3327 -0.4553
  943MOL0     N27221  11.935  -0.785   2.909 -0.5067 -0.2465 -0.7345
  943MOL0     C27222  11.081   0.097   3.229  0.1016 -0.4983  0.5112
  943MOL0     C27223  10.959   0.172   3.232 -0.0727 -0.2661 -0.1546
  943MOL0     C27224  10.482   0.196   3.137  0.4523 -0.0700 -0.0372
  943MOL0     C27225  10.455   0.294   3.237  0.2720 -0.2468 -0.6256
  943MOL0     C27226  10.323   0.340   3.248 -0.3357  0.9747  0.1149
  943MOL0     C27227  10.218   0.270   3.190 -0.3170 -0.5646  0.1717
  943MOL0     O27228  10.083   0.283   3.226 -0.6021  0.1034  0.8992
  943MOL0     C27229  10.043   0.370   3.328  0.3778  1.4524  0.9714
  943MOL0     C27230   9.886   0.379   3.331  0.0994  0.5418 -0.7097
  943MOL0     C27231   9.835   0.447   3.453 -0.2671  0.0506 -0.6269
  943MOL0     C27232   9.848   0.603   3.429 -0.2446 -0.6889  0.3285
  943MOL0     C27233   9.834   0.689   3.550 -0.3525  0.8374  0.3233
  943MOL0     C27234   9.843   0.744   3.657  0.1948 -0.1005  0.6396
  943MOL0     C27235  10.247   0.170   3.096 -0.7436  0.0556 -0.6917
  943MOL0     C27236  10.378   0.138   3.062 -0.9894 -1.2809  0.7005
  943MOL0     C27237  10.393   0.041   2.946 -0.4409 -0.9188  0.3189
  943MOL0     H27238  10.729  -0.085   3.246 -1.9749  1.9258 -0.1145
  943MOL0     H27239  10.929  -0.209   3.278 -0.6844  0.5246  0.8512
  943MOL0     H27240  11.132  -0.298   3.294 -1.2327 -1.7869 -0.8586
  943MOL0     H27241  11.101  -0.278   3.115  1.9282  0.3538 -2.0923
  943MOL0     H27242  11.367  -0.255   3.228 -3.7110  2.6999  0.2311
  943MOL0     H27243  11.310  -0.293   3.056 -2.4525  1.5133 -1.0627
  943MOL0     H27244  11.221  -0.516   3.112 -1.6861  0.0761  1.6275
  943MOL0     H27245  11.271  -0.495   3.282  0.3251 -0.2808  0.0369
  943MOL0     H27246  11.508  -0.488   3.207  0.7831  1.1175 -1.2023
  943MOL0     H27247  11.424  -0.641   3.187 -1.3581  2.0773  3.2620
  943MOL0     H27248  11.424  -0.658   2.983 -0.4207 -0.2448 -0.7211
  943MOL0     H27249  11.411  -0.493   2.932 -0.9836 -1.5365 -0.9958
  943MOL0     H27250  11.655  -0.447   3.000  1.3242 -0.5490  1.1951
  943MOL0     H27251  11.661  -0.620   3.057 -0.8124 -1.8990 -1.2250
  943MOL0     H27252  11.620  -0.515   2.769  0.1816 -0.5911 -1.1681
  943MOL0     H27253  11.586  -0.675   2.809  0.4768  0.0425 -0.0791
  943MOL0     H27254  11.809  -0.580   2.704 -0.3883 -1.7788 -1.1774
  943MOL0     H27255  11.867  -0.553   2.864  0.5364  0.4744 -0.5623
  943MOL0     H27256  11.689  -0.891   2.715  2.6743 -0.0101 -2.0992
  943MOL0     H27257  11.747  -1.097   2.710 -0.0880  4.4304 -0.9621
  943MOL0     H27258  11.904  -1.158   2.773 -1.5528 -1.7466 -1.3889
  943MOL0     H27259  11.637  -1.139   2.934 -0.2464  0.7550  1.5120
  943MOL0     H27260  11.708  -1.281   2.877  1.8171 -0.3039  0.0975
  943MOL0     H27261  11.874  -1.110   3.074  1.2823 -2.2134  2.4259
  943MOL0     H27262  11.898  -1.271   3.010 -0.2173 -0.0359  2.4989
  943MOL0     H27263  11.715  -1.347   3.152  0.5524 -0.1640 -2.4932
  943MOL0     H27264  11.642  -1.186   3.145  1.3184  1.2434 -1.1633
  943MOL0     H27265  11.936  -1.407   3.177 -0.3173  0.0477 -0.8112
  943MOL0     H27266  12.025  -1.617   3.312 -2.2941 -2.4080  1.7205
  943MOL0     H27267  12.219  -1.695   3.782  2.6529 -1.8306 -0.9334
  943MOL0     H27268  12.333  -1.885   3.869 -0.3981  1.4145  0.2189
  943MOL0     H27269  12.123  -2.177   4.084 -1.5826  0.4006 -1.0180
  943MOL0     H27270  12.091  -2.264   3.936 -0.0058 -2.6469  2.1335
  943MOL0     H27271  12.210  -2.415   4.054  4.1781 -1.7392  2.6599
  943MOL0     H27272  12.312  -2.349   3.935 -1.7811 -1.9238 -0.4704
  943MOL0     H27273  12.399  -2.196   4.112 -1.6055 -0.3428 -1.0723
  943MOL0     H27274  12.293  -2.258   4.240  1.1267  1.4964 -0.0415
  943MOL0     H27275  12.506  -2.347   4.270  0.7856  1.8023 -2.1360
  943MOL0     H27276  12.512  -2.410   4.105 -1.2406  1.0752 -1.5681
  943MOL0     H27277  12.318  -2.559   4.178  1.0625 -0.7229  0.2820
  943MOL0     H27278  12.321  -2.487   4.336  1.9770  2.2946  1.6360
  943MOL0     H27279  12.546  -2.646   4.209 -1.1827  0.7362 -0.7954
  943MOL0     H27280  12.571  -2.553   4.358  1.2711 -1.8811  1.3098
  943MOL0     H27281  12.364  -2.768   4.326 -0.1355  0.1077  0.0535
  943MOL0     H27282  12.396  -2.671   4.470 -1.7934  0.3562 -1.5189
  943MOL0     H27283  12.504  -2.914   4.464 -0.0934 -0.1598 -0.9697
  943MOL0     H27284  12.604  -2.868   4.331  0.9009 -0.7059  1.5250
  943MOL0     H27285  11.972  -2.107   3.853 -1.3652  0.4303  1.0653
  943MOL0     H27286  11.842  -1.907   3.774 -1.1897  1.0364  0.5423
  943MOL0     H27287  11.902  -1.409   3.668  1.9881 -1.7542  1.1702
  943MOL0     H27288  11.790  -1.244   3.530 -1.6888  0.3731 -1.8484
  943MOL0     H27289  11.178   0.145   3.223 -0.5742  1.0550  1.6244
  943MOL0     H27290  10.963   0.279   3.215  1.7053 -0.3300 -0.3451
  943MOL0     H27291  10.534   0.348   3.288  0.0076 -1.6742  1.4040
  943MOL0     H27292  10.304   0.425   3.314  0.0877 -0.2365  1.8700
  943MOL0     H27293  10.081   0.472   3.316 -1.0883  1.9036 -0.2557
  943MOL0     H27294  10.086   0.322   3.416  1.9296 -1.7053 -1.3161
  943MOL0     H27295   9.837   0.282   3.329 -2.0809  1.4022  2.7120
  943MOL0     H27296   9.853   0.420   3.235 -0.0666 -1.7613 -1.6811
  943MOL0     H27297   9.889   0.411   3.541  0.8547 -0.4553 -1.4915
  943MOL0     H27298   9.729   0.428   3.468 -0.1380  0.6453  1.3751
  943MOL0     H27299   9.931   0.636   3.365 -1.4903  1.4217 -0.2558
  943MOL0     H27300   9.759   0.634   3.374 -0.0024  0.8835  0.7895
  943MOL0     H27301   9.853   0.778   3.758  1.1531 -0.9414  0.8527
  943MOL0     H27302  10.155   0.123   3.061  0.0375 -1.2821 -1.0343
  943MOL0     H27303  10.401   0.110   2.862  0.4610 -0.4005  0.8103
  943MOL0     H27304  10.483  -0.020   2.930  0.1508  0.3972 -1.7685
  943MOL0     H27305  10.299  -0.015   2.948 -1.7286  1.0493  4.7126
  944MOL0     O27306   5.235   8.366   2.290 -0.0602 -0.4026  0.2656
  944MOL0     C27307   5.206   8.368   2.411  0.2037 -0.3039  0.0716
  944MOL0     O27308   5.280   8.432   2.501  0.3650 -0.3508  0.4634
  944MOL0     C27309   5.373   8.517   2.452  0.4997  0.1094 -0.0715
  944MOL0     C27310   5.339   8.650   2.402 -0.4950 -0.3842 -0.4612
  944MOL0     C27311   5.437   8.721   2.344 -0.5723 -0.8507 -0.2197
  944MOL0     C27312   5.575   8.670   2.344  0.0784  0.3654  0.5148
  944MOL0     O27313   5.681   8.735   2.290 -0.0195  0.5669  0.1411
  944MOL0     C27314   5.675   8.861   2.227 -0.1747  0.3242 -0.4016
  944MOL0     C27315   5.725   8.954   2.337  0.2828 -0.0600  0.1773
  944MOL0     C27316   5.754   9.098   2.282 -0.4596 -1.0861 -0.5048
  944MOL0     C27317   5.865   9.104   2.173  0.2987  0.1908  0.9561
  944MOL0     C27318   5.909   9.240   2.130 -0.2903  0.0758  0.1886
  944MOL0     C27319   5.988   9.246   1.994 -0.4517 -0.1594 -0.7286
  944MOL0     C27320   6.128   9.174   2.013 -0.4031  0.0343  0.7796
  944MOL0     C27321   6.237   9.222   1.922  1.1165  0.1393  0.2222
  944MOL0     N27322   6.260   9.371   1.934 -0.5264  0.5490 -0.2063
  944MOL0     C27323   6.289   9.450   1.822  0.2352  0.0328  0.9748
  944MOL0     C27324   6.287   9.579   1.865  0.2405  0.7775 -0.9931
  944MOL0     C27325   6.312   9.700   1.783  0.2352 -1.5398 -0.5918
  944MOL0     C27326   6.451   9.723   1.743 -0.4521  1.1588  0.1038
  944MOL0     C27327   6.463   9.850   1.662 -0.5822  0.3587 -0.1107
  944MOL0     C27328   6.615   9.879   1.634  0.1575 -0.3969 -0.3336
  944MOL0     O27329   6.686   9.757   1.588  0.2304 -0.2818  0.5613
  944MOL0     C27330   6.795   9.797   1.512 -0.4768 -0.5639  0.1154
  944MOL0     C27331   6.890   9.904   1.548  0.6782 -1.1887  0.4096
  944MOL0     C27332   6.995   9.925   1.468  0.8337  0.0664  0.6751
  944MOL0     C27333   7.036   9.848   1.364  0.3284 -0.4729  0.1585
  944MOL0     C27334   7.169   9.874   1.312 -0.6612 -0.3541  1.0381
  944MOL0     O27335   7.230   9.999   1.354 -0.7703 -0.4441  0.1744
  944MOL0     C27336   7.361  10.017   1.334 -0.4898  0.2916 -0.0347
  944MOL0     C27337   7.445   9.958   1.249  0.0359  0.7141  0.2474
  944MOL0     C27338   7.587   9.999   1.249  0.5188  0.4409  1.3723
  944MOL0     C27339   7.633  10.098   1.323 -0.9016 -1.0399 -0.1835
  944MOL0     O27340   7.765  10.136   1.315 -0.6625  0.4629 -0.9873
  944MOL0     C27341   7.836  10.171   1.429 -0.4525  0.4046 -0.6113
  944MOL0     C27342   7.980  10.151   1.405 -1.0661 -0.5414  0.0632
  944MOL0     C27343   8.072  10.184   1.520 -0.3160 -0.0609  0.3225
  944MOL0     C27344   8.224  10.179   1.500  0.4083 -0.9205 -0.2791
  944MOL0     C27345   8.279  10.268   1.610  0.1996 -0.4026 -0.1330
  944MOL0     C27346   8.417  10.240   1.664 -0.1167  0.0884 -0.1189
  944MOL0     C27347   8.523  10.233   1.555 -0.2682  0.3621 -0.9841
  944MOL0     C27348   8.642  10.149   1.616  0.0630 -0.7252  0.3831
  944MOL0    Cl27349   8.617   9.977   1.614  0.0978  0.2979  0.1078
  944MOL0     C27350   7.552  10.156   1.417  0.8319  0.4756 -0.0591
  944MOL0     C27351   7.420  10.119   1.418  0.9063 -0.3753  1.0933
  944MOL0     O27352   7.215   9.795   1.230  0.7260  0.0639 -0.6395
  944MOL0     C27353   6.954   9.735   1.336 -0.3701 -0.1101  0.1275
  944MOL0     C27354   6.831   9.709   1.409  0.3123  0.6251  0.4700
  944MOL0     N27355   6.270   9.568   2.006 -0.6625 -0.3498 -0.4163
  944MOL0     N27356   6.260   9.449   2.044  0.0883 -0.0022 -0.0214
  944MOL0     C27357   5.597   8.550   2.409  0.0309  0.4330 -0.1387
  944MOL0     C27358   5.500   8.467   2.464 -0.9259 -0.1135  0.5488
  944MOL0     C27359   5.092   8.286   2.452 -0.7024 -0.5484  0.9025
  944MOL0     C27360   5.015   8.326   2.561  0.1535 -0.7793  0.8310
  944MOL0     C27361   4.901   8.261   2.597 -0.2018 -0.2357  0.1707
  944MOL0     C27362   4.845   8.160   2.515 -0.2157 -0.6228  0.0343
  944MOL0     O27363   4.728   8.105   2.540  0.8272  0.5902  0.5149
  944MOL0     C27364   4.639   8.064   2.437  0.8088  0.2702  0.2356
  944MOL0     C27365   4.491   8.089   2.491  0.4194  0.7897 -0.7662
  944MOL0     C27366   4.452   7.971   2.585 -0.2668 -0.0671  0.6766
  944MOL0     C27367   4.421   7.830   2.525  0.7499  0.3509 -1.1447
  944MOL0     C27368   4.345   7.821   2.401  0.3078 -0.6146  0.3913
  944MOL0     C27369   4.287   7.799   2.297  0.8332 -0.8252  0.3372
  944MOL0     C27370   4.923   8.119   2.407  0.6464 -0.1574  0.3268
  944MOL0     C27371   5.043   8.168   2.381 -0.8872  0.8963 -0.0013
  944MOL0     C27372   5.123   8.106   2.272  0.2184  0.0150  0.6027
  944MOL0     H27373   5.245   8.703   2.413  1.1684  2.9596 -1.1447
  944MOL0     H27374   5.411   8.821   2.311 -0.7747 -1.6885 -2.8575
  944MOL0     H27375   5.743   8.862   2.142 -0.2289  1.9672 -0.4432
  944MOL0     H27376   5.575   8.893   2.197 -1.1786 -2.7962 -0.8322
  944MOL0     H27377   5.825   8.915   2.358  1.5398  1.9825 -1.5531
  944MOL0     H27378   5.662   8.961   2.426 -2.7025  2.0387 -1.9287
  944MOL0     H27379   5.786   9.160   2.366  1.2183 -4.6915  1.7451
  944MOL0     H27380   5.659   9.134   2.242 -0.5916 -0.7084  0.1382
  944MOL0     H27381   5.955   9.050   2.202 -0.5135 -0.8308  1.6425
  944MOL0     H27382   5.828   9.067   2.077 -1.7048  2.3346  0.7971
  944MOL0     H27383   5.816   9.298   2.128 -1.0494 -0.9319  2.5426
  944MOL0     H27384   5.977   9.288   2.201 -1.0727 -0.8631  1.6390
  944MOL0     H27385   5.929   9.216   1.907 -0.2939 -1.4288 -0.4255
  944MOL0     H27386   6.019   9.350   1.981 -0.1612  0.0605  1.3237
  944MOL0     H27387   6.116   9.068   1.987 -2.0807  0.3791 -0.0045
  944MOL0     H27388   6.166   9.171   2.115  0.7979 -2.7737  0.3611
  944MOL0     H27389   6.329   9.167   1.942  1.1863  0.0345 -0.3525
  944MOL0     H27390   6.206   9.194   1.821 -1.4790 -0.7198  1.1536
  944MOL0     H27391   6.296   9.416   1.720 -1.2149  0.8887  0.5507
  944MOL0     H27392   6.244   9.714   1.699 -2.1856  0.2192  1.4961
  944MOL0     H27393   6.291   9.777   1.859  0.6151  0.1091 -2.0968
  944MOL0     H27394   6.513   9.733   1.832  0.8807  0.7229 -0.7536
  944MOL0     H27395   6.478   9.633   1.688  0.4416  1.7193 -0.3967
  944MOL0     H27396   6.407   9.929   1.713  2.4420  2.9004 -0.3845
  944MOL0     H27397   6.416   9.833   1.564 -1.5561 -0.5606  0.4979
  944MOL0     H27398   6.659   9.907   1.730 -2.8445 -0.9374  1.3319
  944MOL0     H27399   6.623   9.963   1.564 -1.7034  0.3899  0.3438
  944MOL0     H27400   6.863   9.970   1.630 -0.6925  1.2791 -1.8488
  944MOL0     H27401   7.050  10.011   1.505 -0.3397  1.4533 -0.6291
  944MOL0     H27402   7.408   9.894   1.169 -2.9850  3.4150 -0.7186
  944MOL0     H27403   7.650   9.948   1.176 -0.4416  0.7256  0.3205
  944MOL0     H27404   7.810  10.277   1.441  0.7912  0.8203 -1.4968
  944MOL0     H27405   7.809  10.109   1.515 -0.3953  2.6586  1.1371
  944MOL0     H27406   7.998  10.047   1.378  1.5873  0.0309 -0.7475
  944MOL0     H27407   8.015  10.215   1.323  0.6226 -1.0217  0.3516
  944MOL0     H27408   8.042  10.277   1.570 -1.6395  1.3490 -2.8457
  944MOL0     H27409   8.045  10.103   1.588  0.4913 -0.0203  0.7033
  944MOL0     H27410   8.245  10.228   1.405  1.3990 -0.0822  0.3510
  944MOL0     H27411   8.265  10.078   1.504  1.0309 -0.6335  1.7927
  944MOL0     H27412   8.210  10.276   1.695 -1.0161  1.6554 -1.2361
  944MOL0     H27413   8.288  10.369   1.569 -0.5604 -1.1958 -2.3963
  944MOL0     H27414   8.435  10.321   1.736  0.7148 -0.2286  0.0336
  944MOL0     H27415   8.413  10.149   1.724  4.7141  0.3241  0.9682
  944MOL0     H27416   8.557  10.334   1.532 -0.4492  0.6546 -0.0023
  944MOL0     H27417   8.490  10.171   1.471  1.5242 -1.4775 -0.4117
  944MOL0     H27418   8.732  10.175   1.559 -0.6263  0.7981 -0.0528
  944MOL0     H27419   8.662  10.181   1.718 -0.1953 -0.6975  0.4255
  944MOL0     H27420   7.589  10.226   1.490  2.5026  0.1853 -0.5813
  944MOL0     H27421   7.358  10.179   1.484 -0.4981 -1.8878  1.2135
  944MOL0     H27422   6.986   9.679   1.249 -1.3290 -0.7961  0.1999
  944MOL0     H27423   6.761   9.631   1.381 -1.9952  4.2502 -5.8189
  944MOL0     H27424   5.693   8.505   2.433 -0.3045 -0.3619 -0.2338
  944MOL0     H27425   5.526   8.375   2.515  0.4886 -0.5436 -0.8543
  944MOL0     H27426   5.044   8.403   2.631 -2.9222 -0.3612  1.8080
  944MOL0     H27427   4.847   8.295   2.685 -0.5723 -1.2665  0.3558
  944MOL0     H27428   4.649   7.957   2.414 -1.9523  0.4267 -2.3320
  944MOL0     H27429   4.666   8.120   2.347 -0.5333  0.4548 -0.0732
  944MOL0     H27430   4.409   8.076   2.419  0.2550 -0.1129 -0.4275
  944MOL0     H27431   4.475   8.183   2.543 -0.6715  0.5983 -0.7448
  944MOL0     H27432   4.380   7.996   2.663  0.2644  1.1366  0.8087
  944MOL0     H27433   4.546   7.976   2.642  0.1152  2.1598 -0.0424
  944MOL0     H27434   4.514   7.780   2.497  0.2926 -1.5849  0.5683
  944MOL0     H27435   4.382   7.764   2.603  0.4732 -0.3356 -1.8494
  944MOL0     H27436   4.259   7.759   2.202 -0.9903  3.1389 -1.0056
  944MOL0     H27437   4.890   8.038   2.342  0.3690  0.5989 -0.5061
  944MOL0     H27438   5.226   8.105   2.308  0.2198  0.4956  0.6189
  944MOL0     H27439   5.104   8.001   2.250  0.5946 -0.2313  1.4336
  944MOL0     H27440   5.130   8.162   2.178  3.4897 -2.2553 -0.6713
  945MOL0     O27441   1.932   8.875  10.466  1.6072 -0.2040  0.0865
  945MOL0     C27442   1.964   8.817  10.567 -0.8206  0.0756  0.0825
  945MOL0     O27443   2.070   8.862  10.641 -0.0334  0.0890 -0.4255
  945MOL0     C27444   2.173   8.909  10.569  0.7532 -0.3662 -0.6857
  945MOL0     C27445   2.212   8.855  10.443  0.1198 -0.2479  0.9135
  945MOL0     C27446   2.307   8.922  10.361 -0.8878 -0.4605 -0.1438
  945MOL0     C27447   2.369   9.050  10.395 -1.0899 -1.2304  0.2215
  945MOL0     O27448   2.457   9.114  10.317  0.1914  0.1458  0.7073
  945MOL0     C27449   2.533   9.222  10.363 -0.0678  0.2062  0.0120
  945MOL0     C27450   2.660   9.252  10.278 -0.9232  0.1304  0.0638
  945MOL0     C27451   2.744   9.343  10.369 -0.2551  0.3816 -0.9855
  945MOL0     C27452   2.852   9.422  10.290 -0.7940  0.4607  0.1385
  945MOL0     C27453   2.989   9.358  10.324 -1.3551 -0.6107 -0.0097
  945MOL0     C27454   3.102   9.453  10.287  0.1752 -0.3169 -0.3216
  945MOL0     C27455   3.230   9.402  10.339  0.5900 -0.0365  0.2977
  945MOL0     C27456   3.351   9.483  10.294 -0.2958 -0.3830 -0.2114
  945MOL0     N27457   3.479   9.418  10.273 -0.0114 -0.0517 -0.1265
  945MOL0     C27458   3.576   9.413  10.368  0.6175  0.0973 -0.5323
  945MOL0     C27459   3.688   9.372  10.299 -0.6224 -0.5609  0.2009
  945MOL0     C27460   3.826   9.358  10.365  0.1706  0.4562  0.7848
  945MOL0     C27461   3.912   9.248  10.298 -0.1196 -0.0103  0.1848
  945MOL0     C27462   3.881   9.100  10.333 -0.8034 -1.0125  0.2732
  945MOL0     C27463   3.733   9.058  10.316  0.4533  0.1630 -0.3483
  945MOL0     O27464   3.645   9.091  10.437  0.4723  0.1033  0.6199
  945MOL0     C27465   3.512   9.056  10.435 -0.0325  0.0133  0.9368
  945MOL0     C27466   3.451   8.954  10.353 -0.7279  0.3882  0.1436
  945MOL0     C27467   3.317   8.929  10.362 -0.0951 -0.6235 -0.1673
  945MOL0     C27468   3.235   9.002  10.459  0.6544 -0.5492 -0.6364
  945MOL0     C27469   3.093   8.962  10.468  0.6930 -1.0286  0.6807
  945MOL0     O27470   3.065   8.854  10.392  0.1753 -0.3622  0.4832
  945MOL0     C27471   2.940   8.801  10.401  0.8299  0.6919  0.8262
  945MOL0     C27472   2.827   8.876  10.352 -0.8580  0.6093  0.2349
  945MOL0     C27473   2.697   8.829  10.369 -0.3242  0.4758 -0.7695
  945MOL0     C27474   2.664   8.701  10.425 -0.4056 -0.6085  0.5875
  945MOL0     O27475   2.536   8.666  10.432 -0.0767 -0.6645  0.9166
  945MOL0     C27476   2.510   8.563  10.524  0.0506  0.7121 -0.7566
  945MOL0     C27477   2.357   8.550  10.529 -0.0292 -0.3534 -0.8344
  945MOL0     C27478   2.309   8.440  10.624 -0.1292 -1.0617  0.4824
  945MOL0     C27479   2.157   8.420  10.610 -0.3504  0.9217 -0.2389
  945MOL0     C27480   2.130   8.298  10.689 -0.8488  0.3311  0.9986
  945MOL0     C27481   1.983   8.279  10.712  0.2602 -0.3922  0.1597
  945MOL0     C27482   1.947   8.176  10.823  0.1390 -1.1279  0.5044
  945MOL0     C27483   1.790   8.175  10.848  0.5332  0.4383 -0.0058
  945MOL0    Cl27484   1.750   8.052  10.968 -0.2186 -0.5224  0.3708
  945MOL0     C27485   2.774   8.626  10.447 -0.8749  0.5469 -0.7939
  945MOL0     C27486   2.912   8.674  10.443  0.2907 -0.2777  0.4738
  945MOL0     O27487   3.018   9.044  10.517  0.0005 -0.2179  0.3485
  945MOL0     C27488   3.291   9.103  10.532  0.2235 -0.3927 -0.7625
  945MOL0     C27489   3.430   9.133  10.522 -0.6149  0.8318  0.3571
  945MOL0     N27490   3.659   9.354  10.161 -0.1330 -0.9657 -0.0533
  945MOL0     N27491   3.529   9.374  10.148 -0.0357  0.2569  0.5365
  945MOL0     C27492   2.337   9.090  10.528  0.4868 -0.8010  0.4893
  945MOL0     C27493   2.233   9.030  10.608 -0.6535  0.2803  0.2534
  945MOL0     C27494   1.871   8.721  10.626  0.0763  0.4440  0.4050
  945MOL0     C27495   1.828   8.730  10.761 -0.2891 -0.1422 -0.0827
  945MOL0     C27496   1.715   8.651  10.806 -0.4809  0.0538  0.1211
  945MOL0     C27497   1.643   8.571  10.720 -0.0075  0.5353 -0.2983
  945MOL0     O27498   1.540   8.482  10.755  0.2384  0.4007 -0.0866
  945MOL0     C27499   1.445   8.533  10.844  0.7505 -0.4067 -0.2720
  945MOL0     C27500   1.454   8.451  10.978 -0.1171 -0.0502  0.6727
  945MOL0     C27501   1.417   8.305  10.959 -0.3088 -0.1451 -0.0608
  945MOL0     C27502   1.394   8.237  11.090  0.2386 -0.5806 -0.0907
  945MOL0     C27503   1.505   8.260  11.184 -0.1064 -0.0860 -0.0907
  945MOL0     C27504   1.607   8.277  11.253 -0.5413 -0.0584  0.8561
  945MOL0     C27505   1.685   8.563  10.591  0.3282  0.2167  0.9870
  945MOL0     C27506   1.800   8.633  10.544  0.2087  0.0848 -0.3854
  945MOL0     C27507   1.820   8.615  10.392 -0.3087 -0.0980 -0.0991
  945MOL0     H27508   2.168   8.765  10.401  2.0678 -0.8639  0.1000
  945MOL0     H27509   2.332   8.884  10.263 -1.2880  0.1459 -0.4903
  945MOL0     H27510   2.484   9.319  10.373 -0.0814  0.1930  0.0789
  945MOL0     H27511   2.580   9.183  10.454 -1.3175 -1.8805 -0.1597
  945MOL0     H27512   2.640   9.288  10.177 -1.9587 -2.2688 -0.6668
  945MOL0     H27513   2.706   9.153  10.267 -2.9989 -1.4155  3.6785
  945MOL0     H27514   2.787   9.286  10.452  0.9367 -0.1839 -1.9620
  945MOL0     H27515   2.676   9.420  10.406 -1.4557 -0.2281 -1.8726
  945MOL0     H27516   2.845   9.413  10.182  0.6440  1.9085 -0.1147
  945MOL0     H27517   2.853   9.528  10.315  0.6482  1.2832 -2.9244
  945MOL0     H27518   2.997   9.333  10.430 -1.2665 -0.5727 -0.0069
  945MOL0     H27519   3.000   9.262  10.272 -0.0449 -1.1704  1.2459
  945MOL0     H27520   3.114   9.462  10.179  0.3807  0.0611 -0.2697
  945MOL0     H27521   3.079   9.551  10.330  0.8823 -0.0712 -0.5044
  945MOL0     H27522   3.242   9.303  10.293 -0.3025  0.8299 -1.9126
  945MOL0     H27523   3.218   9.399  10.448  0.0492  0.2982  0.2507
  945MOL0     H27524   3.335   9.520  10.193  1.6039 -1.2019 -0.8584
  945MOL0     H27525   3.358   9.563  10.368  1.6952  1.0711 -1.8885
  945MOL0     H27526   3.576   9.436  10.475  1.0962 -0.8035 -0.3265
  945MOL0     H27527   3.869   9.459  10.365 -0.2631  0.6428  0.5221
  945MOL0     H27528   3.820   9.333  10.471 -2.5016  3.2732  1.4508
  945MOL0     H27529   3.903   9.258  10.189 -3.0146  0.2076  0.3619
  945MOL0     H27530   4.012   9.277  10.332 -1.1513  2.4609  1.4109
  945MOL0     H27531   3.920   9.067  10.430 -0.3597 -1.5606 -0.0849
  945MOL0     H27532   3.941   9.052  10.255  3.0743  2.2599  0.8816
  945MOL0     H27533   3.727   8.950  10.302 -2.7494 -0.1327  2.1153
  945MOL0     H27534   3.687   9.095  10.224 -2.2287 -2.2889 -0.1519
  945MOL0     H27535   3.509   8.896  10.282 -3.2020  1.8240 -3.2945
  945MOL0     H27536   3.271   8.851  10.302 -0.7741  0.8695 -1.6680
  945MOL0     H27537   2.842   8.968  10.297  0.9550 -1.1693 -2.4987
  945MOL0     H27538   2.609   8.883  10.336 -0.1991 -0.9119 -3.6365
  945MOL0     H27539   2.543   8.467  10.482 -0.6843 -0.8252  1.9612
  945MOL0     H27540   2.552   8.577  10.624  0.5733 -1.2266 -0.6612
  945MOL0     H27541   2.317   8.645  10.565 -2.5664 -1.2427 -1.0797
  945MOL0     H27542   2.325   8.534  10.426  0.4464  4.7953 -2.0357
  945MOL0     H27543   2.362   8.348  10.598 -0.1118 -0.5870 -1.2585
  945MOL0     H27544   2.330   8.461  10.729 -0.4722 -1.3682  0.6119
  945MOL0     H27545   2.134   8.394  10.506 -2.6163 -3.1494  1.0495
  945MOL0     H27546   2.093   8.506  10.629  1.3035  2.2216 -0.2980
  945MOL0     H27547   2.183   8.307  10.784  0.4938 -1.5410  0.5000
  945MOL0     H27548   2.175   8.214  10.635 -1.9054  2.2540 -3.3025
  945MOL0     H27549   1.948   8.375  10.749 -1.9432 -0.3991 -1.7083
  945MOL0     H27550   1.924   8.271  10.620 -0.9807  0.3604  0.8642
  945MOL0     H27551   1.994   8.198  10.918 -2.4511  1.0394  1.4085
  945MOL0     H27552   1.976   8.074  10.795  3.9387 -0.3309  1.0985
  945MOL0     H27553   1.760   8.277  10.875  0.4761  0.2667  0.5889
  945MOL0     H27554   1.727   8.149  10.762  1.3331 -1.6355 -0.0199
  945MOL0     H27555   2.771   8.528  10.492 -1.6999  1.2234  0.7001
  945MOL0     H27556   2.999   8.610  10.456  1.6769  1.3556 -0.3158
  945MOL0     H27557   3.240   9.145  10.618 -1.7194 -1.8889 -1.1219
  945MOL0     H27558   3.486   9.202  10.583 -0.9278  2.3188 -0.9732
  945MOL0     H27559   2.384   9.179  10.569 -2.5081  0.1431  2.2114
  945MOL0     H27560   2.209   9.081  10.700 -1.1660  2.0455 -0.8205
  945MOL0     H27561   1.894   8.786  10.827  0.2397  0.5149 -1.1424
  945MOL0     H27562   1.688   8.664  10.911 -3.6290  2.8347 -0.8531
  945MOL0     H27563   1.344   8.536  10.801  0.5556 -1.3514  0.0950
  945MOL0     H27564   1.470   8.635  10.877  3.6847 -1.6724  1.7743
  945MOL0     H27565   1.380   8.504  11.039 -0.1933  0.8483 -0.1696
  945MOL0     H27566   1.556   8.444  11.015 -0.6558 -3.8610  1.8911
  945MOL0     H27567   1.499   8.250  10.911 -0.9330 -1.3269  0.1784
  945MOL0     H27568   1.321   8.279  10.912  0.9606 -2.0408 -1.7940
  945MOL0     H27569   1.306   8.273  11.145  0.5681  0.4976 -0.2480
  945MOL0     H27570   1.381   8.132  11.060  1.4085 -0.5784 -0.6620
  945MOL0     H27571   1.698   8.274  11.308  0.4865 -1.1121 -0.8193
  945MOL0     H27572   1.641   8.498  10.516 -0.8839  2.8640 -0.7427
  945MOL0     H27573   1.797   8.517  10.349  1.3489 -1.4163  1.8486
  945MOL0     H27574   1.762   8.694  10.343 -1.1812 -0.3216  0.5553
  945MOL0     H27575   1.927   8.631  10.378  0.2759 -1.5551  2.2584
  946MOL0     O27576   2.376  11.365   4.634 -0.4837  0.7611  0.6193
  946MOL0     C27577   2.290  11.274   4.638 -0.8150 -0.8949 -0.6118
  946MOL0     O27578   2.314  11.141   4.660  0.5346 -0.2067 -0.0307
  946MOL0     C27579   2.449  11.111   4.659 -0.3194 -0.1603 -0.1693
  946MOL0     C27580   2.508  11.096   4.779  1.0833  0.2184 -0.0326
  946MOL0     C27581   2.644  11.052   4.785  0.0915  0.9568 -0.4981
  946MOL0     C27582   2.726  11.046   4.673  0.9888 -0.1235  1.6124
  946MOL0     O27583   2.859  11.029   4.695  0.4591  0.9238  0.1487
  946MOL0     C27584   2.893  10.893   4.672  0.6057  0.4805 -1.5603
  946MOL0     C27585   3.040  10.867   4.712  1.0947  0.5388  0.3187
  946MOL0     C27586   3.073  10.894   4.866  0.2806  0.3599  0.3905
  946MOL0     C27587   3.225  10.864   4.884 -0.7720  0.0745 -0.6978
  946MOL0     C27588   3.277  10.894   5.029 -0.6499 -0.2636 -0.0737
  946MOL0     C27589   3.405  10.848   5.068  0.4153 -0.6410 -0.5475
  946MOL0     C27590   3.524  10.920   5.011 -0.0729  0.7434  0.3674
  946MOL0     C27591   3.657  10.843   5.051  0.3017  0.4800 -0.5111
  946MOL0     N27592   3.760  10.926   5.112 -0.5204  0.5966 -0.1112
  946MOL0     C27593   3.846  11.004   5.045 -0.3416 -0.0827  0.4034
  946MOL0     C27594   3.930  11.061   5.136  0.0518  0.0206 -0.0100
  946MOL0     C27595   4.039  11.165   5.102  0.5138 -0.1153 -0.1495
  946MOL0     C27596   4.182  11.117   5.060 -0.5507 -0.2215  0.6830
  946MOL0     C27597   4.177  11.000   4.976 -0.1595  0.0026 -0.1554
  946MOL0     C27598   4.325  10.959   4.944  0.2110  0.2811  0.8140
  946MOL0     O27599   4.403  11.080   4.896 -0.4098  0.1204  0.6194
  946MOL0     C27600   4.519  11.054   4.831 -0.4152 -0.2649 -0.2112
  946MOL0     C27601   4.590  11.156   4.773 -0.3221 -0.3998 -0.7907
  946MOL0     C27602   4.710  11.137   4.708 -0.1435  0.2089 -0.5503
  946MOL0     C27603   4.766  11.009   4.693 -0.1643  0.4476  0.3394
  946MOL0     C27604   4.892  10.988   4.612  0.8070 -0.6607 -0.6008
  946MOL0     O27605   4.950  10.862   4.640 -0.6668  0.2642 -0.3443
  946MOL0     C27606   5.085  10.845   4.602  0.2641 -0.2791 -0.1726
  946MOL0     C27607   5.123  10.783   4.481 -0.2179 -0.7592 -0.1205
  946MOL0     C27608   5.258  10.761   4.452 -0.3793 -0.4455 -1.3589
  946MOL0     C27609   5.358  10.812   4.535  0.5103 -0.2755  0.3785
  946MOL0     O27610   5.485  10.784   4.499  0.5883  0.2909  0.0238
  946MOL0     C27611   5.582  10.877   4.541  0.1575  0.6436  0.5099
  946MOL0     C27612   5.696  10.838   4.446 -0.0528 -0.1200  0.4240
  946MOL0     C27613   5.819  10.930   4.478  0.5366 -0.7425  0.0392
  946MOL0     C27614   5.945  10.921   4.387  0.2369 -0.3462  0.0708
  946MOL0     C27615   6.029  10.797   4.382 -0.2554  0.5965 -0.5901
  946MOL0     C27616   6.060  10.725   4.517 -0.1501  0.1966  0.2386
  946MOL0     C27617   6.140  10.595   4.514  0.4830  0.0138 -0.5872
  946MOL0     C27618   6.206  10.566   4.649 -0.3108  0.0944  0.4350
  946MOL0    Cl27619   6.348  10.661   4.676  0.5011 -0.6027 -0.0776
  946MOL0     C27620   5.325  10.876   4.653 -0.5926  0.0433  0.6868
  946MOL0     C27621   5.190  10.888   4.689 -0.4380 -0.7412 -0.4692
  946MOL0     O27622   4.951  11.082   4.554 -0.2669 -0.2905  0.3459
  946MOL0     C27623   4.699  10.904   4.762 -0.3142 -0.6681 -0.6472
  946MOL0     C27624   4.579  10.925   4.830 -0.0343 -0.5633  0.1984
  946MOL0     N27625   3.889  11.021   5.265 -0.7767 -0.4811 -0.0482
  946MOL0     N27626   3.790  10.938   5.244  0.1273 -0.3406 -0.8200
  946MOL0     C27627   2.666  11.066   4.547  0.1802 -0.0138 -0.5052
  946MOL0     C27628   2.525  11.097   4.541  0.3039  0.4540 -0.3448
  946MOL0     C27629   2.154  11.314   4.610 -0.4739  0.3553  0.0085
  946MOL0     C27630   2.084  11.223   4.529 -0.0447  1.0156  0.1658
  946MOL0     C27631   1.951  11.242   4.492 -0.3992 -0.0014 -0.3522
  946MOL0     C27632   1.888  11.362   4.536 -0.8772  0.6706  0.3810
  946MOL0     O27633   1.757  11.372   4.495  0.3706  0.8804 -0.4743
  946MOL0     C27634   1.687  11.493   4.518  0.8382 -0.4057  0.2242
  946MOL0     C27635   1.549  11.479   4.450  0.0799 -0.5062  0.5277
  946MOL0     C27636   1.447  11.430   4.553  0.0640 -0.4779  0.2303
  946MOL0     C27637   1.450  11.280   4.584 -0.5391 -0.3240  0.9198
  946MOL0     C27638   1.323  11.241   4.653  0.2366 -0.2883  0.5685
  946MOL0     C27639   1.216  11.211   4.699 -0.1769 -0.1281  0.6374
  946MOL0     C27640   1.957  11.462   4.618  0.2695  0.6957  0.8168
  946MOL0     C27641   2.090  11.432   4.656  0.3061  0.5346 -0.0657
  946MOL0     C27642   2.154  11.523   4.758 -0.1622  0.1739 -0.4252
  946MOL0     H27643   2.452  11.108   4.871 -0.8630  3.0007 -1.4291
  946MOL0     H27644   2.686  11.040   4.884 -0.2146 -1.5124 -0.6087
  946MOL0     H27645   2.839  10.840   4.751  1.3183  2.4214  0.3198
  946MOL0     H27646   2.861  10.860   4.572  0.6160  0.7339 -1.6466
  946MOL0     H27647   3.109  10.923   4.649 -0.6984  0.2131 -2.1093
  946MOL0     H27648   3.065  10.763   4.689  1.4556  0.7263 -0.1476
  946MOL0     H27649   3.009  10.839   4.937 -1.0832 -1.9368 -2.4175
  946MOL0     H27650   3.063  11.000   4.889 -0.9609  0.8183 -1.9443
  946MOL0     H27651   3.248  10.758   4.865 -1.1755 -0.0829 -0.3237
  946MOL0     H27652   3.277  10.927   4.811 -0.9044  0.0708 -0.7967
  946MOL0     H27653   3.273  11.002   5.044 -2.2210  0.5409 -4.6269
  946MOL0     H27654   3.202  10.862   5.102  0.9038 -2.4650  0.6709
  946MOL0     H27655   3.411  10.858   5.177  1.1567  1.8154 -0.7732
  946MOL0     H27656   3.410  10.740   5.047 -0.1730 -0.7461 -0.1837
  946MOL0     H27657   3.531  11.022   5.051 -1.2487  1.2330 -0.5863
  946MOL0     H27658   3.528  10.929   4.902  3.0103 -0.7793  0.2524
  946MOL0     H27659   3.627  10.778   5.133 -4.4447  2.2789 -0.4989
  946MOL0     H27660   3.688  10.780   4.968 -0.3535  1.0661 -1.2202
  946MOL0     H27661   3.846  11.032   4.941 -1.3290  0.0021  0.4181
  946MOL0     H27662   3.991  11.235   5.033 -2.8137  0.0373  2.0995
  946MOL0     H27663   4.067  11.238   5.179  1.5333 -0.0902 -0.5311
  946MOL0     H27664   4.238  11.199   5.014  0.7133 -1.3030  0.2252
  946MOL0     H27665   4.227  11.082   5.154  1.9505  0.5971 -0.1165
  946MOL0     H27666   4.122  11.017   4.883  1.7025  1.7162 -1.0303
  946MOL0     H27667   4.135  10.914   5.029  0.3983  1.0096  2.0152
  946MOL0     H27668   4.316  10.889   4.860 -1.3291  0.5457  0.7335
  946MOL0     H27669   4.372  10.905   5.026  2.5705 -1.4830 -1.5277
  946MOL0     H27670   4.561  11.261   4.775 -1.0875 -0.4750 -3.4744
  946MOL0     H27671   4.768  11.225   4.679  0.2937 -0.0717 -0.5306
  946MOL0     H27672   5.049  10.758   4.406  1.5485  1.1683 -2.7013
  946MOL0     H27673   5.275  10.705   4.361  0.6220 -0.4620 -1.1732
  946MOL0     H27674   5.555  10.983   4.535 -1.0315  0.2898 -1.2958
  946MOL0     H27675   5.605  10.857   4.645 -3.2382 -1.6430  0.9586
  946MOL0     H27676   5.722  10.734   4.464 -0.5097 -0.0073  1.8199
  946MOL0     H27677   5.664  10.867   4.345 -0.5126  2.2683  1.1737
  946MOL0     H27678   5.792  11.036   4.477  2.1328 -0.2702 -2.2496
  946MOL0     H27679   5.848  10.909   4.581  1.2997  0.9250  0.2000
  946MOL0     H27680   6.016  10.989   4.434  1.0623 -0.0182 -1.5864
  946MOL0     H27681   5.919  10.947   4.284  0.3625 -1.9820 -0.3971
  946MOL0     H27682   6.119  10.825   4.326 -0.5193 -2.1638 -2.5852
  946MOL0     H27683   5.981  10.721   4.319 -0.8154 -0.0084  0.5288
  946MOL0     H27684   6.122  10.798   4.570  0.4603 -0.2867  0.1957
  946MOL0     H27685   5.973  10.689   4.572  0.5861 -1.8092  0.1933
  946MOL0     H27686   6.212  10.596   4.431  0.2113 -2.8761 -0.9614
  946MOL0     H27687   6.068  10.517   4.489 -0.2842  1.1702 -2.1488
  946MOL0     H27688   6.133  10.579   4.730  0.4241 -0.2503  1.1662
  946MOL0     H27689   6.229  10.459   4.649 -0.1459  0.1291  0.3920
  946MOL0     H27690   5.389  10.915   4.732 -2.0097  0.7184  1.5293
  946MOL0     H27691   5.158  10.951   4.771  2.0867  1.7603 -1.2583
  946MOL0     H27692   4.742  10.805   4.770  5.7485  1.6189  0.0822
  946MOL0     H27693   4.551  10.831   4.874  0.8837 -0.2058  1.6214
  946MOL0     H27694   2.728  11.051   4.459  1.4321 -1.2752  0.5529
  946MOL0     H27695   2.475  11.101   4.445 -0.4753 -0.0878  0.0223
  946MOL0     H27696   2.117  11.134   4.477 -2.7866 -0.2241  0.3850
  946MOL0     H27697   1.899  11.170   4.430 -4.0925  2.0709  0.0081
  946MOL0     H27698   1.749  11.574   4.478  2.8583 -1.1723  1.6470
  946MOL0     H27699   1.674  11.518   4.624 -0.4336 -0.1030  0.0212
  946MOL0     H27700   1.548  11.401   4.374  2.3722 -0.7007  0.6327
  946MOL0     H27701   1.513  11.575   4.412 -0.2240  0.6058  3.3493
  946MOL0     H27702   1.346  11.459   4.522  0.3883 -0.2112 -0.6087
  946MOL0     H27703   1.461  11.485   4.646 -1.1195 -0.8208  0.6278
  946MOL0     H27704   1.446  11.221   4.492  0.1770  0.4603  0.3703
  946MOL0     H27705   1.526  11.242   4.653  0.3376 -2.1878 -0.9858
  946MOL0     H27706   1.122  11.186   4.744  0.1359 -0.7994  0.9455
  946MOL0     H27707   1.911  11.549   4.662 -0.4406  0.0812  1.3225
  946MOL0     H27708   2.174  11.621   4.713 -0.7907 -0.5528 -2.4154
  946MOL0     H27709   2.081  11.549   4.835  1.3197 -1.4849  1.6334
  946MOL0     H27710   2.239  11.476   4.808 -0.9085 -1.7830 -0.9225
  947MOL0     O27711   1.508  11.053  10.091  0.5916 -0.2612  0.0535
  947MOL0     C27712   1.475  11.092  10.199 -0.2990  0.1052 -0.6282
  947MOL0     O27713   1.527  11.050  10.318  0.6315  0.0500  0.2843
  947MOL0     C27714   1.634  10.958  10.325 -0.1948 -0.1356  0.2084
  947MOL0     C27715   1.669  10.927  10.456 -0.3121 -0.0006 -0.4784
  947MOL0     C27716   1.776  10.838  10.494 -1.0192  0.0866  0.1196
  947MOL0     C27717   1.858  10.790  10.392 -0.8059  0.2651  0.0698
  947MOL0     O27718   1.965  10.703  10.407  1.1760 -0.1505  0.0192
  947MOL0     C27719   1.940  10.587  10.490 -0.5554  0.3549  0.2724
  947MOL0     C27720   2.025  10.466  10.445  0.3465 -0.8809 -0.1432
  947MOL0     C27721   2.087  10.387  10.556  0.0554 -0.4410 -1.1240
  947MOL0     C27722   2.178  10.278  10.494  0.0292 -0.3724 -0.8200
  947MOL0     C27723   2.222  10.207  10.619 -0.0059  0.3019 -0.5654
  947MOL0     C27724   2.323  10.099  10.596  1.1243  0.4489 -0.3269
  947MOL0     C27725   2.392  10.057  10.724 -0.8405 -0.1086  0.1397
  947MOL0     C27726   2.304  10.013  10.833  0.4248 -0.4113 -0.0423
  947MOL0     N27727   2.371   9.962  10.947  0.4067  0.6661  0.1865
  947MOL0     C27728   2.468  10.030  11.014 -1.1179  0.3991 -0.2776
  947MOL0     C27729   2.541   9.928  11.077  0.0306 -1.1317  0.1226
  947MOL0     C27730   2.666   9.940  11.173 -0.5557  0.6789  0.1939
  947MOL0     C27731   2.798   9.970  11.098  0.3593 -0.0335 -0.1186
  947MOL0     C27732   2.905  10.004  11.205 -0.0939  0.2605  0.1223
  947MOL0     C27733   2.888  10.130  11.275 -0.0988  0.2780 -0.0774
  947MOL0     O27734   3.006  10.159  11.345 -0.6350  0.2070  0.0466
  947MOL0     C27735   3.040  10.098  11.465 -0.4218  0.4129 -0.1495
  947MOL0     C27736   3.161  10.129  11.513  0.0959 -0.3569 -0.2092
  947MOL0     C27737   3.205  10.092  11.642  0.2689 -0.1659 -0.5613
  947MOL0     C27738   3.136   9.989  11.712 -0.4888 -2.5230  0.1735
  947MOL0     C27739   3.205   9.945  11.840 -0.0298  0.1367 -0.8188
  947MOL0     O27740   3.336   9.985  11.864  0.1824  0.8072 -0.0307
  947MOL0     C27741   3.397   9.953  11.981  0.2864 -0.2155  0.1161
  947MOL0     C27742   3.337   9.968  12.103  1.3205  0.0764 -0.4187
  947MOL0     C27743   3.421   9.968  12.217 -0.2864  0.7200  0.0797
  947MOL0     C27744   3.562   9.953  12.209 -0.2317 -0.4644 -0.5304
  947MOL0     O27745   3.655   9.943  12.313  0.6078  0.1167 -0.4744
  947MOL0     C27746   3.620   9.967  12.451  0.4579 -0.3186  0.3737
  947MOL0     C27747   3.594  10.111  12.472  0.1427  0.5256 -0.3982
  947MOL0     C27748   3.719  10.193  12.431 -0.2866  0.7070 -0.0788
  947MOL0     C27749   3.728  10.329  12.498 -0.0464 -0.0534  0.7841
  947MOL0     C27750   3.759  10.448  12.409 -0.4694  0.6226 -0.6246
  947MOL0     C27751   3.909  10.438  12.369  0.0188 -0.3149 -0.0244
  947MOL0     C27752   3.946  10.568  12.297  0.3598  0.3424 -0.3780
  947MOL0     C27753   4.093  10.591  12.297  0.7296  0.7145 -0.4337
  947MOL0    Cl27754   4.130  10.755  12.218 -0.0053 -0.0016  0.2721
  947MOL0     C27755   3.610   9.935  12.081  1.0359 -0.3952  0.3525
  947MOL0     C27756   3.531   9.937  11.969 -0.2251 -0.6495 -0.7718
  947MOL0     O27757   3.128   9.874  11.913 -0.0027  0.4273 -0.5005
  947MOL0     C27758   3.008   9.957  11.668 -0.1248 -0.5772  0.2859
  947MOL0     C27759   2.962  10.011  11.547 -0.0463 -0.5399  0.9433
  947MOL0     N27760   2.472   9.804  11.055 -1.0258  0.0354 -1.1034
  947MOL0     N27761   2.375   9.829  10.974  0.9823 -0.6078 -0.4043
  947MOL0     C27762   1.817  10.821  10.256 -0.3909  0.1775 -0.3602
  947MOL0     C27763   1.703  10.891  10.227 -0.5378  0.3053 -0.1150
  947MOL0     C27764   1.379  11.205  10.211  0.6574 -0.4570 -0.2385
  947MOL0     C27765   1.395  11.299  10.317  0.1141  0.2071  0.0113
  947MOL0     C27766   1.303  11.403  10.345  1.0532 -0.0191 -0.4505
  947MOL0     C27767   1.192  11.419  10.257 -0.1298  0.7089 -0.7127
  947MOL0     O27768   1.103  11.515  10.264  0.6993  0.1533 -0.7086
  947MOL0     C27769   1.164  11.640  10.283  0.7469 -1.2574 -0.1432
  947MOL0     C27770   1.087  11.767  10.275 -0.6665  0.3386 -0.7904
  947MOL0     C27771   1.006  11.787  10.144  0.7546  0.2464  0.3905
  947MOL0     C27772   0.992  11.929  10.088  0.5229  0.3454  0.0495
  947MOL0     C27773   1.119  11.969  10.040 -0.1553 -0.1989 -0.1698
  947MOL0     C27774   1.228  12.009  10.008 -0.5982  0.1565  0.0447
  947MOL0     C27775   1.175  11.327  10.159 -0.8651 -0.1815  0.0407
  947MOL0     C27776   1.259  11.220  10.137  1.0300 -0.3929 -0.3985
  947MOL0     C27777   1.210  11.117  10.034 -0.2194 -0.2794 -0.4068
  947MOL0     H27778   1.594  10.964  10.526 -0.4013  0.0951 -0.6239
  947MOL0     H27779   1.794  10.800  10.594  3.7978 -1.1331 -0.9512
  947MOL0     H27780   1.987  10.618  10.584 -1.2510 -0.4077  0.8861
  947MOL0     H27781   1.835  10.570  10.515 -0.2690  1.8842  2.8818
  947MOL0     H27782   2.109  10.512  10.392  1.2923 -2.4912 -0.0970
  947MOL0     H27783   1.962  10.413  10.374 -2.0546  1.5892 -0.0352
  947MOL0     H27784   2.007  10.340  10.613  0.5072 -1.0970 -1.0125
  947MOL0     H27785   2.149  10.450  10.620  0.4982 -0.0514 -1.9124
  947MOL0     H27786   2.124  10.219  10.419  1.7712 -0.8017 -1.8074
  947MOL0     H27787   2.269  10.317  10.448  0.4882  0.6760  0.8965
  947MOL0     H27788   2.262  10.283  10.686  0.3481 -0.6144  0.2853
  947MOL0     H27789   2.132  10.166  10.664  0.1416  0.6126  0.0124
  947MOL0     H27790   2.273  10.009  10.560  1.8444  0.4040 -1.2533
  947MOL0     H27791   2.383  10.119  10.507 -0.3846 -1.5972 -1.9033
  947MOL0     H27792   2.462  10.136  10.753 -1.8163  1.0833 -0.6485
  947MOL0     H27793   2.454   9.968  10.705  0.3512  0.4769  1.1359
  947MOL0     H27794   2.248  10.098  10.873 -2.1533 -2.1501  0.2684
  947MOL0     H27795   2.220   9.948  10.806 -1.4020  2.0535 -0.6463
  947MOL0     H27796   2.488  10.136  11.022 -0.3286  0.1969  0.6757
  947MOL0     H27797   2.646  10.013  11.251 -2.7519  0.7591 -0.3622
  947MOL0     H27798   2.673   9.838  11.212 -1.4249 -0.6027 -2.7143
  947MOL0     H27799   2.832   9.882  11.042  0.3300 -2.3225  3.2008
  947MOL0     H27800   2.774  10.057  11.036 -6.0182 -1.3864 -0.1715
  947MOL0     H27801   3.005  10.012  11.161  0.1841  0.8267  0.8290
  947MOL0     H27802   2.900   9.916  11.270  1.4831  1.3421  1.8472
  947MOL0     H27803   2.794  10.132  11.330 -0.5802 -0.0661 -0.8647
  947MOL0     H27804   2.883  10.210  11.200 -0.3443  2.2690  1.9565
  947MOL0     H27805   3.229  10.204  11.473  1.5710 -1.6535 -0.2320
  947MOL0     H27806   3.304  10.124  11.675  1.8079 -2.5357 -2.4367
  947MOL0     H27807   3.231   9.990  12.096  1.4839  1.3472  0.9258
  947MOL0     H27808   3.375   9.983  12.314 -0.6757  2.4908 -0.3324
  947MOL0     H27809   3.530   9.910  12.473 -0.4273  1.3133  1.2155
  947MOL0     H27810   3.697   9.929  12.518  0.2464  1.0317  1.4430
  947MOL0     H27811   3.505  10.136  12.414  1.1087 -0.0375 -2.2233
  947MOL0     H27812   3.575  10.144  12.574 -1.9243  0.9252 -0.8842
  947MOL0     H27813   3.810  10.141  12.463 -1.0789  0.8285  2.6317
  947MOL0     H27814   3.716  10.199  12.322 -1.7012  2.0465 -0.0095
  947MOL0     H27815   3.800  10.320  12.580 -0.9438 -1.5037  1.4477
  947MOL0     H27816   3.630  10.347  12.541 -1.6300  0.3802 -2.6464
  947MOL0     H27817   3.742  10.540  12.466  3.7773  0.8178  0.6295
  947MOL0     H27818   3.699  10.452  12.317 -1.4719  1.3630  0.0404
  947MOL0     H27819   3.970  10.433  12.460  0.9181  1.0064 -0.5192
  947MOL0     H27820   3.936  10.353  12.305 -2.2778  1.0025 -2.9444
  947MOL0     H27821   3.882  10.644  12.343  1.6801  2.1690 -1.4056
  947MOL0     H27822   3.912  10.558  12.193 -3.0856  1.5765  0.5079
  947MOL0     H27823   4.125  10.595  12.401 -1.4150 -0.2155  0.3154
  947MOL0     H27824   4.153  10.515  12.245  2.4173  2.1930 -0.7392
  947MOL0     H27825   3.714   9.914  12.059  0.7444 -2.4999  0.8219
  947MOL0     H27826   3.583   9.931  11.874  2.4400  0.8016  0.4652
  947MOL0     H27827   2.947   9.886  11.723  0.4903  0.4176  2.3520
  947MOL0     H27828   2.861   9.987  11.517 -0.4239  1.3624  0.5784
  947MOL0     H27829   1.891  10.793  10.182  0.3696 -0.1755  0.5148
  947MOL0     H27830   1.682  10.908  10.122 -2.2729  0.1762  0.1870
  947MOL0     H27831   1.483  11.299  10.380  2.1676  0.6765 -2.6641
  947MOL0     H27832   1.317  11.466  10.433  0.9536  0.4405 -0.7565
  947MOL0     H27833   1.254  11.651  10.222  2.1016  0.8760  2.0383
  947MOL0     H27834   1.196  11.646  10.388 -1.9254  3.0490  0.6972
  947MOL0     H27835   1.158  11.848  10.294  0.8561 -0.8293 -1.3110
  947MOL0     H27836   1.020  11.776  10.361  0.7994 -0.8024  0.5141
  947MOL0     H27837   0.910  11.739  10.163  1.8186 -2.8576 -1.2558
  947MOL0     H27838   1.038  11.719  10.064 -1.5671 -0.3132 -0.1413
  947MOL0     H27839   0.936  11.926   9.994  0.5931 -1.1034  0.0210
  947MOL0     H27840   0.938  11.995  10.157  1.0866 -0.1147  0.9492
  947MOL0     H27841   1.315  12.050   9.961 -1.5589  2.3540  0.0121
  947MOL0     H27842   1.087  11.325  10.096 -2.1966  1.0708  1.7492
  947MOL0     H27843   1.184  11.024  10.086  0.3855 -0.8940 -1.1903
  947MOL0     H27844   1.128  11.164   9.979  0.6280  3.7195  1.3695
  947MOL0     H27845   1.291  11.088   9.966  3.1751  0.4513  2.9913
  948MOL0     O27846   9.715   9.690   0.472  0.5642 -0.1851  0.2971
  948MOL0     C27847   9.607   9.723   0.525 -0.8289 -0.1563  0.3996
  948MOL0     O27848   9.602   9.791   0.646  0.7389  0.3418 -0.4929
  948MOL0     C27849   9.724   9.837   0.679 -0.4320 -0.1557  0.4079
  948MOL0     C27850   9.808   9.778   0.770 -0.1601  0.1055 -0.3464
  948MOL0     C27851   9.928   9.833   0.802  0.2079  0.2488  0.6540
  948MOL0     C27852   9.967   9.961   0.766  0.1260 -1.2085  0.6447
  948MOL0     O27853  10.078  10.034   0.809 -0.2371 -0.1806  0.5457
  948MOL0     C27854  10.207   9.971   0.785  0.2401  0.2897 -0.1827
  948MOL0     C27855  10.290  10.063   0.689  1.3156  1.1006 -0.1793
  948MOL0     C27856  10.291  10.207   0.724  0.6421  0.1011  0.4146
  948MOL0     C27857  10.403  10.287   0.652  0.4135 -0.2771 -0.2563
  948MOL0     C27858  10.381  10.438   0.659  0.3985  0.0238 -0.0454
  948MOL0     C27859  10.514  10.509   0.607  0.6802 -0.5174 -0.7287
  948MOL0     C27860  10.511  10.662   0.597  0.1368  0.1300 -0.0641
  948MOL0     C27861  10.544  10.733   0.726  0.1991  0.6967  0.1862
  948MOL0     N27862  10.543  10.878   0.706  0.2486  0.1165 -0.1513
  948MOL0     C27863  10.483  10.966   0.795 -0.4324  0.7322  0.6869
  948MOL0     C27864  10.515  11.085   0.755  0.0757  1.0229  0.8787
  948MOL0     C27865  10.448  11.200   0.810  0.7407 -1.7104  1.0940
  948MOL0     C27866  10.540  11.268   0.915  0.1298 -0.2555  0.6371
  948MOL0     C27867  10.530  11.199   1.060 -1.0544 -0.6650  0.7673
  948MOL0     C27868  10.588  11.291   1.168 -0.1473  0.0413  0.0640
  948MOL0     O27869  10.730  11.273   1.145 -0.0969 -0.3822  0.1065
  948MOL0     C27870  10.809  11.385   1.173  0.1679 -0.2863  0.2952
  948MOL0     C27871  10.944  11.365   1.138 -0.1718 -0.3580  0.8211
  948MOL0     C27872  11.036  11.462   1.160 -0.4537  0.2045  0.9005
  948MOL0     C27873  11.010  11.571   1.240 -0.1259  0.3264  0.5179
  948MOL0     C27874  11.121  11.669   1.259 -0.1371  0.4037 -0.8355
  948MOL0     O27875  11.092  11.766   1.356  0.1095 -0.6255 -0.9120
  948MOL0     C27876  11.189  11.854   1.395 -1.0301  0.4757  0.3772
  948MOL0     C27877  11.207  11.877   1.525  0.5612 -0.6159 -0.3236
  948MOL0     C27878  11.313  11.951   1.578  0.3508  0.5431 -0.5040
  948MOL0     C27879  11.407  12.014   1.488 -0.0293  0.4306 -0.3046
  948MOL0     O27880  11.516  12.068   1.548 -0.2028  0.4707  0.4131
  948MOL0     C27881  11.647  12.060   1.492 -0.5922  0.3221  0.1278
  948MOL0     C27882  11.728  12.159   1.562 -1.2097 -0.1203  0.1028
  948MOL0     C27883  11.869  12.154   1.527  0.4086  0.4266  1.2045
  948MOL0     C27884  11.944  12.259   1.595  0.1421 -0.1494 -0.4736
  948MOL0     C27885  12.048  12.345   1.511  0.3337  0.9838 -1.1567
  948MOL0     C27886  11.990  12.450   1.422  0.2051  0.2317  0.5573
  948MOL0     C27887  11.898  12.549   1.492  0.7397  0.0475 -0.9784
  948MOL0     C27888  11.952  12.618   1.624  1.3536 -0.1336 -0.0388
  948MOL0    Cl27889  11.829  12.730   1.698 -0.1228 -0.0697 -0.3356
  948MOL0     C27890  11.386  11.998   1.357 -0.3934 -0.1972 -0.0182
  948MOL0     C27891  11.274  11.922   1.301 -0.8490  0.2471 -0.4844
  948MOL0     O27892  11.224  11.654   1.199  0.1576 -0.8058  0.5415
  948MOL0     C27893  10.880  11.593   1.291  0.0571  0.2038 -0.1694
  948MOL0     C27894  10.780  11.504   1.249  0.0799  0.1666  0.1698
  948MOL0     N27895  10.598  11.077   0.639 -0.0375  0.4659  0.6675
  948MOL0     N27896  10.608  10.946   0.616  0.1515 -0.0600  0.0449
  948MOL0     C27897   9.882  10.023   0.675 -0.0518  0.3571  0.2384
  948MOL0     C27898   9.763   9.956   0.630  0.1585 -0.7424 -0.2076
  948MOL0     C27899   9.485   9.676   0.460  0.7786 -0.5274 -0.0538
  948MOL0     C27900   9.357   9.710   0.523 -0.5646 -0.3956 -0.5838
  948MOL0     C27901   9.233   9.672   0.472  0.1881  0.0187 -0.4442
  948MOL0     C27902   9.234   9.591   0.361 -0.8163  0.5731 -0.1148
  948MOL0     O27903   9.120   9.554   0.290 -0.2247 -0.5651  0.2830
  948MOL0     C27904   8.998   9.622   0.321  0.3446  1.4631  1.2098
  948MOL0     C27905   8.898   9.579   0.213 -0.8820 -0.2048  0.9228
  948MOL0     C27906   8.888   9.426   0.195  1.3278 -0.2380 -0.3964
  948MOL0     C27907   8.776   9.375   0.094  0.5926  0.1161 -0.2561
  948MOL0     C27908   8.645   9.364   0.156 -0.7197 -0.1697  0.2333
  948MOL0     C27909   8.528   9.360   0.187 -0.4463  0.4929 -0.5832
  948MOL0     C27910   9.347   9.554   0.307 -0.1534 -1.1105  0.3648
  948MOL0     C27911   9.476   9.593   0.350  0.5253  0.8037  0.6544
  948MOL0     C27912   9.585   9.566   0.252  0.6678  0.5293 -0.9937
  948MOL0     H27913   9.774   9.678   0.797  1.5548  0.1110  2.0718
  948MOL0     H27914   9.981   9.780   0.880  1.4527 -2.2053 -1.6867
  948MOL0     H27915  10.251   9.967   0.885  1.8374 -1.6828 -0.9067
  948MOL0     H27916  10.204   9.868   0.749  0.0185  0.2032  0.0758
  948MOL0     H27917  10.254  10.041   0.588 -0.1865 -0.3350  0.6110
  948MOL0     H27918  10.394  10.031   0.682  0.7426 -0.6202 -1.2539
  948MOL0     H27919  10.302  10.210   0.832 -0.2023  1.3615  0.4838
  948MOL0     H27920  10.195  10.259   0.711 -0.6472 -1.8699  1.4305
  948MOL0     H27921  10.503  10.254   0.684  0.8544  1.9199  0.7944
  948MOL0     H27922  10.401  10.254   0.548  3.6893  1.1131 -0.9004
  948MOL0     H27923  10.303  10.463   0.587  0.2628 -1.0337 -0.2882
  948MOL0     H27924  10.337  10.470   0.753  0.2096  1.2716 -0.5386
  948MOL0     H27925  10.589  10.481   0.681  0.7848  1.0952 -0.1806
  948MOL0     H27926  10.532  10.467   0.508  1.4036 -0.7651 -0.4943
  948MOL0     H27927  10.415  10.697   0.559 -0.6200 -3.5780 -2.0439
  948MOL0     H27928  10.591  10.680   0.524 -0.3565 -3.1132 -1.6115
  948MOL0     H27929  10.476  10.695   0.803  2.5052  2.0888  3.1165
  948MOL0     H27930  10.647  10.718   0.760 -0.3810  0.7549  2.1198
  948MOL0     H27931  10.406  10.941   0.868 -1.9607 -0.6643 -1.2787
  948MOL0     H27932  10.432  11.270   0.728 -1.9754  1.1192  3.7935
  948MOL0     H27933  10.349  11.181   0.853 -0.9358  0.6081 -1.4330
  948MOL0     H27934  10.643  11.261   0.878  0.1057  0.1805  0.4839
  948MOL0     H27935  10.509  11.373   0.910  0.0084 -0.3345 -3.2882
  948MOL0     H27936  10.588  11.107   1.048 -1.6158 -1.0254  0.7655
  948MOL0     H27937  10.428  11.180   1.096 -1.4762 -0.7636 -0.4242
  948MOL0     H27938  10.575  11.250   1.269 -0.9601 -0.8491 -0.3842
  948MOL0     H27939  10.557  11.395   1.159 -1.4655 -0.3643 -0.3244
  948MOL0     H27940  10.970  11.282   1.073 -1.7710 -1.1249  1.1127
  948MOL0     H27941  11.132  11.445   1.112 -0.3673 -2.3798  1.8355
  948MOL0     H27942  11.124  11.854   1.592  0.3277  3.6956  1.2108
  948MOL0     H27943  11.322  11.969   1.685  1.1523 -0.3639 -0.3996
  948MOL0     H27944  11.692  11.961   1.480  2.0743  1.5917 -1.2758
  948MOL0     H27945  11.644  12.096   1.389  1.7983 -1.1545 -0.5317
  948MOL0     H27946  11.693  12.258   1.531 -1.3354 -0.8677 -2.3692
  948MOL0     H27947  11.713  12.137   1.668 -1.8059  0.0411  0.0552
  948MOL0     H27948  11.913  12.055   1.545 -0.3242  0.0693  1.0904
  948MOL0     H27949  11.878  12.171   1.420 -1.1489 -0.6195  0.8665
  948MOL0     H27950  11.992  12.225   1.688  1.1529  0.9242 -0.5917
  948MOL0     H27951  11.874  12.333   1.635 -0.7235 -0.6772 -0.9624
  948MOL0     H27952  12.113  12.274   1.459  0.8409  0.3847  0.2327
  948MOL0     H27953  12.110  12.405   1.578 -0.5169 -0.7368  1.3538
  948MOL0     H27954  12.067  12.507   1.369 -0.5089 -0.5867 -1.4662
  948MOL0     H27955  11.941  12.385   1.349  1.7463 -0.4444  0.0654
  948MOL0     H27956  11.807  12.490   1.506 -0.6493  2.4440  0.8525
  948MOL0     H27957  11.877  12.622   1.412  2.0297 -0.8094 -2.1548
  948MOL0     H27958  11.990  12.547   1.697  1.2795  1.3871  1.5489
  948MOL0     H27959  12.033  12.679   1.582 -0.7111  1.3461 -2.1499
  948MOL0     H27960  11.456  12.028   1.280  0.5502 -2.5945 -0.1751
  948MOL0     H27961  11.250  11.912   1.195 -1.8363 -0.4035 -0.2105
  948MOL0     H27962  10.849  11.673   1.358 -0.8164 -2.4470  2.8574
  948MOL0     H27963  10.680  11.508   1.291 -0.6964 -0.8809 -1.4723
  948MOL0     H27964   9.906  10.123   0.639  2.7172  0.2076  1.3753
  948MOL0     H27965   9.704  10.012   0.559  1.0557  0.7251  0.1447
  948MOL0     H27966   9.360   9.780   0.606 -2.2158  0.4188 -1.1635
  948MOL0     H27967   9.146   9.719   0.515  1.8221 -0.3422  3.7488
  948MOL0     H27968   9.013   9.730   0.324 -3.3683  2.0820  1.6428
  948MOL0     H27969   8.961   9.592   0.420  0.4273  1.1268  1.1385
  948MOL0     H27970   8.943   9.622   0.123 -0.7288 -2.5621 -0.2149
  948MOL0     H27971   8.799   9.618   0.240 -2.1878 -1.8342 -1.1391
  948MOL0     H27972   8.864   9.392   0.296 -1.7647  0.3340 -0.8345
  948MOL0     H27973   8.988   9.396   0.161  1.3733 -0.3365 -0.1790
  948MOL0     H27974   8.763   9.447   0.013 -0.8531  2.8512  2.2270
  948MOL0     H27975   8.802   9.279   0.048 -0.7382  0.8464 -2.7069
  948MOL0     H27976   8.426   9.377   0.212 -0.4307  2.5909 -1.6717
  948MOL0     H27977   9.341   9.495   0.216 -0.1061 -1.8284  0.8289
  948MOL0     H27978   9.656   9.498   0.300  0.5830  0.7616 -0.5277
  948MOL0     H27979   9.543   9.520   0.162 -1.1325  0.4469 -0.1579
  948MOL0     H27980   9.649   9.652   0.232  0.0841  0.9152 -1.2106
  949MOL0     O27981   9.762   4.576   0.775  0.0589 -0.1858  0.5796
  949MOL0     C27982   9.712   4.510   0.679  0.5774  0.1806 -0.6808
  949MOL0     O27983   9.724   4.544   0.543  0.4182  0.8741  0.4748
  949MOL0     C27984   9.777   4.664   0.487 -0.4492 -0.1299 -0.5991
  949MOL0     C27985   9.821   4.650   0.357  0.3761 -0.2899  0.5049
  949MOL0     C27986   9.881   4.754   0.297 -0.5139  0.1945 -0.1983
  949MOL0     C27987   9.908   4.872   0.363 -1.0973  0.5266 -0.1702
  949MOL0     O27988   9.979   4.967   0.300  0.4363 -0.1937  0.2888
  949MOL0     C27989  10.117   4.944   0.267 -0.2199 -0.4318 -0.7406
  949MOL0     C27990  10.197   5.073   0.280  0.7569 -0.2678  0.5329
  949MOL0     C27991  10.112   5.183   0.222 -0.0241  0.1029  0.0821
  949MOL0     C27992  10.189   5.319   0.191 -0.2958 -1.1257  0.3555
  949MOL0     C27993  10.117   5.403   0.087  0.4662  0.6247  1.2027
  949MOL0     C27994  10.120   5.348  -0.059 -0.7522 -0.6066  0.3591
  949MOL0     C27995  10.261   5.305  -0.104  0.5220 -0.0869 -0.3064
  949MOL0     C27996  10.357   5.422  -0.106 -0.4732  0.3223 -0.0892
  949MOL0     N27997  10.487   5.369  -0.161 -0.0444 -0.4183 -0.4007
  949MOL0     C27998  10.605   5.426  -0.170 -0.7588  0.6758 -0.4803
  949MOL0     C27999  10.692   5.338  -0.222  0.6631 -0.4923  1.1207
  949MOL0     C28000  10.842   5.370  -0.245 -0.7726 -0.4832  0.1791
  949MOL0     C28001  10.874   5.406  -0.390 -0.5265 -0.2668 -0.3675
  949MOL0     C28002  11.030   5.430  -0.393 -0.3412  0.2468 -0.1437
  949MOL0     C28003  11.066   5.468  -0.535 -0.0555  0.0402 -0.0371
  949MOL0     O28004  11.198   5.417  -0.558 -0.4562  0.5017 -0.0124
  949MOL0     C28005  11.279   5.512  -0.616  0.6507  0.0885  0.4823
  949MOL0     C28006  11.232   5.607  -0.712 -0.0618 -0.6970 -0.0904
  949MOL0     C28007  11.315   5.712  -0.751 -0.2018 -0.1389 -0.4714
  949MOL0     C28008  11.453   5.720  -0.721  0.0359 -1.1378 -0.4725
  949MOL0     C28009  11.539   5.827  -0.777  0.3785 -0.5187 -0.4933
  949MOL0     O28010  11.478   5.913  -0.861  0.6954 -0.3647  0.6303
  949MOL0     C28011  11.538   6.015  -0.924  0.4811  0.1495 -0.4528
  949MOL0     C28012  11.449   6.104  -0.987 -0.4952  0.0317 -0.0010
  949MOL0     C28013  11.494   6.208  -1.071 -0.3886  0.2390  0.1925
  949MOL0     C28014  11.634   6.219  -1.100 -0.8162 -0.1611 -0.2918
  949MOL0     O28015  11.697   6.315  -1.172  0.5467 -0.3013  0.8520
  949MOL0     C28016  11.642   6.449  -1.141 -0.5155 -0.1770  0.0415
  949MOL0     C28017  11.709   6.561  -1.224  0.5515  0.0518 -0.7004
  949MOL0     C28018  11.640   6.588  -1.364  0.1356  0.7565 -0.3073
  949MOL0     C28019  11.640   6.454  -1.431  0.1524  0.5953  0.1390
  949MOL0     C28020  11.632   6.472  -1.574  0.4903  0.6999 -0.4938
  949MOL0     C28021  11.599   6.335  -1.645 -0.8239 -0.2156  1.1338
  949MOL0     C28022  11.624   6.338  -1.794  0.0494 -1.3837  0.0188
  949MOL0     C28023  11.766   6.359  -1.841 -0.2881 -0.0246  0.7752
  949MOL0    Cl28024  11.888   6.234  -1.806 -0.5052 -0.5765 -0.0599
  949MOL0     C28025  11.718   6.140  -1.025 -0.4991 -0.0164 -0.1215
  949MOL0     C28026  11.675   6.037  -0.941  0.2053  1.3771  0.5977
  949MOL0     O28027  11.660   5.812  -0.767 -0.6552  0.1457 -0.5216
  949MOL0     C28028  11.498   5.621  -0.636 -0.3105  0.7081  0.3431
  949MOL0     C28029  11.413   5.512  -0.584 -0.5862  0.5335  0.6170
  949MOL0     N28030  10.622   5.230  -0.267  0.0156  0.1047  0.8707
  949MOL0     N28031  10.503   5.247  -0.228  0.4895  0.1765  1.2042
  949MOL0     C28032   9.870   4.889   0.490  0.2524 -0.0669  0.2829
  949MOL0     C28033   9.801   4.784   0.558 -0.0032  0.3032 -0.6077
  949MOL0     C28034   9.618   4.392   0.703  0.2429 -0.1810  0.3849
  949MOL0     C28035   9.536   4.364   0.590 -0.2092  0.1162  0.1153
  949MOL0     C28036   9.434   4.268   0.600 -1.3154  0.4415  0.5559
  949MOL0     C28037   9.415   4.198   0.719  0.4394  0.5930 -0.1068
  949MOL0     O28038   9.327   4.100   0.747  0.0328 -0.4058 -0.2111
  949MOL0     C28039   9.210   4.079   0.673  0.4988  0.1811  0.5186
  949MOL0     C28040   9.113   4.201   0.658  0.2905 -0.5731 -0.3876
  949MOL0     C28041   9.084   4.261   0.804  0.2486  0.3465  0.1513
  949MOL0     C28042   8.990   4.390   0.790 -0.0551  0.4693 -0.0762
  949MOL0     C28043   8.845   4.351   0.808 -0.6129  0.3076 -0.1359
  949MOL0     C28044   8.739   4.294   0.821 -1.0200 -0.1255  0.9188
  949MOL0     C28045   9.508   4.218   0.825  0.0458 -1.3859  0.0723
  949MOL0     C28046   9.607   4.320   0.818 -0.2478 -0.3974 -0.8491
  949MOL0     C28047   9.687   4.339   0.937 -0.0446 -0.1135  0.3296
  949MOL0     H28048   9.803   4.552   0.314  1.6262 -0.9107  1.3160
  949MOL0     H28049   9.920   4.740   0.197  0.4749 -0.9969  0.3192
  949MOL0     H28050  10.158   4.874   0.340 -2.0554 -0.5327  0.2430
  949MOL0     H28051  10.122   4.905   0.165 -1.5103 -1.2756 -0.4995
  949MOL0     H28052  10.285   5.062   0.216 -2.2395 -1.8783 -3.7565
  949MOL0     H28053  10.216   5.094   0.385 -0.4027  0.3928  0.6256
  949MOL0     H28054  10.028   5.207   0.288 -0.7521  1.2090 -1.1951
  949MOL0     H28055  10.071   5.137   0.131  3.5763 -1.3000 -1.0144
  949MOL0     H28056  10.199   5.380   0.282 -0.2616  0.0079 -0.3870
  949MOL0     H28057  10.294   5.307   0.163 -0.4500 -2.5945  0.3220
  949MOL0     H28058  10.016   5.427   0.121  0.1435  0.6339  0.2554
  949MOL0     H28059  10.173   5.497   0.088 -1.0778  1.6812 -1.5097
  949MOL0     H28060  10.053   5.262  -0.061 -2.6032  0.6653  2.7956
  949MOL0     H28061  10.078   5.427  -0.122 -2.1986 -2.0119 -0.4922
  949MOL0     H28062  10.251   5.266  -0.206 -1.1948 -1.3742  0.3132
  949MOL0     H28063  10.304   5.234  -0.033  2.3738  2.7448  1.5970
  949MOL0     H28064  10.329   5.505  -0.172  0.9372 -0.5684 -1.9059
  949MOL0     H28065  10.371   5.468  -0.008 -2.0904  0.2657  0.2003
  949MOL0     H28066  10.627   5.531  -0.149 -1.2246  0.5810  0.4929
  949MOL0     H28067  10.872   5.449  -0.176 -0.2622 -1.6774  1.3633
  949MOL0     H28068  10.897   5.278  -0.227 -0.9920 -0.8838 -1.0829
  949MOL0     H28069  10.844   5.315  -0.444 -3.1814 -1.8762  3.4043
  949MOL0     H28070  10.814   5.492  -0.422 -2.4883 -2.3934 -2.8741
  949MOL0     H28071  11.083   5.340  -0.360 -1.2392 -1.1806 -2.3666
  949MOL0     H28072  11.050   5.514  -0.326 -1.1108  1.1129 -0.9649
  949MOL0     H28073  11.056   5.575  -0.555  0.1106  0.5040  2.0801
  949MOL0     H28074  10.998   5.423  -0.607  1.1266 -0.0436 -1.1377
  949MOL0     H28075  11.134   5.595  -0.757  1.1215  0.8146 -3.3739
  949MOL0     H28076  11.276   5.784  -0.822 -0.7234  0.1742  0.1227
  949MOL0     H28077  11.346   6.098  -0.953  0.2982 -0.3352  2.5742
  949MOL0     H28078  11.423   6.273  -1.121  1.1972  0.3276 -2.1430
  949MOL0     H28079  11.535   6.448  -1.165 -0.9927 -0.6389  1.9742
  949MOL0     H28080  11.659   6.472  -1.035  2.6083  1.3368 -0.6889
  949MOL0     H28081  11.711   6.651  -1.161  2.2842 -2.4618  3.2114
  949MOL0     H28082  11.813   6.534  -1.244  0.2525 -1.4227 -0.3979
  949MOL0     H28083  11.536   6.621  -1.366 -0.3994 -0.7805 -2.7709
  949MOL0     H28084  11.693   6.664  -1.423 -0.0944  0.7443 -0.5321
  949MOL0     H28085  11.564   6.380  -1.405  0.3737  0.2813 -0.0954
  949MOL0     H28086  11.740   6.412  -1.417  0.1537  0.3735 -0.5373
  949MOL0     H28087  11.728   6.517  -1.602  0.7403  0.4864  0.0045
  949MOL0     H28088  11.555   6.547  -1.596  0.0336  0.0927 -1.0029
  949MOL0     H28089  11.683   6.275  -1.607 -0.2985  0.8095  1.6309
  949MOL0     H28090  11.506   6.294  -1.604 -0.1894 -0.6700  2.1633
  949MOL0     H28091  11.558   6.411  -1.842  0.7467  0.1467  1.3029
  949MOL0     H28092  11.593   6.238  -1.826 -0.6910 -0.5324 -2.1253
  949MOL0     H28093  11.774   6.379  -1.948  0.9166 -0.2892  0.8008
  949MOL0     H28094  11.807   6.451  -1.799  1.3448 -0.9113  1.2218
  949MOL0     H28095  11.824   6.153  -1.040 -0.4024 -2.4059 -2.1249
  949MOL0     H28096  11.760   5.987  -0.896  0.6192  0.4576 -1.1200
  949MOL0     H28097  11.605   5.611  -0.620  0.7093  0.7221 -4.8341
  949MOL0     H28098  11.449   5.439  -0.513 -0.1153  0.1547  0.0064
  949MOL0     H28099   9.897   4.986   0.530  0.4188  1.0463 -2.3431
  949MOL0     H28100   9.759   4.803   0.656 -0.8796  1.5701 -1.1888
  949MOL0     H28101   9.537   4.421   0.498 -2.3583  2.6466  1.4993
  949MOL0     H28102   9.370   4.237   0.517  0.2787  0.1653 -0.6328
  949MOL0     H28103   9.155   3.992   0.710 -0.2925 -0.1949 -1.3761
  949MOL0     H28104   9.242   4.037   0.576 -1.3327 -1.5586  0.5944
  949MOL0     H28105   9.020   4.170   0.610  0.0887 -1.4754  0.5511
  949MOL0     H28106   9.166   4.265   0.587  1.1103 -2.7241 -1.8482
  949MOL0     H28107   9.182   4.292   0.839  0.8626 -1.6816  0.3785
  949MOL0     H28108   9.042   4.193   0.879 -0.3141  1.2010  0.6292
  949MOL0     H28109   9.017   4.452   0.876  1.3242 -0.4929  0.2225
  949MOL0     H28110   9.005   4.454   0.702  0.0054 -0.3576 -0.6779
  949MOL0     H28111   8.642   4.249   0.830  0.3210 -3.3970  0.4353
  949MOL0     H28112   9.488   4.177   0.923 -0.0174 -0.6870  0.3517
  949MOL0     H28113   9.780   4.397   0.938 -0.3483  0.3838  0.1233
  949MOL0     H28114   9.618   4.376   1.014 -0.5135 -1.1580  0.4275
  949MOL0     H28115   9.727   4.240   0.962  0.1130  0.3243  1.9260
  950MOL0     O28116   4.169   7.614  11.015  0.1993  0.1183  0.5714
  950MOL0     C28117   4.213   7.557  11.119  0.5292  0.3216  0.1892
  950MOL0     O28118   4.320   7.467  11.121  0.4841 -0.0863  0.3183
  950MOL0     C28119   4.385   7.418  11.005  0.2028 -0.0433 -1.1566
  950MOL0     C28120   4.371   7.457  10.869  0.4063  0.6212  0.5781
  950MOL0     C28121   4.448   7.398  10.768  0.0081 -0.1334  0.5485
  950MOL0     C28122   4.554   7.312  10.801  0.9953 -0.0796  0.0012
  950MOL0     O28123   4.634   7.269  10.696 -0.2468 -0.5742  0.4705
  950MOL0     C28124   4.765   7.215  10.724  0.3197 -0.5884  0.1021
  950MOL0     C28125   4.810   7.123  10.613  0.3959 -0.2851  0.4867
  950MOL0     C28126   4.945   7.038  10.636 -0.6096 -0.0247 -0.0508
  950MOL0     C28127   4.998   6.980  10.498 -0.3101  0.0349  0.4188
  950MOL0     C28128   5.069   7.076  10.409  0.0956 -0.0853  0.2178
  950MOL0     C28129   5.154   7.010  10.286 -0.3956  1.1648 -0.1667
  950MOL0     C28130   5.308   6.983  10.338  0.6302  0.3173 -0.1241
  950MOL0     C28131   5.410   6.996  10.225 -0.4187  0.3763 -0.1671
  950MOL0     N28132   5.432   6.863  10.165 -0.7713  0.2782  0.2425
  950MOL0     C28133   5.344   6.785  10.095  0.1435 -0.1376 -0.1291
  950MOL0     C28134   5.408   6.675  10.075  0.6001  0.2005 -0.3131
  950MOL0     C28135   5.354   6.555  10.007  0.0373  0.4873 -0.3883
  950MOL0     C28136   5.456   6.476   9.932  0.6067  0.0304  0.5307
  950MOL0     C28137   5.387   6.351   9.864 -0.7037 -0.4325 -0.8952
  950MOL0     C28138   5.496   6.271   9.801 -0.7969 -0.3390  0.4264
  950MOL0     O28139   5.493   6.141   9.849  0.3102  0.2049  0.2639
  950MOL0     C28140   5.574   6.050   9.785  0.7525  0.2089 -0.0624
  950MOL0     C28141   5.625   6.066   9.655 -0.7200 -0.1666 -0.3102
  950MOL0     C28142   5.700   5.974   9.594 -0.3578  0.4008 -0.0944
  950MOL0     C28143   5.742   5.861   9.664  0.2537  0.5104  0.0129
  950MOL0     C28144   5.829   5.759   9.601  0.4857 -0.1137  0.3748
  950MOL0     O28145   5.878   5.800   9.483 -0.5321  0.1614  0.4400
  950MOL0     C28146   5.967   5.720   9.412  1.2715  0.7293  0.2116
  950MOL0     C28147   5.931   5.667   9.288  0.5925 -0.2608 -0.5312
  950MOL0     C28148   6.018   5.587   9.214  0.1606 -0.1207  0.1718
  950MOL0     C28149   6.147   5.571   9.251  1.1572  0.3418 -0.7783
  950MOL0     O28150   6.223   5.501   9.162  0.1856 -0.3838  0.6226
  950MOL0     C28151   6.356   5.472   9.199  0.0612 -0.0757 -0.8278
  950MOL0     C28152   6.420   5.376   9.103  0.3788 -0.2957  0.5419
  950MOL0     C28153   6.334   5.260   9.041 -0.1447  0.4223 -0.4563
  950MOL0     C28154   6.399   5.125   9.073  0.0477 -0.6075 -0.2046
  950MOL0     C28155   6.369   5.076   9.214 -0.4658  0.0749  0.2021
  950MOL0     C28156   6.413   4.926   9.225  0.7371  0.0453 -0.3967
  950MOL0     C28157   6.406   4.885   9.369  0.5436 -0.3208 -0.0808
  950MOL0     C28158   6.403   4.743   9.406 -0.0657 -0.5080  0.2072
  950MOL0    Cl28159   6.560   4.679   9.338 -0.1527  0.0081 -0.6916
  950MOL0     C28160   6.189   5.617   9.382  0.1746  0.6695  0.6407
  950MOL0     C28161   6.092   5.680   9.467  0.2341  0.0185  0.2536
  950MOL0     O28162   5.837   5.649   9.648 -0.2373  0.3112  0.1483
  950MOL0     C28163   5.691   5.843   9.794  0.2351  0.4880 -0.2687
  950MOL0     C28164   5.600   5.936   9.852  0.0402 -0.6692  0.0113
  950MOL0     N28165   5.535   6.684  10.122  1.0649  0.1676  0.3686
  950MOL0     N28166   5.542   6.792  10.188 -1.1228  0.4756  0.7599
  950MOL0     C28167   4.573   7.287  10.937 -0.0029  0.4503  0.4211
  950MOL0     C28168   4.490   7.338  11.038 -0.1567 -0.2972 -0.0574
  950MOL0     C28169   4.160   7.589  11.251  0.2591  0.3181 -0.3223
  950MOL0     C28170   4.239   7.546  11.362 -0.1542  0.5157  0.1280
  950MOL0     C28171   4.196   7.578  11.493 -0.9870  0.3690  0.2858
  950MOL0     C28172   4.070   7.635  11.514  0.5289 -0.1940  0.5583
  950MOL0     O28173   4.011   7.642  11.634 -0.1967  0.7445 -0.3188
  950MOL0     C28174   4.085   7.664  11.757  0.9777 -0.3909  0.1779
  950MOL0     C28175   4.166   7.786  11.755  0.4859 -0.2628  0.4685
  950MOL0     C28176   4.227   7.803  11.889 -0.4869 -0.5743  0.4910
  950MOL0     C28177   4.151   7.890  11.989 -0.1802  0.1385  0.4217
  950MOL0     C28178   4.013   7.843  12.031  0.5150  0.3593  0.0681
  950MOL0     C28179   3.906   7.807  12.073 -0.7089 -0.7733 -0.3482
  950MOL0     C28180   3.998   7.676  11.407  0.4930  0.7622 -0.4798
  950MOL0     C28181   4.035   7.654  11.270 -0.4866 -0.2748 -0.2545
  950MOL0     C28182   3.945   7.712  11.178  1.3210 -0.4114  0.1264
  950MOL0     H28183   4.308   7.540  10.840  0.8129  1.3514  1.7223
  950MOL0     H28184   4.437   7.432  10.666  0.6009  0.5350  0.7032
  950MOL0     H28185   4.829   7.303  10.737 -2.7824  2.0273 -1.0712
  950MOL0     H28186   4.780   7.157  10.815  0.5477 -1.1530 -0.2896
  950MOL0     H28187   4.809   7.181  10.521  1.5214 -1.2366 -0.1643
  950MOL0     H28188   4.737   7.042  10.606  2.4011 -2.4056  2.1746
  950MOL0     H28189   4.933   6.953  10.703  0.5067  0.4461  0.7907
  950MOL0     H28190   5.018   7.096  10.693 -1.8984  1.2396  0.3727
  950MOL0     H28191   5.075   6.905  10.520 -0.4751  0.1218  1.3066
  950MOL0     H28192   4.925   6.921  10.442 -0.0677  0.2620 -0.1422
  950MOL0     H28193   4.985   7.132  10.367  0.6399 -0.3329 -1.2722
  950MOL0     H28194   5.136   7.143  10.462 -0.3593  2.0582 -1.7440
  950MOL0     H28195   5.115   6.919  10.242 -1.2728  0.8812  1.1391
  950MOL0     H28196   5.156   7.087  10.209  1.7974  2.3002  0.9094
  950MOL0     H28197   5.309   6.884  10.385  2.5423  1.3241  2.1327
  950MOL0     H28198   5.333   7.055  10.416  1.3386 -0.7235  0.6366
  950MOL0     H28199   5.374   7.072  10.156 -2.6799  1.2350  1.8249
  950MOL0     H28200   5.503   7.031  10.271 -1.7033  3.5570  0.2708
  950MOL0     H28201   5.244   6.813  10.062 -0.2343 -0.9313  0.3085
  950MOL0     H28202   5.299   6.504  10.086  2.9367  1.1908  2.2707
  950MOL0     H28203   5.285   6.593   9.931  0.8252  1.0325 -0.8554
  950MOL0     H28204   5.513   6.534   9.858  0.8628 -0.5053  0.3035
  950MOL0     H28205   5.534   6.450  10.004 -1.3270  2.4532  3.8143
  950MOL0     H28206   5.307   6.383   9.796  1.6928  4.5854 -1.8782
  950MOL0     H28207   5.348   6.287   9.943  0.6451  0.4190  0.5377
  950MOL0     H28208   5.596   6.306   9.826 -1.4780  0.4783  2.1896
  950MOL0     H28209   5.473   6.258   9.695  3.2312 -1.1097 -0.5272
  950MOL0     H28210   5.595   6.148   9.592  1.7882  1.1999  0.1495
  950MOL0     H28211   5.712   6.008   9.492 -3.0370  2.9009  0.2892
  950MOL0     H28212   5.831   5.689   9.252  0.5172  1.4894  0.6206
  950MOL0     H28213   5.982   5.567   9.114  2.3507  0.4576 -0.7978
  950MOL0     H28214   6.417   5.563   9.193  1.9132 -1.3015 -1.3166
  950MOL0     H28215   6.358   5.439   9.303  0.3064  2.6695  0.1284
  950MOL0     H28216   6.429   5.425   9.005 -2.5465 -1.5429 -0.4521
  950MOL0     H28217   6.517   5.346   9.145  0.5746  0.1942  0.4425
  950MOL0     H28218   6.237   5.268   9.091 -1.3304 -2.9131 -1.9235
  950MOL0     H28219   6.318   5.275   8.934  2.1986 -0.5272 -1.0153
  950MOL0     H28220   6.506   5.141   9.060  0.0684  0.7677  1.4377
  950MOL0     H28221   6.372   5.041   9.007  1.2672 -0.6651 -0.6552
  950MOL0     H28222   6.261   5.091   9.222 -0.3054  1.8917 -0.4697
  950MOL0     H28223   6.432   5.131   9.285  1.9773 -1.4425 -0.6763
  950MOL0     H28224   6.354   4.868   9.153 -0.3927 -0.5078  0.9333
  950MOL0     H28225   6.516   4.910   9.194  0.9900 -2.1480  1.3261
  950MOL0     H28226   6.313   4.927   9.409  1.3304 -0.7301  2.3571
  950MOL0     H28227   6.476   4.940   9.432 -1.0074 -0.0656  1.5258
  950MOL0     H28228   6.391   4.738   9.515  0.6956 -0.5892  0.2890
  950MOL0     H28229   6.320   4.686   9.362 -0.7545 -0.8483  1.8699
  950MOL0     H28230   6.297   5.613   9.396  0.2617 -0.8225 -0.2974
  950MOL0     H28231   6.127   5.719   9.562 -0.4738  1.5453 -0.0835
  950MOL0     H28232   5.732   5.759   9.848  0.2238  2.1854  2.6365
  950MOL0     H28233   5.554   5.933   9.950  3.1878  2.5183  1.8109
  950MOL0     H28234   4.655   7.227  10.977  0.6929  1.7443  0.9874
  950MOL0     H28235   4.511   7.302  11.138  1.6129  1.2623  0.2079
  950MOL0     H28236   4.331   7.490  11.355  1.1161  2.7278 -2.1175
  950MOL0     H28237   4.259   7.541  11.573 -1.9150 -1.7780  0.1280
  950MOL0     H28238   4.153   7.580  11.775  1.5131  0.4827  2.6172
  950MOL0     H28239   4.007   7.670  11.833  0.9351 -0.7393  0.1656
  950MOL0     H28240   4.107   7.875  11.730  0.4091  0.6832  3.6350
  950MOL0     H28241   4.247   7.783  11.682  0.7894  1.4397  0.7025
  950MOL0     H28242   4.313   7.867  11.867 -1.6738  0.0013 -3.2953
  950MOL0     H28243   4.266   7.711  11.933  1.3601  0.2566  0.6535
  950MOL0     H28244   4.217   7.904  12.075  0.0902  0.5735  0.1450
  950MOL0     H28245   4.144   7.991  11.948  0.2952 -0.5592 -1.5032
  950MOL0     H28246   3.815   7.771  12.117 -0.3926 -1.2705 -0.0944
  950MOL0     H28247   3.898   7.712  11.431 -0.6010 -1.3637 -1.6761
  950MOL0     H28248   3.989   7.792  11.118  1.2928 -0.1769  0.4155
  950MOL0     H28249   3.913   7.633  11.108 -0.3447  1.0069 -0.7990
  950MOL0     H28250   3.853   7.747  11.225  2.3661  1.5575  0.8094
  951MOL0     O28251   6.199   2.407   3.237  0.8994  0.5910  0.1122
  951MOL0     C28252   6.201   2.380   3.355  0.3856  0.5341 -0.4001
  951MOL0     O28253   6.271   2.275   3.404 -0.1304 -0.6231 -0.3093
  951MOL0     C28254   6.309   2.171   3.313  0.1530  0.0432 -0.7224
  951MOL0     C28255   6.409   2.192   3.205  0.7409 -0.8953 -0.0127
  951MOL0     C28256   6.450   2.085   3.130 -0.5735  1.0571 -0.4670
  951MOL0     C28257   6.402   1.953   3.157  0.0720  0.2909  0.7379
  951MOL0     O28258   6.422   1.844   3.082 -0.3555 -0.7296  0.3707
  951MOL0     C28259   6.547   1.836   3.016  0.4462 -0.0921  0.0841
  951MOL0     C28260   6.652   1.790   3.122  0.4465 -0.6688  0.1583
  951MOL0     C28261   6.785   1.746   3.059 -0.8892  0.1247  0.8949
  951MOL0     C28262   6.775   1.633   2.956  0.1713 -0.4184 -0.4248
  951MOL0     C28263   6.907   1.564   2.910 -0.4015 -0.5808  0.2577
  951MOL0     C28264   6.994   1.509   3.028 -0.9624 -0.2219 -0.1651
  951MOL0     C28265   7.099   1.398   2.985 -0.8307  0.5983  0.2943
  951MOL0     C28266   7.196   1.472   2.894 -0.3306  0.1389  1.5174
  951MOL0     N28267   7.187   1.415   2.760  0.0209  0.7262 -0.5300
  951MOL0     C28268   7.251   1.296   2.729 -0.5087 -0.6378  0.0419
  951MOL0     C28269   7.191   1.264   2.610 -1.6434 -0.4877  0.0816
  951MOL0     C28270   7.234   1.143   2.532  0.2156 -0.2252  0.9759
  951MOL0     C28271   7.349   1.169   2.429  0.6548  0.5917  0.7067
  951MOL0     C28272   7.476   1.204   2.515  1.1533  0.2500 -0.9735
  951MOL0     C28273   7.598   1.223   2.439  0.1404  0.9359 -0.0978
  951MOL0     O28274   7.677   1.322   2.505  0.2038 -0.4529  0.7598
  951MOL0     C28275   7.797   1.353   2.457  0.4860  0.1006  0.2421
  951MOL0     C28276   7.843   1.307   2.331  0.2144  0.1841  0.3560
  951MOL0     C28277   7.965   1.368   2.287  0.2689  1.0184 -0.0999
  951MOL0     C28278   8.049   1.452   2.362  0.0732  0.0943  0.7143
  951MOL0     C28279   8.175   1.493   2.301  0.5264 -0.0392  0.4571
  951MOL0     O28280   8.234   1.593   2.367  0.0363 -0.6749 -0.6666
  951MOL0     C28281   8.347   1.654   2.314 -0.2661  0.3018 -0.3248
  951MOL0     C28282   8.479   1.612   2.349 -0.0101 -1.1126 -0.7286
  951MOL0     C28283   8.598   1.683   2.300 -0.9299  0.0839 -0.0916
  951MOL0     C28284   8.584   1.789   2.210  0.0164  0.7217  0.0262
  951MOL0     O28285   8.693   1.853   2.162 -0.0816  0.2837  0.4653
  951MOL0     C28286   8.678   1.921   2.039  0.3924  0.1126 -0.1462
  951MOL0     C28287   8.817   1.960   1.980  0.0479 -0.4563 -1.2189
  951MOL0     C28288   8.886   2.051   2.070  0.5723  0.2020 -0.3900
  951MOL0     C28289   9.033   2.048   2.055 -0.8138  1.0618  0.3232
  951MOL0     C28290   9.075   2.055   1.917  0.2940 -0.1049 -0.5858
  951MOL0     C28291   9.227   2.065   1.918  0.7309  0.8966  0.5669
  951MOL0     C28292   9.279   2.050   1.771  0.0420 -0.1551 -1.1959
  951MOL0     C28293   9.433   2.056   1.794  0.1189 -0.5285 -1.1359
  951MOL0    Cl28294   9.499   1.911   1.878  0.3190 -0.3922 -0.4916
  951MOL0     C28295   8.452   1.818   2.172  0.1047 -0.0673  0.0016
  951MOL0     C28296   8.332   1.761   2.225 -0.9768 -0.3349 -0.0000
  951MOL0     O28297   8.214   1.443   2.196 -1.8189 -0.5034  0.6427
  951MOL0     C28298   8.004   1.489   2.485 -0.2414  0.2528 -0.5538
  951MOL0     C28299   7.877   1.445   2.531  0.6613 -0.4813  0.6665
  951MOL0     N28300   7.109   1.359   2.570  0.1393  0.2694  0.0199
  951MOL0     N28301   7.094   1.447   2.667 -0.1247  0.0396 -0.8636
  951MOL0     C28302   6.308   1.928   3.258  0.3205 -0.7014 -0.0955
  951MOL0     C28303   6.268   2.035   3.341  0.6862  0.0811  0.2984
  951MOL0     C28304   6.155   2.481   3.449  0.0732  0.0113  0.0730
  951MOL0     C28305   6.206   2.477   3.577 -0.4331  0.0153 -0.7298
  951MOL0     C28306   6.174   2.575   3.676 -0.5588 -0.8646  0.3139
  951MOL0     C28307   6.072   2.667   3.643  0.5408 -0.2115 -1.3295
  951MOL0     O28308   6.030   2.769   3.738  0.3835  0.4258 -0.5107
  951MOL0     C28309   6.064   2.744   3.872 -0.1044 -0.4425 -1.5662
  951MOL0     C28310   5.979   2.848   3.948  0.0789  0.7744 -0.3196
  951MOL0     C28311   5.827   2.852   3.926  0.5222 -0.2651 -1.2793
  951MOL0     C28312   5.747   2.730   3.972  0.1780  0.7363 -0.2928
  951MOL0     C28313   5.606   2.755   3.985 -0.4640  0.6999 -0.8942
  951MOL0     C28314   5.494   2.787   4.021  0.3047  0.1585  0.4210
  951MOL0     C28315   6.015   2.666   3.520  0.1843  0.3578  0.1281
  951MOL0     C28316   6.061   2.579   3.419 -0.6440  0.3015  0.7296
  951MOL0     C28317   5.993   2.591   3.282 -1.5899  0.0759 -0.4116
  951MOL0     H28318   6.443   2.294   3.191  0.1333 -0.7176 -0.2223
  951MOL0     H28319   6.517   2.097   3.045 -1.1238  0.0317 -1.0570
  951MOL0     H28320   6.542   1.752   2.946 -1.1213 -1.0132  1.2193
  951MOL0     H28321   6.570   1.924   2.955 -0.8060 -0.2773 -0.7018
  951MOL0     H28322   6.614   1.712   3.189 -3.1779  2.0013  1.5335
  951MOL0     H28323   6.679   1.868   3.193  0.8053 -2.7793  2.4789
  951MOL0     H28324   6.850   1.718   3.143  2.3582  1.2540 -1.0907
  951MOL0     H28325   6.822   1.835   3.008 -1.9676 -0.0022 -0.1216
  951MOL0     H28326   6.713   1.554   2.999 -0.9171  1.7023  2.1841
  951MOL0     H28327   6.726   1.675   2.868 -0.7443 -0.3794  0.0915
  951MOL0     H28328   6.882   1.482   2.842 -4.1624  1.6329 -1.3546
  951MOL0     H28329   6.952   1.644   2.851  0.4626 -1.6372 -0.5373
  951MOL0     H28330   7.029   1.596   3.084 -2.4954 -1.8691  3.7112
  951MOL0     H28331   6.924   1.460   3.097 -0.7271  0.8681  0.8892
  951MOL0     H28332   7.050   1.310   2.942  0.4104 -1.6518  3.1703
  951MOL0     H28333   7.151   1.358   3.072 -2.9649 -0.3161  1.1928
  951MOL0     H28334   7.169   1.575   2.871  2.5686  0.4504 -1.2540
  951MOL0     H28335   7.295   1.464   2.942  0.2889  0.5971  0.3503
  951MOL0     H28336   7.334   1.253   2.784  0.8507  2.3351  0.4936
  951MOL0     H28337   7.264   1.067   2.605  0.5743 -0.6044  0.4386
  951MOL0     H28338   7.154   1.101   2.470  2.2459 -1.5958 -0.8609
  951MOL0     H28339   7.377   1.090   2.359  4.2037  2.4766 -0.2535
  951MOL0     H28340   7.320   1.250   2.362  0.3190 -1.1772 -1.3814
  951MOL0     H28341   7.490   1.127   2.591 -0.5542 -0.5729 -1.4314
  951MOL0     H28342   7.445   1.296   2.565 -5.1460 -0.0624 -3.3386
  951MOL0     H28343   7.561   1.265   2.345  0.1700 -1.8159 -1.4165
  951MOL0     H28344   7.651   1.129   2.420 -1.2881  0.0720  0.0847
  951MOL0     H28345   7.782   1.241   2.269 -2.1039  1.0091  1.6356
  951MOL0     H28346   7.982   1.334   2.186 -0.8660  0.6842 -0.1934
  951MOL0     H28347   8.477   1.528   2.418 -0.0962 -2.8256 -2.7210
  951MOL0     H28348   8.698   1.653   2.330  0.3791  3.6241 -0.4686
  951MOL0     H28349   8.620   1.861   1.969 -2.6311  2.6460 -0.0499
  951MOL0     H28350   8.623   2.012   2.064  0.4602 -0.7044  3.5687
  951MOL0     H28351   8.873   1.866   1.978  0.9001 -0.0449  0.6673
  951MOL0     H28352   8.804   2.000   1.879 -0.7370  0.9789 -0.5704
  951MOL0     H28353   8.837   2.146   2.045 -0.2761 -0.3830 -1.0013
  951MOL0     H28354   8.871   2.017   2.173  0.9959 -2.3679 -1.1239
  951MOL0     H28355   9.075   1.955   2.093 -1.4173 -0.9908 -3.5621
  951MOL0     H28356   9.081   2.134   2.104 -0.1209  2.5150 -2.6938
  951MOL0     H28357   9.036   2.150   1.880 -2.1772 -1.0396 -0.6161
  951MOL0     H28358   9.041   1.966   1.862  0.9090 -0.3293 -0.6108
  951MOL0     H28359   9.262   2.152   1.975  0.6494 -0.2852  2.5424
  951MOL0     H28360   9.260   1.977   1.974  0.0084  0.9997  1.1725
  951MOL0     H28361   9.246   2.128   1.701 -1.7291 -0.2941 -0.5567
  951MOL0     H28362   9.239   1.958   1.726  1.4306  0.5118 -4.0140
  951MOL0     H28363   9.473   2.049   1.693 -1.5066 -0.4703 -1.8136
  951MOL0     H28364   9.465   2.143   1.852 -1.0916 -1.3483  0.8680
  951MOL0     H28365   8.441   1.898   2.100 -1.5098  0.1159  0.4204
  951MOL0     H28366   8.230   1.790   2.199 -0.3008  0.2878 -2.1808
  951MOL0     H28367   8.056   1.562   2.546  1.6044 -2.1900  0.9858
  951MOL0     H28368   7.828   1.490   2.616 -0.6827  2.7473 -1.6049
  951MOL0     H28369   6.279   1.829   3.290 -3.4938  1.0301  2.5456
  951MOL0     H28370   6.203   2.012   3.425  0.7247 -2.7346 -0.3424
  951MOL0     H28371   6.289   2.414   3.607 -2.8812 -1.2132  4.5355
  951MOL0     H28372   6.222   2.578   3.773 -0.2156  1.4323  0.1244
  951MOL0     H28373   6.169   2.767   3.890  0.6091 -0.0434 -5.3936
  951MOL0     H28374   6.041   2.644   3.909 -0.9212 -0.0259 -0.9236
  951MOL0     H28375   6.014   2.951   3.937 -1.5347  1.5344  1.2354
  951MOL0     H28376   6.002   2.830   4.053  0.9749 -1.0611 -0.7914
  951MOL0     H28377   5.816   2.859   3.817  0.8419  3.5266 -1.2246
  951MOL0     H28378   5.799   2.946   3.974  1.2549 -0.3835 -0.6133
  951MOL0     H28379   5.768   2.660   3.891  2.4316  3.3190 -2.0883
  951MOL0     H28380   5.780   2.715   4.076 -2.4231  0.3651  0.5602
  951MOL0     H28381   5.390   2.803   4.042  0.6169  2.8667  0.2108
  951MOL0     H28382   5.944   2.747   3.505  1.2066  1.1499 -0.5767
  951MOL0     H28383   5.930   2.507   3.251 -1.7733  0.7431 -1.9237
  951MOL0     H28384   5.928   2.679   3.287 -3.4935 -1.0189 -3.2210
  951MOL0     H28385   6.062   2.603   3.198 -1.2731 -2.8336 -0.6574
  952MOL0     O28386   7.787   4.989   2.789  0.9850  0.4388  1.0870
  952MOL0     C28387   7.770   4.958   2.668 -0.2262 -0.2615 -1.1626
  952MOL0     O28388   7.853   4.872   2.596 -0.5700 -0.0738  0.3796
  952MOL0     C28389   7.964   4.814   2.640  0.1480  0.0994 -0.0266
  952MOL0     C28390   7.982   4.772   2.773  0.0197  0.2634 -0.2091
  952MOL0     C28391   8.092   4.706   2.822 -0.2842  0.0335  0.0886
  952MOL0     C28392   8.204   4.695   2.729  0.3394  0.2559 -1.1728
  952MOL0     O28393   8.319   4.625   2.767  0.7854 -0.4384  0.6809
  952MOL0     C28394   8.370   4.622   2.891 -0.5878  0.5462 -0.4751
  952MOL0     C28395   8.502   4.547   2.865  0.6536 -0.2204  0.1127
  952MOL0     C28396   8.593   4.540   2.989  0.1003 -0.7707  0.9829
  952MOL0     C28397   8.731   4.485   2.959  0.0495 -0.0537  0.3546
  952MOL0     C28398   8.819   4.467   3.089 -0.1836  1.2542  0.0903
  952MOL0     C28399   8.937   4.372   3.071 -0.3565 -0.0203 -0.8636
  952MOL0     C28400   9.018   4.349   3.194  0.5208  0.5166 -0.3382
  952MOL0     C28401   9.104   4.218   3.189 -0.5315  0.1858  0.2204
  952MOL0     N28402   9.118   4.152   3.320  0.0300  0.1492  0.0233
  952MOL0     C28403   9.168   4.029   3.335  0.0550  0.2024 -0.1168
  952MOL0     C28404   9.175   4.007   3.469  0.5527 -0.2258  0.0532
  952MOL0     C28405   9.242   3.887   3.528  1.0947 -0.7149 -0.4179
  952MOL0     C28406   9.131   3.780   3.533 -1.3322 -0.8011  0.1418
  952MOL0     C28407   9.037   3.808   3.646 -0.1293  0.1912 -0.0524
  952MOL0     C28408   8.971   3.681   3.704 -0.2198 -0.2285  0.5558
  952MOL0     O28409   8.915   3.606   3.600 -0.3565  0.2066 -0.5030
  952MOL0     C28410   8.786   3.561   3.617 -0.7974  0.6445 -0.0241
  952MOL0     C28411   8.716   3.523   3.732  0.3975  0.1871 -0.7993
  952MOL0     C28412   8.589   3.468   3.725 -1.3467 -0.8130  0.3552
  952MOL0     C28413   8.533   3.454   3.592 -0.3346 -0.1734  0.2098
  952MOL0     C28414   8.404   3.376   3.566 -1.1791  0.2401 -0.4300
  952MOL0     O28415   8.333   3.357   3.678 -0.3699  0.5434  0.7857
  952MOL0     C28416   8.214   3.303   3.666  0.9390  1.0323 -0.0937
  952MOL0     C28417   8.120   3.320   3.559  0.0631 -0.6873  1.0274
  952MOL0     C28418   7.990   3.260   3.550  0.1850 -0.2297  0.3525
  952MOL0     C28419   7.951   3.188   3.667 -0.1371  0.0857 -1.1922
  952MOL0     O28420   7.823   3.140   3.673  0.7224 -0.1117  0.3314
  952MOL0     C28421   7.795   3.038   3.575 -0.4253 -0.1632  0.9921
  952MOL0     C28422   7.695   2.935   3.614  0.7709  0.8038 -0.3761
  952MOL0     C28423   7.559   2.993   3.645 -0.5669  0.1664  0.3207
  952MOL0     C28424   7.530   3.009   3.800 -0.3990  0.1763  0.0312
  952MOL0     C28425   7.389   3.068   3.832  0.7576  0.2901  0.4574
  952MOL0     C28426   7.286   2.973   3.770  0.8191 -0.5228 -0.0691
  952MOL0     C28427   7.151   3.022   3.809  0.5975 -0.1169  0.1746
  952MOL0     C28428   7.044   2.933   3.754  0.0650 -0.2454 -0.0144
  952MOL0    Cl28429   6.876   3.003   3.771  0.2250 -0.3525 -0.3554
  952MOL0     C28430   8.040   3.182   3.774 -0.3428 -0.0681 -0.6209
  952MOL0     C28431   8.166   3.234   3.775 -0.8174  0.4650  0.4373
  952MOL0     O28432   8.378   3.333   3.453  0.3328  0.1119 -0.0981
  952MOL0     C28433   8.608   3.486   3.482  0.1117  0.7490 -0.4477
  952MOL0     C28434   8.734   3.541   3.489  0.7230 -0.5403  0.0933
  952MOL0     N28435   9.121   4.119   3.528  0.3464 -0.2811  0.2145
  952MOL0     N28436   9.083   4.207   3.438 -0.1826  0.3499 -1.0623
  952MOL0     C28437   8.195   4.752   2.605  0.6752 -0.1637 -0.5894
  952MOL0     C28438   8.075   4.802   2.557  0.1911  0.5316 -0.0669
  952MOL0     C28439   7.657   5.009   2.590  1.1989 -1.2116  0.0084
  952MOL0     C28440   7.644   4.990   2.447 -0.0585 -0.1839 -0.0369
  952MOL0     C28441   7.531   5.029   2.370  0.1985  0.2928  0.7536
  952MOL0     C28442   7.424   5.079   2.439 -0.2563  0.5940  0.3851
  952MOL0     O28443   7.299   5.112   2.380 -0.3640  0.2523 -0.3157
  952MOL0     C28444   7.265   5.053   2.252  0.1122 -0.4123 -0.3869
  952MOL0     C28445   7.119   5.071   2.206  0.2720 -0.1585 -0.2085
  952MOL0     C28446   7.074   5.220   2.184 -1.4939 -0.6761  0.5752
  952MOL0     C28447   6.932   5.228   2.132  0.1326  0.2083 -0.9672
  952MOL0     C28448   6.869   5.366   2.140  0.8861  0.8655 -0.3928
  952MOL0     C28449   6.815   5.472   2.155 -0.8639 -0.0078  0.9504
  952MOL0     C28450   7.434   5.108   2.578  0.1976 -0.2683 -0.0088
  952MOL0     C28451   7.549   5.080   2.654 -0.2313 -0.3128 -0.3768
  952MOL0     C28452   7.535   5.120   2.802  0.0275 -0.2792 -0.2743
  952MOL0     H28453   7.898   4.778   2.842  1.5535 -2.8738  2.2070
  952MOL0     H28454   8.102   4.672   2.924 -1.5413  3.9746  1.7150
  952MOL0     H28455   8.403   4.719   2.930  2.3929  0.1536 -1.7648
  952MOL0     H28456   8.311   4.568   2.966  1.1596 -0.2616  0.3776
  952MOL0     H28457   8.553   4.587   2.777  0.2039  1.1607  0.4447
  952MOL0     H28458   8.488   4.440   2.847  1.1892 -0.2511 -0.1610
  952MOL0     H28459   8.546   4.472   3.060 -1.1488  0.6258  1.5464
  952MOL0     H28460   8.602   4.643   3.027  1.5199 -1.0418  1.4455
  952MOL0     H28461   8.722   4.390   2.905  1.2503  1.3889 -2.6661
  952MOL0     H28462   8.777   4.554   2.887 -2.3989 -0.3866 -1.6968
  952MOL0     H28463   8.843   4.566   3.128 -2.2377  1.3186  1.3602
  952MOL0     H28464   8.759   4.419   3.167  1.7684  2.1116  2.2309
  952MOL0     H28465   8.886   4.282   3.036  0.9647 -1.4112  0.6464
  952MOL0     H28466   9.003   4.415   2.995  0.3692  2.7500  1.1640
  952MOL0     H28467   8.937   4.339   3.266 -0.3498 -1.9180 -1.5679
  952MOL0     H28468   9.084   4.436   3.207  0.8130 -0.0367  2.3270
  952MOL0     H28469   9.073   4.144   3.114 -1.1890 -0.5009  1.1512
  952MOL0     H28470   9.206   4.251   3.168 -1.6071  2.9381 -1.3805
  952MOL0     H28471   9.187   3.964   3.250 -1.2265 -0.6189  0.1854
  952MOL0     H28472   9.315   3.843   3.460  2.0110 -0.9679  0.7046
  952MOL0     H28473   9.279   3.914   3.628  1.7430 -0.9173 -0.6018
  952MOL0     H28474   9.092   3.756   3.434  4.1193 -2.3775 -1.9835
  952MOL0     H28475   9.175   3.684   3.564 -0.6710  0.1149  2.1970
  952MOL0     H28476   8.966   3.877   3.600  0.6297  0.0219 -1.5590
  952MOL0     H28477   9.087   3.863   3.726 -1.0568  3.7263 -1.6779
  952MOL0     H28478   8.895   3.715   3.776  0.7251  3.1274  0.1043
  952MOL0     H28479   9.043   3.627   3.766 -1.5891  0.2726  2.6880
  952MOL0     H28480   8.759   3.541   3.830 -2.9458  2.0413  0.5359
  952MOL0     H28481   8.539   3.435   3.816 -0.4739  0.1927  1.2257
  952MOL0     H28482   8.152   3.380   3.474  1.4570 -1.9294  0.6269
  952MOL0     H28483   7.916   3.291   3.478 -0.2083  0.2219  0.9408
  952MOL0     H28484   7.762   3.091   3.485  2.0819 -1.2322 -0.6686
  952MOL0     H28485   7.890   2.990   3.549 -1.5378 -1.8678 -0.0810
  952MOL0     H28486   7.684   2.872   3.525  5.5368 -2.8242  1.1449
  952MOL0     H28487   7.732   2.876   3.699  2.1945  3.1479  0.7202
  952MOL0     H28488   7.543   3.089   3.595  2.0260  1.4059  1.7004
  952MOL0     H28489   7.484   2.925   3.603  1.3310 -0.4009 -2.4093
  952MOL0     H28490   7.612   3.061   3.851  2.1038 -1.8393 -1.6724
  952MOL0     H28491   7.531   2.908   3.842 -0.2468  0.3020  0.3336
  952MOL0     H28492   7.393   3.172   3.801  1.2812 -0.5920 -2.8770
  952MOL0     H28493   7.377   3.062   3.940  1.0888  3.5827  0.7643
  952MOL0     H28494   7.296   2.984   3.662  0.0442  0.7226 -0.0448
  952MOL0     H28495   7.295   2.868   3.799  1.4569 -1.1277 -2.3073
  952MOL0     H28496   7.126   3.116   3.758  0.7812 -0.4842 -0.6059
  952MOL0     H28497   7.136   3.037   3.917 -1.3954 -0.5722  0.0028
  952MOL0     H28498   7.059   2.926   3.646 -0.7318 -2.3564 -0.0396
  952MOL0     H28499   7.049   2.834   3.802 -0.3828 -0.6261 -0.7360
  952MOL0     H28500   8.024   3.117   3.859  2.2125 -0.1259 -0.1096
  952MOL0     H28501   8.236   3.201   3.850 -0.9663 -2.5981 -0.5948
  952MOL0     H28502   8.579   3.457   3.382  1.1977 -0.9277 -0.3136
  952MOL0     H28503   8.797   3.572   3.406 -0.5697  2.9679  0.2733
  952MOL0     H28504   8.276   4.742   2.534 -2.3423  0.7961 -4.5092
  952MOL0     H28505   8.067   4.820   2.450  1.9790 -0.6514 -0.4306
  952MOL0     H28506   7.726   4.939   2.397 -0.0799 -1.2893  1.0317
  952MOL0     H28507   7.523   5.019   2.262 -0.7667 -0.9645  0.9181
  952MOL0     H28508   7.280   4.945   2.264 -0.1289 -0.3729  0.2917
  952MOL0     H28509   7.336   5.090   2.178  1.4099  2.9548  2.2659
  952MOL0     H28510   7.052   5.029   2.282  3.0755 -3.2102  0.8248
  952MOL0     H28511   7.110   5.013   2.114 -2.7331 -0.5275  0.2064
  952MOL0     H28512   7.133   5.274   2.109  1.8188  0.0575  3.4585
  952MOL0     H28513   7.081   5.275   2.278  0.5400  0.6432 -0.2667
  952MOL0     H28514   6.926   5.182   2.033 -1.2497 -1.7438 -0.0691
  952MOL0     H28515   6.866   5.169   2.198 -1.1542  1.0553 -1.4532
  952MOL0     H28516   6.778   5.572   2.164  0.5815  0.4464  2.3009
  952MOL0     H28517   7.343   5.157   2.611  1.1280  1.0541  0.6765
  952MOL0     H28518   7.446   5.177   2.831 -0.2068 -0.8888  0.2442
  952MOL0     H28519   7.531   5.023   2.854  1.4350 -3.0065 -4.7331
  952MOL0     H28520   7.622   5.176   2.838  1.8955 -2.2242 -1.5043
  953MOL0     O28521   9.184   5.101   5.911 -0.3629  0.1548 -0.5887
  953MOL0     C28522   9.248   5.165   5.996 -0.6310 -0.8791 -0.6407
  953MOL0     O28523   9.352   5.117   6.060  0.1084  0.0387 -0.2944
  953MOL0     C28524   9.381   4.985   6.060 -0.8476  0.8418  0.0265
  953MOL0     C28525   9.511   4.949   6.103  0.3031  0.5839 -0.3284
  953MOL0     C28526   9.552   4.809   6.099  0.4480 -0.0617 -0.3502
  953MOL0     C28527   9.458   4.708   6.072 -0.4269 -0.1941  0.5624
  953MOL0     O28528   9.487   4.575   6.074 -0.4169 -0.2177  0.2699
  953MOL0     C28529   9.591   4.537   5.976 -0.4803  0.1455 -0.0611
  953MOL0     C28530   9.569   4.387   5.949 -0.1761  1.2016  0.7837
  953MOL0     C28531   9.689   4.313   5.884  0.2800 -0.8079  0.4431
  953MOL0     C28532   9.814   4.334   5.968  0.4177  0.3049 -0.2153
  953MOL0     C28533   9.926   4.223   5.934  0.4117  0.4103  0.8280
  953MOL0     C28534  10.071   4.277   5.949  0.3209  0.3098  0.6874
  953MOL0     C28535  10.171   4.158   5.906 -0.1047  0.2043 -0.8963
  953MOL0     C28536  10.320   4.192   5.939 -0.2210 -0.5155  0.0265
  953MOL0     N28537  10.367   4.321   5.888 -0.8535 -0.0508 -0.2851
  953MOL0     C28538  10.351   4.386   5.774  0.3244 -0.7054  0.4054
  953MOL0     C28539  10.422   4.497   5.779  0.0879  0.5628 -0.1913
  953MOL0     C28540  10.453   4.590   5.662 -0.1544  0.7967  0.2098
  953MOL0     C28541  10.345   4.591   5.555  0.1837 -0.4018  1.4794
  953MOL0     C28542  10.357   4.702   5.459  0.0438  0.0949  0.1054
  953MOL0     C28543  10.249   4.707   5.348 -0.6253 -0.4656  0.1492
  953MOL0     O28544  10.267   4.816   5.260 -0.3708 -0.2761  1.1470
  953MOL0     C28545  10.389   4.836   5.199 -0.7763 -1.0028 -0.4423
  953MOL0     C28546  10.460   4.733   5.135  0.6542 -0.0155  0.1192
  953MOL0     C28547  10.571   4.757   5.066 -0.1456  0.2725 -0.5718
  953MOL0     C28548  10.626   4.884   5.052  0.7061  0.5797 -0.5863
  953MOL0     C28549  10.749   4.913   4.976 -0.4716 -0.4841 -0.2506
  953MOL0     O28550  10.834   4.808   4.923 -0.3623  0.2043 -0.2366
  953MOL0     C28551  10.957   4.829   4.865  0.0699  0.9601 -0.9157
  953MOL0     C28552  11.005   4.951   4.817  0.0188 -0.9197  0.1070
  953MOL0     C28553  11.138   4.969   4.768  0.4968 -0.1560  0.3926
  953MOL0     C28554  11.223   4.855   4.759 -0.5882  0.3297  0.7283
  953MOL0     O28555  11.351   4.849   4.723  0.1562 -0.0142 -0.6741
  953MOL0     C28556  11.415   4.966   4.671 -0.1209 -0.3605 -0.0836
  953MOL0     C28557  11.564   4.939   4.646 -0.7957  0.7071  0.1869
  953MOL0     C28558  11.637   5.034   4.547  0.5610 -0.5443 -0.8602
  953MOL0     C28559  11.780   4.998   4.528 -0.6219 -0.5629 -0.4570
  953MOL0     C28560  11.782   4.879   4.428  0.5503 -0.5617 -0.7326
  953MOL0     C28561  11.932   4.846   4.404 -1.0087 -0.2686 -0.4522
  953MOL0     C28562  12.002   4.775   4.521  1.0577  0.0825 -0.5403
  953MOL0     C28563  12.142   4.726   4.490  0.5340 -0.0305  0.5042
  953MOL0    Cl28564  12.233   4.824   4.370  0.2329 -0.0956  0.2697
  953MOL0     C28565  11.175   4.737   4.794  0.5188  0.7766 -0.0755
  953MOL0     C28566  11.047   4.719   4.852  0.1288 -0.0563 -0.6866
  953MOL0     O28567  10.786   5.034   4.982  0.2114  0.3014  0.0312
  953MOL0     C28568  10.570   4.981   5.132 -0.4954 -0.3110  0.3154
  953MOL0     C28569  10.448   4.962   5.198 -0.8437  0.1081 -1.2718
  953MOL0     N28570  10.470   4.510   5.906  0.6242  0.7315 -0.3972
  953MOL0     N28571  10.438   4.401   5.968 -0.1424 -0.5141 -0.3580
  953MOL0     C28572   9.323   4.744   6.033  1.0674 -0.3586 -0.3585
  953MOL0     C28573   9.288   4.879   6.028  0.2656  0.0514  0.0917
  953MOL0     C28574   9.221   5.317   6.008 -0.4076  0.5123  1.1781
  953MOL0     C28575   9.323   5.401   6.058  0.2591 -0.2192  0.7750
  953MOL0     C28576   9.303   5.541   6.070 -0.6492  0.1482 -0.3491
  953MOL0     C28577   9.193   5.604   6.006 -1.2673  0.0323  0.0622
  953MOL0     O28578   9.156   5.738   6.020 -0.8663 -0.4366  0.0249
  953MOL0     C28579   9.265   5.830   6.019  0.8995  0.0501  0.0109
  953MOL0     C28580   9.209   5.960   5.960  0.0910  0.1918 -0.0415
  953MOL0     C28581   9.282   6.082   5.998 -0.2972 -0.4606 -0.5760
  953MOL0     C28582   9.241   6.204   5.911 -0.9339 -0.4384  0.2633
  953MOL0     C28583   9.305   6.326   5.956  0.1068  0.1581 -0.6534
  953MOL0     C28584   9.359   6.420   6.014  0.0185  0.5062  0.2959
  953MOL0     C28585   9.090   5.519   5.960 -0.0526 -0.0033  0.4618
  953MOL0     C28586   9.101   5.377   5.969 -0.2265  0.2901  0.5207
  953MOL0     C28587   8.976   5.297   5.930  0.1153  0.2949  0.1930
  953MOL0     H28588   9.585   5.027   6.119  2.9113 -1.9349  0.8344
  953MOL0     H28589   9.652   4.780   6.129 -0.3435 -1.5172  1.0429
  953MOL0     H28590   9.572   4.599   5.888 -0.4825 -1.2358 -1.0617
  953MOL0     H28591   9.691   4.559   6.016 -1.2951  3.3562  0.4831
  953MOL0     H28592   9.477   4.380   5.889 -1.4699 -0.7680  2.8071
  953MOL0     H28593   9.546   4.339   6.045  1.6655  3.1200  2.2661
  953MOL0     H28594   9.715   4.354   5.786  1.4329  0.5264  1.2711
  953MOL0     H28595   9.675   4.204   5.879 -0.5353 -0.6559 -1.2147
  953MOL0     H28596   9.850   4.433   5.938  1.7554  0.0945  0.5664
  953MOL0     H28597   9.784   4.348   6.072 -1.2012 -1.1385 -0.4513
  953MOL0     H28598   9.907   4.141   6.004 -1.7371  0.9638  0.9453
  953MOL0     H28599   9.904   4.181   5.836  0.9286  2.6834 -0.3391
  953MOL0     H28600  10.080   4.362   5.881 -2.9588  0.7623  0.6599
  953MOL0     H28601  10.082   4.305   6.054 -1.6639  1.9363  0.5388
  953MOL0     H28602  10.162   4.144   5.798 -1.1062 -2.1576 -0.5541
  953MOL0     H28603  10.145   4.061   5.947 -1.6210  0.0702 -2.0955
  953MOL0     H28604  10.348   4.177   6.043  0.6032 -0.7984 -0.2316
  953MOL0     H28605  10.375   4.115   5.884  0.6162 -0.5998  0.9583
  953MOL0     H28606  10.307   4.343   5.684  1.6414 -1.8712  0.2805
  953MOL0     H28607  10.468   4.690   5.705  0.7291  1.5679 -1.7897
  953MOL0     H28608  10.543   4.543   5.621 -1.5913 -3.3054  1.2692
  953MOL0     H28609  10.356   4.504   5.491  0.4750  1.4720 -1.1946
  953MOL0     H28610  10.245   4.585   5.598 -0.0014  0.2455  1.1616
  953MOL0     H28611  10.454   4.686   5.412 -0.6577  2.3694 -2.3632
  953MOL0     H28612  10.353   4.799   5.509 -2.5232 -1.3539  3.0658
  953MOL0     H28613  10.147   4.713   5.388 -1.0805 -1.0793 -0.8868
  953MOL0     H28614  10.256   4.610   5.297  1.0698 -0.5774  0.5187
  953MOL0     H28615  10.411   4.636   5.136  0.4388  0.0458  2.7392
  953MOL0     H28616  10.626   4.673   5.024 -3.4913 -1.5176 -1.6943
  953MOL0     H28617  10.949   5.043   4.805 -1.0871 -1.8525 -2.8063
  953MOL0     H28618  11.167   5.073   4.755  1.5265 -0.5810 -0.8446
  953MOL0     H28619  11.367   4.990   4.575  0.0506 -3.0014 -0.9047
  953MOL0     H28620  11.416   5.049   4.741 -0.9592 -2.5832  2.7602
  953MOL0     H28621  11.616   4.945   4.742  0.4315  0.1538 -0.4233
  953MOL0     H28622  11.563   4.839   4.601 -1.5207  1.0882 -0.6707
  953MOL0     H28623  11.582   5.046   4.453 -0.8719  0.8842  0.1124
  953MOL0     H28624  11.632   5.136   4.587  0.6377 -1.2358  0.9966
  953MOL0     H28625  11.826   4.980   4.626 -2.8351  0.1339  0.7762
  953MOL0     H28626  11.818   5.084   4.474 -2.9862 -0.4159 -2.0227
  953MOL0     H28627  11.746   4.920   4.333  0.9387  0.7025 -0.3564
  953MOL0     H28628  11.718   4.797   4.462 -0.2547  0.2088 -0.3348
  953MOL0     H28629  11.938   4.781   4.316 -1.9193 -2.3375  0.9193
  953MOL0     H28630  11.984   4.939   4.379 -3.4393  0.6714 -2.3843
  953MOL0     H28631  11.946   4.684   4.544  0.2626  0.5059 -0.7464
  953MOL0     H28632  12.001   4.848   4.603  1.6852  0.1768 -0.6142
  953MOL0     H28633  12.202   4.717   4.581 -0.1524  3.0627  1.3981
  953MOL0     H28634  12.134   4.625   4.449 -0.3285  0.9165 -1.8610
  953MOL0     H28635  11.233   4.646   4.787 -3.5021 -2.2508  1.7589
  953MOL0     H28636  11.013   4.623   4.889 -0.0822  0.8646  1.6962
  953MOL0     H28637  10.609   5.083   5.126  0.2615 -0.5361  1.1474
  953MOL0     H28638  10.396   5.048   5.239 -0.7814 -1.2635  2.0581
  953MOL0     H28639   9.245   4.672   6.011  0.6064  0.1380 -0.3632
  953MOL0     H28640   9.186   4.892   5.995  0.1254  2.2814  1.1955
  953MOL0     H28641   9.423   5.367   6.082  1.2633  1.1158 -1.2280
  953MOL0     H28642   9.381   5.610   6.103  0.1828  0.1430 -2.1668
  953MOL0     H28643   9.364   5.797   5.985  1.3662 -1.7507  2.8262
  953MOL0     H28644   9.282   5.855   6.124 -0.2892 -0.1705  0.2688
  953MOL0     H28645   9.103   5.965   5.985  0.0493 -1.1460  0.1595
  953MOL0     H28646   9.228   5.930   5.857 -1.9890  0.5376 -0.5789
  953MOL0     H28647   9.383   6.051   5.969 -0.7097 -0.7872 -1.7371
  953MOL0     H28648   9.285   6.098   6.106 -1.4205  0.8876 -0.7118
  953MOL0     H28649   9.263   6.182   5.806  2.8413 -3.5898  1.4689
  953MOL0     H28650   9.134   6.226   5.917 -0.7024  0.8866 -0.2009
  953MOL0     H28651   9.394   6.510   6.059  1.9919 -0.0149 -0.1050
  953MOL0     H28652   8.992   5.563   5.943 -0.5252  0.0533  2.9600
  953MOL0     H28653   8.882   5.354   5.922 -0.4131 -0.3383  1.5255
  953MOL0     H28654   8.991   5.247   5.834  3.0095  0.2086  0.6153
  953MOL0     H28655   8.949   5.227   6.009 -2.6754  2.5394  1.3872
  954MOL0     O28656  11.031   8.008   9.509 -1.0646 -0.6229 -1.0722
  954MOL0     C28657  11.091   7.980   9.410 -0.0576  0.3325  0.3377
  954MOL0     O28658  11.027   7.913   9.306 -0.0712 -0.2556  0.2610
  954MOL0     C28659  10.906   7.860   9.302  0.6920  0.8776  0.3772
  954MOL0     C28660  10.820   7.819   9.413 -0.3679 -1.1868  0.3386
  954MOL0     C28661  10.693   7.773   9.384  0.1790  0.4703 -0.6500
  954MOL0     C28662  10.648   7.762   9.249  0.6194 -0.0778  0.1074
  954MOL0     O28663  10.521   7.729   9.211 -0.6067  0.5751 -0.6893
  954MOL0     C28664  10.466   7.624   9.296 -0.1141 -0.1774 -0.4259
  954MOL0     C28665  10.356   7.568   9.224 -0.1399 -0.2979 -0.1361
  954MOL0     C28666  10.314   7.626   9.092 -0.9490  0.2562 -1.0411
  954MOL0     C28667  10.186   7.563   9.033 -0.0231 -0.3294  0.2188
  954MOL0     C28668  10.131   7.659   8.916 -0.6680  0.1787  0.2563
  954MOL0     C28669  10.233   7.688   8.790  0.8818  0.0652  0.0175
  954MOL0     C28670  10.270   7.557   8.723  0.0282  0.2045  0.6419
  954MOL0     C28671  10.391   7.572   8.632  0.1140  0.5383  0.0808
  954MOL0     N28672  10.511   7.620   8.703 -0.8149  0.0908 -0.3174
  954MOL0     C28673  10.574   7.745   8.686 -0.2198  0.2934 -0.1679
  954MOL0     C28674  10.686   7.732   8.763  0.1288 -0.0398  0.5073
  954MOL0     C28675  10.803   7.831   8.765  0.0714  0.4998 -0.2367
  954MOL0     C28676  10.936   7.768   8.795  0.0286  0.2112 -0.6557
  954MOL0     C28677  11.041   7.882   8.784 -0.0368  0.1052  1.0336
  954MOL0     C28678  11.171   7.836   8.841 -0.2270 -0.5659  0.0010
  954MOL0     O28679  11.277   7.930   8.812  0.0469  0.9378  0.4417
  954MOL0     C28680  11.406   7.882   8.819  0.5268 -0.3354 -0.1424
  954MOL0     C28681  11.500   7.973   8.784 -0.9541 -0.3328 -0.4754
  954MOL0     C28682  11.641   7.951   8.784 -0.8736  0.2073  0.0568
  954MOL0     C28683  11.689   7.828   8.840  0.6618 -0.1505  0.6340
  954MOL0     C28684  11.837   7.802   8.861 -0.0822 -0.9069 -0.3934
  954MOL0     O28685  11.922   7.867   8.776 -0.3266 -0.8157  0.1801
  954MOL0     C28686  12.053   7.822   8.760  0.8734 -0.1324 -0.0283
  954MOL0     C28687  12.153   7.886   8.830 -0.5344 -0.9271 -0.4648
  954MOL0     C28688  12.279   7.847   8.820 -0.6026  0.8840  0.0137
  954MOL0     C28689  12.314   7.737   8.739  0.0054  1.4703  0.4392
  954MOL0     O28690  12.443   7.686   8.755 -0.8259  0.3835  0.3239
  954MOL0     C28691  12.516   7.652   8.639 -0.3186  0.3414 -0.2913
  954MOL0     C28692  12.590   7.774   8.588 -0.2648 -0.0971  0.7426
  954MOL0     C28693  12.716   7.802   8.675  0.1246  0.0509  0.5934
  954MOL0     C28694  12.810   7.683   8.696 -0.1427  0.0286 -0.6815
  954MOL0     C28695  12.954   7.720   8.700  0.0648 -0.4423 -0.4058
  954MOL0     C28696  13.043   7.604   8.747  1.0103  0.8347  0.5831
  954MOL0     C28697  13.185   7.602   8.707 -0.6738 -0.3665  0.3717
  954MOL0     C28698  13.259   7.726   8.756  0.4838 -1.5394  0.2678
  954MOL0    Cl28699  13.425   7.732   8.692 -0.0977 -0.0749  0.0091
  954MOL0     C28700  12.217   7.673   8.666 -0.6140  0.1717  0.2090
  954MOL0     C28701  12.087   7.712   8.675  1.1596  0.1341  0.1807
  954MOL0     O28702  11.875   7.732   8.950 -0.0007 -0.1989 -0.6569
  954MOL0     C28703  11.596   7.737   8.890  0.6729  0.2423  0.1833
  954MOL0     C28704  11.453   7.762   8.875 -0.2983 -0.2847 -0.2666
  954MOL0     N28705  10.683   7.613   8.829  0.0983 -0.0423 -0.9931
  954MOL0     N28706  10.575   7.553   8.795 -0.4570  0.1399 -0.1422
  954MOL0     C28707  10.732   7.802   9.148  1.1364 -0.2082  0.4601
  954MOL0     C28708  10.859   7.853   9.168 -0.0863  0.3389  0.4613
  954MOL0     C28709  11.232   8.021   9.386  0.3514 -0.2463  0.4104
  954MOL0     C28710  11.295   7.959   9.278  0.2288 -0.5042 -0.1560
  954MOL0     C28711  11.422   7.984   9.235 -0.8618  0.1963 -0.5267
  954MOL0     C28712  11.502   8.083   9.302  0.9378  0.3690 -0.1046
  954MOL0     O28713  11.630   8.106   9.280 -0.4011 -0.1468  0.0911
  954MOL0     C28714  11.689   8.035   9.169 -0.1744 -0.0952 -0.4145
  954MOL0     C28715  11.833   8.057   9.156  0.5123 -0.0955 -0.7027
  954MOL0     C28716  11.910   7.976   9.261 -0.1678  0.5994  0.7316
  954MOL0     C28717  12.047   8.044   9.299  0.4393 -0.0102 -0.0614
  954MOL0     C28718  12.160   8.033   9.204 -0.4142  0.1881 -0.8803
  954MOL0     C28719  12.265   8.045   9.148  0.0582 -1.0648  0.4113
  954MOL0     C28720  11.436   8.147   9.415 -0.9653 -0.1418  0.2655
  954MOL0     C28721  11.307   8.117   9.458  1.2201  0.7993 -0.7947
  954MOL0     C28722  11.257   8.179   9.590 -0.6993  0.1462 -0.5322
  954MOL0     H28723  10.862   7.827   9.513  0.7076  1.9047 -0.2523
  954MOL0     H28724  10.632   7.754   9.472  0.9610 -1.2633 -0.4328
  954MOL0     H28725  10.542   7.551   9.326  1.8438  1.3313 -1.4705
  954MOL0     H28726  10.430   7.667   9.390 -0.1447 -0.1311 -0.4589
  954MOL0     H28727  10.275   7.559   9.298  1.2746 -0.3014  1.4554
  954MOL0     H28728  10.392   7.466   9.206 -1.7934 -1.1231  0.9791
  954MOL0     H28729  10.396   7.611   9.021 -0.4210  1.2716 -0.6614
  954MOL0     H28730  10.302   7.734   9.095  0.6124  0.4719 -1.7382
  954MOL0     H28731  10.218   7.466   8.996  1.2115  0.6669 -1.4788
  954MOL0     H28732  10.110   7.553   9.111  1.5514 -0.9378  1.7346
  954MOL0     H28733  10.063   7.597   8.858 -0.2075  0.1512 -0.2693
  954MOL0     H28734  10.078   7.751   8.943 -0.1482  0.6768 -0.3490
  954MOL0     H28735  10.182   7.746   8.712 -2.0281 -2.3587 -0.0502
  954MOL0     H28736  10.309   7.750   8.838  1.9965  0.1278 -1.7256
  954MOL0     H28737  10.179   7.527   8.670 -0.4670  1.4116  0.7884
  954MOL0     H28738  10.299   7.480   8.795  4.8811 -2.4634 -3.4211
  954MOL0     H28739  10.409   7.475   8.586  0.0871  0.4958  0.1589
  954MOL0     H28740  10.362   7.640   8.552 -3.5338 -2.8948 -1.8339
  954MOL0     H28741  10.554   7.825   8.615  3.3884  0.1836 -1.5159
  954MOL0     H28742  10.804   7.881   8.668 -0.0225 -1.1132 -1.0966
  954MOL0     H28743  10.781   7.902   8.845 -2.0052  1.0945 -1.2543
  954MOL0     H28744  10.939   7.748   8.903  0.4421  1.6898 -0.3608
  954MOL0     H28745  10.959   7.692   8.720 -0.6712 -0.0856 -0.5757
  954MOL0     H28746  11.008   7.973   8.836  1.0072 -0.3670  2.6120
  954MOL0     H28747  11.066   7.905   8.680  0.0796  0.5795  1.1647
  954MOL0     H28748  11.192   7.736   8.801  0.8678  0.4917 -2.2134
  954MOL0     H28749  11.150   7.822   8.948  1.9331 -1.5693  0.3470
  954MOL0     H28750  11.460   8.059   8.731 -1.4639 -0.3311 -0.1006
  954MOL0     H28751  11.716   8.018   8.743 -0.5622 -0.6910 -0.8606
  954MOL0     H28752  12.123   7.970   8.892  1.3375 -0.2698 -0.3939
  954MOL0     H28753  12.352   7.905   8.875 -1.7025  1.4398  0.9149
  954MOL0     H28754  12.587   7.568   8.647 -2.0868 -1.0555  2.9179
  954MOL0     H28755  12.451   7.615   8.560  2.1640 -0.3764 -2.1310
  954MOL0     H28756  12.614   7.749   8.484  0.7822  1.7275  0.5047
  954MOL0     H28757  12.523   7.861   8.590 -0.7523 -0.4609  0.4418
  954MOL0     H28758  12.775   7.884   8.634  0.0932 -0.9741 -1.5971
  954MOL0     H28759  12.683   7.839   8.773  1.1901  0.9092  0.6469
  954MOL0     H28760  12.809   7.613   8.612  1.2291 -2.7451  1.4456
  954MOL0     H28761  12.791   7.631   8.791 -2.1563 -2.6657 -2.4142
  954MOL0     H28762  12.968   7.814   8.755  4.1178  1.1058 -3.4907
  954MOL0     H28763  12.991   7.729   8.597  0.5867 -2.5396 -0.4534
  954MOL0     H28764  13.027   7.593   8.854  2.0652 -1.1147  0.6020
  954MOL0     H28765  13.005   7.514   8.697 -0.6466  0.9128  1.6167
  954MOL0     H28766  13.204   7.597   8.600 -1.3799 -0.8655  0.2671
  954MOL0     H28767  13.235   7.514   8.749 -3.1243 -2.0795 -0.0837
  954MOL0     H28768  13.211   7.823   8.736  2.1376 -0.5491  0.8444
  954MOL0     H28769  13.258   7.717   8.865 -5.0835  2.3674  0.9774
  954MOL0     H28770  12.231   7.578   8.616 -1.6947  1.2576 -2.3647
  954MOL0     H28771  12.005   7.655   8.631  1.7594 -0.9235  0.4111
  954MOL0     H28772  11.621   7.639   8.928  1.7358  0.8082  0.9752
  954MOL0     H28773  11.382   7.685   8.904 -2.8024  2.4255  1.2486
  954MOL0     H28774  10.674   7.789   9.057 -0.4566  0.7816  1.2816
  954MOL0     H28775  10.915   7.903   9.089  1.2923  0.7439  1.6473
  954MOL0     H28776  11.247   7.879   9.222 -0.6383 -1.5371  1.9533
  954MOL0     H28777  11.456   7.915   9.158  1.7191 -0.3972  1.0088
  954MOL0     H28778  11.638   8.073   9.080 -2.0299  2.3707  1.5525
  954MOL0     H28779  11.677   7.927   9.175 -0.9033  0.0629  1.9375
  954MOL0     H28780  11.847   8.165   9.168 -0.7210  0.0843 -0.7630
  954MOL0     H28781  11.857   8.015   9.058  1.9777 -0.1963 -0.3237
  954MOL0     H28782  11.930   7.875   9.223 -0.0197  2.0842 -3.6257
  954MOL0     H28783  11.849   7.957   9.350 -0.6392 -4.2703 -0.3466
  954MOL0     H28784  12.034   8.151   9.318 -0.6166 -0.1008 -0.2208
  954MOL0     H28785  12.075   8.010   9.399 -3.1874  2.0557  1.8719
  954MOL0     H28786  12.356   8.067   9.096 -0.0692  3.2877  1.6590
  954MOL0     H28787  11.502   8.207   9.477  0.7345  0.2952 -1.8533
  954MOL0     H28788  11.335   8.229   9.648 -0.2861  0.8714 -1.6778
  954MOL0     H28789  11.166   8.239   9.575 -1.8395 -0.9096  1.6544
  954MOL0     H28790  11.226   8.094   9.652  0.8966  0.1463  0.3312
  955MOL0     O28791  10.093   0.651  11.232  0.3775  0.0469  0.3670
  955MOL0     C28792  10.087   0.581  11.133 -0.5563  0.4032 -0.4477
  955MOL0     O28793  10.198   0.524  11.076  0.2204  0.8623 -0.5102
  955MOL0     C28794  10.324   0.547  11.125 -0.3905 -0.3319  0.3736
  955MOL0     C28795  10.361   0.596  11.252 -0.3352 -1.2035 -0.0977
  955MOL0     C28796  10.500   0.602  11.282  0.6231 -0.5163 -0.2317
  955MOL0     C28797  10.603   0.563  11.190  0.0100 -0.3345 -0.3482
  955MOL0     O28798  10.734   0.581  11.234 -0.1495 -0.1514  0.6426
  955MOL0     C28799  10.775   0.703  11.303  0.3610  0.4269 -0.1323
  955MOL0     C28800  10.923   0.744  11.277  0.2996  0.2485 -0.3182
  955MOL0     C28801  10.949   0.870  11.357 -0.5861 -0.4012 -0.2409
  955MOL0     C28802  11.091   0.922  11.336  0.5089 -0.1287  0.3267
  955MOL0     C28803  11.119   1.053  11.414 -0.6128  0.8811  0.2485
  955MOL0     C28804  11.258   1.099  11.394 -0.5474 -0.2270  0.2842
  955MOL0     C28805  11.291   1.230  11.456  0.4463  0.1563  0.7341
  955MOL0     C28806  11.280   1.216  11.599 -0.0443 -0.5184  0.1538
  955MOL0     N28807  11.368   1.304  11.683  0.8657  0.7483  0.2335
  955MOL0     C28808  11.429   1.416  11.638  0.6538  0.6979  0.0170
  955MOL0     C28809  11.474   1.478  11.746  0.3092  0.1632 -0.3159
  955MOL0     C28810  11.548   1.609  11.750  0.2472 -0.6608 -0.5232
  955MOL0     C28811  11.671   1.604  11.843  0.7565  0.8723  0.7072
  955MOL0     C28812  11.760   1.726  11.813  0.4291  0.6421 -0.2241
  955MOL0     C28813  11.882   1.756  11.908  0.3890  0.6457 -0.5507
  955MOL0     O28814  11.960   1.630  11.931  0.0321 -0.1455  0.2319
  955MOL0     C28815  12.063   1.653  12.021  0.7871  0.1527 -0.0487
  955MOL0     C28816  12.078   1.765  12.105 -0.0183  0.2721  0.0872
  955MOL0     C28817  12.169   1.774  12.209  0.2605 -0.0798  0.4079
  955MOL0     C28818  12.262   1.671  12.229  0.2144  0.5954  0.1358
  955MOL0     C28819  12.363   1.675  12.340 -0.1135 -0.4224  0.0710
  955MOL0     O28820  12.448   1.571  12.354 -0.5257 -0.4265 -0.3306
  955MOL0     C28821  12.534   1.566  12.458 -0.5574  0.3044 -0.4697
  955MOL0     C28822  12.501   1.482  12.564 -0.0975 -1.3985 -0.7910
  955MOL0     C28823  12.597   1.457  12.664 -0.5102  0.0274 -0.5584
  955MOL0     C28824  12.721   1.517  12.655 -0.0124 -0.1613 -0.1754
  955MOL0     O28825  12.802   1.500  12.763  0.0614  0.9557 -0.5556
  955MOL0     C28826  12.896   1.599  12.798  0.4155  0.7546 -0.2264
  955MOL0     C28827  12.904   1.608  12.951  0.3419  0.5645  0.1685
  955MOL0     C28828  12.772   1.670  13.006 -0.6983  0.0006  0.9266
  955MOL0     C28829  12.782   1.694  13.154 -0.0878  0.2706  0.8849
  955MOL0     C28830  12.648   1.767  13.195 -0.7975 -0.4383 -0.1211
  955MOL0     C28831  12.602   1.726  13.340 -0.4120  0.6773 -0.0042
  955MOL0     C28832  12.489   1.806  13.394  0.7692 -0.4791 -0.0399
  955MOL0     C28833  12.426   1.739  13.515 -0.0986 -0.1642  0.0485
  955MOL0    Cl28834  12.548   1.712  13.652 -0.0123  0.1147 -0.1465
  955MOL0     C28835  12.751   1.603  12.558  0.7400  0.2887  0.5150
  955MOL0     C28836  12.660   1.626  12.459 -0.3035  0.2401  0.4879
  955MOL0     O28837  12.366   1.768  12.413  0.0452  0.1026  0.2649
  955MOL0     C28838  12.254   1.565  12.145  0.0773 -0.5560 -0.2771
  955MOL0     C28839  12.162   1.552  12.041  0.6459 -0.3513  0.9152
  955MOL0     N28840  11.446   1.396  11.856 -0.7572 -0.5104  0.2252
  955MOL0     N28841  11.373   1.304  11.817 -0.4135  0.5807 -1.0913
  955MOL0     C28842  10.565   0.506  11.074  0.3962  0.5864 -0.4489
  955MOL0     C28843  10.430   0.502  11.044 -0.3808 -0.3910  0.1039
  955MOL0     C28844   9.948   0.561  11.081  0.6340  1.0164 -0.5175
  955MOL0     C28845   9.850   0.669  11.096  0.7999  0.7431  0.9320
  955MOL0     C28846   9.714   0.644  11.068 -0.2695 -0.7300 -0.4409
  955MOL0     C28847   9.675   0.530  10.999 -0.9598 -0.0878 -0.4751
  955MOL0     O28848   9.543   0.529  10.957 -0.6270  0.0337 -0.1795
  955MOL0     C28849   9.491   0.415  10.893 -0.1449 -0.3171 -0.0802
  955MOL0     C28850   9.465   0.293  10.984 -0.4562 -1.4388 -0.2137
  955MOL0     C28851   9.365   0.333  11.098  0.0486  0.4326  0.9304
  955MOL0     C28852   9.325   0.210  11.184  1.1027 -0.5727  0.1363
  955MOL0     C28853   9.421   0.168  11.289 -0.5076 -0.1916 -0.3299
  955MOL0     C28854   9.505   0.120  11.368  0.3974 -0.2763 -0.1679
  955MOL0     C28855   9.771   0.427  10.974 -0.1214  0.3622 -1.1436
  955MOL0     C28856   9.900   0.440  11.017  0.9501 -0.4382 -0.0268
  955MOL0     C28857   9.991   0.322  11.019 -0.2623 -0.5864 -0.3832
  955MOL0     H28858  10.302   0.629  11.337  2.2623  1.7681  0.7262
  955MOL0     H28859  10.524   0.638  11.382 -1.2854 -2.7535  1.1430
  955MOL0     H28860  10.720   0.792  11.269  0.8585  0.7388 -0.1356
  955MOL0     H28861  10.752   0.688  11.409 -3.2603  0.3060 -0.7837
  955MOL0     H28862  10.931   0.769  11.171 -2.0743  1.5557 -0.2766
  955MOL0     H28863  10.996   0.671  11.312 -0.1878 -0.9708 -1.7183
  955MOL0     H28864  10.936   0.854  11.464  2.7918  1.6004  0.6053
  955MOL0     H28865  10.878   0.946  11.321 -1.4027 -1.0567 -0.0428
  955MOL0     H28866  11.166   0.848  11.364  2.7732  1.0344 -2.2164
  955MOL0     H28867  11.108   0.948  11.231 -1.0068  2.0907  0.5569
  955MOL0     H28868  11.048   1.130  11.380 -0.4764  1.4398  1.2149
  955MOL0     H28869  11.100   1.037  11.520 -0.5908 -1.2319 -0.0111
  955MOL0     H28870  11.335   1.025  11.421  1.4866  1.3552 -0.9317
  955MOL0     H28871  11.269   1.107  11.286 -1.9097 -2.0231 -0.0381
  955MOL0     H28872  11.234   1.310  11.407  0.5161 -0.5760 -0.5888
  955MOL0     H28873  11.397   1.245  11.433  0.5293 -3.1188 -1.7530
  955MOL0     H28874  11.179   1.250  11.620 -0.0994  0.7012 -1.8841
  955MOL0     H28875  11.292   1.117  11.645 -1.3463 -0.1361  1.4001
  955MOL0     H28876  11.447   1.449  11.536 -0.9301 -1.0477 -0.8976
  955MOL0     H28877  11.574   1.650  11.652  1.8176  0.9589  0.5234
  955MOL0     H28878  11.480   1.685  11.790  3.9199  3.2681 -1.1355
  955MOL0     H28879  11.637   1.605  11.947  2.0467 -1.9378  1.2341
  955MOL0     H28880  11.729   1.516  11.813  2.4779  1.3527  2.3906
  955MOL0     H28881  11.701   1.818  11.824 -0.1466  0.2864 -0.2918
  955MOL0     H28882  11.796   1.726  11.709 -1.1606 -0.0080 -0.8184
  955MOL0     H28883  11.842   1.789  12.005 -1.1268  0.0289 -0.9316
  955MOL0     H28884  11.949   1.832  11.868 -0.4580  0.8705 -1.5912
  955MOL0     H28885  12.000   1.841  12.096 -1.9809 -1.4666  1.3469
  955MOL0     H28886  12.177   1.857  12.279 -2.8652 -0.2117  1.0385
  955MOL0     H28887  12.402   1.441  12.577 -0.7766  0.6880  1.5390
  955MOL0     H28888  12.584   1.394  12.752  1.2651 -0.4241 -0.5787
  955MOL0     H28889  12.991   1.557  12.764  1.4708  1.5556  1.5605
  955MOL0     H28890  12.887   1.702  12.765 -0.3419  1.6208  2.4597
  955MOL0     H28891  12.928   1.509  12.990 -0.3427 -0.3042 -1.5021
  955MOL0     H28892  12.979   1.683  12.978 -2.1394  2.4296  2.4068
  955MOL0     H28893  12.749   1.768  12.964  1.8313  1.6307  3.0222
  955MOL0     H28894  12.692   1.596  12.993 -1.7036  0.7895  2.3627
  955MOL0     H28895  12.872   1.747  13.184  1.4367 -1.1098 -1.0490
  955MOL0     H28896  12.796   1.595  13.198  1.1060  0.0360  0.0139
  955MOL0     H28897  12.575   1.749  13.115 -1.0400 -0.0870  0.0162
  955MOL0     H28898  12.662   1.875  13.190 -2.4503 -0.0255  2.3319
  955MOL0     H28899  12.585   1.618  13.347 -0.8562  0.6945 -0.7367
  955MOL0     H28900  12.688   1.735  13.407  1.2797 -1.0896 -1.7961
  955MOL0     H28901  12.429   1.820  13.304  2.5127  0.0442 -1.1736
  955MOL0     H28902  12.525   1.906  13.422 -0.0753 -0.2851  0.3791
  955MOL0     H28903  12.350   1.806  13.555  0.8985 -0.0933  1.9353
  955MOL0     H28904  12.379   1.647  13.480 -2.2545  0.9032 -0.0157
  955MOL0     H28905  12.852   1.643  12.551  0.8315  0.0694  0.5857
  955MOL0     H28906  12.699   1.691  12.381 -2.7344 -1.4405 -2.3299
  955MOL0     H28907  12.329   1.487  12.158  1.3265  0.6108 -0.2743
  955MOL0     H28908  12.154   1.460  11.982 -2.1096  1.2060 -1.3911
  955MOL0     H28909  10.646   0.466  11.013 -0.0900 -0.2129 -0.5831
  955MOL0     H28910  10.403   0.447  10.955  1.6568 -0.4099 -0.5596
  955MOL0     H28911   9.883   0.763  11.141  0.8423  0.4791  1.4653
  955MOL0     H28912   9.637   0.719  11.084 -0.4770 -1.0973  0.3437
  955MOL0     H28913   9.555   0.386  10.808 -1.0890  0.7665 -1.2069
  955MOL0     H28914   9.390   0.434  10.856 -1.6971 -2.8446  2.5019
  955MOL0     H28915   9.560   0.256  11.024 -1.1713 -1.3915  1.6125
  955MOL0     H28916   9.418   0.215  10.923 -2.7633 -0.4937  0.2503
  955MOL0     H28917   9.275   0.378  11.054 -0.1907 -1.8616 -1.1676
  955MOL0     H28918   9.416   0.405  11.162  0.5698  1.1361 -0.2470
  955MOL0     H28919   9.230   0.239  11.231  0.4925 -1.9214 -0.2266
  955MOL0     H28920   9.292   0.129  11.119 -0.1709  1.5904 -2.0689
  955MOL0     H28921   9.589   0.100  11.431  0.8505 -1.0210 -0.9734
  955MOL0     H28922   9.735   0.330  10.941 -0.1105  0.2082 -0.7146
  955MOL0     H28923   9.939   0.231  10.988  0.0940 -1.0410  0.3378
  955MOL0     H28924  10.077   0.330  10.951  0.7775 -3.3092  0.4765
  955MOL0     H28925  10.037   0.304  11.116 -4.8490  1.4456  2.4923
  956MOL0     O28926   6.005   8.441   4.294  0.2274  0.4402 -0.1196
  956MOL0     C28927   5.990   8.326   4.241 -0.0443 -0.6293 -0.0030
  956MOL0     O28928   6.095   8.228   4.230 -0.0106  0.1876  0.5257
  956MOL0     C28929   6.228   8.270   4.213  0.3829 -0.0014 -0.5788
  956MOL0     C28930   6.252   8.378   4.129  0.3918  0.0543 -0.5599
  956MOL0     C28931   6.381   8.422   4.110  0.3277  0.5931 -0.3835
  956MOL0     C28932   6.489   8.352   4.159 -0.2385 -0.0820  0.6695
  956MOL0     O28933   6.621   8.390   4.122  0.0880 -0.2529 -0.6373
  956MOL0     C28934   6.656   8.528   4.088 -0.7773  0.3667 -0.8023
  956MOL0     C28935   6.812   8.533   4.076  0.3821 -0.1111  0.0078
  956MOL0     C28936   6.861   8.671   4.097  0.1687  0.1454  0.7335
  956MOL0     C28937   7.006   8.688   4.037  0.1906 -1.1468  0.1563
  956MOL0     C28938   7.105   8.613   4.121  0.7481  0.4650 -0.4840
  956MOL0     C28939   7.245   8.629   4.060  0.6832 -0.1254 -0.1753
  956MOL0     C28940   7.352   8.573   4.153  0.0052 -0.2323 -0.1633
  956MOL0     C28941   7.491   8.572   4.097 -0.0374 -1.2926 -0.0370
  956MOL0     N28942   7.546   8.715   4.117  0.2526 -0.6751 -0.1948
  956MOL0     C28943   7.623   8.754   4.230  0.0254 -0.2226  0.4356
  956MOL0     C28944   7.664   8.879   4.189 -1.4227  0.8514  0.1090
  956MOL0     C28945   7.748   8.962   4.280 -0.0091 -1.0594  0.6953
  956MOL0     C28946   7.835   9.064   4.211 -0.2282 -0.6877  0.5079
  956MOL0     C28947   7.972   9.019   4.154  0.7534 -0.2714  0.3320
  956MOL0     C28948   7.973   8.900   4.053  0.4234 -0.1436 -0.3180
  956MOL0     O28949   8.101   8.847   4.008  0.9686 -1.8470  0.3121
  956MOL0     C28950   8.184   8.936   3.939  0.3037  1.1073  0.3367
  956MOL0     C28951   8.162   9.035   3.843  0.2907  0.2216 -0.0454
  956MOL0     C28952   8.265   9.126   3.812 -0.3855 -0.2363  0.1623
  956MOL0     C28953   8.388   9.112   3.860 -0.7900  0.5159  0.3414
  956MOL0     C28954   8.485   9.215   3.808 -0.5407  0.6132 -0.3635
  956MOL0     O28955   8.617   9.198   3.842  0.4328 -0.4349  0.0391
  956MOL0     C28956   8.706   9.298   3.852  0.6795  0.4341  0.0553
  956MOL0     C28957   8.844   9.258   3.864  0.4000 -0.2486  0.2838
  956MOL0     C28958   8.945   9.349   3.871 -0.3230 -0.2550  0.7870
  956MOL0     C28959   8.919   9.485   3.867 -0.3907 -0.5436 -0.2752
  956MOL0     O28960   9.014   9.585   3.874 -0.2341 -0.4364 -0.3199
  956MOL0     C28961   9.155   9.550   3.883 -0.4825 -0.8852 -0.6384
  956MOL0     C28962   9.258   9.669   3.881  0.3935  0.1328 -0.2409
  956MOL0     C28963   9.261   9.731   3.736  0.1368  0.5807 -0.1734
  956MOL0     C28964   9.371   9.840   3.735 -0.1588  0.1822  0.7619
  956MOL0     C28965   9.417   9.881   3.593  0.7487 -0.6699 -0.0937
  956MOL0     C28966   9.537   9.974   3.581  0.3435 -0.2940  0.3187
  956MOL0     C28967   9.569  10.016   3.442 -0.7352 -0.3246 -0.0123
  956MOL0     C28968   9.695   9.959   3.399 -0.1589  0.5780  0.7946
  956MOL0    Cl28969   9.846  10.012   3.500  0.0825 -0.1794 -0.2864
  956MOL0     C28970   8.789   9.524   3.852 -1.1837  0.0869 -0.0078
  956MOL0     C28971   8.673   9.435   3.848 -0.2713 -1.1163 -1.0788
  956MOL0     O28972   8.441   9.301   3.729 -0.5259 -0.0096 -0.2348
  956MOL0     C28973   8.419   9.006   3.934 -0.8130  0.1973  0.2103
  956MOL0     C28974   8.320   8.918   3.977  0.4300  0.6633  0.3549
  956MOL0     N28975   7.624   8.906   4.062  1.2260  0.1737  0.0995
  956MOL0     N28976   7.554   8.812   4.015 -0.1224  0.5728 -0.0026
  956MOL0     C28977   6.467   8.227   4.234  0.9060 -0.5650  0.5000
  956MOL0     C28978   6.328   8.199   4.272 -0.2958  1.0534 -0.7626
  956MOL0     C28979   5.856   8.306   4.180 -0.4223 -0.4900 -0.2123
  956MOL0     C28980   5.846   8.193   4.091  0.9168 -0.4717 -0.2748
  956MOL0     C28981   5.730   8.162   4.027 -0.0397 -0.5113 -0.4525
  956MOL0     C28982   5.622   8.248   4.037 -0.5473 -0.7341  0.0668
  956MOL0     O28983   5.496   8.227   3.978 -0.6951 -0.5950  0.0885
  956MOL0     C28984   5.486   8.129   3.870  0.6650 -0.3252 -0.7480
  956MOL0     C28985   5.362   8.134   3.783 -0.1432 -0.1812  0.6103
  956MOL0     C28986   5.298   8.276   3.769  0.4057 -0.5498 -0.6980
  956MOL0     C28987   5.208   8.311   3.651  0.2972 -0.3086  0.8337
  956MOL0     C28988   5.099   8.214   3.620  0.2193 -0.0562 -0.1395
  956MOL0     C28989   4.991   8.157   3.598  0.2531  0.0592  0.4539
  956MOL0     C28990   5.628   8.357   4.114 -0.1590  0.3523 -0.8885
  956MOL0     C28991   5.739   8.392   4.193 -0.1577 -0.0393  0.2212
  956MOL0     C28992   5.727   8.500   4.298 -0.3962  0.7905  0.0512
  956MOL0     H28993   6.169   8.432   4.085 -2.2883 -1.5419  2.1748
  956MOL0     H28994   6.413   8.502   4.044  2.0684 -1.1043 -1.7277
  956MOL0     H28995   6.617   8.558   3.990  2.4701 -0.2149 -2.4195
  956MOL0     H28996   6.617   8.588   4.171 -0.0709 -0.6010  0.2641
  956MOL0     H28997   6.845   8.509   3.975  0.0736  1.0285 -0.3767
  956MOL0     H28998   6.864   8.455   4.133  0.9159 -1.4509 -2.2164
  956MOL0     H28999   6.859   8.695   4.204 -0.8617 -2.2962  1.3437
  956MOL0     H29000   6.797   8.742   4.045  0.7893  0.5104  0.4540
  956MOL0     H29001   7.025   8.651   3.936  2.0401 -0.8301  0.3483
  956MOL0     H29002   7.024   8.796   4.027  1.6582 -1.4908 -1.4498
  956MOL0     H29003   7.105   8.653   4.223  0.3380  0.3004 -0.4195
  956MOL0     H29004   7.072   8.509   4.129  0.0098  0.5924 -1.6719
  956MOL0     H29005   7.238   8.584   3.961 -4.0093 -1.8864  0.6710
  956MOL0     H29006   7.263   8.736   4.044 -4.4845  1.3253  1.4637
  956MOL0     H29007   7.341   8.466   4.168  0.0435 -0.4523 -1.5193
  956MOL0     H29008   7.347   8.618   4.252  2.6521 -0.5066  0.1592
  956MOL0     H29009   7.553   8.490   4.133  0.9435 -1.9623 -2.9677
  956MOL0     H29010   7.485   8.552   3.989  0.0136 -0.6170 -0.1720
  956MOL0     H29011   7.641   8.714   4.329  3.3168  0.4107  0.2232
  956MOL0     H29012   7.675   9.002   4.352 -0.9616  0.3109 -0.9689
  956MOL0     H29013   7.817   8.899   4.337  1.1217 -0.0416  0.4748
  956MOL0     H29014   7.781   9.114   4.130  4.2959  2.2565 -1.0731
  956MOL0     H29015   7.851   9.132   4.295  1.0467 -0.5397  0.1634
  956MOL0     H29016   8.027   8.986   4.243  0.0790 -1.1588  0.4283
  956MOL0     H29017   8.035   9.098   4.114 -0.5373  0.9691  0.6479
  956MOL0     H29018   7.908   8.917   3.966 -0.2920 -0.3818  0.1611
  956MOL0     H29019   7.917   8.823   4.106 -1.5846  0.8241 -0.9174
  956MOL0     H29020   8.060   9.048   3.808 -0.4703  4.3257  3.0045
  956MOL0     H29021   8.233   9.203   3.744 -1.3167  1.0922  2.0140
  956MOL0     H29022   8.870   9.153   3.856 -3.2676 -1.1592 -2.6224
  956MOL0     H29023   9.048   9.316   3.871 -0.2455 -0.3967 -2.8283
  956MOL0     H29024   9.176   9.500   3.978 -0.4528 -1.0823 -0.7482
  956MOL0     H29025   9.178   9.481   3.801  0.2064 -0.8982 -0.4401
  956MOL0     H29026   9.223   9.743   3.953 -2.3084 -0.4259 -0.8564
  956MOL0     H29027   9.358   9.638   3.913  1.4201 -2.9957 -5.2672
  956MOL0     H29028   9.294   9.649   3.672  0.8328  0.9017 -0.2459
  956MOL0     H29029   9.163   9.768   3.704 -1.3578 -0.8682  2.4110
  956MOL0     H29030   9.466   9.800   3.771 -0.1523 -1.1402 -0.6368
  956MOL0     H29031   9.332   9.928   3.786 -0.7391  1.4535 -1.7501
  956MOL0     H29032   9.329   9.920   3.540 -1.5171 -3.1800  1.5794
  956MOL0     H29033   9.448   9.792   3.537  3.4242 -1.4449  2.3474
  956MOL0     H29034   9.508  10.062   3.639 -0.7601  0.4189 -1.2549
  956MOL0     H29035   9.617   9.926   3.639  0.7696  1.7216  1.5016
  956MOL0     H29036   9.586  10.124   3.434 -0.1514 -0.4202 -0.0986
  956MOL0     H29037   9.491   9.992   3.369 -1.4472  1.2379  0.1866
  956MOL0     H29038   9.694   9.850   3.394  1.0939  0.6199 -2.1914
  956MOL0     H29039   9.717   9.990   3.297 -1.4916 -1.8366 -0.3080
  956MOL0     H29040   8.783   9.631   3.835  0.2368  0.1118 -0.4790
  956MOL0     H29041   8.574   9.477   3.845  0.9241  1.9467 -3.6181
  956MOL0     H29042   8.517   8.978   3.971 -1.9449 -2.4246  1.4335
  956MOL0     H29043   8.348   8.822   4.020 -5.7511 -0.6352  2.3986
  956MOL0     H29044   6.553   8.175   4.277  3.8348  1.8772 -1.9220
  956MOL0     H29045   6.300   8.111   4.330 -2.8851  1.7868 -0.7511
  956MOL0     H29046   5.926   8.120   4.077 -0.5908 -2.6209  1.5600
  956MOL0     H29047   5.725   8.076   3.961  0.9947 -1.7712  1.0467
  956MOL0     H29048   5.491   8.032   3.919  2.0341  0.8711  1.6473
  956MOL0     H29049   5.576   8.133   3.807  2.3307  0.5799  1.5565
  956MOL0     H29050   5.285   8.068   3.824  0.3262 -1.2653 -0.1957
  956MOL0     H29051   5.386   8.092   3.685  1.0717 -0.5307  1.0384
  956MOL0     H29052   5.363   8.364   3.776 -1.2844  0.7330 -0.2712
  956MOL0     H29053   5.226   8.286   3.851  0.8128  0.6862 -0.4699
  956MOL0     H29054   5.160   8.408   3.667  0.7764  0.0348  0.1954
  956MOL0     H29055   5.282   8.319   3.571  2.5849  3.3571  3.0313
  956MOL0     H29056   4.898   8.112   3.573  0.8767 -1.4498  0.7599
  956MOL0     H29057   5.532   8.405   4.127  0.0528  0.1489  1.9519
  956MOL0     H29058   5.731   8.437   4.388  0.9367  1.7854  0.7198
  956MOL0     H29059   5.813   8.566   4.310  2.4379 -2.7457  1.0169
  956MOL0     H29060   5.629   8.546   4.285 -1.9314 -2.3308 -0.4183
  957MOL0     O29061   5.668   2.277   4.384 -0.6400  1.0679 -0.4655
  957MOL0     C29062   5.662   2.368   4.301 -0.0291  0.1965  0.3243
  957MOL0     O29063   5.747   2.472   4.290 -0.3937  0.1301 -0.0510
  957MOL0     C29064   5.869   2.446   4.353  0.1082 -0.3465 -0.2918
  957MOL0     C29065   5.980   2.396   4.287 -0.2140 -0.4794  0.5298
  957MOL0     C29066   6.105   2.364   4.348  0.1332 -0.1750 -0.1484
  957MOL0     C29067   6.111   2.370   4.487 -0.1242  0.1510 -0.0386
  957MOL0     O29068   6.222   2.336   4.566  0.0381  0.1105 -0.4517
  957MOL0     C29069   6.348   2.364   4.508 -0.2011 -0.1792 -0.9317
  957MOL0     C29070   6.445   2.299   4.610 -0.0045 -0.7905  0.6716
  957MOL0     C29071   6.442   2.148   4.578  0.2006  0.0301  0.1748
  957MOL0     C29072   6.556   2.074   4.654  0.1154 -0.6113 -0.6017
  957MOL0     C29073   6.544   1.922   4.637 -0.6011  1.1420  0.0409
  957MOL0     C29074   6.551   1.862   4.496  0.6585  0.4948 -0.7739
  957MOL0     C29075   6.667   1.921   4.412  0.3010  0.7050 -0.2081
  957MOL0     C29076   6.713   1.824   4.300  0.0173  1.0593 -0.3007
  957MOL0     N29077   6.809   1.909   4.222  0.4315 -0.1823  0.0275
  957MOL0     C29078   6.930   1.957   4.264  0.3805  0.2327  0.5493
  957MOL0     C29079   6.965   2.042   4.169  0.6069  0.4636  0.0005
  957MOL0     C29080   7.091   2.116   4.159  0.3177 -0.0665 -0.8611
  957MOL0     C29081   7.079   2.258   4.202 -0.0297 -0.1726 -0.5821
  957MOL0     C29082   7.187   2.291   4.294 -0.7779 -0.4501 -0.2020
  957MOL0     C29083   7.340   2.256   4.251  0.4295 -0.6834 -0.1667
  957MOL0     O29084   7.432   2.348   4.313 -0.7465 -0.6450  0.0333
  957MOL0     C29085   7.567   2.330   4.298 -0.3979  0.8307  0.1236
  957MOL0     C29086   7.643   2.433   4.339 -0.4228  0.2023  0.5663
  957MOL0     C29087   7.784   2.427   4.325 -0.1737 -1.1147 -0.6981
  957MOL0     C29088   7.845   2.314   4.279 -0.0839 -0.9039 -0.5761
  957MOL0     C29089   7.993   2.301   4.276 -0.0130  0.4651 -0.2753
  957MOL0     O29090   8.049   2.188   4.209 -0.5594 -0.7741 -0.7494
  957MOL0     C29091   8.188   2.179   4.213 -0.1173 -0.8145 -0.5345
  957MOL0     C29092   8.272   2.166   4.101 -0.0924  0.0948  0.4684
  957MOL0     C29093   8.414   2.146   4.120  0.8102 -0.8417 -0.9741
  957MOL0     C29094   8.472   2.139   4.243 -0.3248  0.2364 -1.0791
  957MOL0     O29095   8.607   2.122   4.242  0.2174  0.1611  0.6172
  957MOL0     C29096   8.678   2.130   4.363 -0.2388 -0.2374  0.1037
  957MOL0     C29097   8.821   2.186   4.343 -0.0630  0.9274  0.5962
  957MOL0     C29098   8.815   2.321   4.279 -0.3468 -0.3052 -0.1062
  957MOL0     C29099   8.892   2.436   4.351  0.6913  0.4079  0.5458
  957MOL0     C29100   8.887   2.571   4.275  0.4772  0.2109  0.0727
  957MOL0     C29101   8.983   2.675   4.331  0.3509 -0.3823 -0.4009
  957MOL0     C29102   9.125   2.682   4.266  0.0584  0.3276  0.3640
  957MOL0     C29103   9.211   2.554   4.282  0.2873 -0.1835 -0.2720
  957MOL0    Cl29104   9.263   2.542   4.452  0.3177 -0.1814  0.1221
  957MOL0     C29105   8.386   2.132   4.348 -0.0869 -0.5232  0.3360
  957MOL0     C29106   8.249   2.154   4.340 -0.1398  0.1908  0.6769
  957MOL0     O29107   8.061   2.386   4.336  0.1852 -0.3855 -0.2317
  957MOL0     C29108   7.772   2.207   4.240  0.2199  0.2748 -0.0475
  957MOL0     C29109   7.631   2.218   4.241 -0.0470 -0.6867  0.0406
  957MOL0     N29110   6.857   2.050   4.070  0.0370  0.3251 -0.1223
  957MOL0     N29111   6.762   1.970   4.107 -0.2674 -0.3192 -0.3319
  957MOL0     C29112   5.999   2.414   4.552  0.4670  0.7514 -1.3205
  957MOL0     C29113   5.880   2.456   4.495  0.0681  0.1026  0.0726
  957MOL0     C29114   5.536   2.370   4.222 -0.7233 -0.3826  0.9409
  957MOL0     C29115   5.548   2.376   4.086  0.0045 -0.3036  0.3801
  957MOL0     C29116   5.431   2.393   4.003 -0.4528 -0.4734 -0.5355
  957MOL0     C29117   5.313   2.434   4.066 -0.6206 -0.2415  0.4765
  957MOL0     O29118   5.219   2.490   3.988 -0.4287 -0.0980 -0.2017
  957MOL0     C29119   5.124   2.584   4.042 -0.1491 -0.1109 -0.2319
  957MOL0     C29120   5.000   2.504   4.082  0.4078 -0.3179  0.0104
  957MOL0     C29121   4.892   2.589   4.154 -0.9194 -0.2893 -0.7663
  957MOL0     C29122   4.807   2.518   4.264 -0.1699 -0.4702  0.0468
  957MOL0     C29123   4.701   2.593   4.318  0.4196  0.2887  0.1944
  957MOL0     C29124   4.617   2.674   4.365  0.3273  0.1295  0.1217
  957MOL0     C29125   5.303   2.416   4.209 -0.3877  0.3411 -0.5243
  957MOL0     C29126   5.412   2.395   4.285 -1.4663  0.2755 -0.5819
  957MOL0     C29127   5.398   2.371   4.433 -0.6125 -0.3788 -0.6552
  957MOL0     H29128   5.964   2.382   4.181 -3.0424  0.3565  0.7384
  957MOL0     H29129   6.186   2.326   4.287  0.1343  2.3401 -1.8756
  957MOL0     H29130   6.365   2.307   4.416  1.7387 -1.8056  0.3410
  957MOL0     H29131   6.356   2.473   4.505 -0.0370 -0.2027 -1.4638
  957MOL0     H29132   6.413   2.313   4.714  0.8023  2.4911  0.5575
  957MOL0     H29133   6.541   2.347   4.592 -1.3277  1.7026 -0.2357
  957MOL0     H29134   6.450   2.132   4.471 -1.3040  1.9227 -0.2794
  957MOL0     H29135   6.349   2.106   4.619 -1.3650  1.8057 -1.3461
  957MOL0     H29136   6.648   2.110   4.607  0.9374 -1.2749  0.4529
  957MOL0     H29137   6.562   2.092   4.761  0.6218 -1.6530 -0.4433
  957MOL0     H29138   6.623   1.877   4.697 -1.2798 -1.5241 -0.9337
  957MOL0     H29139   6.447   1.891   4.676 -0.9408  0.7022 -1.0902
  957MOL0     H29140   6.563   1.754   4.505  1.3867  0.5149 -1.3968
  957MOL0     H29141   6.457   1.881   4.444 -1.6368 -2.0804  2.0450
  957MOL0     H29142   6.756   1.956   4.465  1.3177 -1.5221 -0.3422
  957MOL0     H29143   6.632   2.014   4.366 -5.1441  0.1468  2.0275
  957MOL0     H29144   6.773   1.743   4.344 -1.9146  0.3685  1.2278
  957MOL0     H29145   6.617   1.796   4.258  0.7455 -1.5283 -0.4163
  957MOL0     H29146   6.982   1.918   4.352 -0.8393  1.3500  1.8226
  957MOL0     H29147   7.164   2.063   4.221  0.2049  0.8685  0.0799
  957MOL0     H29148   7.133   2.105   4.059  0.7207  2.0570 -0.9565
  957MOL0     H29149   7.057   2.324   4.118 -2.0484 -0.9750 -0.7386
  957MOL0     H29150   6.991   2.269   4.266 -0.8254 -1.9295 -1.2943
  957MOL0     H29151   7.172   2.260   4.398  1.7115 -0.8190  0.1039
  957MOL0     H29152   7.174   2.398   4.312 -2.2154 -0.6052 -0.2107
  957MOL0     H29153   7.353   2.264   4.143  1.6273 -1.1385 -0.0788
  957MOL0     H29154   7.364   2.153   4.279  0.1854 -0.7090 -0.0461
  957MOL0     H29155   7.597   2.517   4.391  0.4806  1.9645 -1.3214
  957MOL0     H29156   7.836   2.512   4.369  1.8310 -3.0447  0.9303
  957MOL0     H29157   8.235   2.194   4.003 -1.8380 -0.4697  0.9388
  957MOL0     H29158   8.474   2.140   4.030 -0.1820 -2.0431 -1.5820
  957MOL0     H29159   8.624   2.205   4.423 -1.3856  1.8522 -3.2161
  957MOL0     H29160   8.690   2.038   4.420 -1.6885 -0.7205 -0.3275
  957MOL0     H29161   8.878   2.197   4.436  0.7605  1.4704  0.0472
  957MOL0     H29162   8.872   2.111   4.281 -2.5262 -2.0402  1.8858
  957MOL0     H29163   8.851   2.311   4.176  0.4206 -1.3626  0.2498
  957MOL0     H29164   8.709   2.350   4.278 -0.0571  0.7939 -0.6943
  957MOL0     H29165   8.994   2.404   4.370  0.1684 -2.1043 -0.4927
  957MOL0     H29166   8.852   2.440   4.453 -2.6296  0.0696 -0.5946
  957MOL0     H29167   8.786   2.608   4.293  1.0947  1.3807  1.2049
  957MOL0     H29168   8.905   2.555   4.168  1.5628  0.0672  0.2648
  957MOL0     H29169   8.924   2.766   4.313  1.6407  1.0637  2.0853
  957MOL0     H29170   8.989   2.668   4.440 -1.8281 -2.0215 -0.3410
  957MOL0     H29171   9.179   2.768   4.306 -2.0647  2.3062 -0.7656
  957MOL0     H29172   9.115   2.688   4.157 -1.5153 -2.2498  0.2747
  957MOL0     H29173   9.158   2.465   4.247 -0.3408  0.1132 -0.0920
  957MOL0     H29174   9.296   2.567   4.214  1.4750  1.4360  1.4196
  957MOL0     H29175   8.427   2.092   4.440  1.4824 -0.7544 -0.4285
  957MOL0     H29176   8.184   2.148   4.426  1.3120  0.8532  1.8598
  957MOL0     H29177   7.808   2.111   4.207 -1.3873  0.5546 -2.9386
  957MOL0     H29178   7.585   2.128   4.200  0.4691 -0.1430 -1.8636
  957MOL0     H29179   6.009   2.420   4.660  1.9959 -4.5826 -0.8793
  957MOL0     H29180   5.793   2.492   4.549 -0.7736 -1.4648 -0.1752
  957MOL0     H29181   5.643   2.375   4.035 -0.0709 -2.0933  0.2022
  957MOL0     H29182   5.442   2.406   3.896  0.5552 -0.4970 -0.4405
  957MOL0     H29183   5.091   2.665   3.975 -0.4276  0.9630  1.1676
  957MOL0     H29184   5.161   2.638   4.129  1.1882  0.7743 -1.2947
  957MOL0     H29185   5.013   2.418   4.148 -2.4012 -1.6596 -1.0328
  957MOL0     H29186   4.944   2.468   3.994  2.4626 -2.3402 -0.5727
  957MOL0     H29187   4.824   2.621   4.074  0.0881 -1.7900 -2.2890
  957MOL0     H29188   4.927   2.683   4.199 -4.4481  0.6195  0.4304
  957MOL0     H29189   4.775   2.418   4.230  5.0310 -2.1881 -0.6708
  957MOL0     H29190   4.871   2.497   4.350 -0.8259 -1.0116  0.4200
  957MOL0     H29191   4.547   2.743   4.407 -1.0709 -0.9541 -0.3524
  957MOL0     H29192   5.206   2.417   4.259  1.4585 -3.1838  3.7609
  957MOL0     H29193   5.441   2.277   4.469 -1.9000 -0.8311 -0.2230
  957MOL0     H29194   5.438   2.451   4.496 -1.1551 -0.7409  0.1823
  957MOL0     H29195   5.295   2.356   4.468  0.2928 -0.7765  2.1141
  958MOL0     O29196   8.158   5.237   0.052  0.0609  0.2996  1.2614
  958MOL0     C29197   8.219   5.186   0.149  0.2724 -0.3202  0.7844
  958MOL0     O29198   8.315   5.245   0.219  0.0617  0.0659 -0.2001
  958MOL0     C29199   8.376   5.358   0.175 -0.4784  0.7793 -0.5843
  958MOL0     C29200   8.467   5.354   0.065  0.7418  0.3910 -0.3012
  958MOL0     C29201   8.539   5.461   0.025  0.8796 -0.6554 -0.3744
  958MOL0     C29202   8.524   5.584   0.091  0.6064  0.0292 -0.0209
  958MOL0     O29203   8.587   5.700   0.058 -0.2630  0.5233 -0.3386
  958MOL0     C29204   8.711   5.682  -0.014 -0.1797  0.1837 -0.5223
  958MOL0     C29205   8.793   5.815  -0.015  0.7090 -0.5009 -0.4646
  958MOL0     C29206   8.875   5.826   0.106 -0.5671 -0.5605  0.5882
  958MOL0     C29207   8.932   5.969   0.107 -0.2077 -0.4906  0.4477
  958MOL0     C29208   9.062   5.970   0.204  0.1191  1.1801  0.0756
  958MOL0     C29209   9.109   6.115   0.198 -0.2789 -1.1924 -0.2895
  958MOL0     C29210   9.234   6.128   0.299  0.7143 -0.3959 -0.3272
  958MOL0     C29211   9.202   6.118   0.444  0.0568 -0.7039 -1.3422
  958MOL0     N29212   9.324   6.140   0.519 -0.4673  0.5468  0.1735
  958MOL0     C29213   9.365   6.260   0.578 -0.0371 -0.1880  0.5232
  958MOL0     C29214   9.497   6.248   0.592 -0.2897  0.1378 -0.6335
  958MOL0     C29215   9.584   6.350   0.642 -0.0181 -0.8044 -0.7155
  958MOL0     C29216   9.514   6.443   0.751  0.3630 -0.5977  0.0464
  958MOL0     C29217   9.621   6.483   0.854  0.7285  0.9153 -0.6062
  958MOL0     C29218   9.738   6.572   0.799  0.4394 -0.6062 -0.3859
  958MOL0     O29219   9.850   6.489   0.778  0.3151  1.0386  0.2844
  958MOL0     C29220   9.968   6.542   0.756 -0.2729  0.3730 -0.6071
  958MOL0     C29221  10.008   6.673   0.725 -0.1852 -0.1038 -0.2818
  958MOL0     C29222  10.138   6.709   0.707  0.2956 -0.4180  0.3219
  958MOL0     C29223  10.241   6.617   0.724  0.9487  0.2035 -0.7466
  958MOL0     C29224  10.381   6.661   0.716  0.0417 -0.1923 -0.0795
  958MOL0     O29225  10.398   6.789   0.668 -0.1039 -0.6873 -0.0199
  958MOL0     C29226  10.521   6.851   0.629  0.0384  0.5598  0.2412
  958MOL0     C29227  10.655   6.803   0.679 -0.1138  0.0129 -0.0791
  958MOL0     C29228  10.764   6.874   0.624 -0.0369 -0.2058 -0.4602
  958MOL0     C29229  10.744   6.984   0.537  0.7403  0.3003 -0.6975
  958MOL0     O29230  10.844   7.049   0.481  0.1963 -0.8608  0.4159
  958MOL0     C29231  10.954   7.093   0.568 -0.4029  0.5795  0.4158
  958MOL0     C29232  10.977   7.244   0.558 -1.0472  1.0569  0.1819
  958MOL0     C29233  11.088   7.286   0.455  0.5824 -0.3412 -0.2601
  958MOL0     C29234  11.055   7.244   0.308  0.3554  0.1473 -0.8082
  958MOL0     C29235  11.148   7.316   0.202  0.0368  0.7629 -0.5213
  958MOL0     C29236  11.100   7.294   0.062  1.2722  0.0183 -0.0562
  958MOL0     C29237  11.212   7.275  -0.043  0.7174  0.9791 -0.4885
  958MOL0     C29238  11.144   7.244  -0.176  0.8758 -0.0790 -0.1202
  958MOL0    Cl29239  11.283   7.236  -0.276 -0.2450 -0.3242  0.0707
  958MOL0     C29240  10.617   7.016   0.495  0.3000 -0.8198 -0.1852
  958MOL0     C29241  10.504   6.953   0.546 -0.0663 -1.1474  0.9171
  958MOL0     O29242  10.465   6.570   0.730 -0.5832 -0.1089  0.1463
  958MOL0     C29243  10.206   6.484   0.762  0.5166  0.3162 -0.3666
  958MOL0     C29244  10.072   6.449   0.776  0.1425  0.4573 -0.1760
  958MOL0     N29245   9.531   6.124   0.546  0.3115 -0.3774 -0.5414
  958MOL0     N29246   9.434   6.061   0.508  0.4238  0.0314  0.3029
  958MOL0     C29247   8.447   5.589   0.203  0.5694  1.0301  1.0952
  958MOL0     C29248   8.368   5.479   0.246  0.3433  0.0136  0.7283
  958MOL0     C29249   8.190   5.051   0.187  0.1488  0.6129  0.0577
  958MOL0     C29250   8.120   5.023   0.305  0.3140  0.2943 -0.8001
  958MOL0     C29251   8.096   4.892   0.346  0.1542 -0.0784  0.0415
  958MOL0     C29252   8.140   4.781   0.268  0.6787  0.6975  0.3686
  958MOL0     O29253   8.091   4.655   0.288 -0.5104  1.0753  0.1954
  958MOL0     C29254   8.007   4.599   0.184 -0.5439  0.0083 -0.3930
  958MOL0     C29255   8.024   4.444   0.183 -0.4828 -0.3575  0.3662
  958MOL0     C29256   8.025   4.371   0.320 -0.8380 -0.4076  0.3157
  958MOL0     C29257   8.063   4.223   0.286 -0.1799  0.1133 -1.2441
  958MOL0     C29258   8.055   4.144   0.414 -0.0793  0.2835 -0.0274
  958MOL0     C29259   8.048   4.073   0.515  0.8575  0.1999 -0.1831
  958MOL0     C29260   8.215   4.808   0.149  0.3311 -0.2569 -0.8048
  958MOL0     C29261   8.249   4.942   0.118 -0.1922 -0.7034  0.4204
  958MOL0     C29262   8.350   4.957   0.005  0.1747  0.0855  0.2219
  958MOL0     H29263   8.469   5.258   0.013  2.4135  0.7741 -1.0366
  958MOL0     H29264   8.602   5.446  -0.063  0.6911  1.3821 -0.9091
  958MOL0     H29265   8.775   5.603   0.025  2.3359  1.9218 -0.9132
  958MOL0     H29266   8.684   5.654  -0.116 -1.4131 -3.2822  0.6107
  958MOL0     H29267   8.726   5.901  -0.023  0.4863 -0.4461  1.4618
  958MOL0     H29268   8.855   5.814  -0.105  0.0621 -0.4587 -0.9139
  958MOL0     H29269   8.960   5.756   0.108  0.2321  0.3389  3.9083
  958MOL0     H29270   8.813   5.796   0.190 -1.3959 -3.0850 -0.8304
  958MOL0     H29271   8.958   6.000   0.005 -0.3079  0.3134  0.6636
  958MOL0     H29272   8.852   6.030   0.147 -3.1884 -2.7773 -1.5331
  958MOL0     H29273   9.037   5.932   0.304  0.1302  1.9700  0.3843
  958MOL0     H29274   9.132   5.901   0.156 -0.1301  2.9507 -3.1171
  958MOL0     H29275   9.142   6.152   0.101 -1.4584 -1.0173 -0.6368
  958MOL0     H29276   9.027   6.176   0.238  1.0324  1.6034 -1.5870
  958MOL0     H29277   9.274   6.227   0.275  2.1728 -0.8854 -0.0070
  958MOL0     H29278   9.316   6.057   0.283  3.0520  1.4322  2.5281
  958MOL0     H29279   9.117   6.176   0.481 -0.2651 -2.5823  1.1943
  958MOL0     H29280   9.175   6.016   0.474  0.0556 -0.0138  1.2532
  958MOL0     H29281   9.306   6.347   0.606 -1.1056 -0.9799  0.8055
  958MOL0     H29282   9.668   6.315   0.701 -0.2673  0.4517  0.4270
  958MOL0     H29283   9.624   6.414   0.563 -0.1826  0.6377  0.3141
  958MOL0     H29284   9.475   6.532   0.701  0.1818  0.0499  1.3152
  958MOL0     H29285   9.425   6.392   0.791 -1.2156  0.4642 -1.8924
  958MOL0     H29286   9.658   6.391   0.899 -2.7301 -0.3550  0.0076
  958MOL0     H29287   9.567   6.540   0.930  1.2659 -0.3002  0.7272
  958MOL0     H29288   9.758   6.653   0.870 -3.9354 -0.1435  0.6150
  958MOL0     H29289   9.709   6.617   0.704  0.2035  0.0738 -0.0001
  958MOL0     H29290   9.939   6.752   0.697 -1.0803 -0.2965  1.2631
  958MOL0     H29291  10.156   6.813   0.682 -0.5445 -1.1230 -3.9370
  958MOL0     H29292  10.672   6.719   0.746  1.0927  1.4394  1.5022
  958MOL0     H29293  10.864   6.836   0.643  0.6761  1.2825 -1.1031
  958MOL0     H29294  10.940   7.062   0.672  1.5140 -0.3552  0.4382
  958MOL0     H29295  11.039   7.035   0.531 -0.1602  0.2185  1.5188
  958MOL0     H29296  10.885   7.299   0.534 -2.7571 -1.5057  0.4832
  958MOL0     H29297  11.000   7.282   0.658 -0.0473  1.9078 -0.3553
  958MOL0     H29298  11.102   7.394   0.467  5.8456 -0.8134 -0.0054
  958MOL0     H29299  11.186   7.245   0.483 -0.2950 -1.4504  1.3737
  958MOL0     H29300  10.948   7.262   0.302  0.0940  0.2998  2.6600
  958MOL0     H29301  11.066   7.135   0.305 -0.7920  0.0430 -2.2177
  958MOL0     H29302  11.248   7.273   0.212  0.0671  1.3085  2.1185
  958MOL0     H29303  11.145   7.420   0.235  0.3462  0.8528 -0.7758
  958MOL0     H29304  11.048   7.198   0.061  2.5409 -0.6903  0.0437
  958MOL0     H29305  11.033   7.379   0.045  1.7683  1.5182  4.3261
  958MOL0     H29306  11.267   7.185  -0.012 -0.0754 -0.0053 -1.8636
  958MOL0     H29307  11.271   7.366  -0.044  1.9579  0.1993 -0.5208
  958MOL0     H29308  11.096   7.146  -0.169  1.2254 -0.2727 -0.4161
  958MOL0     H29309  11.076   7.314  -0.226  1.0835 -0.3922 -0.8679
  958MOL0     H29310  10.589   7.100   0.432  1.9468 -0.6490 -0.7438
  958MOL0     H29311  10.406   6.991   0.516  1.1465  0.5009 -1.2259
  958MOL0     H29312  10.277   6.407   0.791 -3.2617 -2.5722  2.1519
  958MOL0     H29313  10.031   6.355   0.809  0.6985  0.8808  1.8387
  958MOL0     H29314   8.449   5.684   0.256  0.4003  1.2730  0.6700
  958MOL0     H29315   8.297   5.486   0.328 -2.2756 -1.2564 -1.2782
  958MOL0     H29316   8.088   5.111   0.359  2.8231 -0.0060  1.3529
  958MOL0     H29317   8.040   4.858   0.433 -0.7980 -0.8122 -0.8415
  958MOL0     H29318   8.017   4.644   0.085  0.3682  1.3640  0.2870
  958MOL0     H29319   7.901   4.604   0.208 -0.2947  0.2733  0.6952
  958MOL0     H29320   8.118   4.423   0.133 -0.4757 -0.4645  0.4245
  958MOL0     H29321   7.953   4.406   0.109  0.8502  2.8196 -2.8356
  958MOL0     H29322   7.930   4.389   0.371 -0.8875  2.5730 -0.6466
  958MOL0     H29323   8.106   4.405   0.385 -0.8056  1.0839 -0.4588
  958MOL0     H29324   8.008   4.180   0.201  1.5501 -2.9408 -0.9611
  958MOL0     H29325   8.164   4.228   0.245  1.0027 -1.5756  1.2187
  958MOL0     H29326   8.027   4.021   0.606  0.9531 -2.0292 -1.3842
  958MOL0     H29327   8.252   4.722   0.094  0.7649 -1.3259  1.0628
  958MOL0     H29328   8.328   5.046  -0.054 -0.4790 -0.3992 -0.2864
  958MOL0     H29329   8.451   4.967   0.045 -0.8803  4.0313  2.3273
  958MOL0     H29330   8.338   4.863  -0.051  0.8324 -0.6759  1.3218
  959MOL0     O29331   1.238   9.348   7.297 -0.2254  0.2913 -0.6599
  959MOL0     C29332   1.238   9.329   7.178 -0.2624  0.8740 -0.5953
  959MOL0     O29333   1.351   9.341   7.095 -0.0665  0.6254  0.2319
  959MOL0     C29334   1.455   9.436   7.111 -1.0867  0.6805 -0.0264
  959MOL0     C29335   1.579   9.418   7.027  0.3462  0.8054 -0.8626
  959MOL0     C29336   1.692   9.496   7.048  0.7598 -0.7709  0.9509
  959MOL0     C29337   1.699   9.587   7.156 -0.2561 -0.1562  0.3667
  959MOL0     O29338   1.817   9.649   7.198  0.0856 -0.1162  0.7330
  959MOL0     C29339   1.939   9.634   7.124 -0.1554  0.4418  0.4412
  959MOL0     C29340   2.019   9.505   7.167  0.9567  0.5190 -0.6198
  959MOL0     C29341   2.129   9.469   7.077 -0.5057  0.1874  0.2557
  959MOL0     C29342   2.244   9.388   7.146  0.0860 -0.2367  0.2972
  959MOL0     C29343   2.338   9.334   7.035 -0.8338 -0.2112  0.5093
  959MOL0     C29344   2.440   9.235   7.106  0.7293 -0.0496 -0.7682
  959MOL0     C29345   2.387   9.092   7.112  0.0871  0.6374 -0.1910
  959MOL0     C29346   2.435   9.006   6.992  0.0317  0.6936  0.1218
  959MOL0     N29347   2.570   9.005   6.949 -0.1516 -0.1314 -0.4556
  959MOL0     C29348   2.669   8.944   7.022  0.7635 -0.1314 -0.7372
  959MOL0     C29349   2.787   8.994   6.984 -0.8181  0.6666  0.3720
  959MOL0     C29350   2.928   8.958   7.025  0.4906  0.3072  0.4880
  959MOL0     C29351   3.017   8.917   6.897  1.3170  0.0708 -0.1133
  959MOL0     C29352   3.165   8.905   6.931 -0.9140  0.3150  0.3314
  959MOL0     C29353   3.255   8.885   6.808  0.7698  0.0755 -0.0717
  959MOL0     O29354   3.396   8.889   6.843 -0.2922 -0.2754  0.4511
  959MOL0     C29355   3.493   8.879   6.748  0.1540  0.1795  0.4698
  959MOL0     C29356   3.480   8.797   6.635  0.0526 -0.3245  0.1580
  959MOL0     C29357   3.583   8.779   6.540  0.0201 -0.3076  0.2023
  959MOL0     C29358   3.706   8.844   6.560 -0.4301  1.4050 -0.0807
  959MOL0     C29359   3.820   8.813   6.477  0.3157 -0.3963 -0.0211
  959MOL0     O29360   3.913   8.914   6.472 -0.1294 -0.1208 -0.2337
  959MOL0     C29361   4.017   8.896   6.388 -0.2346  0.3108 -0.1838
  959MOL0     C29362   4.035   8.984   6.276  0.0828 -0.3562 -0.2246
  959MOL0     C29363   4.134   8.955   6.181  0.1427 -0.7827 -0.6386
  959MOL0     C29364   4.209   8.839   6.195 -0.3605 -0.3116  0.4794
  959MOL0     O29365   4.302   8.799   6.100  0.0988  0.1147 -0.3131
  959MOL0     C29366   4.445   8.799   6.144  0.3480  0.0478  0.0076
  959MOL0     C29367   4.530   8.755   6.023 -1.2541 -0.6779 -0.0761
  959MOL0     C29368   4.686   8.725   6.060  0.0789 -0.5368 -0.5314
  959MOL0     C29369   4.778   8.737   5.938  1.2871  0.8062  0.6461
  959MOL0     C29370   4.921   8.662   5.952 -0.6218  0.2330 -0.5103
  959MOL0     C29371   5.015   8.673   5.832  0.1954 -0.2638 -1.1384
  959MOL0     C29372   4.995   8.568   5.729 -0.2520 -0.0954  0.4792
  959MOL0     C29373   5.122   8.527   5.651  0.2925 -0.9325 -0.2583
  959MOL0    Cl29374   5.231   8.667   5.637  0.3158 -0.0737 -0.1073
  959MOL0     C29375   4.189   8.759   6.296  0.2036 -0.1896 -0.4675
  959MOL0     C29376   4.105   8.784   6.398  0.2104  0.4916 -0.2768
  959MOL0     O29377   3.832   8.705   6.424  0.0955  0.6243  0.8408
  959MOL0     C29378   3.714   8.935   6.665  0.2387 -0.0128 -0.6412
  959MOL0     C29379   3.618   8.940   6.768  0.7205 -0.1717  1.0081
  959MOL0     N29380   2.754   9.094   6.891 -0.2260 -0.6018  0.0610
  959MOL0     N29381   2.627   9.096   6.867 -0.3725 -0.5606  0.2964
  959MOL0     C29382   1.587   9.599   7.238  0.4561  0.0720 -0.5626
  959MOL0     C29383   1.467   9.534   7.202  0.3648 -0.7461 -0.5692
  959MOL0     C29384   1.108   9.276   7.124  0.1163 -0.4662 -0.6378
  959MOL0     C29385   1.049   9.166   7.182 -0.0962  0.1803 -0.3474
  959MOL0     C29386   0.931   9.121   7.120  0.9278 -0.8162  0.2500
  959MOL0     C29387   0.876   9.179   7.004  0.2169  0.3969  0.1343
  959MOL0     O29388   0.757   9.128   6.954 -0.1064  0.2349 -0.2972
  959MOL0     C29389   0.665   9.217   6.897  0.7504 -0.3568  0.0259
  959MOL0     C29390   0.557   9.134   6.816  0.0880  0.7105 -0.4190
  959MOL0     C29391   0.437   9.104   6.905 -0.0148  0.4841  0.4598
  959MOL0     C29392   0.303   9.078   6.816 -0.1919  0.4003 -1.2828
  959MOL0     C29393   0.179   9.104   6.890 -0.5976 -0.6833  0.0029
  959MOL0     C29394   0.081   9.122   6.966 -0.6160 -0.2947 -0.3905
  959MOL0     C29395   0.951   9.279   6.941 -0.6675  0.3604  0.3525
  959MOL0     C29396   1.063   9.336   7.001 -0.3090 -0.2859  1.0763
  959MOL0     C29397   1.132   9.443   6.924 -0.0860 -0.2751  0.3788
  959MOL0     H29398   1.594   9.348   6.945 -0.1901 -0.4952  0.1283
  959MOL0     H29399   1.779   9.474   6.986  0.0124 -1.6700  0.1856
  959MOL0     H29400   1.917   9.633   7.017 -2.7141 -1.0713  0.8993
  959MOL0     H29401   2.006   9.717   7.147  2.7532 -1.5957 -0.0567
  959MOL0     H29402   1.944   9.426   7.163 -0.1994  1.6307 -3.0127
  959MOL0     H29403   2.057   9.518   7.269 -0.0615 -0.1233 -0.1418
  959MOL0     H29404   2.172   9.566   7.050 -1.1715  0.6296  0.7389
  959MOL0     H29405   2.090   9.415   6.991 -1.8681  3.7043 -1.5190
  959MOL0     H29406   2.305   9.447   7.215 -0.0600 -0.8235  0.9424
  959MOL0     H29407   2.202   9.300   7.196 -2.5667 -0.5968 -2.3071
  959MOL0     H29408   2.277   9.283   6.959  0.7341  0.8867 -1.5897
  959MOL0     H29409   2.396   9.417   6.994  2.8475 -2.6002  0.4743
  959MOL0     H29410   2.541   9.241   7.065  1.8008  0.6954  1.8142
  959MOL0     H29411   2.443   9.259   7.212 -1.4735 -0.0250 -0.6699
  959MOL0     H29412   2.278   9.095   7.117  0.0035  0.4410 -1.5540
  959MOL0     H29413   2.433   9.055   7.204  0.6896  0.1171 -0.6899
  959MOL0     H29414   2.408   8.901   7.008  0.2716  0.3886 -1.3290
  959MOL0     H29415   2.377   9.055   6.912  1.7092  1.9260 -0.3957
  959MOL0     H29416   2.653   8.869   7.098  0.9822  0.9115  0.3624
  959MOL0     H29417   2.978   9.030   7.090  3.6744  0.5159 -1.9715
  959MOL0     H29418   2.913   8.868   7.086 -1.5484 -0.6258 -1.2445
  959MOL0     H29419   2.974   8.827   6.851 -0.3758  0.9246 -0.2970
  959MOL0     H29420   3.003   8.999   6.826  1.4285 -3.2642 -4.3996
  959MOL0     H29421   3.186   8.815   6.989 -0.8007 -1.1377 -1.8375
  959MOL0     H29422   3.191   8.989   6.996 -1.2027 -0.4002  1.4075
  959MOL0     H29423   3.235   8.960   6.731  1.2463 -0.2514 -0.5200
  959MOL0     H29424   3.227   8.796   6.751  1.7240  0.4718 -1.2102
  959MOL0     H29425   3.387   8.746   6.613  1.5082 -1.7582 -3.3066
  959MOL0     H29426   3.573   8.700   6.466 -2.1529 -1.8800  2.0200
  959MOL0     H29427   3.971   9.070   6.261 -1.3311 -1.4499 -0.6627
  959MOL0     H29428   4.141   9.021   6.095  0.5300 -0.6598 -0.5126
  959MOL0     H29429   4.478   8.893   6.188 -0.2276 -0.7558  2.3036
  959MOL0     H29430   4.455   8.725   6.225 -3.7890 -0.0610  0.5951
  959MOL0     H29431   4.498   8.664   5.970  2.8434 -1.3703 -1.6973
  959MOL0     H29432   4.514   8.841   5.958 -0.9122  0.6488  1.5315
  959MOL0     H29433   4.726   8.798   6.132 -2.6488  2.0393 -1.4475
  959MOL0     H29434   4.701   8.629   6.111  1.3254  1.1882  2.6849
  959MOL0     H29435   4.792   8.842   5.914  1.7149  0.4550 -0.7514
  959MOL0     H29436   4.720   8.691   5.857 -0.8027 -2.0558  3.5267
  959MOL0     H29437   4.923   8.565   6.003  0.3016  0.7753  0.5181
  959MOL0     H29438   4.962   8.724   6.032 -1.3724 -0.5218  0.4792
  959MOL0     H29439   4.998   8.771   5.786 -0.5185  1.5139  2.5931
  959MOL0     H29440   5.118   8.672   5.869  0.1563 -0.1760 -1.0272
  959MOL0     H29441   4.922   8.608   5.658  0.1051  0.5574  0.4680
  959MOL0     H29442   4.962   8.479   5.783 -0.8856 -0.1057  0.0863
  959MOL0     H29443   5.157   8.439   5.704  2.3118  0.3438  0.6655
  959MOL0     H29444   5.109   8.493   5.548 -4.0369  2.0528 -0.9933
  959MOL0     H29445   4.237   8.662   6.304 -0.0850 -0.2001  2.6664
  959MOL0     H29446   4.084   8.710   6.475 -1.9476 -0.6426 -1.8396
  959MOL0     H29447   3.801   8.995   6.687 -2.0138  2.2881  2.9720
  959MOL0     H29448   3.648   8.987   6.861  2.5185  2.3723 -0.7599
  959MOL0     H29449   1.595   9.659   7.327 -1.1535 -0.4404 -0.0353
  959MOL0     H29450   1.380   9.556   7.263  0.2781 -2.7202  0.0800
  959MOL0     H29451   1.094   9.105   7.260  1.7989  2.1420  0.1656
  959MOL0     H29452   0.870   9.042   7.163 -0.1413  1.3268  3.0200
  959MOL0     H29453   0.713   9.287   6.828 -0.9443  1.6484  0.7532
  959MOL0     H29454   0.623   9.286   6.971  3.3272  3.4493 -1.6912
  959MOL0     H29455   0.594   9.034   6.789 -0.7277  0.9553 -2.7284
  959MOL0     H29456   0.540   9.196   6.727  2.3086  0.3360 -1.1513
  959MOL0     H29457   0.419   9.191   6.969 -2.1438  0.5931 -0.2030
  959MOL0     H29458   0.444   9.019   6.973 -3.7285 -0.7696 -0.4580
  959MOL0     H29459   0.291   9.140   6.727 -2.1812 -1.9241 -2.7517
  959MOL0     H29460   0.305   8.976   6.777  4.3374 -0.3197  0.1413
  959MOL0     H29461   0.001   9.147   7.032 -0.2855  0.5158 -0.2877
  959MOL0     H29462   0.910   9.324   6.851 -2.0256  2.5792  1.9646
  959MOL0     H29463   1.055   9.504   6.875  1.7304  0.3932 -1.8345
  959MOL0     H29464   1.190   9.503   6.994 -0.2207  0.7300 -0.3404
  959MOL0     H29465   1.198   9.405   6.845  1.4060  2.7967 -0.0301
  960MOL0     O29466   3.098   4.613   5.240  0.2865  0.7139  0.0523
  960MOL0     C29467   3.090   4.725   5.292 -0.3768 -0.8049  0.2221
  960MOL0     O29468   3.186   4.778   5.378 -0.3617  0.0388  0.4322
  960MOL0     C29469   3.315   4.727   5.387 -0.8649  0.6300 -0.0623
  960MOL0     C29470   3.389   4.641   5.299 -0.2170 -0.0933 -0.4138
  960MOL0     C29471   3.519   4.597   5.318  0.3428  0.5979 -0.4592
  960MOL0     C29472   3.591   4.645   5.429 -0.1959 -0.7924  0.5291
  960MOL0     O29473   3.726   4.613   5.455 -0.5271 -0.0013  0.2189
  960MOL0     C29474   3.787   4.509   5.379  0.4278  0.0540 -0.2823
  960MOL0     C29475   3.933   4.496   5.428  0.3188 -0.1967 -0.2262
  960MOL0     C29476   4.018   4.613   5.368  0.0062  0.1182  0.0810
  960MOL0     C29477   4.159   4.609   5.426 -0.0027  0.9039 -0.1302
  960MOL0     C29478   4.260   4.683   5.331 -0.5688  0.2563  0.3023
  960MOL0     C29479   4.291   4.607   5.204 -0.3877  0.4312 -0.3063
  960MOL0     C29480   4.335   4.462   5.233  0.5028  0.0695  0.5565
  960MOL0     C29481   4.413   4.404   5.113  0.3621 -0.4255 -0.7728
  960MOL0     N29482   4.558   4.430   5.146  1.6566 -0.1044  0.2354
  960MOL0     C29483   4.636   4.338   5.208 -0.8327 -0.1855 -0.7081
  960MOL0     C29484   4.765   4.355   5.161  0.4385  0.6268  0.1703
  960MOL0     C29485   4.898   4.288   5.196  0.4302  0.1794  0.5867
  960MOL0     C29486   5.004   4.400   5.229 -0.4487 -0.0719 -0.3720
  960MOL0     C29487   5.146   4.348   5.253  0.5141  0.6231 -0.0339
  960MOL0     C29488   5.230   4.474   5.249  0.0610 -0.3218 -0.4011
  960MOL0     O29489   5.364   4.419   5.246  0.3557 -0.4642 -0.7451
  960MOL0     C29490   5.444   4.488   5.340 -0.5906  0.9450  0.1163
  960MOL0     C29491   5.461   4.625   5.338 -0.1757 -0.5581  0.2112
  960MOL0     C29492   5.570   4.688   5.399  0.3022  0.3179 -0.4860
  960MOL0     C29493   5.644   4.618   5.494 -0.7274  0.7170 -0.2911
  960MOL0     C29494   5.750   4.685   5.574  0.7619 -0.3660 -0.2883
  960MOL0     O29495   5.838   4.615   5.645 -0.2680 -0.3315 -0.0082
  960MOL0     C29496   5.929   4.685   5.721 -0.2669 -0.4169 -0.3124
  960MOL0     C29497   5.915   4.682   5.865 -0.2799  0.5010  0.3124
  960MOL0     C29498   6.009   4.751   5.939  0.3595 -0.2746 -0.1126
  960MOL0     C29499   6.114   4.826   5.881  0.8126  0.2684  1.3116
  960MOL0     O29500   6.211   4.891   5.958 -0.6364 -0.1260 -0.5542
  960MOL0     C29501   6.173   4.951   6.084  0.5270  0.4817 -0.1145
  960MOL0     C29502   6.146   5.104   6.060  0.2458 -0.6692  1.4784
  960MOL0     C29503   6.113   5.188   6.182 -0.1848 -0.4077  0.3034
  960MOL0     C29504   5.958   5.237   6.199 -1.2493 -0.5424 -0.6251
  960MOL0     C29505   5.952   5.385   6.220  0.4647  0.3376 -0.6720
  960MOL0     C29506   5.824   5.418   6.293  0.7976 -1.2713  0.5902
  960MOL0     C29507   5.700   5.377   6.225  0.1014 -0.4422  0.4106
  960MOL0     C29508   5.563   5.414   6.307  0.0554 -0.0581  0.2386
  960MOL0    Cl29509   5.536   5.320   6.457 -0.3460 -0.1240  0.3283
  960MOL0     C29510   6.126   4.821   5.736  0.2446 -0.9745 -0.9742
  960MOL0     C29511   6.035   4.754   5.656  0.0168 -0.2602 -0.2254
  960MOL0     O29512   5.740   4.805   5.583  0.3355 -0.2361  1.0165
  960MOL0     C29513   5.625   4.474   5.508  0.2793 -0.3634  0.5393
  960MOL0     C29514   5.532   4.413   5.418 -0.6072  0.3296 -0.2511
  960MOL0     N29515   4.761   4.463   5.080 -0.3180  0.1245  0.4279
  960MOL0     N29516   4.637   4.507   5.068 -0.3404  0.2539  1.1960
  960MOL0     C29517   3.513   4.723   5.523 -0.0751 -0.5951  0.4691
  960MOL0     C29518   3.386   4.770   5.502  0.6860 -0.5194  0.6721
  960MOL0     C29519   2.959   4.795   5.278 -0.6510 -0.6786 -0.5223
  960MOL0     C29520   2.938   4.903   5.363  0.5823 -0.1645  0.5063
  960MOL0     C29521   2.819   4.978   5.369 -0.8453 -0.5569  0.4842
  960MOL0     C29522   2.715   4.946   5.279 -0.1641 -0.2915  0.3067
  960MOL0     O29523   2.592   5.008   5.295  0.0282  0.2298  0.5095
  960MOL0     C29524   2.473   4.939   5.259 -0.8025  1.0032 -0.3604
  960MOL0     C29525   2.345   5.020   5.282 -0.1147 -0.0159 -0.5091
  960MOL0     C29526   2.264   4.949   5.401 -0.4010  0.9515 -0.0408
  960MOL0     C29527   2.137   5.022   5.427  0.0987 -0.1512  0.5439
  960MOL0     C29528   2.046   4.996   5.319 -0.9140 -0.2507 -0.7033
  960MOL0     C29529   1.982   4.946   5.235 -0.2360 -0.0751  0.0138
  960MOL0     C29530   2.739   4.845   5.186 -0.6914  0.0020 -0.5423
  960MOL0     C29531   2.853   4.765   5.186  0.2561 -0.5580  0.4145
  960MOL0     C29532   2.857   4.661   5.073 -0.6154  0.2879 -0.6410
  960MOL0     H29533   3.337   4.610   5.208  0.8775 -0.0302 -1.0774
  960MOL0     H29534   3.568   4.537   5.242 -0.7048 -1.2327  0.2257
  960MOL0     H29535   3.741   4.415   5.411  1.1408 -1.0497 -2.3421
  960MOL0     H29536   3.777   4.509   5.270 -0.5010  2.5146 -0.2557
  960MOL0     H29537   3.973   4.404   5.387 -0.6234 -1.3585  1.3507
  960MOL0     H29538   3.939   4.485   5.537 -3.5451  2.8448  0.5173
  960MOL0     H29539   3.978   4.713   5.391  2.6565  0.8683  1.9408
  960MOL0     H29540   4.028   4.598   5.260 -0.2369 -0.5335  0.1451
  960MOL0     H29541   4.161   4.644   5.530 -0.5959  1.2741 -0.2449
  960MOL0     H29542   4.193   4.506   5.439  0.1342  1.0807  1.0456
  960MOL0     H29543   4.210   4.779   5.314 -1.6272 -0.5858 -1.7515
  960MOL0     H29544   4.349   4.696   5.392 -1.1772 -0.3705  1.3571
  960MOL0     H29545   4.199   4.613   5.146 -0.7999 -0.4874  0.2296
  960MOL0     H29546   4.367   4.669   5.154 -0.9516 -0.1106 -1.8825
  960MOL0     H29547   4.240   4.406   5.233  0.4853  0.0437 -1.0600
  960MOL0     H29548   4.393   4.446   5.324  0.1910 -2.3873  0.4010
  960MOL0     H29549   4.390   4.297   5.111  0.3411 -0.5476  2.1206
  960MOL0     H29550   4.396   4.454   5.018  0.5765  0.9635 -0.1042
  960MOL0     H29551   4.606   4.266   5.283  1.3679 -0.1911  0.2502
  960MOL0     H29552   4.899   4.215   5.278  3.3218  1.5784  1.9504
  960MOL0     H29553   4.934   4.227   5.113 -0.8727 -0.1916  0.2726
  960MOL0     H29554   5.007   4.465   5.141 -0.1567  1.8747  1.0038
  960MOL0     H29555   4.959   4.456   5.312  0.4828  2.3675 -1.3980
  960MOL0     H29556   5.170   4.287   5.165 -1.5575 -0.3235  0.0002
  960MOL0     H29557   5.149   4.297   5.350 -1.0114 -0.0928 -0.3348
  960MOL0     H29558   5.201   4.542   5.329  1.4391  0.2478 -0.3497
  960MOL0     H29559   5.214   4.530   5.156 -0.6738 -1.0637 -0.7341
  960MOL0     H29560   5.415   4.677   5.254  0.0548 -3.1536 -1.6417
  960MOL0     H29561   5.596   4.791   5.377  0.5662  0.0089 -1.6848
  960MOL0     H29562   5.835   4.632   5.920 -0.3242 -1.3639 -1.3410
  960MOL0     H29563   6.006   4.736   6.047  1.0712  0.5052  0.0190
  960MOL0     H29564   6.088   4.905   6.134 -1.4524  2.1856 -1.7468
  960MOL0     H29565   6.260   4.929   6.147  0.8318  3.1631  0.5356
  960MOL0     H29566   6.240   5.142   6.019 -0.8325  0.3272 -0.1875
  960MOL0     H29567   6.067   5.126   5.988  1.9401  2.2183  0.3240
  960MOL0     H29568   6.132   5.120   6.265 -3.2192 -3.1748 -1.0547
  960MOL0     H29569   6.182   5.273   6.190  0.3004 -0.4903 -2.2219
  960MOL0     H29570   5.923   5.189   6.291  3.9240  1.8635  3.0832
  960MOL0     H29571   5.902   5.204   6.111 -0.4799 -1.1106 -0.9130
  960MOL0     H29572   5.956   5.432   6.121  0.0172 -0.2598 -0.9863
  960MOL0     H29573   6.037   5.425   6.276 -1.9275  4.4072  0.4392
  960MOL0     H29574   5.830   5.364   6.388  1.9821 -0.6905  0.8561
  960MOL0     H29575   5.824   5.526   6.312 -0.7149 -1.4849  1.9735
  960MOL0     H29576   5.692   5.268   6.224 -1.2917 -0.3902  1.9973
  960MOL0     H29577   5.703   5.420   6.124 -0.2664  1.7768  1.2890
  960MOL0     H29578   5.574   5.520   6.333  0.3708 -0.5804  2.4153
  960MOL0     H29579   5.473   5.411   6.245 -0.0820 -2.4068  0.4808
  960MOL0     H29580   6.209   4.873   5.688  0.9141 -1.8092 -0.7408
  960MOL0     H29581   6.035   4.742   5.548  0.0882 -5.3019  0.0545
  960MOL0     H29582   5.682   4.408   5.572  0.4895 -0.4465  0.2693
  960MOL0     H29583   5.529   4.305   5.425 -1.4982  0.4017  0.7603
  960MOL0     H29584   3.556   4.760   5.616  0.2807 -2.0563  0.9125
  960MOL0     H29585   3.330   4.827   5.575 -1.8830 -0.1900 -1.3909
  960MOL0     H29586   3.018   4.917   5.435 -0.5590 -3.0389  2.4905
  960MOL0     H29587   2.817   5.054   5.446  1.3186 -0.9362  0.9986
  960MOL0     H29588   2.466   4.837   5.298 -1.5043  0.2882 -2.1970
  960MOL0     H29589   2.473   4.924   5.150 -1.6834  2.3701 -0.5832
  960MOL0     H29590   2.282   5.018   5.193  0.7393 -0.3582 -1.1083
  960MOL0     H29591   2.372   5.120   5.317  1.5379 -1.2520  2.1098
  960MOL0     H29592   2.339   4.956   5.480  0.1192  0.3164 -0.4619
  960MOL0     H29593   2.232   4.848   5.373 -2.3002  1.5466 -0.1590
  960MOL0     H29594   2.092   4.973   5.514  0.4640 -1.0597  0.2305
  960MOL0     H29595   2.155   5.128   5.451  0.2246  0.2756 -1.2357
  960MOL0     H29596   1.910   4.907   5.166  1.0159 -1.9061 -0.3023
  960MOL0     H29597   2.667   4.810   5.112  0.8380  1.9348 -3.1317
  960MOL0     H29598   2.936   4.679   5.000  2.0292 -1.5384  1.5580
  960MOL0     H29599   2.883   4.569   5.126 -0.7765 -0.3980 -1.7293
  960MOL0     H29600   2.758   4.635   5.036 -1.5093  1.8932  0.5162
  961MOL0     O29601   9.916   8.250   4.668 -0.1660  0.1030 -0.5115
  961MOL0     C29602   9.885   8.203   4.781 -0.3598 -0.1072  0.8908
  961MOL0     O29603   9.972   8.183   4.879  0.4723 -0.3504 -0.4249
  961MOL0     C29604  10.106   8.226   4.872  0.2549  0.5189  0.0663
  961MOL0     C29605  10.146   8.353   4.907 -0.3656  0.1338  0.9132
  961MOL0     C29606  10.278   8.393   4.896 -0.4573 -0.1740  0.8161
  961MOL0     C29607  10.381   8.311   4.841  0.9593 -0.4041  0.4925
  961MOL0     O29608  10.504   8.365   4.828 -0.7141  0.4290 -0.3448
  961MOL0     C29609  10.583   8.340   4.708 -0.3739  0.3956 -0.1682
  961MOL0     C29610  10.683   8.456   4.698 -0.3531 -0.3179  0.6005
  961MOL0     C29611  10.831   8.416   4.646  0.7023 -0.3082 -0.2289
  961MOL0     C29612  10.826   8.324   4.521 -0.6473  0.0283  0.0934
  961MOL0     C29613  10.959   8.249   4.489 -0.5415  1.1318  0.5598
  961MOL0     C29614  11.068   8.338   4.417 -0.1615 -0.1162  0.1108
  961MOL0     C29615  11.215   8.291   4.462  0.1797 -0.9273  0.0065
  961MOL0     C29616  11.324   8.358   4.383 -0.0453 -0.2495 -0.1896
  961MOL0     N29617  11.374   8.475   4.459 -0.3084  0.2527 -0.5459
  961MOL0     C29618  11.494   8.470   4.524 -0.0478  0.2882  0.0152
  961MOL0     C29619  11.517   8.595   4.569  0.0412  1.0724 -0.4487
  961MOL0     C29620  11.621   8.629   4.674 -0.3110  0.0760  0.2511
  961MOL0     C29621  11.545   8.688   4.795 -0.0208  0.7370 -0.6270
  961MOL0     C29622  11.656   8.725   4.903 -0.3792 -0.4273 -0.3808
  961MOL0     C29623  11.566   8.753   5.022  0.7880  0.0213 -0.6575
  961MOL0     O29624  11.643   8.810   5.132  0.0782 -0.1969  0.3268
  961MOL0     C29625  11.719   8.728   5.211  0.0152 -0.0126  0.5774
  961MOL0     C29626  11.738   8.584   5.193 -0.6275 -0.1632 -0.2257
  961MOL0     C29627  11.828   8.515   5.282  0.7748 -0.0699  0.1723
  961MOL0     C29628  11.896   8.592   5.378 -0.1160 -0.6415 -0.0235
  961MOL0     C29629  11.995   8.513   5.467  0.3283 -0.0999  1.1374
  961MOL0     O29630  12.026   8.577   5.587  0.7699 -0.0821 -0.0566
  961MOL0     C29631  12.130   8.533   5.663  0.6859 -1.0677 -0.6026
  961MOL0     C29632  12.258   8.583   5.644  0.4079  0.5434  0.6783
  961MOL0     C29633  12.356   8.544   5.728 -0.1971  0.2127  0.1743
  961MOL0     C29634  12.337   8.453   5.830 -0.1772  0.0597 -0.4269
  961MOL0     O29635  12.429   8.385   5.906 -0.8189 -0.1166  0.1086
  961MOL0     C29636  12.564   8.438   5.910  0.9622  0.1534  0.3138
  961MOL0     C29637  12.640   8.392   5.791  0.5455 -0.5936 -0.9288
  961MOL0     C29638  12.693   8.247   5.795 -0.1333 -0.4285 -0.1011
  961MOL0     C29639  12.764   8.210   5.659  0.7709  0.5921 -0.3338
  961MOL0     C29640  12.838   8.089   5.664  0.0212 -0.1463  0.3379
  961MOL0     C29641  12.883   8.049   5.521 -0.7718  0.3388 -0.3928
  961MOL0     C29642  12.978   7.926   5.540  0.8631 -0.5619 -0.1918
  961MOL0     C29643  13.015   7.848   5.419  0.1911  0.2595 -0.9898
  961MOL0    Cl29644  13.146   7.935   5.324  0.5486  0.0564  0.5196
  961MOL0     C29645  12.212   8.395   5.837  0.1014  0.3490 -0.0646
  961MOL0     C29646  12.106   8.438   5.761 -0.0817 -0.5472 -0.3981
  961MOL0     O29647  12.057   8.418   5.418 -0.0117 -0.1082  0.6921
  961MOL0     C29648  11.889   8.735   5.385 -0.0238  0.2928 -0.6002
  961MOL0     C29649  11.783   8.798   5.313 -0.1993  0.6101 -0.5147
  961MOL0     N29650  11.412   8.678   4.515 -0.1849  0.3560 -0.0855
  961MOL0     N29651  11.320   8.598   4.456  0.1342  0.4551 -0.4219
  961MOL0     C29652  10.333   8.186   4.798 -1.1355  0.0278 -0.8492
  961MOL0     C29653  10.204   8.143   4.808 -0.4577 -0.4049 -0.8670
  961MOL0     C29654   9.754   8.151   4.814  0.1246 -0.2919 -0.3452
  961MOL0     C29655   9.663   8.118   4.702  0.7852 -0.4877 -0.0676
  961MOL0     C29656   9.550   8.041   4.730 -0.1780 -0.4246  0.0255
  961MOL0     C29657   9.516   8.007   4.863  0.2382  1.3237  0.3878
  961MOL0     O29658   9.403   7.926   4.876  0.4079 -1.5255 -0.1349
  961MOL0     C29659   9.378   7.872   5.007  0.5157  0.6587 -0.2030
  961MOL0     C29660   9.285   7.752   5.002  0.6171  0.2309  0.6082
  961MOL0     C29661   9.158   7.772   4.918 -0.0619 -0.7519 -0.2666
  961MOL0     C29662   9.060   7.655   4.935 -0.1965 -0.5978  0.1637
  961MOL0     C29663   8.934   7.681   4.864  0.4679 -1.1552  0.3065
  961MOL0     C29664   8.821   7.716   4.827 -1.2563  0.4675  0.6313
  961MOL0     C29665   9.595   8.053   4.966  0.3774 -0.2571  0.4880
  961MOL0     C29666   9.709   8.129   4.947 -0.2870 -0.0138 -0.8180
  961MOL0     C29667   9.762   8.195   5.072 -1.3121 -0.1263  0.7413
  961MOL0     H29668  10.084   8.426   4.956  1.0196  1.1193  1.2487
  961MOL0     H29669  10.300   8.488   4.942  1.2190 -0.4361  0.5915
  961MOL0     H29670  10.637   8.246   4.719  1.3848  1.3760 -0.0667
  961MOL0     H29671  10.523   8.339   4.616  0.8638  1.3481 -1.0310
  961MOL0     H29672  10.693   8.512   4.791  0.6573  0.3004  0.1379
  961MOL0     H29673  10.648   8.521   4.616  1.4247 -3.5026 -2.9620
  961MOL0     H29674  10.879   8.371   4.733  1.9207  2.6576  0.7342
  961MOL0     H29675  10.884   8.508   4.620 -1.1891  1.1536  0.8582
  961MOL0     H29676  10.754   8.241   4.523  0.4145 -0.9120  2.1020
  961MOL0     H29677  10.800   8.376   4.429  0.4158 -0.1084 -0.2950
  961MOL0     H29678  10.990   8.209   4.586 -2.5152  0.4477  0.9549
  961MOL0     H29679  10.933   8.161   4.429 -2.0368 -0.2876  3.0975
  961MOL0     H29680  11.060   8.338   4.308 -2.2456 -2.5956  0.1758
  961MOL0     H29681  11.053   8.442   4.449  1.0178 -0.1185  0.7206
  961MOL0     H29682  11.217   8.183   4.444 -0.0537 -0.9649  0.2076
  961MOL0     H29683  11.232   8.308   4.569  2.2474 -1.8491 -0.1251
  961MOL0     H29684  11.388   8.272   4.362 -2.3393 -1.4592 -2.8782
  961MOL0     H29685  11.283   8.399   4.290  0.0413  3.0976  1.1083
  961MOL0     H29686  11.551   8.379   4.541 -1.1008 -0.5112 -0.5967
  961MOL0     H29687  11.674   8.537   4.699  0.1766 -0.4200 -2.3229
  961MOL0     H29688  11.696   8.701   4.641  2.1310 -2.3780  0.1004
  961MOL0     H29689  11.490   8.779   4.768 -1.7366  0.0064  0.2902
  961MOL0     H29690  11.466   8.623   4.834 -0.1590  1.3611  0.1602
  961MOL0     H29691  11.697   8.820   4.865  1.5164 -1.9126 -2.3234
  961MOL0     H29692  11.732   8.648   4.918 -0.9746 -0.8441  0.5377
  961MOL0     H29693  11.517   8.663   5.061 -1.3501  1.0261 -0.8969
  961MOL0     H29694  11.480   8.820   5.012  0.5574  0.1749  1.8524
  961MOL0     H29695  11.700   8.533   5.104  0.7496  0.9055 -1.4760
  961MOL0     H29696  11.837   8.408   5.264 -0.2791  0.3377 -3.4570
  961MOL0     H29697  12.280   8.650   5.561  0.1653  0.6220  0.6761
  961MOL0     H29698  12.461   8.569   5.717 -0.0689 -0.4829 -0.2274
  961MOL0     H29699  12.562   8.547   5.915 -2.1597  0.1120  2.7049
  961MOL0     H29700  12.618   8.402   5.998  1.1017  0.1527  0.2287
  961MOL0     H29701  12.579   8.395   5.700  2.1807  2.3388 -2.0513
  961MOL0     H29702  12.722   8.461   5.771  2.5176 -2.9977 -1.6708
  961MOL0     H29703  12.770   8.255   5.872  0.1505 -0.6505 -0.3607
  961MOL0     H29704  12.622   8.169   5.823 -0.2173 -0.5279 -0.5897
  961MOL0     H29705  12.841   8.283   5.633  1.4822  0.8581  2.2281
  961MOL0     H29706  12.692   8.196   5.578  4.2331  0.9778 -3.7672
  961MOL0     H29707  12.793   7.999   5.707  2.3080 -1.7482 -0.3911
  961MOL0     H29708  12.928   8.092   5.726  1.5170 -1.5298 -1.6219
  961MOL0     H29709  12.794   8.009   5.472 -1.4439  0.8484  0.4051
  961MOL0     H29710  12.934   8.127   5.463 -1.6339  2.1082  1.1281
  961MOL0     H29711  12.925   7.853   5.602 -0.2775 -1.4921 -2.1928
  961MOL0     H29712  13.063   7.948   5.605  1.7263  1.2201 -1.8367
  961MOL0     H29713  13.049   7.750   5.453 -0.7494  0.1264 -0.3905
  961MOL0     H29714  12.927   7.827   5.359  0.2948  0.5858 -1.2592
  961MOL0     H29715  12.203   8.325   5.919 -1.2950  0.6510  0.0666
  961MOL0     H29716  12.010   8.389   5.773  0.6409 -1.8303  0.4509
  961MOL0     H29717  11.939   8.794   5.461 -1.1343 -0.9637  1.1948
  961MOL0     H29718  11.772   8.904   5.331  2.0398  0.9793 -1.1163
  961MOL0     H29719  10.394   8.112   4.748 -0.7270  0.2535 -0.6912
  961MOL0     H29720  10.187   8.042   4.772  0.5479 -1.3653  1.1528
  961MOL0     H29721   9.685   8.146   4.600  2.4359 -0.6549  0.2144
  961MOL0     H29722   9.480   8.018   4.650 -3.3120  2.5490  1.6560
  961MOL0     H29723   9.325   7.947   5.066  0.7942  0.4797  0.2802
  961MOL0     H29724   9.462   7.842   5.071  0.4000 -1.4991 -0.9650
  961MOL0     H29725   9.268   7.721   5.106 -1.0686  0.4157  0.4035
  961MOL0     H29726   9.336   7.664   4.959  0.6268 -0.9014  2.7903
  961MOL0     H29727   9.195   7.791   4.817  0.7561  2.2681  0.5104
  961MOL0     H29728   9.118   7.869   4.949  0.0103 -0.4964 -0.9432
  961MOL0     H29729   9.108   7.565   4.897 -1.5175 -0.9264 -0.8059
  961MOL0     H29730   9.028   7.646   5.039  1.8364 -1.7408  0.7345
  961MOL0     H29731   8.729   7.749   4.784 -1.2925 -0.2694  0.1123
  961MOL0     H29732   9.572   8.042   5.072  1.9787  1.9111  1.1372
  961MOL0     H29733   9.802   8.294   5.047 -2.8009  0.8523  2.0776
  961MOL0     H29734   9.699   8.203   5.160 -0.4794 -2.7212  1.6649
  961MOL0     H29735   9.852   8.136   5.093 -0.1128 -0.5792 -4.2941
  962MOL0     O29736   1.478   9.370   4.134  0.7973  1.2647 -0.5198
  962MOL0     C29737   1.409   9.379   4.031  0.4607 -0.0262  0.0943
  962MOL0     O29738   1.360   9.495   3.982  0.0521 -0.1281 -0.1016
  962MOL0     C29739   1.420   9.614   4.014 -0.3928  0.1849 -1.3515
  962MOL0     C29740   1.559   9.641   4.005  0.2767  0.4298 -0.0230
  962MOL0     C29741   1.612   9.763   4.059  0.2722 -0.4767  1.3103
  962MOL0     C29742   1.521   9.865   4.098  0.0647 -0.2921 -0.4031
  962MOL0     O29743   1.586   9.972   4.147 -0.0959  0.1740  0.1164
  962MOL0     C29744   1.508  10.100   4.175 -0.4059  0.2492 -0.6169
  962MOL0     C29745   1.603  10.219   4.208  0.3671  0.4153 -0.3355
  962MOL0     C29746   1.708  10.244   4.096  0.0151 -0.4006 -0.4108
  962MOL0     C29747   1.819  10.356   4.131  0.9477  0.3966 -0.7609
  962MOL0     C29748   1.764  10.476   4.208  0.0881  0.5248  0.0472
  962MOL0     C29749   1.864  10.590   4.230  0.4254 -0.8110  0.0405
  962MOL0     C29750   1.803  10.705   4.310 -0.8021 -0.3329 -0.5210
  962MOL0     C29751   1.896  10.828   4.323 -0.7228  0.8822  0.7248
  962MOL0     N29752   2.021  10.803   4.403  0.7765  0.0151  0.5927
  962MOL0     C29753   2.026  10.826   4.535 -0.7448 -0.2602 -0.3261
  962MOL0     C29754   2.138  10.765   4.576  0.2651  0.4438  0.0575
  962MOL0     C29755   2.201  10.750   4.715  0.0417 -0.4437  0.1806
  962MOL0     C29756   2.350  10.743   4.720 -0.3488  0.3697  0.3800
  962MOL0     C29757   2.399  10.753   4.870  0.4331  0.3334  0.2576
  962MOL0     C29758   2.543  10.738   4.878  0.9663 -0.1478  0.5695
  962MOL0     O29759   2.585  10.736   5.014 -0.2803 -0.3944 -1.0730
  962MOL0     C29760   2.718  10.696   5.042 -0.1054 -0.3621  0.5416
  962MOL0     C29761   2.780  10.754   5.157  1.0040  0.2686 -0.4837
  962MOL0     C29762   2.906  10.717   5.199 -0.4519  0.3084  0.6399
  962MOL0     C29763   2.974  10.616   5.131  0.7220 -0.1851 -0.1848
  962MOL0     C29764   3.100  10.562   5.174  0.4753  0.6247  0.8914
  962MOL0     O29765   3.154  10.631   5.282 -0.3116  0.3406  0.3103
  962MOL0     C29766   3.287  10.625   5.318 -0.4841 -0.6930  0.8435
  962MOL0     C29767   3.402  10.579   5.248  0.1481 -0.3691 -0.3141
  962MOL0     C29768   3.521  10.572   5.317 -0.8199 -0.4817 -0.3296
  962MOL0     C29769   3.540  10.624   5.442 -0.4693 -0.3351 -0.1793
  962MOL0     O29770   3.670  10.625   5.486  0.1253 -0.1413  0.0072
  962MOL0     C29771   3.700  10.681   5.621  0.2612 -0.1901 -0.5728
  962MOL0     C29772   3.853  10.670   5.635 -0.6129  0.0149 -0.5693
  962MOL0     C29773   3.895  10.654   5.776  0.2373  0.3849 -0.2732
  962MOL0     C29774   4.049  10.656   5.785  0.3914  0.1012  0.7564
  962MOL0     C29775   4.103  10.620   5.931  0.1230  0.4196  0.8418
  962MOL0     C29776   4.250  10.579   5.949 -0.2176 -0.2696  0.0977
  962MOL0     C29777   4.332  10.711   5.947 -0.2505 -0.1207  0.2931
  962MOL0     C29778   4.480  10.686   5.947  0.0724 -0.1471 -0.4852
  962MOL0    Cl29779   4.567  10.845   5.934 -0.2715 -0.4705  0.0666
  962MOL0     C29780   3.433  10.674   5.501  0.0755 -0.2559  0.5044
  962MOL0     C29781   3.305  10.676   5.443 -1.0327  0.0228  0.5643
  962MOL0     O29782   3.155  10.467   5.115  0.8521 -0.0156 -0.0799
  962MOL0     C29783   2.912  10.565   5.015 -0.2577 -0.4173 -0.3393
  962MOL0     C29784   2.793  10.605   4.967  0.5605 -0.9533 -0.1309
  962MOL0     N29785   2.210  10.727   4.462  0.1206 -0.0396 -0.6111
  962MOL0     N29786   2.131  10.735   4.365  0.3907  0.5685 -0.1179
  962MOL0     C29787   1.383   9.839   4.104 -0.3470 -0.3718  1.3828
  962MOL0     C29788   1.334   9.720   4.059  0.1783 -0.4404  0.5379
  962MOL0     C29789   1.357   9.260   3.968 -0.5515  0.7123  1.4023
  962MOL0     C29790   1.222   9.251   3.921 -1.3744 -0.8452  0.0274
  962MOL0     C29791   1.186   9.144   3.841  0.7498  0.3791 -0.1861
  962MOL0     C29792   1.254   9.023   3.843 -0.2163  0.1215 -0.6180
  962MOL0     O29793   1.201   8.915   3.776  0.6056  0.0272 -0.5971
  962MOL0     C29794   1.283   8.803   3.753 -0.7516 -0.3352  0.0745
  962MOL0     C29795   1.397   8.820   3.658 -0.0726 -0.1917  0.4496
  962MOL0     C29796   1.361   8.793   3.513  0.6012 -0.0360 -0.1049
  962MOL0     C29797   1.477   8.824   3.417 -0.2819 -0.3860 -0.8309
  962MOL0     C29798   1.584   8.727   3.433 -0.3640  0.1361 -0.1052
  962MOL0     C29799   1.676   8.649   3.451  1.2559 -0.4220 -0.3641
  962MOL0     C29800   1.380   9.025   3.902 -0.3432 -0.0805 -0.1033
  962MOL0     C29801   1.432   9.139   3.965  0.3968 -0.3343  0.3196
  962MOL0     C29802   1.571   9.131   4.021 -0.4816  0.1472  0.5270
  962MOL0     H29803   1.621   9.567   3.955  1.3301  1.1036  0.2639
  962MOL0     H29804   1.718   9.786   4.048 -0.2873  1.2472 -1.2810
  962MOL0     H29805   1.467  10.127   4.077  0.1663 -1.6870 -1.4478
  962MOL0     H29806   1.432  10.085   4.252  0.8216 -3.2262  0.0905
  962MOL0     H29807   1.646  10.192   4.305  2.3813 -2.4393 -1.8742
  962MOL0     H29808   1.538  10.307   4.210 -0.4525 -0.0380 -3.0505
  962MOL0     H29809   1.665  10.274   3.999  1.4309  0.1859 -0.8835
  962MOL0     H29810   1.762  10.150   4.089 -0.3661 -0.7494  1.0877
  962MOL0     H29811   1.897  10.306   4.189 -0.2515  0.5935  1.0910
  962MOL0     H29812   1.858  10.396   4.037  1.4556  1.7097 -0.0110
  962MOL0     H29813   1.684  10.523   4.150  2.0337  1.4568 -2.0271
  962MOL0     H29814   1.729  10.441   4.306  1.5034 -1.0336  0.0347
  962MOL0     H29815   1.940  10.541   4.292  0.6362 -3.2649 -1.9676
  962MOL0     H29816   1.919  10.624   4.142 -1.6447 -0.6698 -1.2653
  962MOL0     H29817   1.776  10.670   4.410  3.7977  0.1270  1.1023
  962MOL0     H29818   1.712  10.740   4.259 -1.6358  0.1475  1.2419
  962MOL0     H29819   1.929  10.858   4.223 -3.2538 -1.2584 -0.9054
  962MOL0     H29820   1.836  10.917   4.346 -2.6304  0.5653 -2.2752
  962MOL0     H29821   1.952  10.877   4.596  1.0835  0.0564  1.7241
  962MOL0     H29822   2.174  10.838   4.774  2.0461  0.0628  0.4168
  962MOL0     H29823   2.156  10.667   4.772 -0.1741  0.4742  1.3918
  962MOL0     H29824   2.386  10.649   4.676 -0.6175  1.0911 -1.4766
  962MOL0     H29825   2.389  10.829   4.665  4.0896 -0.6399  1.5371
  962MOL0     H29826   2.362  10.672   4.934 -0.0767 -1.2972 -1.9674
  962MOL0     H29827   2.364  10.849   4.908 -0.9579 -0.3021  0.6674
  962MOL0     H29828   2.605  10.812   4.825  0.8156 -1.1879 -1.1339
  962MOL0     H29829   2.569  10.639   4.839  0.1970  0.5466 -1.9466
  962MOL0     H29830   2.736  10.835   5.215 -4.6600  0.2980 -4.0899
  962MOL0     H29831   2.959  10.753   5.287  1.4171 -1.8193  0.4689
  962MOL0     H29832   3.396  10.543   5.146  1.4534 -1.8770  0.1018
  962MOL0     H29833   3.596  10.513   5.266  0.0895 -1.6804  2.2342
  962MOL0     H29834   3.666  10.784   5.634  1.0381  0.3321 -2.3403
  962MOL0     H29835   3.650  10.624   5.699 -0.9785 -0.5798 -1.6227
  962MOL0     H29836   3.894  10.589   5.575 -1.2770 -1.0573  0.3984
  962MOL0     H29837   3.902  10.762   5.600  0.0396  1.3741  3.4338
  962MOL0     H29838   3.842  10.726   5.838  0.1075 -1.4582  1.9194
  962MOL0     H29839   3.862  10.554   5.809  2.0778 -0.1204  0.1756
  962MOL0     H29840   4.078  10.756   5.753 -3.2504  1.2943  0.6588
  962MOL0     H29841   4.088  10.580   5.717 -1.0626 -1.0030  1.1054
  962MOL0     H29842   4.068  10.533   5.987  0.8150 -0.3327  0.1308
  962MOL0     H29843   4.071  10.709   5.986  0.2214  1.8598 -1.2784
  962MOL0     H29844   4.273  10.536   6.047  1.1854  2.6145  1.1656
  962MOL0     H29845   4.274  10.506   5.872 -1.1304 -0.2591 -0.2065
  962MOL0     H29846   4.307  10.771   6.035  1.1102  0.9799 -0.0373
  962MOL0     H29847   4.315  10.773   5.859  1.0593 -0.8181 -0.4687
  962MOL0     H29848   4.490  10.642   6.047 -1.3347 -1.6482 -0.9596
  962MOL0     H29849   4.513  10.615   5.871  5.0240  1.5703 -0.2755
  962MOL0     H29850   3.434  10.717   5.601 -1.7197 -1.0565  0.9206
  962MOL0     H29851   3.222  10.714   5.501 -0.4306 -1.2117  2.2966
  962MOL0     H29852   2.968  10.483   4.972 -1.1082 -1.2087  0.0324
  962MOL0     H29853   2.755  10.571   4.871 -2.4516  1.6246 -0.0076
  962MOL0     H29854   1.305   9.911   4.124 -0.6547 -0.0461 -0.7459
  962MOL0     H29855   1.227   9.703   4.065 -0.0461 -0.6049 -2.6232
  962MOL0     H29856   1.165   9.341   3.939  2.9187  2.5206 -1.5128
  962MOL0     H29857   1.085   9.155   3.803  0.4815  3.3319  1.0751
  962MOL0     H29858   1.230   8.726   3.697  1.7378 -0.7768 -1.8350
  962MOL0     H29859   1.318   8.769   3.851  1.4702 -0.6830 -0.7846
  962MOL0     H29860   1.483   8.756   3.679  1.7948  1.8110 -0.6912
  962MOL0     H29861   1.443   8.919   3.665  1.9485 -0.9694 -0.8923
  962MOL0     H29862   1.277   8.855   3.480  0.5200 -1.4526 -2.8659
  962MOL0     H29863   1.330   8.688   3.508  0.6084 -0.2324  2.4013
  962MOL0     H29864   1.435   8.810   3.317 -1.2308  0.2404 -0.5427
  962MOL0     H29865   1.522   8.923   3.431  1.0393 -1.2325  1.3652
  962MOL0     H29866   1.750   8.571   3.459  4.2564  2.2894  0.7669
  962MOL0     H29867   1.444   8.938   3.913 -0.6467 -0.1780  1.0876
  962MOL0     H29868   1.613   9.231   4.002  0.0551 -0.2263 -0.2926
  962MOL0     H29869   1.568   9.113   4.129  0.8338  0.9796  0.7284
  962MOL0     H29870   1.627   9.050   3.974  2.0744  1.3521  1.3064
  963MOL0     O29871   9.398   2.191   8.304 -0.1742 -0.4631  0.7636
  963MOL0     C29872   9.366   2.220   8.416  0.2438  0.3839 -0.0703
  963MOL0     O29873   9.448   2.280   8.506  0.2511 -0.0867  0.0323
  963MOL0     C29874   9.582   2.254   8.474 -0.3042 -0.1232 -0.5642
  963MOL0     C29875   9.630   2.117   8.479  0.4956 -0.5544  0.2904
  963MOL0     C29876   9.765   2.092   8.453  0.2374  0.9097  0.3177
  963MOL0     C29877   9.850   2.198   8.418 -0.1309 -0.1584 -0.4361
  963MOL0     O29878   9.984   2.178   8.390  0.9270  0.1868  0.0508
  963MOL0     C29879  10.050   2.081   8.473  0.8771  0.2646 -0.4159
  963MOL0     C29880  10.202   2.095   8.455 -0.3926 -0.0078 -0.4846
  963MOL0     C29881  10.289   2.184   8.545  0.8174  0.3311  0.3266
  963MOL0     C29882  10.232   2.184   8.686  0.1554 -0.5358  0.5813
  963MOL0     C29883  10.335   2.229   8.792  0.1953 -0.6069  0.6992
  963MOL0     C29884  10.459   2.136   8.807 -1.3998 -0.0579 -0.8813
  963MOL0     C29885  10.543   2.167   8.937  0.0634 -0.1282  0.2682
  963MOL0     C29886  10.675   2.086   8.938  0.5755  0.4889 -0.3052
  963MOL0     N29887  10.770   2.120   9.047 -0.1406 -0.6058 -0.0521
  963MOL0     C29888  10.868   2.048   9.109 -1.2839 -0.3557  0.0544
  963MOL0     C29889  10.921   2.131   9.204 -0.1655  1.0696  0.0783
  963MOL0     C29890  11.016   2.108   9.318 -0.1937  0.2988  0.7970
  963MOL0     C29891  10.976   1.984   9.390 -0.3310  0.1889 -0.0356
  963MOL0     C29892  11.047   1.979   9.527  0.2745 -0.3904  0.1505
  963MOL0     C29893  11.077   1.830   9.566 -0.3784  0.2816 -0.3926
  963MOL0     O29894  11.154   1.763   9.460 -0.4226  0.1896 -0.1534
  963MOL0     C29895  11.287   1.756   9.477  0.1820  0.0784  0.6125
  963MOL0     C29896  11.338   1.681   9.576 -0.5952  0.7768 -0.7869
  963MOL0     C29897  11.480   1.676   9.588  0.0494 -1.0967 -0.2782
  963MOL0     C29898  11.567   1.752   9.503  0.1857 -0.3804  0.1454
  963MOL0     C29899  11.713   1.758   9.509  0.7004 -1.6577 -1.2285
  963MOL0     O29900  11.775   1.682   9.604  0.2843  0.0182  0.8051
  963MOL0     C29901  11.910   1.677   9.618  0.2857  0.6351 -0.6794
  963MOL0     C29902  11.964   1.554   9.650 -0.7736  0.6011 -1.0779
  963MOL0     C29903  12.099   1.535   9.689 -0.5199  1.0684 -0.7372
  963MOL0     C29904  12.186   1.637   9.688  0.5095 -0.4627  0.6016
  963MOL0     O29905  12.307   1.605   9.743 -0.2140  0.2168  0.0851
  963MOL0     C29906  12.417   1.699   9.723 -0.4291 -0.2873  0.1465
  963MOL0     C29907  12.524   1.675   9.828 -0.3967  0.6958  0.8783
  963MOL0     C29908  12.557   1.522   9.831 -0.3100  0.6222  0.8100
  963MOL0     C29909  12.658   1.495   9.948 -0.5817  0.1992 -0.3076
  963MOL0     C29910  12.797   1.561   9.932 -0.6750  0.2893 -0.8227
  963MOL0     C29911  12.913   1.508  10.022 -0.4220 -0.3272 -0.2758
  963MOL0     C29912  12.941   1.358  10.026 -1.0253  0.1338  0.0163
  963MOL0     C29913  13.055   1.330  10.127 -1.4119 -0.2814 -0.5394
  963MOL0    Cl29914  13.207   1.416  10.086 -0.5630 -0.5971  0.3150
  963MOL0     C29915  12.142   1.762   9.647 -0.1879  0.1294 -0.1069
  963MOL0     C29916  12.004   1.782   9.618  0.0447  0.3481  0.3227
  963MOL0     O29917  11.772   1.840   9.436  0.2189  0.1505 -0.4651
  963MOL0     C29918  11.501   1.835   9.410 -0.0101 -0.6704  0.1269
  963MOL0     C29919  11.364   1.828   9.397 -0.7373  0.0566  0.1507
  963MOL0     N29920  10.856   2.257   9.191 -0.5151 -0.2563  0.3310
  963MOL0     N29921  10.769   2.246   9.096  0.0838 -0.3966  0.1522
  963MOL0     C29922   9.795   2.330   8.397 -0.5042  0.4073 -0.6423
  963MOL0     C29923   9.669   2.365   8.445 -0.1915  0.5710  0.6520
  963MOL0     C29924   9.223   2.204   8.452  0.3799 -0.0735  0.6283
  963MOL0     C29925   9.183   2.280   8.562  0.5331  0.7082  1.0334
  963MOL0     C29926   9.046   2.263   8.601  0.5597  0.1256 -1.2240
  963MOL0     C29927   8.958   2.192   8.517  0.6299 -0.1150 -0.7327
  963MOL0     O29928   8.824   2.194   8.548  0.0807  0.2859 -0.3781
  963MOL0     C29929   8.776   2.324   8.524 -1.0005 -0.1690 -0.7893
  963MOL0     C29930   8.676   2.353   8.640 -0.3266  0.0254 -0.9664
  963MOL0     C29931   8.591   2.478   8.603  0.4137  0.0668  0.1525
  963MOL0     C29932   8.649   2.609   8.672 -0.4165 -0.6955  0.6896
  963MOL0     C29933   8.555   2.717   8.638 -0.8775  0.0013 -0.1379
  963MOL0     C29934   8.480   2.815   8.625  0.2782  0.4833  1.1149
  963MOL0     C29935   9.004   2.138   8.403  0.1670 -0.5148  0.9793
  963MOL0     C29936   9.132   2.133   8.365  0.6177  0.3637 -0.5151
  963MOL0     C29937   9.164   2.069   8.235 -0.0867  0.4009  0.2601
  963MOL0     H29938   9.566   2.036   8.511 -0.9172 -0.2754 -1.6347
  963MOL0     H29939   9.804   1.992   8.468  0.9782  0.8988 -1.4537
  963MOL0     H29940  10.025   2.064   8.578 -0.4756 -0.1339 -0.7918
  963MOL0     H29941  10.026   1.986   8.425 -0.3748 -1.3489  3.1168
  963MOL0     H29942  10.236   2.120   8.355 -1.7558 -1.0403 -1.2390
  963MOL0     H29943  10.241   1.993   8.466 -0.7308 -0.1071 -0.1701
  963MOL0     H29944  10.292   2.286   8.507  3.1164  2.3140  5.0673
  963MOL0     H29945  10.390   2.143   8.538  0.0915 -1.2815 -2.5932
  963MOL0     H29946  10.144   2.248   8.699  1.1640  1.2520 -0.9205
  963MOL0     H29947  10.209   2.080   8.712  0.1600 -1.0970 -1.5143
  963MOL0     H29948  10.358   2.336   8.792 -0.6099 -0.4156  2.1976
  963MOL0     H29949  10.280   2.213   8.885  0.1684  0.1238  0.8107
  963MOL0     H29950  10.416   2.036   8.823  0.2561 -0.3697  2.5839
  963MOL0     H29951  10.524   2.147   8.720 -0.9575  0.7289 -0.4695
  963MOL0     H29952  10.484   2.159   9.028 -0.0480 -0.2542  0.1851
  963MOL0     H29953  10.581   2.270   8.943  1.6243 -0.6496 -0.1563
  963MOL0     H29954  10.648   1.980   8.932  0.6598  0.5505 -2.6950
  963MOL0     H29955  10.725   2.110   8.844 -0.7158  3.7697 -0.2661
  963MOL0     H29956  10.906   1.950   9.083 -4.4404 -1.1394 -2.0603
  963MOL0     H29957  11.121   2.106   9.288 -0.9563 -0.4233 -2.1229
  963MOL0     H29958  11.008   2.186   9.394 -2.6094  0.1227  0.8006
  963MOL0     H29959  10.869   1.986   9.409 -0.2696 -0.7795  0.4993
  963MOL0     H29960  10.992   1.894   9.331 -0.6011  0.7826 -1.0304
  963MOL0     H29961  10.978   2.022   9.602  0.9376 -0.6675  0.9320
  963MOL0     H29962  11.136   2.042   9.526  0.1757 -0.2489 -0.9099
  963MOL0     H29963  10.979   1.785   9.583 -0.1850  0.5198  1.5393
  963MOL0     H29964  11.138   1.839   9.656  1.3170 -1.7646 -1.2604
  963MOL0     H29965  11.274   1.633   9.650 -2.6155  1.6152 -1.9053
  963MOL0     H29966  11.539   1.621   9.660  2.4475  0.8242 -0.6250
  963MOL0     H29967  11.892   1.473   9.658 -0.0368  0.0713  1.5260
  963MOL0     H29968  12.131   1.437   9.721 -2.0171  1.7722  3.6566
  963MOL0     H29969  12.450   1.685   9.620  0.3602  1.3001  0.1482
  963MOL0     H29970  12.386   1.803   9.737 -0.5367 -0.3594  0.4654
  963MOL0     H29971  12.603   1.745   9.801 -0.9633  1.0048 -0.0548
  963MOL0     H29972  12.483   1.696   9.927  0.0619 -2.7123  1.9338
  963MOL0     H29973  12.471   1.458   9.850 -0.0803 -0.1433 -0.6037
  963MOL0     H29974  12.598   1.493   9.734 -2.6357  2.2422 -0.7493
  963MOL0     H29975  12.670   1.388   9.966  0.1009 -0.0162 -1.8675
  963MOL0     H29976  12.614   1.526  10.043 -0.6658 -0.8611  0.0087
  963MOL0     H29977  12.791   1.669   9.945 -1.5472  0.1021  0.6115
  963MOL0     H29978  12.822   1.545   9.827 -2.9480 -2.0191 -1.1438
  963MOL0     H29979  13.008   1.557   9.997  3.5358 -5.7429  2.3091
  963MOL0     H29980  12.881   1.544  10.120 -0.2886  3.9670 -1.5922
  963MOL0     H29981  12.974   1.325   9.927 -0.7837 -2.1206  0.7945
  963MOL0     H29982  12.859   1.289  10.048 -1.0318 -0.4567 -1.7593
  963MOL0     H29983  13.020   1.360  10.226  2.6257  3.4922  0.0660
  963MOL0     H29984  13.078   1.223  10.122 -1.5371 -0.2819 -1.3053
  963MOL0     H29985  12.206   1.849   9.660  0.0070 -0.0927  0.4423
  963MOL0     H29986  11.979   1.884   9.591  1.3586  0.7033  0.4081
  963MOL0     H29987  11.569   1.902   9.358  0.2418 -1.4811 -0.6222
  963MOL0     H29988  11.314   1.890   9.324 -0.5672 -0.8731 -0.7821
  963MOL0     H29989   9.859   2.409   8.359 -1.0226  1.6535  0.9766
  963MOL0     H29990   9.643   2.470   8.450  0.2688  0.6436  1.9901
  963MOL0     H29991   9.244   2.346   8.624 -0.0622  1.8503  0.4286
  963MOL0     H29992   9.015   2.318   8.689  0.9740 -0.7691 -0.5047
  963MOL0     H29993   8.734   2.330   8.423 -0.6939  3.6841 -0.8154
  963MOL0     H29994   8.855   2.399   8.531 -0.4173 -0.4590 -3.3603
  963MOL0     H29995   8.728   2.380   8.732  1.7163  0.7091 -2.2445
  963MOL0     H29996   8.607   2.269   8.652  0.5055 -0.4423  0.8496
  963MOL0     H29997   8.486   2.466   8.633  0.3245 -2.2787 -0.8337
  963MOL0     H29998   8.601   2.494   8.495  4.3389 -2.7283 -0.0992
  963MOL0     H29999   8.644   2.598   8.781  1.3061 -0.0247  0.8717
  963MOL0     H30000   8.750   2.617   8.631 -1.3548  0.2279 -1.6129
  963MOL0     H30001   8.398   2.884   8.632 -1.2459 -1.4010  4.5752
  963MOL0     H30002   8.925   2.084   8.353 -0.7622 -0.4961  2.3841
  963MOL0     H30003   9.090   1.993   8.209 -0.7107  0.8500  0.7033
  963MOL0     H30004   9.139   2.147   8.162 -3.1573  0.6686  1.4744
  963MOL0     H30005   9.262   2.021   8.239 -1.4344 -2.5024  1.8891
  964MOL0     O30006   7.787   5.441   9.199 -0.0842  0.6998  0.7795
  964MOL0     C30007   7.713   5.499   9.280  0.0483  0.2853  0.6670
  964MOL0     O30008   7.750   5.615   9.344 -0.0046  0.5461 -0.0387
  964MOL0     C30009   7.870   5.682   9.302 -0.4605  0.3017  0.0509
  964MOL0     C30010   7.894   5.717   9.168 -0.1121  0.1635  0.2892
  964MOL0     C30011   8.030   5.747   9.135  0.4037  0.2891  0.2606
  964MOL0     C30012   8.129   5.767   9.232 -0.2750  0.2817 -0.0469
  964MOL0     O30013   8.257   5.809   9.190 -0.3325  0.7693  0.3757
  964MOL0     C30014   8.370   5.813   9.294 -0.0904 -0.1547 -0.2366
  964MOL0     C30015   8.502   5.848   9.227  0.1055  0.4066  0.9031
  964MOL0     C30016   8.615   5.790   9.320 -0.3660 -0.3264 -0.5961
  964MOL0     C30017   8.751   5.825   9.253  0.0680  0.4673 -0.4921
  964MOL0     C30018   8.860   5.738   9.321 -0.5711  0.1323  0.6786
  964MOL0     C30019   9.006   5.780   9.298  1.3312 -0.3368 -0.4129
  964MOL0     C30020   9.095   5.671   9.356 -0.6820 -0.4134  0.2181
  964MOL0     C30021   9.176   5.722   9.465 -0.1702 -0.1499  0.3305
  964MOL0     N30022   9.258   5.627   9.548  0.7095  0.0515  0.2896
  964MOL0     C30023   9.377   5.568   9.526  0.0445 -0.6497  0.7977
  964MOL0     C30024   9.432   5.539   9.643 -0.4790 -0.1475  0.1565
  964MOL0     C30025   9.572   5.461   9.638  0.0237  0.4591 -0.2363
  964MOL0     C30026   9.558   5.324   9.568  0.8784 -0.4364 -0.3948
  964MOL0     C30027   9.493   5.210   9.635  0.3803 -1.2280  0.1102
  964MOL0     C30028   9.518   5.079   9.567 -0.0867 -0.1134 -0.0240
  964MOL0     O30029   9.655   5.042   9.565 -0.1024  0.4683  0.8025
  964MOL0     C30030   9.702   4.907   9.562  0.0070 -1.2603  0.1300
  964MOL0     C30031   9.629   4.787   9.547 -0.4815 -0.5061 -0.1095
  964MOL0     C30032   9.676   4.657   9.517 -0.6199 -0.5610 -0.3779
  964MOL0     C30033   9.807   4.644   9.500 -0.5700  0.2613  0.7829
  964MOL0     C30034   9.868   4.508   9.477 -0.2489  0.6256  0.2428
  964MOL0     O30035   9.785   4.400   9.486 -0.4499  0.5842  0.0664
  964MOL0     C30036   9.832   4.263   9.487  0.4012 -0.4031 -0.3575
  964MOL0     C30037   9.731   4.172   9.471  0.4313  1.2503  0.1170
  964MOL0     C30038   9.763   4.034   9.491  0.0977  0.0590  0.6339
  964MOL0     C30039   9.893   3.986   9.507  1.0499 -0.0804  0.4754
  964MOL0     O30040   9.939   3.857   9.528  0.4665  0.0362  0.4930
  964MOL0     C30041   9.855   3.750   9.482  0.5265  0.1884 -0.2159
  964MOL0     C30042   9.928   3.617   9.492 -0.0439  0.2604  0.4951
  964MOL0     C30043   9.846   3.506   9.434 -0.6466  0.3452 -0.1385
  964MOL0     C30044   9.938   3.383   9.431  0.6152  0.1017  0.0244
  964MOL0     C30045  10.032   3.376   9.312 -0.5046 -0.4009  0.1466
  964MOL0     C30046  10.132   3.250   9.324 -0.6458 -0.7172  0.0252
  964MOL0     C30047  10.223   3.252   9.448 -0.2762 -0.3719 -0.4266
  964MOL0     C30048  10.347   3.174   9.406  0.0744 -0.0171  0.5367
  964MOL0    Cl30049  10.430   3.103   9.549  0.2920 -0.4536 -0.0863
  964MOL0     C30050   9.988   4.090   9.527 -0.2070  0.5867 -0.2683
  964MOL0     C30051   9.961   4.221   9.507  0.1969  0.2189  0.2177
  964MOL0     O30052   9.989   4.511   9.458  0.8384 -1.4740 -0.0814
  964MOL0     C30053   9.890   4.761   9.512 -0.4916 -0.6561 -0.0423
  964MOL0     C30054   9.840   4.889   9.546  0.1029  0.1645  0.3488
  964MOL0     N30055   9.344   5.560   9.743 -0.3748  0.4263 -0.4953
  964MOL0     N30056   9.248   5.623   9.682  0.2136 -0.3232  0.6815
  964MOL0     C30057   8.102   5.731   9.364 -0.3253  0.2916  0.3402
  964MOL0     C30058   7.974   5.689   9.399  0.2196  0.1698 -0.1187
  964MOL0     C30059   7.575   5.447   9.308 -0.5196 -0.4396  0.2391
  964MOL0     C30060   7.501   5.513   9.406 -0.4536 -0.2868 -0.0679
  964MOL0     C30061   7.369   5.477   9.452  0.1550 -0.1829  0.1206
  964MOL0     C30062   7.309   5.369   9.383 -1.0561  0.2899 -0.5300
  964MOL0     O30063   7.181   5.346   9.405  0.4158  0.3804  0.2499
  964MOL0     C30064   7.098   5.257   9.323 -0.6792 -0.4389  0.1502
  964MOL0     C30065   6.964   5.227   9.392 -0.6788  0.0928  0.7941
  964MOL0     C30066   6.860   5.228   9.293 -0.1311 -0.5944  0.0651
  964MOL0     C30067   6.723   5.176   9.348 -0.4350  0.5670  0.1002
  964MOL0     C30068   6.737   5.031   9.386 -0.4740 -0.8869  0.5304
  964MOL0     C30069   6.756   4.914   9.401  0.3353 -0.1407 -0.7933
  964MOL0     C30070   7.377   5.304   9.276  0.4945 -0.8591  0.3387
  964MOL0     C30071   7.508   5.344   9.240  0.3309 -0.1685  0.1569
  964MOL0     C30072   7.577   5.263   9.135 -0.2812  1.1293 -0.3534
  964MOL0     H30073   7.816   5.714   9.093  0.4375 -2.2940 -0.2588
  964MOL0     H30074   8.074   5.788   9.045  2.0146  1.9083  1.7101
  964MOL0     H30075   8.352   5.890   9.369 -2.7188 -1.6913  0.8674
  964MOL0     H30076   8.383   5.714   9.338 -1.4040 -0.9416 -1.5154
  964MOL0     H30077   8.524   5.954   9.213  2.2447 -0.1564 -0.3426
  964MOL0     H30078   8.504   5.809   9.125 -0.9422  1.8838  0.2866
  964MOL0     H30079   8.593   5.684   9.329  2.1192 -0.9034 -0.4347
  964MOL0     H30080   8.605   5.839   9.417  0.1781  0.3689 -0.8818
  964MOL0     H30081   8.760   5.810   9.145  2.2400  2.5446 -0.6839
  964MOL0     H30082   8.774   5.931   9.266  0.1987  0.3881 -0.0427
  964MOL0     H30083   8.840   5.726   9.428  1.2810  0.3393  1.0873
  964MOL0     H30084   8.844   5.638   9.280  0.3324  0.4401 -0.4949
  964MOL0     H30085   9.035   5.778   9.193  0.6957  1.2988 -0.6537
  964MOL0     H30086   9.018   5.881   9.338 -1.3907 -1.2436  3.2745
  964MOL0     H30087   9.155   5.621   9.280  1.7655 -2.2079  3.1017
  964MOL0     H30088   9.049   5.583   9.402 -0.7306  0.0628  1.0990
  964MOL0     H30089   9.249   5.791   9.422 -0.3299  0.8413  1.5708
  964MOL0     H30090   9.109   5.779   9.531  0.7931  0.4459  0.8114
  964MOL0     H30091   9.430   5.551   9.433 -1.4351 -2.8356  0.2754
  964MOL0     H30092   9.646   5.512   9.576 -0.0185  0.7831 -0.0222
  964MOL0     H30093   9.610   5.451   9.740  0.0893 -2.1375 -0.4611
  964MOL0     H30094   9.506   5.341   9.474  3.7657  1.4449 -1.8118
  964MOL0     H30095   9.659   5.287   9.548  1.9197  2.3608 -0.6865
  964MOL0     H30096   9.385   5.224   9.634  0.3256 -1.6660 -0.5304
  964MOL0     H30097   9.524   5.200   9.740  0.2192 -2.6107  0.0495
  964MOL0     H30098   9.479   5.081   9.465  1.2922 -0.6123 -0.5811
  964MOL0     H30099   9.452   5.007   9.618 -2.2932  1.7967 -0.0052
  964MOL0     H30100   9.520   4.786   9.547 -0.5351  0.6910 -1.9358
  964MOL0     H30101   9.609   4.571   9.520  0.6939 -1.6220  2.4014
  964MOL0     H30102   9.630   4.205   9.447  0.7934  2.8224  0.6306
  964MOL0     H30103   9.681   3.962   9.490 -1.5192  1.8156  1.4486
  964MOL0     H30104   9.755   3.741   9.526  1.1423  0.2536  1.2354
  964MOL0     H30105   9.838   3.772   9.376  2.0920 -0.4252 -0.6209
  964MOL0     H30106  10.023   3.637   9.442 -0.9355  3.4340 -0.1200
  964MOL0     H30107   9.946   3.589   9.597 -1.1923 -1.1925  0.3435
  964MOL0     H30108   9.764   3.486   9.503 -1.3075  0.2279 -0.9430
  964MOL0     H30109   9.829   3.536   9.330  1.7140  2.4832 -0.0005
  964MOL0     H30110   9.873   3.296   9.420 -1.8957  1.7568  0.8270
  964MOL0     H30111   9.998   3.378   9.522 -0.5879 -2.0622  0.7773
  964MOL0     H30112  10.093   3.467   9.313  1.1544 -1.4421 -1.0830
  964MOL0     H30113   9.965   3.374   9.226 -0.0900  1.2963 -0.2492
  964MOL0     H30114  10.066   3.163   9.324 -0.8037 -0.5979  0.3350
  964MOL0     H30115  10.180   3.224   9.229 -2.7201 -1.3172 -0.9184
  964MOL0     H30116  10.177   3.195   9.530  0.7033  0.9066  1.0862
  964MOL0     H30117  10.237   3.357   9.477  0.8556 -1.0694  1.8437
  964MOL0     H30118  10.315   3.087   9.348  1.8811 -1.9946  2.3615
  964MOL0     H30119  10.414   3.238   9.348 -0.9603 -0.5745 -1.3493
  964MOL0     H30120  10.086   4.050   9.551  0.5927  1.8817 -1.2790
  964MOL0     H30121  10.041   4.292   9.525  2.1741 -1.7243 -0.4107
  964MOL0     H30122   9.997   4.761   9.491 -0.3175  0.9633  0.7225
  964MOL0     H30123   9.905   4.975   9.544 -0.7674  0.8221 -1.6816
  964MOL0     H30124   8.180   5.735   9.439 -0.3719  2.6210  0.3111
  964MOL0     H30125   7.972   5.642   9.497  2.7186 -1.9590 -0.9660
  964MOL0     H30126   7.547   5.597   9.457  0.8089 -0.7974 -0.3225
  964MOL0     H30127   7.303   5.534   9.516 -1.2003 -2.5279  0.9518
  964MOL0     H30128   7.132   5.155   9.303 -1.4983 -0.6989  0.0346
  964MOL0     H30129   7.093   5.308   9.226  3.4879  1.7481  0.8724
  964MOL0     H30130   6.945   5.311   9.460 -1.2582  0.5334  0.0975
  964MOL0     H30131   6.970   5.133   9.447 -0.3355  0.7456  1.9039
  964MOL0     H30132   6.888   5.160   9.213 -0.5033 -0.1721 -0.4293
  964MOL0     H30133   6.852   5.330   9.254 -1.3438  0.2558  2.3237
  964MOL0     H30134   6.678   5.232   9.430 -1.3569 -0.7067  0.4918
  964MOL0     H30135   6.655   5.190   9.264  1.0319 -1.0004 -1.4498
  964MOL0     H30136   6.786   4.822   9.447  2.6443  0.0680 -1.7874
  964MOL0     H30137   7.333   5.222   9.220  3.6149 -1.7329 -1.0362
  964MOL0     H30138   7.520   5.173   9.108  2.5648 -1.3948  1.4619
  964MOL0     H30139   7.609   5.312   9.043 -0.6459  1.2129 -0.4410
  964MOL0     H30140   7.670   5.225   9.178  0.1979  1.3537 -1.1767
  965MOL0     O30141   3.782   0.847   3.178 -0.5739  0.0427  0.2744
  965MOL0     C30142   3.776   0.882   3.059 -0.3281  0.5811 -0.9607
  965MOL0     O30143   3.817   1.000   3.007 -0.5554 -0.0054 -0.2934
  965MOL0     C30144   3.887   1.097   3.073 -0.0038  0.0686  0.0096
  965MOL0     C30145   3.867   1.227   3.022  0.4868  0.5240  0.8162
  965MOL0     C30146   3.920   1.340   3.084 -0.6234 -0.0630 -0.2562
  965MOL0     C30147   4.004   1.324   3.193 -0.0643  0.2548  0.1393
  965MOL0     O30148   4.071   1.431   3.250 -0.1896  0.5642  0.2705
  965MOL0     C30149   4.076   1.561   3.186 -0.1382 -0.7004  0.4693
  965MOL0     C30150   4.170   1.553   3.074  0.0172 -0.0666  0.9880
  965MOL0     C30151   4.172   1.682   2.993  0.1926  1.0132 -0.9050
  965MOL0     C30152   4.233   1.799   3.071  1.2457  0.0227  0.9834
  965MOL0     C30153   4.282   1.906   2.976  1.1465  0.9239  0.5821
  965MOL0     C30154   4.387   1.992   3.043  0.0253 -0.2549 -0.9645
  965MOL0     C30155   4.435   2.094   2.933 -0.1066  0.8080 -0.0261
  965MOL0     C30156   4.556   2.179   2.977  0.7227  0.7961 -0.3625
  965MOL0     N30157   4.679   2.114   2.934  0.2448 -0.5613  0.2020
  965MOL0     C30158   4.752   2.021   2.996 -0.1157  0.0010  0.0792
  965MOL0     C30159   4.868   2.008   2.932  0.2111  0.1291 -0.2041
  965MOL0     C30160   4.977   1.903   2.963  0.1346 -0.3296  0.1046
  965MOL0     C30161   5.080   1.977   3.047 -0.3508 -0.0113  0.0645
  965MOL0     C30162   5.225   1.929   3.022  0.3968  0.1309 -0.3467
  965MOL0     C30163   5.323   2.046   3.057 -0.2589 -0.0623  0.2152
  965MOL0     O30164   5.338   2.120   2.938  0.0896  0.6390  0.5964
  965MOL0     C30165   5.448   2.205   2.921  0.8827 -0.3436  0.7504
  965MOL0     C30166   5.466   2.263   2.798  0.0916  0.2833 -0.0569
  965MOL0     C30167   5.560   2.366   2.776  0.7321 -0.3033  0.5353
  965MOL0     C30168   5.636   2.415   2.880 -0.7561  0.3205 -0.2281
  965MOL0     C30169   5.759   2.499   2.856 -0.6108 -0.9781  0.5296
  965MOL0     O30170   5.827   2.537   2.966 -0.2611 -0.2354 -0.3135
  965MOL0     C30171   5.942   2.610   2.959  0.3590 -1.3935  0.0224
  965MOL0     C30172   6.064   2.557   2.932  1.4684  0.4705  0.0515
  965MOL0     C30173   6.173   2.641   2.911 -0.0259 -0.3531  0.9073
  965MOL0     C30174   6.163   2.781   2.952  0.0613 -0.4860 -0.8189
  965MOL0     O30175   6.267   2.880   2.949 -0.3263  0.4959 -0.0203
  965MOL0     C30176   6.379   2.854   2.864 -0.4850 -0.3452  0.7801
  965MOL0     C30177   6.493   2.961   2.866 -0.3462 -1.0732 -0.1232
  965MOL0     C30178   6.546   2.974   3.012 -0.2279  0.4614 -0.0698
  965MOL0     C30179   6.693   3.044   3.005  0.1833 -0.7069 -0.1415
  965MOL0     C30180   6.765   3.065   3.140  0.0343 -0.1405  0.2081
  965MOL0     C30181   6.695   3.170   3.228 -0.2492 -0.2923  0.5684
  965MOL0     C30182   6.759   3.203   3.359 -0.6321  0.0173  0.1883
  965MOL0     C30183   6.819   3.075   3.432 -0.1597 -0.4624  0.1652
  965MOL0    Cl30184   6.984   3.050   3.381  0.2532  0.1686 -0.3295
  965MOL0     C30185   6.038   2.835   2.988 -0.0603  0.2935 -0.1431
  965MOL0     C30186   5.932   2.751   2.998  0.3839  0.4693  0.5244
  965MOL0     O30187   5.788   2.522   2.739 -0.5011  0.2170 -0.6181
  965MOL0     C30188   5.605   2.370   3.007 -0.9831 -0.7206  0.0111
  965MOL0     C30189   5.516   2.265   3.032  0.6508  0.2553  0.6821
  965MOL0     N30190   4.858   2.108   2.830 -0.2435  0.5131  0.3394
  965MOL0     N30191   4.746   2.161   2.830 -0.1083 -0.2713  0.3742
  965MOL0     C30192   4.026   1.189   3.247  0.5589  0.4855  0.1910
  965MOL0     C30193   3.968   1.079   3.186 -0.6251 -0.3268  0.3948
  965MOL0     C30194   3.702   0.789   2.973  0.5618 -0.0625 -0.4691
  965MOL0     C30195   3.774   0.684   2.918 -0.2378 -0.4814  0.7593
  965MOL0     C30196   3.719   0.593   2.822  0.3499  0.8158 -0.2463
  965MOL0     C30197   3.592   0.620   2.766  0.2353  0.5741 -0.9148
  965MOL0     O30198   3.522   0.540   2.674  0.0489  0.2355 -0.5931
  965MOL0     C30199   3.579   0.426   2.617  0.0115  0.0539  0.1485
  965MOL0     C30200   3.684   0.453   2.504 -0.2103 -0.2348  0.4213
  965MOL0     C30201   3.620   0.520   2.376  0.4349 -0.5993  0.1959
  965MOL0     C30202   3.729   0.539   2.265  0.2151  0.5082 -0.8306
  965MOL0     C30203   3.672   0.526   2.128  0.1920 -0.1371  0.9067
  965MOL0     C30204   3.632   0.498   2.012 -0.9292  0.1116  0.3516
  965MOL0     C30205   3.530   0.735   2.812  0.2971 -0.2412 -0.3256
  965MOL0     C30206   3.584   0.823   2.905 -0.6125  0.1937 -0.1196
  965MOL0     C30207   3.499   0.945   2.941 -0.2721 -0.2377 -0.7564
  965MOL0     H30208   3.813   1.223   2.928  1.4915 -1.2144  0.2891
  965MOL0     H30209   3.912   1.436   3.035  2.4711  0.3488 -0.1759
  965MOL0     H30210   3.982   1.606   3.153  1.1914  0.8873 -1.3112
  965MOL0     H30211   4.111   1.626   3.267 -0.1327 -2.2431  1.7745
  965MOL0     H30212   4.143   1.474   3.003  0.8793  0.2887  0.2557
  965MOL0     H30213   4.268   1.523   3.111 -0.6234 -2.4554  0.9463
  965MOL0     H30214   4.069   1.703   2.963 -0.3972  0.1770  0.3967
  965MOL0     H30215   4.225   1.653   2.902 -1.6206 -0.8087 -1.4677
  965MOL0     H30216   4.164   1.851   3.138  1.9073 -0.4768  2.0774
  965MOL0     H30217   4.308   1.762   3.143  2.5052  0.4071 -0.0861
  965MOL0     H30218   4.336   1.855   2.895 -0.3719 -0.4615  0.3785
  965MOL0     H30219   4.193   1.956   2.936 -1.2632 -2.1798  1.6220
  965MOL0     H30220   4.346   2.031   3.136 -1.1289 -0.5611 -1.3345
  965MOL0     H30221   4.475   1.931   3.071  0.8079  0.9778 -0.6771
  965MOL0     H30222   4.345   2.155   2.916  1.1106  2.9313  0.6827
  965MOL0     H30223   4.461   2.045   2.839  3.9515  2.6190 -0.0432
  965MOL0     H30224   4.541   2.281   2.941 -2.1367 -0.0438 -1.9149
  965MOL0     H30225   4.555   2.175   3.086 -3.2195 -2.2320 -0.2916
  965MOL0     H30226   4.713   1.953   3.071 -2.8032 -2.9884 -3.6596
  965MOL0     H30227   4.940   1.819   3.022 -1.5129  0.2680 -0.0120
  965MOL0     H30228   5.021   1.864   2.870  0.3339  1.5180 -0.6272
  965MOL0     H30229   5.076   2.082   3.017  0.2368  0.2994  1.0105
  965MOL0     H30230   5.058   1.983   3.154 -0.8273  2.2936 -0.1037
  965MOL0     H30231   5.245   1.896   2.920 -1.0435 -3.8302  0.4594
  965MOL0     H30232   5.252   1.849   3.091 -0.5878 -0.6380 -0.8276
  965MOL0     H30233   5.409   1.982   3.081 -0.8302  0.7224  5.6540
  965MOL0     H30234   5.303   2.110   3.143 -0.5981  0.0135  0.0812
  965MOL0     H30235   5.411   2.233   2.710  1.3303 -0.9222 -0.4679
  965MOL0     H30236   5.577   2.390   2.671 -0.3212  1.0004  0.6435
  965MOL0     H30237   6.067   2.453   2.903 -0.5898  0.8854 -1.8810
  965MOL0     H30238   6.260   2.598   2.862 -1.3165 -0.0852 -1.8005
  965MOL0     H30239   6.436   2.767   2.898  1.6358  0.6517 -0.0060
  965MOL0     H30240   6.352   2.842   2.759  0.9922  2.0082  0.0528
  965MOL0     H30241   6.571   2.942   2.792  0.0570  0.8620 -0.2626
  965MOL0     H30242   6.458   3.059   2.830  1.2440 -0.5000 -0.2366
  965MOL0     H30243   6.483   3.044   3.069  0.7285  0.1744  1.3761
  965MOL0     H30244   6.551   2.882   3.071 -2.6488  1.1343  1.3149
  965MOL0     H30245   6.687   3.141   2.956  0.7818 -1.6105 -2.1260
  965MOL0     H30246   6.756   2.978   2.945  1.9932  0.0646  0.8304
  965MOL0     H30247   6.866   3.089   3.105  0.3370 -1.7131 -0.0623
  965MOL0     H30248   6.774   2.972   3.196 -0.0571 -1.2033 -1.4566
  965MOL0     H30249   6.688   3.259   3.164 -1.0702 -2.4385 -2.5542
  965MOL0     H30250   6.595   3.127   3.241  0.3080 -1.2644  1.7787
  965MOL0     H30251   6.684   3.249   3.424 -0.2753 -0.4457  0.9499
  965MOL0     H30252   6.840   3.273   3.339 -0.7051  0.3710  1.1135
  965MOL0     H30253   6.808   3.088   3.540 -5.2588 -2.1575  0.1320
  965MOL0     H30254   6.755   2.990   3.405 -0.6466  0.3569 -1.4102
  965MOL0     H30255   6.019   2.938   3.019 -1.5072  0.0442 -0.1293
  965MOL0     H30256   5.834   2.789   3.026 -0.3693 -0.9423 -0.1054
  965MOL0     H30257   5.646   2.432   3.086 -0.5841  0.9822 -1.4546
  965MOL0     H30258   5.491   2.242   3.135 -0.3361  2.3181  0.9521
  965MOL0     H30259   4.086   1.189   3.338 -1.7627  1.6581  1.8374
  965MOL0     H30260   3.998   0.981   3.221  0.1624 -0.5118 -0.7518
  965MOL0     H30261   3.877   0.665   2.948  0.0922 -1.8273 -1.0336
  965MOL0     H30262   3.780   0.505   2.804 -0.1498  0.1316  1.2104
  965MOL0     H30263   3.503   0.363   2.570 -1.8662  1.7436  0.8040
  965MOL0     H30264   3.627   0.377   2.702 -2.8570  2.5777  3.5054
  965MOL0     H30265   3.735   0.358   2.486  0.7458 -0.1063  2.2268
  965MOL0     H30266   3.763   0.514   2.549  3.0413 -2.2564 -2.1142
  965MOL0     H30267   3.574   0.616   2.400  1.0757 -0.1767 -0.2339
  965MOL0     H30268   3.548   0.446   2.338 -0.7606  0.3002  0.6446
  965MOL0     H30269   3.767   0.642   2.273 -1.6002  1.1083  0.9077
  965MOL0     H30270   3.818   0.476   2.276 -0.3334 -0.4233 -1.5597
  965MOL0     H30271   3.597   0.487   1.912  0.7533  0.4959 -0.3098
  965MOL0     H30272   3.433   0.753   2.767 -0.0213 -1.2045 -0.0646
  965MOL0     H30273   3.421   0.970   2.869 -0.1409  1.7483 -0.2649
  965MOL0     H30274   3.441   0.931   3.033 -2.4237  1.3239 -1.8045
  965MOL0     H30275   3.548   1.040   2.965 -2.8681  0.7312  1.1681
  966MOL0     O30276   2.510   5.108  10.782 -0.0773 -1.0978 -0.2183
  966MOL0     C30277   2.524   4.991  10.817  0.7200  0.4865 -0.4112
  966MOL0     O30278   2.631   4.910  10.786  0.0889  0.1760 -0.9012
  966MOL0     C30279   2.738   4.958  10.715 -0.0116 -0.1368  1.1913
  966MOL0     C30280   2.820   5.057  10.763  0.3237 -0.7858  0.2224
  966MOL0     C30281   2.932   5.105  10.694  0.4072  0.0356 -0.4453
  966MOL0     C30282   2.954   5.063  10.558  0.7234  0.5458 -0.3007
  966MOL0     O30283   3.055   5.105  10.473 -0.1259  0.6020  0.1283
  966MOL0     C30284   3.092   5.244  10.491  1.3154  1.7492  0.4856
  966MOL0     C30285   3.160   5.300  10.373 -1.7853 -0.5053 -0.0789
  966MOL0     C30286   3.284   5.216  10.327 -1.0290  0.2831  0.1404
  966MOL0     C30287   3.337   5.268  10.201 -0.6332 -0.1752 -0.0852
  966MOL0     C30288   3.452   5.185  10.142 -0.8659 -0.2725  0.2317
  966MOL0     C30289   3.568   5.264  10.088  0.6664 -0.6663 -0.1448
  966MOL0     C30290   3.678   5.187  10.022 -0.2331  0.1388  0.3002
  966MOL0     C30291   3.774   5.288   9.961  0.1139  0.6122 -0.2909
  966MOL0     N30292   3.901   5.232   9.916 -0.9113  0.5471 -0.1790
  966MOL0     C30293   3.902   5.163   9.803 -1.0008 -0.8870  1.1127
  966MOL0     C30294   4.002   5.071   9.813  0.6083  0.6062  0.2308
  966MOL0     C30295   4.037   4.987   9.701 -0.1408 -0.2498  0.5920
  966MOL0     C30296   4.146   5.037   9.604  0.1872  1.0813  0.5108
  966MOL0     C30297   4.168   4.942   9.486  0.0346  0.3275 -0.4810
  966MOL0     C30298   4.294   4.965   9.403  0.3209 -0.2544 -0.0320
  966MOL0     O30299   4.408   4.961   9.490  0.5531 -0.6507  0.1563
  966MOL0     C30300   4.534   4.980   9.447 -0.2498  0.3676  0.4707
  966MOL0     C30301   4.642   4.961   9.535  0.3193  0.1712 -0.7490
  966MOL0     C30302   4.775   4.953   9.489 -0.5105  0.9419  0.3314
  966MOL0     C30303   4.804   4.978   9.350 -1.2436  0.6970 -0.8730
  966MOL0     C30304   4.950   4.991   9.313 -0.5810 -0.5428  0.2184
  966MOL0     O30305   5.043   4.963   9.410  0.0516  0.0873 -0.5137
  966MOL0     C30306   5.173   4.979   9.380  0.0998  0.3393  0.6118
  966MOL0     C30307   5.240   5.055   9.473 -0.2589  0.4213 -0.3465
  966MOL0     C30308   5.383   5.046   9.473  0.3024  0.4317  0.3867
  966MOL0     C30309   5.446   4.972   9.376  0.1193 -0.1604  1.2018
  966MOL0     O30310   5.582   4.985   9.381  0.6950  0.2800  0.2076
  966MOL0     C30311   5.656   4.886   9.309  0.1078  0.2350 -0.5745
  966MOL0     C30312   5.798   4.892   9.349  0.4238 -0.4372  0.2376
  966MOL0     C30313   5.824   4.835   9.488 -0.1893 -0.1727 -0.6181
  966MOL0     C30314   5.974   4.781   9.500 -0.9428 -0.7116 -0.4381
  966MOL0     C30315   6.004   4.725   9.632  0.1542 -0.7196  0.3721
  966MOL0     C30316   5.958   4.582   9.656  0.6448 -0.5884  0.3338
  966MOL0     C30317   5.987   4.540   9.795  0.1213 -0.2066  0.2256
  966MOL0     C30318   6.135   4.529   9.832 -0.6466  0.6440 -0.9819
  966MOL0    Cl30319   6.238   4.436   9.719 -0.7040 -0.4338 -0.5066
  966MOL0     C30320   5.376   4.917   9.262 -0.4662  0.1036 -0.7297
  966MOL0     C30321   5.242   4.912   9.274  0.7633 -0.6067 -0.9926
  966MOL0     O30322   4.973   5.006   9.193 -0.5978  0.0888 -0.3379
  966MOL0     C30323   4.702   5.000   9.261 -1.0189  0.8543  0.1233
  966MOL0     C30324   4.572   5.001   9.311 -0.2293 -0.2605 -1.2073
  966MOL0     N30325   4.062   5.088   9.938 -0.3198 -0.8029  0.1234
  966MOL0     N30326   3.991   5.168  10.003  1.2299 -0.8399  0.3239
  966MOL0     C30327   2.868   4.968  10.512 -1.0737  0.1603  0.2347
  966MOL0     C30328   2.758   4.909  10.586  0.4553 -0.7463  0.3498
  966MOL0     C30329   2.420   4.942  10.915 -0.1800 -0.6551 -0.3735
  966MOL0     C30330   2.451   4.872  11.033 -0.3240 -0.6118 -1.2065
  966MOL0     C30331   2.358   4.831  11.127 -0.1792  0.3362  0.1894
  966MOL0     C30332   2.225   4.849  11.098 -0.4814 -0.8486 -0.8362
  966MOL0     O30333   2.139   4.798  11.189  0.2388  0.3161 -0.3995
  966MOL0     C30334   2.002   4.783  11.148 -0.3513 -0.2137  0.1256
  966MOL0     C30335   1.929   4.709  11.256 -0.1735  0.7096  0.0024
  966MOL0     C30336   1.872   4.793  11.366 -0.1264  0.1647  0.7937
  966MOL0     C30337   1.973   4.824  11.474 -0.6322 -0.3979 -1.4432
  966MOL0     C30338   1.924   4.918  11.577 -0.2961  0.0561 -0.5939
  966MOL0     C30339   1.892   4.995  11.664  0.1215  0.6028  0.3946
  966MOL0     C30340   2.178   4.916  10.982 -0.0951 -0.3491  0.1003
  966MOL0     C30341   2.278   4.968  10.890  0.4293 -0.5922 -0.7400
  966MOL0     C30342   2.218   5.050  10.772 -0.3731  0.3197 -1.1358
  966MOL0     H30343   2.795   5.095  10.861 -1.1198 -1.5484  0.1760
  966MOL0     H30344   2.993   5.190  10.720 -1.4584  1.5866 -0.8749
  966MOL0     H30345   2.997   5.298  10.503 -1.2889 -2.5584  1.1493
  966MOL0     H30346   3.152   5.238  10.583 -0.7427 -1.1232  1.7871
  966MOL0     H30347   3.189   5.402  10.400 -0.0429  0.1144 -3.6804
  966MOL0     H30348   3.090   5.322  10.292 -0.1478  0.3535 -1.3232
  966MOL0     H30349   3.244   5.116  10.305 -1.3870  0.4119  0.1935
  966MOL0     H30350   3.360   5.200  10.404  0.0838  0.2088 -0.9428
  966MOL0     H30351   3.270   5.269  10.114 -1.1995  0.8969  0.3426
  966MOL0     H30352   3.360   5.374  10.217 -1.9378  0.2299 -0.7475
  966MOL0     H30353   3.493   5.110  10.210  0.0803 -0.1550 -0.1927
  966MOL0     H30354   3.420   5.118  10.061  2.4949 -0.3882 -1.1609
  966MOL0     H30355   3.537   5.346  10.022  2.4413  0.4819  0.3850
  966MOL0     H30356   3.609   5.319  10.173  2.7470  1.5146 -2.4114
  966MOL0     H30357   3.633   5.117   9.952  2.5257  1.8106 -3.4585
  966MOL0     H30358   3.729   5.126  10.097 -2.7433 -2.1483  0.2770
  966MOL0     H30359   3.723   5.328   9.873 -0.4031  0.1464 -0.2131
  966MOL0     H30360   3.792   5.362  10.040  0.4414  1.8326 -1.4838
  966MOL0     H30361   3.841   5.173   9.714  1.6773  0.1344 -0.7091
  966MOL0     H30362   4.080   4.896   9.742  1.6321  0.3887  0.2460
  966MOL0     H30363   3.955   4.950   9.639 -1.9275  1.0737  2.0677
  966MOL0     H30364   4.123   5.131   9.553  1.7356  1.1367 -0.1337
  966MOL0     H30365   4.239   5.043   9.662  1.4320 -1.0953 -1.1143
  966MOL0     H30366   4.076   4.944   9.427 -1.3873 -2.5562  1.4314
  966MOL0     H30367   4.174   4.842   9.530 -0.6945 -0.4892 -2.1741
  966MOL0     H30368   4.282   5.064   9.358  2.6955  1.6195  3.0430
  966MOL0     H30369   4.302   4.884   9.330  0.9583 -0.0026 -0.2444
  966MOL0     H30370   4.626   4.956   9.642  4.0023 -1.9547 -0.1033
  966MOL0     H30371   4.855   4.940   9.562 -1.7447 -0.1942  1.5529
  966MOL0     H30372   5.183   5.103   9.553 -1.5484 -1.1343 -0.2805
  966MOL0     H30373   5.439   5.105   9.545  0.2612  1.7140 -0.5961
  966MOL0     H30374   5.610   4.787   9.318 -2.5169  1.5449  2.4215
  966MOL0     H30375   5.658   4.916   9.204  2.0836  4.0680  0.3664
  966MOL0     H30376   5.868   4.850   9.277  0.6088  0.3739 -0.0623
  966MOL0     H30377   5.829   4.997   9.347 -1.6271  0.2181 -0.4886
  966MOL0     H30378   5.804   4.909   9.565 -1.0440 -0.7585 -0.2706
  966MOL0     H30379   5.765   4.747   9.515  0.1475  0.3005  1.9010
  966MOL0     H30380   6.058   4.839   9.461 -2.5416  1.0368 -1.5044
  966MOL0     H30381   5.974   4.700   9.426 -2.6182 -1.6651  0.5222
  966MOL0     H30382   5.963   4.788   9.711 -0.8287  1.8836 -2.0562
  966MOL0     H30383   6.114   4.724   9.632  0.4530 -2.7327 -5.0298
  966MOL0     H30384   5.852   4.567   9.633  0.1091 -1.5929  3.0417
  966MOL0     H30385   6.011   4.521   9.583  0.6419 -2.2217  1.6314
  966MOL0     H30386   5.946   4.442   9.820  0.0581  0.1474  1.5740
  966MOL0     H30387   5.938   4.600   9.872 -0.4189 -0.9587  0.4780
  966MOL0     H30388   6.185   4.625   9.846  2.3047 -0.2916 -3.8002
  966MOL0     H30389   6.133   4.480   9.929  2.5158 -0.3006 -1.2945
  966MOL0     H30390   5.426   4.873   9.177 -2.6681 -0.3752 -1.8653
  966MOL0     H30391   5.191   4.840   9.211  2.0847 -0.9533 -1.7101
  966MOL0     H30392   4.720   4.985   9.155 -3.5518  1.4749 -0.4655
  966MOL0     H30393   4.493   5.011   9.238 -0.6291 -1.6786 -1.0034
  966MOL0     H30394   2.891   4.937  10.410  1.2902 -0.3240  0.8484
  966MOL0     H30395   2.700   4.830  10.538  0.1256  0.6916 -1.7204
  966MOL0     H30396   2.553   4.867  11.070  0.3240  3.6599 -1.8979
  966MOL0     H30397   2.388   4.789  11.223 -4.7097 -0.9947  1.2913
  966MOL0     H30398   1.993   4.726  11.055 -0.6737 -1.0640  0.6694
  966MOL0     H30399   1.963   4.884  11.130  2.6925  0.7460 -1.8840
  966MOL0     H30400   1.996   4.637  11.304 -0.3339  0.6582  0.1479
  966MOL0     H30401   1.850   4.650  11.209  0.4783 -0.4168  0.2924
  966MOL0     H30402   1.775   4.754  11.400 -1.9516  3.0576 -0.6720
  966MOL0     H30403   1.830   4.885  11.325 -1.0543 -0.2466  0.7731
  966MOL0     H30404   2.016   4.734  11.519 -0.0925  0.7829  0.5149
  966MOL0     H30405   2.059   4.875  11.430 -0.3715  2.1047  1.6332
  966MOL0     H30406   1.861   5.067  11.737 -2.1594  1.4812 -1.3113
  966MOL0     H30407   2.074   4.931  10.956  0.2166  3.2356  0.3623
  966MOL0     H30408   2.278   5.033  10.682  2.6008 -3.3674  1.2561
  966MOL0     H30409   2.111   5.031  10.760 -0.2822  0.3284 -2.0335
  966MOL0     H30410   2.233   5.154  10.803  4.6964 -0.9773  1.9271
  967MOL0     O30411   5.477   8.510   0.993 -0.2256 -0.2976 -0.5156
  967MOL0     C30412   5.370   8.520   0.931 -0.6065 -0.0072 -0.7694
  967MOL0     O30413   5.337   8.616   0.839 -0.2532 -0.5536 -0.7083
  967MOL0     C30414   5.417   8.731   0.826  0.7649  0.1450  0.0872
  967MOL0     C30415   5.422   8.834   0.923 -0.6076  0.6715 -0.4107
  967MOL0     C30416   5.501   8.944   0.901  0.4721  0.7540 -0.0704
  967MOL0     C30417   5.571   8.953   0.784  0.5872  0.1586 -0.1613
  967MOL0     O30418   5.640   9.069   0.750 -0.1159  0.3149 -0.3063
  967MOL0     C30419   5.780   9.060   0.758  0.1490  0.0893  0.3525
  967MOL0     C30420   5.846   9.189   0.710  1.7063  1.1664 -0.4343
  967MOL0     C30421   5.989   9.187   0.763  0.5621  0.5042  0.4816
  967MOL0     C30422   6.058   9.318   0.710  0.7213  0.1342  0.5538
  967MOL0     C30423   6.178   9.360   0.796  0.0598  0.4189  0.2337
  967MOL0     C30424   6.293   9.259   0.780 -0.0364  0.1582 -0.0678
  967MOL0     C30425   6.432   9.288   0.842 -0.1699  0.2282 -0.6311
  967MOL0     C30426   6.423   9.298   0.993 -0.2614  0.9141  0.3089
  967MOL0     N30427   6.546   9.333   1.071  0.2933  0.1873  0.3005
  967MOL0     C30428   6.673   9.289   1.048 -0.0459  1.0458  0.0290
  967MOL0     C30429   6.746   9.325   1.156  0.6573 -0.0957  0.4026
  967MOL0     C30430   6.885   9.293   1.177 -0.5068 -1.4895  0.6467
  967MOL0     C30431   6.905   9.160   1.252 -0.4117 -0.7749  0.2721
  967MOL0     C30432   7.053   9.129   1.283  1.5572 -0.3347 -0.0338
  967MOL0     C30433   7.054   9.001   1.374 -0.8025  0.5380  0.9426
  967MOL0     O30434   7.191   8.967   1.392 -0.0818  0.9103 -0.4082
  967MOL0     C30435   7.261   8.889   1.304 -0.2614 -0.0587 -0.0226
  967MOL0     C30436   7.393   8.855   1.342  0.0106 -1.6940  1.2916
  967MOL0     C30437   7.473   8.767   1.262 -0.8545 -0.1798  0.2165
  967MOL0     C30438   7.420   8.715   1.149  0.1220  0.4864 -0.7195
  967MOL0     C30439   7.504   8.616   1.075 -0.0089  0.1625  0.1873
  967MOL0     O30440   7.630   8.597   1.126 -0.3297  0.2740  0.2099
  967MOL0     C30441   7.719   8.501   1.071  0.4232 -0.4591 -0.1772
  967MOL0     C30442   7.832   8.527   1.002  0.0966 -0.6674 -0.0179
  967MOL0     C30443   7.908   8.424   0.939 -0.1798 -0.0688  1.3558
  967MOL0     C30444   7.880   8.293   0.975  0.4642 -0.9564 -0.1457
  967MOL0     O30445   7.952   8.197   0.907 -0.6012 -0.9021 -0.2943
  967MOL0     C30446   7.938   8.051   0.937 -0.6093 -0.2197  0.3480
  967MOL0     C30447   7.874   7.975   0.816 -0.2543  1.0538 -0.3825
  967MOL0     C30448   7.873   7.820   0.821 -0.1026  0.2135  0.2505
  967MOL0     C30449   7.763   7.751   0.729  0.5079  0.4302 -0.5316
  967MOL0     C30450   7.738   7.612   0.780  0.1883 -0.3865 -0.8868
  967MOL0     C30451   7.852   7.502   0.744  0.0599 -0.3460  0.0700
  967MOL0     C30452   7.805   7.377   0.824 -0.4469  0.7978 -0.8035
  967MOL0     C30453   7.910   7.263   0.836 -0.4589 -0.1871  0.0899
  967MOL0    Cl30454   8.023   7.244   0.699  0.0057  0.5238  0.1054
  967MOL0     C30455   7.782   8.262   1.066  0.1948  0.0003 -0.3682
  967MOL0     C30456   7.691   8.361   1.109  0.1359  0.7039  1.4541
  967MOL0     O30457   7.456   8.565   0.982  0.0421 -0.6706  0.0006
  967MOL0     C30458   7.289   8.751   1.110 -0.4956 -0.4500  0.7177
  967MOL0     C30459   7.208   8.832   1.189  0.2584 -0.7363 -0.4534
  967MOL0     N30460   6.671   9.393   1.239  0.1926 -0.2773 -0.4161
  967MOL0     N30461   6.557   9.407   1.187  0.0178 -0.4226  0.0083
  967MOL0     C30462   5.571   8.847   0.694  0.6994  0.3640 -0.5784
  967MOL0     C30463   5.491   8.739   0.709  1.2176  0.6781 -0.7015
  967MOL0     C30464   5.274   8.407   0.935 -0.2171  0.1289  0.1816
  967MOL0     C30465   5.188   8.391   0.826  0.2297  0.0240 -1.3158
  967MOL0     C30466   5.088   8.284   0.824 -1.1556  0.3131 -0.2136
  967MOL0     C30467   5.083   8.198   0.923  0.8138  0.9915 -0.1546
  967MOL0     O30468   5.006   8.094   0.902  0.5933  0.8764  0.2078
  967MOL0     C30469   4.977   8.012   1.016  0.3730  0.1234 -0.4069
  967MOL0     C30470   4.867   7.908   0.993  0.3302  0.1423  0.0680
  967MOL0     C30471   4.834   7.847   1.134 -0.7345 -0.0753  0.1673
  967MOL0     C30472   4.720   7.741   1.133 -0.7094 -0.4903 -0.1627
  967MOL0     C30473   4.752   7.636   1.040 -0.1873  0.3628  0.9568
  967MOL0     C30474   4.795   7.544   0.969  0.0140 -0.8881 -0.6193
  967MOL0     C30475   5.164   8.217   1.031  1.1774 -0.3663 -0.3204
  967MOL0     C30476   5.262   8.317   1.041  0.6476  0.3369  0.1595
  967MOL0     C30477   5.353   8.304   1.164 -0.0726 -0.4774  0.2286
  967MOL0     H30478   5.347   8.830   1.001 -0.4916 -3.0419 -0.3353
  967MOL0     H30479   5.499   9.023   0.975  0.4634 -0.3287  1.1093
  967MOL0     H30480   5.795   9.033   0.863 -1.1499 -1.8928  0.0918
  967MOL0     H30481   5.827   8.976   0.706  1.6120  0.2521  1.3546
  967MOL0     H30482   5.787   9.265   0.762  0.1548 -0.7827  0.8349
  967MOL0     H30483   5.838   9.209   0.602 -5.3408  1.2949 -0.3697
  967MOL0     H30484   6.034   9.096   0.720 -0.7894  0.0760 -0.0882
  967MOL0     H30485   5.998   9.185   0.872 -2.0530 -0.6807  0.7395
  967MOL0     H30486   6.091   9.299   0.608  1.4159 -0.2429  0.8451
  967MOL0     H30487   5.987   9.400   0.700  2.7945  1.8080 -1.3621
  967MOL0     H30488   6.197   9.465   0.769 -3.1704  1.7569  2.5331
  967MOL0     H30489   6.155   9.372   0.902 -0.9961  3.0455 -0.2283
  967MOL0     H30490   6.255   9.164   0.819  2.5473 -0.4284  1.3105
  967MOL0     H30491   6.315   9.243   0.674  1.0150  2.3193 -0.2295
  967MOL0     H30492   6.448   9.390   0.806  0.4026 -0.0465 -1.1685
  967MOL0     H30493   6.518   9.226   0.817 -0.1890 -0.4173  0.8036
  967MOL0     H30494   6.350   9.376   1.016 -0.4716  0.8649 -0.1888
  967MOL0     H30495   6.380   9.209   1.040  0.7651  0.2081 -0.0305
  967MOL0     H30496   6.712   9.221   0.973 -1.5450  0.9722 -0.7253
  967MOL0     H30497   6.921   9.292   1.074 -2.9357  4.7476 -0.7551
  967MOL0     H30498   6.948   9.363   1.232 -0.0109 -1.3105 -0.1410
  967MOL0     H30499   6.859   9.191   1.346  1.3539 -2.1032  1.6521
  967MOL0     H30500   6.858   9.072   1.207  1.0041 -1.9271  0.9356
  967MOL0     H30501   7.105   9.213   1.330  1.0350 -1.7233  3.2832
  967MOL0     H30502   7.109   9.117   1.190  3.6985  0.9643  1.0006
  967MOL0     H30503   6.996   8.924   1.323 -0.5146  2.0116 -1.8285
  967MOL0     H30504   7.015   9.023   1.474 -0.3390  1.4183  0.9404
  967MOL0     H30505   7.442   8.900   1.428  3.4555 -0.1705 -1.1848
  967MOL0     H30506   7.573   8.747   1.298 -0.3270  2.3081  0.3552
  967MOL0     H30507   7.851   8.633   0.986 -1.3633 -0.2440  0.8544
  967MOL0     H30508   7.993   8.450   0.876 -2.3296  2.9303 -0.5643
  967MOL0     H30509   8.040   8.011   0.944 -1.4263 -2.6369 -0.5831
  967MOL0     H30510   7.896   8.017   1.031  0.3641 -2.1029  0.1500
  967MOL0     H30511   7.767   7.995   0.819 -0.5843 -0.2432 -2.1664
  967MOL0     H30512   7.905   8.017   0.720  2.4833 -0.0575 -0.0875
  967MOL0     H30513   7.973   7.779   0.807 -1.1627 -1.4723 -3.3261
  967MOL0     H30514   7.851   7.789   0.924  2.7705 -0.2677  0.8073
  967MOL0     H30515   7.776   7.744   0.621 -2.0853 -0.5113 -0.8774
  967MOL0     H30516   7.669   7.807   0.737  1.0897  1.2910  0.5504
  967MOL0     H30517   7.639   7.585   0.742 -1.4802  1.3744  1.8465
  967MOL0     H30518   7.731   7.618   0.889 -1.9762  2.2963 -1.0624
  967MOL0     H30519   7.855   7.476   0.638  1.4104 -2.0304  0.4871
  967MOL0     H30520   7.950   7.528   0.784 -0.8600  0.2949  2.0345
  967MOL0     H30521   7.716   7.343   0.770 -1.7690 -0.0214  1.7150
  967MOL0     H30522   7.770   7.403   0.924  1.0900 -1.1579  0.3144
  967MOL0     H30523   7.977   7.283   0.920 -0.3668  3.1831 -0.6524
  967MOL0     H30524   7.863   7.172   0.874 -1.3293 -0.0615 -0.6527
  967MOL0     H30525   7.758   8.165   1.109 -1.8473  1.3625  1.8099
  967MOL0     H30526   7.609   8.344   1.178  0.5513  0.6948  1.9463
  967MOL0     H30527   7.248   8.724   1.013  0.7742  3.5580 -1.1082
  967MOL0     H30528   7.110   8.864   1.157 -0.3335  0.8822  2.6344
  967MOL0     H30529   5.638   8.856   0.609  2.7269  1.4449  1.0453
  967MOL0     H30530   5.483   8.665   0.631 -0.5045 -1.2627  1.1859
  967MOL0     H30531   5.161   8.469   0.755 -0.7239 -1.5126 -2.7300
  967MOL0     H30532   5.025   8.285   0.735 -1.3494 -0.1073 -0.0799
  967MOL0     H30533   4.940   8.077   1.096  1.8360 -0.2153  0.5793
  967MOL0     H30534   5.067   7.960   1.050  0.6588  1.3053  0.6914
  967MOL0     H30535   4.888   7.831   0.919  0.5584  0.7735 -0.5277
  967MOL0     H30536   4.770   7.956   0.972  1.6270  2.5383 -0.8751
  967MOL0     H30537   4.814   7.929   1.203 -3.1944 -1.3944  1.1160
  967MOL0     H30538   4.921   7.788   1.165 -0.3469 -0.2113 -1.1406
  967MOL0     H30539   4.702   7.692   1.229  2.3344 -3.4698 -0.8935
  967MOL0     H30540   4.628   7.793   1.106 -0.2508  0.7606  0.5894
  967MOL0     H30541   4.834   7.461   0.913  1.9472 -0.7739  0.4604
  967MOL0     H30542   5.155   8.137   1.105  1.0328  0.2332  0.3228
  967MOL0     H30543   5.450   8.273   1.123  1.1100 -3.4973  4.6065
  967MOL0     H30544   5.353   8.407   1.201 -1.0439 -0.0252 -0.9384
  967MOL0     H30545   5.308   8.241   1.241  2.4847 -2.6587  0.0629
  968MOL0     O30546   6.531   6.651   7.348  0.1051 -0.1934  0.0689
  968MOL0     C30547   6.527   6.610   7.462  0.2263 -0.5222  0.5290
  968MOL0     O30548   6.634   6.597   7.543  0.3750 -0.0374  0.9923
  968MOL0     C30549   6.758   6.565   7.480  0.1128 -0.1662  0.8751
  968MOL0     C30550   6.774   6.502   7.354  0.2545 -1.2354 -0.4293
  968MOL0     C30551   6.901   6.473   7.309 -0.7531 -0.4524 -0.2171
  968MOL0     C30552   7.020   6.517   7.372  0.6912  0.7612 -0.1982
  968MOL0     O30553   7.146   6.482   7.338  0.6192  0.2430 -0.7743
  968MOL0     C30554   7.248   6.583   7.355 -0.8357  0.6930  0.4024
  968MOL0     C30555   7.387   6.533   7.304 -0.5774 -0.5594  0.6184
  968MOL0     C30556   7.515   6.606   7.348 -0.0011 -0.8330 -0.6013
  968MOL0     C30557   7.629   6.560   7.265  0.6223  0.5867  0.4254
  968MOL0     C30558   7.753   6.633   7.313  0.2703 -0.6139  0.5625
  968MOL0     C30559   7.872   6.596   7.220 -0.2190  0.0250  0.0225
  968MOL0     C30560   7.945   6.479   7.265  0.4709 -0.6994  0.9411
  968MOL0     C30561   8.080   6.471   7.194 -1.0455  0.1997 -0.2771
  968MOL0     N30562   8.180   6.551   7.265 -0.0051  0.7354 -0.5218
  968MOL0     C30563   8.235   6.672   7.238  0.0382 -0.6438 -0.6967
  968MOL0     C30564   8.321   6.697   7.342 -0.7274  0.6427 -0.9595
  968MOL0     C30565   8.421   6.806   7.364 -0.1257 -0.0376  0.0286
  968MOL0     C30566   8.516   6.842   7.254 -0.0174  0.8894  0.2697
  968MOL0     C30567   8.622   6.944   7.306  0.5887  1.0816 -0.1691
  968MOL0     C30568   8.726   6.878   7.400  0.5392 -0.1255 -0.0357
  968MOL0     O30569   8.826   6.818   7.317  0.0129 -0.0230  0.3786
  968MOL0     C30570   8.942   6.796   7.378  0.0813  0.0612 -0.1988
  968MOL0     C30571   9.055   6.759   7.301  0.7646 -0.7577  0.5695
  968MOL0     C30572   9.189   6.778   7.353 -0.0901  0.4575  0.5931
  968MOL0     C30573   9.208   6.805   7.492  0.4855  0.3439  0.7800
  968MOL0     C30574   9.338   6.841   7.549 -0.5834  0.6872  0.4930
  968MOL0     O30575   9.346   6.905   7.669 -0.3042 -0.1577  0.3736
  968MOL0     C30576   9.477   6.940   7.706 -0.4378  0.1718 -1.0300
  968MOL0     C30577   9.521   7.071   7.720 -0.1470  1.1573  0.3794
  968MOL0     C30578   9.658   7.095   7.731  0.3767  0.9366  0.9252
  968MOL0     C30579   9.751   6.987   7.738  0.1853 -0.4103  0.7210
  968MOL0     O30580   9.880   7.024   7.696 -0.3157 -0.2217  0.6747
  968MOL0     C30581   9.983   6.925   7.719 -0.4137 -0.8313 -0.2313
  968MOL0     C30582  10.111   7.011   7.710  0.2415  0.4341 -0.2479
  968MOL0     C30583  10.245   6.943   7.692 -0.0478  0.5544 -0.7829
  968MOL0     C30584  10.351   7.048   7.694 -0.2397  0.1858 -0.1297
  968MOL0     C30585  10.490   6.990   7.702  0.4110  0.2903 -0.6934
  968MOL0     C30586  10.596   7.095   7.731  0.1321  0.6022 -0.6292
  968MOL0     C30587  10.601   7.212   7.633 -0.3785 -0.4617  0.0693
  968MOL0     C30588  10.663   7.171   7.504  0.8183 -0.3823  0.4017
  968MOL0    Cl30589  10.841   7.116   7.500 -0.1262 -0.2965 -0.0397
  968MOL0     C30590   9.705   6.855   7.740 -1.1782  0.3894  0.9172
  968MOL0     C30591   9.571   6.832   7.729  1.8296  0.3312 -0.0888
  968MOL0     O30592   9.431   6.821   7.468  0.3575 -0.2763  0.0581
  968MOL0     C30593   9.096   6.816   7.574 -0.4797  0.4658  0.3265
  968MOL0     C30594   8.966   6.803   7.521  1.1592 -0.5165  0.6411
  968MOL0     N30595   8.322   6.584   7.431 -0.2352 -0.3611  1.0140
  968MOL0     N30596   8.229   6.503   7.383  0.0075 -0.2123 -0.6191
  968MOL0     C30597   7.002   6.586   7.495  0.3803  0.2512 -0.2433
  968MOL0     C30598   6.872   6.607   7.546  0.1974  0.2862 -0.2386
  968MOL0     C30599   6.389   6.576   7.511  1.0717  1.1299 -0.0964
  968MOL0     C30600   6.366   6.447   7.563  0.2878 -0.0828  0.5503
  968MOL0     C30601   6.240   6.402   7.607 -1.0806  0.6513  0.0310
  968MOL0     C30602   6.128   6.484   7.586  0.5186 -0.5206  0.5495
  968MOL0     O30603   6.000   6.448   7.618  0.0610  0.3670  0.3221
  968MOL0     C30604   5.970   6.314   7.661  0.7228 -0.6364 -0.2867
  968MOL0     C30605   5.812   6.290   7.639 -0.7578 -0.4264  0.2985
  968MOL0     C30606   5.754   6.176   7.724  0.9926  0.3454 -0.8872
  968MOL0     C30607   5.688   6.236   7.849  0.1899  0.4630 -0.3022
  968MOL0     C30608   5.571   6.317   7.815  0.0759 -0.4941 -0.8488
  968MOL0     C30609   5.478   6.385   7.780 -0.7066  0.7030  0.3884
  968MOL0     C30610   6.144   6.606   7.520 -0.7485  0.0750  0.1225
  968MOL0     C30611   6.272   6.655   7.481 -0.8656  0.3546 -0.6798
  968MOL0     C30612   6.273   6.796   7.430  0.7476  0.2250  0.2524
  968MOL0     H30613   6.698   6.446   7.300 -1.7902  2.7365 -2.0652
  968MOL0     H30614   6.911   6.403   7.227 -1.7938 -1.2390  0.2975
  968MOL0     H30615   7.210   6.666   7.295 -1.9879 -1.8239 -2.6482
  968MOL0     H30616   7.269   6.604   7.460  3.8478  0.0711 -0.1820
  968MOL0     H30617   7.396   6.540   7.195  1.4301 -0.8299  0.7234
  968MOL0     H30618   7.393   6.428   7.336 -2.3980 -1.5571 -1.9239
  968MOL0     H30619   7.534   6.599   7.455 -1.2411 -0.3886 -0.3452
  968MOL0     H30620   7.505   6.714   7.335 -1.9537 -1.0550 -1.1805
  968MOL0     H30621   7.639   6.455   7.239  2.3636  1.7853 -4.8656
  968MOL0     H30622   7.611   6.600   7.165  1.2110  0.2089  0.1656
  968MOL0     H30623   7.740   6.742   7.312  0.1925 -0.6193 -0.4796
  968MOL0     H30624   7.774   6.619   7.419 -1.1634 -1.1235  0.7964
  968MOL0     H30625   7.839   6.587   7.117  0.1853 -0.4071 -0.0707
  968MOL0     H30626   7.946   6.677   7.225  1.6539 -1.5912 -0.5412
  968MOL0     H30627   7.889   6.392   7.230  1.0660 -0.4056 -0.8450
  968MOL0     H30628   7.965   6.487   7.372 -0.1912 -1.3835  1.1180
  968MOL0     H30629   8.115   6.367   7.198 -0.3999  0.4435  1.5569
  968MOL0     H30630   8.067   6.501   7.090  1.3103  0.8944 -0.4411
  968MOL0     H30631   8.212   6.740   7.157  0.5534  1.8436  1.1605
  968MOL0     H30632   8.359   6.896   7.372 -3.2942 -1.8287 -2.2434
  968MOL0     H30633   8.476   6.796   7.458 -1.0496 -0.4093  0.5379
  968MOL0     H30634   8.577   6.758   7.219 -0.6813 -1.0900  3.4436
  968MOL0     H30635   8.462   6.884   7.168 -0.7928  1.8970  1.2167
  968MOL0     H30636   8.575   7.024   7.363 -0.5087 -0.1807  0.7602
  968MOL0     H30637   8.669   6.994   7.221 -0.7802 -1.5700 -2.6750
  968MOL0     H30638   8.687   6.807   7.473  0.0887  2.5343  2.5010
  968MOL0     H30639   8.765   6.961   7.460 -0.8612  1.4953 -1.2731
  968MOL0     H30640   9.031   6.732   7.199  3.6658  1.5598 -0.8639
  968MOL0     H30641   9.276   6.755   7.292 -0.5300  1.5769 -0.5178
  968MOL0     H30642   9.453   7.149   7.689  0.4502  0.7550 -2.1603
  968MOL0     H30643   9.695   7.196   7.712 -0.0993  0.7092 -1.4642
  968MOL0     H30644   9.968   6.878   7.817  1.3086  1.0909  1.0565
  968MOL0     H30645   9.985   6.846   7.643 -2.6049 -2.6522  1.4560
  968MOL0     H30646  10.105   7.078   7.624  0.5775  1.3542  0.4208
  968MOL0     H30647  10.117   7.066   7.804 -2.4068 -0.1759  0.3757
  968MOL0     H30648  10.264   6.869   7.769  0.6180 -1.8687 -3.1240
  968MOL0     H30649  10.247   6.890   7.596 -1.8075 -1.6839  0.3491
  968MOL0     H30650  10.335   7.119   7.776  4.0109 -2.8169  3.8488
  968MOL0     H30651  10.343   7.107   7.602 -1.2569  1.4306  0.7163
  968MOL0     H30652  10.511   6.933   7.611 -1.5067 -1.6395 -0.0189
  968MOL0     H30653  10.485   6.925   7.790  3.2233  1.4190  0.4215
  968MOL0     H30654  10.584   7.144   7.828 -0.5749 -1.6430  0.4935
  968MOL0     H30655  10.692   7.044   7.738 -1.6999 -2.9346  2.9790
  968MOL0     H30656  10.654   7.297   7.677 -1.2189  0.7884 -1.2529
  968MOL0     H30657  10.504   7.257   7.612  0.4905  0.8971 -1.1680
  968MOL0     H30658  10.603   7.088   7.464  2.0967  0.3479 -3.4852
  968MOL0     H30659  10.666   7.254   7.432 -2.7951 -1.1185 -0.8360
  968MOL0     H30660   9.761   6.762   7.743 -3.1028 -1.0120 -1.9728
  968MOL0     H30661   9.523   6.737   7.710 -0.6392  1.4395  0.2386
  968MOL0     H30662   9.114   6.836   7.679 -1.0355 -0.4538  0.6117
  968MOL0     H30663   8.894   6.804   7.603  1.4061  1.4426  0.8902
  968MOL0     H30664   7.082   6.629   7.554  0.2481 -0.3549  0.3896
  968MOL0     H30665   6.851   6.658   7.640  0.8124 -0.7909  0.5093
  968MOL0     H30666   6.449   6.377   7.570 -1.1549 -2.3337 -2.5493
  968MOL0     H30667   6.235   6.296   7.630  0.8492  0.8957  1.9325
  968MOL0     H30668   6.000   6.299   7.766  1.0117  0.9011 -0.1198
  968MOL0     H30669   6.030   6.237   7.611  1.1455 -0.0452 -0.6953
  968MOL0     H30670   5.791   6.270   7.533 -1.2061  0.8770  0.1319
  968MOL0     H30671   5.764   6.386   7.656 -0.8143 -0.1451 -1.2801
  968MOL0     H30672   5.832   6.104   7.752 -0.0016  0.5777  3.0240
  968MOL0     H30673   5.669   6.121   7.684 -0.3999  1.1026  0.9053
  968MOL0     H30674   5.648   6.165   7.922 -2.0361  2.9223  1.0276
  968MOL0     H30675   5.757   6.294   7.911 -0.1069 -0.0894  0.5637
  968MOL0     H30676   5.407   6.465   7.765  1.1799  2.3498 -0.2519
  968MOL0     H30677   6.057   6.668   7.502  0.0572  1.0077 -0.7269
  968MOL0     H30678   6.371   6.836   7.460  0.3326  0.9587  0.6413
  968MOL0     H30679   6.276   6.799   7.320  0.9231 -2.2747  0.1368
  968MOL0     H30680   6.193   6.846   7.486  0.6392  0.1599  0.1548
  969MOL0     O30681   8.801   5.527   9.043  0.2506  0.4370 -0.4106
  969MOL0     C30682   8.846   5.436   8.989  0.1449 -0.0869 -0.5981
  969MOL0     O30683   8.953   5.451   8.907 -0.8249  0.6748  0.1633
  969MOL0     C30684   9.012   5.572   8.881  0.3021 -0.6150  0.6854
  969MOL0     C30685   8.954   5.699   8.886  0.1438 -0.7446 -0.2763
  969MOL0     C30686   9.043   5.809   8.876 -1.2308 -1.0708 -0.4718
  969MOL0     C30687   9.178   5.790   8.839 -0.4543 -0.4868  0.0355
  969MOL0     O30688   9.273   5.892   8.816 -0.5398  0.1818  0.5149
  969MOL0     C30689   9.275   5.993   8.919 -1.0838  0.4665 -0.7788
  969MOL0     C30690   9.413   5.990   8.983 -0.0148  0.4408 -0.5575
  969MOL0     C30691   9.399   5.887   9.103  0.1006  0.1330  0.3259
  969MOL0     C30692   9.529   5.844   9.185 -0.1293 -0.3166  0.2146
  969MOL0     C30693   9.612   5.727   9.135 -0.2870  0.2719  0.7438
  969MOL0     C30694   9.672   5.760   8.998  1.1004 -0.4665  0.1393
  969MOL0     C30695   9.800   5.694   8.952  0.8229  0.2408 -0.4002
  969MOL0     C30696   9.786   5.540   8.955  0.7468  0.6975  0.3721
  969MOL0     N30697   9.683   5.498   8.857 -0.2540 -0.8964 -0.2390
  969MOL0     C30698   9.658   5.554   8.734 -0.2790 -1.1168 -0.0243
  969MOL0     C30699   9.549   5.488   8.685  0.0296  0.4970 -0.4224
  969MOL0     C30700   9.487   5.518   8.551 -0.0120  0.5619 -0.1686
  969MOL0     C30701   9.443   5.667   8.537 -0.2433  0.9768 -0.0292
  969MOL0     C30702   9.506   5.741   8.419  0.0606 -0.5710  0.2934
  969MOL0     C30703   9.656   5.772   8.460  0.3410 -1.0628  0.5144
  969MOL0     O30704   9.656   5.862   8.570  0.1443 -0.1318 -0.2276
  969MOL0     C30705   9.771   5.932   8.596 -0.2119 -0.3577  0.3146
  969MOL0     C30706   9.899   5.894   8.539 -0.2622 -0.0266  0.7526
  969MOL0     C30707  10.017   5.956   8.582 -0.2192 -0.0782 -0.2929
  969MOL0     C30708  10.013   6.044   8.695  0.0052  0.0658  0.0506
  969MOL0     C30709  10.137   6.107   8.750 -0.2651  0.4848 -0.1891
  969MOL0     O30710  10.236   6.131   8.659  0.3186  0.0485  0.0768
  969MOL0     C30711  10.362   6.186   8.693  0.1346 -0.4695  1.2054
  969MOL0     C30712  10.441   6.224   8.586 -0.4383  0.6465 -0.2849
  969MOL0     C30713  10.563   6.284   8.593 -0.3599  0.0725  0.9853
  969MOL0     C30714  10.623   6.314   8.712  0.3450 -0.4412 -0.9113
  969MOL0     O30715  10.746   6.377   8.709 -0.0293 -0.0719  0.3947
  969MOL0     C30716  10.837   6.374   8.820 -0.2402 -0.2745  0.1999
  969MOL0     C30717  10.950   6.459   8.783 -0.7992 -0.2034 -0.5482
  969MOL0     C30718  11.058   6.393   8.703 -0.9590  0.0839 -0.4733
  969MOL0     C30719  11.127   6.512   8.627  0.6428 -0.2179  1.1775
  969MOL0     C30720  11.261   6.475   8.576 -0.2132  0.6202 -1.2037
  969MOL0     C30721  11.388   6.461   8.668 -0.5890 -0.6300 -0.7762
  969MOL0     C30722  11.506   6.434   8.594  0.4602  0.7249  1.0524
  969MOL0     C30723  11.623   6.460   8.682 -1.2180 -0.5090 -0.0169
  969MOL0    Cl30724  11.653   6.357   8.817  0.1014 -0.3093  0.0006
  969MOL0     C30725  10.546   6.271   8.830  0.3989  0.7276 -0.1272
  969MOL0     C30726  10.416   6.210   8.818  0.3673 -0.4426 -0.1432
  969MOL0     O30727  10.128   6.145   8.862 -0.4021 -0.4547 -0.3292
  969MOL0     C30728   9.893   6.071   8.756  0.3190  0.4664  0.4593
  969MOL0     C30729   9.772   6.018   8.706  0.3392  0.3853  0.0515
  969MOL0     N30730   9.503   5.403   8.783 -0.3310  0.2304  0.3338
  969MOL0     N30731   9.595   5.396   8.872  0.1321 -0.0487  0.7234
  969MOL0     C30732   9.222   5.671   8.823  0.3575  0.1064 -0.2009
  969MOL0     C30733   9.143   5.559   8.850 -0.1723  0.2088 -0.0067
  969MOL0     C30734   8.796   5.301   9.013  0.8291  0.3669  0.1831
  969MOL0     C30735   8.877   5.197   8.965  0.2666  0.2331  0.5501
  969MOL0     C30736   8.844   5.065   8.986  0.4372  0.1337 -0.3732
  969MOL0     C30737   8.720   5.035   9.051 -0.2779  0.4968 -0.4815
  969MOL0     O30738   8.697   4.897   9.073  0.0951 -0.5881  0.4356
  969MOL0     C30739   8.583   4.858   9.148 -0.1629 -0.1380 -1.0328
  969MOL0     C30740   8.595   4.716   9.192 -0.2971  0.2429 -0.2038
  969MOL0     C30741   8.546   4.621   9.086  0.3033  0.7499 -0.0184
  969MOL0     C30742   8.510   4.482   9.141  0.2996  0.7039 -0.1604
  969MOL0     C30743   8.380   4.431   9.095 -0.2029  0.3450 -0.3421
  969MOL0     C30744   8.280   4.361   9.063 -0.4769  0.3541  0.3066
  969MOL0     C30745   8.632   5.141   9.093  0.8775 -0.7793 -0.0232
  969MOL0     C30746   8.666   5.270   9.066  1.0681  0.0286 -0.4425
  969MOL0     C30747   8.569   5.370   9.104 -0.5542 -0.4464 -0.2795
  969MOL0     H30748   8.850   5.722   8.906  0.3579 -0.6839  0.8735
  969MOL0     H30749   9.004   5.910   8.877 -0.1249 -0.5653  2.8004
  969MOL0     H30750   9.256   6.091   8.874  1.4251  1.5053  0.2574
  969MOL0     H30751   9.199   5.981   8.997  1.9271 -3.1593  1.9684
  969MOL0     H30752   9.445   6.085   9.025 -1.0961  0.8705 -0.6718
  969MOL0     H30753   9.482   5.961   8.903 -1.5958 -0.8448 -1.5154
  969MOL0     H30754   9.369   5.793   9.057  0.7470  0.0477  0.0683
  969MOL0     H30755   9.325   5.929   9.172  0.7263  0.5518  0.7617
  969MOL0     H30756   9.592   5.933   9.194 -0.6476  0.2205 -1.2031
  969MOL0     H30757   9.497   5.819   9.287  0.2436  0.0071  0.4175
  969MOL0     H30758   9.692   5.707   9.207 -0.3951  0.3272  0.8777
  969MOL0     H30759   9.549   5.638   9.128 -2.6178  1.7910  1.4805
  969MOL0     H30760   9.592   5.744   8.926 -0.2040  0.8489  1.2398
  969MOL0     H30761   9.687   5.869   8.997 -2.0939  0.1240  2.6106
  969MOL0     H30762   9.879   5.723   9.022 -1.2858 -0.8929  2.6533
  969MOL0     H30763   9.828   5.736   8.855 -0.3141  2.3612  0.1274
  969MOL0     H30764   9.887   5.514   8.923  0.9234  0.2086  1.2906
  969MOL0     H30765   9.766   5.509   9.058  2.2589  2.2985  1.1971
  969MOL0     H30766   9.710   5.636   8.685 -0.1091 -1.5075 -0.5168
  969MOL0     H30767   9.554   5.488   8.470 -2.1045 -2.0723 -1.0440
  969MOL0     H30768   9.403   5.452   8.529  1.2723 -0.6990 -1.5787
  969MOL0     H30769   9.337   5.675   8.512 -0.4791 -0.1513  0.5978
  969MOL0     H30770   9.455   5.726   8.628 -1.7980  1.7677 -0.3138
  969MOL0     H30771   9.452   5.834   8.398  0.8561 -0.3767 -0.9782
  969MOL0     H30772   9.500   5.685   8.325 -1.5942  0.4203 -0.2371
  969MOL0     H30773   9.707   5.824   8.378 -1.5778 -1.5598 -1.0628
  969MOL0     H30774   9.704   5.675   8.472  3.2872  0.1280 -0.7515
  969MOL0     H30775   9.912   5.823   8.459 -0.9264 -0.7721  1.2872
  969MOL0     H30776  10.107   5.936   8.525  1.4715  0.1695  2.1311
  969MOL0     H30777  10.398   6.208   8.487  1.2644  0.2903 -1.0170
  969MOL0     H30778  10.629   6.302   8.509 -2.0505  3.0085  0.1307
  969MOL0     H30779  10.787   6.433   8.897 -0.2554  2.1504 -1.5572
  969MOL0     H30780  10.868   6.274   8.851 -0.1007 -0.5375 -0.7691
  969MOL0     H30781  10.909   6.552   8.744 -1.2483  0.0506  0.5030
  969MOL0     H30782  10.999   6.488   8.877  1.1075  2.0905 -2.1266
  969MOL0     H30783  11.125   6.353   8.779 -0.9379  0.8744 -0.0631
  969MOL0     H30784  11.018   6.314   8.640  2.5157 -1.3903 -1.0464
  969MOL0     H30785  11.143   6.595   8.696 -1.6390  0.4404  0.9985
  969MOL0     H30786  11.069   6.540   8.538  2.2368  1.8616  0.7248
  969MOL0     H30787  11.288   6.545   8.495  3.1279  0.1661 -0.6227
  969MOL0     H30788  11.250   6.374   8.535 -2.3265  0.2029  0.2097
  969MOL0     H30789  11.397   6.562   8.708 -0.8889  1.1042 -4.6059
  969MOL0     H30790  11.375   6.386   8.747  3.7585 -1.1669 -0.3189
  969MOL0     H30791  11.521   6.508   8.515  2.4595 -1.0341 -0.3444
  969MOL0     H30792  11.490   6.331   8.559 -0.1592  1.2002 -0.1532
  969MOL0     H30793  11.705   6.447   8.610  0.0701  2.6299  0.7328
  969MOL0     H30794  11.631   6.562   8.720  0.5649  0.0713 -1.7859
  969MOL0     H30795  10.574   6.291   8.933 -4.7351 -2.0415  2.2007
  969MOL0     H30796  10.360   6.186   8.908 -0.5534 -1.2808 -0.9227
  969MOL0     H30797   9.880   6.143   8.836 -0.8509 -2.7771  3.4073
  969MOL0     H30798   9.678   6.048   8.749  1.7253  2.1085  2.0430
  969MOL0     H30799   9.326   5.651   8.799  0.1538  0.8441 -1.8637
  969MOL0     H30800   9.175   5.455   8.850 -1.9480 -0.3804  0.1905
  969MOL0     H30801   8.972   5.228   8.922  0.8585  1.2742  2.5116
  969MOL0     H30802   8.903   4.981   8.951  0.7286  0.8860 -1.7729
  969MOL0     H30803   8.488   4.873   9.094 -0.1359  1.5557 -0.6865
  969MOL0     H30804   8.584   4.929   9.231 -0.1648 -1.5518  0.1957
  969MOL0     H30805   8.535   4.697   9.282  1.7182 -1.4846  0.8613
  969MOL0     H30806   8.702   4.700   9.209 -0.6665 -0.5426  1.6582
  969MOL0     H30807   8.619   4.620   9.004 -0.5173  1.2235 -0.7622
  969MOL0     H30808   8.462   4.678   9.046  2.1417  3.4012 -0.3446
  969MOL0     H30809   8.584   4.408   9.110 -1.0034 -0.5354 -0.4369
  969MOL0     H30810   8.511   4.495   9.250 -4.4202  0.4252  0.1088
  969MOL0     H30811   8.190   4.310   9.033 -1.4932  2.4160 -0.3570
  969MOL0     H30812   8.539   5.107   9.138  0.8873 -1.0113 -0.1709
  969MOL0     H30813   8.539   5.436   9.022  0.0738  0.8403  0.5015
  969MOL0     H30814   8.486   5.330   9.163 -0.1068 -2.6411 -1.0172
  969MOL0     H30815   8.624   5.442   9.165  0.0748  0.2920 -1.6727
  970MOL0     O30816   7.155   0.877   2.314  0.4611 -0.1826 -0.2885
  970MOL0     C30817   7.112   0.766   2.347 -1.2737  0.0111 -0.1834
  970MOL0     O30818   7.195   0.665   2.397 -0.5441 -0.9406 -0.4032
  970MOL0     C30819   7.330   0.707   2.402  0.5538  0.2749 -0.0065
  970MOL0     C30820   7.417   0.681   2.287  1.0583 -0.3468  0.6967
  970MOL0     C30821   7.550   0.715   2.291 -0.1191  0.0698 -0.1580
  970MOL0     C30822   7.609   0.766   2.406  1.0028  0.0171  0.3897
  970MOL0     O30823   7.737   0.806   2.393 -0.3064  0.4259  0.4645
  970MOL0     C30824   7.779   0.871   2.516 -0.3113  0.1174  0.7160
  970MOL0     C30825   7.921   0.913   2.491  0.1236 -0.3855  0.5440
  970MOL0     C30826   8.017   0.899   2.602  0.0417 -0.4429  0.0215
  970MOL0     C30827   7.979   0.983   2.721 -0.4781  0.0058 -0.2833
  970MOL0     C30828   8.087   0.993   2.836  0.1719 -0.9838  1.1500
  970MOL0     C30829   8.189   1.115   2.803  0.2455 -0.4230 -0.3810
  970MOL0     C30830   8.303   1.135   2.900 -0.1126  0.4452  0.0303
  970MOL0     C30831   8.416   1.226   2.848 -0.3781 -0.0452 -0.3973
  970MOL0     N30832   8.498   1.259   2.960 -0.1487  0.2653 -0.3712
  970MOL0     C30833   8.592   1.169   3.022  0.4705  0.4607  0.0938
  970MOL0     C30834   8.665   1.251   3.099 -0.9456  0.8746 -0.5461
  970MOL0     C30835   8.775   1.200   3.202  0.0893 -0.0170 -0.2675
  970MOL0     C30836   8.723   1.088   3.291  0.4509  0.2447 -0.3059
  970MOL0     C30837   8.652   1.126   3.422 -0.8302 -0.1094  0.0084
  970MOL0     C30838   8.508   1.178   3.410 -0.3346 -0.1275  0.2694
  970MOL0     O30839   8.429   1.079   3.339  0.8290  0.4889 -0.6693
  970MOL0     C30840   8.287   1.091   3.340 -0.9283  1.1319  0.2067
  970MOL0     C30841   8.212   1.178   3.416 -0.2356  0.1407 -0.2494
  970MOL0     C30842   8.072   1.193   3.422 -0.4903  0.5769  0.6305
  970MOL0     C30843   8.002   1.126   3.316 -0.0567  0.4076 -0.4823
  970MOL0     C30844   7.859   1.159   3.296 -0.6255 -0.1413 -0.9127
  970MOL0     O30845   7.795   1.225   3.395  0.0760  0.0206 -0.9553
  970MOL0     C30846   7.666   1.253   3.383  0.7288 -0.1671  0.9130
  970MOL0     C30847   7.585   1.158   3.434  0.5943 -0.0109  0.2991
  970MOL0     C30848   7.446   1.163   3.412 -0.2099 -0.1424  0.6869
  970MOL0     C30849   7.391   1.279   3.347 -0.4741 -0.9196  0.2968
  970MOL0     O30850   7.261   1.297   3.313  0.0101  0.1219 -0.6658
  970MOL0     C30851   7.162   1.225   3.386  0.0489 -0.0877 -1.3041
  970MOL0     C30852   7.027   1.298   3.379  0.0561 -0.3786 -0.1986
  970MOL0     C30853   7.021   1.407   3.481 -0.1740 -0.1683  0.2541
  970MOL0     C30854   6.886   1.478   3.465  0.1208  0.0815  0.6804
  970MOL0     C30855   6.873   1.582   3.573  0.1945 -0.6199 -1.2266
  970MOL0     C30856   6.753   1.676   3.548 -0.9044  0.5838 -0.3936
  970MOL0     C30857   6.617   1.601   3.544 -0.2196  0.1064 -0.5150
  970MOL0     C30858   6.503   1.705   3.535 -0.7637  0.0250 -0.2607
  970MOL0    Cl30859   6.341   1.623   3.526  0.2249 -0.0307  0.7328
  970MOL0     C30860   7.480   1.377   3.298  0.6666 -0.2546  0.0474
  970MOL0     C30861   7.615   1.364   3.311 -0.5700 -0.8210 -0.2281
  970MOL0     O30862   7.810   1.133   3.190  1.0705 -0.1235  0.6001
  970MOL0     C30863   8.076   1.030   3.235  0.0612  0.0428 -0.4660
  970MOL0     C30864   8.217   1.012   3.253  1.3277  0.0488  0.5075
  970MOL0     N30865   8.616   1.378   3.086  0.4915  0.3385  0.1726
  970MOL0     N30866   8.515   1.390   3.010 -0.1016  0.3399 -0.1034
  970MOL0     C30867   7.527   0.778   2.521  1.0674 -0.0956 -0.8825
  970MOL0     C30868   7.386   0.750   2.515 -0.2428 -0.3428 -0.1778
  970MOL0     C30869   6.970   0.746   2.346  0.2053  0.2844  0.8318
  970MOL0     C30870   6.919   0.616   2.356  0.3654  1.0158 -0.6429
  970MOL0     C30871   6.786   0.584   2.359 -0.1550  0.4879  1.2276
  970MOL0     C30872   6.686   0.690   2.357  0.7037 -0.1687  1.8610
  970MOL0     O30873   6.562   0.641   2.356  0.1143 -0.0634  1.3352
  970MOL0     C30874   6.446   0.716   2.374 -0.4508  0.2289  0.4530
  970MOL0     C30875   6.355   0.670   2.487  0.8295 -0.6889 -0.7175
  970MOL0     C30876   6.222   0.753   2.478  0.0112 -0.3458  0.5111
  970MOL0     C30877   6.112   0.674   2.561  0.6325 -0.4922  0.0545
  970MOL0     C30878   5.978   0.735   2.523  0.2452  0.1532  0.1403
  970MOL0     C30879   5.879   0.790   2.493 -0.3227  0.4584 -0.3347
  970MOL0     C30880   6.730   0.823   2.344 -0.0386 -0.1483  0.3602
  970MOL0     C30881   6.865   0.854   2.354 -0.1079  0.3977  0.9448
  970MOL0     C30882   6.902   1.000   2.352 -0.0013  0.1692  0.1622
  970MOL0     H30883   7.375   0.638   2.197  0.8639  1.3798 -0.0741
  970MOL0     H30884   7.617   0.706   2.206 -2.3850  0.0526 -2.0493
  970MOL0     H30885   7.721   0.963   2.532 -1.6772 -0.6392  0.2595
  970MOL0     H30886   7.770   0.800   2.598 -1.2493  1.5360  1.9006
  970MOL0     H30887   7.921   1.016   2.453  0.5014 -0.5964 -0.0377
  970MOL0     H30888   7.971   0.851   2.416 -0.0825 -0.6699  0.6409
  970MOL0     H30889   8.115   0.928   2.563 -0.4225 -2.2682 -2.7676
  970MOL0     H30890   8.029   0.792   2.626 -0.8063 -0.5955 -0.2196
  970MOL0     H30891   7.953   1.083   2.685  0.7722  0.2272 -0.6332
  970MOL0     H30892   7.897   0.934   2.774  1.5190 -1.1255  1.9676
  970MOL0     H30893   8.037   1.004   2.932  2.0083 -0.2199  2.0667
  970MOL0     H30894   8.154   0.907   2.824  0.8625 -0.0528 -4.5941
  970MOL0     H30895   8.246   1.084   2.715  0.2690 -0.6081 -0.3014
  970MOL0     H30896   8.130   1.206   2.786  1.5281  0.5740  0.3294
  970MOL0     H30897   8.339   1.035   2.925  1.5797 -0.3437 -4.5455
  970MOL0     H30898   8.262   1.184   2.989 -2.0432  2.1084 -1.6555
  970MOL0     H30899   8.477   1.163   2.782  2.2466  1.4022  0.5124
  970MOL0     H30900   8.377   1.303   2.781 -2.4035 -0.3286  0.3751
  970MOL0     H30901   8.626   1.068   3.003 -1.6040  0.1399 -2.4644
  970MOL0     H30902   8.868   1.178   3.148  1.5691 -0.2639  2.2352
  970MOL0     H30903   8.805   1.283   3.267  2.5939  1.4685 -3.0590
  970MOL0     H30904   8.658   1.018   3.239  0.5540 -0.7865  0.8953
  970MOL0     H30905   8.814   1.036   3.323  1.2616 -0.0723 -2.9350
  970MOL0     H30906   8.710   1.206   3.470  1.9048 -1.4966 -0.7283
  970MOL0     H30907   8.656   1.040   3.489 -0.0806  1.8597  2.6566
  970MOL0     H30908   8.506   1.266   3.345  0.8797 -3.1983 -4.3543
  970MOL0     H30909   8.469   1.196   3.511 -0.8492 -0.6359  0.1633
  970MOL0     H30910   8.279   1.236   3.479 -3.0538  1.9337  1.3226
  970MOL0     H30911   8.018   1.260   3.489 -0.3302  1.1688  0.1764
  970MOL0     H30912   7.625   1.065   3.471 -1.3456 -2.1470 -2.4786
  970MOL0     H30913   7.381   1.087   3.454 -0.0041 -1.1965 -0.8153
  970MOL0     H30914   7.155   1.122   3.348  2.5050 -1.4046  1.3877
  970MOL0     H30915   7.184   1.217   3.493 -1.6079  3.8524 -0.5087
  970MOL0     H30916   7.022   1.342   3.279 -1.0172  0.7940  0.3377
  970MOL0     H30917   6.943   1.228   3.385 -1.5061  1.4435  0.2466
  970MOL0     H30918   7.022   1.350   3.574  1.2367 -1.3869 -0.4567
  970MOL0     H30919   7.107   1.474   3.473  0.8467 -1.1744  2.0609
  970MOL0     H30920   6.812   1.399   3.479 -2.7137  2.4983  0.4530
  970MOL0     H30921   6.883   1.521   3.364 -3.7491  0.1008  0.6539
  970MOL0     H30922   6.970   1.633   3.579  0.3297 -0.9898  0.1383
  970MOL0     H30923   6.873   1.523   3.666  2.5045 -0.3427 -0.9837
  970MOL0     H30924   6.756   1.752   3.626  0.8267 -1.6628  1.8817
  970MOL0     H30925   6.777   1.728   3.454  0.3266  0.1397 -0.3460
  970MOL0     H30926   6.609   1.531   3.627  0.6112  0.7431  0.1261
  970MOL0     H30927   6.605   1.540   3.454 -0.3196  0.4587 -0.7466
  970MOL0     H30928   6.489   1.772   3.620  3.0533  4.4940 -2.6489
  970MOL0     H30929   6.516   1.764   3.443 -5.2578  1.4856 -0.2015
  970MOL0     H30930   7.438   1.459   3.240 -0.7387 -0.9138  0.1059
  970MOL0     H30931   7.687   1.432   3.266 -0.7075  0.5502  1.4760
  970MOL0     H30932   8.010   0.978   3.166 -2.0373  0.2197  1.2784
  970MOL0     H30933   8.267   0.953   3.177  2.0188 -1.3061  1.9701
  970MOL0     H30934   7.561   0.806   2.621 -1.2155 -1.4395  0.3663
  970MOL0     H30935   7.325   0.746   2.604  2.2962  2.2518  1.8616
  970MOL0     H30936   6.992   0.536   2.361 -2.1298 -1.5995 -2.3347
  970MOL0     H30937   6.764   0.480   2.379  0.3971  0.0063 -0.5113
  970MOL0     H30938   6.393   0.728   2.279  0.5034 -0.1628 -0.1437
  970MOL0     H30939   6.478   0.817   2.402 -1.8324  1.0083 -0.6480
  970MOL0     H30940   6.394   0.682   2.588 -0.1012  0.9857 -0.5320
  970MOL0     H30941   6.317   0.569   2.469 -1.7168  0.3456 -1.7153
  970MOL0     H30942   6.188   0.767   2.375  0.5492  1.2600  0.5324
  970MOL0     H30943   6.255   0.846   2.525  0.5499  0.7464 -1.8815
  970MOL0     H30944   6.106   0.566   2.547 -2.3537 -0.4851  0.6925
  970MOL0     H30945   6.118   0.679   2.670 -2.9201 -1.8860  0.4446
  970MOL0     H30946   5.788   0.847   2.484 -0.2542  0.7675  0.7652
  970MOL0     H30947   6.660   0.906   2.344  0.1396  0.0736  2.7207
  970MOL0     H30948   6.817   1.069   2.357  1.0249  1.3945  1.7125
  970MOL0     H30949   6.964   1.026   2.438 -0.7163  1.2629  0.3771
  970MOL0     H30950   6.943   1.027   2.254 -3.0774  3.8868 -0.3558
  971MOL0     O30951   8.775   1.971   1.425 -0.2825  0.2889 -0.3252
  971MOL0     C30952   8.808   2.085   1.458  0.2189  0.6095 -0.6566
  971MOL0     O30953   8.916   2.165   1.422  0.6729  0.2490 -0.2782
  971MOL0     C30954   9.018   2.103   1.366  0.8713 -0.4703  0.1262
  971MOL0     C30955   9.073   1.985   1.416  0.3346  0.5440 -0.4118
  971MOL0     C30956   9.160   1.917   1.335 -0.6315 -0.2852 -0.2745
  971MOL0     C30957   9.207   1.964   1.215  0.3372 -0.7260  0.0260
  971MOL0     O30958   9.291   1.886   1.153 -0.1568 -1.5302 -0.0056
  971MOL0     C30959   9.421   1.882   1.218 -0.3826 -0.0865  0.2881
  971MOL0     C30960   9.490   2.015   1.226 -1.1676 -1.6466  0.7545
  971MOL0     C30961   9.630   2.012   1.292  0.3286 -0.3532  0.0414
  971MOL0     C30962   9.678   2.145   1.348  0.2694 -0.2767  0.2851
  971MOL0     C30963   9.819   2.148   1.385  0.6981 -0.0207  0.1745
  971MOL0     C30964   9.849   2.046   1.498 -0.3742 -0.3919  0.3007
  971MOL0     C30965  10.001   2.035   1.552  0.1389 -0.7717 -0.0902
  971MOL0     C30966  10.084   1.971   1.448 -0.8590 -0.0007  0.2632
  971MOL0     N30967  10.185   2.074   1.395 -0.2512  0.4189  0.7432
  971MOL0     C30968  10.319   2.062   1.383 -0.7189  0.0403 -0.3883
  971MOL0     C30969  10.363   2.164   1.304  0.1293  0.4627  0.2831
  971MOL0     C30970  10.500   2.210   1.276  0.4192 -0.8461 -0.8451
  971MOL0     C30971  10.522   2.238   1.124  1.0939  0.1851 -0.0574
  971MOL0     C30972  10.648   2.318   1.096 -0.2807 -0.3757 -0.2395
  971MOL0     C30973  10.666   2.334   0.950  0.7874  0.5792 -0.3872
  971MOL0     O30974  10.755   2.229   0.904 -0.3724 -0.9947 -0.8120
  971MOL0     C30975  10.861   2.266   0.818  1.0706 -0.4927  0.8647
  971MOL0     C30976  10.984   2.204   0.838 -0.7023  0.3240 -0.4518
  971MOL0     C30977  11.097   2.247   0.766 -0.6190 -0.4568  0.1221
  971MOL0     C30978  11.088   2.350   0.668 -1.1369  0.9290 -0.0948
  971MOL0     C30979  11.213   2.402   0.611  1.0376  0.8015 -0.5227
  971MOL0     O30980  11.327   2.373   0.676 -0.1703  0.0087  0.1137
  971MOL0     C30981  11.447   2.434   0.655  0.7052  0.0386 -0.2511
  971MOL0     C30982  11.544   2.372   0.730 -0.4521 -0.4691  0.0680
  971MOL0     C30983  11.674   2.427   0.723 -0.3781 -0.8525  0.0309
  971MOL0     C30984  11.707   2.546   0.643  0.2865  0.1130  0.4012
  971MOL0     O30985  11.823   2.599   0.627 -0.4029 -0.0104 -0.4166
  971MOL0     C30986  11.942   2.561   0.699  0.7172 -0.8011 -1.3262
  971MOL0     C30987  12.054   2.650   0.641  0.0712 -0.1233  0.5769
  971MOL0     C30988  12.182   2.615   0.709  0.4803  0.7812  0.3017
  971MOL0     C30989  12.295   2.706   0.651 -0.6397 -0.2644 -0.9867
  971MOL0     C30990  12.436   2.702   0.714 -0.2666 -0.0000 -0.5700
  971MOL0     C30991  12.544   2.787   0.652  0.4866  0.3008 -0.3428
  971MOL0     C30992  12.676   2.788   0.731  0.8443 -1.3620 -0.0796
  971MOL0     C30993  12.791   2.869   0.660 -0.4415  1.1394 -0.5785
  971MOL0    Cl30994  12.881   2.782   0.527  0.1773  0.0189  0.3465
  971MOL0     C30995  11.603   2.594   0.574  0.9871 -0.2649  0.6517
  971MOL0     C30996  11.474   2.550   0.577  1.1992  0.0150 -0.3996
  971MOL0     O30997  11.195   2.487   0.524 -0.3275 -0.0322  0.1759
  971MOL0     C30998  10.962   2.409   0.646  0.0707  0.3064  0.7768
  971MOL0     C30999  10.848   2.367   0.720 -0.1129 -0.1791 -0.3308
  971MOL0     N31000  10.246   2.222   1.256 -0.1997  0.1652  0.2342
  971MOL0     N31001  10.141   2.180   1.324  0.3946 -0.3085 -0.2462
  971MOL0     C31002   9.159   2.092   1.171 -0.3700  0.0421  0.5476
  971MOL0     C31003   9.064   2.157   1.251  0.0664  0.2781 -0.4106
  971MOL0     C31004   8.705   2.131   1.556  0.1229  0.0273  0.8643
  971MOL0     C31005   8.572   2.109   1.534  1.1208  0.8792 -0.3896
  971MOL0     C31006   8.469   2.146   1.628 -0.7009 -0.1225 -0.3803
  971MOL0     C31007   8.505   2.214   1.744  0.7160 -0.5280 -0.0350
  971MOL0     O31008   8.418   2.262   1.845  0.1322 -0.6498  0.3944
  971MOL0     C31009   8.280   2.240   1.834 -1.2638  0.3294  0.2053
  971MOL0     C31010   8.209   2.327   1.722  0.6118 -0.6894 -0.4855
  971MOL0     C31011   8.062   2.313   1.757  0.5533 -0.0057  0.5943
  971MOL0     C31012   8.009   2.177   1.713 -0.3698  0.7188  0.1454
  971MOL0     C31013   8.026   2.151   1.572  0.6779  0.6874 -0.0078
  971MOL0     C31014   8.043   2.132   1.453 -0.0490  0.0125  0.1451
  971MOL0     C31015   8.637   2.239   1.758  1.3585  0.2092  0.5894
  971MOL0     C31016   8.734   2.210   1.666  0.6859 -0.5768  0.3099
  971MOL0     C31017   8.870   2.268   1.697 -0.0629 -0.1665 -0.1280
  971MOL0     H31018   9.035   1.933   1.503  0.7534  2.1091  0.7510
  971MOL0     H31019   9.174   1.815   1.369  0.4540  0.1658  0.7415
  971MOL0     H31020   9.404   1.835   1.315 -1.1316 -0.6624 -0.1094
  971MOL0     H31021   9.481   1.807   1.164 -1.0670 -0.7298  0.4044
  971MOL0     H31022   9.436   2.096   1.274  0.9196  1.7612 -2.1764
  971MOL0     H31023   9.505   2.047   1.122  0.0001 -0.6021  1.2296
  971MOL0     H31024   9.703   1.972   1.221 -0.8248 -0.4349 -1.1364
  971MOL0     H31025   9.630   1.942   1.376 -0.8021  0.0699  0.4109
  971MOL0     H31026   9.654   2.234   1.290  1.7684  1.7647  2.6319
  971MOL0     H31027   9.620   2.167   1.438 -1.9905  0.4436 -1.2445
  971MOL0     H31028   9.879   2.132   1.295  1.2930  4.4756 -0.4651
  971MOL0     H31029   9.842   2.246   1.428 -0.4880 -0.4792  1.9790
  971MOL0     H31030   9.786   2.069   1.584 -0.2266 -2.1329  0.9208
  971MOL0     H31031   9.820   1.944   1.468 -1.3182  0.4333 -1.7625
  971MOL0     H31032   9.996   1.977   1.644 -0.5683 -0.3590  0.1408
  971MOL0     H31033  10.034   2.138   1.567 -0.8219  0.0373 -2.8341
  971MOL0     H31034  10.134   1.886   1.494  1.0659  0.8164 -0.2167
  971MOL0     H31035  10.020   1.934   1.367  0.9773  1.0421 -1.7482
  971MOL0     H31036  10.387   1.998   1.440  0.0640  0.1297 -1.1919
  971MOL0     H31037  10.530   2.297   1.336  0.6439  0.4293 -2.7142
  971MOL0     H31038  10.555   2.125   1.316  0.8599 -1.2761 -2.2926
  971MOL0     H31039  10.514   2.147   1.065 -1.8993 -1.2878  2.3674
  971MOL0     H31040  10.432   2.294   1.098  1.4338  1.4948  1.3778
  971MOL0     H31041  10.742   2.281   1.139 -0.1843 -1.9377 -1.7094
  971MOL0     H31042  10.658   2.420   1.136  3.4719  0.1638 -2.0866
  971MOL0     H31043  10.696   2.439   0.936  0.0048  0.6958 -1.3597
  971MOL0     H31044  10.577   2.319   0.888  2.2119  0.4095 -2.5095
  971MOL0     H31045  11.011   2.131   0.914  2.0193  0.8706 -0.7989
  971MOL0     H31046  11.186   2.192   0.795 -0.4112 -0.3124 -0.2500
  971MOL0     H31047  11.519   2.285   0.789 -0.8386 -1.3999 -1.3987
  971MOL0     H31048  11.746   2.376   0.786 -1.4727 -0.1088  1.9838
  971MOL0     H31049  11.939   2.590   0.805  2.1194 -1.6182 -1.0262
  971MOL0     H31050  11.963   2.453   0.698  1.1303 -0.7212 -1.6127
  971MOL0     H31051  12.067   2.625   0.536 -0.4790  1.4524  0.1013
  971MOL0     H31052  12.024   2.755   0.643 -2.4123 -0.6877 -1.4530
  971MOL0     H31053  12.166   2.651   0.811  0.3378  3.6732 -0.6564
  971MOL0     H31054  12.198   2.507   0.709 -0.7711  0.5781  0.7343
  971MOL0     H31055  12.261   2.810   0.655 -2.8617 -0.9518 -0.8945
  971MOL0     H31056  12.303   2.682   0.544  2.4885  2.0861 -1.4322
  971MOL0     H31057  12.474   2.600   0.721  2.2522  0.9368  0.1873
  971MOL0     H31058  12.430   2.742   0.816  0.1160 -1.3079 -0.0190
  971MOL0     H31059  12.562   2.733   0.558  0.3783  0.2368 -0.3268
  971MOL0     H31060  12.515   2.892   0.643  2.8086  1.1005  0.7388
  971MOL0     H31061  12.714   2.686   0.737  2.7078 -0.7224 -0.5094
  971MOL0     H31062  12.645   2.826   0.829  0.2295 -0.6884 -0.5254
  971MOL0     H31063  12.758   2.970   0.633 -0.4669  1.2543 -0.1390
  971MOL0     H31064  12.864   2.899   0.736 -2.5272  1.7607  1.2893
  971MOL0     H31065  11.631   2.673   0.505 -0.0450  0.6161  1.2138
  971MOL0     H31066  11.399   2.598   0.516  1.5288 -0.4994 -1.2170
  971MOL0     H31067  10.950   2.490   0.573  2.1475  0.8649  0.9955
  971MOL0     H31068  10.766   2.425   0.679  1.3409  1.2021 -1.4410
  971MOL0     H31069   9.211   2.135   1.086 -1.2906  0.9701  0.4383
  971MOL0     H31070   9.009   2.243   1.213 -1.2307  0.7087  2.2006
  971MOL0     H31071   8.541   2.058   1.443  1.5619 -1.3541  0.6487
  971MOL0     H31072   8.363   2.133   1.608 -0.0963 -0.8115 -3.9118
  971MOL0     H31073   8.233   2.269   1.928 -1.2267  2.7223 -0.4463
  971MOL0     H31074   8.268   2.136   1.805 -1.9171  0.5090 -0.1815
  971MOL0     H31075   8.228   2.295   1.619 -4.2356 -5.6076 -0.2816
  971MOL0     H31076   8.235   2.433   1.731 -0.9413 -0.2702 -0.7511
  971MOL0     H31077   8.009   2.393   1.705 -0.6645 -0.4090  1.1833
  971MOL0     H31078   8.050   2.341   1.862  0.1143 -1.3273  0.9101
  971MOL0     H31079   8.045   2.099   1.781  1.3684  1.2292 -0.1468
  971MOL0     H31080   7.904   2.191   1.740 -0.7873  1.2709 -1.5938
  971MOL0     H31081   8.057   2.116   1.348 -0.5681 -1.4199  0.2722
  971MOL0     H31082   8.674   2.285   1.849 -0.5600 -1.3238  2.2519
  971MOL0     H31083   8.893   2.348   1.626 -4.5663  1.6447  0.1524
  971MOL0     H31084   8.867   2.313   1.797 -2.0405 -2.0703  0.7364
  971MOL0     H31085   8.944   2.188   1.690  1.1686  0.7941  1.3084
  972MOL0     O31086  10.491   9.315   0.807 -0.8886  0.3784  0.6654
  972MOL0     C31087  10.487   9.206   0.873 -0.7609 -0.3896  0.4551
  972MOL0     O31088  10.562   9.170   0.986  0.6075 -0.2028 -0.2849
  972MOL0     C31089  10.636   9.267   1.051  0.6808  0.0527 -0.5832
  972MOL0     C31090  10.755   9.231   1.107  0.6849 -0.0064 -0.0183
  972MOL0     C31091  10.848   9.329   1.155  1.0217 -0.7562 -0.2247
  972MOL0     C31092  10.817   9.467   1.154 -0.3277  0.0305  0.7611
  972MOL0     O31093  10.907   9.555   1.204 -0.2946 -0.1528  0.1093
  972MOL0     C31094  10.873   9.634   1.319 -0.3760 -0.3083 -1.0278
  972MOL0     C31095  10.994   9.726   1.357  1.0863  1.2092 -0.4021
  972MOL0     C31096  10.953   9.793   1.493 -0.0059 -0.4271  0.7448
  972MOL0     C31097  11.068   9.881   1.529  0.2791 -0.5684 -0.5736
  972MOL0     C31098  11.024   9.988   1.638 -0.5173 -0.2847  0.3869
  972MOL0     C31099  11.141  10.084   1.658 -0.1588  0.2418 -1.2558
  972MOL0     C31100  11.119  10.191   1.775  0.0312  0.9325  0.0096
  972MOL0     C31101  11.232  10.289   1.810 -0.2307 -0.6669 -0.6599
  972MOL0     N31102  11.214  10.338   1.953  0.6953  1.0040 -0.1419
  972MOL0     C31103  11.177  10.459   2.002 -0.3634  0.0659 -0.1617
  972MOL0     C31104  11.170  10.459   2.131  0.4202  0.0400 -0.4171
  972MOL0     C31105  11.139  10.567   2.229 -0.3845 -0.5484  0.0886
  972MOL0     C31106  11.007  10.545   2.291  0.4314 -0.6004 -0.6502
  972MOL0     C31107  10.949  10.640   2.406  0.4244 -0.3608  0.2029
  972MOL0     C31108  10.945  10.784   2.355  0.4343  0.2565 -0.2613
  972MOL0     O31109  10.878  10.852   2.463 -0.4644  0.0167  0.0640
  972MOL0     C31110  10.760  10.910   2.426  0.1048  0.2766 -0.1714
  972MOL0     C31111  10.648  10.890   2.508  0.5193  1.0198  0.5377
  972MOL0     C31112  10.526  10.948   2.473  0.1877  0.2053 -0.0486
  972MOL0     C31113  10.512  11.018   2.348 -0.4159  0.3200 -1.3245
  972MOL0     C31114  10.386  11.088   2.325  0.2279 -1.8950  0.1893
  972MOL0     O31115  10.363  11.131   2.196  0.5194 -0.6161 -0.2042
  972MOL0     C31116  10.254  11.213   2.170 -0.4943  0.0217  0.4118
  972MOL0     C31117  10.288  11.329   2.096 -0.2442 -0.6049 -0.8725
  972MOL0     C31118  10.188  11.412   2.055  0.4085  0.0412 -0.0048
  972MOL0     C31119  10.053  11.404   2.112 -0.9733 -0.8063  0.6351
  972MOL0     O31120   9.953  11.483   2.071 -0.2746  0.0691  0.6954
  972MOL0     C31121   9.905  11.429   1.950  0.2025  0.8213  0.4735
  972MOL0     C31122   9.829  11.544   1.880 -0.7767 -0.3840 -0.5167
  972MOL0     C31123   9.702  11.581   1.970  0.3716 -0.0201 -0.4952
  972MOL0     C31124   9.609  11.673   1.887  0.4619 -0.6967  1.4920
  972MOL0     C31125   9.490  11.735   1.975  0.2379 -0.2130 -0.1586
  972MOL0     C31126   9.380  11.791   1.883  0.8750  1.1060  0.3766
  972MOL0     C31127   9.242  11.812   1.957  0.3962 -0.4007 -1.0904
  972MOL0     C31128   9.125  11.838   1.855 -0.3893  0.7550 -0.0554
  972MOL0    Cl31129   8.975  11.845   1.940 -0.0751  0.0615  0.0594
  972MOL0     C31130  10.022  11.287   2.192 -0.1278 -0.0571  0.4021
  972MOL0     C31131  10.120  11.202   2.221 -0.7049  0.0224 -0.1042
  972MOL0     O31132  10.297  11.084   2.407  0.0312 -0.3855 -0.0947
  972MOL0     C31133  10.624  11.033   2.263 -0.2341 -0.5934 -0.6191
  972MOL0     C31134  10.741  10.974   2.300 -0.7431 -0.4222 -0.1031
  972MOL0     N31135  11.195  10.324   2.171 -0.1883  0.1595  0.3531
  972MOL0     N31136  11.230  10.254   2.065  0.3494 -0.0260  0.0699
  972MOL0     C31137  10.685   9.505   1.113  0.8536  0.4953 -0.5537
  972MOL0     C31138  10.601   9.405   1.058  0.1710 -0.5649 -0.5733
  972MOL0     C31139  10.383   9.114   0.823 -0.1757  0.5165  0.3663
  972MOL0     C31140  10.272   9.176   0.760  0.0876 -0.2384  0.0236
  972MOL0     C31141  10.163   9.106   0.727  0.2466 -1.2592  0.8099
  972MOL0     C31142  10.152   8.969   0.749  0.0069 -0.3958  0.3589
  972MOL0     O31143  10.048   8.903   0.697 -0.4708 -0.1728 -0.1374
  972MOL0     C31144   9.945   8.960   0.617  0.4905 -0.4040  0.1613
  972MOL0     C31145   9.858   8.845   0.558 -0.6520  0.1911  0.2630
  972MOL0     C31146   9.738   8.881   0.468  0.7142 -1.0160 -0.3647
  972MOL0     C31147   9.678   8.768   0.388 -1.0325 -0.3529  0.4459
  972MOL0     C31148   9.736   8.755   0.251 -1.7062 -0.1835 -0.7368
  972MOL0     C31149   9.787   8.746   0.138  0.1553  0.7839 -0.2467
  972MOL0     C31150  10.260   8.903   0.807 -0.0756 -0.0331 -0.1273
  972MOL0     C31151  10.378   8.975   0.840 -0.0373  0.1225  0.2834
  972MOL0     C31152  10.491   8.889   0.901 -0.5028 -1.0209 -0.9161
  972MOL0     H31153  10.782   9.126   1.113  0.8675  0.0373 -0.0697
  972MOL0     H31154  10.939   9.285   1.195  1.7571  1.1731  0.3426
  972MOL0     H31155  10.773   9.676   1.302 -0.8032 -0.8811 -0.0388
  972MOL0     H31156  10.859   9.572   1.408  1.0169 -0.2232 -0.7316
  972MOL0     H31157  11.015   9.790   1.270  3.3849 -0.6740 -1.3300
  972MOL0     H31158  11.079   9.658   1.366  0.6874  0.9264  1.5690
  972MOL0     H31159  10.935   9.715   1.567  0.4131 -0.7177  0.5487
  972MOL0     H31160  10.865   9.857   1.489  0.9618  0.9027 -1.0930
  972MOL0     H31161  11.150   9.822   1.572  1.2452 -0.3411 -2.0256
  972MOL0     H31162  11.123   9.915   1.440  2.9278 -0.8215  0.8662
  972MOL0     H31163  10.938  10.047   1.604 -0.0738 -1.4081 -2.9630
  972MOL0     H31164  10.991   9.938   1.730 -1.3817  0.4383  0.4904
  972MOL0     H31165  11.220  10.014   1.685  0.6145  1.1993 -0.9622
  972MOL0     H31166  11.165  10.138   1.566 -0.3302  3.3708  0.3952
  972MOL0     H31167  11.095  10.130   1.863  0.1186  0.4052 -0.3262
  972MOL0     H31168  11.032  10.252   1.747 -0.6615  0.1156  0.3295
  972MOL0     H31169  11.331  10.248   1.788 -0.3087 -0.0642 -2.2640
  972MOL0     H31170  11.231  10.380   1.749  1.9851 -0.9549 -1.2298
  972MOL0     H31171  11.160  10.550   1.946  2.5206  0.9490  0.2302
  972MOL0     H31172  11.203  10.569   2.318 -3.3072  0.2617  2.3390
  972MOL0     H31173  11.135  10.661   2.174  0.5221 -0.9913 -0.7511
  972MOL0     H31174  10.933  10.559   2.212  0.4571 -0.1738 -0.5992
  972MOL0     H31175  11.010  10.443   2.330  2.3446  0.2051  1.5800
  972MOL0     H31176  11.009  10.632   2.497  0.6667 -1.3882 -0.0383
  972MOL0     H31177  10.850  10.604   2.437  0.6084 -1.0685  0.0008
  972MOL0     H31178  10.880  10.765   2.270 -1.8485 -0.3220  1.5067
  972MOL0     H31179  11.042  10.825   2.327  0.1304  0.3728 -1.1718
  972MOL0     H31180  10.669  10.833   2.598  2.0703  1.5950  0.5828
  972MOL0     H31181  10.440  10.932   2.537  0.4560 -0.8933  0.0717
  972MOL0     H31182  10.393  11.338   2.069  0.1547  1.2604  1.0041
  972MOL0     H31183  10.208  11.499   1.993 -0.7265  3.1740  3.6110
  972MOL0     H31184   9.980  11.378   1.888 -2.3707 -0.0913 -2.0794
  972MOL0     H31185   9.824  11.360   1.974 -0.4673  1.0543 -1.0281
  972MOL0     H31186   9.896  11.629   1.863 -1.1077 -0.0350 -0.0885
  972MOL0     H31187   9.810  11.506   1.779  1.0473  0.6170 -1.2853
  972MOL0     H31188   9.659  11.490   2.014 -1.4606  0.7319 -0.6049
  972MOL0     H31189   9.724  11.641   2.059  1.9605 -0.8136 -0.3248
  972MOL0     H31190   9.568  11.622   1.800 -0.7592 -0.2645  1.7829
  972MOL0     H31191   9.662  11.761   1.848 -0.4493 -0.9737 -0.4849
  972MOL0     H31192   9.522  11.818   2.039  0.7414  2.1685 -3.2673
  972MOL0     H31193   9.443  11.652   2.030  2.5332 -2.7062 -1.6917
  972MOL0     H31194   9.415  11.887   1.843  1.8729  0.8292  0.5558
  972MOL0     H31195   9.365  11.726   1.797  0.4067  0.8793  0.6268
  972MOL0     H31196   9.252  11.901   2.019  2.4706 -2.2684  1.4675
  972MOL0     H31197   9.214  11.726   2.019  1.1870 -0.3907 -0.7001
  972MOL0     H31198   9.135  11.935   1.804  0.1403  0.1989 -1.0351
  972MOL0     H31199   9.112  11.753   1.788  1.3432  0.0055  0.4948
  972MOL0     H31200   9.925  11.273   2.238 -0.0364  2.3980  1.4692
  972MOL0     H31201  10.103  11.109   2.275  0.0894  0.6301  1.2553
  972MOL0     H31202  10.613  11.083   2.168 -2.0271  0.8302  0.2861
  972MOL0     H31203  10.817  10.982   2.222  0.4688  1.0043  1.1588
  972MOL0     H31204  10.657   9.609   1.115  1.5936  0.6968 -0.4279
  972MOL0     H31205  10.505   9.433   1.015 -0.5908 -0.0812  1.3291
  972MOL0     H31206  10.273   9.282   0.733 -0.8627 -0.8310 -2.6357
  972MOL0     H31207  10.089   9.159   0.667  1.4349  0.5337  0.8699
  972MOL0     H31208  10.000   9.017   0.542  0.0547  0.9006  0.7986
  972MOL0     H31209   9.881   9.025   0.678 -1.5561  0.1624 -2.4081
  972MOL0     H31210   9.818   8.789   0.643 -5.5153  0.7537 -1.3169
  972MOL0     H31211   9.921   8.778   0.498  0.4826  2.3573 -1.0857
  972MOL0     H31212   9.778   8.956   0.399 -1.7566  0.3229 -0.4579
  972MOL0     H31213   9.659   8.933   0.523  2.6389  1.5044  0.1834
  972MOL0     H31214   9.687   8.681   0.453 -0.9111  0.4197  1.4782
  972MOL0     H31215   9.572   8.787   0.371 -0.7949  1.8631  1.0222
  972MOL0     H31216   9.829   8.743   0.039 -0.3467  1.7507 -0.5002
  972MOL0     H31217  10.252   8.795   0.815 -2.2719  0.0426 -0.6605
  972MOL0     H31218  10.493   8.909   1.009 -2.5780 -0.2444 -0.9797
  972MOL0     H31219  10.464   8.784   0.888 -1.1630 -0.7853 -1.4568
  972MOL0     H31220  10.595   8.902   0.868  0.3493 -1.2442  1.4650
  973MOL0     O31221   9.013   3.865   2.104  0.6792 -0.4666  0.5407
  973MOL0     C31222   8.943   3.858   2.003 -1.1992  0.5033 -0.0109
  973MOL0     O31223   8.988   3.898   1.881 -0.0762  0.1096  0.0599
  973MOL0     C31224   9.111   3.953   1.852  1.1965  0.7857  0.2541
  973MOL0     C31225   9.124   3.986   1.710 -0.1102 -0.0960  1.1752
  973MOL0     C31226   9.244   4.052   1.660  0.4524 -0.3855 -0.2169
  973MOL0     C31227   9.334   4.096   1.756 -0.4420  0.3861 -0.0065
  973MOL0     O31228   9.443   4.161   1.707 -0.6834 -0.6027 -0.0283
  973MOL0     C31229   9.571   4.158   1.784 -0.1679 -0.8200  0.4351
  973MOL0     C31230   9.674   4.249   1.716 -0.0743 -0.3213  0.0448
  973MOL0     C31231   9.758   4.171   1.603 -0.0182  0.5362  0.9329
  973MOL0     C31232   9.845   4.058   1.656 -0.0393  0.0898 -0.5786
  973MOL0     C31233   9.972   4.046   1.567 -0.3253 -0.6365 -0.4103
  973MOL0     C31234  10.070   3.952   1.623  0.6028 -0.3084 -0.8423
  973MOL0     C31235  10.204   3.949   1.552 -0.8311  0.0537  1.1610
  973MOL0     C31236  10.295   4.065   1.596  0.0094  0.2131  1.1170
  973MOL0     N31237  10.422   4.067   1.520 -0.1300 -0.4364 -0.3557
  973MOL0     C31238  10.540   3.992   1.535  0.3673 -0.5981 -0.8021
  973MOL0     C31239  10.612   4.011   1.423  0.5767 -0.3536  0.2586
  973MOL0     C31240  10.744   3.971   1.393  0.0459 -0.0221 -0.1044
  973MOL0     C31241  10.759   3.815   1.376 -0.7005 -0.2792 -0.0837
  973MOL0     C31242  10.890   3.777   1.294  0.4713 -0.0872  1.1057
  973MOL0     C31243  11.013   3.807   1.381 -0.1635  0.0168 -0.3344
  973MOL0     O31244  11.008   3.754   1.515  0.7563  0.8898  1.1605
  973MOL0     C31245  11.096   3.649   1.547 -0.0985 -0.2206  0.3424
  973MOL0     C31246  11.170   3.568   1.456  0.1823 -0.0778 -0.3432
  973MOL0     C31247  11.263   3.474   1.495 -0.2997 -1.0910 -0.2416
  973MOL0     C31248  11.287   3.447   1.634  0.1260 -0.4036  0.3538
  973MOL0     C31249  11.385   3.353   1.691  0.6921 -0.6431  0.1256
  973MOL0     O31250  11.434   3.254   1.613  0.3919 -1.5071  0.4877
  973MOL0     C31251  11.514   3.168   1.685  0.2132  0.1333  0.9154
  973MOL0     C31252  11.647   3.176   1.671  0.2459  0.0612  0.2561
  973MOL0     C31253  11.739   3.089   1.743 -0.4726 -0.4101  0.0987
  973MOL0     C31254  11.696   2.995   1.837  0.1725 -0.5868  0.3162
  973MOL0     O31255  11.787   2.925   1.917 -0.5271  0.0615  0.2531
  973MOL0     C31256  11.905   2.991   1.963  0.0421 -0.0674 -0.2049
  973MOL0     C31257  11.989   2.915   2.058 -0.2572  0.4366 -0.3085
  973MOL0     C31258  11.918   2.842   2.172 -0.3884 -0.4479  0.8700
  973MOL0     C31259  12.014   2.779   2.274  0.8058 -0.0674  0.5135
  973MOL0     C31260  11.922   2.698   2.372 -0.6207 -0.5354 -0.0803
  973MOL0     C31261  11.987   2.649   2.503 -0.1204  0.5120 -0.2260
  973MOL0     C31262  11.899   2.536   2.565  0.4883 -0.3829  0.9079
  973MOL0     C31263  11.977   2.459   2.679 -0.3767 -0.5042 -0.4896
  973MOL0    Cl31264  11.997   2.564   2.831  0.0609  0.1088 -0.7715
  973MOL0     C31265  11.558   2.978   1.846 -0.5970 -1.3678 -0.3381
  973MOL0     C31266  11.472   3.059   1.772  0.1705 -0.1979 -0.1218
  973MOL0     O31267  11.407   3.367   1.814  0.5968  0.1073  0.3016
  973MOL0     C31268  11.209   3.525   1.725 -0.6655  0.1094 -1.0381
  973MOL0     C31269  11.118   3.621   1.681  1.0449  0.8718 -0.4361
  973MOL0     N31270  10.538   4.097   1.337 -1.1113 -0.2151 -0.5558
  973MOL0     N31271  10.431   4.144   1.404  0.2216  0.3855  0.2554
  973MOL0     C31272   9.318   4.067   1.890  0.8146  0.0599 -0.5365
  973MOL0     C31273   9.209   3.997   1.939  0.8613 -0.3048  0.2311
  973MOL0     C31274   8.810   3.791   2.023  0.1228 -0.7030 -0.1474
  973MOL0     C31275   8.734   3.793   1.907 -0.5850  0.0707 -0.2339
  973MOL0     C31276   8.605   3.751   1.902  0.2360 -0.9983  0.5303
  973MOL0     C31277   8.536   3.694   2.010  0.5973 -0.9258 -0.5094
  973MOL0     O31278   8.402   3.641   2.004  0.7873  0.0680 -0.6944
  973MOL0     C31279   8.302   3.726   1.949  0.0993 -0.8336 -0.3289
  973MOL0     C31280   8.208   3.647   1.854 -0.2606  0.5190  1.2008
  973MOL0     C31281   8.082   3.730   1.819 -0.2202 -1.3179 -0.8528
  973MOL0     C31282   7.975   3.653   1.728 -0.0148 -0.4470  0.7104
  973MOL0     C31283   7.878   3.751   1.672 -0.0543  0.3239 -0.1439
  973MOL0     C31284   7.799   3.830   1.625  0.2189  0.2615  1.0647
  973MOL0     C31285   8.616   3.691   2.126 -0.5807 -0.1024  0.2583
  973MOL0     C31286   8.747   3.725   2.134 -0.8610 -0.2379  0.6634
  973MOL0     C31287   8.820   3.711   2.267  0.2056 -0.3454 -0.3776
  973MOL0     H31288   9.066   3.946   1.627  1.5671  1.3286 -0.7902
  973MOL0     H31289   9.265   4.072   1.555  2.9847  1.2315  0.5052
  973MOL0     H31290   9.555   4.188   1.888 -1.0358 -1.7323  0.5741
  973MOL0     H31291   9.605   4.056   1.803  2.2913 -0.0947  0.2902
  973MOL0     H31292   9.743   4.293   1.789 -0.9828 -0.4913  1.0312
  973MOL0     H31293   9.619   4.334   1.676  1.3360  0.1681 -0.9526
  973MOL0     H31294   9.828   4.227   1.540  1.0264 -1.4595  0.2162
  973MOL0     H31295   9.680   4.131   1.538 -0.5511 -2.2946  3.1205
  973MOL0     H31296   9.881   4.080   1.757 -0.0381  0.1692 -0.5966
  973MOL0     H31297   9.779   3.971   1.659  0.1832 -0.2794  5.6981
  973MOL0     H31298   9.941   4.012   1.468 -1.4830  0.5759 -0.4993
  973MOL0     H31299  10.013   4.146   1.549  0.9781 -1.2719 -1.0193
  973MOL0     H31300  10.068   3.960   1.732 -2.1233 -2.6277 -0.5850
  973MOL0     H31301  10.021   3.854   1.616  0.6356 -0.4915  0.9253
  973MOL0     H31302  10.194   3.927   1.446  0.5319 -1.5114  1.3193
  973MOL0     H31303  10.254   3.860   1.592 -0.5680  1.0585  3.2417
  973MOL0     H31304  10.236   4.155   1.573 -0.9712 -1.2158 -2.5511
  973MOL0     H31305  10.325   4.048   1.700  2.2296 -0.9837  0.3292
  973MOL0     H31306  10.573   3.934   1.620 -4.5837 -0.5840  1.5352
  973MOL0     H31307  10.774   4.023   1.301 -0.3331  0.2368 -0.0841
  973MOL0     H31308  10.802   4.012   1.476 -1.1600  1.0756  0.2308
  973MOL0     H31309  10.748   3.769   1.474  0.1201  0.6358  0.4519
  973MOL0     H31310  10.679   3.771   1.316 -0.1204 -3.0850  1.0813
  973MOL0     H31311  10.883   3.845   1.208 -3.0803 -0.9629  0.5559
  973MOL0     H31312  10.881   3.670   1.273 -0.1668 -0.0307  1.0876
  973MOL0     H31313  11.018   3.916   1.393  0.8003 -0.0877  0.4162
  973MOL0     H31314  11.101   3.774   1.325 -0.7144 -0.0860 -1.1418
  973MOL0     H31315  11.146   3.571   1.350  0.1752  2.2852 -0.3167
  973MOL0     H31316  11.325   3.415   1.427  1.9422  2.3342 -1.4539
  973MOL0     H31317  11.693   3.255   1.614  4.5643 -1.6681  0.9511
  973MOL0     H31318  11.847   3.105   1.741 -0.3604 -1.2063 -0.6210
  973MOL0     H31319  11.973   3.029   1.887  1.3847 -1.8303  0.0681
  973MOL0     H31320  11.861   3.076   2.016  0.5454 -0.8121  1.4940
  973MOL0     H31321  12.043   2.843   1.995  4.5069 -0.1952  3.8649
  973MOL0     H31322  12.060   2.986   2.100 -0.9504  1.4114 -0.7511
  973MOL0     H31323  11.859   2.919   2.221 -0.5961 -1.1384  1.7311
  973MOL0     H31324  11.846   2.771   2.131 -1.9828  2.0845 -1.0267
  973MOL0     H31325  12.068   2.857   2.328  0.4135  0.9061 -0.4702
  973MOL0     H31326  12.083   2.719   2.215 -1.0825 -1.2506 -0.6030
  973MOL0     H31327  11.879   2.616   2.314 -2.2357  0.6346 -0.6021
  973MOL0     H31328  11.842   2.766   2.403 -0.9813 -0.1073 -1.8357
  973MOL0     H31329  12.091   2.615   2.506 -0.7594 -1.6425 -0.7035
  973MOL0     H31330  11.972   2.728   2.577  2.3489  1.1449 -0.3388
  973MOL0     H31331  11.874   2.456   2.494  2.7362 -1.9929  1.8016
  973MOL0     H31332  11.804   2.569   2.608  0.3269 -0.8919  0.9560
  973MOL0     H31333  11.920   2.371   2.711  0.1390 -1.1806 -1.3757
  973MOL0     H31334  12.071   2.421   2.638 -1.8059 -1.2580 -3.2950
  973MOL0     H31335  11.517   2.904   1.915 -2.5598  0.8632  1.0150
  973MOL0     H31336  11.365   3.046   1.783  0.1610  0.1034  0.1616
  973MOL0     H31337  11.231   3.517   1.831 -0.3781  0.0397 -1.1025
  973MOL0     H31338  11.068   3.680   1.758  2.2742  2.4359 -0.7927
  973MOL0     H31339   9.393   4.099   1.961  1.4812  0.0667 -1.2238
  973MOL0     H31340   9.201   3.985   2.047 -0.0305 -0.5679  0.1456
  973MOL0     H31341   8.767   3.834   1.812 -0.7725 -1.9880 -1.2351
  973MOL0     H31342   8.553   3.765   1.808 -0.1378  0.2077  0.8997
  973MOL0     H31343   8.332   3.804   1.879 -1.7634 -0.1149 -0.3951
  973MOL0     H31344   8.241   3.763   2.031  1.3862  1.9197 -0.5173
  973MOL0     H31345   8.188   3.551   1.903  1.8160 -0.3232  0.5262
  973MOL0     H31346   8.267   3.628   1.763 -3.6795 -0.9580 -0.8912
  973MOL0     H31347   8.113   3.813   1.754  0.6287 -0.1263  0.9937
  973MOL0     H31348   8.030   3.760   1.910 -0.3359 -1.6952 -0.7929
  973MOL0     H31349   8.028   3.598   1.649  0.4416 -0.8486  1.2837
  973MOL0     H31350   7.926   3.573   1.784 -0.9735 -0.7719 -0.5397
  973MOL0     H31351   7.730   3.905   1.591  1.4308  0.1322 -2.0425
  973MOL0     H31352   8.568   3.663   2.219  0.2701  0.1407  0.7845
  973MOL0     H31353   8.746   3.666   2.334  1.3401 -1.4068  0.1774
  973MOL0     H31354   8.909   3.648   2.260  0.5076 -0.5844  3.4653
  973MOL0     H31355   8.854   3.811   2.298  3.6906 -1.2046 -1.0332
  974MOL0     O31356   0.714   0.782   5.504 -0.2972 -0.7953 -0.3554
  974MOL0     C31357   0.756   0.897   5.489 -0.3176  0.2293 -0.4232
  974MOL0     O31358   0.692   1.004   5.428  0.4454  0.8710 -0.0437
  974MOL0     C31359   0.568   0.977   5.378  0.9915  0.5464  0.0893
  974MOL0     C31360   0.550   0.960   5.238  0.4358  0.3065 -0.7451
  974MOL0     C31361   0.427   0.921   5.187  1.0988 -0.1750  0.1695
  974MOL0     C31362   0.319   0.908   5.279  0.1552  0.3397  0.0235
  974MOL0     O31363   0.206   0.857   5.220  0.5638  0.2666 -0.1805
  974MOL0     C31364   0.102   0.799   5.294  0.7051 -0.3744 -0.2373
  974MOL0     C31365   0.014   0.719   5.188  0.9756  0.4480 -0.1206
  974MOL0     C31366  -0.107   0.654   5.249 -0.3489 -0.7735  0.2296
  974MOL0     C31367  -0.218   0.617   5.151 -0.2439  0.5236 -0.3593
  974MOL0     C31368  -0.349   0.580   5.222  0.7102  0.2617 -0.5453
  974MOL0     C31369  -0.428   0.477   5.141  0.4093  1.1410 -0.5691
  974MOL0     C31370  -0.539   0.404   5.219 -1.1940 -0.3013 -0.4225
  974MOL0     C31371  -0.637   0.510   5.279  0.1752 -1.3654 -0.7509
  974MOL0     N31372  -0.761   0.453   5.321 -0.2975 -0.0303  0.8046
  974MOL0     C31373  -0.876   0.505   5.279  0.6142 -0.8239  0.2685
  974MOL0     C31374  -0.969   0.429   5.343 -0.1925 -0.0027  0.2359
  974MOL0     C31375  -1.115   0.439   5.337  1.3372 -0.4598 -0.5520
  974MOL0     C31376  -1.172   0.507   5.206  0.1370 -0.1086  0.2420
  974MOL0     C31377  -1.324   0.531   5.198 -0.1535  0.1039 -0.0226
  974MOL0     C31378  -1.411   0.415   5.232  0.1374  0.3504 -0.5231
  974MOL0     O31379  -1.547   0.446   5.203  0.1633  0.3074 -0.3859
  974MOL0     C31380  -1.641   0.348   5.231 -0.4427  0.3980  0.1394
  974MOL0     C31381  -1.748   0.349   5.148  0.6225 -0.2272  0.1170
  974MOL0     C31382  -1.857   0.275   5.174  0.1630  0.5446 -0.3638
  974MOL0     C31383  -1.861   0.172   5.270  0.5055 -0.9031 -0.2165
  974MOL0     C31384  -1.973   0.092   5.297 -0.4680  0.8291  0.1086
  974MOL0     O31385  -1.958  -0.004   5.392 -0.2475  0.8822  0.0051
  974MOL0     C31386  -2.050  -0.112   5.374 -0.2291 -0.8687 -0.4260
  974MOL0     C31387  -2.138  -0.155   5.467  0.1298  0.5898 -0.7186
  974MOL0     C31388  -2.207  -0.281   5.451  0.8875 -0.2464  0.2218
  974MOL0     C31389  -2.222  -0.337   5.333 -0.1407 -0.5809 -0.0627
  974MOL0     O31390  -2.302  -0.441   5.305 -0.0039 -0.0733  0.0888
  974MOL0     C31391  -2.440  -0.446   5.346  0.0843 -0.8779 -0.0576
  974MOL0     C31392  -2.449  -0.593   5.400 -0.1062 -0.6756  0.3081
  974MOL0     C31393  -2.592  -0.604   5.451 -0.1377 -0.3148 -0.3368
  974MOL0     C31394  -2.652  -0.743   5.441 -0.7075 -0.1429  0.3549
  974MOL0     C31395  -2.780  -0.776   5.529 -1.4360 -0.0430  0.0113
  974MOL0     C31396  -2.832  -0.916   5.488 -0.3152 -0.4389 -0.4485
  974MOL0     C31397  -2.966  -0.949   5.560 -0.2353  0.2663  1.5105
  974MOL0     C31398  -2.951  -0.961   5.707 -0.6613  0.1493  0.0142
  974MOL0    Cl31399  -2.849  -1.100   5.755 -0.5448 -0.1429 -0.0517
  974MOL0     C31400  -2.145  -0.285   5.229  0.8353 -0.0722 -0.0411
  974MOL0     C31401  -2.051  -0.181   5.250  0.2315  0.2945  0.5708
  974MOL0     O31402  -2.075   0.112   5.239 -0.6634 -0.4563  0.8474
  974MOL0     C31403  -1.743   0.169   5.351 -0.7374 -0.4047  0.4836
  974MOL0     C31404  -1.635   0.250   5.335 -0.0598 -0.6488 -0.1687
  974MOL0     N31405  -0.905   0.352   5.432  0.2171 -1.1389 -0.1395
  974MOL0     N31406  -0.775   0.376   5.422  0.4009 -0.3407 -0.0837
  974MOL0     C31407   0.337   0.934   5.421 -0.5061  0.6680  0.5250
  974MOL0     C31408   0.458   0.967   5.467 -0.5447 -0.1711  0.1296
  974MOL0     C31409   0.891   0.923   5.537 -0.2129 -0.2934  0.1826
  974MOL0     C31410   0.932   1.055   5.535  0.3455  0.9704  0.5632
  974MOL0     C31411   1.059   1.090   5.575 -1.3177 -1.0560 -0.3772
  974MOL0     C31412   1.146   1.006   5.635 -0.2589 -0.3041 -0.0230
  974MOL0     O31413   1.256   1.063   5.696 -0.2004 -1.0943  1.4593
  974MOL0     C31414   1.303   1.007   5.822 -0.5705 -0.3954  0.5550
  974MOL0     C31415   1.410   1.101   5.883 -0.0106 -0.4317 -0.1044
  974MOL0     C31416   1.542   1.115   5.798 -0.3039 -0.4723  0.7014
  974MOL0     C31417   1.632   0.985   5.792 -0.6478  0.9857 -1.2837
  974MOL0     C31418   1.769   1.018   5.764 -0.4021  0.6177 -0.0733
  974MOL0     C31419   1.883   1.058   5.723 -0.1274 -0.1032 -0.2914
  974MOL0     C31420   1.117   0.868   5.619  0.6936 -1.4314 -0.6364
  974MOL0     C31421   0.987   0.829   5.578 -0.2321  0.6810 -0.1991
  974MOL0     C31422   0.978   0.681   5.577  0.3622 -0.5897  0.6392
  974MOL0     H31423   0.635   0.993   5.179  1.6343  0.0665  0.7925
  974MOL0     H31424   0.415   0.925   5.079 -0.9934  1.4418  0.3825
  974MOL0     H31425   0.138   0.732   5.373  0.7290 -2.4157 -1.9031
  974MOL0     H31426   0.038   0.877   5.337 -0.6842 -1.7485  0.3056
  974MOL0     H31427   0.084   0.644   5.151  2.2402  2.1642 -1.3658
  974MOL0     H31428  -0.016   0.783   5.104  0.7326  0.2774 -0.1662
  974MOL0     H31429  -0.155   0.724   5.317 -0.9625 -0.1718 -0.8032
  974MOL0     H31430  -0.072   0.562   5.297 -0.5851 -1.3305 -0.6345
  974MOL0     H31431  -0.238   0.696   5.078 -1.1153 -0.4851 -1.2545
  974MOL0     H31432  -0.183   0.530   5.095 -2.8648 -0.8064 -0.0836
  974MOL0     H31433  -0.322   0.526   5.314  0.0546  3.9490  2.0557
  974MOL0     H31434  -0.408   0.663   5.262  1.0863  0.5265 -0.5305
  974MOL0     H31435  -0.471   0.512   5.047  0.6429 -0.3221 -1.2401
  974MOL0     H31436  -0.364   0.398   5.101 -0.2891  1.8014 -3.1484
  974MOL0     H31437  -0.495   0.346   5.301 -0.9246  1.3288  0.6402
  974MOL0     H31438  -0.596   0.342   5.149  0.8428 -3.5847  0.5783
  974MOL0     H31439  -0.578   0.561   5.355  1.4633 -0.4798 -2.2918
  974MOL0     H31440  -0.648   0.586   5.201 -1.5299 -2.9638 -2.1626
  974MOL0     H31441  -0.885   0.582   5.204  2.4586  0.7516  1.5667
  974MOL0     H31442  -1.163   0.344   5.361 -2.3189  1.8037  2.1092
  974MOL0     H31443  -1.144   0.508   5.416  0.6343  0.4807 -1.6018
  974MOL0     H31444  -1.112   0.596   5.182  0.8024 -0.5310  0.3299
  974MOL0     H31445  -1.141   0.434   5.131 -3.3294 -1.4401 -0.0697
  974MOL0     H31446  -1.329   0.553   5.091  2.1741 -0.0528 -0.2155
  974MOL0     H31447  -1.345   0.618   5.262 -0.5960 -1.9456  2.8131
  974MOL0     H31448  -1.391   0.386   5.336  1.5036 -0.9039 -1.0969
  974MOL0     H31449  -1.392   0.322   5.178 -3.0110 -0.9514  0.3980
  974MOL0     H31450  -1.746   0.412   5.059 -0.0742 -0.0607  0.2121
  974MOL0     H31451  -1.942   0.291   5.109  0.4958 -0.3318 -1.0375
  974MOL0     H31452  -2.143  -0.103   5.562  3.4916  3.2127 -1.7487
  974MOL0     H31453  -2.270  -0.304   5.537 -1.5412  3.0739 -0.4366
  974MOL0     H31454  -2.472  -0.374   5.423  2.8138  1.2975 -0.7985
  974MOL0     H31455  -2.509  -0.442   5.262  0.9733  0.3811 -0.7615
  974MOL0     H31456  -2.435  -0.655   5.311 -2.3443 -1.5173  0.4588
  974MOL0     H31457  -2.382  -0.606   5.485 -1.1204  2.6551  1.8140
  974MOL0     H31458  -2.593  -0.564   5.553 -0.5379 -0.6866 -0.1944
  974MOL0     H31459  -2.660  -0.537   5.397  0.5249 -0.9576 -2.0539
  974MOL0     H31460  -2.581  -0.819   5.476 -0.6663  0.9191  2.7355
  974MOL0     H31461  -2.672  -0.761   5.335  0.0210 -3.2780  0.6583
  974MOL0     H31462  -2.854  -0.696   5.522 -0.7407  0.5655 -0.7799
  974MOL0     H31463  -2.755  -0.765   5.635 -0.8689 -1.0140 -0.0048
  974MOL0     H31464  -2.850  -0.921   5.380  3.5798 -2.0309 -1.1700
  974MOL0     H31465  -2.759  -0.995   5.504 -0.5207 -0.4510  0.4417
  974MOL0     H31466  -2.992  -1.051   5.529 -0.9512  0.4434  1.5092
  974MOL0     H31467  -3.048  -0.885   5.525  0.0712 -1.3911 -2.8817
  974MOL0     H31468  -2.915  -0.867   5.752  1.5640 -0.6177 -0.0841
  974MOL0     H31469  -3.048  -0.992   5.747  1.2421 -4.5087  1.7418
  974MOL0     H31470  -2.159  -0.343   5.138 -0.1567  1.4379 -0.8766
  974MOL0     H31471  -1.991  -0.145   5.167 -2.3647 -0.5303 -1.8143
  974MOL0     H31472  -1.732   0.087   5.422 -0.6120 -1.0409 -0.2592
  974MOL0     H31473  -1.550   0.231   5.401 -1.3824 -0.1653  1.7546
  974MOL0     H31474   0.250   0.908   5.481  0.2956  2.6468  2.7019
  974MOL0     H31475   0.478   0.983   5.572  0.3344  1.9302 -0.2919
  974MOL0     H31476   0.865   1.130   5.496 -0.4007 -0.3582 -0.7781
  974MOL0     H31477   1.095   1.191   5.559 -0.8351 -1.4674 -1.9873
  974MOL0     H31478   1.339   0.906   5.803  1.0495  0.3306 -0.5432
  974MOL0     H31479   1.216   1.005   5.888  1.3409  0.5102  3.2356
  974MOL0     H31480   1.435   1.047   5.975 -0.1261 -2.8451 -1.4054
  974MOL0     H31481   1.368   1.193   5.925 -1.1106 -0.2806 -1.4492
  974MOL0     H31482   1.593   1.205   5.835 -0.1489 -1.3408  2.7785
  974MOL0     H31483   1.516   1.135   5.694  1.0013 -2.6891 -0.1280
  974MOL0     H31484   1.625   0.932   5.888  0.1242  2.1652 -0.5638
  974MOL0     H31485   1.595   0.917   5.715 -0.3935 -0.0363 -0.5331
  974MOL0     H31486   1.968   1.099   5.673 -0.7427  2.8852  0.9280
  974MOL0     H31487   1.200   0.801   5.642  1.5022 -1.0681 -2.3102
  974MOL0     H31488   0.893   0.640   5.633  0.0443 -0.1518  0.4934
  974MOL0     H31489   0.976   0.653   5.471 -1.7024 -1.4750  0.8762
  974MOL0     H31490   1.070   0.635   5.613  1.5576  1.1255 -0.0487
  975MOL0     O31491   6.484   7.597   0.186  0.0272  0.3694 -0.3122
  975MOL0     C31492   6.457   7.483   0.226  0.1508  0.8636  0.1641
  975MOL0     O31493   6.553   7.390   0.273  0.0521 -0.0443 -0.6175
  975MOL0     C31494   6.683   7.427   0.265 -0.2583 -0.6942 -0.4728
  975MOL0     C31495   6.737   7.521   0.355 -0.6686 -0.3619 -0.3098
  975MOL0     C31496   6.860   7.575   0.330  0.9300  0.9052 -0.2648
  975MOL0     C31497   6.944   7.535   0.216 -0.6555 -0.0914 -0.6646
  975MOL0     O31498   7.069   7.580   0.175  0.4927  0.2930 -0.6911
  975MOL0     C31499   7.137   7.684   0.249 -0.4383  0.1696  0.2938
  975MOL0     C31500   7.225   7.772   0.159  0.2605  0.2556 -0.9647
  975MOL0     C31501   7.358   7.696   0.119  0.1071  0.1290 -0.2186
  975MOL0     C31502   7.477   7.785   0.135 -0.7249  0.2227 -0.1261
  975MOL0     C31503   7.580   7.753   0.030  0.1515  0.1070  0.7658
  975MOL0     C31504   7.617   7.598   0.037  0.4281  0.1331  0.2303
  975MOL0     C31505   7.759   7.553  -0.017  0.0553  0.3824  0.7557
  975MOL0     C31506   7.788   7.411   0.031  1.6233  0.0826 -0.2581
  975MOL0     N31507   7.917   7.363   0.008 -0.5310 -0.7386  0.6045
  975MOL0     C31508   8.021   7.384   0.095  0.4586 -0.2194  0.3489
  975MOL0     C31509   8.099   7.281   0.055 -0.0642  0.4853 -0.3646
  975MOL0     C31510   8.222   7.226   0.124 -0.0482  0.3037 -1.3684
  975MOL0     C31511   8.343   7.316   0.086 -0.5167  0.7176 -0.2417
  975MOL0     C31512   8.464   7.221   0.057 -0.0097  0.1297 -0.4393
  975MOL0     C31513   8.530   7.167   0.179  0.5778 -0.1378  0.0371
  975MOL0     O31514   8.584   7.272   0.255 -0.1268  1.2595  0.0125
  975MOL0     C31515   8.688   7.343   0.197  0.2523  0.3825 -0.4601
  975MOL0     C31516   8.668   7.481   0.177 -1.2054 -0.0700 -0.8414
  975MOL0     C31517   8.759   7.556   0.108  1.6256  0.4016 -0.8563
  975MOL0     C31518   8.880   7.510   0.067  0.1773  0.6370 -0.3321
  975MOL0     C31519   8.980   7.593   0.008 -0.1388  0.7661 -0.8803
  975MOL0     O31520   8.960   7.726  -0.002 -0.3758  0.1361  0.6585
  975MOL0     C31521   9.059   7.816  -0.030 -0.4331 -0.3925  0.0124
  975MOL0     C31522   9.192   7.815   0.004 -0.0216 -0.0749 -0.0021
  975MOL0     C31523   9.277   7.923  -0.028 -0.5529  0.1854 -0.7444
  975MOL0     C31524   9.231   8.038  -0.087  1.1768 -0.2911 -0.2396
  975MOL0     O31525   9.307   8.150  -0.114  0.2956 -0.6748  0.2022
  975MOL0     C31526   9.456   8.160  -0.088  0.1223  0.1380 -0.9306
  975MOL0     C31527   9.473   8.246   0.037 -0.9034 -0.2198  0.0699
  975MOL0     C31528   9.611   8.225   0.101 -1.0673  0.5167 -0.1923
  975MOL0     C31529   9.715   8.319   0.036 -0.3987  0.6841 -0.1014
  975MOL0     C31530   9.848   8.306   0.101 -0.2083 -0.1097 -0.8109
  975MOL0     C31531   9.949   8.384   0.022 -0.2171  0.0928 -0.1624
  975MOL0     C31532  10.081   8.361   0.097  0.0072  0.1676  0.7003
  975MOL0     C31533  10.178   8.485   0.082 -0.1692  0.5796  0.8316
  975MOL0    Cl31534  10.322   8.448   0.180  0.0917 -0.1256 -0.0446
  975MOL0     C31535   9.090   8.036  -0.127  1.0070  0.1097  1.0485
  975MOL0     C31536   9.014   7.928  -0.096 -0.6711  0.2427 -0.8038
  975MOL0     O31537   9.079   7.535  -0.033 -0.6799  0.5943 -0.1456
  975MOL0     C31538   8.910   7.374   0.102 -0.0746  0.5513  0.5561
  975MOL0     C31539   8.806   7.292   0.150 -0.3624 -0.5604  0.0905
  975MOL0     N31540   8.041   7.203  -0.043 -0.4616 -0.4506  0.2694
  975MOL0     N31541   7.929   7.253  -0.072 -0.1236 -0.8091  0.2691
  975MOL0     C31542   6.891   7.426   0.137  0.1613  0.5125 -0.3439
  975MOL0     C31543   6.759   7.376   0.163 -0.7009  0.6648 -0.2798
  975MOL0     C31544   6.310   7.443   0.235  0.6301 -0.3913  0.3054
  975MOL0     C31545   6.281   7.327   0.313 -0.2625  0.0429 -0.0320
  975MOL0     C31546   6.155   7.276   0.325  0.5342 -0.4554  0.2085
  975MOL0     C31547   6.050   7.345   0.269  0.7866  0.1938 -0.1734
  975MOL0     O31548   5.926   7.287   0.302 -0.1535 -0.4337 -0.7945
  975MOL0     C31549   5.815   7.374   0.347 -0.4304  0.0081  0.1903
  975MOL0     C31550   5.807   7.366   0.505  0.2017 -0.4922  1.0685
  975MOL0     C31551   5.921   7.438   0.568  0.4518  0.1247 -0.8431
  975MOL0     C31552   5.961   7.388   0.712  0.1892 -0.1414  0.2201
  975MOL0     C31553   6.049   7.278   0.702 -0.3496 -0.2281 -0.2098
  975MOL0     C31554   6.123   7.181   0.677  0.5474  0.8132 -0.0659
  975MOL0     C31555   6.069   7.458   0.192 -0.5530  0.0681 -0.8797
  975MOL0     C31556   6.196   7.516   0.181  0.1462  0.3818  0.4312
  975MOL0     C31557   6.206   7.630   0.091  0.1004 -0.1950  0.3290
  975MOL0     H31558   6.683   7.571   0.435 -0.7672  1.7715 -1.6378
  975MOL0     H31559   6.909   7.640   0.402  3.1837 -0.9355 -0.0166
  975MOL0     H31560   7.062   7.756   0.283 -0.2450  0.1419  0.7856
  975MOL0     H31561   7.195   7.639   0.330  2.8143  0.6266 -1.6103
  975MOL0     H31562   7.256   7.863   0.211 -2.2995  0.2536  0.7388
  975MOL0     H31563   7.174   7.802   0.067  0.4460 -2.6888 -2.1505
  975MOL0     H31564   7.352   7.654   0.017  1.8036 -2.4809  0.6520
  975MOL0     H31565   7.375   7.605   0.178 -0.8756  2.3041  3.7436
  975MOL0     H31566   7.445   7.890   0.128 -2.3915 -0.2494 -0.0603
  975MOL0     H31567   7.516   7.768   0.236  2.1977  0.5542 -1.1020
  975MOL0     H31568   7.544   7.782  -0.068 -0.8912 -0.0532  1.0942
  975MOL0     H31569   7.669   7.808   0.063  0.3880 -0.6581  1.4571
  975MOL0     H31570   7.602   7.547   0.132 -0.8186  2.6098  1.4507
  975MOL0     H31571   7.546   7.545  -0.028  0.7151  1.6197 -1.3817
  975MOL0     H31572   7.836   7.617   0.026 -0.5222  0.8386  1.1231
  975MOL0     H31573   7.762   7.561  -0.126  2.6819 -2.1728  0.5206
  975MOL0     H31574   7.780   7.412   0.140  0.7748  0.5096 -0.3130
  975MOL0     H31575   7.721   7.336  -0.011  1.2648 -0.3962  1.1421
  975MOL0     H31576   8.028   7.450   0.181  4.6137 -0.2643  0.2646
  975MOL0     H31577   8.215   7.225   0.233 -1.1439 -2.2151 -1.4126
  975MOL0     H31578   8.231   7.121   0.095 -1.6210 -1.4854  3.5880
  975MOL0     H31579   8.325   7.359  -0.013 -0.1328 -0.0646 -0.6530
  975MOL0     H31580   8.365   7.401   0.151 -0.1076  1.9262 -1.8890
  975MOL0     H31581   8.543   7.274   0.004  0.7724 -0.0484  0.5281
  975MOL0     H31582   8.435   7.141  -0.012  1.5934 -0.6452 -0.2702
  975MOL0     H31583   8.612   7.101   0.153  2.8782  2.9661 -1.2585
  975MOL0     H31584   8.450   7.125   0.240  0.0052  0.5464 -0.2241
  975MOL0     H31585   8.581   7.527   0.223 -0.7270 -2.9721  3.5355
  975MOL0     H31586   8.730   7.660   0.095  0.9255  0.0823 -2.0620
  975MOL0     H31587   9.230   7.731   0.061  0.6004  1.3260  1.6980
  975MOL0     H31588   9.377   7.929   0.014  0.3618  2.5487 -2.9889
  975MOL0     H31589   9.510   8.065  -0.088 -0.9829 -0.5040 -1.5097
  975MOL0     H31590   9.503   8.212  -0.172 -0.8554  0.5343 -1.2522
  975MOL0     H31591   9.447   8.351   0.026  0.1806 -0.2277 -3.7217
  975MOL0     H31592   9.396   8.198   0.099 -1.7270  1.7274  0.6187
  975MOL0     H31593   9.598   8.240   0.209 -1.1477 -0.2659 -0.0932
  975MOL0     H31594   9.639   8.121   0.085 -1.6762  0.3151  0.0463
  975MOL0     H31595   9.679   8.423   0.032 -2.8522  0.2181  3.8050
  975MOL0     H31596   9.728   8.287  -0.067  2.1498  3.0554 -0.6360
  975MOL0     H31597   9.880   8.201   0.105  3.1536  0.8403  0.7263
  975MOL0     H31598   9.839   8.340   0.205 -0.2983 -1.8537 -0.2083
  975MOL0     H31599   9.962   8.355  -0.082  1.0217  1.1420 -0.3335
  975MOL0     H31600   9.919   8.489   0.037  1.5370  0.6780 -0.5386
  975MOL0     H31601  10.118   8.264   0.063 -1.6137  0.2233 -1.3724
  975MOL0     H31602  10.054   8.356   0.203  1.1228 -2.5164  0.9309
  975MOL0     H31603  10.206   8.486  -0.023 -3.2408 -1.8677 -0.1766
  975MOL0     H31604  10.126   8.577   0.110 -0.1846 -0.2520  3.8661
  975MOL0     H31605   9.045   8.119  -0.179  2.9018  1.1421  0.9642
  975MOL0     H31606   8.905   7.931  -0.105 -1.0446  2.7964  2.5529
  975MOL0     H31607   9.004   7.321   0.089 -1.6633 -2.0854 -1.1835
  975MOL0     H31608   8.813   7.185   0.167 -1.9208 -0.5632  0.9032
  975MOL0     H31609   6.943   7.399   0.046  0.6975  1.9520 -0.4919
  975MOL0     H31610   6.717   7.301   0.096  1.0953 -2.8520  2.2342
  975MOL0     H31611   6.362   7.262   0.344  1.2326  2.6020  1.9157
  975MOL0     H31612   6.138   7.192   0.392 -1.0136  0.2635  0.7725
  975MOL0     H31613   5.713   7.358   0.310  0.2782  2.4078 -3.2665
  975MOL0     H31614   5.841   7.478   0.327 -3.9484  1.1525  0.7743
  975MOL0     H31615   5.824   7.263   0.538  0.5472 -1.5929 -2.2111
  975MOL0     H31616   5.717   7.415   0.544  0.2219  0.3258  0.1171
  975MOL0     H31617   5.912   7.547   0.569 -0.7678  0.0380  0.5440
  975MOL0     H31618   6.003   7.424   0.497  0.6040  1.9469 -1.0553
  975MOL0     H31619   6.018   7.471   0.755 -0.1484  1.6240 -2.4351
  975MOL0     H31620   5.867   7.362   0.761 -1.4468 -1.1804 -3.1589
  975MOL0     H31621   6.167   7.088   0.650 -0.3859  0.5518 -0.7450
  975MOL0     H31622   5.980   7.506   0.152 -2.0410 -0.5200  1.5199
  975MOL0     H31623   6.278   7.619   0.009  1.7368  1.5365  1.4327
  975MOL0     H31624   6.112   7.642   0.036 -0.0232  1.2622  0.7983
  975MOL0     H31625   6.228   7.721   0.148 -1.1003  0.9533 -0.9593
  976MOL0     O31626  11.184   6.680   0.598  0.7634  0.2561  0.1006
  976MOL0     C31627  11.202   6.805   0.583  0.7548  0.5333 -0.4582
  976MOL0     O31628  11.243   6.885   0.679  0.3101 -0.3329 -0.8056
  976MOL0     C31629  11.282   6.832   0.802 -0.0617  0.0158  0.2999
  976MOL0     C31630  11.425   6.832   0.835  0.9775  0.2713 -0.4370
  976MOL0     C31631  11.467   6.791   0.969  0.3887  0.1857  1.0632
  976MOL0     C31632  11.371   6.738   1.053 -0.1353 -0.2123 -0.3895
  976MOL0     O31633  11.412   6.693   1.181 -0.4091 -0.0491 -0.7510
  976MOL0     C31634  11.548   6.651   1.216 -1.1209  0.8321  0.3649
  976MOL0     C31635  11.525   6.556   1.336  0.1204  0.1099 -0.3884
  976MOL0     C31636  11.660   6.522   1.395 -0.3859 -0.3016  0.0284
  976MOL0     C31637  11.639   6.431   1.508 -0.2913  0.2048 -0.5305
  976MOL0     C31638  11.766   6.410   1.571 -0.3653  0.0028 -0.7967
  976MOL0     C31639  11.729   6.337   1.707  0.9926 -0.1840  0.0287
  976MOL0     C31640  11.850   6.322   1.800  0.2843 -0.9753 -0.8823
  976MOL0     C31641  11.930   6.194   1.779 -0.4665 -0.4647  0.4784
  976MOL0     N31642  11.852   6.079   1.834 -0.4078 -1.0622  0.2620
  976MOL0     C31643  11.793   6.074   1.959 -0.4503 -0.5612  0.3063
  976MOL0     C31644  11.709   5.975   1.958  1.0891  0.0357 -0.2298
  976MOL0     C31645  11.607   5.953   2.065 -0.1918  0.7690  0.9688
  976MOL0     C31646  11.497   6.056   2.061 -1.2652 -0.5198 -0.6748
  976MOL0     C31647  11.431   6.088   1.924 -0.5321  0.0457  0.5392
  976MOL0     C31648  11.311   6.181   1.942 -0.1368 -0.3489  0.4889
  976MOL0     O31649  11.193   6.114   1.988  0.1839 -0.1662  0.0495
  976MOL0     C31650  11.079   6.190   2.017  0.4477  0.1355 -0.0477
  976MOL0     C31651  10.983   6.131   2.098  0.9861  0.0950 -0.2361
  976MOL0     C31652  10.849   6.192   2.090 -0.2904 -0.5943 -0.1606
  976MOL0     C31653  10.827   6.312   2.019 -0.1917  0.2389 -0.5793
  976MOL0     C31654  10.689   6.354   2.010  0.4284 -1.0293 -0.1946
  976MOL0     O31655  10.581   6.268   2.031  0.4748 -0.0848 -0.3421
  976MOL0     C31656  10.456   6.315   2.013  0.6782 -1.0851 -0.0750
  976MOL0     C31657  10.369   6.246   1.930  0.2226  0.0568 -0.5800
  976MOL0     C31658  10.244   6.299   1.913 -0.0697 -0.4015 -0.0550
  976MOL0     C31659  10.205   6.417   1.978  0.3183  0.4503 -0.2273
  976MOL0     O31660  10.087   6.478   1.930  0.1472  0.1306 -0.5680
  976MOL0     C31661  10.001   6.532   2.034 -0.2537 -0.2315 -0.4261
  976MOL0     C31662   9.906   6.430   2.086  0.2631  0.2894 -1.0907
  976MOL0     C31663   9.815   6.364   1.980 -0.5454 -0.2992  0.1291
  976MOL0     C31664   9.709   6.270   2.046  0.4188  2.0054 -0.3751
  976MOL0     C31665   9.615   6.207   1.941 -0.2091 -0.2970 -0.9290
  976MOL0     C31666   9.518   6.094   1.984 -0.1822 -0.1528  0.1675
  976MOL0     C31667   9.430   6.134   2.110  0.4720 -0.1368  0.2677
  976MOL0     C31668   9.324   6.033   2.131  0.5991 -0.0784  0.0018
  976MOL0    Cl31669   9.404   5.889   2.187 -0.3317 -0.5442  0.1262
  976MOL0     C31670  10.293   6.482   2.071 -0.0070 -0.3502  0.2469
  976MOL0     C31671  10.412   6.429   2.092 -0.2265  0.5253 -0.1167
  976MOL0     O31672  10.679   6.478   2.003 -0.5665  0.5656 -0.4643
  976MOL0     C31673  10.935   6.375   1.961 -0.0605 -0.4823 -0.1321
  976MOL0     C31674  11.055   6.315   1.953 -0.4695 -0.0464 -0.7286
  976MOL0     N31675  11.722   5.911   1.834  0.6034 -0.3615 -0.4383
  976MOL0     N31676  11.808   5.976   1.761 -1.4629 -0.2362  0.7665
  976MOL0     C31677  11.236   6.747   1.024 -0.2858 -0.7618 -0.1368
  976MOL0     C31678  11.197   6.788   0.896 -0.2999 -0.6164 -0.2041
  976MOL0     C31679  11.185   6.852   0.443 -1.5122  1.0365 -0.1173
  976MOL0     C31680  11.075   6.795   0.369 -0.3292 -0.1589 -0.6363
  976MOL0     C31681  11.062   6.816   0.235  1.4806  0.3638 -0.0035
  976MOL0     C31682  11.155   6.891   0.172 -0.8163  0.0075  0.0717
  976MOL0     O31683  11.144   6.915   0.034  0.1936  0.4048  0.5676
  976MOL0     C31684  11.164   6.805  -0.065 -0.8456 -0.2927 -0.3864
  976MOL0     C31685  11.088   6.832  -0.188  0.1333 -0.7958  0.7580
  976MOL0     C31686  10.943   6.810  -0.178 -0.8531  1.1966  0.5043
  976MOL0     C31687  10.868   6.880  -0.294 -0.6400  0.5533  0.6613
  976MOL0     C31688  10.876   6.811  -0.423 -0.1479  0.2116 -0.9746
  976MOL0     C31689  10.866   6.750  -0.525  0.0768 -0.2091  0.2735
  976MOL0     C31690  11.267   6.946   0.239  0.6093  1.1531 -0.0142
  976MOL0     C31691  11.278   6.936   0.378  0.5281  0.2901  0.1364
  976MOL0     C31692  11.393   7.019   0.440  0.3843  0.4371  1.3800
  976MOL0     H31693  11.499   6.875   0.768 -1.7957  1.6667 -2.8207
  976MOL0     H31694  11.572   6.783   0.996  1.2122 -2.7247 -2.2416
  976MOL0     H31695  11.602   6.612   1.129 -3.7115  0.0520 -1.0122
  976MOL0     H31696  11.594   6.743   1.254  0.8471  0.6679 -1.4442
  976MOL0     H31697  11.486   6.458   1.308  0.0308  0.0694 -0.1189
  976MOL0     H31698  11.465   6.601   1.415 -0.0596 -0.4776 -0.1953
  976MOL0     H31699  11.712   6.614   1.425  0.8135 -0.8753 -0.2390
  976MOL0     H31700  11.725   6.470   1.323  1.1570  1.1226  0.3195
  976MOL0     H31701  11.569   6.466   1.584 -0.8402 -0.2334 -0.8323
  976MOL0     H31702  11.598   6.334   1.478 -0.1880 -0.4568  1.3184
  976MOL0     H31703  11.836   6.350   1.511  1.0723  1.2073 -0.3909
  976MOL0     H31704  11.829   6.495   1.600 -3.2899  2.4491 -1.0695
  976MOL0     H31705  11.655   6.396   1.762 -0.6776 -0.8324 -1.4237
  976MOL0     H31706  11.685   6.240   1.684 -1.2191  0.4014  1.4860
  976MOL0     H31707  11.821   6.324   1.905 -0.4485 -3.4841 -0.9726
  976MOL0     H31708  11.918   6.406   1.783 -0.0738 -0.3233  0.7303
  976MOL0     H31709  11.945   6.176   1.672  0.2667 -0.3046  0.5455
  976MOL0     H31710  12.033   6.185   1.815 -1.6911 -2.6128  3.8843
  976MOL0     H31711  11.794   6.157   2.028 -4.0283  0.1713 -0.3574
  976MOL0     H31712  11.556   5.858   2.043  2.7950 -0.9671  0.9722
  976MOL0     H31713  11.648   5.933   2.164 -0.3986 -0.4985  0.8200
  976MOL0     H31714  11.431   6.033   2.146  2.2950 -0.4790  2.3847
  976MOL0     H31715  11.553   6.144   2.093 -0.5344 -0.9311 -0.8026
  976MOL0     H31716  11.396   5.993   1.882  1.5661 -1.5352  2.1769
  976MOL0     H31717  11.504   6.140   1.862 -1.5846  4.0563  2.3258
  976MOL0     H31718  11.294   6.233   1.847 -3.1442  1.1834  1.7237
  976MOL0     H31719  11.339   6.266   2.005 -0.4231  3.0776 -3.6040
  976MOL0     H31720  10.983   6.033   2.145 -4.8522 -0.0706  0.0652
  976MOL0     H31721  10.766   6.138   2.136 -0.2672  0.3282  1.0062
  976MOL0     H31722  10.408   6.157   1.882 -0.0906 -0.9196  0.8956
  976MOL0     H31723  10.163   6.255   1.857 -0.0343  1.2501 -1.5172
  976MOL0     H31724  10.043   6.579   2.123  0.5197 -1.4816 -0.1142
  976MOL0     H31725   9.941   6.608   1.983 -0.2531 -1.9951 -3.2857
  976MOL0     H31726   9.961   6.349   2.136 -1.3231  0.9342  1.8461
  976MOL0     H31727   9.845   6.478   2.162  1.0795 -0.1746 -0.1268
  976MOL0     H31728   9.776   6.442   1.915  1.3874  0.2308 -0.4881
  976MOL0     H31729   9.885   6.306   1.918 -1.6108 -1.4137 -0.0540
  976MOL0     H31730   9.648   6.318   2.123 -1.2919  0.4211 -0.6862
  976MOL0     H31731   9.757   6.189   2.101  0.0460  0.6420 -1.9749
  976MOL0     H31732   9.676   6.179   1.855  0.7364  0.8968 -0.6816
  976MOL0     H31733   9.550   6.285   1.899 -0.2964 -0.6791 -1.5015
  976MOL0     H31734   9.456   6.064   1.900  3.5774 -2.2515 -2.1146
  976MOL0     H31735   9.577   6.005   2.007  0.8373 -0.3479 -2.8185
  976MOL0     H31736   9.393   6.235   2.094  0.6737 -0.0730  0.2088
  976MOL0     H31737   9.486   6.145   2.203 -0.8686 -0.0916  1.1067
  976MOL0     H31738   9.264   6.073   2.214  1.2205 -1.2343  1.0257
  976MOL0     H31739   9.260   6.019   2.043 -1.6900  2.2724  1.1463
  976MOL0     H31740  10.256   6.575   2.111 -1.0475 -1.2491  1.4648
  976MOL0     H31741  10.486   6.464   2.164  4.7351 -3.3384 -2.7175
  976MOL0     H31742  10.922   6.472   1.915 -0.0769 -0.6901 -0.5793
  976MOL0     H31743  11.128   6.371   1.896 -0.2649 -0.8617 -1.2747
  976MOL0     H31744  11.160   6.713   1.093 -1.8686  0.6298 -1.1256
  976MOL0     H31745  11.090   6.775   0.884 -0.0296 -1.8592 -1.4797
  976MOL0     H31746  11.002   6.723   0.405 -2.3517  0.8504 -2.4924
  976MOL0     H31747  10.981   6.769   0.180  1.0991 -0.0982  0.9347
  976MOL0     H31748  11.133   6.703  -0.040 -2.2851  0.1653 -0.2082
  976MOL0     H31749  11.269   6.807  -0.095 -1.4068 -0.1617 -2.5052
  976MOL0     H31750  11.130   6.765  -0.263 -2.3699 -3.9641  1.9139
  976MOL0     H31751  11.094   6.937  -0.219  0.6425 -0.7362  1.0528
  976MOL0     H31752  10.904   6.846  -0.083 -0.0486  1.1126  0.8733
  976MOL0     H31753  10.919   6.703  -0.187  6.9442 -1.3871  2.6773
  976MOL0     H31754  10.763   6.876  -0.265 -1.3936 -0.4644 -1.9920
  976MOL0     H31755  10.893   6.986  -0.303  2.1626 -0.1540 -0.9356
  976MOL0     H31756  10.863   6.714  -0.625 -2.1612 -0.7404  0.4617
  976MOL0     H31757  11.337   7.009   0.186 -0.6040  1.1068 -1.7378
  976MOL0     H31758  11.466   6.954   0.490 -2.7149 -3.1561  1.7377
  976MOL0     H31759  11.443   7.085   0.369 -0.5131 -1.1721 -0.8568
  976MOL0     H31760  11.342   7.079   0.517 -2.2405 -1.0773  0.9593
  977MOL0     O31761  11.021   0.464   0.241  0.2996  0.2933 -0.0513
  977MOL0     C31762  10.928   0.534   0.273  0.1224 -0.2570 -0.0287
  977MOL0     O31763  10.938   0.658   0.315 -0.5616  0.2032  0.0506
  977MOL0     C31764  11.067   0.705   0.343 -0.4374  0.4374  0.1759
  977MOL0     C31765  11.086   0.757   0.470 -0.2900 -0.3525  0.8429
  977MOL0     C31766  11.202   0.833   0.502 -0.0821  0.7194  0.1180
  977MOL0     C31767  11.296   0.862   0.407  0.5761  0.5977  0.5352
  977MOL0     O31768  11.404   0.945   0.421 -0.0853 -0.4617  0.1580
  977MOL0     C31769  11.430   0.992   0.554  0.3767  0.0443 -0.2254
  977MOL0     C31770  11.569   1.069   0.546 -0.3009 -0.0592 -0.1671
  977MOL0     C31771  11.613   1.122   0.687 -0.4868  0.7343  0.8542
  977MOL0     C31772  11.754   1.191   0.676 -0.1535  0.2322 -0.1132
  977MOL0     C31773  11.821   1.199   0.816  0.5892  0.2795 -0.1502
  977MOL0     C31774  11.948   1.272   0.796  0.6900 -0.2573  0.0427
  977MOL0     C31775  12.034   1.244   0.916 -0.2593 -0.6198  1.2873
  977MOL0     C31776  12.091   1.098   0.920  0.5608  0.3499 -0.1972
  977MOL0     N31777  12.239   1.105   0.935  0.0556  0.0611  0.2306
  977MOL0     C31778  12.326   1.163   0.846  0.2248  0.7473 -0.5367
  977MOL0     C31779  12.449   1.112   0.886  0.2387  0.1633 -0.9146
  977MOL0     C31780  12.588   1.156   0.835  0.3733  0.1629 -0.1082
  977MOL0     C31781  12.688   1.178   0.945  0.2232 -1.0313  0.6742
  977MOL0     C31782  12.791   1.294   0.917  0.2470 -0.7367 -0.0017
  977MOL0     C31783  12.905   1.233   0.854 -0.6968 -0.3046  0.6636
  977MOL0     O31784  12.950   1.343   0.768 -0.3404  0.0453  0.3337
  977MOL0     C31785  13.064   1.332   0.702  0.5053 -0.0218  0.0268
  977MOL0     C31786  13.149   1.221   0.703  0.5039 -0.5674  0.4913
  977MOL0     C31787  13.267   1.222   0.638  0.8423  0.4432  0.7175
  977MOL0     C31788  13.313   1.332   0.560 -0.4190 -0.4685  0.6637
  977MOL0     C31789  13.444   1.326   0.492 -0.2869 -0.4036 -0.5726
  977MOL0     O31790  13.548   1.251   0.549 -0.3211 -0.1635 -0.2240
  977MOL0     C31791  13.673   1.264   0.490 -0.8758  0.1976  0.1695
  977MOL0     C31792  13.703   1.260   0.350  0.3416 -0.2202 -0.2928
  977MOL0     C31793  13.831   1.283   0.311 -0.7572  0.4294  0.0693
  977MOL0     C31794  13.942   1.284   0.392  0.5091 -0.0861  0.0200
  977MOL0     O31795  14.073   1.284   0.351  0.4742 -0.0316 -0.3661
  977MOL0     C31796  14.101   1.400   0.261  0.7430 -0.5718 -0.1833
  977MOL0     C31797  14.146   1.524   0.333  0.1704 -0.5701  0.2102
  977MOL0     C31798  14.198   1.634   0.233 -1.1809 -0.3014  0.3739
  977MOL0     C31799  14.233   1.762   0.307  0.5523  0.1646  0.4528
  977MOL0     C31800  14.294   1.871   0.216 -0.5187 -0.0867  0.1046
  977MOL0     C31801  14.336   1.993   0.302  0.2688  0.0562  0.0168
  977MOL0     C31802  14.391   2.117   0.220  1.1551  0.8221  0.2214
  977MOL0     C31803  14.430   2.242   0.293 -0.2931 -0.6428 -0.1995
  977MOL0    Cl31804  14.558   2.196   0.402 -0.4288 -0.0732 -0.0780
  977MOL0     C31805  13.922   1.272   0.528 -0.1787  0.0583  0.4682
  977MOL0     C31806  13.788   1.262   0.579  0.0239 -0.1158  1.3949
  977MOL0     O31807  13.453   1.417   0.412  0.6110 -1.3042  0.4249
  977MOL0     C31808  13.228   1.445   0.549  0.0060  1.1463  0.2247
  977MOL0     C31809  13.105   1.441   0.623  0.0977  0.3830  0.2681
  977MOL0     N31810  12.428   1.040   1.002  0.1413  0.7287 -0.0872
  977MOL0     N31811  12.306   1.022   1.022 -0.1523  0.0947 -0.0135
  977MOL0     C31812  11.284   0.791   0.290 -0.5511 -0.1270 -1.4370
  977MOL0     C31813  11.174   0.719   0.255 -0.3770 -0.2575  1.2254
  977MOL0     C31814  10.792   0.484   0.263 -1.2570 -0.7317 -0.2160
  977MOL0     C31815  10.697   0.523   0.357 -0.5724  0.0580 -0.4031
  977MOL0     C31816  10.569   0.465   0.359 -1.3721 -0.0836 -0.4087
  977MOL0     C31817  10.529   0.398   0.250  0.6988 -0.1749 -0.5585
  977MOL0     O31818  10.392   0.379   0.260  0.1404  0.0044 -0.3026
  977MOL0     C31819  10.328   0.308   0.149  0.2577  0.4396 -1.1502
  977MOL0     C31820  10.186   0.343   0.157 -0.3818 -0.4008  0.0135
  977MOL0     C31821  10.100   0.298   0.035  0.3407 -0.4722 -0.5436
  977MOL0     C31822  10.002   0.191   0.068  0.0456 -0.1425  0.1872
  977MOL0     C31823   9.913   0.155  -0.049 -0.3472 -0.7794 -0.5022
  977MOL0     C31824   9.843   0.107  -0.136  0.0872  0.0839 -0.5888
  977MOL0     C31825  10.610   0.367   0.145 -0.7810 -0.0494 -0.5018
  977MOL0     C31826  10.751   0.407   0.155  0.5461 -0.1386  0.2857
  977MOL0     C31827  10.845   0.364   0.042  0.6951 -0.3293  0.4720
  977MOL0     H31828  11.022   0.720   0.549  0.3067  1.1756  2.0915
  977MOL0     H31829  11.201   0.872   0.603 -3.6730  0.6103  0.2383
  977MOL0     H31830  11.362   1.060   0.604  2.4523  0.4054  2.3406
  977MOL0     H31831  11.425   0.911   0.628 -0.5903  1.1737  0.9901
  977MOL0     H31832  11.565   1.160   0.486 -0.2815  0.4146  0.5383
  977MOL0     H31833  11.649   1.004   0.510  1.3587  1.4613  0.5906
  977MOL0     H31834  11.630   1.033   0.747  2.2405  0.9022  0.4572
  977MOL0     H31835  11.552   1.199   0.734  0.2472  1.0254  1.3517
  977MOL0     H31836  11.822   1.135   0.610  1.3257  1.8455 -0.0221
  977MOL0     H31837  11.743   1.287   0.626  0.0827 -0.8099 -2.2751
  977MOL0     H31838  11.758   1.246   0.891 -0.1279  0.3484 -0.7838
  977MOL0     H31839  11.837   1.097   0.853 -0.4917  0.1184 -0.0961
  977MOL0     H31840  11.991   1.239   0.701  1.1235 -0.0708  0.1730
  977MOL0     H31841  11.931   1.380   0.785 -1.3214 -0.2873  2.0529
  977MOL0     H31842  11.981   1.274   1.007 -1.7906  1.1376 -0.1136
  977MOL0     H31843  12.123   1.307   0.911  0.3656 -1.2845  3.3031
  977MOL0     H31844  12.039   1.037   0.994  0.1719  0.5030 -0.3364
  977MOL0     H31845  12.069   1.048   0.825 -2.5526 -0.2460  0.7246
  977MOL0     H31846  12.317   1.228   0.760 -0.7401  1.1942 -0.1152
  977MOL0     H31847  12.623   1.093   0.753  1.5083  0.0154  0.4708
  977MOL0     H31848  12.574   1.252   0.785  0.7135  0.8504  1.0645
  977MOL0     H31849  12.640   1.205   1.039  3.3430 -1.8453  2.6187
  977MOL0     H31850  12.738   1.081   0.952  0.2153 -1.0730  0.2306
  977MOL0     H31851  12.834   1.349   1.002 -1.7669  0.3860  0.3617
  977MOL0     H31852  12.740   1.370   0.856  0.3333  0.7018  1.6183
  977MOL0     H31853  12.881   1.150   0.787  0.1117  0.7685 -1.0394
  977MOL0     H31854  12.977   1.198   0.928 -2.4609 -1.8125  1.7394
  977MOL0     H31855  13.125   1.128   0.754 -1.6401 -1.1660 -1.4221
  977MOL0     H31856  13.319   1.126   0.640 -1.3082 -0.9578 -2.3323
  977MOL0     H31857  13.624   1.260   0.275  1.5326 -1.9308 -1.6082
  977MOL0     H31858  13.856   1.283   0.205 -1.1788 -0.4563 -0.0311
  977MOL0     H31859  14.175   1.358   0.192 -0.4093 -4.6586  0.7839
  977MOL0     H31860  14.012   1.423   0.202 -0.8560  1.9889  2.9457
  977MOL0     H31861  14.052   1.556   0.379 -0.7233 -3.6992  0.8208
  977MOL0     H31862  14.224   1.502   0.406  2.1163 -1.3840 -1.9801
  977MOL0     H31863  14.280   1.582   0.182 -1.5863 -2.3763  1.7559
  977MOL0     H31864  14.119   1.649   0.158 -0.7929 -0.8460 -0.1593
  977MOL0     H31865  14.307   1.758   0.388  0.1799  2.5535  0.9885
  977MOL0     H31866  14.138   1.799   0.346  0.3344  1.3137 -1.0723
  977MOL0     H31867  14.214   1.900   0.147  1.2225  2.4436 -1.0149
  977MOL0     H31868  14.383   1.843   0.160 -0.9202 -0.0570 -0.5674
  977MOL0     H31869  14.261   2.040   0.366 -0.6283  0.5156 -1.3475
  977MOL0     H31870  14.419   1.957   0.364 -0.5153 -0.4592  0.8052
  977MOL0     H31871  14.314   2.149   0.149 -0.0798  1.4803  1.7976
  977MOL0     H31872  14.473   2.081   0.158 -0.9648  0.4402 -2.5901
  977MOL0     H31873  14.483   2.316   0.231  2.9262 -1.6811  1.0763
  977MOL0     H31874  14.342   2.290   0.337 -0.6370  1.5004 -2.8921
  977MOL0     H31875  14.008   1.269   0.594 -1.9556  0.8538  2.9631
  977MOL0     H31876  13.770   1.255   0.685  2.2817 -0.3555  1.8089
  977MOL0     H31877  13.257   1.539   0.502 -0.7769  0.8205 -0.9524
  977MOL0     H31878  13.029   1.518   0.612  0.9200  1.4921  1.8638
  977MOL0     H31879  11.361   0.804   0.214  1.6284 -0.2682  0.6256
  977MOL0     H31880  11.178   0.679   0.154  1.1921  0.8447  0.8089
  977MOL0     H31881  10.736   0.580   0.441  2.8451 -3.9163  1.0498
  977MOL0     H31882  10.510   0.471   0.450  2.9229  0.9632  2.5789
  977MOL0     H31883  10.340   0.200   0.139 -3.2117 -0.7000  3.5304
  977MOL0     H31884  10.359   0.355   0.055  0.0465 -1.2885 -2.1146
  977MOL0     H31885  10.183   0.452   0.158 -0.6336 -0.4077  0.2200
  977MOL0     H31886  10.138   0.300   0.246 -0.0555 -1.1789 -0.1758
  977MOL0     H31887  10.172   0.266  -0.041 -0.7480 -1.1573 -1.3112
  977MOL0     H31888  10.057   0.389  -0.009 -1.2963  0.0772  2.0049
  977MOL0     H31889  10.054   0.096   0.085  1.3789  0.4029 -0.6954
  977MOL0     H31890   9.943   0.217   0.156  1.9648 -0.8792  1.7777
  977MOL0     H31891   9.786   0.061  -0.214  2.0561 -0.9661 -1.4980
  977MOL0     H31892  10.583   0.312   0.056 -0.6540 -0.0900 -0.5157
  977MOL0     H31893  10.919   0.441   0.020  1.3172 -0.6867  1.2640
  977MOL0     H31894  10.901   0.274   0.072  3.1610  0.9218 -0.1217
  977MOL0     H31895  10.789   0.343  -0.050 -0.8578 -3.2372  1.9179
  978MOL0     O31896  10.883   9.592   8.875 -0.5102 -0.3296  0.5539
  978MOL0     C31897  10.866   9.669   8.968  0.3112  0.8091 -0.8058
  978MOL0     O31898  10.958   9.738   9.030  0.2844 -0.2016 -0.3199
  978MOL0     C31899  11.089   9.715   8.986  0.8134 -0.6110 -0.2522
  978MOL0     C31900  11.157   9.608   9.033  0.3972 -0.1530 -0.5291
  978MOL0     C31901  11.285   9.582   8.989 -0.2681 -0.2676  0.1377
  978MOL0     C31902  11.343   9.650   8.887  0.2749  0.3921  0.6109
  978MOL0     O31903  11.465   9.629   8.841 -0.8178  0.2302 -0.0750
  978MOL0     C31904  11.574   9.615   8.936  0.8476 -0.3840 -0.0375
  978MOL0     C31905  11.700   9.635   8.858 -0.4800 -0.4255  0.4672
  978MOL0     C31906  11.759   9.502   8.809  0.1202 -0.2056 -0.0899
  978MOL0     C31907  11.912   9.516   8.786  0.1136  0.4223  0.6898
  978MOL0     C31908  11.983   9.404   8.712  1.0732 -0.4123 -0.3987
  978MOL0     C31909  12.135   9.424   8.694 -1.1203  0.3297  0.3248
  978MOL0     C31910  12.196   9.301   8.625 -0.0099  0.3851 -0.1364
  978MOL0     C31911  12.241   9.197   8.725 -0.1250 -0.0952 -0.1998
  978MOL0     N31912  12.358   9.126   8.675 -0.1719 -0.7920 -0.3107
  978MOL0     C31913  12.363   9.043   8.568  0.0299 -0.2119 -0.9682
  978MOL0     C31914  12.500   9.017   8.552 -0.2190 -0.4837  0.2433
  978MOL0     C31915  12.553   8.944   8.432  0.0254  0.1973 -0.7116
  978MOL0     C31916  12.482   8.822   8.396 -0.1001  0.7366  0.2427
  978MOL0     C31917  12.542   8.756   8.270 -0.1474  0.2387 -0.4747
  978MOL0     C31918  12.475   8.627   8.241 -0.3199  0.2202  0.8047
  978MOL0     O31919  12.337   8.647   8.216  0.5514  0.1925 -0.0393
  978MOL0     C31920  12.259   8.530   8.189 -0.7571  0.5844  0.3212
  978MOL0     C31921  12.319   8.418   8.120  0.3894  0.1990 -0.5979
  978MOL0     C31922  12.247   8.301   8.092 -0.5384  0.7808  0.1401
  978MOL0     C31923  12.109   8.287   8.128 -0.1983 -0.2462  0.6552
  978MOL0     C31924  12.039   8.155   8.125  0.2411 -0.7352 -0.2022
  978MOL0     O31925  11.912   8.168   8.142  0.1055 -0.0820 -0.6448
  978MOL0     C31926  11.814   8.101   8.091  0.2439  0.3258 -0.6624
  978MOL0     C31927  11.684   8.140   8.125  0.4051  0.2541 -0.3379
  978MOL0     C31928  11.569   8.070   8.077 -0.0231 -0.3876 -0.2967
  978MOL0     C31929  11.588   7.958   7.992 -0.0648 -0.5985 -0.0816
  978MOL0     O31930  11.484   7.887   7.937 -0.0653  0.8887 -0.3605
  978MOL0     C31931  11.387   7.841   8.026 -0.3135  0.5148 -0.1888
  978MOL0     C31932  11.316   7.722   7.959 -0.1570 -0.0775  0.2923
  978MOL0     C31933  11.278   7.764   7.816  0.7234  0.1123 -0.0619
  978MOL0     C31934  11.154   7.697   7.759  1.2974 -0.3482  0.6130
  978MOL0     C31935  11.112   7.736   7.609 -0.0142 -0.1224  0.0917
  978MOL0     C31936  11.106   7.884   7.569 -0.0124  0.3436 -0.1050
  978MOL0     C31937  10.993   7.962   7.642  0.2900 -0.1505  0.7123
  978MOL0     C31938  10.979   8.101   7.589 -0.0761  0.2324 -0.2791
  978MOL0    Cl31939  11.132   8.196   7.611  0.0513 -0.3289 -0.4982
  978MOL0     C31940  11.717   7.925   7.953 -0.1178  0.2660  0.4243
  978MOL0     C31941  11.824   7.996   8.002  0.1333  1.4177 -0.3311
  978MOL0     O31942  12.104   8.053   8.101 -0.1021 -0.6137 -0.3367
  978MOL0     C31943  12.050   8.408   8.189  0.3779  0.1023  1.0278
  978MOL0     C31944  12.125   8.525   8.208  0.0944  0.1806 -0.4655
  978MOL0     N31945  12.570   9.089   8.648 -0.5653 -0.4851 -0.6598
  978MOL0     N31946  12.484   9.144   8.721  0.0574 -0.2198  0.0623
  978MOL0     C31947  11.269   9.759   8.832 -0.5962 -0.0800 -0.5972
  978MOL0     C31948  11.148   9.794   8.888  1.2159  0.2011 -0.7218
  978MOL0     C31949  10.733   9.634   9.052  0.1484 -0.3225 -0.2629
  978MOL0     C31950  10.734   9.631   9.193  0.6246 -0.1207  0.1832
  978MOL0     C31951  10.614   9.614   9.270 -0.2155 -0.4773 -0.5052
  978MOL0     C31952  10.494   9.584   9.206 -0.2150  0.3453 -0.0594
  978MOL0     O31953  10.370   9.547   9.275  0.2100 -0.4088 -0.2111
  978MOL0     C31954  10.373   9.540   9.420 -0.6360 -0.6791  1.0713
  978MOL0     C31955  10.278   9.427   9.455 -0.7818  0.6403  0.1802
  978MOL0     C31956  10.282   9.385   9.601  0.0637 -0.0671 -0.7114
  978MOL0     C31957  10.259   9.228   9.624 -0.4972 -0.0464  0.9259
  978MOL0     C31958  10.183   9.198   9.741 -0.0551  0.6188 -0.2133
  978MOL0     C31959  10.115   9.164   9.838  0.0700 -0.5541  0.2175
  978MOL0     C31960  10.501   9.574   9.065 -1.4584  0.2745  0.3555
  978MOL0     C31961  10.611   9.600   8.987 -0.6995 -0.1797 -1.2581
  978MOL0     C31962  10.576   9.606   8.843  0.1285  0.3100 -1.0320
  978MOL0     H31963  11.114   9.562   9.121 -2.1663  2.5716 -0.1907
  978MOL0     H31964  11.338   9.500   9.035  0.9122 -0.4098 -1.3978
  978MOL0     H31965  11.557   9.693   9.011  0.0630 -0.5587 -0.0273
  978MOL0     H31966  11.567   9.516   8.982  0.0948  0.2730  1.3369
  978MOL0     H31967  11.767   9.699   8.917  0.0470 -0.5544  0.0234
  978MOL0     H31968  11.686   9.701   8.771  0.1311  1.9112  2.0574
  978MOL0     H31969  11.700   9.471   8.723 -0.9972 -1.6234  1.1341
  978MOL0     H31970  11.748   9.422   8.883  0.9988  0.4831  0.8194
  978MOL0     H31971  11.934   9.599   8.718  2.4321 -1.3439 -0.8646
  978MOL0     H31972  11.964   9.531   8.881  0.2944 -0.6379  0.7701
  978MOL0     H31973  11.973   9.305   8.757  5.3559 -0.2147  1.4450
  978MOL0     H31974  11.943   9.400   8.610  0.6579 -1.7393 -0.1987
  978MOL0     H31975  12.147   9.504   8.621 -1.2405 -2.1705 -2.6614
  978MOL0     H31976  12.190   9.456   8.783 -1.1070  1.2320 -0.0037
  978MOL0     H31977  12.287   9.342   8.579 -0.9921 -0.4036 -2.9899
  978MOL0     H31978  12.125   9.256   8.554  0.4653 -1.0137  0.2595
  978MOL0     H31979  12.275   9.247   8.816 -0.7644  0.1713 -0.1017
  978MOL0     H31980  12.154   9.137   8.753 -1.0485  0.8473 -0.9675
  978MOL0     H31981  12.278   9.002   8.514  1.3468 -5.5021  0.3732
  978MOL0     H31982  12.564   9.017   8.352  0.7598  0.1145 -0.6911
  978MOL0     H31983  12.655   8.917   8.460 -0.3691  0.7546  1.4007
  978MOL0     H31984  12.502   8.751   8.477 -1.0175  2.1803  1.8200
  978MOL0     H31985  12.373   8.832   8.384 -0.1653  0.1385  0.3021
  978MOL0     H31986  12.648   8.738   8.285 -0.2691  1.1654  2.1833
  978MOL0     H31987  12.521   8.829   8.191  0.6616  1.2545  0.2126
  978MOL0     H31988  12.498   8.563   8.327  0.7490  0.5975  0.8085
  978MOL0     H31989  12.525   8.583   8.155 -1.6958 -1.1852  0.6772
  978MOL0     H31990  12.424   8.422   8.094  1.0054 -6.4591 -0.7983
  978MOL0     H31991  12.298   8.233   8.026  1.1627  3.7726 -1.8782
  978MOL0     H31992  11.668   8.225   8.191 -1.4673 -0.7976  0.6707
  978MOL0     H31993  11.465   8.099   8.079 -0.4924 -1.9500 -0.6700
  978MOL0     H31994  11.437   7.812   8.120 -1.4702 -1.9685 -0.2495
  978MOL0     H31995  11.312   7.916   8.052 -1.1914 -0.3630 -0.1360
  978MOL0     H31996  11.369   7.627   7.960  0.6682  0.3370 -0.8189
  978MOL0     H31997  11.219   7.706   8.006 -1.8722  3.4536 -1.6149
  978MOL0     H31998  11.250   7.869   7.801 -2.3648 -0.5239  0.5635
  978MOL0     H31999  11.369   7.740   7.761  1.0358  1.1198 -0.0009
  978MOL0     H32000  11.066   7.725   7.818  0.1257 -0.8090 -0.8716
  978MOL0     H32001  11.182   7.593   7.780 -1.7289 -1.0619  1.4974
  978MOL0     H32002  11.018   7.690   7.577  0.1319  1.8135 -3.5809
  978MOL0     H32003  11.183   7.687   7.543 -3.2823 -1.0799 -3.0454
  978MOL0     H32004  11.210   7.918   7.572 -0.1882  0.8318  0.9726
  978MOL0     H32005  11.080   7.891   7.463 -1.5301 -0.0084  0.2200
  978MOL0     H32006  11.009   7.955   7.750 -0.2786  0.3409  0.8356
  978MOL0     H32007  10.891   7.937   7.613  0.1940  1.1876 -0.2330
  978MOL0     H32008  10.933   8.097   7.490 -3.4388 -1.1787  1.1687
  978MOL0     H32009  10.911   8.155   7.654  1.9509  0.6648  1.6071
  978MOL0     H32010  11.735   7.847   7.880  1.6413 -0.6344  1.7533
  978MOL0     H32011  11.925   7.967   7.974  0.9725  0.9189  2.8285
  978MOL0     H32012  11.946   8.398   8.220  0.1092 -0.8539 -0.1145
  978MOL0     H32013  12.087   8.615   8.257  0.3937  0.3162 -0.4793
  978MOL0     H32014  11.325   9.816   8.759  0.9099  0.0918  0.6447
  978MOL0     H32015  11.098   9.879   8.843 -0.2513  0.6545  1.6159
  978MOL0     H32016  10.816   9.675   9.249 -0.6616  2.0659  0.4779
  978MOL0     H32017  10.615   9.633   9.377 -2.9052  0.0609 -0.5003
  978MOL0     H32018  10.341   9.630   9.474  0.1730 -0.1231  0.6593
  978MOL0     H32019  10.476   9.511   9.443  0.0820  2.7729  3.0097
  978MOL0     H32020  10.282   9.336   9.395  0.4593  0.1984  0.9105
  978MOL0     H32021  10.179   9.465   9.427  0.7198  2.2185 -3.8256
  978MOL0     H32022  10.214   9.455   9.651 -0.5490  0.2452 -1.9515
  978MOL0     H32023  10.384   9.410   9.633  0.8603 -0.8131 -2.5066
  978MOL0     H32024  10.205   9.198   9.533 -2.5136  2.3163  1.2142
  978MOL0     H32025  10.354   9.176   9.637  0.8897  2.5298  1.8313
  978MOL0     H32026  10.066   9.120   9.922  0.5039 -0.4753  0.5147
  978MOL0     H32027  10.417   9.516   9.027 -0.1751 -1.2613 -0.2874
  978MOL0     H32028  10.470   9.584   8.833 -0.0285 -1.2856  2.7263
  978MOL0     H32029  10.604   9.697   8.789 -2.7326  1.2201 -1.1494
  978MOL0     H32030  10.625   9.522   8.794  3.7258  2.0728 -0.7888
  979MOL0     O32031   2.799   6.712   4.380  0.8171  0.5349  0.8049
  979MOL0     C32032   2.824   6.811   4.315 -0.1415  0.7921  1.2604
  979MOL0     O32033   2.757   6.927   4.333 -0.2623  0.2889 -0.2061
  979MOL0     C32034   2.623   6.921   4.360 -0.0017 -0.5302 -0.2907
  979MOL0     C32035   2.573   7.018   4.443 -0.1026  0.1035 -0.2229
  979MOL0     C32036   2.439   7.023   4.475  0.0357 -0.7555  0.7770
  979MOL0     C32037   2.340   6.937   4.424 -0.2409 -0.2568  0.0098
  979MOL0     O32038   2.207   6.941   4.437  0.2252 -0.1310  0.6480
  979MOL0     C32039   2.149   7.062   4.492 -0.2590 -0.6353 -0.0971
  979MOL0     C32040   2.010   7.073   4.453  0.1824 -0.2323 -0.3802
  979MOL0     C32041   1.920   6.954   4.493 -0.4656  0.3199 -0.0764
  979MOL0     C32042   1.772   6.983   4.466  0.1067 -0.2199  0.0111
  979MOL0     C32043   1.682   6.863   4.482 -0.6271 -0.3681  0.6021
  979MOL0     C32044   1.534   6.914   4.493 -0.3245 -0.5432 -0.1801
  979MOL0     C32045   1.431   6.791   4.493  0.0461  0.0620 -0.3966
  979MOL0     C32046   1.289   6.844   4.470  0.1722  0.0337  0.4578
  979MOL0     N32047   1.194   6.734   4.455 -0.7353  0.1078  0.7098
  979MOL0     C32048   1.107   6.692   4.550  0.2384 -0.1928  0.0846
  979MOL0     C32049   1.046   6.599   4.486  1.0223 -0.3216 -0.5623
  979MOL0     C32050   0.921   6.538   4.544  0.1813 -0.4622 -0.9847
  979MOL0     C32051   0.940   6.398   4.616 -0.7939 -0.7702  0.9298
  979MOL0     C32052   1.070   6.324   4.603  0.6476 -0.3386 -0.1207
  979MOL0     C32053   1.177   6.372   4.697 -0.3994 -0.2712  0.0914
  979MOL0     O32054   1.294   6.287   4.691 -0.0719 -0.3883  0.2667
  979MOL0     C32055   1.406   6.324   4.623 -0.5945 -0.3874  0.5333
  979MOL0     C32056   1.522   6.243   4.626  0.3481  0.8434 -0.5003
  979MOL0     C32057   1.627   6.247   4.538  0.4665 -1.1692 -0.7461
  979MOL0     C32058   1.642   6.354   4.444 -0.1559 -0.6259 -0.4235
  979MOL0     C32059   1.761   6.354   4.351  0.2988  1.0995 -0.0195
  979MOL0     O32060   1.749   6.430   4.242  0.2834  0.6235 -0.2104
  979MOL0     C32061   1.834   6.449   4.141  0.4611  0.7693  1.6435
  979MOL0     C32062   1.778   6.499   4.022  0.5994  0.8058 -1.0997
  979MOL0     C32063   1.859   6.524   3.913 -0.3215  1.0931 -0.9952
  979MOL0     C32064   1.999   6.516   3.920  0.3470  0.7889  0.9436
  979MOL0     O32065   2.079   6.567   3.823 -0.4250  0.0143 -0.1844
  979MOL0     C32066   2.033   6.589   3.688  0.5106  0.3466  0.5483
  979MOL0     C32067   2.153   6.566   3.588 -0.5563  0.6461  0.2093
  979MOL0     C32068   2.203   6.419   3.596 -0.0199  0.9000 -1.2185
  979MOL0     C32069   2.292   6.381   3.466 -0.2688  0.4071 -0.0380
  979MOL0     C32070   2.423   6.469   3.468 -0.0111  0.1684 -0.5136
  979MOL0     C32071   2.501   6.461   3.336 -1.0593 -0.2005  0.5022
  979MOL0     C32072   2.501   6.320   3.268 -0.2967  0.8453 -0.3634
  979MOL0     C32073   2.576   6.297   3.144  0.5184 -0.3313  0.3023
  979MOL0    Cl32074   2.555   6.429   3.026 -0.0270 -0.5637  0.0144
  979MOL0     C32075   2.056   6.480   4.040  0.1044  0.6782  0.0007
  979MOL0     C32076   1.971   6.440   4.150 -0.9878  0.1510 -0.5244
  979MOL0     O32077   1.852   6.279   4.380  0.2488 -0.2482 -0.0837
  979MOL0     C32078   1.530   6.439   4.437 -0.3892 -0.2223  0.1748
  979MOL0     C32079   1.411   6.422   4.521 -0.5626  0.0996 -1.1312
  979MOL0     N32080   1.089   6.572   4.364 -0.2739  0.1537  0.4478
  979MOL0     N32081   1.192   6.657   4.341 -0.3072  0.8870 -0.7025
  979MOL0     C32082   2.392   6.836   4.340 -0.5152  0.2699 -1.1712
  979MOL0     C32083   2.533   6.825   4.307  0.2988 -0.4149 -0.5681
  979MOL0     C32084   2.952   6.825   4.234 -1.2942 -0.0716 -0.7785
  979MOL0     C32085   3.001   6.955   4.195 -0.0829  1.0774 -1.3813
  979MOL0     C32086   3.117   6.981   4.125 -0.0839 -0.3657 -0.8188
  979MOL0     C32087   3.209   6.878   4.108  0.3592  0.1865  0.1684
  979MOL0     O32088   3.335   6.887   4.039  0.6336  0.2270 -0.1105
  979MOL0     C32089   3.328   6.959   3.913 -0.6343  0.1297  0.0141
  979MOL0     C32090   3.433   6.908   3.812  0.5533  0.5276 -0.6299
  979MOL0     C32091   3.409   6.755   3.795 -0.2051 -0.0267  0.7007
  979MOL0     C32092   3.467   6.714   3.665 -0.0310  0.2281 -0.3832
  979MOL0     C32093   3.429   6.570   3.651 -0.4278 -0.2045  0.4222
  979MOL0     C32094   3.399   6.451   3.630 -0.3329 -0.1004  0.4927
  979MOL0     C32095   3.180   6.751   4.158 -0.5699 -0.3275  0.8794
  979MOL0     C32096   3.056   6.721   4.214 -0.8358 -0.5399 -0.2653
  979MOL0     C32097   3.044   6.578   4.258  0.3669 -0.5499 -0.5448
  979MOL0     H32098   2.636   7.101   4.471 -0.6748  0.2867  0.5617
  979MOL0     H32099   2.413   7.103   4.544 -0.4969 -1.0993  0.9853
  979MOL0     H32100   2.148   7.053   4.601  0.1934  1.9358  0.1955
  979MOL0     H32101   2.203   7.151   4.458  1.1482  0.0879  3.6092
  979MOL0     H32102   2.004   7.078   4.344  1.3278 -1.1833 -0.5129
  979MOL0     H32103   1.967   7.167   4.489  0.8349 -0.5595  1.3864
  979MOL0     H32104   1.932   6.936   4.600  2.3474  0.5683 -0.2959
  979MOL0     H32105   1.958   6.864   4.443 -0.7453  2.2822 -4.2367
  979MOL0     H32106   1.735   7.064   4.529 -2.0753 -0.9650 -0.2432
  979MOL0     H32107   1.741   7.027   4.371 -5.1527 -0.9240  1.0833
  979MOL0     H32108   1.694   6.805   4.390  2.3891  0.6388  0.2552
  979MOL0     H32109   1.714   6.806   4.570  3.2947  0.4300 -0.1214
  979MOL0     H32110   1.521   6.963   4.590  4.0961 -2.6443  1.7509
  979MOL0     H32111   1.516   6.969   4.401  2.4230 -0.9304 -1.0350
  979MOL0     H32112   1.433   6.751   4.594  0.9683 -0.7186 -0.7163
  979MOL0     H32113   1.464   6.716   4.420  2.0765  0.2039  0.3354
  979MOL0     H32114   1.262   6.907   4.555 -2.0487  0.0448 -0.2067
  979MOL0     H32115   1.298   6.903   4.378 -2.0152 -0.9025 -0.4209
  979MOL0     H32116   1.084   6.738   4.646 -0.7316 -3.5013  1.5698
  979MOL0     H32117   0.889   6.622   4.607 -1.1667 -1.2022 -0.6578
  979MOL0     H32118   0.848   6.522   4.465 -0.1924  0.4256 -0.8367
  979MOL0     H32119   0.917   6.402   4.723  0.9172  2.8444  1.3049
  979MOL0     H32120   0.863   6.337   4.567  0.5457  1.3534 -4.4303
  979MOL0     H32121   1.107   6.340   4.501  0.9951 -1.8749 -0.2643
  979MOL0     H32122   1.061   6.216   4.615  0.9616 -0.4837 -1.0675
  979MOL0     H32123   1.139   6.375   4.800 -0.3411  1.6110  0.1056
  979MOL0     H32124   1.212   6.474   4.674  2.8838 -1.6312 -1.6323
  979MOL0     H32125   1.529   6.161   4.696 -1.0708  0.9390 -0.2035
  979MOL0     H32126   1.698   6.165   4.543  0.7502 -1.0229 -1.9707
  979MOL0     H32127   1.670   6.511   4.015  0.1570 -0.6972  1.6608
  979MOL0     H32128   1.814   6.549   3.817 -0.1868 -1.8674 -1.9233
  979MOL0     H32129   1.942   6.534   3.664 -1.3893  2.3176  2.7207
  979MOL0     H32130   1.991   6.690   3.686 -0.7366 -0.1473 -2.3052
  979MOL0     H32131   2.131   6.592   3.484  0.1632 -0.8065 -0.3284
  979MOL0     H32132   2.236   6.632   3.614 -0.5765 -0.5673  3.8394
  979MOL0     H32133   2.258   6.406   3.690 -2.1207 -1.9501 -0.2282
  979MOL0     H32134   2.119   6.351   3.612  1.1659 -0.4785 -0.5895
  979MOL0     H32135   2.235   6.399   3.374 -0.2450  0.6643 -0.0052
  979MOL0     H32136   2.325   6.279   3.484 -1.1853 -0.1330 -1.3192
  979MOL0     H32137   2.487   6.436   3.550  0.4600 -2.6733 -1.8939
  979MOL0     H32138   2.404   6.576   3.482 -2.3597 -0.0415 -1.6002
  979MOL0     H32139   2.458   6.529   3.262 -0.9824 -0.3812  0.2864
  979MOL0     H32140   2.604   6.497   3.340 -0.0520 -2.8307  0.9347
  979MOL0     H32141   2.395   6.307   3.243 -1.1076  2.8692  1.5744
  979MOL0     H32142   2.530   6.237   3.332 -0.1588  0.3212 -1.0979
  979MOL0     H32143   2.684   6.295   3.165  0.8497  3.3168 -0.3244
  979MOL0     H32144   2.547   6.200   3.103  1.3818  0.4782 -2.4963
  979MOL0     H32145   2.163   6.464   4.050 -0.3849 -1.1597  4.7792
  979MOL0     H32146   2.019   6.399   4.238 -1.0505 -1.4488 -1.1944
  979MOL0     H32147   1.519   6.508   4.354  2.3446 -1.2313 -1.1614
  979MOL0     H32148   1.328   6.480   4.480 -1.5822  0.8980  1.8083
  979MOL0     H32149   2.320   6.766   4.299  0.0651  0.1848 -2.0668
  979MOL0     H32150   2.561   6.741   4.244 -0.4475 -0.6244 -0.6279
  979MOL0     H32151   2.937   7.040   4.213  0.4072  1.3977 -1.1134
  979MOL0     H32152   3.138   7.085   4.100  1.4974  0.0734  1.8658
  979MOL0     H32153   3.344   7.066   3.930  3.5623 -0.4483  0.9593
  979MOL0     H32154   3.229   6.958   3.867 -0.3684 -1.2804 -0.5763
  979MOL0     H32155   3.530   6.930   3.858 -0.4346  2.0499  0.8241
  979MOL0     H32156   3.425   6.973   3.725 -3.8262  1.0848 -0.0453
  979MOL0     H32157   3.302   6.739   3.807 -0.3224  0.3854  0.2240
  979MOL0     H32158   3.471   6.704   3.869  2.9671 -2.0962 -2.9658
  979MOL0     H32159   3.414   6.767   3.585 -0.6912 -0.5613 -0.4761
  979MOL0     H32160   3.574   6.737   3.661 -0.2944  1.7533  0.3454
  979MOL0     H32161   3.388   6.345   3.627  1.4610 -0.2955 -0.2508
  979MOL0     H32162   3.257   6.676   4.140 -2.2868 -1.7240 -1.2001
  979MOL0     H32163   3.131   6.521   4.226  0.9137  0.0581 -0.1736
  979MOL0     H32164   3.057   6.583   4.367 -2.1210 -0.4151 -0.1885
  979MOL0     H32165   2.946   6.536   4.236 -0.5963  2.5076 -2.7382
  980MOL0     O32166   5.118   5.427   5.796  0.4225  0.4151  0.3986
  980MOL0     C32167   5.034   5.466   5.717 -0.8931  0.1723  0.1204
  980MOL0     O32168   5.070   5.551   5.618  0.1824 -0.3736 -0.1195
  980MOL0     C32169   5.196   5.555   5.579  0.0742 -0.0861 -1.0942
  980MOL0     C32170   5.301   5.623   5.646  0.4216  0.8890 -0.0241
  980MOL0     C32171   5.429   5.634   5.589  0.5797 -0.8281  0.0972
  980MOL0     C32172   5.466   5.560   5.481  1.1818 -0.5935  0.4947
  980MOL0     O32173   5.588   5.530   5.439 -0.4545  0.0579  0.0572
  980MOL0     C32174   5.653   5.413   5.499 -0.2542 -0.5110  0.7722
  980MOL0     C32175   5.763   5.348   5.413  0.5378  0.2138 -0.1926
  980MOL0     C32176   5.883   5.435   5.399 -0.3152 -0.2982 -0.4759
  980MOL0     C32177   5.969   5.380   5.281  0.0438  1.1077  0.2567
  980MOL0     C32178   6.105   5.432   5.271 -0.9208 -0.3106  0.3999
  980MOL0     C32179   6.214   5.398   5.372 -0.9178  0.3243 -0.2788
  980MOL0     C32180   6.362   5.419   5.321  0.1616  0.2594  0.2051
  980MOL0     C32181   6.454   5.484   5.427  0.3152  0.2092 -0.3585
  980MOL0     N32182   6.592   5.501   5.380 -0.6790 -0.7228  0.3021
  980MOL0     C32183   6.700   5.531   5.455 -0.1136 -0.6126 -0.6167
  980MOL0     C32184   6.817   5.508   5.383  0.1043  0.9617  0.6239
  980MOL0     C32185   6.957   5.511   5.437  0.0832 -0.1673 -0.1532
  980MOL0     C32186   7.044   5.560   5.321 -0.8895  0.0567  0.9811
  980MOL0     C32187   7.094   5.447   5.225  0.2921 -0.2341 -0.1537
  980MOL0     C32188   7.205   5.496   5.132  0.2892  0.4269 -0.7592
  980MOL0     O32189   7.284   5.385   5.096 -0.7690  0.8336  0.0488
  980MOL0     C32190   7.406   5.406   5.038  0.2317  0.4862  0.7806
  980MOL0     C32191   7.474   5.282   5.030  0.4738 -0.4096 -0.2822
  980MOL0     C32192   7.602   5.278   4.974  0.9506  0.1662 -0.6241
  980MOL0     C32193   7.666   5.390   4.930 -0.7157  1.0829 -0.5852
  980MOL0     C32194   7.793   5.382   4.862  1.1096  0.4711 -0.8788
  980MOL0     O32195   7.866   5.492   4.868  0.3101  0.1414  0.8396
  980MOL0     C32196   7.976   5.523   4.810 -1.0206  0.4546  0.5384
  980MOL0     C32197   8.061   5.617   4.878  0.2969  0.1365  0.6390
  980MOL0     C32198   8.185   5.657   4.838  0.2181 -0.1836 -0.0673
  980MOL0     C32199   8.238   5.604   4.716  0.2375 -0.1152 -0.6298
  980MOL0     O32200   8.372   5.626   4.676  0.2025  0.4013 -0.2226
  980MOL0     C32201   8.450   5.716   4.757 -0.3569  0.2299  0.5112
  980MOL0     C32202   8.593   5.742   4.691  0.7047  0.5909 -0.6866
  980MOL0     C32203   8.673   5.849   4.769 -0.1250  0.4096 -0.2151
  980MOL0     C32204   8.814   5.877   4.704  0.0211  0.0447  0.5295
  980MOL0     C32205   8.887   5.987   4.789  0.4491  0.6011  0.0802
  980MOL0     C32206   9.023   6.007   4.727  0.6074 -0.8253  0.3600
  980MOL0     C32207   9.130   5.898   4.757  0.1218  0.1189  0.1965
  980MOL0     C32208   9.262   5.965   4.788 -0.2285 -0.3434 -0.3792
  980MOL0    Cl32209   9.376   5.834   4.821  0.2636  0.3693  0.5600
  980MOL0     C32210   8.155   5.516   4.646  0.5083  0.3894 -0.2442
  980MOL0     C32211   8.028   5.474   4.688 -1.1175  0.2935  0.1301
  980MOL0     O32212   7.830   5.271   4.820  0.0085 -0.7396  0.5747
  980MOL0     C32213   7.602   5.508   4.930  0.3654 -1.1236 -0.7298
  980MOL0     C32214   7.472   5.516   4.994 -0.1235  0.3308 -1.1062
  980MOL0     N32215   6.766   5.471   5.257 -0.2655  0.4184  0.8171
  980MOL0     N32216   6.631   5.470   5.257 -0.3081 -0.3858  0.2644
  980MOL0     C32217   5.360   5.492   5.412 -0.7474 -0.4683 -0.4261
  980MOL0     C32218   5.230   5.488   5.468  0.7515  0.7701  0.1995
  980MOL0     C32219   4.883   5.453   5.744 -0.0194  1.1056 -0.4266
  980MOL0     C32220   4.784   5.548   5.702 -0.6448  0.3037  0.0221
  980MOL0     C32221   4.648   5.531   5.738  0.8566  0.0936  0.1159
  980MOL0     C32222   4.606   5.436   5.832 -1.0215  0.5231  0.0993
  980MOL0     O32223   4.483   5.406   5.890  0.3543 -0.3830 -0.4178
  980MOL0     C32224   4.370   5.490   5.855  0.3098 -0.0928  0.5269
  980MOL0     C32225   4.291   5.517   5.981 -0.1499 -0.1539  0.4805
  980MOL0     C32226   4.371   5.625   6.054  0.0856 -0.5626  0.0839
  980MOL0     C32227   4.314   5.638   6.200  0.2064  0.3113  1.3105
  980MOL0     C32228   4.165   5.677   6.189  0.0016  0.1051 -0.1665
  980MOL0     C32229   4.047   5.708   6.178  0.4069 -0.7931  0.1278
  980MOL0     C32230   4.706   5.355   5.877  0.1794  0.1677  0.5642
  980MOL0     C32231   4.837   5.357   5.836 -0.4896  0.2394  0.7469
  980MOL0     C32232   4.909   5.243   5.886 -0.7935  0.5672  0.0755
  980MOL0     H32233   5.273   5.663   5.743 -1.3951 -1.1929  0.3809
  980MOL0     H32234   5.502   5.692   5.645 -3.0075  0.0698  4.4290
  980MOL0     H32235   5.702   5.456   5.587 -0.6422  0.6300  0.4548
  980MOL0     H32236   5.577   5.340   5.528 -1.0743 -0.0911 -0.2573
  980MOL0     H32237   5.721   5.332   5.314  2.2021  2.4299 -1.3586
  980MOL0     H32238   5.785   5.252   5.461 -4.2048  1.1935  4.9894
  980MOL0     H32239   5.943   5.423   5.490 -2.2729  1.5471  1.1597
  980MOL0     H32240   5.872   5.544   5.397 -1.5020 -0.3638  1.1207
  980MOL0     H32241   5.980   5.271   5.287 -3.1818  0.6112 -1.0565
  980MOL0     H32242   5.909   5.401   5.193  0.6302 -0.7426 -0.6383
  980MOL0     H32243   6.129   5.398   5.170 -0.6359 -0.5165  0.5356
  980MOL0     H32244   6.094   5.541   5.264 -2.6446 -0.3229  2.1405
  980MOL0     H32245   6.195   5.462   5.459 -0.6538 -0.1462  0.1356
  980MOL0     H32246   6.207   5.292   5.397  2.1639  0.0972  0.0903
  980MOL0     H32247   6.363   5.491   5.239  4.0562  1.4886  1.1073
  980MOL0     H32248   6.408   5.324   5.293  0.7680  0.5502  0.1802
  980MOL0     H32249   6.426   5.583   5.464 -0.0521  0.8224 -2.1747
  980MOL0     H32250   6.445   5.416   5.512  1.6851 -0.1652 -0.4874
  980MOL0     H32251   6.698   5.549   5.561  1.2964 -0.8307 -0.5301
  980MOL0     H32252   6.954   5.581   5.521 -5.3957  1.4531 -1.2599
  980MOL0     H32253   6.994   5.414   5.471  0.7139  0.6017  1.4461
  980MOL0     H32254   7.004   5.643   5.262  0.1494 -0.1363 -0.0549
  980MOL0     H32255   7.136   5.610   5.351 -1.6720  2.7214 -0.6789
  980MOL0     H32256   7.007   5.422   5.163 -0.2275  2.6489 -0.7600
  980MOL0     H32257   7.123   5.358   5.281  0.3793 -1.2774 -1.7772
  980MOL0     H32258   7.267   5.569   5.187 -0.7194 -0.5114  1.7733
  980MOL0     H32259   7.158   5.548   5.049  0.9585  3.4421  0.6005
  980MOL0     H32260   7.436   5.190   5.073  3.6376 -1.6082  0.2263
  980MOL0     H32261   7.647   5.180   4.973  0.6850  0.0450 -0.8632
  980MOL0     H32262   8.028   5.641   4.979 -0.3252  1.5264  0.1159
  980MOL0     H32263   8.238   5.720   4.909  1.3275 -1.0576 -0.0889
  980MOL0     H32264   8.397   5.811   4.760 -0.3824  0.2171  0.4564
  980MOL0     H32265   8.453   5.674   4.858  1.4556  2.1048  1.3225
  980MOL0     H32266   8.647   5.648   4.680 -2.6823 -1.5386 -0.6819
  980MOL0     H32267   8.572   5.776   4.589 -0.2918  0.7839 -0.4287
  980MOL0     H32268   8.623   5.946   4.762  0.3669  0.9211  2.2971
  980MOL0     H32269   8.686   5.822   4.875 -2.3128 -0.9853 -0.2360
  980MOL0     H32270   8.803   5.911   4.601  0.9914  1.8644  0.9873
  980MOL0     H32271   8.869   5.783   4.693  1.1043  0.8611 -1.4211
  980MOL0     H32272   8.886   5.953   4.893 -0.6799  0.1568 -0.0632
  980MOL0     H32273   8.821   6.073   4.777 -0.2301  0.0754 -0.0531
  980MOL0     H32274   9.014   6.022   4.619  2.4328 -5.0455 -0.5580
  980MOL0     H32275   9.053   6.100   4.776 -0.8507 -0.1067 -0.0501
  980MOL0     H32276   9.143   5.850   4.660 -2.8525 -0.5271  0.0345
  980MOL0     H32277   9.100   5.820   4.829 -1.0839  0.2269 -0.1684
  980MOL0     H32278   9.290   6.026   4.702  2.3380 -0.4212  0.3148
  980MOL0     H32279   9.252   6.026   4.879  0.3945 -1.4608  0.4685
  980MOL0     H32280   8.199   5.471   4.558 -0.8539  1.0125 -1.2902
  980MOL0     H32281   7.981   5.405   4.618 -0.3225  1.5291 -1.7095
  980MOL0     H32282   7.636   5.599   4.880  0.3913  0.2175  1.6162
  980MOL0     H32283   7.418   5.610   4.992  2.6271  2.1035  0.8960
  980MOL0     H32284   5.389   5.425   5.332 -0.0408  0.3015 -0.8262
  980MOL0     H32285   5.154   5.428   5.420  1.2398 -0.2254  0.6344
  980MOL0     H32286   4.811   5.635   5.643 -0.3153  1.2224  1.4768
  980MOL0     H32287   4.572   5.591   5.689 -0.6824 -0.9757  1.1014
  980MOL0     H32288   4.304   5.428   5.791  0.3570 -0.8442  1.1912
  980MOL0     H32289   4.392   5.584   5.805 -2.9979  1.5318  1.8223
  980MOL0     H32290   4.281   5.426   6.041 -0.7442  0.0753  0.7414
  980MOL0     H32291   4.189   5.552   5.962  0.1888  0.1021 -0.9139
  980MOL0     H32292   4.359   5.719   5.998 -2.9370 -1.1425 -0.4276
  980MOL0     H32293   4.476   5.602   6.071  0.4868  0.6424 -0.6204
  980MOL0     H32294   4.322   5.548   6.262  2.7594 -1.6382 -1.4991
  980MOL0     H32295   4.377   5.717   6.240  1.8480 -0.2027 -0.1007
  980MOL0     H32296   3.941   5.722   6.175  0.4103 -0.8876 -0.4516
  980MOL0     H32297   4.680   5.285   5.955 -1.3216 -2.0914 -1.7841
  980MOL0     H32298   4.854   5.168   5.943  2.3902 -1.2191  1.0071
  980MOL0     H32299   4.963   5.187   5.809  0.5041  0.9512  0.6689
  980MOL0     H32300   4.978   5.283   5.961 -0.2512  2.1529 -1.1968
  981MOL0     O32301   6.256   1.587   7.849 -0.3982 -0.8346 -0.7969
  981MOL0     C32302   6.199   1.477   7.846 -0.1085  0.0160  0.1166
  981MOL0     O32303   6.261   1.355   7.870 -0.0125  0.1561 -0.5450
  981MOL0     C32304   6.389   1.366   7.906  0.3748  0.0276 -0.4372
  981MOL0     C32305   6.420   1.343   8.046  0.0595 -0.2666 -0.1424
  981MOL0     C32306   6.555   1.350   8.081 -0.6522 -0.0785  0.3234
  981MOL0     C32307   6.657   1.366   7.990 -0.0963  0.2041 -1.0765
  981MOL0     O32308   6.792   1.359   8.036  0.0407  0.3066  0.3454
  981MOL0     C32309   6.814   1.302   8.168 -0.3315  0.9305 -0.7123
  981MOL0     C32310   6.959   1.278   8.167 -0.2402 -0.3804 -0.5565
  981MOL0     C32311   7.011   1.272   8.312 -0.3090  0.3140 -0.1963
  981MOL0     C32312   7.160   1.232   8.322  0.1981 -0.0008  0.4541
  981MOL0     C32313   7.186   1.158   8.450 -0.0549 -0.8175  0.0128
  981MOL0     C32314   7.340   1.124   8.462 -0.0805  0.5271 -0.6480
  981MOL0     C32315   7.370   1.046   8.589  0.3230 -0.1211 -0.0920
  981MOL0     C32316   7.505   0.987   8.591 -0.9190 -0.9977 -0.2124
  981MOL0     N32317   7.610   1.080   8.609 -0.1331  0.0873  0.4314
  981MOL0     C32318   7.623   1.164   8.720 -0.5974  0.0370  0.2826
  981MOL0     C32319   7.753   1.184   8.738 -0.0002 -0.4521  0.0944
  981MOL0     C32320   7.795   1.239   8.864 -0.0990 -0.2523 -0.0561
  981MOL0     C32321   7.852   1.145   8.975 -0.9883 -0.2583  0.5304
  981MOL0     C32322   7.769   1.021   9.004 -0.3309 -0.3555 -0.7540
  981MOL0     C32323   7.812   0.929   9.124 -0.7267  1.1186  0.6854
  981MOL0     O32324   7.948   0.878   9.087  1.2437 -0.1699 -0.8511
  981MOL0     C32325   8.068   0.939   9.114 -0.3660 -0.3893 -0.4233
  981MOL0     C32326   8.190   0.899   9.061  0.6197 -0.1826  1.1384
  981MOL0     C32327   8.311   0.966   9.084 -0.2788 -0.1418  0.5297
  981MOL0     C32328   8.305   1.079   9.166 -0.2266  0.1138  0.4072
  981MOL0     C32329   8.430   1.145   9.189 -0.7442  0.0888 -0.5040
  981MOL0     O32330   8.550   1.065   9.178 -0.0171 -0.4056 -0.4117
  981MOL0     C32331   8.676   1.110   9.190  0.1693  0.7738 -0.5070
  981MOL0     C32332   8.776   1.046   9.124  0.1159 -0.8009  0.2754
  981MOL0     C32333   8.914   1.087   9.132 -0.2526  0.3907 -0.2955
  981MOL0     C32334   8.952   1.189   9.234  1.1151  0.1454 -0.0907
  981MOL0     O32335   9.078   1.227   9.267  0.1414 -0.1274 -0.2334
  981MOL0     C32336   9.192   1.154   9.213 -0.4245  0.3790  1.8434
  981MOL0     C32337   9.313   1.248   9.258  0.0382  1.1760 -0.2139
  981MOL0     C32338   9.444   1.174   9.248 -0.1174  0.2261  0.5033
  981MOL0     C32339   9.562   1.261   9.195  0.8703  0.3536  0.0699
  981MOL0     C32340   9.686   1.244   9.287 -0.2818  0.8457  0.8126
  981MOL0     C32341   9.802   1.344   9.277 -0.0314 -0.1809 -0.5626
  981MOL0     C32342   9.932   1.319   9.349  0.0740  1.0162 -0.1869
  981MOL0     C32343  10.042   1.418   9.305 -0.8025  0.2388  0.3022
  981MOL0    Cl32344  10.207   1.353   9.345 -0.2267 -0.3774  0.0181
  981MOL0     C32345   8.840   1.243   9.306  0.1506  0.7169 -0.0355
  981MOL0     C32346   8.708   1.209   9.286 -0.1913  0.5959 -0.0618
  981MOL0     O32347   8.430   1.265   9.210  0.0331 -0.4083  0.3098
  981MOL0     C32348   8.182   1.122   9.224  0.1639  0.6601 -0.4464
  981MOL0     C32349   8.068   1.050   9.196  0.4624 -0.2410  0.5497
  981MOL0     N32350   7.825   1.129   8.636  0.6297 -0.0685  0.7301
  981MOL0     N32351   7.739   1.061   8.566 -0.5729  0.9276  0.1659
  981MOL0     C32352   6.627   1.376   7.849  0.4762 -0.3618 -0.6881
  981MOL0     C32353   6.498   1.376   7.811 -0.3293 -0.0024 -0.5594
  981MOL0     C32354   6.057   1.473   7.798  1.0771 -0.2182  0.4951
  981MOL0     C32355   6.012   1.592   7.743  0.8162 -0.3416 -0.1343
  981MOL0     C32356   5.879   1.615   7.708  0.0823 -0.4392 -0.1410
  981MOL0     C32357   5.782   1.518   7.721 -0.2265  0.1302 -0.3851
  981MOL0     O32358   5.644   1.530   7.697  0.4552 -0.0314 -0.3003
  981MOL0     C32359   5.598   1.647   7.633  0.6425  0.1989  0.0161
  981MOL0     C32360   5.452   1.669   7.665 -0.3984 -1.0072 -0.3996
  981MOL0     C32361   5.373   1.570   7.568 -0.8866  0.5839  0.1026
  981MOL0     C32362   5.376   1.431   7.605 -0.5953  0.5442  0.6647
  981MOL0     C32363   5.292   1.345   7.517  0.0617  0.3684  0.2197
  981MOL0     C32364   5.263   1.248   7.439 -0.1105  0.6196 -0.3663
  981MOL0     C32365   5.822   1.394   7.784  0.3434  0.8316 -0.6183
  981MOL0     C32366   5.962   1.364   7.817  0.9178 -0.4657 -0.0179
  981MOL0     C32367   5.991   1.231   7.873 -0.4031  0.4095 -0.1805
  981MOL0     H32368   6.353   1.324   8.129  1.4840 -3.5396  0.4110
  981MOL0     H32369   6.587   1.329   8.183  1.3091 -2.7131 -0.7196
  981MOL0     H32370   6.796   1.380   8.242 -0.1706  0.5266 -0.2435
  981MOL0     H32371   6.770   1.203   8.186  2.9966 -0.6944 -0.6905
  981MOL0     H32372   7.015   1.350   8.107  1.2685  0.8938  2.1502
  981MOL0     H32373   6.982   1.180   8.124 -0.3667  0.0556 -1.6270
  981MOL0     H32374   6.951   1.195   8.359 -0.5574  0.3200 -0.4981
  981MOL0     H32375   6.982   1.365   8.363 -2.4019  0.4764 -1.5564
  981MOL0     H32376   7.180   1.163   8.240  2.8425  1.1094  0.0642
  981MOL0     H32377   7.229   1.317   8.320  3.1761 -2.2304  1.2328
  981MOL0     H32378   7.154   1.200   8.545  1.7691  0.7667  0.0012
  981MOL0     H32379   7.135   1.062   8.436 -2.4207  0.4558 -0.7383
  981MOL0     H32380   7.372   1.070   8.373  1.6411  1.1106 -0.4218
  981MOL0     H32381   7.397   1.217   8.464  2.6508 -1.0374 -0.7546
  981MOL0     H32382   7.301   0.962   8.606  1.1549 -1.0789 -1.2216
  981MOL0     H32383   7.348   1.105   8.678  2.7399 -0.4941  0.8202
  981MOL0     H32384   7.508   0.912   8.671  0.3924  1.1450  1.8437
  981MOL0     H32385   7.533   0.939   8.496  0.4492  2.1623 -1.5635
  981MOL0     H32386   7.539   1.176   8.788 -0.7064 -0.3936  0.2331
  981MOL0     H32387   7.871   1.316   8.846  0.5942 -0.7006  0.8779
  981MOL0     H32388   7.710   1.299   8.899 -2.1773 -1.8077 -2.1016
  981MOL0     H32389   7.950   1.104   8.951 -1.4218 -1.6559  1.0561
  981MOL0     H32390   7.846   1.206   9.065 -0.0076 -0.7912  0.9745
  981MOL0     H32391   7.762   0.959   8.914  3.8958 -0.3881 -1.2878
  981MOL0     H32392   7.668   1.054   9.027  1.1776  3.4734  1.2251
  981MOL0     H32393   7.737   0.850   9.128  0.3466  0.0111 -0.0713
  981MOL0     H32394   7.820   0.976   9.222  1.0483  3.5833 -0.5200
  981MOL0     H32395   8.197   0.811   8.997 -1.7667 -0.1553  0.7640
  981MOL0     H32396   8.400   0.928   9.035 -0.4081 -1.4221  1.2356
  981MOL0     H32397   8.755   0.965   9.055  2.0751 -1.0705 -0.0490
  981MOL0     H32398   8.985   1.034   9.069  0.8408  2.5255 -0.9313
  981MOL0     H32399   9.200   1.052   9.250 -1.9360 -0.2683  0.5246
  981MOL0     H32400   9.189   1.148   9.104  0.7023  1.1031  1.7558
  981MOL0     H32401   9.318   1.342   9.202  1.2489  0.6643 -1.0195
  981MOL0     H32402   9.302   1.264   9.365  0.6980 -4.7876  1.1001
  981MOL0     H32403   9.469   1.142   9.349  1.2662 -4.5332 -1.0633
  981MOL0     H32404   9.432   1.085   9.185 -1.2975  2.2801 -2.4040
  981MOL0     H32405   9.540   1.367   9.182 -0.6630 -0.1264 -1.6853
  981MOL0     H32406   9.589   1.233   9.093  1.8231  0.7784  0.1928
  981MOL0     H32407   9.736   1.148   9.269 -0.1727  1.1361 -0.5441
  981MOL0     H32408   9.656   1.240   9.392 -0.9318  0.2162  0.6161
  981MOL0     H32409   9.834   1.359   9.173  1.5619 -1.3936 -0.2887
  981MOL0     H32410   9.767   1.448   9.286  0.4454  0.4498 -4.3318
  981MOL0     H32411   9.964   1.217   9.326  2.2671  1.4149  0.7965
  981MOL0     H32412   9.929   1.321   9.459  1.7334  0.0728 -0.0842
  981MOL0     H32413  10.028   1.444   9.200  0.6500  1.7459  0.4381
  981MOL0     H32414  10.025   1.513   9.358  0.8003  2.1519 -2.3728
  981MOL0     H32415   8.862   1.321   9.379 -0.7528  1.7538 -0.8411
  981MOL0     H32416   8.623   1.259   9.332  0.6979  1.9344  0.1800
  981MOL0     H32417   8.167   1.196   9.301  1.6727 -0.7727  1.3118
  981MOL0     H32418   7.975   1.079   9.245  0.5558 -0.0559  0.6188
  981MOL0     H32419   6.702   1.379   7.770  2.3766 -1.7056  0.9444
  981MOL0     H32420   6.477   1.395   7.707 -2.0204  0.8571 -0.1014
  981MOL0     H32421   6.072   1.679   7.718 -0.5104  0.0071 -2.3482
  981MOL0     H32422   5.860   1.707   7.655  0.8403 -0.9995 -1.4332
  981MOL0     H32423   5.608   1.627   7.526 -1.1602  0.4689 -0.2426
  981MOL0     H32424   5.652   1.739   7.657  0.2792  0.5793 -0.5695
  981MOL0     H32425   5.421   1.773   7.651  1.7462 -0.4431 -1.3187
  981MOL0     H32426   5.424   1.659   7.770 -0.9495  3.8188  0.1408
  981MOL0     H32427   5.402   1.580   7.463 -1.9108  2.7358 -0.0482
  981MOL0     H32428   5.269   1.603   7.560 -1.4488 -0.4066  2.6186
  981MOL0     H32429   5.476   1.395   7.583 -0.9065  1.3577 -2.6295
  981MOL0     H32430   5.352   1.428   7.712 -2.5312  2.6160  0.3629
  981MOL0     H32431   5.226   1.170   7.376 -1.4524 -0.5384  1.7548
  981MOL0     H32432   5.741   1.322   7.796  0.3487  1.2681  4.3609
  981MOL0     H32433   6.058   1.226   7.960  0.7487  0.6232 -1.0207
  981MOL0     H32434   5.902   1.185   7.916  0.1899  1.2645  2.1075
  981MOL0     H32435   6.033   1.171   7.791  1.1119 -0.3731  1.1135
  982MOL0     O32436   5.870   6.184   3.472  0.0836 -0.5690 -0.0869
  982MOL0     C32437   5.787   6.123   3.401  0.0174 -0.4647 -0.6975
  982MOL0     O32438   5.821   6.017   3.318 -0.5674 -0.0757 -0.4821
  982MOL0     C32439   5.946   5.993   3.286 -0.4630  0.1780  0.0210
  982MOL0     C32440   6.034   6.085   3.226  0.0753 -0.2509 -0.2224
  982MOL0     C32441   6.162   6.054   3.212  0.4492  0.6026 -0.0237
  982MOL0     C32442   6.221   5.936   3.253 -0.0657 -0.4205  0.5781
  982MOL0     O32443   6.348   5.896   3.234 -0.6574 -0.3665  0.6327
  982MOL0     C32444   6.447   6.000   3.225 -0.0993 -0.0373  0.0082
  982MOL0     C32445   6.570   5.920   3.243  0.2457  0.0473  0.0539
  982MOL0     C32446   6.696   6.002   3.207  0.3799  0.5119 -0.2533
  982MOL0     C32447   6.817   5.907   3.184  0.0497 -0.6470  0.0539
  982MOL0     C32448   6.935   5.988   3.148 -0.3807 -0.4656  0.3013
  982MOL0     C32449   7.050   5.897   3.093  0.9381 -0.8909 -0.6405
  982MOL0     C32450   7.175   5.949   3.038 -0.3011  0.3544  0.3639
  982MOL0     C32451   7.164   6.046   2.919  0.3534  0.0297 -0.1095
  982MOL0     N32452   7.297   6.092   2.885  0.2421  0.4828  0.5996
  982MOL0     C32453   7.341   6.220   2.879 -0.6317  0.2169  0.3585
  982MOL0     C32454   7.461   6.209   2.815  0.8728 -0.1013  0.6864
  982MOL0     C32455   7.559   6.327   2.804  0.4354 -0.1642  0.3834
  982MOL0     C32456   7.691   6.302   2.877  0.5967 -0.0890 -0.4268
  982MOL0     C32457   7.787   6.404   2.828  0.9823  0.3638 -0.2328
  982MOL0     C32458   7.917   6.417   2.913 -0.5880  0.1513 -0.7728
  982MOL0     O32459   7.986   6.532   2.863  0.8756 -0.7926  0.6837
  982MOL0     C32460   8.114   6.559   2.899  0.8100  1.2130  0.7803
  982MOL0     C32461   8.168   6.674   2.860 -0.4517 -0.7755 -0.2260
  982MOL0     C32462   8.296   6.709   2.894  0.4883  0.3644  0.2165
  982MOL0     C32463   8.383   6.629   2.963 -0.6545 -0.2047  0.4666
  982MOL0     C32464   8.515   6.677   3.001  0.6797  0.1265  0.0620
  982MOL0     O32465   8.585   6.759   2.914  0.4922  0.4585 -0.4288
  982MOL0     C32466   8.716   6.795   2.936  0.3913  0.5228  0.2358
  982MOL0     C32467   8.770   6.900   2.856  0.6014 -0.0580  0.3403
  982MOL0     C32468   8.901   6.924   2.856  0.1985  0.3831 -0.4540
  982MOL0     C32469   8.994   6.846   2.925  0.7940 -0.3187 -0.3904
  982MOL0     O32470   9.127   6.870   2.919 -0.1583 -0.1674  0.1493
  982MOL0     C32471   9.196   6.900   3.037  0.0927  0.2147  0.1122
  982MOL0     C32472   9.306   6.800   3.081  0.3693 -0.4970 -0.3987
  982MOL0     C32473   9.406   6.838   3.186  0.8449 -0.4104 -0.2547
  982MOL0     C32474   9.522   6.746   3.199 -0.0982 -0.4571 -0.2976
  982MOL0     C32475   9.616   6.790   3.312 -0.1144  0.1442 -0.4198
  982MOL0     C32476   9.739   6.696   3.337 -0.6683  0.7429 -0.2071
  982MOL0     C32477   9.826   6.686   3.223 -0.7480 -0.4391 -0.2016
  982MOL0     C32478   9.971   6.640   3.254 -0.3298  0.2121 -0.0122
  982MOL0    Cl32479  10.065   6.774   3.301  0.5349 -0.4165  0.1124
  982MOL0     C32480   8.946   6.734   2.992  0.2731  0.1586 -0.1311
  982MOL0     C32481   8.810   6.711   3.001 -0.3165 -0.0114  0.1707
  982MOL0     O32482   8.558   6.633   3.109  0.9146  0.0927  0.7750
  982MOL0     C32483   8.335   6.498   2.991 -0.3657  0.2389 -0.6811
  982MOL0     C32484   8.201   6.465   2.964 -0.6255 -0.0040 -0.1525
  982MOL0     N32485   7.492   6.082   2.789 -0.9317  0.5110 -0.1038
  982MOL0     N32486   7.391   6.012   2.838 -0.0252  0.6479  0.4852
  982MOL0     C32487   6.133   5.841   3.303 -0.3431 -0.4702 -0.4048
  982MOL0     C32488   5.998   5.866   3.320  0.9185 -0.1587  0.7820
  982MOL0     C32489   5.648   6.177   3.401  0.1033  0.7512 -0.1350
  982MOL0     C32490   5.618   6.298   3.470 -0.4134  0.2503  1.4688
  982MOL0     C32491   5.491   6.347   3.478  0.4472 -1.3847 -0.4583
  982MOL0     C32492   5.383   6.272   3.425 -0.0046  0.6802  0.0870
  982MOL0     O32493   5.250   6.305   3.436  0.6814  0.1197  0.2841
  982MOL0     C32494   5.210   6.418   3.516  1.8618  0.2111  0.1486
  982MOL0     C32495   5.067   6.467   3.477  0.2162  0.0011  0.0182
  982MOL0     C32496   5.047   6.525   3.348 -0.2652  1.3394 -0.1124
  982MOL0     C32497   4.917   6.604   3.335  1.0406  0.6388 -0.7471
  982MOL0     C32498   4.809   6.508   3.334 -0.0465 -0.1625 -0.0635
  982MOL0     C32499   4.710   6.434   3.338  0.3596 -0.5263 -0.9829
  982MOL0     C32500   5.409   6.149   3.363 -0.1748 -0.9200  0.2233
  982MOL0     C32501   5.539   6.099   3.345  0.0218 -0.7162  0.5977
  982MOL0     C32502   5.561   5.958   3.308 -0.9253  0.2221  0.5005
  982MOL0     H32503   5.990   6.180   3.198 -3.4500 -1.0430  1.8875
  982MOL0     H32504   6.227   6.138   3.189 -1.9549  2.7658  0.5395
  982MOL0     H32505   6.456   6.056   3.131 -0.3331  3.7920  2.0548
  982MOL0     H32506   6.437   6.084   3.293  1.7578  0.9683 -0.8646
  982MOL0     H32507   6.556   5.839   3.170  0.9497  0.4468 -0.5355
  982MOL0     H32508   6.569   5.885   3.347  0.7270 -0.9147 -0.2522
  982MOL0     H32509   6.721   6.073   3.286  1.3137  1.2333 -1.1709
  982MOL0     H32510   6.668   6.044   3.110 -0.3465 -1.7561 -1.0982
  982MOL0     H32511   6.839   5.842   3.269  4.0426 -1.4483 -1.3931
  982MOL0     H32512   6.787   5.836   3.107 -3.9409 -0.8146  1.5194
  982MOL0     H32513   6.912   6.048   3.060 -1.4031 -0.5058  0.5337
  982MOL0     H32514   6.972   6.062   3.220  0.2712  1.6640 -2.0758
  982MOL0     H32515   7.077   5.828   3.174  0.3894 -0.0037  0.3196
  982MOL0     H32516   7.000   5.835   3.018 -1.3672 -1.2154  1.0514
  982MOL0     H32517   7.230   5.864   2.995  0.1487 -0.6502  2.7619
  982MOL0     H32518   7.233   5.997   3.117 -1.3921  0.3464  1.1927
  982MOL0     H32519   7.118   5.990   2.837 -3.1620  1.5694  0.5887
  982MOL0     H32520   7.108   6.138   2.944  1.2003  2.3726 -5.4863
  982MOL0     H32521   7.319   6.320   2.914  1.4373  1.5784 -1.9206
  982MOL0     H32522   7.585   6.320   2.698 -1.5028 -2.4808 -0.0321
  982MOL0     H32523   7.513   6.424   2.826  2.6066  0.4814  2.4571
  982MOL0     H32524   7.668   6.329   2.980 -3.6309  0.5113 -1.3356
  982MOL0     H32525   7.728   6.200   2.865 -4.2157 -1.7858 -4.0189
  982MOL0     H32526   7.729   6.497   2.825  1.2333  0.5444  0.2622
  982MOL0     H32527   7.817   6.376   2.727 -0.3487  0.2623 -0.6148
  982MOL0     H32528   7.973   6.324   2.910  0.6448  0.8496  0.0982
  982MOL0     H32529   7.893   6.441   3.017 -2.8442  0.1318 -1.2313
  982MOL0     H32530   8.103   6.745   2.811 -2.0575 -0.5670  2.0564
  982MOL0     H32531   8.326   6.811   2.870 -2.3113  2.0862  3.2183
  982MOL0     H32532   8.716   6.956   2.780  2.3720 -1.2289 -1.9092
  982MOL0     H32533   8.932   7.012   2.802  0.0531  1.9551  1.8846
  982MOL0     H32534   9.243   6.997   3.019  2.4176 -0.8444  0.0744
  982MOL0     H32535   9.136   6.918   3.126 -0.1641  0.0045 -0.0188
  982MOL0     H32536   9.252   6.713   3.120  0.0299  0.8185  2.2878
  982MOL0     H32537   9.362   6.779   2.989  0.9971 -0.4181 -0.0385
  982MOL0     H32538   9.439   6.940   3.166  1.6958 -0.7284 -0.5422
  982MOL0     H32539   9.353   6.836   3.281  3.0671  2.5263  1.2187
  982MOL0     H32540   9.570   6.724   3.103 -1.2143 -1.3355 -0.6707
  982MOL0     H32541   9.474   6.653   3.231 -0.0996 -0.0357  0.9778
  982MOL0     H32542   9.561   6.802   3.406 -3.4427 -4.8761 -1.3282
  982MOL0     H32543   9.657   6.886   3.280 -0.6390  1.5536  2.7696
  982MOL0     H32544   9.795   6.739   3.420  2.2603 -0.9910 -1.1646
  982MOL0     H32545   9.713   6.591   3.354  1.9038 -0.2140 -1.7095
  982MOL0     H32546   9.833   6.787   3.182  0.0510 -0.5939 -0.4726
  982MOL0     H32547   9.791   6.620   3.143  0.5198  0.2302 -1.3587
  982MOL0     H32548   9.982   6.563   3.331  3.7095  1.7442  1.2164
  982MOL0     H32549  10.024   6.587   3.175 -0.6378 -0.4341  0.2015
  982MOL0     H32550   9.019   6.666   3.036 -0.5957 -0.8319 -0.1761
  982MOL0     H32551   8.778   6.615   3.038  2.0890 -0.6899  0.6758
  982MOL0     H32552   8.392   6.420   3.040  0.8837  1.0594 -0.7806
  982MOL0     H32553   8.180   6.363   2.997 -0.9212  0.1970  0.2872
  982MOL0     H32554   6.172   5.746   3.338  1.4043  0.4058  0.1422
  982MOL0     H32555   5.934   5.792   3.365  0.2437  0.1384  0.3227
  982MOL0     H32556   5.702   6.360   3.499  0.9273 -1.0214  0.4814
  982MOL0     H32557   5.470   6.438   3.533  0.1288 -1.0938 -1.0455
  982MOL0     H32558   5.280   6.500   3.497  1.1227  0.2195 -3.1154
  982MOL0     H32559   5.208   6.389   3.621  1.4452  0.6758  0.2768
  982MOL0     H32560   5.024   6.520   3.563 -1.4715 -3.1995  1.3108
  982MOL0     H32561   5.007   6.377   3.468 -2.3512  1.5917  0.2332
  982MOL0     H32562   5.062   6.442   3.279  0.5069 -0.2401  1.8399
  982MOL0     H32563   5.130   6.595   3.330 -0.3570  1.3678 -0.4248
  982MOL0     H32564   4.905   6.673   3.418 -2.3500  1.8967 -2.0822
  982MOL0     H32565   4.927   6.657   3.240 -3.1875  3.8484  0.2777
  982MOL0     H32566   4.622   6.375   3.352  0.0329  0.7387  4.8831
  982MOL0     H32567   5.326   6.084   3.336 -1.0335  0.4319 -0.5670
  982MOL0     H32568   5.614   5.914   3.393  1.8730  3.6416  0.7114
  982MOL0     H32569   5.474   5.893   3.297 -0.4779 -0.5583  1.3604
  982MOL0     H32570   5.614   5.955   3.212 -0.0974 -0.5814  0.9695
  983MOL0     O32571   3.331   9.290   0.218 -0.3029 -0.0865  0.1876
  983MOL0     C32572   3.223   9.301   0.279 -0.8701 -1.1860  0.4934
  983MOL0     O32573   3.208   9.352   0.402  0.3814 -1.0116 -0.3405
  983MOL0     C32574   3.320   9.390   0.472  0.7208  0.1732  0.3464
  983MOL0     C32575   3.308   9.504   0.548  1.0234 -0.0230 -0.5443
  983MOL0     C32576   3.409   9.551   0.634  0.4789  0.5984  0.5620
  983MOL0     C32577   3.524   9.474   0.651  0.7332 -0.1305  0.3203
  983MOL0     O32578   3.615   9.491   0.743 -0.4168 -0.1800 -0.7406
  983MOL0     C32579   3.571   9.559   0.863  0.6320  0.2385  0.2310
  983MOL0     C32580   3.671   9.525   0.972  0.3533  0.0134  0.5927
  983MOL0     C32581   3.802   9.599   0.963 -0.2544 -0.6759  0.3358
  983MOL0     C32582   3.880   9.618   1.093  0.1064  0.5134 -0.0208
  983MOL0     C32583   3.996   9.715   1.072  0.4903  0.2939  0.0335
  983MOL0     C32584   3.977   9.865   1.027 -0.4648 -0.3684 -0.5470
  983MOL0     C32585   4.105   9.952   1.000  0.0491  0.5639 -0.0476
  983MOL0     C32586   4.174   9.986   1.128  0.3100  0.3408  0.2788
  983MOL0     N32587   4.282  10.084   1.092  0.1618  0.5152  0.5640
  983MOL0     C32588   4.309  10.202   1.160 -0.4396  0.1873 -0.9411
  983MOL0     C32589   4.389  10.274   1.079 -0.2719 -0.0104  0.0435
  983MOL0     C32590   4.431  10.409   1.124  0.7954  0.6850  0.2575
  983MOL0     C32591   4.577  10.435   1.138 -0.4611  0.6975 -0.8844
  983MOL0     C32592   4.630  10.379   1.265  0.6483 -1.4068 -0.5007
  983MOL0     C32593   4.755  10.453   1.321 -0.1769 -0.0502 -0.0332
  983MOL0     O32594   4.876  10.435   1.252 -0.4012 -0.3306  0.2703
  983MOL0     C32595   4.975  10.535   1.277  0.9147 -0.4503  0.0645
  983MOL0     C32596   4.982  10.631   1.384  1.1852  0.4571  0.1764
  983MOL0     C32597   5.098  10.721   1.391  0.5225 -0.5596 -0.3700
  983MOL0     C32598   5.201  10.719   1.289  0.1530  0.1539 -0.8108
  983MOL0     C32599   5.314  10.818   1.289  0.2597 -0.1680  0.0744
  983MOL0     O32600   5.394  10.824   1.185 -0.3237  0.2332  0.3591
  983MOL0     C32601   5.500  10.914   1.191  0.3248 -0.1391  0.4991
  983MOL0     C32602   5.493  11.048   1.232  0.3300  0.1914  0.1102
  983MOL0     C32603   5.614  11.118   1.232 -0.2810 -0.4935 -0.5249
  983MOL0     C32604   5.740  11.082   1.171  0.4970 -0.5842  0.6310
  983MOL0     O32605   5.846  11.169   1.188  0.0245  0.4387 -0.1647
  983MOL0     C32606   5.974  11.147   1.130 -0.2839  1.0004  0.2936
  983MOL0     C32607   5.997  11.240   1.014  0.4870 -0.9750  0.4480
  983MOL0     C32608   6.119  11.213   0.942 -0.5259 -0.5691 -0.0114
  983MOL0     C32609   6.195  11.332   0.879 -1.2468  0.2520 -0.3435
  983MOL0     C32610   6.321  11.275   0.805  0.2831  1.1431  0.2637
  983MOL0     C32611   6.405  11.398   0.761 -1.1534 -0.2446  0.3894
  983MOL0     C32612   6.505  11.357   0.649 -0.4153  1.0423  0.0675
  983MOL0     C32613   6.600  11.465   0.620 -0.0036  0.7242  0.7707
  983MOL0    Cl32614   6.724  11.419   0.504 -0.1538  0.0074 -0.2471
  983MOL0     C32615   5.731  10.953   1.110 -0.2536 -0.7097  0.1333
  983MOL0     C32616   5.612  10.871   1.115 -0.3009  0.1666 -1.4340
  983MOL0     O32617   5.321  10.893   1.389 -0.0982  0.4554 -0.2343
  983MOL0     C32618   5.183  10.615   1.196 -0.4575 -0.7618  0.2784
  983MOL0     C32619   5.079  10.521   1.188  0.5464 -0.6736  0.0147
  983MOL0     N32620   4.425  10.199   0.968  0.3529  0.7476 -0.0366
  983MOL0     N32621   4.343  10.098   0.973 -0.5852 -0.6134  0.2275
  983MOL0     C32622   3.536   9.359   0.567 -0.8778 -0.3369 -0.9071
  983MOL0     C32623   3.439   9.317   0.486 -0.3570 -0.6139  1.7792
  983MOL0     C32624   3.102   9.241   0.206  0.1235 -0.2119 -1.0241
  983MOL0     C32625   2.983   9.292   0.239 -0.6585  0.5691 -0.5617
  983MOL0     C32626   2.866   9.254   0.180  0.0023  0.1157  0.6276
  983MOL0     C32627   2.856   9.162   0.076  0.0084 -0.4266  1.1654
  983MOL0     O32628   2.736   9.115   0.026  0.6611 -0.3996  0.7936
  983MOL0     C32629   2.630   9.208  -0.005 -0.2199  0.4745 -0.9473
  983MOL0     C32630   2.516   9.136  -0.077  0.7517 -0.0759 -0.3463
  983MOL0     C32631   2.468   9.015   0.008 -0.4120  0.9322  0.2323
  983MOL0     C32632   2.342   8.953  -0.060  0.0884 -0.0263 -0.3911
  983MOL0     C32633   2.329   8.810  -0.026 -0.3938 -0.2233  1.0348
  983MOL0     C32634   2.318   8.691  -0.005 -0.4411 -0.4667  0.0013
  983MOL0     C32635   2.979   9.110   0.030 -0.3147 -0.0723 -0.3403
  983MOL0     C32636   3.101   9.142   0.096 -0.0282  0.8344  0.0254
  983MOL0     C32637   3.229   9.055   0.069 -0.1573 -0.0409 -0.2095
  983MOL0     H32638   3.209   9.549   0.544 -0.8696 -3.8386 -2.6426
  983MOL0     H32639   3.392   9.641   0.693 -0.6263  1.4329 -0.9776
  983MOL0     H32640   3.569   9.667   0.850 -0.7897  0.4258  1.6588
  983MOL0     H32641   3.471   9.525   0.892  0.0518 -0.3754 -2.2114
  983MOL0     H32642   3.687   9.417   0.974  1.7708  0.1346  4.4790
  983MOL0     H32643   3.617   9.556   1.062 -2.3187 -1.4692 -0.3620
  983MOL0     H32644   3.779   9.696   0.919 -0.8802 -1.3738 -0.9321
  983MOL0     H32645   3.869   9.552   0.890  2.3878  0.8625  1.6309
  983MOL0     H32646   3.808   9.648   1.170 -2.4781 -0.0709 -2.0710
  983MOL0     H32647   3.922   9.520   1.115  2.3204  0.7486 -2.6779
  983MOL0     H32648   4.047   9.707   1.168 -2.8346  1.6364  2.0876
  983MOL0     H32649   4.065   9.669   1.001 -0.0751 -2.2536  1.0503
  983MOL0     H32650   3.925   9.858   0.931 -2.6220 -2.1954  0.6556
  983MOL0     H32651   3.913   9.909   1.103  0.4311  0.3629 -0.2014
  983MOL0     H32652   4.083  10.050   0.956  0.9239  0.9981  0.4535
  983MOL0     H32653   4.176   9.904   0.932 -1.4335 -0.8795 -0.6488
  983MOL0     H32654   4.092  10.037   1.180  0.2955 -0.7524  1.3786
  983MOL0     H32655   4.219   9.907   1.189  2.2055  0.7830 -0.4785
  983MOL0     H32656   4.269  10.236   1.255  0.5922  2.3169 -1.2268
  983MOL0     H32657   4.393  10.487   1.058  1.0827 -1.6723 -2.9344
  983MOL0     H32658   4.379  10.432   1.218 -0.6343  1.9459 -0.7955
  983MOL0     H32659   4.628  10.405   1.046  2.0074  2.4519 -0.2138
  983MOL0     H32660   4.595  10.543   1.130  0.3089  0.4432 -3.4000
  983MOL0     H32661   4.667  10.281   1.234  0.9978 -0.6566 -2.6882
  983MOL0     H32662   4.554  10.372   1.343 -0.4530  1.5337 -1.1697
  983MOL0     H32663   4.773  10.426   1.426  0.3090  1.8213  0.4076
  983MOL0     H32664   4.733  10.560   1.320 -0.2590 -0.0641 -1.7828
  983MOL0     H32665   4.911  10.624   1.465  1.8482  1.0544  0.8195
  983MOL0     H32666   5.101  10.788   1.476  1.5242  0.3861 -1.1119
  983MOL0     H32667   5.408  11.095   1.281 -1.0533  0.4114 -2.3376
  983MOL0     H32668   5.595  11.222   1.257 -0.4666 -0.2499 -1.6348
  983MOL0     H32669   6.054  11.148   1.204 -0.4517 -1.6260  0.5960
  983MOL0     H32670   5.967  11.044   1.093 -4.8124  1.0013  0.5908
  983MOL0     H32671   5.918  11.225   0.939 -2.1753 -0.6157  3.0093
  983MOL0     H32672   5.996  11.344   1.049  0.9503 -1.6903  2.7517
  983MOL0     H32673   6.182  11.145   1.000  0.6756  0.0391 -0.5668
  983MOL0     H32674   6.095  11.158   0.851  1.6448  0.3870 -1.2334
  983MOL0     H32675   6.231  11.382   0.969 -2.3913 -1.5984  1.2335
  983MOL0     H32676   6.140  11.407   0.822 -1.5689  0.1081 -0.2264
  983MOL0     H32677   6.286  11.219   0.717  2.5854  1.1268 -0.7009
  983MOL0     H32678   6.383  11.210   0.866 -1.5155  1.2384  2.3141
  983MOL0     H32679   6.351  11.486   0.725  0.4513  0.2893 -0.8200
  983MOL0     H32680   6.469  11.433   0.843  1.3258 -1.0686 -1.0851
  983MOL0     H32681   6.447  11.333   0.559  0.9121  3.7651 -1.6489
  983MOL0     H32682   6.551  11.259   0.665  1.8804  1.8798 -0.9139
  983MOL0     H32683   6.539  11.549   0.585  0.9838  0.0511 -3.0020
  983MOL0     H32684   6.654  11.484   0.714 -0.4667 -2.8172  1.8964
  983MOL0     H32685   5.821  10.908   1.069  1.4670 -0.6874  3.4971
  983MOL0     H32686   5.603  10.777   1.061 -1.6073  0.3466 -1.5536
  983MOL0     H32687   5.260  10.602   1.121  0.2559  1.9870  0.4190
  983MOL0     H32688   5.070  10.443   1.113 -0.1080 -0.6823  0.0990
  983MOL0     H32689   3.629   9.304   0.569 -1.4108 -1.2304  0.5166
  983MOL0     H32690   3.452   9.225   0.429 -0.3904 -0.3381  1.3190
  983MOL0     H32691   2.982   9.365   0.319  2.9757 -0.3480  0.5187
  983MOL0     H32692   2.780   9.311   0.212 -0.1516 -0.1229  0.6405
  983MOL0     H32693   2.672   9.271  -0.084  0.4970  0.6923 -0.3992
  983MOL0     H32694   2.592   9.257   0.085 -0.8505  0.5117 -1.2288
  983MOL0     H32695   2.563   9.098  -0.169  2.2271  2.4034 -0.7161
  983MOL0     H32696   2.436   9.205  -0.105  0.5299 -0.5146 -0.8204
  983MOL0     H32697   2.431   9.055   0.103 -1.6034 -0.6093  0.4599
  983MOL0     H32698   2.554   8.952   0.033 -0.1421  1.2611  0.1470
  983MOL0     H32699   2.257   9.009  -0.020 -0.0963 -1.1260  0.8156
  983MOL0     H32700   2.353   8.958  -0.169  2.4863 -0.0092 -0.2142
  983MOL0     H32701   2.336   8.586  -0.002  1.4890 -0.1609  0.6281
  983MOL0     H32702   2.959   9.031  -0.042 -1.3826 -1.2846  1.2092
  983MOL0     H32703   3.200   8.963   0.017  1.7672 -0.9418  0.2451
  983MOL0     H32704   3.301   9.113   0.011  1.5467 -1.4312  0.4421
  983MOL0     H32705   3.274   9.012   0.159 -0.1370  0.7995  0.1959
  984MOL0     O32706   2.534   1.995   5.501 -0.0638 -0.2207  0.5059
  984MOL0     C32707   2.437   2.021   5.428 -0.4140  0.1689  0.7806
  984MOL0     O32708   2.416   1.975   5.299 -0.5332  0.5588 -0.5246
  984MOL0     C32709   2.506   1.892   5.250 -0.0970  0.2870  0.3184
  984MOL0     C32710   2.616   1.944   5.176  0.1479  0.0825 -0.0020
  984MOL0     C32711   2.712   1.856   5.134 -0.5944  0.3554  0.0151
  984MOL0     C32712   2.698   1.718   5.146 -0.2191  0.5790 -0.3385
  984MOL0     O32713   2.795   1.622   5.126 -0.8644 -0.0126  0.2999
  984MOL0     C32714   2.920   1.669   5.098  0.3032 -0.0718 -0.6637
  984MOL0     C32715   3.006   1.544   5.087 -0.2378  0.3021 -0.5009
  984MOL0     C32716   3.151   1.562   5.114  0.4176 -0.2833  0.1930
  984MOL0     C32717   3.222   1.443   5.052 -0.1709 -0.8737 -1.0533
  984MOL0     C32718   3.362   1.420   5.114 -0.9564 -0.3157 -0.2463
  984MOL0     C32719   3.451   1.306   5.057  0.8132  0.4742  0.2145
  984MOL0     C32720   3.481   1.321   4.912 -0.4334  0.2471  0.2061
  984MOL0     C32721   3.539   1.457   4.874 -0.3760 -0.2186 -0.7597
  984MOL0     N32722   3.598   1.474   4.737 -0.7379  0.5615 -0.1345
  984MOL0     C32723   3.584   1.585   4.655 -0.1658  0.1929  0.0070
  984MOL0     C32724   3.651   1.551   4.538 -0.3104  0.0567  0.1182
  984MOL0     C32725   3.672   1.636   4.416  0.6866 -0.2663  0.1452
  984MOL0     C32726   3.818   1.646   4.375  0.0016  0.1926  0.2908
  984MOL0     C32727   3.854   1.751   4.269  0.5422  1.0629 -0.5121
  984MOL0     C32728   3.995   1.762   4.251 -0.2566 -0.1147 -0.1514
  984MOL0     O32729   4.057   1.796   4.374 -0.2815  0.8278  0.4278
  984MOL0     C32730   4.193   1.807   4.386 -0.3192  1.1845  0.3864
  984MOL0     C32731   4.280   1.783   4.289  0.0916 -0.4242  0.4238
  984MOL0     C32732   4.412   1.771   4.298 -0.5700  0.3639 -0.1277
  984MOL0     C32733   4.472   1.786   4.425 -0.0889  0.4877  0.1728
  984MOL0     C32734   4.622   1.776   4.426 -0.0428  0.3609 -0.9785
  984MOL0     O32735   4.672   1.821   4.546 -0.1247  0.2550  0.3487
  984MOL0     C32736   4.809   1.836   4.546 -1.1817 -0.0392 -0.7333
  984MOL0     C32737   4.863   1.963   4.544 -0.4646  0.4457  0.5434
  984MOL0     C32738   5.002   1.978   4.553  0.7342 -0.1112 -0.4678
  984MOL0     C32739   5.085   1.867   4.573 -0.2465  0.2634 -0.7499
  984MOL0     O32740   5.223   1.885   4.569 -0.0161 -0.3770 -0.2489
  984MOL0     C32741   5.292   1.875   4.443  0.4392 -0.6889  0.3964
  984MOL0     C32742   5.437   1.880   4.468 -0.5179 -0.1639  0.2205
  984MOL0     C32743   5.524   1.897   4.339  0.0166 -0.0604  0.4253
  984MOL0     C32744   5.668   1.946   4.374 -0.0887 -0.1533 -0.4004
  984MOL0     C32745   5.741   1.955   4.235 -0.2353  0.1189  0.4929
  984MOL0     C32746   5.881   2.017   4.265 -0.1161  0.7116 -0.2604
  984MOL0     C32747   5.981   1.918   4.331 -0.2003 -0.6286 -0.0120
  984MOL0     C32748   6.116   1.977   4.384  0.6641 -0.1758  0.3925
  984MOL0    Cl32749   6.203   2.034   4.239  0.1262  0.3764  0.1841
  984MOL0     C32750   5.025   1.746   4.589 -0.7793  0.5376  0.0118
  984MOL0     C32751   4.887   1.725   4.575 -1.1135 -0.5399  0.3108
  984MOL0     O32752   4.682   1.753   4.327 -0.3248 -0.2189  0.0411
  984MOL0     C32753   4.382   1.819   4.527 -0.2732 -0.4427  0.2663
  984MOL0     C32754   4.241   1.822   4.513  0.2797 -0.5561 -0.2498
  984MOL0     N32755   3.696   1.416   4.550  0.4587 -0.6012  0.2850
  984MOL0     N32756   3.657   1.376   4.671 -0.4295  0.1173  0.1759
  984MOL0     C32757   2.587   1.664   5.210 -0.3070 -0.3786  0.2066
  984MOL0     C32758   2.485   1.756   5.255  0.4889  0.0114  0.0072
  984MOL0     C32759   2.332   2.111   5.475 -0.2921  0.2137 -0.5065
  984MOL0     C32760   2.253   2.178   5.379  0.0546  0.2606 -0.3911
  984MOL0     C32761   2.141   2.257   5.414 -0.2484  0.3216  0.7038
  984MOL0     C32762   2.107   2.277   5.542 -0.2181 -0.2348 -0.4800
  984MOL0     O32763   1.977   2.325   5.563 -0.4380  0.2655 -0.1998
  984MOL0     C32764   1.964   2.441   5.659  1.1182  0.4421  0.4423
  984MOL0     C32765   1.977   2.572   5.582 -0.1097 -1.1990 -0.5283
  984MOL0     C32766   1.837   2.638   5.543  0.0828 -0.1163  0.2709
  984MOL0     C32767   1.771   2.544   5.428  0.0350  0.2860  0.2303
  984MOL0     C32768   1.643   2.600   5.376 -0.0462 -0.2239  0.9183
  984MOL0     C32769   1.546   2.643   5.315  0.2327  0.2197  0.2983
  984MOL0     C32770   2.188   2.217   5.642  0.5091 -0.4430 -0.2517
  984MOL0     C32771   2.301   2.138   5.611 -0.1188  0.4719  0.0527
  984MOL0     C32772   2.347   2.051   5.721  0.2645  0.0132 -0.5306
  984MOL0     H32773   2.623   2.052   5.174 -0.1401  0.0891 -0.8646
  984MOL0     H32774   2.803   1.900   5.094  1.2320  0.5393  3.8502
  984MOL0     H32775   2.918   1.726   5.005  1.2655 -0.2694 -0.8160
  984MOL0     H32776   2.962   1.734   5.176  0.6601 -0.1945 -0.7516
  984MOL0     H32777   2.988   1.494   4.991  0.3008  0.8611 -0.9023
  984MOL0     H32778   2.975   1.482   5.172 -1.8451  1.7275 -0.0012
  984MOL0     H32779   3.163   1.564   5.222  1.5177  2.7253  0.0960
  984MOL0     H32780   3.190   1.658   5.080  3.2530 -1.1385  0.7212
  984MOL0     H32781   3.165   1.351   5.070  1.9935 -1.8226  1.8014
  984MOL0     H32782   3.231   1.468   4.946  2.1493  1.4856 -0.4172
  984MOL0     H32783   3.429   1.505   5.098  0.1424 -1.2961 -1.0778
  984MOL0     H32784   3.339   1.406   5.220 -0.4379 -2.2339 -0.3558
  984MOL0     H32785   3.546   1.325   5.108 -0.0152  4.5036  0.5881
  984MOL0     H32786   3.423   1.207   5.093 -4.2058  3.0334  4.7105
  984MOL0     H32787   3.399   1.298   4.843  1.9064 -2.5212 -1.8937
  984MOL0     H32788   3.563   1.254   4.887 -2.5112 -1.7492 -1.6911
  984MOL0     H32789   3.450   1.520   4.872  0.4613  1.2071  2.0583
  984MOL0     H32790   3.608   1.500   4.947  0.0062 -0.3404 -1.0458
  984MOL0     H32791   3.539   1.679   4.685  2.9551  1.1591  2.1342
  984MOL0     H32792   3.603   1.608   4.337 -0.4335 -0.6553  1.2274
  984MOL0     H32793   3.638   1.734   4.451 -0.4777 -0.4884 -0.3400
  984MOL0     H32794   3.878   1.656   4.466  1.1448 -4.3146  0.2589
  984MOL0     H32795   3.838   1.547   4.332  2.0592  0.0376  1.4703
  984MOL0     H32796   3.810   1.847   4.297 -1.9972 -0.0570 -0.4108
  984MOL0     H32797   3.815   1.721   4.171  3.7351  0.2567 -1.6510
  984MOL0     H32798   4.009   1.841   4.176  1.1897 -0.1097  0.1004
  984MOL0     H32799   4.033   1.673   4.200  0.9268  0.5224 -0.4213
  984MOL0     H32800   4.237   1.764   4.191  1.2112 -0.3660 -0.0929
  984MOL0     H32801   4.470   1.757   4.208 -1.2661 -2.6581 -0.1944
  984MOL0     H32802   4.794   2.044   4.524 -0.2312  0.8460  1.3081
  984MOL0     H32803   5.037   2.080   4.562  0.7336 -0.2924  3.3989
  984MOL0     H32804   5.264   1.789   4.381  2.6818 -0.0120 -1.7471
  984MOL0     H32805   5.264   1.963   4.384 -1.4142  0.0198  2.2284
  984MOL0     H32806   5.454   1.967   4.532  2.3131 -0.1213 -0.4520
  984MOL0     H32807   5.471   1.793   4.525  3.2867  0.3913 -0.9054
  984MOL0     H32808   5.525   1.799   4.289 -1.1336  0.0213  0.2189
  984MOL0     H32809   5.470   1.962   4.270 -1.5679 -0.3141  1.3575
  984MOL0     H32810   5.704   1.877   4.450 -3.1656 -0.5379  0.8493
  984MOL0     H32811   5.676   2.042   4.424  1.4942 -0.5901  0.2388
  984MOL0     H32812   5.689   2.016   4.161 -1.5488 -1.4229  0.0978
  984MOL0     H32813   5.741   1.858   4.184  1.1965 -0.3028  1.2528
  984MOL0     H32814   5.926   2.063   4.177 -0.1745  0.4215 -0.4444
  984MOL0     H32815   5.875   2.100   4.336  0.0543  2.0230 -1.7318
  984MOL0     H32816   6.012   1.840   4.261  3.9922  1.6814 -1.0840
  984MOL0     H32817   5.923   1.883   4.416 -0.0518  0.8840  0.7540
  984MOL0     H32818   6.087   2.055   4.455 -0.9351 -0.1559 -0.2325
  984MOL0     H32819   6.180   1.908   4.439  1.4000  1.0990  1.1674
  984MOL0     H32820   5.091   1.667   4.623  0.4312  0.1757 -2.8799
  984MOL0     H32821   4.848   1.625   4.591  0.9005 -0.8201  5.1943
  984MOL0     H32822   4.425   1.829   4.626  1.6702  0.2788 -0.6018
  984MOL0     H32823   4.166   1.849   4.587  0.7078  0.0173 -0.0194
  984MOL0     H32824   2.570   1.557   5.218 -0.5597 -0.3874 -0.3597
  984MOL0     H32825   2.390   1.726   5.298  0.6097 -0.5884 -0.1422
  984MOL0     H32826   2.286   2.181   5.275 -1.2334  1.0508 -0.8062
  984MOL0     H32827   2.088   2.302   5.330  1.2970  2.0244  0.5787
  984MOL0     H32828   2.033   2.427   5.743 -1.3962 -2.9808  2.2180
  984MOL0     H32829   1.860   2.443   5.693  0.8046  0.4650 -0.4742
  984MOL0     H32830   2.041   2.555   5.495  0.0774 -1.1407 -0.4026
  984MOL0     H32831   2.033   2.648   5.638  0.8647 -3.3178  1.5904
  984MOL0     H32832   1.855   2.739   5.507  0.7649  0.6000  2.4907
  984MOL0     H32833   1.772   2.647   5.630  1.4629  5.3934  1.0937
  984MOL0     H32834   1.843   2.533   5.347 -0.2574  1.2215 -0.1718
  984MOL0     H32835   1.742   2.445   5.465  1.5041 -0.7666 -1.3168
  984MOL0     H32836   1.469   2.685   5.254  0.4891 -0.7540 -0.7429
  984MOL0     H32837   2.161   2.229   5.747  2.2599  1.0254  0.0790
  984MOL0     H32838   2.369   1.945   5.700 -0.0019 -0.1622  0.0546
  984MOL0     H32839   2.443   2.092   5.751  0.3204 -0.7385  0.3467
  984MOL0     H32840   2.269   2.055   5.797  0.2967 -1.5696 -0.3684
  985MOL0     O32841   7.788   0.921   7.864  0.1292 -0.0909  0.1053
  985MOL0     C32842   7.701   0.832   7.853  0.4399  0.4064 -0.1530
  985MOL0     O32843   7.708   0.718   7.771  0.6463 -0.6864  0.1085
  985MOL0     C32844   7.797   0.713   7.676 -0.0940  0.3117 -0.6060
  985MOL0     C32845   7.850   0.821   7.603 -0.6661  0.0983 -0.6901
  985MOL0     C32846   7.945   0.797   7.501  0.1585 -0.4483  0.0982
  985MOL0     C32847   7.978   0.671   7.455 -0.0266  0.8141  0.2628
  985MOL0     O32848   8.084   0.642   7.367 -0.3740 -0.3921  0.3190
  985MOL0     C32849   8.039   0.615   7.238  0.3835  0.6846 -0.3802
  985MOL0     C32850   8.160   0.578   7.163 -0.5223 -0.4831  0.5204
  985MOL0     C32851   8.260   0.676   7.097 -0.5712  0.0572 -0.8282
  985MOL0     C32852   8.182   0.770   7.004 -0.2792 -0.1021  0.1939
  985MOL0     C32853   8.269   0.823   6.884  0.1875  1.3866 -0.1626
  985MOL0     C32854   8.273   0.728   6.763  0.1942  0.5643  0.3342
  985MOL0     C32855   8.358   0.793   6.657 -0.8327 -0.5530 -0.1986
  985MOL0     C32856   8.364   0.709   6.531  0.5323 -0.7415  0.2694
  985MOL0     N32857   8.232   0.715   6.461  0.2681 -0.1257  0.1909
  985MOL0     C32858   8.156   0.828   6.443 -0.2442 -0.2795  0.1408
  985MOL0     C32859   8.026   0.781   6.426 -0.0005 -0.7275 -0.7198
  985MOL0     C32860   7.907   0.877   6.427  0.2267  0.1469 -0.6928
  985MOL0     C32861   7.799   0.824   6.522  0.6310 -0.4492 -0.0619
  985MOL0     C32862   7.855   0.810   6.671 -0.8495 -0.3112  0.9167
  985MOL0     C32863   7.733   0.808   6.774 -1.2238 -0.1467 -0.2680
  985MOL0     O32864   7.790   0.815   6.904  0.1211  0.6571 -0.3561
  985MOL0     C32865   7.708   0.840   7.017  0.2208 -0.2529 -0.2961
  985MOL0     C32866   7.565   0.832   7.017  0.6602 -0.2919  1.0070
  985MOL0     C32867   7.501   0.837   7.134  0.2276  1.0272 -0.9104
  985MOL0     C32868   7.573   0.858   7.255 -1.1033  0.5275  0.7715
  985MOL0     C32869   7.506   0.858   7.386  0.0144 -0.4461  0.4629
  985MOL0     O32870   7.374   0.818   7.395 -0.0104 -0.4982  0.1742
  985MOL0     C32871   7.296   0.859   7.502 -1.0156  0.0911 -0.5214
  985MOL0     C32872   7.186   0.928   7.480 -0.6967 -0.3286  0.6009
  985MOL0     C32873   7.101   0.961   7.579  0.3915  0.2452 -0.6676
  985MOL0     C32874   7.123   0.927   7.718 -0.0289  0.6691 -0.2053
  985MOL0     O32875   7.057   0.973   7.833 -0.2320 -0.0697 -0.0939
  985MOL0     C32876   6.970   1.091   7.828 -0.2560 -0.3592  0.6504
  985MOL0     C32877   6.822   1.065   7.783  0.6809  0.7879 -0.7361
  985MOL0     C32878   6.734   0.988   7.886 -1.2192  0.5668 -0.0627
  985MOL0     C32879   6.585   0.977   7.853  0.3432  0.4642  0.6028
  985MOL0     C32880   6.510   0.913   7.964 -0.2562 -0.2929 -1.0786
  985MOL0     C32881   6.366   0.878   7.921 -0.5007 -0.0293  0.6561
  985MOL0     C32882   6.289   0.789   8.018  0.1944 -0.4607 -0.0426
  985MOL0     C32883   6.265   0.649   7.969 -0.0577 -0.3085 -0.4047
  985MOL0    Cl32884   6.196   0.555   8.108 -0.0365  0.2941  0.2361
  985MOL0     C32885   7.238   0.845   7.744 -0.0092  0.6633  0.2847
  985MOL0     C32886   7.321   0.811   7.631 -0.1053  0.3808  0.1872
  985MOL0     O32887   7.573   0.898   7.478  0.6466 -0.0632 -0.0278
  985MOL0     C32888   7.708   0.876   7.251 -0.0154  0.8347 -0.1267
  985MOL0     C32889   7.775   0.875   7.134 -0.9708 -0.0104 -0.4469
  985MOL0     N32890   8.030   0.643   6.426 -0.3542  0.3571 -0.2208
  985MOL0     N32891   8.150   0.602   6.446  0.4514 -0.0605  0.7008
  985MOL0     C32892   7.920   0.569   7.524 -0.7287  0.1362 -0.7758
  985MOL0     C32893   7.834   0.586   7.628  0.0836 -0.1992 -0.4824
  985MOL0     C32894   7.595   0.843   7.947 -0.3858 -0.1293 -0.3807
  985MOL0     C32895   7.557   0.732   8.028  0.0126  0.6434 -0.0514
  985MOL0     C32896   7.447   0.754   8.117  0.0029  0.8875 -0.1969
  985MOL0     C32897   7.382   0.875   8.130  0.5636 -0.5466 -0.0055
  985MOL0     O32898   7.271   0.905   8.204  0.0934  0.2020  0.4921
  985MOL0     C32899   7.182   0.797   8.232  0.3413  0.3634 -0.0560
  985MOL0     C32900   7.104   0.737   8.110  0.1712 -0.2889 -0.1743
  985MOL0     C32901   6.985   0.641   8.160 -0.9417  0.2503  0.5306
  985MOL0     C32902   6.854   0.709   8.176  0.1332  0.1223  0.2419
  985MOL0     C32903   6.846   0.837   8.251  0.3604  0.6150 -0.8491
  985MOL0     C32904   6.820   0.941   8.307  0.5997  0.8540 -0.2600
  985MOL0     C32905   7.432   0.985   8.071  0.5994  0.7685  0.3922
  985MOL0     C32906   7.522   0.972   7.969 -0.0457 -0.7715 -0.3839
  985MOL0     C32907   7.536   1.091   7.872  0.1472 -0.7496 -0.0873
  985MOL0     H32908   7.828   0.924   7.625  1.2621  0.2588  0.7318
  985MOL0     H32909   7.994   0.879   7.450  1.1590 -1.4328 -0.5596
  985MOL0     H32910   7.961   0.539   7.239  0.9442  0.0146 -2.4876
  985MOL0     H32911   7.989   0.709   7.211  3.5355  3.1015  1.4677
  985MOL0     H32912   8.126   0.531   7.070  4.3824  1.2475 -2.5376
  985MOL0     H32913   8.216   0.507   7.224  1.6294  0.3739 -0.3643
  985MOL0     H32914   8.335   0.632   7.030 -1.4050 -3.2014  0.2033
  985MOL0     H32915   8.322   0.732   7.168 -1.4382  0.0778 -0.0681
  985MOL0     H32916   8.095   0.715   6.965 -1.4684 -0.2026  2.7094
  985MOL0     H32917   8.128   0.851   7.055  0.9208  1.5802 -1.1249
  985MOL0     H32918   8.230   0.919   6.849  0.9859  0.7636 -2.9428
  985MOL0     H32919   8.368   0.842   6.929  0.6681  0.7168 -0.9142
  985MOL0     H32920   8.316   0.632   6.792 -0.3379  1.1418  3.3765
  985MOL0     H32921   8.169   0.725   6.728 -0.7480  3.3703  2.4657
  985MOL0     H32922   8.452   0.803   6.711 -1.7143 -1.2592  1.5590
  985MOL0     H32923   8.313   0.887   6.624 -2.8280 -1.2571  0.3596
  985MOL0     H32924   8.439   0.747   6.461 -0.0129 -2.6970 -1.4718
  985MOL0     H32925   8.378   0.603   6.553 -0.6012 -0.7243  1.1661
  985MOL0     H32926   8.176   0.933   6.462 -2.6937 -0.1318  2.6349
  985MOL0     H32927   7.938   0.971   6.473 -0.9042  0.8229 -1.2698
  985MOL0     H32928   7.872   0.896   6.325 -1.5916 -0.8831 -0.3100
  985MOL0     H32929   7.711   0.888   6.521 -0.8292 -2.0032  4.4887
  985MOL0     H32930   7.766   0.726   6.488 -1.6443  0.8458 -1.8658
  985MOL0     H32931   7.911   0.904   6.681  2.9643 -2.3539  0.6921
  985MOL0     H32932   7.934   0.737   6.689 -0.0554  0.4588  0.6617
  985MOL0     H32933   7.678   0.715   6.754 -0.2244 -0.9522  0.6654
  985MOL0     H32934   7.657   0.886   6.759 -2.0477 -0.8477  0.1640
  985MOL0     H32935   7.514   0.816   6.923  0.5396  0.6500  0.9044
  985MOL0     H32936   7.393   0.825   7.132  0.3366 -0.4206 -4.4433
  985MOL0     H32937   7.168   0.938   7.373  3.6391  1.2236 -0.2105
  985MOL0     H32938   7.015   1.015   7.542  1.9577  2.4126 -1.4136
  985MOL0     H32939   6.965   1.130   7.930 -2.1363 -0.1543  0.5031
  985MOL0     H32940   7.003   1.175   7.766 -2.7069  1.7334  2.0287
  985MOL0     H32941   6.784   1.167   7.771 -3.8734 -0.4392  1.3727
  985MOL0     H32942   6.813   1.013   7.687  0.5781 -2.2830  0.8190
  985MOL0     H32943   6.785   0.891   7.883  1.8299  1.9343  2.1869
  985MOL0     H32944   6.752   1.026   7.987  1.0832  0.2786 -0.3093
  985MOL0     H32945   6.585   0.901   7.774  0.9634 -0.6276  1.6270
  985MOL0     H32946   6.542   1.073   7.823 -1.1518 -0.9129 -2.0587
  985MOL0     H32947   6.516   0.973   8.055 -3.5855 -1.6232  0.1894
  985MOL0     H32948   6.564   0.821   7.987 -0.2442 -0.3503 -1.3312
  985MOL0     H32949   6.311   0.971   7.902 -0.9376 -0.1739  1.2136
  985MOL0     H32950   6.370   0.838   7.819 -1.4652  1.0463  0.1776
  985MOL0     H32951   6.196   0.834   8.054  0.0767 -1.1050  0.4794
  985MOL0     H32952   6.348   0.780   8.110  3.8525  0.2183 -2.1093
  985MOL0     H32953   6.193   0.665   7.888  2.2371  1.0468 -2.3158
  985MOL0     H32954   6.356   0.602   7.930  0.3775 -0.3923  0.7000
  985MOL0     H32955   7.281   0.822   7.841 -2.5844  0.7205  1.5347
  985MOL0     H32956   7.412   0.754   7.646 -0.6776 -1.1267 -1.6270
  985MOL0     H32957   7.766   0.905   7.338  1.6100  2.2617 -1.5968
  985MOL0     H32958   7.881   0.891   7.122 -0.9239  0.7894  0.8211
  985MOL0     H32959   7.950   0.474   7.482  1.6123  1.1730 -1.6115
  985MOL0     H32960   7.797   0.496   7.677  2.6832 -0.7934  0.5708
  985MOL0     H32961   7.597   0.632   8.016 -1.4483 -0.0106  0.2255
  985MOL0     H32962   7.418   0.664   8.170  0.0660  1.0204  0.0624
  985MOL0     H32963   7.118   0.847   8.304  3.2644  1.5766  1.8846
  985MOL0     H32964   7.241   0.718   8.280  1.6221  0.9552 -0.6009
  985MOL0     H32965   7.175   0.684   8.047  1.6672  3.6386 -2.1119
  985MOL0     H32966   7.060   0.820   8.054 -2.4139  0.8829  3.2131
  985MOL0     H32967   7.016   0.582   8.246  3.0683  0.1798 -0.7641
  985MOL0     H32968   6.978   0.570   8.076 -0.3232 -1.1371  1.6110
  985MOL0     H32969   6.831   0.726   8.070  1.5279  0.9426  0.0433
  985MOL0     H32970   6.781   0.640   8.220  0.9606 -0.7078  0.3264
  985MOL0     H32971   6.807   1.031   8.364 -1.5749  1.4166 -1.5550
  985MOL0     H32972   7.378   1.078   8.082  1.7095  1.4043  0.5897
  985MOL0     H32973   7.478   1.180   7.900 -0.5049 -1.1724 -0.0618
  985MOL0     H32974   7.641   1.117   7.857  0.6768 -2.7264 -0.1012
  985MOL0     H32975   7.498   1.064   7.773 -1.3768  1.9654 -0.3273
  986MOL0     O32976   2.979   1.300   7.009  0.0512  0.2384 -0.3187
  986MOL0     C32977   2.901   1.243   7.080  0.3652  0.1096 -0.2895
  986MOL0     O32978   2.926   1.205   7.207  0.0299 -0.9037 -0.0978
  986MOL0     C32979   3.052   1.232   7.264  0.8681  0.5284 -0.3727
  986MOL0     C32980   3.068   1.331   7.360  0.8301 -0.6775  0.0935
  986MOL0     C32981   3.190   1.368   7.418  0.4320 -0.5409  0.3034
  986MOL0     C32982   3.310   1.295   7.389  0.0261  0.4830 -0.2297
  986MOL0     O32983   3.430   1.318   7.458 -0.5249 -0.4275 -0.4952
  986MOL0     C32984   3.540   1.236   7.410  0.1850 -0.2205 -0.3477
  986MOL0     C32985   3.676   1.290   7.467 -0.9136 -0.1391  0.2870
  986MOL0     C32986   3.792   1.283   7.356  0.1848 -0.5000 -0.3946
  986MOL0     C32987   3.935   1.334   7.393 -0.9514 -0.1381 -0.1540
  986MOL0     C32988   4.039   1.322   7.282  0.7021  0.5894  0.6734
  986MOL0     C32989   4.102   1.182   7.285  0.4294  0.6806 -0.0072
  986MOL0     C32990   4.205   1.156   7.182 -1.1533 -0.0802 -0.6578
  986MOL0     C32991   4.333   1.231   7.226 -0.5992 -1.2222 -0.6269
  986MOL0     N32992   4.444   1.214   7.129  0.2805 -0.0523  1.2320
  986MOL0     C32993   4.535   1.107   7.125  1.1255 -1.2006 -0.3083
  986MOL0     C32994   4.632   1.147   7.042 -0.4445 -1.2479 -0.0482
  986MOL0     C32995   4.757   1.077   7.001  0.3188 -0.9742  0.6479
  986MOL0     C32996   4.821   1.002   7.117 -0.2067  0.0337  0.1959
  986MOL0     C32997   4.894   1.099   7.210  0.5337 -0.0758 -0.1088
  986MOL0     C32998   5.025   1.142   7.155  0.3561 -0.1296 -0.7492
  986MOL0     O32999   5.118   1.027   7.167  0.1802  0.2485 -0.6578
  986MOL0     C33000   5.208   1.016   7.069 -0.2158  1.2161  0.3335
  986MOL0     C33001   5.270   1.118   7.003  0.7568  0.5594 -0.6991
  986MOL0     C33002   5.378   1.096   6.910  0.3481 -0.3486 -0.6312
  986MOL0     C33003   5.435   0.967   6.898 -0.5140 -0.2739 -0.4692
  986MOL0     C33004   5.556   0.936   6.812  0.1549 -0.3660 -0.5892
  986MOL0     O33005   5.563   0.998   6.696 -0.2328 -0.8328 -0.4137
  986MOL0     C33006   5.676   0.966   6.627 -0.9843 -0.2167  0.2352
  986MOL0     C33007   5.680   0.882   6.523 -0.4405  0.6256 -0.1082
  986MOL0     C33008   5.801   0.857   6.451 -0.6637 -0.0691 -0.5182
  986MOL0     C33009   5.922   0.920   6.489 -0.6604 -0.6047  0.3239
  986MOL0     O33010   6.044   0.901   6.428 -0.5469  0.0025 -0.4202
  986MOL0     C33011   6.069   0.775   6.371 -0.7132  0.3019  0.6944
  986MOL0     C33012   6.213   0.780   6.321  0.1250  0.7899 -0.2284
  986MOL0     C33013   6.324   0.714   6.414  0.2309 -0.4348  0.7845
  986MOL0     C33014   6.467   0.716   6.346  0.9008  0.0715 -1.2366
  986MOL0     C33015   6.580   0.713   6.445  0.4021 -0.0921 -0.1165
  986MOL0     C33016   6.722   0.687   6.377  0.3895  0.4062  0.1608
  986MOL0     C33017   6.837   0.692   6.480  0.2733 -0.1497  0.2887
  986MOL0     C33018   6.980   0.668   6.425 -0.5029  0.5813  0.1314
  986MOL0    Cl33019   7.052   0.796   6.312 -0.2997  0.1347 -0.8641
  986MOL0     C33020   5.923   1.007   6.593 -0.3999  0.5166 -0.5122
  986MOL0     C33021   5.800   1.030   6.662 -0.3713  0.5028 -0.0755
  986MOL0     O33022   5.631   0.848   6.858  0.5330  0.4260 -0.1860
  986MOL0     C33023   5.384   0.869   6.984  0.1729 -0.4074 -0.3702
  986MOL0     C33024   5.272   0.889   7.061  0.0983 -0.0450  0.3133
  986MOL0     N33025   4.591   1.275   6.989  0.2045  0.0009  0.3546
  986MOL0     N33026   4.489   1.321   7.055  0.0572 -0.2869  0.4492
  986MOL0     C33027   3.287   1.180   7.304 -0.0122  0.2088 -0.8805
  986MOL0     C33028   3.164   1.156   7.243 -0.1765  0.3885  0.1840
  986MOL0     C33029   2.765   1.235   7.028  0.2206  0.8513 -0.0852
  986MOL0     C33030   2.753   1.236   6.882 -0.0360 -0.0950 -0.4626
  986MOL0     C33031   2.624   1.212   6.829 -0.2771 -0.6315  1.1591
  986MOL0     C33032   2.509   1.193   6.908  0.3794 -0.4899 -0.2081
  986MOL0     O33033   2.397   1.181   6.831 -0.6759 -0.7294  0.2571
  986MOL0     C33034   2.279   1.164   6.908  0.7845  0.6456 -0.9688
  986MOL0     C33035   2.157   1.161   6.819  0.1638 -0.3827  0.0196
  986MOL0     C33036   2.162   1.059   6.704  0.4742  0.3262 -0.1344
  986MOL0     C33037   2.041   1.045   6.608 -0.3198 -0.1508  0.3222
  986MOL0     C33038   1.921   1.011   6.676 -0.6549 -0.1127  0.5193
  986MOL0     C33039   1.818   0.964   6.722 -0.3915  0.0302  0.4573
  986MOL0     C33040   2.525   1.193   7.051 -0.1948 -0.2549 -0.7126
  986MOL0     C33041   2.647   1.212   7.108  0.2737 -0.4176 -0.1507
  986MOL0     C33042   2.646   1.209   7.253 -0.0651  0.4768  0.2204
  986MOL0     H33043   2.987   1.396   7.392  0.0850 -1.7888  0.4980
  986MOL0     H33044   3.186   1.446   7.494 -2.7034  0.5542 -0.8265
  986MOL0     H33045   3.527   1.130   7.434  1.2189 -0.3336 -0.2568
  986MOL0     H33046   3.534   1.239   7.300  0.8873 -1.7524 -0.4644
  986MOL0     H33047   3.696   1.228   7.555 -0.3128  0.8828  0.8809
  986MOL0     H33048   3.655   1.395   7.490 -2.0909 -0.4007  0.4570
  986MOL0     H33049   3.761   1.343   7.269  0.3852  2.0083  1.1484
  986MOL0     H33050   3.793   1.176   7.334 -3.7991 -1.0904  1.4766
  986MOL0     H33051   3.924   1.439   7.421 -3.6114 -0.0441 -1.2823
  986MOL0     H33052   3.972   1.276   7.478 -0.9334 -0.2858 -0.2623
  986MOL0     H33053   3.975   1.341   7.195  0.8526  0.0352  0.4377
  986MOL0     H33054   4.111   1.403   7.293  1.3288  0.0862  0.3125
  986MOL0     H33055   4.137   1.166   7.387  0.7425  0.8007 -0.0929
  986MOL0     H33056   4.022   1.108   7.274  0.9579  0.0804  0.0618
  986MOL0     H33057   4.168   1.183   7.082 -0.6994  2.4546 -0.2050
  986MOL0     H33058   4.232   1.050   7.186  1.1735  0.3789 -2.1164
  986MOL0     H33059   4.314   1.338   7.245 -0.1226 -0.6601 -2.9810
  986MOL0     H33060   4.372   1.195   7.321 -1.8512  1.9850  1.2538
  986MOL0     H33061   4.521   1.014   7.180 -1.3304 -1.5921 -1.4511
  986MOL0     H33062   4.733   1.000   6.927  0.5680 -0.2302 -0.2189
  986MOL0     H33063   4.821   1.148   6.949  0.2851 -3.0976 -2.5868
  986MOL0     H33064   4.747   0.943   7.171 -0.2555 -0.4324 -0.3648
  986MOL0     H33065   4.908   0.944   7.084  1.6129  1.4940  2.1764
  986MOL0     H33066   4.911   1.050   7.306 -2.4063  1.7200  1.4504
  986MOL0     H33067   4.826   1.182   7.229  0.0165  0.1452 -2.5263
  986MOL0     H33068   5.070   1.225   7.210  1.3376 -1.6990  0.9588
  986MOL0     H33069   5.004   1.171   7.052  1.9070  3.5077 -0.1826
  986MOL0     H33070   5.245   1.222   7.019 -1.4448 -0.0258 -0.0256
  986MOL0     H33071   5.410   1.183   6.853 -1.8617 -0.1964 -1.7057
  986MOL0     H33072   5.595   0.823   6.491 -0.2351 -0.9513  1.9881
  986MOL0     H33073   5.799   0.780   6.375 -0.1789 -1.2975  0.6627
  986MOL0     H33074   6.060   0.685   6.432  2.8196 -2.4852 -2.3953
  986MOL0     H33075   6.018   0.754   6.276  2.9004  0.8091 -1.5689
  986MOL0     H33076   6.214   0.715   6.233  2.0218 -1.2858  1.2131
  986MOL0     H33077   6.250   0.875   6.283  0.6733  1.0573  0.9070
  986MOL0     H33078   6.325   0.772   6.507  1.1928  1.4343 -0.3425
  986MOL0     H33079   6.313   0.607   6.437 -0.3210 -0.6571 -0.4227
  986MOL0     H33080   6.484   0.807   6.287  2.6346  2.0135  2.0028
  986MOL0     H33081   6.484   0.626   6.285  1.6675 -2.0635  1.9030
  986MOL0     H33082   6.558   0.653   6.534 -0.3970 -1.3417 -1.1173
  986MOL0     H33083   6.583   0.814   6.487 -0.3496  1.0705 -2.6671
  986MOL0     H33084   6.723   0.589   6.329  1.2941  2.5172 -4.7277
  986MOL0     H33085   6.745   0.753   6.293 -1.3705 -1.8837 -2.3162
  986MOL0     H33086   6.823   0.616   6.557 -1.9946  0.2177  0.3154
  986MOL0     H33087   6.836   0.783   6.542 -2.7619  1.6668 -2.1081
  986MOL0     H33088   7.053   0.662   6.505  1.0781 -0.8667 -1.3294
  986MOL0     H33089   6.975   0.568   6.380 -0.5210  0.9117 -0.6217
  986MOL0     H33090   6.008   1.061   6.633 -1.6971  2.4375 -0.1688
  986MOL0     H33091   5.804   1.109   6.736  2.6719 -1.6230  2.2986
  986MOL0     H33092   5.427   0.770   6.973  1.4377  0.0912 -0.0733
  986MOL0     H33093   5.241   0.805   7.122 -0.6599 -0.1720 -0.2500
  986MOL0     H33094   3.364   1.104   7.293  0.0034 -0.5715  3.1224
  986MOL0     H33095   3.152   1.064   7.187 -1.1739 -0.3127  1.4814
  986MOL0     H33096   2.832   1.244   6.808 -0.2487  1.3209 -0.5557
  986MOL0     H33097   2.605   1.212   6.722  2.1509  0.5666  0.6576
  986MOL0     H33098   2.265   1.255   6.966 -3.3242  0.5487 -1.5175
  986MOL0     H33099   2.293   1.078   6.975  0.0250 -0.3852 -2.0746
  986MOL0     H33100   2.132   1.263   6.787 -0.0765 -0.6709 -0.7481
  986MOL0     H33101   2.075   1.130   6.884  0.6118  2.0824  1.8867
  986MOL0     H33102   2.185   0.961   6.748  0.5034 -0.5934 -2.0847
  986MOL0     H33103   2.245   1.079   6.636 -0.9506  0.8859 -1.7947
  986MOL0     H33104   2.018   1.144   6.568 -0.3403 -1.8555 -4.6784
  986MOL0     H33105   2.063   0.973   6.528 -1.2544 -1.1919  0.9702
  986MOL0     H33106   1.726   0.930   6.766 -1.0561  1.1544 -0.0130
  986MOL0     H33107   2.437   1.168   7.110 -0.2638 -3.1270 -1.8432
  986MOL0     H33108   2.687   1.110   7.278  0.0692 -0.4035 -3.0983
  986MOL0     H33109   2.697   1.296   7.295 -1.4930  2.0246 -1.0798
  986MOL0     H33110   2.544   1.208   7.294  0.3002 -0.7730  1.1787
  987MOL0     O33111   9.286   9.187   1.924  0.0565 -0.6570 -0.3906
  987MOL0     C33112   9.218   9.233   2.013  0.4709 -0.4131 -0.3584
  987MOL0     O33113   9.268   9.319   2.114 -0.2104  0.7506  0.1316
  987MOL0     C33114   9.401   9.289   2.148  0.5700 -0.3618 -0.2093
  987MOL0     C33115   9.489   9.389   2.100 -0.2109  0.7624 -0.2497
  987MOL0     C33116   9.618   9.370   2.136 -0.4302  1.0743 -0.0988
  987MOL0     C33117   9.665   9.262   2.213 -0.1078 -0.0512 -0.5421
  987MOL0     O33118   9.804   9.250   2.224 -0.5700  0.7577 -0.9232
  987MOL0     C33119   9.864   9.168   2.330 -0.3838 -0.0729  0.4033
  987MOL0     C33120  10.015   9.156   2.300 -0.8684  0.1821  0.4886
  987MOL0     C33121  10.099   9.287   2.301  0.2637  0.2805  0.2154
  987MOL0     C33122  10.245   9.267   2.264  0.0128  0.0432  0.1326
  987MOL0     C33123  10.314   9.167   2.363 -0.3339 -0.1405 -1.4238
  987MOL0     C33124  10.311   9.192   2.514 -0.2332 -0.0389 -0.6648
  987MOL0     C33125  10.340   9.342   2.553  1.3308 -0.2970  0.0087
  987MOL0     C33126  10.480   9.391   2.518  0.4490 -0.2295 -0.1434
  987MOL0     N33127  10.574   9.317   2.607  0.1198  0.2768 -0.5917
  987MOL0     C33128  10.671   9.239   2.549 -0.1570 -0.0932  1.1795
  987MOL0     C33129  10.763   9.236   2.642  0.2257  0.6968 -0.3150
  987MOL0     C33130  10.894   9.178   2.619 -0.4897  0.0111 -0.2122
  987MOL0     C33131  11.002   9.288   2.643  0.1473  0.1161  0.1074
  987MOL0     C33132  11.035   9.321   2.792 -0.4797  0.3098  0.6267
  987MOL0     C33133  11.062   9.195   2.879 -0.4180 -0.5304 -0.1596
  987MOL0     O33134  11.143   9.095   2.816 -0.0890  0.1423 -0.2147
  987MOL0     C33135  11.263   9.131   2.758  1.1129 -0.9916 -0.6811
  987MOL0     C33136  11.338   9.243   2.802 -0.9872  0.5618 -0.7552
  987MOL0     C33137  11.454   9.288   2.738 -0.0327 -0.1634  0.5666
  987MOL0     C33138  11.498   9.213   2.625 -0.2142  0.1025  0.2649
  987MOL0     C33139  11.628   9.251   2.558  0.2594  0.0566 -0.6272
  987MOL0     O33140  11.708   9.346   2.624 -0.5483  0.0868  0.1045
  987MOL0     C33141  11.834   9.359   2.575  0.4069 -0.2830  0.4219
  987MOL0     C33142  11.936   9.313   2.652 -1.0597  0.2195  0.6977
  987MOL0     C33143  12.069   9.329   2.606 -0.4466  0.4267 -0.8945
  987MOL0     C33144  12.104   9.380   2.485 -1.1230  0.2886 -1.6392
  987MOL0     O33145  12.239   9.387   2.448 -0.0219 -0.1831 -0.5231
  987MOL0     C33146  12.266   9.443   2.314 -0.3500 -0.5592  0.3337
  987MOL0     C33147  12.416   9.430   2.300  0.7084  0.1961 -0.1945
  987MOL0     C33148  12.468   9.503   2.182  0.3251 -0.5460 -0.1309
  987MOL0     C33149  12.534   9.627   2.226 -0.2181  0.8300  0.0965
  987MOL0     C33150  12.645   9.662   2.125  0.5015 -0.0161  0.6268
  987MOL0     C33151  12.712   9.791   2.169  0.0447 -0.1556 -0.6995
  987MOL0     C33152  12.837   9.824   2.093 -0.9495 -0.1443  0.8535
  987MOL0     C33153  12.940   9.913   2.176 -1.0406 -0.3784  0.2295
  987MOL0    Cl33154  13.106   9.877   2.116 -0.1985 -0.1627  0.3343
  987MOL0     C33155  11.994   9.423   2.407 -0.2056 -1.2638 -0.2064
  987MOL0     C33156  11.863   9.411   2.448  0.6924 -0.8178  0.4246
  987MOL0     O33157  11.665   9.184   2.463  0.9330  0.0755  0.0764
  987MOL0     C33158  11.418   9.116   2.571  0.2760 -0.6727  0.2257
  987MOL0     C33159  11.299   9.074   2.638 -0.5856  0.1373  0.5947
  987MOL0     N33160  10.718   9.286   2.762  0.2145  0.1597  0.4024
  987MOL0     N33161  10.613   9.347   2.731 -1.0347  0.6077 -0.4230
  987MOL0     C33162   9.578   9.166   2.250 -0.3790 -0.5681  0.3134
  987MOL0     C33163   9.441   9.171   2.218 -1.0079  0.5854  0.0251
  987MOL0     C33164   9.070   9.223   1.984  0.3840 -0.5508  0.6783
  987MOL0     C33165   9.020   9.165   1.861  0.0586  0.7654 -0.0725
  987MOL0     C33166   8.881   9.156   1.829 -0.7751  0.0232  0.0492
  987MOL0     C33167   8.786   9.212   1.906  0.5010  0.0405  0.0121
  987MOL0     O33168   8.652   9.243   1.881 -0.8641  0.4916  0.0242
  987MOL0     C33169   8.599   9.194   1.754  0.1147  0.6132 -0.8799
  987MOL0     C33170   8.452   9.247   1.748  0.4114  0.3567  0.0944
  987MOL0     C33171   8.402   9.198   1.612 -0.8450 -0.3058 -0.5534
  987MOL0     C33172   8.251   9.214   1.604 -0.8922 -0.5531  0.5345
  987MOL0     C33173   8.180   9.161   1.719 -0.2025  0.2613 -0.0061
  987MOL0     C33174   8.127   9.106   1.811 -0.4083  0.7128 -0.4316
  987MOL0     C33175   8.832   9.268   2.026  0.1984 -0.3021  0.1108
  987MOL0     C33176   8.969   9.285   2.061  0.7504 -0.6820  0.2442
  987MOL0     C33177   8.985   9.343   2.203 -0.2374  0.7063 -0.0030
  987MOL0     H33178   9.458   9.479   2.049  2.0776  2.1964  0.6855
  987MOL0     H33179   9.694   9.439   2.101  2.0920 -0.6381  1.7017
  987MOL0     H33180   9.847   9.223   2.423  0.3802 -0.0373  0.5270
  987MOL0     H33181   9.828   9.064   2.333  4.1662 -1.8637  1.8795
  987MOL0     H33182  10.024   9.108   2.202 -0.4682 -0.4023  0.8046
  987MOL0     H33183  10.058   9.097   2.382 -2.6137 -0.6402  0.8787
  987MOL0     H33184  10.079   9.337   2.396  1.4431  0.3976  0.4166
  987MOL0     H33185  10.064   9.359   2.226  3.5906  0.3384 -1.5002
  987MOL0     H33186  10.247   9.249   2.156  1.7841  2.3458 -0.2831
  987MOL0     H33187  10.295   9.364   2.262  1.4095 -0.6518 -1.2354
  987MOL0     H33188  10.266   9.071   2.345 -0.8384 -0.1308 -0.2046
  987MOL0     H33189  10.418   9.165   2.330  0.3042  2.4321  0.1509
  987MOL0     H33190  10.206   9.187   2.545  0.4958 -0.6633  1.9113
  987MOL0     H33191  10.370   9.121   2.573  0.5817 -0.1386 -1.5642
  987MOL0     H33192  10.325   9.349   2.661  0.3330 -3.5899  0.1999
  987MOL0     H33193  10.276   9.413   2.501  0.1500 -0.8044  0.7255
  987MOL0     H33194  10.511   9.382   2.414  0.3345  1.6649 -0.3855
  987MOL0     H33195  10.495   9.497   2.543 -0.2122 -0.1483 -0.0531
  987MOL0     H33196  10.674   9.215   2.443 -0.2717  3.4364  0.2500
  987MOL0     H33197  10.929   9.087   2.669 -1.2990 -1.3350 -1.9548
  987MOL0     H33198  10.900   9.153   2.513  1.0394  3.9813 -1.2375
  987MOL0     H33199  11.092   9.260   2.589  1.3536  2.1590  0.9199
  987MOL0     H33200  10.962   9.378   2.595  1.9263  0.5347 -0.6677
  987MOL0     H33201  10.954   9.380   2.837 -0.4719  1.1519 -0.4308
  987MOL0     H33202  11.126   9.381   2.791 -0.3932  0.1802  0.0665
  987MOL0     H33203  10.970   9.144   2.911  0.0725 -1.5398 -0.3323
  987MOL0     H33204  11.099   9.245   2.969 -1.6707  0.7905 -0.3274
  987MOL0     H33205  11.307   9.282   2.899  1.7462  0.2254  0.3427
  987MOL0     H33206  11.518   9.363   2.784  0.0645  0.1424 -0.0460
  987MOL0     H33207  11.905   9.271   2.747 -1.1540 -2.1619 -0.3193
  987MOL0     H33208  12.147   9.304   2.676  0.4871  1.4380 -1.5406
  987MOL0     H33209  12.211   9.397   2.231 -1.1195 -0.3390  0.7153
  987MOL0     H33210  12.235   9.547   2.330  0.0559 -0.4073  0.1698
  987MOL0     H33211  12.455   9.461   2.397  0.0155  2.4627 -0.5821
  987MOL0     H33212  12.438   9.327   2.271 -0.3834  0.4521 -2.1552
  987MOL0     H33213  12.535   9.436   2.127 -0.1344 -1.4563  0.3945
  987MOL0     H33214  12.378   9.528   2.125 -1.3638  0.0426  2.5870
  987MOL0     H33215  12.585   9.610   2.321  1.4172  0.9292 -0.7187
  987MOL0     H33216  12.456   9.702   2.243 -3.1145 -1.7219 -1.1409
  987MOL0     H33217  12.583   9.681   2.036 -0.9037 -1.0217  1.3476
  987MOL0     H33218  12.719   9.582   2.120  2.5863  1.3930  4.8633
  987MOL0     H33219  12.647   9.878   2.181 -0.0820 -0.4440  1.0077
  987MOL0     H33220  12.750   9.776   2.271  2.4320  1.2653 -1.3033
  987MOL0     H33221  12.807   9.867   1.997 -4.0341 -2.5191  0.6117
  987MOL0     H33222  12.891   9.734   2.062  2.4872  2.3081 -0.9948
  987MOL0     H33223  12.913  10.019   2.170 -0.5923 -0.2505  0.3711
  987MOL0     H33224  12.930   9.881   2.280 -1.3588 -2.0051 -0.2734
  987MOL0     H33225  12.013   9.457   2.306 -1.2917 -0.7436 -0.2451
  987MOL0     H33226  11.776   9.453   2.397 -1.4185 -0.2973  4.0961
  987MOL0     H33227  11.441   9.049   2.489  0.4686 -1.3449  0.8211
  987MOL0     H33228  11.228   9.011   2.585  0.0456  0.0017 -0.0989
  987MOL0     H33229   9.615   9.076   2.297  1.5596 -1.1959 -2.1690
  987MOL0     H33230   9.376   9.090   2.248  1.5452 -2.4462 -1.9243
  987MOL0     H33231   9.092   9.124   1.791 -1.2075  0.2771 -1.1271
  987MOL0     H33232   8.839   9.107   1.742 -4.0955  0.3078  1.3696
  987MOL0     H33233   8.599   9.085   1.757  1.1338  0.6035  0.9263
  987MOL0     H33234   8.658   9.240   1.674 -1.8408  3.1327 -0.9888
  987MOL0     H33235   8.443   9.356   1.758 -4.1600  0.2985 -1.1855
  987MOL0     H33236   8.405   9.196   1.833  0.4789 -1.8280 -1.1188
  987MOL0     H33237   8.429   9.092   1.601  1.7608  0.3354 -1.0870
  987MOL0     H33238   8.449   9.253   1.530  1.3809 -1.2820 -0.0084
  987MOL0     H33239   8.229   9.321   1.607 -1.1279 -0.5667 -0.3837
  987MOL0     H33240   8.220   9.155   1.517 -0.4867 -4.0534  2.5705
  987MOL0     H33241   8.070   9.062   1.890 -0.1145 -1.7220 -1.4830
  987MOL0     H33242   8.761   9.298   2.102 -0.4587 -2.0840  0.2526
  987MOL0     H33243   8.890   9.368   2.250  1.2411  0.2629  3.5583
  987MOL0     H33244   9.030   9.272   2.273 -2.5453 -0.0332  0.8141
  987MOL0     H33245   9.046   9.434   2.200 -0.0051  0.5460 -0.1616
  988MOL0     O33246   9.433   9.337  10.855  0.0440  0.0076 -0.3156
  988MOL0     C33247   9.409   9.429  10.775  1.0571  0.9369 -0.9719
  988MOL0     O33248   9.500   9.511  10.719 -1.0801 -0.6185  0.0122
  988MOL0     C33249   9.630   9.506  10.754  0.6130  0.2746  0.4062
  988MOL0     C33250   9.720   9.466  10.657  0.0806  0.2744 -0.0394
  988MOL0     C33251   9.853   9.468  10.685 -1.2493  0.2178  0.2083
  988MOL0     C33252   9.898   9.492  10.817 -0.1028 -0.0366 -0.2383
  988MOL0     O33253  10.039   9.476  10.829 -0.0714  0.2568  0.1170
  988MOL0     C33254  10.104   9.490  10.957 -0.8679  0.0925  0.0207
  988MOL0     C33255  10.243   9.436  10.944 -0.9648  0.2063  0.0125
  988MOL0     C33256  10.308   9.402  11.087  0.2444 -0.1857 -0.8192
  988MOL0     C33257  10.446   9.364  11.087 -0.7506  0.1147 -0.2473
  988MOL0     C33258  10.478   9.292  11.219  0.4589 -0.4683  0.4640
  988MOL0     C33259  10.624   9.242  11.205  0.1997  0.0420 -0.2106
  988MOL0     C33260  10.678   9.191  11.341  0.9432 -0.1995  0.0507
  988MOL0     C33261  10.602   9.063  11.388 -0.0535  0.2755  0.2824
  988MOL0     N33262  10.648   9.000  11.507 -1.3193  0.4294 -0.2802
  988MOL0     C33263  10.661   9.070  11.619 -0.1422 -0.6203 -0.5729
  988MOL0     C33264  10.711   8.986  11.700 -0.4798  0.2951  0.0921
  988MOL0     C33265  10.712   9.004  11.854 -0.3056 -0.4205 -0.6596
  988MOL0     C33266  10.794   9.126  11.906 -0.3775  0.1487 -0.2205
  988MOL0     C33267  10.812   9.107  12.055  0.1361 -0.0747  0.9700
  988MOL0     C33268  10.851   9.243  12.125 -0.3462 -0.3426  0.8239
  988MOL0     O33269  10.972   9.289  12.060  0.0631 -0.0430 -0.5790
  988MOL0     C33270  11.023   9.414  12.095  0.5499  0.0828  0.3740
  988MOL0     C33271  10.977   9.484  12.200 -0.0254  0.6035 -1.1935
  988MOL0     C33272  11.037   9.591  12.251 -0.0467  0.7068 -0.2109
  988MOL0     C33273  11.166   9.635  12.197  0.4947  0.0878 -0.7717
  988MOL0     C33274  11.239   9.740  12.271 -1.2295 -0.0188  1.0983
  988MOL0     O33275  11.191   9.773  12.390 -0.2959 -0.5299  0.0328
  988MOL0     C33276  11.247   9.872  12.456 -1.2557 -0.6846 -0.6491
  988MOL0     C33277  11.387   9.875  12.496 -1.0014 -0.1411  0.2609
  988MOL0     C33278  11.431   9.984  12.577  0.3348  0.2630 -0.4204
  988MOL0     C33279  11.349  10.099  12.616 -0.1514  0.2951  0.7320
  988MOL0     O33280  11.401  10.204  12.685 -0.2337 -0.3175  0.5021
  988MOL0     C33281  11.509  10.186  12.777  0.7336 -0.2999 -0.6483
  988MOL0     C33282  11.517  10.306  12.858 -0.2367 -1.2377  0.2398
  988MOL0     C33283  11.607  10.410  12.783 -0.4200 -0.3679  0.9744
  988MOL0     C33284  11.615  10.543  12.861 -0.5922 -0.4210 -0.2532
  988MOL0     C33285  11.737  10.616  12.822  0.1180  0.2734 -0.0330
  988MOL0     C33286  11.739  10.669  12.676 -0.0808 -0.1224  0.8757
  988MOL0     C33287  11.860  10.759  12.640  0.3907 -0.1161  0.3023
  988MOL0     C33288  11.887  10.873  12.733  0.6285 -0.1318 -0.3611
  988MOL0    Cl33289  12.049  10.941  12.685 -0.3864 -0.5010 -0.3425
  988MOL0     C33290  11.215  10.087  12.574  0.9259  0.1750 -0.0707
  988MOL0     C33291  11.162   9.985  12.495 -0.4209  0.9757 -0.7351
  988MOL0     O33292  11.351   9.780  12.226 -0.2955  0.2063  0.3672
  988MOL0     C33293  11.214   9.566  12.087  0.1717  0.5003  0.4655
  988MOL0     C33294  11.146   9.458  12.040 -0.2992  0.0426 -0.0277
  988MOL0     N33295  10.753   8.869  11.639 -0.3453  0.6420 -0.6826
  988MOL0     N33296  10.709   8.877  11.517 -0.2695 -0.2419  0.5609
  988MOL0     C33297   9.811   9.526  10.916 -0.7441 -0.4974  0.1775
  988MOL0     C33298   9.677   9.538  10.885 -0.1648  0.3066 -0.7349
  988MOL0     C33299   9.272   9.473  10.753 -0.4151 -0.0670 -0.7701
  988MOL0     C33300   9.236   9.526  10.631 -0.5991 -0.7208 -0.2989
  988MOL0     C33301   9.112   9.562  10.596 -0.6161  0.0659  0.2983
  988MOL0     C33302   9.007   9.562  10.687 -0.9987  0.3129 -0.1141
  988MOL0     O33303   8.884   9.598  10.642 -0.2891  0.0257 -1.0825
  988MOL0     C33304   8.772   9.592  10.738  0.7269  0.8534  0.5331
  988MOL0     C33305   8.659   9.669  10.690  0.0323 -0.4173 -0.0094
  988MOL0     C33306   8.565   9.588  10.606 -0.2258 -0.3591  0.0686
  988MOL0     C33307   8.430   9.649  10.604  1.1764  0.3310  0.2681
  988MOL0     C33308   8.342   9.583  10.504  0.2865 -0.3291  0.1039
  988MOL0     C33309   8.272   9.532  10.412 -0.0070  0.4757 -0.3435
  988MOL0     C33310   9.038   9.499  10.814  0.3990 -0.5699 -0.1926
  988MOL0     C33311   9.163   9.448  10.836 -0.2543  0.6229 -0.7539
  988MOL0     C33312   9.174   9.373  10.965 -0.6095 -0.7739 -0.3444
  988MOL0     H33313   9.682   9.435  10.560 -1.1275 -1.7140  1.0042
  988MOL0     H33314   9.917   9.444  10.601 -0.2671 -1.2039  1.3125
  988MOL0     H33315  10.104   9.590  11.002 -1.5130 -0.4293  1.2345
  988MOL0     H33316  10.064   9.425  11.036  0.6382 -0.8587  0.0417
  988MOL0     H33317  10.297   9.507  10.881 -1.0502  0.0421 -0.2471
  988MOL0     H33318  10.238   9.339  10.895 -0.0627  0.0466  0.2243
  988MOL0     H33319  10.246   9.322  11.130 -0.4235 -0.2191 -1.8070
  988MOL0     H33320  10.296   9.493  11.146  0.4940 -0.6069 -0.0997
  988MOL0     H33321  10.472   9.305  10.999 -1.5311 -0.4430 -0.1165
  988MOL0     H33322  10.508   9.453  11.073  2.0823 -1.5497  0.8409
  988MOL0     H33323  10.466   9.362  11.303  0.2246  2.9046 -2.1496
  988MOL0     H33324  10.411   9.207  11.209  0.8825 -0.5838 -1.8372
  988MOL0     H33325  10.625   9.153  11.141 -0.4220 -1.1112  1.3343
  988MOL0     H33326  10.702   9.311  11.171  1.2982 -0.7160  0.7205
  988MOL0     H33327  10.665   9.275  11.410  0.1558  0.0594 -0.4007
  988MOL0     H33328  10.783   9.158  11.335  0.8324 -1.0177  1.9788
  988MOL0     H33329  10.497   9.084  11.411 -0.0109 -0.7967  1.5410
  988MOL0     H33330  10.589   8.993  11.305 -0.5956  0.3004  0.3434
  988MOL0     H33331  10.617   9.168  11.637 -0.3260 -0.5401 -1.4021
  988MOL0     H33332  10.610   9.009  11.893 -1.5162  0.4379 -3.7084
  988MOL0     H33333  10.760   8.920  11.906  2.7593 -0.3047 -3.0224
  988MOL0     H33334  10.892   9.127  11.857  0.2290  0.3587  0.9724
  988MOL0     H33335  10.748   9.222  11.880  1.4130  1.5191  1.4138
  988MOL0     H33336  10.883   9.024  12.064  0.4090 -0.2835 -2.0362
  988MOL0     H33337  10.718   9.073  12.098 -0.8712 -0.4133 -1.3504
  988MOL0     H33338  10.870   9.228  12.232 -2.5620 -0.2432  1.2623
  988MOL0     H33339  10.773   9.315  12.102  0.3307  0.2412  0.3360
  988MOL0     H33340  10.882   9.458  12.245  0.8544  1.8645  1.5401
  988MOL0     H33341  10.985   9.624  12.340 -1.8729 -1.2848 -0.4494
  988MOL0     H33342  11.451   9.794  12.463 -0.3192  0.3151  0.4492
  988MOL0     H33343  11.535   9.971  12.606 -0.0201 -2.0200  0.0575
  988MOL0     H33344  11.489  10.103  12.846  1.5718 -2.0966 -2.4678
  988MOL0     H33345  11.601  10.159  12.725  0.9577  0.1445 -0.4785
  988MOL0     H33346  11.415  10.344  12.866 -0.2426 -1.2669  0.2955
  988MOL0     H33347  11.569  10.286  12.952  2.0396 -1.8902 -1.0645
  988MOL0     H33348  11.703  10.362  12.769  0.5979  2.4857 -4.2147
  988MOL0     H33349  11.562  10.428  12.685 -1.0877 -2.5716  0.8293
  988MOL0     H33350  11.642  10.528  12.966  0.1703  0.8724 -0.2544
  988MOL0     H33351  11.532  10.610  12.837  0.5569  0.6462 -1.3189
  988MOL0     H33352  11.823  10.550  12.837 -1.0763 -1.2132  0.4997
  988MOL0     H33353  11.750  10.707  12.882 -1.2226  1.7789 -1.9184
  988MOL0     H33354  11.735  10.589  12.602 -0.6771 -0.2984  1.0981
  988MOL0     H33355  11.647  10.726  12.659 -0.1825 -0.8138 -1.1939
  988MOL0     H33356  11.850  10.800  12.539 -3.0901 -0.9083  0.2269
  988MOL0     H33357  11.949  10.694  12.641  3.0969  3.2412  2.9013
  988MOL0     H33358  11.803  10.943  12.736  0.8993  0.3316 -2.2989
  988MOL0     H33359  11.910  10.839  12.835  3.0339 -4.0016 -1.9464
  988MOL0     H33360  11.155  10.174  12.600  1.4932  0.8091 -0.8348
  988MOL0     H33361  11.057   9.976  12.470 -0.8096  0.6316  0.9266
  988MOL0     H33362  11.303   9.608  12.041  0.1122  1.0357  0.8338
  988MOL0     H33363  11.205   9.404  11.966  0.7399 -1.2687  1.6690
  988MOL0     H33364   9.857   9.543  11.013 -0.4701 -0.3037  0.0192
  988MOL0     H33365   9.603   9.541  10.964  2.3109 -3.4175  2.0390
  988MOL0     H33366   9.307   9.542  10.550  2.1699 -0.0407  2.1235
  988MOL0     H33367   9.091   9.597  10.496 -1.0131  2.4496  1.1624
  988MOL0     H33368   8.788   9.625  10.841 -2.9287 -0.5792  1.7398
  988MOL0     H33369   8.736   9.488  10.735  0.3106  0.9902 -2.8734
  988MOL0     H33370   8.683   9.756  10.628  0.2452 -0.9841 -0.7327
  988MOL0     H33371   8.602   9.694  10.780  0.4663  0.2148  0.0993
  988MOL0     H33372   8.555   9.483  10.637 -0.9473 -0.5359 -0.7177
  988MOL0     H33373   8.607   9.581  10.505 -1.6760  1.4209 -0.7061
  988MOL0     H33374   8.382   9.628  10.700 -3.0046 -0.7637 -1.7897
  988MOL0     H33375   8.441   9.757  10.588 -1.5626  0.5189 -0.9933
  988MOL0     H33376   8.224   9.493  10.324 -1.0872  0.1250  0.3859
  988MOL0     H33377   8.957   9.468  10.880 -0.4555 -0.1573 -1.0330
  988MOL0     H33378   9.245   9.421  11.034 -0.3515 -0.0481 -1.1027
  988MOL0     H33379   9.087   9.371  11.031 -0.8018 -0.1136 -0.5749
  988MOL0     H33380   9.197   9.267  10.950  3.5396 -0.1244  0.2563
  989MOL0     O33381   5.774   1.199   2.107  0.4044 -0.4186  0.1543
  989MOL0     C33382   5.738   1.085   2.073  0.6698 -0.1115  0.3737
  989MOL0     O33383   5.814   0.973   2.065 -0.0910 -0.8033 -0.4918
  989MOL0     C33384   5.944   0.982   2.110 -0.5490 -0.7974 -0.8350
  989MOL0     C33385   6.045   0.957   2.014  0.1700  0.8081  0.1358
  989MOL0     C33386   6.181   0.974   2.057 -0.5261 -1.0912  1.2794
  989MOL0     C33387   6.214   1.007   2.186 -0.4749 -0.4068 -0.3862
  989MOL0     O33388   6.342   1.012   2.232  0.2373 -0.4503 -0.0762
  989MOL0     C33389   6.392   1.149   2.236  0.0806  0.4376  1.7135
  989MOL0     C33390   6.537   1.165   2.272  0.3004  0.7386 -0.0527
  989MOL0     C33391   6.572   1.318   2.264  0.1521  0.3856  0.1012
  989MOL0     C33392   6.715   1.343   2.313 -0.0424  0.6990 -1.0847
  989MOL0     C33393   6.734   1.496   2.336 -0.1689  1.1974 -0.7067
  989MOL0     C33394   6.862   1.508   2.426 -0.2159 -1.0449  0.5115
  989MOL0     C33395   6.927   1.644   2.400  0.2162  0.3429  0.8402
  989MOL0     C33396   6.841   1.754   2.458 -0.2653 -0.6889  0.6766
  989MOL0     N33397   6.919   1.874   2.499 -0.2624  0.1182 -0.5217
  989MOL0     C33398   6.998   1.879   2.607 -0.6192 -0.6763 -0.7634
  989MOL0     C33399   7.056   1.998   2.607 -0.3238 -0.9029 -0.1159
  989MOL0     C33400   7.146   2.060   2.717 -1.0426 -0.2203 -0.1486
  989MOL0     C33401   7.271   2.133   2.669 -0.4753  0.3312 -0.1630
  989MOL0     C33402   7.354   2.200   2.782 -0.0158 -0.9094 -0.5115
  989MOL0     C33403   7.402   2.099   2.886  0.7712 -0.4606 -0.5703
  989MOL0     O33404   7.478   2.167   2.982 -0.2833  0.1472 -0.1036
  989MOL0     C33405   7.607   2.207   2.952  0.0600  0.0648 -0.5087
  989MOL0     C33406   7.668   2.299   3.050  0.1010  0.5425  0.1251
  989MOL0     C33407   7.808   2.327   3.043 -0.3385  0.2376  0.3394
  989MOL0     C33408   7.885   2.269   2.936  0.3406 -0.2325 -0.5411
  989MOL0     C33409   8.026   2.306   2.926 -0.6509 -0.9715 -0.0037
  989MOL0     O33410   8.068   2.419   2.998  0.5340 -0.1178 -0.7118
  989MOL0     C33411   8.198   2.452   3.002  0.0093 -0.5282  0.2216
  989MOL0     C33412   8.260   2.500   2.887 -0.2453  0.3883  0.2300
  989MOL0     C33413   8.394   2.548   2.891 -0.0513  0.3843  0.7719
  989MOL0     C33414   8.463   2.560   3.007  0.5042  0.0743  0.0328
  989MOL0     O33415   8.586   2.616   3.009  0.1306  0.1159  0.8532
  989MOL0     C33416   8.593   2.722   3.106  0.3690  0.6427 -0.4156
  989MOL0     C33417   8.702   2.816   3.074 -0.3122 -0.9213  0.6840
  989MOL0     C33418   8.676   2.884   2.931 -0.2976 -0.5500 -0.8787
  989MOL0     C33419   8.793   2.976   2.912  0.6340 -1.0959  0.2969
  989MOL0     C33420   8.783   3.054   2.780  0.5552  0.4238 -0.1936
  989MOL0     C33421   8.885   3.161   2.757 -1.0067 -0.0903 -0.0681
  989MOL0     C33422   8.881   3.230   2.624 -0.0862 -0.3378 -0.7558
  989MOL0     C33423   8.981   3.336   2.615  0.1297 -0.5196  1.0633
  989MOL0    Cl33424   8.990   3.392   2.441  0.2926  0.0952 -0.4310
  989MOL0     C33425   8.397   2.508   3.123 -0.3006 -0.1978  0.8099
  989MOL0     C33426   8.263   2.458   3.124  0.6236 -0.7973  0.5398
  989MOL0     O33427   8.104   2.230   2.869  0.2578 -0.5088 -0.5943
  989MOL0     C33428   7.824   2.180   2.845 -0.0703  0.2420  0.5650
  989MOL0     C33429   7.684   2.150   2.851 -0.6345 -0.3827 -0.3409
  989MOL0     N33430   7.011   2.064   2.493 -0.1855 -1.0916 -0.2233
  989MOL0     N33431   6.939   1.987   2.424  0.6415 -0.1208 -0.5041
  989MOL0     C33432   6.102   1.039   2.280  0.0555  0.1213 -0.0757
  989MOL0     C33433   5.974   1.020   2.244  0.0718  0.5359 -0.1620
  989MOL0     C33434   5.604   1.076   2.007 -0.3096  0.2330  0.5155
  989MOL0     C33435   5.515   1.172   2.038 -0.7123 -0.6873  0.1541
  989MOL0     C33436   5.380   1.154   1.998 -0.0534  0.1053 -0.4832
  989MOL0     C33437   5.344   1.054   1.907  0.8144 -1.0953 -0.9523
  989MOL0     O33438   5.217   1.061   1.872  0.4832  0.1008  0.3443
  989MOL0     C33439   5.153   0.951   1.806  0.9034 -0.5035  0.0867
  989MOL0     C33440   5.002   0.969   1.843  0.1884  0.6748 -0.4154
  989MOL0     C33441   4.932   1.092   1.778 -0.4647  0.2172  0.6775
  989MOL0     C33442   4.774   1.082   1.781  0.1174  0.1412 -0.2199
  989MOL0     C33443   4.744   1.074   1.922 -0.2383  0.0211 -0.2398
  989MOL0     C33444   4.720   1.076   2.036  0.2750  0.5502  0.5461
  989MOL0     C33445   5.447   0.978   1.854 -0.3479 -0.0137 -0.0758
  989MOL0     C33446   5.576   0.979   1.911 -0.0610  0.2140  0.1888
  989MOL0     C33447   5.675   0.874   1.845  0.6422 -0.6446  0.1739
  989MOL0     H33448   6.021   0.937   1.910  4.6759 -0.0618 -0.9373
  989MOL0     H33449   6.258   0.960   1.981 -2.2792  0.9472 -1.0376
  989MOL0     H33450   6.393   1.192   2.135 -0.1679 -2.4429  0.4020
  989MOL0     H33451   6.326   1.208   2.301 -0.8567  1.3519 -0.0057
  989MOL0     H33452   6.607   1.105   2.213  0.3101  0.4155  0.2837
  989MOL0     H33453   6.544   1.132   2.376 -4.0681 -0.1372  0.1597
  989MOL0     H33454   6.495   1.374   2.319  1.0900  1.0010  0.8135
  989MOL0     H33455   6.565   1.347   2.159  3.2857  1.5825  0.1250
  989MOL0     H33456   6.733   1.295   2.409 -1.3095  2.1814 -0.0432
  989MOL0     H33457   6.795   1.315   2.244 -0.0320 -1.7204 -0.1640
  989MOL0     H33458   6.756   1.548   2.242 -0.6034  2.4570 -0.1221
  989MOL0     H33459   6.646   1.547   2.375 -0.6669 -0.3270  0.2420
  989MOL0     H33460   6.838   1.484   2.530  0.2622 -3.8459  0.0597
  989MOL0     H33461   6.933   1.428   2.403  0.2825 -0.7889  1.1216
  989MOL0     H33462   6.951   1.651   2.293 -0.3047 -0.9329  0.6164
  989MOL0     H33463   7.023   1.644   2.453  1.9627 -1.9536 -1.9990
  989MOL0     H33464   6.771   1.792   2.384  1.7336  0.1052 -0.9079
  989MOL0     H33465   6.778   1.725   2.542 -0.8172  2.9993  1.7016
  989MOL0     H33466   7.025   1.796   2.671  1.7689 -0.8457 -1.8763
  989MOL0     H33467   7.089   2.129   2.780 -3.2295  0.9761 -3.2278
  989MOL0     H33468   7.177   1.968   2.769 -1.8574 -1.5943 -1.9835
  989MOL0     H33469   7.328   2.058   2.615 -1.0094 -0.6241  0.5743
  989MOL0     H33470   7.241   2.197   2.586  0.7815 -1.0168 -1.7165
  989MOL0     H33471   7.299   2.279   2.833  0.0443 -0.9882 -0.3238
  989MOL0     H33472   7.440   2.246   2.734  1.9396 -2.9063  0.8566
  989MOL0     H33473   7.449   2.022   2.824  0.9712  0.3040 -1.3903
  989MOL0     H33474   7.315   2.067   2.945  0.8326 -0.4060 -0.4519
  989MOL0     H33475   7.604   2.347   3.123 -0.5368  1.3640 -0.9550
  989MOL0     H33476   7.843   2.407   3.108 -2.2931 -0.0028  1.7983
  989MOL0     H33477   8.202   2.504   2.796  1.5199  0.7377 -0.9332
  989MOL0     H33478   8.435   2.585   2.797  0.6168  1.5482  1.4949
  989MOL0     H33479   8.500   2.778   3.111  0.8603  1.4022  0.7123
  989MOL0     H33480   8.616   2.677   3.204 -0.8716  0.1637 -0.3186
  989MOL0     H33481   8.718   2.889   3.154  0.8717  1.0777 -1.2668
  989MOL0     H33482   8.799   2.765   3.063  1.3570  2.0951  0.2653
  989MOL0     H33483   8.666   2.802   2.860 -3.9843  0.3988 -1.6257
  989MOL0     H33484   8.582   2.939   2.936  0.4432  1.1920 -3.6585
  989MOL0     H33485   8.886   2.918   2.917  2.3199  1.3762 -0.2917
  989MOL0     H33486   8.782   3.060   2.982 -1.0334 -0.6632 -0.4302
  989MOL0     H33487   8.682   3.089   2.757  0.6472  1.7900  1.3080
  989MOL0     H33488   8.800   2.969   2.714 -3.7923 -1.8879  1.2150
  989MOL0     H33489   8.883   3.243   2.830  1.5111  0.2370 -0.2795
  989MOL0     H33490   8.986   3.122   2.768 -0.7331  0.5192 -0.3754
  989MOL0     H33491   8.781   3.274   2.633 -0.6558 -1.5491 -0.8954
  989MOL0     H33492   8.882   3.169   2.533  0.5818 -0.7808 -0.4602
  989MOL0     H33493   8.956   3.411   2.690  0.0685  3.0911 -2.2606
  989MOL0     H33494   9.082   3.302   2.642 -0.3498 -1.2872  1.9364
  989MOL0     H33495   8.443   2.513   3.221  2.4047 -0.9880 -0.3130
  989MOL0     H33496   8.217   2.445   3.221  0.5253  0.7702  0.7283
  989MOL0     H33497   7.875   2.129   2.764  1.0359 -0.8396  1.9051
  989MOL0     H33498   7.638   2.095   2.770 -0.9492 -0.9521  0.2181
  989MOL0     H33499   6.123   1.067   2.382 -0.4130 -1.2973  0.4330
  989MOL0     H33500   5.895   1.027   2.318  1.5660  1.9732  1.3907
  989MOL0     H33501   5.533   1.251   2.110  1.2638 -1.2135  0.2969
  989MOL0     H33502   5.311   1.228   2.037 -0.2089 -0.1288 -0.3106
  989MOL0     H33503   5.190   0.856   1.846 -0.9991 -1.0336  0.6791
  989MOL0     H33504   5.169   0.960   1.698  0.0385  0.7066  0.0457
  989MOL0     H33505   4.993   0.992   1.950  1.5415  1.2868 -0.4137
  989MOL0     H33506   4.949   0.877   1.817 -1.8420  1.3270  1.1334
  989MOL0     H33507   4.964   1.096   1.673 -0.5136  3.4833  0.6966
  989MOL0     H33508   4.958   1.188   1.824 -1.0501  0.7624 -0.1105
  989MOL0     H33509   4.727   1.164   1.727 -1.1367 -0.0126  0.6058
  989MOL0     H33510   4.745   0.993   1.726  0.2803 -0.1973  0.2334
  989MOL0     H33511   4.698   1.064   2.140 -0.9962 -0.0783  0.2262
  989MOL0     H33512   5.437   0.901   1.778  0.9045 -0.9785  0.6812
  989MOL0     H33513   5.638   0.831   1.752  0.9970  3.2358 -1.9897
  989MOL0     H33514   5.767   0.923   1.813  0.2083 -1.9034 -3.5491
  989MOL0     H33515   5.700   0.794   1.915  0.1781 -2.6346 -1.8058
  990MOL0     O33516  10.214   5.818   3.061  0.6742  0.2366  0.3307
  990MOL0     C33517  10.192   5.729   2.979  0.5781 -0.3498  0.5818
  990MOL0     O33518  10.279   5.697   2.884  0.6751 -0.5570  0.1792
  990MOL0     C33519  10.418   5.708   2.896  0.3902  0.1219 -0.2589
  990MOL0     C33520  10.489   5.729   3.010 -0.7250 -0.6448 -0.8825
  990MOL0     C33521  10.630   5.751   3.017  0.0194 -0.1661  0.2027
  990MOL0     C33522  10.705   5.742   2.901  0.7534  0.3420  0.0299
  990MOL0     O33523  10.837   5.766   2.907 -1.2070 -0.2373  0.2928
  990MOL0     C33524  10.913   5.735   2.793 -0.0020  0.7068 -0.2533
  990MOL0     C33525  10.905   5.835   2.675 -0.6828  0.6972 -0.1738
  990MOL0     C33526  10.985   5.788   2.554 -0.1100 -0.4674  0.3117
  990MOL0     C33527  11.122   5.762   2.576 -0.4434  0.6160 -1.2358
  990MOL0     C33528  11.211   5.763   2.455 -0.1877  0.0760  1.1626
  990MOL0     C33529  11.352   5.712   2.486 -0.4988  0.0625  0.5395
  990MOL0     C33530  11.417   5.692   2.342 -0.6437 -0.4078 -0.7072
  990MOL0     C33531  11.521   5.579   2.350  0.5043  0.2868 -0.5830
  990MOL0     N33532  11.458   5.447   2.368 -0.7892  0.8800 -0.2230
  990MOL0     C33533  11.354   5.392   2.295 -1.0212  0.1928 -0.0612
  990MOL0     C33534  11.339   5.266   2.346 -0.3925 -0.8635  0.1290
  990MOL0     C33535  11.257   5.155   2.292 -0.3879  0.5376 -0.3687
  990MOL0     C33536  11.108   5.150   2.348 -1.3748 -0.2381  0.3360
  990MOL0     C33537  11.039   5.023   2.307 -0.3949 -0.1510 -0.3428
  990MOL0     C33538  10.891   5.012   2.328 -1.1154 -0.4102 -0.2213
  990MOL0     O33539  10.863   4.996   2.466 -1.0371 -0.5780 -0.3726
  990MOL0     C33540  10.732   4.995   2.521 -1.1036  0.2103 -0.1638
  990MOL0     C33541  10.734   4.977   2.661  0.3549  0.3694  0.4530
  990MOL0     C33542  10.607   4.972   2.723  0.0341 -0.4315 -0.4086
  990MOL0     C33543  10.482   4.965   2.661 -0.5522 -0.5968  0.3909
  990MOL0     C33544  10.363   4.962   2.739 -0.8496  0.2335 -0.3364
  990MOL0     O33545  10.359   4.900   2.860  0.1091 -0.2092  0.2348
  990MOL0     C33546  10.232   4.879   2.926 -0.7804  0.3669 -0.1148
  990MOL0     C33547  10.206   4.934   3.052 -0.0804 -0.7331  0.4725
  990MOL0     C33548  10.097   4.896   3.129  0.6008  0.3734 -0.8799
  990MOL0     C33549   9.996   4.811   3.074  0.1638 -0.1667 -0.5655
  990MOL0     O33550   9.875   4.773   3.125  0.1944  0.1194 -0.0010
  990MOL0     C33551   9.832   4.797   3.262 -0.1904  0.3035 -0.0407
  990MOL0     C33552   9.687   4.767   3.299  0.4596 -0.1112 -0.1785
  990MOL0     C33553   9.661   4.619   3.333 -0.0753 -0.1809 -0.0944
  990MOL0     C33554   9.506   4.582   3.347 -0.7004 -0.7984 -0.6902
  990MOL0     C33555   9.491   4.426   3.350 -0.0856 -0.1505  0.6610
  990MOL0     C33556   9.553   4.354   3.468  0.1700 -0.3250 -0.3586
  990MOL0     C33557   9.481   4.220   3.474  0.0713  0.9068  0.1277
  990MOL0     C33558   9.559   4.129   3.572 -0.8698  0.7136 -0.2416
  990MOL0    Cl33559   9.541   4.153   3.753 -0.0437 -0.1382  0.3792
  990MOL0     C33560  10.023   4.750   2.950 -1.0489 -0.9926  0.0254
  990MOL0     C33561  10.140   4.791   2.877  0.0901 -0.1411 -0.1930
  990MOL0     O33562  10.265   5.016   2.684  0.3999 -0.4187  0.2885
  990MOL0     C33563  10.483   4.986   2.523 -0.0650  0.5313  0.1232
  990MOL0     C33564  10.609   4.997   2.453  0.1988  0.1214  0.8430
  990MOL0     N33565  11.427   5.253   2.453 -0.1139  0.4312  0.3653
  990MOL0     N33566  11.501   5.361   2.466  0.5903  0.0436  0.1526
  990MOL0     C33567  10.633   5.693   2.790  0.3338  0.1746 -0.2452
  990MOL0     C33568  10.487   5.681   2.785 -0.6600 -0.3047  0.1330
  990MOL0     C33569  10.051   5.702   2.945 -0.4315 -0.5968 -0.5701
  990MOL0     C33570  10.026   5.703   2.807  0.0212  0.1881 -0.2970
  990MOL0     C33571   9.892   5.698   2.767  0.0329  0.3258  0.1358
  990MOL0     C33572   9.782   5.693   2.856 -0.1841  0.3228  0.4615
  990MOL0     O33573   9.664   5.686   2.797 -0.7436  0.6048  0.3919
  990MOL0     C33574   9.552   5.650   2.874 -0.3387 -0.0414  0.2697
  990MOL0     C33575   9.422   5.633   2.794  0.0789 -0.1147  0.0267
  990MOL0     C33576   9.426   5.509   2.703  0.2652  0.5280  0.4053
  990MOL0     C33577   9.291   5.471   2.648 -0.1841 -0.3450 -0.1772
  990MOL0     C33578   9.217   5.578   2.574 -0.3936 -0.9920 -0.3239
  990MOL0     C33579   9.156   5.679   2.543 -1.1037  0.1343  0.4826
  990MOL0     C33580   9.815   5.701   2.991 -0.0230 -0.3858 -0.1773
  990MOL0     C33581   9.948   5.707   3.043 -0.0545 -0.1358 -0.3250
  990MOL0     C33582   9.974   5.687   3.190  0.2042 -0.0141 -0.5396
  990MOL0     H33583  10.426   5.741   3.097  1.3487  0.0495  0.6207
  990MOL0     H33584  10.681   5.793   3.103  1.5214 -2.0718  0.3382
  990MOL0     H33585  11.017   5.727   2.828 -0.4114 -0.8590  0.6869
  990MOL0     H33586  10.890   5.633   2.761  0.9209  0.7439 -1.1010
  990MOL0     H33587  10.930   5.937   2.707 -3.0534  1.8266 -1.6152
  990MOL0     H33588  10.800   5.852   2.651 -1.5387 -2.9196  0.3903
  990MOL0     H33589  10.981   5.864   2.475  0.2741 -2.7631 -2.0431
  990MOL0     H33590  10.933   5.704   2.507 -2.7049 -0.1587  2.3516
  990MOL0     H33591  11.169   5.838   2.639 -2.0852  1.5343 -1.0551
  990MOL0     H33592  11.121   5.664   2.625  2.4251  1.4874  0.8345
  990MOL0     H33593  11.155   5.695   2.390 -1.0017  0.8926  0.9897
  990MOL0     H33594  11.217   5.861   2.408 -0.3731 -1.3501 -2.1364
  990MOL0     H33595  11.398   5.791   2.547 -1.0367  0.2578  0.6958
  990MOL0     H33596  11.342   5.614   2.532 -0.2851 -0.3492 -0.2723
  990MOL0     H33597  11.465   5.785   2.308  1.6151 -0.5080  1.8301
  990MOL0     H33598  11.342   5.658   2.272  0.9334 -1.7675 -1.8027
  990MOL0     H33599  11.566   5.582   2.251 -0.8502 -0.4444 -1.2554
  990MOL0     H33600  11.586   5.597   2.436 -0.2500 -1.3024  0.3691
  990MOL0     H33601  11.313   5.439   2.206  3.2642  0.8228 -1.9536
  990MOL0     H33602  11.246   5.161   2.183  0.0581 -3.0614 -0.7264
  990MOL0     H33603  11.296   5.059   2.326 -1.9429  0.4692  1.3449
  990MOL0     H33604  11.117   5.162   2.456  0.7542  0.6229  0.1297
  990MOL0     H33605  11.037   5.222   2.306 -2.7835 -3.1071 -2.7057
  990MOL0     H33606  11.087   4.940   2.359  1.1403 -0.0373 -1.5074
  990MOL0     H33607  11.062   5.010   2.201 -1.7105 -0.0109 -0.6713
  990MOL0     H33608  10.855   4.923   2.275  1.4018 -2.2260  0.8890
  990MOL0     H33609  10.840   5.103   2.294  1.7930  1.3771 -0.0900
  990MOL0     H33610  10.824   4.966   2.720  0.0760  1.6575  1.1580
  990MOL0     H33611  10.610   4.965   2.832  0.1760 -2.5725 -0.5102
  990MOL0     H33612  10.278   5.004   3.091  0.2420 -0.1822 -1.0292
  990MOL0     H33613  10.081   4.948   3.223  1.4565 -0.9124 -0.0097
  990MOL0     H33614   9.904   4.742   3.324  2.8647  3.1129 -0.7719
  990MOL0     H33615   9.857   4.900   3.292 -0.2078  0.5992 -1.0212
  990MOL0     H33616   9.659   4.819   3.391  0.9902 -0.8381  0.4093
  990MOL0     H33617   9.612   4.789   3.222  1.7803  1.4212 -1.0817
  990MOL0     H33618   9.713   4.550   3.265  0.0010 -1.7752  1.5113
  990MOL0     H33619   9.708   4.609   3.431 -1.1779  4.1063  1.0546
  990MOL0     H33620   9.450   4.622   3.262 -0.3771 -2.1565 -1.5715
  990MOL0     H33621   9.453   4.623   3.434 -2.0620  0.0609 -1.8624
  990MOL0     H33622   9.528   4.391   3.254 -0.1798  2.5612 -0.4667
  990MOL0     H33623   9.384   4.405   3.361 -0.1633  0.6437  1.7171
  990MOL0     H33624   9.661   4.346   3.462  0.3848  1.2883  0.7872
  990MOL0     H33625   9.531   4.413   3.558  0.4682 -0.4337 -0.2118
  990MOL0     H33626   9.474   4.161   3.382 -0.1568 -0.5929  1.0705
  990MOL0     H33627   9.380   4.223   3.516 -0.4449  0.1493 -1.0206
  990MOL0     H33628   9.518   4.029   3.553  1.2112 -0.4711  1.1041
  990MOL0     H33629   9.666   4.117   3.551 -0.8831 -0.2052  0.1637
  990MOL0     H33630   9.947   4.682   2.912 -1.5846 -0.3052 -0.1394
  990MOL0     H33631  10.170   4.741   2.786  0.5894  2.7797 -1.7478
  990MOL0     H33632  10.385   4.989   2.476  0.0551  3.1093 -0.0849
  990MOL0     H33633  10.628   4.993   2.346 -1.8417 -4.8066  0.4033
  990MOL0     H33634  10.695   5.681   2.702  1.8369 -1.1710  0.9357
  990MOL0     H33635  10.445   5.644   2.693 -1.8277  2.3490 -0.5085
  990MOL0     H33636  10.108   5.692   2.736 -0.5286 -1.1873 -0.7440
  990MOL0     H33637   9.866   5.700   2.661 -3.1347  1.3641  0.8319
  990MOL0     H33638   9.539   5.730   2.947  0.3622 -0.2338  0.6194
  990MOL0     H33639   9.565   5.559   2.933 -1.6634 -0.3891  0.0461
  990MOL0     H33640   9.399   5.718   2.730 -2.1481  0.8530  1.9675
  990MOL0     H33641   9.342   5.628   2.869  0.5317  1.1180  0.6143
  990MOL0     H33642   9.481   5.427   2.750 -0.0736  0.6448  1.0130
  990MOL0     H33643   9.489   5.541   2.620  1.4124 -0.3563  0.9141
  990MOL0     H33644   9.310   5.383   2.585  0.5803 -1.6548  1.7701
  990MOL0     H33645   9.226   5.436   2.728  0.9524 -1.6375  0.2275
  990MOL0     H33646   9.093   5.762   2.519  0.9338  1.1555 -1.7451
  990MOL0     H33647   9.746   5.701   3.074  2.0984  0.3014  1.6967
  990MOL0     H33648   9.897   5.617   3.225 -0.8659  0.0019 -2.6846
  990MOL0     H33649  10.065   5.629   3.209 -3.1134 -5.0205  2.3822
  990MOL0     H33650   9.971   5.778   3.250  0.2579 -0.0682 -0.4543
  991MOL0     O33651   5.558   3.234   9.033 -0.0274 -0.2946 -0.3005
  991MOL0     C33652   5.571   3.291   9.142 -0.4642  0.2496 -0.6611
  991MOL0     O33653   5.661   3.388   9.160  0.1670 -0.8326 -0.0865
  991MOL0     C33654   5.723   3.463   9.058  0.3073 -0.5935  0.4120
  991MOL0     C33655   5.844   3.526   9.088  1.0081  0.2647  0.0063
  991MOL0     C33656   5.919   3.588   8.996 -0.7960 -0.6631  0.9504
  991MOL0     C33657   5.872   3.607   8.864 -0.0670  0.1015 -0.2649
  991MOL0     O33658   5.947   3.671   8.768  0.1355 -0.1010 -0.3927
  991MOL0     C33659   6.052   3.757   8.798 -0.4078 -0.2897 -0.4959
  991MOL0     C33660   6.184   3.662   8.792 -0.3334 -0.2743  0.2784
  991MOL0     C33661   6.292   3.739   8.862 -0.0364  0.1751 -0.1556
  991MOL0     C33662   6.416   3.647   8.873 -0.6416 -1.0133 -0.4847
  991MOL0     C33663   6.535   3.740   8.915  0.6483  0.3256 -0.5890
  991MOL0     C33664   6.523   3.802   9.058 -0.2978  0.4197  1.0573
  991MOL0     C33665   6.640   3.885   9.096 -0.5066 -0.1043 -0.7110
  991MOL0     C33666   6.612   3.953   9.231 -0.1269  0.6927 -0.5594
  991MOL0     N33667   6.692   4.072   9.232  0.3646  0.3350  0.6685
  991MOL0     C33668   6.648   4.196   9.185 -0.1203  0.1634  0.2677
  991MOL0     C33669   6.754   4.286   9.203  0.4276  0.2311  0.0763
  991MOL0     C33670   6.770   4.429   9.152  0.0537 -0.3707  0.1305
  991MOL0     C33671   6.875   4.500   9.236  0.1014  0.0472  0.4561
  991MOL0     C33672   6.883   4.650   9.199  0.1664  0.7388 -0.2313
  991MOL0     C33673   6.997   4.733   9.266  0.6673  0.3978 -0.8949
  991MOL0     O33674   7.013   4.870   9.225 -0.8633 -0.2576 -0.2251
  991MOL0     C33675   7.108   4.891   9.135 -0.6702  0.3219  0.1934
  991MOL0     C33676   7.238   4.924   9.186  0.1103 -0.4933 -0.2589
  991MOL0     C33677   7.339   4.954   9.097 -0.3366  0.2357  0.8297
  991MOL0     C33678   7.315   4.942   8.950  0.0482 -0.3557 -0.1179
  991MOL0     C33679   7.438   4.938   8.859  0.8084  0.3882 -0.2474
  991MOL0     O33680   7.538   5.012   8.907  0.1477  0.5800 -0.5705
  991MOL0     C33681   7.650   5.021   8.835  0.5153  0.0938  0.2790
  991MOL0     C33682   7.768   4.994   8.897 -0.0606 -0.7040  0.3245
  991MOL0     C33683   7.887   4.994   8.825  0.2471  0.3212 -0.2775
  991MOL0     C33684   7.886   5.013   8.688  0.8989  0.1758  0.5311
  991MOL0     O33685   8.001   4.999   8.616 -0.5876 -0.1711  0.4254
  991MOL0     C33686   8.134   5.040   8.664  0.8298 -0.1083  0.5725
  991MOL0     C33687   8.139   5.191   8.696  0.0528  0.8884  0.6183
  991MOL0     C33688   8.280   5.237   8.734 -0.3555  0.7687  0.4916
  991MOL0     C33689   8.278   5.388   8.745 -0.1237 -1.1598 -0.2330
  991MOL0     C33690   8.417   5.456   8.712 -0.4854 -0.6490 -0.1447
  991MOL0     C33691   8.394   5.610   8.730 -0.2625 -0.1309  0.0879
  991MOL0     C33692   8.514   5.688   8.696  0.1728 -0.5301 -0.2354
  991MOL0     C33693   8.479   5.819   8.624 -0.6265 -0.1868 -0.0155
  991MOL0    Cl33694   8.628   5.929   8.619  0.2932 -0.3730  0.2600
  991MOL0     C33695   7.764   5.038   8.625 -0.1920 -0.5615  1.7837
  991MOL0     C33696   7.643   5.056   8.701 -0.1353 -0.6746  1.1010
  991MOL0     O33697   7.436   4.863   8.756 -0.4097 -0.0510 -0.4850
  991MOL0     C33698   7.181   4.910   8.904  0.5769 -0.0002  0.3666
  991MOL0     C33699   7.076   4.898   8.996 -0.6480 -0.5904 -0.4679
  991MOL0     N33700   6.857   4.210   9.249 -0.5462 -0.2373 -0.2989
  991MOL0     N33701   6.822   4.089   9.267 -0.5832  0.9903 -0.2406
  991MOL0     C33702   5.744   3.554   8.832  0.2274  1.3578  0.3784
  991MOL0     C33703   5.674   3.474   8.930 -0.9563 -0.2423  0.6784
  991MOL0     C33704   5.501   3.225   9.265 -0.8528  0.6632  0.9731
  991MOL0     C33705   5.414   3.112   9.242 -0.0468 -0.4322 -0.1852
  991MOL0     C33706   5.345   3.048   9.347 -0.5445 -0.2596  0.1846
  991MOL0     C33707   5.345   3.103   9.470  0.1223 -0.5230 -0.8566
  991MOL0     O33708   5.281   3.060   9.583 -0.2086  0.0133 -0.0685
  991MOL0     C33709   5.160   2.975   9.567 -0.4031 -0.7931 -0.6240
  991MOL0     C33710   5.038   3.045   9.634 -0.0094 -0.0815  0.3928
  991MOL0     C33711   4.909   2.958   9.629 -1.2723  0.2796 -0.2553
  991MOL0     C33712   4.804   3.022   9.719 -0.0491  0.5660  0.3332
  991MOL0     C33713   4.827   2.990   9.855 -0.3602 -0.2236 -0.8621
  991MOL0     C33714   4.855   2.941   9.961  0.4143  1.1563  0.2832
  991MOL0     C33715   5.425   3.213   9.494  0.0074  0.2864 -0.2239
  991MOL0     C33716   5.501   3.282   9.398  0.1325  0.0913  0.2791
  991MOL0     C33717   5.566   3.415   9.436 -0.9438 -0.2304 -0.6057
  991MOL0     H33718   5.878   3.490   9.185 -0.1389 -0.5966  0.1078
  991MOL0     H33719   6.019   3.618   9.023 -0.8124 -0.1890  0.5136
  991MOL0     H33720   6.070   3.829   8.717 -0.6092  1.5303  1.0004
  991MOL0     H33721   6.056   3.807   8.895  0.2867  0.3709 -0.8544
  991MOL0     H33722   6.219   3.657   8.689 -1.3283  0.7092 -0.1335
  991MOL0     H33723   6.182   3.560   8.832  2.3377 -0.1886  0.7898
  991MOL0     H33724   6.263   3.765   8.964 -0.6527 -0.6619 -0.1068
  991MOL0     H33725   6.306   3.832   8.807 -0.4493 -0.3723 -1.2121
  991MOL0     H33726   6.389   3.570   8.946 -3.1956  1.3221  1.2090
  991MOL0     H33727   6.438   3.608   8.773 -1.0177  0.2351 -1.0673
  991MOL0     H33728   6.630   3.685   8.921  0.4916  0.1656  1.1402
  991MOL0     H33729   6.546   3.816   8.837 -2.5933 -2.1260 -3.7110
  991MOL0     H33730   6.435   3.864   9.076  0.6981  1.4072  2.8098
  991MOL0     H33731   6.527   3.711   9.119  1.9027 -0.5685 -0.4315
  991MOL0     H33732   6.655   3.962   9.020 -1.2666  0.8912  0.1190
  991MOL0     H33733   6.724   3.819   9.119 -0.9934  0.2416  2.5982
  991MOL0     H33734   6.510   3.983   9.254 -0.7717 -1.0109 -1.0847
  991MOL0     H33735   6.646   3.884   9.309  0.1692  0.9439 -0.4628
  991MOL0     H33736   6.552   4.214   9.139 -0.0116  0.7480  0.2582
  991MOL0     H33737   6.795   4.433   9.045  1.3971  0.2806  0.4590
  991MOL0     H33738   6.671   4.476   9.162 -1.0215 -2.1811 -1.2238
  991MOL0     H33739   6.857   4.499   9.344  1.2618 -1.2734  0.6694
  991MOL0     H33740   6.972   4.450   9.222 -1.2764 -2.4429 -0.8750
  991MOL0     H33741   6.790   4.701   9.224 -1.0749  0.3982 -3.6760
  991MOL0     H33742   6.900   4.658   9.091 -0.3664 -0.1918 -0.3966
  991MOL0     H33743   7.093   4.681   9.265  0.1785 -0.5737 -2.8339
  991MOL0     H33744   6.971   4.728   9.372 -4.0663 -1.7279 -1.9165
  991MOL0     H33745   7.254   4.911   9.292 -1.3131 -2.7195 -0.2600
  991MOL0     H33746   7.437   4.974   9.140 -0.6142  1.5984  0.8824
  991MOL0     H33747   7.774   4.986   9.006 -0.4644 -1.0003  0.3260
  991MOL0     H33748   7.978   4.980   8.883 -0.7970  1.2857  1.6859
  991MOL0     H33749   8.174   4.983   8.749  1.9636  1.0294  0.8400
  991MOL0     H33750   8.196   5.013   8.579  0.9393 -0.0640  0.6372
  991MOL0     H33751   8.103   5.241   8.606  0.9783  1.9505  0.8144
  991MOL0     H33752   8.066   5.221   8.771 -1.0240  0.4591 -0.2350
  991MOL0     H33753   8.320   5.182   8.820 -0.4998 -2.3540 -1.2785
  991MOL0     H33754   8.357   5.228   8.656 -1.4407  1.0059 -0.6405
  991MOL0     H33755   8.243   5.411   8.846  1.0169 -3.2688  0.6879
  991MOL0     H33756   8.205   5.430   8.674  1.7930 -1.1680 -2.3207
  991MOL0     H33757   8.462   5.436   8.614 -0.9993  2.1936 -1.0525
  991MOL0     H33758   8.489   5.423   8.788  1.6218 -0.2625 -1.8663
  991MOL0     H33759   8.314   5.632   8.660  0.2374 -2.0803 -1.1569
  991MOL0     H33760   8.367   5.640   8.832  2.0016  1.9471  0.1901
  991MOL0     H33761   8.575   5.631   8.626  0.9035 -1.6679  1.2718
  991MOL0     H33762   8.568   5.701   8.790 -2.5072 -0.8675  1.4836
  991MOL0     H33763   8.442   5.797   8.524  2.7588  0.8673 -1.6483
  991MOL0     H33764   8.398   5.878   8.670 -0.3989  0.9435 -1.0243
  991MOL0     H33765   7.766   5.057   8.519 -0.8750 -1.3965  1.6070
  991MOL0     H33766   7.554   5.094   8.651  1.7870  2.4803 -0.2541
  991MOL0     H33767   7.160   4.892   8.799  3.0255  1.7011 -0.5073
  991MOL0     H33768   6.970   4.886   8.973 -1.5097 -0.9930  3.0620
  991MOL0     H33769   5.691   3.587   8.744  0.3882 -0.5208 -0.4636
  991MOL0     H33770   5.576   3.438   8.898 -0.4634 -1.4388  0.4619
  991MOL0     H33771   5.404   3.084   9.137  1.9352  1.2149 -0.9031
  991MOL0     H33772   5.282   2.960   9.335  0.1375 -0.8917  1.1145
  991MOL0     H33773   5.179   2.881   9.620 -2.0199 -0.9021 -0.1720
  991MOL0     H33774   5.145   2.945   9.463  0.4572  1.0329 -1.3156
  991MOL0     H33775   5.016   3.136   9.578  0.9914 -0.6268 -0.9279
  991MOL0     H33776   5.073   3.077   9.733  3.9402 -1.9673 -0.1870
  991MOL0     H33777   4.925   2.852   9.652 -2.1655 -0.0238 -0.9947
  991MOL0     H33778   4.869   2.956   9.528 -3.1120  1.7278  0.3814
  991MOL0     H33779   4.793   3.128   9.696 -1.0106  0.6878  1.2425
  991MOL0     H33780   4.707   2.972   9.707  0.5390 -0.0849 -2.4624
  991MOL0     H33781   4.890   2.885  10.045 -0.3487  2.5753  1.6034
  991MOL0     H33782   5.421   3.244   9.598  0.2202  2.1716 -0.7397
  991MOL0     H33783   5.675   3.414   9.426 -0.3333  0.8994  3.9338
  991MOL0     H33784   5.542   3.498   9.368  3.7549  2.2211  0.2730
  991MOL0     H33785   5.543   3.442   9.539 -1.8575  0.6625 -1.0204
  992MOL0     O33786   3.417   2.475   7.048  0.7639 -0.3180 -0.0034
  992MOL0     C33787   3.380   2.554   6.959  0.0019  0.1482  0.2282
  992MOL0     O33788   3.462   2.637   6.888  0.0722  0.2776 -0.9554
  992MOL0     C33789   3.601   2.616   6.871  1.4022  0.8556 -0.4946
  992MOL0     C33790   3.663   2.491   6.888  0.1193 -0.5998  0.0612
  992MOL0     C33791   3.802   2.470   6.892  0.9178 -0.0359  0.0389
  992MOL0     C33792   3.880   2.583   6.866  0.3846 -0.2144 -0.3469
  992MOL0     O33793   4.014   2.558   6.857 -0.2618 -0.0068  1.0567
  992MOL0     C33794   4.080   2.626   6.749 -0.1236 -0.0993 -0.8640
  992MOL0     C33795   4.198   2.539   6.697 -0.2777 -0.1830  0.1200
  992MOL0     C33796   4.269   2.622   6.596 -0.0413  0.6244  0.6299
  992MOL0     C33797   4.369   2.534   6.530 -0.4886 -1.4644  0.0543
  992MOL0     C33798   4.466   2.623   6.457 -0.1189 -0.0462 -0.4683
  992MOL0     C33799   4.535   2.528   6.355  0.2749  0.3719 -0.4389
  992MOL0     C33800   4.635   2.596   6.264  0.1160  0.6509 -0.0654
  992MOL0     C33801   4.579   2.700   6.160  0.1003  0.8790 -0.8241
  992MOL0     N33802   4.685   2.752   6.075 -0.9816  0.1509 -0.0704
  992MOL0     C33803   4.730   2.692   5.959  0.2450 -0.1288 -0.6139
  992MOL0     C33804   4.808   2.780   5.901 -0.2124 -0.3649 -0.2670
  992MOL0     C33805   4.897   2.739   5.778 -0.6836 -0.5051  0.0613
  992MOL0     C33806   5.038   2.718   5.832 -0.9323 -0.2989  0.1479
  992MOL0     C33807   5.119   2.850   5.819 -0.2600  0.4958  0.0950
  992MOL0     C33808   5.267   2.836   5.830  0.1420 -0.5356  0.7361
  992MOL0     O33809   5.312   2.741   5.732 -0.4417 -0.3852 -0.3893
  992MOL0     C33810   5.452   2.728   5.705  0.5223 -0.2555 -0.2878
  992MOL0     C33811   5.501   2.690   5.578 -0.0642  0.2563  0.1561
  992MOL0     C33812   5.637   2.679   5.554 -0.5688  0.3288  0.5099
  992MOL0     C33813   5.728   2.708   5.654 -0.1690  0.9266 -0.0379
  992MOL0     C33814   5.876   2.718   5.622  1.0023  0.8205 -0.6101
  992MOL0     O33815   5.944   2.800   5.700 -0.1290  0.0563 -0.7429
  992MOL0     C33816   6.074   2.832   5.680  0.7492 -0.2384  0.1656
  992MOL0     C33817   6.141   2.848   5.557 -0.6577 -0.1240  0.0814
  992MOL0     C33818   6.275   2.863   5.549 -0.8118 -0.1735 -0.3550
  992MOL0     C33819   6.348   2.881   5.673 -0.1100 -0.5521  0.9643
  992MOL0     O33820   6.486   2.882   5.673 -0.2842 -0.6975  0.3850
  992MOL0     C33821   6.554   2.984   5.747  0.2418 -0.5325  0.3579
  992MOL0     C33822   6.693   2.927   5.784  0.2166 -0.2599 -0.0637
  992MOL0     C33823   6.764   3.018   5.885  0.2471  0.2374 -0.0704
  992MOL0     C33824   6.861   2.934   5.965 -0.8828 -0.3297  0.2981
  992MOL0     C33825   6.951   3.007   6.072  0.1193  0.5337 -0.2910
  992MOL0     C33826   7.058   3.090   6.011  0.1686 -0.9396 -0.8710
  992MOL0     C33827   7.137   3.180   6.105  0.7269  0.0455  0.6197
  992MOL0     C33828   7.250   3.232   6.016 -0.4091 -0.1703  0.3334
  992MOL0    Cl33829   7.341   3.307   6.140 -0.0731 -0.1641  0.3259
  992MOL0     C33830   6.279   2.867   5.790 -0.0012 -0.2243  0.6124
  992MOL0     C33831   6.143   2.863   5.795 -0.6905  0.6117  0.2105
  992MOL0     O33832   5.923   2.649   5.533  0.0029  0.1308  0.2047
  992MOL0     C33833   5.681   2.753   5.780  0.4778 -0.3919  0.4186
  992MOL0     C33834   5.544   2.774   5.802  1.0451  0.1260 -0.3004
  992MOL0     N33835   4.814   2.902   5.977  0.0045 -0.1620  0.2551
  992MOL0     N33836   4.745   2.874   6.086  0.2685 -0.0197 -0.3252
  992MOL0     C33837   3.822   2.710   6.848 -0.0166 -0.3852 -0.0651
  992MOL0     C33838   3.680   2.730   6.847  0.8827 -0.0439 -0.3031
  992MOL0     C33839   3.238   2.577   6.940  0.8985  0.3224  0.1425
  992MOL0     C33840   3.201   2.681   6.854  0.7055 -1.0706  0.2434
  992MOL0     C33841   3.069   2.725   6.846 -0.7058 -0.7043  0.4513
  992MOL0     C33842   2.970   2.663   6.921  0.2850 -0.0631  0.2643
  992MOL0     O33843   2.834   2.692   6.931 -0.1120  0.1504 -0.7554
  992MOL0     C33844   2.769   2.786   6.835  0.0672  0.5744  0.6974
  992MOL0     C33845   2.763   2.916   6.915  0.6698 -0.0990 -0.8117
  992MOL0     C33846   2.654   2.916   7.020  0.8028 -0.2993 -0.1747
  992MOL0     C33847   2.644   3.048   7.105 -0.5064  0.0251  0.4312
  992MOL0     C33848   2.579   3.160   7.034  0.1017 -0.1200  0.4016
  992MOL0     C33849   2.535   3.259   6.971 -0.7598 -0.0617 -0.6706
  992MOL0     C33850   3.002   2.563   7.005  0.9126  0.1414  0.7482
  992MOL0     C33851   3.136   2.514   7.011 -0.3872  1.2244 -0.8742
  992MOL0     C33852   3.161   2.393   7.108  0.6528 -0.4962  0.3725
  992MOL0     H33853   3.603   2.402   6.906 -2.0796  1.0041  1.1394
  992MOL0     H33854   3.854   2.375   6.901  1.0123 -0.1745 -1.7078
  992MOL0     H33855   4.013   2.634   6.662  0.8679 -0.7009 -1.7029
  992MOL0     H33856   4.116   2.727   6.771 -1.8668  0.0578  1.7399
  992MOL0     H33857   4.139   2.456   6.657 -2.5346 -0.2475  3.2282
  992MOL0     H33858   4.267   2.507   6.776 -2.3767 -1.6422  1.4898
  992MOL0     H33859   4.310   2.718   6.625 -2.2172  1.5894  0.7149
  992MOL0     H33860   4.193   2.660   6.527  1.9377  1.8414 -0.9739
  992MOL0     H33861   4.422   2.466   6.598  0.7544 -2.3320 -1.6802
  992MOL0     H33862   4.313   2.472   6.459  1.3498  0.0532 -2.8974
  992MOL0     H33863   4.416   2.700   6.397 -3.4337 -2.9548 -1.7702
  992MOL0     H33864   4.537   2.674   6.524  0.8359 -1.6857 -0.1837
  992MOL0     H33865   4.578   2.446   6.414 -0.3299 -0.2201 -0.7989
  992MOL0     H33866   4.467   2.480   6.284  2.0418 -1.1464 -1.1692
  992MOL0     H33867   4.667   2.510   6.203 -0.5545  1.4343 -1.5765
  992MOL0     H33868   4.719   2.630   6.325 -1.2783 -1.7380  3.5349
  992MOL0     H33869   4.498   2.654   6.103 -1.2362  0.4361  1.3074
  992MOL0     H33870   4.535   2.786   6.213 -0.6641  0.7473 -1.2239
  992MOL0     H33871   4.709   2.588   5.935  0.7901 -0.1294 -1.1127
  992MOL0     H33872   4.871   2.640   5.740  1.8257 -0.9825 -0.5789
  992MOL0     H33873   4.906   2.810   5.695 -0.7817  1.2820  1.5130
  992MOL0     H33874   5.034   2.676   5.933 -2.8836 -0.7807 -0.0949
  992MOL0     H33875   5.084   2.655   5.756  0.9706  2.0532 -0.7721
  992MOL0     H33876   5.086   2.916   5.900 -1.0682 -0.2724  0.4125
  992MOL0     H33877   5.104   2.902   5.724 -1.3799  0.3944  0.2018
  992MOL0     H33878   5.294   2.797   5.929  2.0395  2.4151  1.4845
  992MOL0     H33879   5.317   2.932   5.819 -1.0866  0.2767  1.9726
  992MOL0     H33880   5.426   2.667   5.503 -0.6295  0.2566  0.7198
  992MOL0     H33881   5.672   2.640   5.459 -0.7854  3.3087 -0.8786
  992MOL0     H33882   6.071   2.826   5.477 -2.4180 -0.0006  1.5118
  992MOL0     H33883   6.320   2.869   5.450  1.0069  0.3661  0.4823
  992MOL0     H33884   6.564   3.072   5.684  4.2038 -1.1308 -0.1111
  992MOL0     H33885   6.497   3.007   5.837  1.0837 -1.5771  1.1898
  992MOL0     H33886   6.676   2.831   5.833 -0.1065 -0.8388 -1.2930
  992MOL0     H33887   6.752   2.912   5.693 -1.1956  0.8279 -1.2163
  992MOL0     H33888   6.821   3.099   5.837  0.8423  1.3647  2.3875
  992MOL0     H33889   6.685   3.068   5.942  1.9034  1.5909  1.1393
  992MOL0     H33890   6.934   2.884   5.900  0.2870  2.2887 -0.5574
  992MOL0     H33891   6.796   2.871   6.026 -2.2236  0.8542  0.1519
  992MOL0     H33892   6.997   2.928   6.132 -3.0690 -0.1433  1.4901
  992MOL0     H33893   6.882   3.062   6.137 -3.1873 -0.2850 -2.8193
  992MOL0     H33894   7.133   3.023   5.968  0.5438 -2.4829  1.9330
  992MOL0     H33895   7.013   3.153   5.933  0.4064 -0.1507 -0.3745
  992MOL0     H33896   7.177   3.115   6.183 -3.1277  0.4359  3.1624
  992MOL0     H33897   7.070   3.256   6.145  0.0275  2.2769 -4.0578
  992MOL0     H33898   7.317   3.160   5.970 -1.0055  1.4455 -3.4103
  992MOL0     H33899   7.216   3.305   5.942  0.2626  1.4493  1.5500
  992MOL0     H33900   6.318   2.850   5.890  1.5720 -0.4494 -0.0099
  992MOL0     H33901   6.092   2.849   5.890 -0.5459 -1.9599 -0.0246
  992MOL0     H33902   5.753   2.767   5.860  3.1603 -3.0094 -1.3294
  992MOL0     H33903   5.511   2.799   5.902  1.6411 -3.6969  1.0312
  992MOL0     H33904   3.882   2.800   6.831 -0.8677  0.1427 -0.3273
  992MOL0     H33905   3.622   2.822   6.847 -0.5019 -0.8790 -0.4245
  992MOL0     H33906   3.263   2.750   6.797 -0.7479  0.8626  0.9027
  992MOL0     H33907   3.049   2.815   6.788  2.1394 -0.3708 -0.1510
  992MOL0     H33908   2.675   2.744   6.798  1.3132  0.1304 -2.2259
  992MOL0     H33909   2.823   2.796   6.740  0.2369  1.1500  0.8480
  992MOL0     H33910   2.742   3.000   6.848 -0.2857  0.0668 -0.3230
  992MOL0     H33911   2.857   2.934   6.968 -0.8469  0.3294  1.9305
  992MOL0     H33912   2.659   2.834   7.092  0.8785 -0.5644 -0.4809
  992MOL0     H33913   2.554   2.905   6.977  0.2427 -0.1475  1.0485
  992MOL0     H33914   2.583   3.020   7.192 -3.0344 -3.7598 -2.2265
  992MOL0     H33915   2.746   3.072   7.136 -0.3608  2.0465 -1.4387
  992MOL0     H33916   2.499   3.347   6.923 -1.8395 -0.5444 -0.7722
  992MOL0     H33917   2.917   2.526   7.062 -1.7267  3.9045 -0.3051
  992MOL0     H33918   3.060   2.364   7.141 -0.1304  0.2608 -1.2302
  992MOL0     H33919   3.220   2.313   7.063  2.7865  1.0108  0.3905
  992MOL0     H33920   3.220   2.426   7.194  1.2501  0.5210 -0.4114
  993MOL0     O33921   6.386   1.637   2.185  0.4792 -0.2659 -0.2008
  993MOL0     C33922   6.335   1.684   2.082  0.3545 -0.6403  0.0065
  993MOL0     O33923   6.399   1.776   2.003 -0.1793 -0.2424 -0.5321
  993MOL0     C33924   6.532   1.809   2.003 -0.0360 -0.4291  0.3852
  993MOL0     C33925   6.638   1.729   2.053 -0.0849  0.6164 -0.3113
  993MOL0     C33926   6.772   1.765   2.047  0.1257 -0.6341 -0.3631
  993MOL0     C33927   6.802   1.896   2.001  0.4615  0.1109 -0.6949
  993MOL0     O33928   6.930   1.949   1.992 -0.3793  0.3963  0.3914
  993MOL0     C33929   7.024   1.912   2.092 -0.1043  0.0077  0.2429
  993MOL0     C33930   7.151   1.976   2.049  0.4580  0.7837  0.4658
  993MOL0     C33931   7.245   1.991   2.169  0.2344  0.0333  0.1150
  993MOL0     C33932   7.375   2.057   2.129  1.1371  0.0229  0.6962
  993MOL0     C33933   7.468   2.053   2.248  0.6306  0.1555 -0.7466
  993MOL0     C33934   7.605   2.119   2.217  0.2678 -0.7833 -0.1099
  993MOL0     C33935   7.694   2.045   2.119  0.1072 -0.1656  0.7613
  993MOL0     C33936   7.836   2.100   2.109 -0.6605 -0.3002  0.1408
  993MOL0     N33937   7.851   2.240   2.077  0.2643 -0.2488  0.0040
  993MOL0     C33938   7.912   2.328   2.163 -0.8228  0.6376  1.3714
  993MOL0     C33939   7.895   2.443   2.098 -0.0045 -0.7813  0.7621
  993MOL0     C33940   7.937   2.579   2.147  0.2722  0.4404 -0.0830
  993MOL0     C33941   8.091   2.582   2.120  0.2875 -0.1179 -0.0743
  993MOL0     C33942   8.120   2.629   1.983  0.6256  0.8357 -0.4727
  993MOL0     C33943   8.262   2.614   1.948 -0.1194 -0.6264 -0.7156
  993MOL0     O33944   8.296   2.710   1.843  0.0409 -0.1281  0.5289
  993MOL0     C33945   8.426   2.720   1.809  0.1558  0.6558 -0.6760
  993MOL0     C33946   8.480   2.843   1.776 -0.5309 -0.3913 -0.5587
  993MOL0     C33947   8.616   2.858   1.766 -0.2209  0.4439 -0.6129
  993MOL0     C33948   8.709   2.747   1.759 -0.0782 -0.5305 -0.5271
  993MOL0     C33949   8.854   2.772   1.738  0.5410 -0.6636 -0.5075
  993MOL0     O33950   8.894   2.894   1.745 -0.1316 -0.3401 -0.6190
  993MOL0     C33951   9.028   2.932   1.737 -0.5339  0.3317  0.6528
  993MOL0     C33952   9.098   2.911   1.618 -0.0741  0.6215  0.1128
  993MOL0     C33953   9.234   2.934   1.609 -0.2858 -0.6741 -0.3040
  993MOL0     C33954   9.299   3.018   1.701 -0.1200 -0.2259 -0.1202
  993MOL0     O33955   9.426   3.059   1.677 -0.1883 -0.3202 -0.1667
  993MOL0     C33956   9.463   3.190   1.696 -0.4011  0.0539 -0.6981
  993MOL0     C33957   9.605   3.184   1.756  0.1579  0.3368 -0.3840
  993MOL0     C33958   9.693   3.086   1.668  1.3043  0.1460  0.6404
  993MOL0     C33959   9.841   3.127   1.665 -0.6455  0.3085 -0.4443
  993MOL0     C33960   9.911   3.049   1.551 -0.2105 -0.5337 -0.1138
  993MOL0     C33961  10.057   3.086   1.546 -0.5646 -0.2457 -0.5502
  993MOL0     C33962  10.142   3.032   1.433  0.2042  0.2203  0.7674
  993MOL0     C33963  10.177   3.135   1.327  0.0254 -0.2559  0.2064
  993MOL0    Cl33964  10.033   3.191   1.244 -0.0298 -0.0518  0.0568
  993MOL0     C33965   9.232   3.037   1.823  0.1743 -0.1823 -0.3239
  993MOL0     C33966   9.099   2.998   1.837 -0.1584  0.0389  1.2170
  993MOL0     O33967   8.929   2.679   1.707  0.8577 -0.2360  0.4809
  993MOL0     C33968   8.651   2.618   1.780  0.4756 -0.5012  0.8997
  993MOL0     C33969   8.512   2.611   1.806  0.8250 -0.4801  0.2621
  993MOL0     N33970   7.830   2.425   1.981  0.0295  0.0397 -0.7412
  993MOL0     N33971   7.806   2.301   1.961  0.0024  0.9050 -0.0392
  993MOL0     C33972   6.698   1.967   1.933 -0.3616 -0.0214  0.5012
  993MOL0     C33973   6.563   1.933   1.940  0.4677 -0.4419 -0.9445
  993MOL0     C33974   6.198   1.652   2.050  1.2811  0.4097 -0.7236
  993MOL0     C33975   6.121   1.754   1.996  0.3435  0.2454 -0.0769
  993MOL0     C33976   5.984   1.723   1.982 -0.7310  0.5437 -0.0869
  993MOL0     C33977   5.924   1.609   2.030  0.7224 -0.1853  0.6152
  993MOL0     O33978   5.785   1.606   2.025  0.0510  0.9505  0.4268
  993MOL0     C33979   5.720   1.554   2.143 -0.3064 -0.3287 -0.0547
  993MOL0     C33980   5.567   1.568   2.142 -0.4353  0.4306 -0.0503
  993MOL0     C33981   5.527   1.714   2.135 -0.7478  1.0775  0.2576
  993MOL0     C33982   5.375   1.718   2.121  0.0226 -0.5879 -0.2326
  993MOL0     C33983   5.341   1.676   1.986 -0.2968 -0.3636  0.1090
  993MOL0     C33984   5.307   1.619   1.879  0.1263  0.6815  0.1569
  993MOL0     C33985   6.003   1.504   2.072 -0.4647  0.5220  0.1836
  993MOL0     C33986   6.139   1.521   2.087 -0.4452 -0.5008 -0.2821
  993MOL0     C33987   6.214   1.393   2.125 -0.9597 -0.6485 -0.2364
  993MOL0     H33988   6.608   1.633   2.093  0.0764  0.4825 -0.5067
  993MOL0     H33989   6.847   1.706   2.099 -0.9395 -1.1169  0.6701
  993MOL0     H33990   6.991   1.942   2.192  1.5090  0.3330  0.7108
  993MOL0     H33991   7.038   1.803   2.098 -1.0146 -0.0780  1.1634
  993MOL0     H33992   7.138   2.074   2.001  0.6054  0.2830 -0.6164
  993MOL0     H33993   7.194   1.909   1.974 -1.7394 -1.7719  1.3264
  993MOL0     H33994   7.287   1.899   2.210  1.7398 -0.3275 -2.0701
  993MOL0     H33995   7.202   2.049   2.252 -0.1243  0.9415 -0.6867
  993MOL0     H33996   7.426   2.000   2.051 -1.0415 -2.7744  1.1283
  993MOL0     H33997   7.347   2.155   2.092 -0.9098 -0.6551  0.3510
  993MOL0     H33998   7.417   2.101   2.331 -0.1778 -4.4957  1.8094
  993MOL0     H33999   7.481   1.947   2.274 -1.4200  0.4671  1.8873
  993MOL0     H34000   7.588   2.221   2.182  1.5746  0.0913  1.6121
  993MOL0     H34001   7.663   2.116   2.310  0.7072 -1.4181 -0.3952
  993MOL0     H34002   7.643   2.036   2.023  0.3494 -0.6058  0.6689
  993MOL0     H34003   7.700   1.943   2.159  0.3407  0.6806  3.0192
  993MOL0     H34004   7.887   2.083   2.204  0.4851 -0.0074 -0.3944
  993MOL0     H34005   7.888   2.048   2.028 -0.7228  0.3318 -0.3135
  993MOL0     H34006   7.973   2.305   2.250  2.7774  0.1367 -1.0783
  993MOL0     H34007   7.886   2.659   2.094  1.4424 -0.7115 -3.1736
  993MOL0     H34008   7.904   2.595   2.250 -3.1916 -2.4574 -0.5658
  993MOL0     H34009   8.132   2.651   2.194 -1.8044  0.1251  0.9296
  993MOL0     H34010   8.136   2.486   2.148 -1.6757 -1.2539 -0.5840
  993MOL0     H34011   8.085   2.732   1.969 -0.1604  0.7837  0.9233
  993MOL0     H34012   8.057   2.567   1.918 -0.3564  0.3977  0.8653
  993MOL0     H34013   8.272   2.509   1.922 -3.2047 -0.7524 -1.8044
  993MOL0     H34014   8.326   2.627   2.036 -0.4300  0.8722 -0.6728
  993MOL0     H34015   8.409   2.925   1.782  0.7280  0.7002 -0.2231
  993MOL0     H34016   8.639   2.961   1.743  0.6810 -0.0230 -1.9290
  993MOL0     H34017   9.063   2.854   1.532  1.3841  1.6374 -1.2139
  993MOL0     H34018   9.284   2.899   1.520 -1.0616  0.0265 -1.0376
  993MOL0     H34019   9.460   3.242   1.599 -1.3636 -0.2635 -0.8519
  993MOL0     H34020   9.387   3.242   1.754 -2.2166 -0.6902 -2.3171
  993MOL0     H34021   9.638   3.288   1.754  0.5613  0.1933 -1.3528
  993MOL0     H34022   9.610   3.145   1.858 -0.4782 -0.7497 -0.7483
  993MOL0     H34023   9.689   2.981   1.700  0.0087  0.4255  1.4857
  993MOL0     H34024   9.659   3.085   1.564 -0.6903 -0.5660  1.2417
  993MOL0     H34025   9.880   3.095   1.762 -0.3347  1.5903 -0.1316
  993MOL0     H34026   9.850   3.236   1.657 -3.2310  0.7780  1.7642
  993MOL0     H34027   9.857   3.078   1.461 -1.6461  0.5862  1.0468
  993MOL0     H34028   9.909   2.942   1.574  3.5619 -0.0824  3.4854
  993MOL0     H34029  10.068   3.195   1.553 -1.0484 -0.2124 -0.1811
  993MOL0     H34030  10.099   3.046   1.639  1.9760  2.8447 -0.1949
  993MOL0     H34031  10.083   2.965   1.371 -0.8040  0.8422  1.0363
  993MOL0     H34032  10.235   2.987   1.471  0.1193 -1.2898 -0.7071
  993MOL0     H34033  10.226   3.222   1.370  0.9848 -0.5058 -0.3700
  993MOL0     H34034  10.244   3.088   1.254  0.2048 -3.1551  2.0566
  993MOL0     H34035   9.278   3.091   1.905 -0.7733  0.3430 -0.1251
  993MOL0     H34036   9.048   3.031   1.927 -1.0518 -1.4270  1.2811
  993MOL0     H34037   8.704   2.524   1.775 -0.3499 -0.9287 -0.0097
  993MOL0     H34038   8.457   2.518   1.811  0.7787 -0.5966 -1.8385
  993MOL0     H34039   6.741   2.048   1.875 -1.5900 -0.5968 -1.3227
  993MOL0     H34040   6.485   1.995   1.899  2.5844  1.2627 -2.6802
  993MOL0     H34041   6.160   1.848   1.959 -0.2499  1.3210  1.8716
  993MOL0     H34042   5.927   1.795   1.924  0.4903  0.3313 -1.6125
  993MOL0     H34043   5.749   1.602   2.237 -1.9628 -0.1122  0.3919
  993MOL0     H34044   5.744   1.449   2.160  0.2321 -0.2042 -0.0416
  993MOL0     H34045   5.525   1.527   2.234 -1.6893 -0.5657 -1.0464
  993MOL0     H34046   5.518   1.507   2.066 -0.4051  0.4570 -0.0913
  993MOL0     H34047   5.574   1.753   2.044  1.0389 -3.0205 -0.8095
  993MOL0     H34048   5.565   1.771   2.221  0.9201 -1.2120  1.1409
  993MOL0     H34049   5.318   1.646   2.182 -1.7270  0.3793 -0.6542
  993MOL0     H34050   5.326   1.810   2.154 -0.1109 -1.1981  1.4160
  993MOL0     H34051   5.274   1.557   1.797 -0.8178  2.0416 -0.5366
  993MOL0     H34052   5.958   1.406   2.075 -0.4343  0.4153 -1.8417
  993MOL0     H34053   6.312   1.386   2.077 -1.3178 -2.7307 -0.7752
  993MOL0     H34054   6.231   1.393   2.233  1.0603  1.3437 -0.4735
  993MOL0     H34055   6.167   1.299   2.094  6.4156 -4.0954 -3.3321
  994MOL0     O34056   9.340  10.579   9.291  0.3737  0.4337 -0.1807
  994MOL0     C34057   9.240  10.587   9.212 -1.1694 -0.3053 -0.4569
  994MOL0     O34058   9.247  10.656   9.095  0.4154  0.5673 -0.0105
  994MOL0     C34059   9.359  10.689   9.040  0.1427 -0.3864  0.4411
  994MOL0     C34060   9.373  10.827   9.037 -0.5648 -0.6707 -0.1014
  994MOL0     C34061   9.492  10.875   8.974  0.3036 -1.4159 -0.0815
  994MOL0     C34062   9.587  10.790   8.918 -0.4204  0.3236  0.3097
  994MOL0     O34063   9.709  10.839   8.867 -0.6158  0.1779 -0.1797
  994MOL0     C34064   9.769  10.955   8.931  0.1201  1.0413  0.9042
  994MOL0     C34065   9.922  10.947   8.928  0.2913 -0.4164  0.9551
  994MOL0     C34066   9.995  10.980   8.795  0.5439 -1.1315 -0.6548
  994MOL0     C34067  10.139  11.020   8.820  0.1874  0.9075  0.3396
  994MOL0     C34068  10.211  11.023   8.684  0.1044 -0.3960  0.5802
  994MOL0     C34069  10.364  11.000   8.681  0.7348 -0.4514  0.3462
  994MOL0     C34070  10.436  11.125   8.705 -1.2645 -0.5310 -0.2905
  994MOL0     C34071  10.588  11.119   8.733  0.1455 -0.3493  0.0647
  994MOL0     N34072  10.653  11.017   8.653  0.8417 -0.2821 -0.1460
  994MOL0     C34073  10.709  11.034   8.532 -0.5092 -1.8414 -0.3202
  994MOL0     C34074  10.769  10.917   8.509 -0.0989  0.4425 -0.4140
  994MOL0     C34075  10.851  10.896   8.395 -0.7458  0.5418 -0.2391
  994MOL0     C34076  10.999  10.920   8.435 -0.0648 -0.5185  0.2423
  994MOL0     C34077  11.069  10.913   8.298  0.2630  0.1383 -0.5823
  994MOL0     C34078  11.206  10.992   8.311 -0.2992 -0.1601  0.8147
  994MOL0     O34079  11.300  10.951   8.411  0.5837  0.7392  0.5857
  994MOL0     C34080  11.424  10.995   8.402 -0.1415  1.2615  0.7344
  994MOL0     C34081  11.510  10.946   8.509 -0.4787 -0.6753  0.4075
  994MOL0     C34082  11.649  10.970   8.490  0.0033 -0.1449  0.1219
  994MOL0     C34083  11.699  11.057   8.392  0.2166 -0.0831 -0.6432
  994MOL0     C34084  11.845  11.088   8.396 -0.3645 -0.1765  0.2018
  994MOL0     O34085  11.920  11.053   8.494  0.0573  0.0320 -0.0523
  994MOL0     C34086  12.055  11.073   8.477  0.3786 -0.1451 -1.2786
  994MOL0     C34087  12.108  11.172   8.561 -0.1363 -0.3348 -0.1132
  994MOL0     C34088  12.251  11.181   8.563  0.6729 -0.0184 -0.3340
  994MOL0     C34089  12.331  11.105   8.473 -0.2828 -0.3793  0.0346
  994MOL0     O34090  12.466  11.109   8.467 -0.3751  0.2590 -0.3274
  994MOL0     C34091  12.534  11.189   8.572 -0.4812  0.3370 -0.1918
  994MOL0     C34092  12.691  11.178   8.577  0.3869 -0.6395 -0.0811
  994MOL0     C34093  12.728  11.034   8.569  0.2415  0.6057 -0.1587
  994MOL0     C34094  12.881  10.999   8.578  0.1468  1.3257 -0.9511
  994MOL0     C34095  12.906  10.850   8.562  0.2193 -0.4623  0.0245
  994MOL0     C34096  13.063  10.831   8.561  0.1358 -0.1702  0.4684
  994MOL0     C34097  13.096  10.678   8.586  0.4568  0.6015  0.4594
  994MOL0     C34098  13.246  10.661   8.550 -0.1241  0.5062 -0.7619
  994MOL0    Cl34099  13.336  10.745   8.682 -0.4173  0.2092 -0.2471
  994MOL0     C34100  12.265  11.024   8.384  0.2399  0.5757  0.3071
  994MOL0     C34101  12.127  11.007   8.381 -0.0396  0.4481  0.7703
  994MOL0     O34102  11.880  11.150   8.295  0.5269  0.0331 -0.3107
  994MOL0     C34103  11.609  11.108   8.299  0.4353 -0.0476  0.2031
  994MOL0     C34104  11.475  11.081   8.300  0.5735 -0.4019 -0.5290
  994MOL0     N34105  10.767  10.840   8.623 -0.3249 -0.8236 -0.1067
  994MOL0     N34106  10.694  10.906   8.707  0.1462 -0.5550  0.0691
  994MOL0     C34107   9.567  10.652   8.923 -0.1951  0.4846  0.9513
  994MOL0     C34108   9.448  10.595   8.976 -0.1218 -0.3894 -0.4313
  994MOL0     C34109   9.100  10.554   9.247  0.2088  0.4695 -0.5860
  994MOL0     C34110   9.025  10.639   9.319 -0.8861  0.6762 -0.3835
  994MOL0     C34111   8.893  10.611   9.339 -0.4971 -0.0242 -0.5885
  994MOL0     C34112   8.832  10.505   9.276 -0.7745 -0.2564 -0.9589
  994MOL0     O34113   8.704  10.487   9.308  0.5182  0.2631  0.8062
  994MOL0     C34114   8.635  10.385   9.240  0.1929  0.3234 -0.1197
  994MOL0     C34115   8.487  10.404   9.266  1.3323  0.1299 -0.4888
  994MOL0     C34116   8.403  10.353   9.149 -0.0436 -0.6414 -0.2660
  994MOL0     C34117   8.247  10.383   9.162 -0.9789  1.1820 -0.0740
  994MOL0     C34118   8.197  10.322   9.287  0.5686  0.1875  0.6750
  994MOL0     C34119   8.152  10.271   9.390 -0.6382  0.5418  0.2291
  994MOL0     C34120   8.907  10.418   9.199 -0.4857 -0.3568 -0.0354
  994MOL0     C34121   9.044  10.443   9.185 -0.9243  0.0868  0.3542
  994MOL0     C34122   9.128  10.347   9.106 -0.1043 -0.1131  0.6191
  994MOL0     H34123   9.307  10.900   9.083 -0.4120 -0.7165  0.1914
  994MOL0     H34124   9.508  10.983   8.979  0.4898 -1.4496  0.0643
  994MOL0     H34125   9.732  11.043   8.879 -0.1400 -0.6185 -1.9012
  994MOL0     H34126   9.743  10.970   9.036 -1.4053 -2.8611  1.2387
  994MOL0     H34127   9.942  10.843   8.954 -0.2458 -0.5684  0.7810
  994MOL0     H34128   9.951  11.015   9.009 -0.3849  0.0724  0.8007
  994MOL0     H34129   9.935  11.060   8.751  1.6803 -0.3444 -0.8238
  994MOL0     H34130   9.990  10.894   8.728  1.2411 -1.0724 -0.7947
  994MOL0     H34131  10.151  11.116   8.871 -2.0258  0.5689  1.6109
  994MOL0     H34132  10.197  10.954   8.885  4.1303  2.0537 -1.6764
  994MOL0     H34133  10.172  10.942   8.621 -2.4135  2.0647 -1.2580
  994MOL0     H34134  10.191  11.123   8.645 -1.6501  1.4245  5.4163
  994MOL0     H34135  10.398  10.927   8.755 -0.6016 -0.6736  0.7789
  994MOL0     H34136  10.404  10.965   8.586  2.6355 -1.0126  1.3050
  994MOL0     H34137  10.401  11.175   8.795  0.4134  0.2914 -0.0551
  994MOL0     H34138  10.430  11.198   8.623  0.1982 -1.3939 -1.2183
  994MOL0     H34139  10.634  11.218   8.721  0.4776 -0.4452  0.5033
  994MOL0     H34140  10.603  11.089   8.838 -1.7051 -2.8205 -0.2841
  994MOL0     H34141  10.720  11.113   8.458  1.4989 -0.2681  1.5471
  994MOL0     H34142  10.831  10.794   8.361  2.2816  0.2814 -1.4923
  994MOL0     H34143  10.817  10.961   8.314  0.3720  1.8886  0.3405
  994MOL0     H34144  11.007  11.013   8.492 -3.9232 -0.8101  1.5527
  994MOL0     H34145  11.039  10.845   8.503  2.9280  0.2998 -0.4859
  994MOL0     H34146  11.009  10.959   8.219  1.3062  0.5402 -1.1571
  994MOL0     H34147  11.095  10.808   8.282 -0.8407 -0.3207  0.4731
  994MOL0     H34148  11.188  11.098   8.329  1.3270  0.1996  0.4640
  994MOL0     H34149  11.234  10.972   8.207 -1.4498 -2.2509  0.8490
  994MOL0     H34150  11.473  10.897   8.598 -0.3907 -1.5559 -0.0280
  994MOL0     H34151  11.722  10.925   8.556  0.7673 -1.1040 -1.3157
  994MOL0     H34152  12.032  11.221   8.621 -3.1245 -3.1543 -1.2874
  994MOL0     H34153  12.288  11.262   8.625  0.6088  2.2405 -3.0256
  994MOL0     H34154  12.501  11.293   8.571 -0.9551  0.2087  0.7069
  994MOL0     H34155  12.496  11.154   8.669  5.2129  2.5948  3.3796
  994MOL0     H34156  12.737  11.229   8.491  0.2504  1.3609  0.9528
  994MOL0     H34157  12.727  11.219   8.672 -1.6868 -0.0573  0.5088
  994MOL0     H34158  12.688  10.973   8.650 -0.9748 -0.7352 -1.6843
  994MOL0     H34159  12.677  10.992   8.482 -2.2936  1.4441  0.8527
  994MOL0     H34160  12.920  11.020   8.678 -1.5758  3.2422 -0.6216
  994MOL0     H34161  12.936  11.055   8.501  1.1742  0.5412 -0.8132
  994MOL0     H34162  12.864  10.813   8.468  0.2537 -1.6886  0.4830
  994MOL0     H34163  12.864  10.792   8.645 -0.7038  1.1910  0.7676
  994MOL0     H34164  13.115  10.889   8.484 -0.4659 -1.1396 -0.7039
  994MOL0     H34165  13.108  10.878   8.650  0.6524 -1.6870  1.0387
  994MOL0     H34166  13.039  10.607   8.526  4.3038 -3.1735  0.7998
  994MOL0     H34167  13.074  10.641   8.686 -0.1854 -2.8767 -0.8229
  994MOL0     H34168  13.276  10.556   8.553  0.7490  0.7509 -0.8569
  994MOL0     H34169  13.257  10.698   8.448 -1.0706 -0.9862 -1.4527
  994MOL0     H34170  12.328  10.974   8.310  1.7759  0.4556  1.6434
  994MOL0     H34171  12.093  10.933   8.309  2.8374 -0.2738  0.0531
  994MOL0     H34172  11.643  11.182   8.228  0.7828 -0.8651 -0.5042
  994MOL0     H34173  11.415  11.127   8.222  1.7831  1.2615 -0.5223
  994MOL0     H34174   9.652  10.591   8.894  0.0684  0.0155  2.5852
  994MOL0     H34175   9.428  10.494   9.008 -0.0815 -0.0980  0.5406
  994MOL0     H34176   9.075  10.719   9.372  2.8136 -2.1466  0.8884
  994MOL0     H34177   8.836  10.685   9.395 -0.5645  1.3269 -2.3570
  994MOL0     H34178   8.669  10.291   9.283 -2.8955 -0.6806  0.4166
  994MOL0     H34179   8.655  10.394   9.133  2.2226  1.1473  0.2908
  994MOL0     H34180   8.464  10.508   9.287 -0.7872 -0.1076 -1.4101
  994MOL0     H34181   8.465  10.345   9.355  2.2162  1.5540  0.7094
  994MOL0     H34182   8.405  10.243   9.153  0.7520 -0.5869  2.6051
  994MOL0     H34183   8.434  10.387   9.050  2.2942 -0.2531  0.5507
  994MOL0     H34184   8.239  10.492   9.166  1.8501  1.4329  0.8027
  994MOL0     H34185   8.195  10.337   9.077 -1.6258  0.7982  0.5242
  994MOL0     H34186   8.117  10.226   9.480  0.2100 -2.7336 -0.9363
  994MOL0     H34187   8.878  10.323   9.156  0.2527 -0.8402  0.5222
  994MOL0     H34188   9.110  10.240   9.117  0.4849 -0.2853 -0.0717
  994MOL0     H34189   9.114  10.374   9.001 -0.7684  0.0218  0.7395
  994MOL0     H34190   9.235  10.364   9.121 -0.1856  1.1014 -0.0677
  995MOL0     O34191   6.974   7.871   1.583 -0.0949  0.3593  0.5123
  995MOL0     C34192   6.893   7.784   1.611 -0.3897  0.3370  0.3459
  995MOL0     O34193   6.882   7.737   1.734  0.1915  0.0021 -0.0687
  995MOL0     C34194   6.951   7.797   1.837  0.0323  0.8394 -0.5236
  995MOL0     C34195   7.064   7.736   1.891  0.0103  0.2162 -0.0335
  995MOL0     C34196   7.141   7.797   1.987 -0.4563 -0.0324  0.1639
  995MOL0     C34197   7.115   7.923   2.032  0.3875  0.3812 -0.0728
  995MOL0     O34198   7.184   7.978   2.134  0.4554 -0.7165 -0.5310
  995MOL0     C34199   7.234   8.110   2.107  0.4689  0.1394  0.0320
  995MOL0     C34200   7.360   8.135   2.185 -0.3960 -0.2305  0.5586
  995MOL0     C34201   7.455   8.019   2.146  0.0141  0.0469 -0.0737
  995MOL0     C34202   7.599   8.064   2.123  0.0021  0.0993 -0.0725
  995MOL0     C34203   7.686   7.967   2.037 -0.3134  0.5853 -0.6578
  995MOL0     C34204   7.821   8.031   2.003 -0.4154  0.4364 -0.6708
  995MOL0     C34205   7.891   7.962   1.892 -0.3299  0.4432  0.3381
  995MOL0     C34206   7.939   7.817   1.921  0.8717  0.3174  0.0904
  995MOL0     N34207   8.017   7.786   1.803  0.1862 -0.1399  0.5952
  995MOL0     C34208   8.154   7.795   1.793  0.0848 -1.1647 -0.7644
  995MOL0     C34209   8.183   7.754   1.672 -0.5587  0.5607 -0.0995
  995MOL0     C34210   8.318   7.764   1.610  0.1237  0.4250 -0.1745
  995MOL0     C34211   8.360   7.888   1.536  1.0657  0.2020  0.1474
  995MOL0     C34212   8.379   8.002   1.626 -0.4053 -0.7673 -0.4299
  995MOL0     C34213   8.507   7.990   1.714 -0.1202  0.3757 -0.1889
  995MOL0     O34214   8.618   8.014   1.621  0.5735  0.3153  0.3469
  995MOL0     C34215   8.744   8.006   1.685  0.2957 -0.6871 -0.0073
  995MOL0     C34216   8.791   8.064   1.805 -0.7125  0.3209  0.0870
  995MOL0     C34217   8.922   8.044   1.854 -0.6990  0.2050  0.5478
  995MOL0     C34218   9.010   7.968   1.773  0.2298 -0.6165  0.2642
  995MOL0     C34219   9.147   7.942   1.816 -0.1673  0.2217 -0.1369
  995MOL0     O34220   9.239   7.929   1.712 -0.5303  0.0124 -1.1704
  995MOL0     C34221   9.375   7.896   1.728 -0.1899 -0.0178 -0.5144
  995MOL0     C34222   9.412   7.800   1.820 -0.3108  0.4780 -0.0783
  995MOL0     C34223   9.551   7.768   1.841  0.7392  0.3588 -0.2795
  995MOL0     C34224   9.645   7.840   1.768 -0.1995  0.5579  0.9215
  995MOL0     O34225   9.770   7.803   1.804 -0.0887 -0.0531 -0.0685
  995MOL0     C34226   9.867   7.908   1.802  0.5355 -0.0050  0.3042
  995MOL0     C34227   9.967   7.881   1.918  0.5565 -0.4902 -0.2112
  995MOL0     C34228   9.899   7.843   2.046 -0.2701  0.1263 -0.3448
  995MOL0     C34229  10.014   7.828   2.157  0.2520 -1.2832 -0.2658
  995MOL0     C34230   9.947   7.796   2.304 -0.5906  0.1938 -0.6260
  995MOL0     C34231  10.033   7.807   2.437 -0.7675 -0.0119  0.0907
  995MOL0     C34232  10.176   7.751   2.426  0.1542  0.2657  0.3102
  995MOL0     C34233  10.239   7.747   2.560 -0.3770  0.5575  0.3370
  995MOL0    Cl34234  10.397   7.688   2.561  0.2086  0.5345 -0.0578
  995MOL0     C34235   9.604   7.941   1.674 -0.1417  0.5683 -0.2922
  995MOL0     C34236   9.471   7.959   1.646 -0.2250 -0.4753  0.2164
  995MOL0     O34237   9.173   7.945   1.943 -0.8170 -0.4190  0.2790
  995MOL0     C34238   8.969   7.921   1.643 -0.3165 -0.4678  0.1932
  995MOL0     C34239   8.839   7.947   1.603 -0.2051  0.6007  0.3994
  995MOL0     N34240   8.064   7.745   1.601 -0.1215 -0.3093  0.4817
  995MOL0     N34241   7.966   7.765   1.681  1.3920  0.1187  0.0704
  995MOL0     C34242   7.002   7.987   1.979 -0.1709 -1.2613  0.0108
  995MOL0     C34243   6.916   7.927   1.883  0.1501 -0.4859  0.0908
  995MOL0     C34244   6.830   7.713   1.504  0.8361  1.4969  0.9307
  995MOL0     C34245   6.747   7.600   1.528 -0.5724  0.0973  0.5035
  995MOL0     C34246   6.677   7.535   1.424 -0.2166  0.0516 -1.3423
  995MOL0     C34247   6.687   7.568   1.293  0.2453  0.1226 -0.4985
  995MOL0     O34248   6.619   7.499   1.197 -0.2504  0.0845 -0.6665
  995MOL0     C34249   6.483   7.467   1.223 -0.3716  0.5633 -0.2408
  995MOL0     C34250   6.405   7.445   1.090 -0.0631  1.3289  0.4075
  995MOL0     C34251   6.353   7.571   1.026 -0.0048  1.3173  0.2047
  995MOL0     C34252   6.286   7.544   0.897  0.4714 -0.2307  0.5113
  995MOL0     C34253   6.363   7.456   0.802  0.3334  1.6772 -0.1931
  995MOL0     C34254   6.430   7.399   0.713  0.0916 -0.8957  0.1881
  995MOL0     C34255   6.766   7.678   1.262  0.7493  0.2722 -0.4309
  995MOL0     C34256   6.822   7.763   1.367  0.3920  0.2709  0.7852
  995MOL0     C34257   6.886   7.897   1.319  0.2898  0.4215  0.3479
  995MOL0     H34258   7.094   7.637   1.857 -1.8376  0.0252 -1.2800
  995MOL0     H34259   7.210   7.734   2.043  0.3664  0.7478  0.0522
  995MOL0     H34260   7.258   8.116   2.000 -0.7167  0.4922 -0.2276
  995MOL0     H34261   7.156   8.184   2.123  0.0695 -0.3574  0.4027
  995MOL0     H34262   7.349   8.148   2.293 -2.4459  0.4832  0.3129
  995MOL0     H34263   7.394   8.235   2.157 -2.3101  2.1143  5.4575
  995MOL0     H34264   7.409   7.969   2.060 -0.8997 -2.0617  1.5560
  995MOL0     H34265   7.462   7.956   2.235  1.1310 -2.0115 -1.5561
  995MOL0     H34266   7.591   8.155   2.063 -3.9047 -0.0543 -0.0141
  995MOL0     H34267   7.646   8.081   2.220  1.1491  0.9779 -0.7567
  995MOL0     H34268   7.698   7.868   2.082 -0.4259  0.1837 -1.4891
  995MOL0     H34269   7.640   7.953   1.939  1.7961  0.1915 -1.6552
  995MOL0     H34270   7.810   8.137   1.976 -0.1296  1.2739  2.1650
  995MOL0     H34271   7.886   8.036   2.091 -0.6661  2.0190 -0.5475
  995MOL0     H34272   7.977   8.023   1.863  1.2198 -2.7254 -2.4956
  995MOL0     H34273   7.823   7.965   1.806  3.1916  2.2905 -2.7037
  995MOL0     H34274   7.981   7.818   2.022 -1.1072 -1.6115  1.0287
  995MOL0     H34275   7.851   7.753   1.933  0.9601 -0.0634 -1.1852
  995MOL0     H34276   8.217   7.844   1.866 -0.9942  1.3675 -1.4244
  995MOL0     H34277   8.391   7.732   1.686 -0.4255 -0.9386 -0.1919
  995MOL0     H34278   8.322   7.682   1.537 -0.1625 -0.5195  0.8412
  995MOL0     H34279   8.453   7.875   1.481  1.8955  2.5054  0.8924
  995MOL0     H34280   8.277   7.906   1.467  1.1269 -0.8820 -0.2338
  995MOL0     H34281   8.292   8.012   1.691 -0.1254  0.3469 -0.2019
  995MOL0     H34282   8.382   8.095   1.568 -0.4669 -0.6282 -0.2117
  995MOL0     H34283   8.511   7.896   1.771 -1.2598  0.0998 -0.5537
  995MOL0     H34284   8.504   8.068   1.791 -0.7126  0.5721 -0.4102
  995MOL0     H34285   8.720   8.116   1.867 -2.7741 -1.1647 -0.9143
  995MOL0     H34286   8.950   8.097   1.945  1.6040  0.8722 -0.4853
  995MOL0     H34287   9.330   7.768   1.885 -0.5665 -0.0173 -0.6399
  995MOL0     H34288   9.585   7.691   1.909  1.1090  1.0421  0.3290
  995MOL0     H34289   9.924   7.912   1.709  0.8620  2.8241  0.5291
  995MOL0     H34290   9.812   8.001   1.819  1.9119  0.4097  3.0541
  995MOL0     H34291  10.034   7.804   1.881  1.6863  0.3858 -0.0411
  995MOL0     H34292  10.009   7.981   1.935  2.0812 -1.0385 -0.6174
  995MOL0     H34293   9.812   7.904   2.074 -0.7306 -0.5149 -0.3420
  995MOL0     H34294   9.856   7.743   2.032  0.5939 -0.6061  1.8522
  995MOL0     H34295  10.074   7.918   2.172  1.4248 -2.0255 -0.3642
  995MOL0     H34296  10.083   7.750   2.126 -0.3958 -1.6107 -0.9224
  995MOL0     H34297   9.902   7.696   2.298 -1.7972  0.5948  0.9777
  995MOL0     H34298   9.862   7.860   2.328  0.0572  0.1714  1.9936
  995MOL0     H34299  10.036   7.907   2.483  0.1022  0.8443 -1.7243
  995MOL0     H34300   9.985   7.738   2.507 -1.3962  1.5123  1.2099
  995MOL0     H34301  10.228   7.829   2.369  1.4394 -0.5524  0.3237
  995MOL0     H34302  10.175   7.654   2.374 -0.8663 -0.3497  1.4389
  995MOL0     H34303  10.246   7.847   2.602 -0.3205  0.8847 -0.4422
  995MOL0     H34304  10.180   7.679   2.621  1.2667 -1.0742  0.2123
  995MOL0     H34305   9.685   7.995   1.626  1.5942 -2.5244 -1.0686
  995MOL0     H34306   9.440   8.037   1.578 -0.4900  0.2351  1.1360
  995MOL0     H34307   9.035   7.873   1.572 -2.3297 -2.7882 -0.2714
  995MOL0     H34308   8.820   7.934   1.497  4.4587 -0.5129 -0.5008
  995MOL0     H34309   6.978   8.084   2.022 -1.4790 -0.8585 -1.5194
  995MOL0     H34310   6.820   7.966   1.851 -0.2275  0.5685  2.3535
  995MOL0     H34311   6.739   7.559   1.628  2.9177 -0.7756  0.5351
  995MOL0     H34312   6.633   7.442   1.461 -1.6609  1.0963 -0.3437
  995MOL0     H34313   6.441   7.543   1.289  1.4468  1.3737  0.0292
  995MOL0     H34314   6.472   7.379   1.287 -1.0901  1.9003  1.5610
  995MOL0     H34315   6.322   7.375   1.102  0.1296  0.6089 -2.0196
  995MOL0     H34316   6.470   7.398   1.017 -2.3546  0.5301 -1.2502
  995MOL0     H34317   6.437   7.638   1.006  0.6737  0.6958  0.9019
  995MOL0     H34318   6.293   7.617   1.104 -0.5020  2.9063 -1.0591
  995MOL0     H34319   6.189   7.498   0.918  0.9179 -1.0991  0.7352
  995MOL0     H34320   6.255   7.637   0.849 -2.5698 -1.4524 -0.1305
  995MOL0     H34321   6.475   7.344   0.633  3.8428  1.5842  0.3454
  995MOL0     H34322   6.777   7.700   1.156  2.2551  0.3528 -0.2798
  995MOL0     H34323   6.990   7.869   1.299 -0.3919  0.0939 -3.3094
  995MOL0     H34324   6.836   7.924   1.226 -0.5628 -3.3776 -0.4665
  995MOL0     H34325   6.874   7.980   1.389  0.9760  1.4982 -0.7801
  996MOL0     O34326   2.875   9.785   8.008 -0.2467  0.3166 -0.5211
  996MOL0     C34327   2.814   9.710   8.087 -0.2008  0.3400 -0.2046
  996MOL0     O34328   2.873   9.635   8.186  0.2299 -0.0899 -0.0906
  996MOL0     C34329   3.012   9.625   8.185 -0.3749 -0.0347  0.1807
  996MOL0     C34330   3.086   9.618   8.066  0.9878  0.4743  0.0676
  996MOL0     C34331   3.226   9.618   8.077  1.0044 -0.0311  0.1857
  996MOL0     C34332   3.290   9.621   8.199 -0.2357 -0.0430 -0.1991
  996MOL0     O34333   3.429   9.635   8.188 -0.5982  0.2102  0.5676
  996MOL0     C34334   3.501   9.674   8.309 -0.1864 -0.3458  0.3675
  996MOL0     C34335   3.644   9.712   8.271  0.0777  0.0405 -0.3599
  996MOL0     C34336   3.723   9.609   8.192 -0.8317 -0.7180  0.0089
  996MOL0     C34337   3.833   9.676   8.110 -0.2321  0.5673 -0.8778
  996MOL0     C34338   3.916   9.567   8.039  1.3420  0.7579  0.4362
  996MOL0     C34339   4.040   9.524   8.124  0.2520  0.1424 -0.2813
  996MOL0     C34340   4.132   9.640   8.156 -0.3401  0.2624 -0.1046
  996MOL0     C34341   4.273   9.600   8.191  0.5977  0.7728 -0.7519
  996MOL0     N34342   4.364   9.706   8.237 -0.0228  0.3308 -0.4049
  996MOL0     C34343   4.368   9.765   8.363  0.7119  0.1337 -0.7241
  996MOL0     C34344   4.448   9.865   8.357 -1.2995  0.3755 -0.1844
  996MOL0     C34345   4.468   9.960   8.460  0.4406 -0.6344  0.0427
  996MOL0     C34346   4.563   9.921   8.577 -0.3026 -0.6532 -0.1037
  996MOL0     C34347   4.695   9.972   8.528 -0.1305 -0.1182  0.0402
  996MOL0     C34348   4.800   9.942   8.636 -0.4453  0.3381  0.9908
  996MOL0     O34349   4.923  10.007   8.620 -0.4624 -0.2450 -0.3225
  996MOL0     C34350   5.033   9.920   8.611 -0.5770  0.0372  0.5639
  996MOL0     C34351   5.035   9.817   8.515 -0.1238  0.2764 -0.2965
  996MOL0     C34352   5.145   9.733   8.513 -1.0450 -0.1796 -0.9498
  996MOL0     C34353   5.258   9.755   8.590  0.8686 -0.6201  0.5717
  996MOL0     C34354   5.382   9.673   8.566  1.1788  0.2358  0.2417
  996MOL0     O34355   5.486   9.735   8.604 -0.3756 -0.4882 -0.6377
  996MOL0     C34356   5.612   9.685   8.577 -0.9617  0.5518 -1.0090
  996MOL0     C34357   5.635   9.621   8.456  0.0658 -0.6474  0.5138
  996MOL0     C34358   5.769   9.579   8.412  0.5689 -0.0986 -0.0507
  996MOL0     C34359   5.870   9.612   8.501 -0.9681 -0.1454 -0.2617
  996MOL0     O34360   5.997   9.586   8.477 -0.1322  0.2128 -0.0405
  996MOL0     C34361   6.046   9.509   8.366  0.3058  0.0795  0.7724
  996MOL0     C34362   6.198   9.483   8.376  0.3089 -0.0656  0.1956
  996MOL0     C34363   6.257   9.409   8.494  0.1154 -0.2138 -0.2937
  996MOL0     C34364   6.257   9.490   8.627 -0.1881 -0.1940 -0.1609
  996MOL0     C34365   6.358   9.430   8.725 -0.5511  0.2034 -0.9411
  996MOL0     C34366   6.501   9.428   8.669  0.2015  0.1155 -0.0924
  996MOL0     C34367   6.604   9.454   8.777 -0.1657  1.0892  1.1294
  996MOL0     C34368   6.737   9.397   8.736 -0.1144 -0.7562  0.1187
  996MOL0    Cl34369   6.872   9.435   8.857 -0.0174  0.1355 -0.1272
  996MOL0     C34370   5.845   9.674   8.626 -0.4599 -0.1097  0.7203
  996MOL0     C34371   5.712   9.702   8.667  0.5842 -0.0046  0.9175
  996MOL0     O34372   5.366   9.565   8.504  0.5892  0.0203 -0.1655
  996MOL0     C34373   5.260   9.862   8.679 -0.0281  0.3965 -0.3480
  996MOL0     C34374   5.150   9.950   8.686  0.7050 -0.2474  0.4145
  996MOL0     N34375   4.506   9.864   8.230  0.2103  0.0180  0.0885
  996MOL0     N34376   4.442   9.781   8.151 -0.2811  0.3495  0.1682
  996MOL0     C34377   3.222   9.606   8.319  0.1720  0.2125  0.3925
  996MOL0     C34378   3.079   9.614   8.308  0.1781  0.0560 -0.2706
  996MOL0     C34379   2.668   9.703   8.090  1.4033 -0.3648  0.1554
  996MOL0     C34380   2.619   9.600   8.175  0.7515 -0.5651  0.5916
  996MOL0     C34381   2.471   9.602   8.189  0.3410  0.4513  0.1632
  996MOL0     C34382   2.386   9.693   8.131 -0.1488  0.4642  0.4055
  996MOL0     O34383   2.257   9.679   8.157  0.1106  0.2482 -0.1969
  996MOL0     C34384   2.168   9.775   8.111  0.8950 -0.4478 -0.0190
  996MOL0     C34385   2.018   9.741   8.150  1.3675  0.1840 -0.4989
  996MOL0     C34386   1.979   9.597   8.107  0.5862  0.1576 -0.1443
  996MOL0     C34387   1.844   9.556   8.156  0.0334 -0.0204 -1.0084
  996MOL0     C34388   1.740   9.608   8.066  0.2975 -0.8501 -0.2346
  996MOL0     C34389   1.648   9.640   7.995  0.2991  0.1565 -0.1815
  996MOL0     C34390   2.449   9.788   8.051  0.4724 -1.0059  0.2719
  996MOL0     C34391   2.587   9.803   8.024  0.7853  0.2032  0.2259
  996MOL0     C34392   2.639   9.927   7.956 -0.0044  0.1658  0.1500
  996MOL0     H34393   3.045   9.613   7.966 -0.2002 -2.8112  0.5894
  996MOL0     H34394   3.290   9.615   7.990 -0.9701 -2.2043 -1.3186
  996MOL0     H34395   3.454   9.767   8.340  1.7066  0.3646  1.2007
  996MOL0     H34396   3.505   9.604   8.393  1.5373  0.8162  1.2935
  996MOL0     H34397   3.692   9.740   8.365 -1.6733  1.3474  0.2020
  996MOL0     H34398   3.637   9.803   8.211 -1.0431  0.9737  1.1209
  996MOL0     H34399   3.656   9.564   8.118  0.5122  1.6129 -2.8042
  996MOL0     H34400   3.767   9.533   8.257  0.4100  2.1725  2.8313
  996MOL0     H34401   3.790   9.729   8.024  0.8130 -1.6744 -2.9009
  996MOL0     H34402   3.884   9.747   8.176  0.0496  0.2533 -0.7609
  996MOL0     H34403   3.849   9.482   8.023  2.4048 -0.2040  0.9331
  996MOL0     H34404   3.964   9.604   7.948  1.2970  0.3233  0.2341
  996MOL0     H34405   3.998   9.481   8.216  1.4447  1.2773  0.8387
  996MOL0     H34406   4.104   9.453   8.071  0.5206 -0.9628  1.4383
  996MOL0     H34407   4.091   9.701   8.238 -2.2577 -0.0093 -0.8185
  996MOL0     H34408   4.150   9.705   8.070 -0.0222  1.0232  0.5188
  996MOL0     H34409   4.269   9.523   8.269 -1.1726  2.1780  0.6230
  996MOL0     H34410   4.320   9.558   8.101  1.9230  0.7947 -0.0909
  996MOL0     H34411   4.299   9.744   8.444 -0.3671 -0.8593 -1.8556
  996MOL0     H34412   4.495  10.060   8.422 -1.7157 -0.1913 -0.4294
  996MOL0     H34413   4.367   9.976   8.498  0.3332  2.2690 -1.1758
  996MOL0     H34414   4.530   9.981   8.662  1.1135 -0.2166  0.1535
  996MOL0     H34415   4.562   9.815   8.602  1.7421 -0.3331  1.6193
  996MOL0     H34416   4.694  10.077   8.497 -1.2889 -0.4115 -1.0103
  996MOL0     H34417   4.717   9.907   8.443 -2.0562 -1.4659  0.4831
  996MOL0     H34418   4.807   9.834   8.627  0.1026  0.4090  0.4728
  996MOL0     H34419   4.781   9.968   8.740  0.1831  0.5471  1.0580
  996MOL0     H34420   4.957   9.803   8.441  1.5647  0.0677 -2.1129
  996MOL0     H34421   5.142   9.656   8.437 -0.1089  1.2362 -2.4767
  996MOL0     H34422   5.560   9.593   8.383  0.5075 -2.4524  0.7134
  996MOL0     H34423   5.784   9.519   8.323  0.8402 -0.3486  0.1636
  996MOL0     H34424   5.990   9.415   8.365 -0.0060  0.1194 -3.2551
  996MOL0     H34425   6.032   9.571   8.276  2.2558 -0.0815  0.3045
  996MOL0     H34426   6.224   9.430   8.284 -3.6456 -0.9171 -0.6254
  996MOL0     H34427   6.247   9.581   8.382  1.0520 -0.4501  0.5455
  996MOL0     H34428   6.199   9.317   8.509  0.7480 -0.4482  0.8163
  996MOL0     H34429   6.356   9.377   8.461  0.1866 -1.3805  0.9595
  996MOL0     H34430   6.167   9.475   8.687 -1.0193  0.3203 -1.2557
  996MOL0     H34431   6.274   9.597   8.611  1.3946 -0.3182  0.5196
  996MOL0     H34432   6.324   9.329   8.750  0.9407 -0.3866 -1.2030
  996MOL0     H34433   6.358   9.481   8.822 -2.1206  1.2688 -1.4592
  996MOL0     H34434   6.521   9.335   8.614  0.8776  1.0566 -1.4953
  996MOL0     H34435   6.514   9.508   8.596 -2.5490  0.7200 -0.0084
  996MOL0     H34436   6.577   9.402   8.869  1.0361 -0.1003  0.8339
  996MOL0     H34437   6.622   9.560   8.800  3.7551  0.2192  2.8461
  996MOL0     H34438   6.721   9.289   8.723 -4.0565 -0.1602 -1.3808
  996MOL0     H34439   6.767   9.441   8.641 -2.0168  1.2605  0.3567
  996MOL0     H34440   5.930   9.686   8.693  0.2054 -1.9582  0.2629
  996MOL0     H34441   5.691   9.747   8.763  0.3781 -1.3980  1.5354
  996MOL0     H34442   5.349   9.888   8.736  1.5696 -1.3035 -1.9327
  996MOL0     H34443   5.144  10.031   8.757 -0.0477  0.2066 -0.1595
  996MOL0     H34444   3.280   9.575   8.406  0.7175  0.2751  0.0575
  996MOL0     H34445   3.019   9.610   8.399  0.5818 -3.7646  0.0160
  996MOL0     H34446   2.671   9.519   8.224  0.1132 -2.0939 -1.1519
  996MOL0     H34447   2.414   9.535   8.252 -0.3701  2.5455  1.8760
  996MOL0     H34448   2.177   9.789   8.003  1.1340 -0.1362  0.0399
  996MOL0     H34449   2.197   9.869   8.160 -0.0646  0.0073 -0.3001
  996MOL0     H34450   1.952   9.806   8.093  0.2323 -2.6227 -2.6250
  996MOL0     H34451   2.005   9.754   8.258  4.0533 -0.3401 -0.0357
  996MOL0     H34452   2.057   9.529   8.142  1.7128  1.1494 -0.6496
  996MOL0     H34453   1.981   9.588   7.998  1.2568 -4.8325  0.0368
  996MOL0     H34454   1.835   9.447   8.148 -4.2222 -0.0751  1.5978
  996MOL0     H34455   1.826   9.582   8.261 -0.5502  3.5111 -1.8425
  996MOL0     H34456   1.559   9.660   7.939  1.0152 -1.3978 -1.9660
  996MOL0     H34457   2.388   9.866   8.006  2.7192  0.7363  0.0730
  996MOL0     H34458   2.701   9.902   7.870 -0.0789 -0.8218  0.3767
  996MOL0     H34459   2.558   9.998   7.935 -0.0730  0.5759  1.6945
  996MOL0     H34460   2.705   9.971   8.031 -1.5541  1.3010  0.9170
  997MOL0     O34461  10.877   4.821   7.222  0.1865 -0.1787  0.4587
  997MOL0     C34462  10.806   4.736   7.275 -0.7552  0.0125  0.5370
  997MOL0     O34463  10.856   4.611   7.322 -0.3857  0.0389 -0.0788
  997MOL0     C34464  10.996   4.587   7.329 -0.6069  0.3501 -0.0754
  997MOL0     C34465  11.050   4.459   7.304  0.6157  0.0843  0.9937
  997MOL0     C34466  11.192   4.437   7.297  0.5750 -0.9426  0.6633
  997MOL0     C34467  11.273   4.538   7.340  0.6014 -0.6449 -0.5029
  997MOL0     O34468  11.405   4.519   7.358  0.0512 -0.1468 -0.0020
  997MOL0     C34469  11.449   4.456   7.483  0.3692 -0.7052 -1.2132
  997MOL0     C34470  11.450   4.301   7.467  0.1357 -0.1098 -0.9359
  997MOL0     C34471  11.546   4.238   7.570 -0.5164 -0.1102  0.0493
  997MOL0     C34472  11.585   4.091   7.551 -0.3133 -0.6504  0.4416
  997MOL0     C34473  11.720   4.062   7.614 -0.4515 -0.6228  0.0588
  997MOL0     C34474  11.718   4.106   7.758 -0.0208 -0.5289 -0.6819
  997MOL0     C34475  11.833   4.045   7.834 -0.1547  0.3163  0.1005
  997MOL0     C34476  11.832   4.106   7.973  0.5392  0.2369 -0.2304
  997MOL0     N34477  11.938   4.057   8.063 -0.5753 -0.1043  0.7921
  997MOL0     C34478  12.055   4.133   8.088  0.7411 -0.4656 -0.1296
  997MOL0     C34479  12.110   4.067   8.196 -0.9006 -1.4584 -0.0438
  997MOL0     C34480  12.238   4.114   8.261  0.6145  0.5444  0.3556
  997MOL0     C34481  12.270   4.264   8.245 -0.3370 -0.7428 -0.0176
  997MOL0     C34482  12.394   4.317   8.329 -0.3483  0.4736 -0.4629
  997MOL0     C34483  12.408   4.472   8.332  0.7612 -0.0787  1.0879
  997MOL0     O34484  12.416   4.537   8.202 -0.0789  0.1265 -0.0345
  997MOL0     C34485  12.537   4.519   8.149 -0.9351  0.1671  0.1220
  997MOL0     C34486  12.549   4.432   8.042 -0.1959 -0.0920  0.1441
  997MOL0     C34487  12.667   4.413   7.982  0.0387  0.3529  0.2427
  997MOL0     C34488  12.774   4.499   7.998 -0.9333  0.0483 -0.1093
  997MOL0     C34489  12.911   4.490   7.927  0.0584 -0.1428  0.6205
  997MOL0     O34490  12.925   4.400   7.825 -0.7005  0.3101 -0.4169
  997MOL0     C34491  12.994   4.417   7.708 -0.4693  0.7158 -0.5545
  997MOL0     C34492  13.096   4.511   7.693 -1.1881  0.1582  0.5498
  997MOL0     C34493  13.159   4.530   7.573 -1.1076 -0.2545  0.8243
  997MOL0     C34494  13.124   4.463   7.461 -0.2404  0.1422 -0.2561
  997MOL0     O34495  13.185   4.499   7.335 -0.2155  0.1729 -0.2025
  997MOL0     C34496  13.329   4.475   7.326  0.9947  0.3152 -0.0227
  997MOL0     C34497  13.404   4.558   7.226  0.6634  1.1509  0.5972
  997MOL0     C34498  13.422   4.697   7.281  0.2834  0.0253 -0.4780
  997MOL0     C34499  13.298   4.770   7.323  0.4998 -0.4388 -0.2084
  997MOL0     C34500  13.310   4.919   7.366  0.3549  0.5050 -0.6789
  997MOL0     C34501  13.334   5.023   7.264  0.3381 -0.0963  0.3358
  997MOL0     C34502  13.245   5.002   7.140  0.9336 -0.3815  0.3675
  997MOL0     C34503  13.240   5.122   7.051  0.3544  0.3601  0.4339
  997MOL0    Cl34504  13.089   5.126   6.938 -0.4000 -0.1983  0.0865
  997MOL0     C34505  13.021   4.368   7.470  0.0062 -0.3928 -0.3017
  997MOL0     C34506  12.953   4.352   7.591  0.6239 -0.6576  0.2138
  997MOL0     O34507  12.998   4.568   7.962  0.1796 -0.0664 -0.1054
  997MOL0     C34508  12.763   4.594   8.101 -0.2767 -0.0235 -0.9584
  997MOL0     C34509  12.652   4.600   8.186  0.2272 -0.2137  1.0555
  997MOL0     N34510  12.023   3.977   8.244 -0.2641  0.0838  0.6217
  997MOL0     N34511  11.922   3.962   8.164 -0.2150  0.1119 -0.7164
  997MOL0     C34512  11.223   4.668   7.365 -0.5039  0.4844 -0.7851
  997MOL0     C34513  11.084   4.684   7.378 -1.4222 -0.2368  0.1634
  997MOL0     C34514  10.658   4.746   7.267  1.1121 -0.3715 -0.4309
  997MOL0     C34515  10.589   4.621   7.259 -0.4562 -0.1196  0.4566
  997MOL0     C34516  10.448   4.631   7.251 -0.8862  0.6059 -0.0301
  997MOL0     C34517  10.381   4.748   7.248 -0.8770 -0.5812 -0.1309
  997MOL0     O34518  10.247   4.726   7.253 -0.4409  0.4644 -0.7463
  997MOL0     C34519  10.170   4.844   7.260  0.5576 -0.2368  0.4502
  997MOL0     C34520  10.017   4.821   7.253 -0.7213 -0.5255 -0.1943
  997MOL0     C34521   9.988   4.739   7.124  1.2370 -0.5081 -0.2751
  997MOL0     C34522   9.836   4.692   7.115 -0.9373 -1.0178 -0.1232
  997MOL0     C34523   9.797   4.596   7.221  0.0382  1.4253  0.5565
  997MOL0     C34524   9.753   4.517   7.306  0.2860  0.4763  0.0600
  997MOL0     C34525  10.446   4.868   7.245  0.3449  0.5159  0.5800
  997MOL0     C34526  10.582   4.869   7.256 -0.8184 -0.2985 -0.2980
  997MOL0     C34527  10.659   4.998   7.249 -0.1828  0.7283  0.2366
  997MOL0     H34528  10.993   4.368   7.286  0.3492  0.2672  0.8989
  997MOL0     H34529  11.238   4.340   7.283  1.3629 -0.1261 -4.0091
  997MOL0     H34530  11.550   4.495   7.497 -0.2515  0.2824  0.8533
  997MOL0     H34531  11.379   4.493   7.558  2.3753  1.5039 -0.2925
  997MOL0     H34532  11.507   4.282   7.375  3.0932  2.4873  0.1332
  997MOL0     H34533  11.352   4.258   7.488  0.2189  1.0836  2.5811
  997MOL0     H34534  11.495   4.245   7.667  1.7340  0.0188  1.2999
  997MOL0     H34535  11.637   4.292   7.598 -0.7097  0.1054  0.2722
  997MOL0     H34536  11.512   4.024   7.597 -1.1576  0.7126  1.1539
  997MOL0     H34537  11.600   4.063   7.446 -0.9334  0.1110  0.1330
  997MOL0     H34538  11.723   3.953   7.612 -1.9257 -0.6781 -1.5545
  997MOL0     H34539  11.803   4.113   7.564 -1.5662  3.2994  1.8242
  997MOL0     H34540  11.728   4.215   7.761 -0.8439 -0.3981  3.5053
  997MOL0     H34541  11.624   4.079   7.807  0.1594  1.3530  0.8406
  997MOL0     H34542  11.928   4.065   7.783  0.1510 -1.2146  0.0249
  997MOL0     H34543  11.822   3.938   7.850 -0.7333  0.4170  0.4107
  997MOL0     H34544  11.836   4.215   7.971 -1.1107  0.3147 -0.3966
  997MOL0     H34545  11.737   4.085   8.022  0.2526  1.3081 -0.3031
  997MOL0     H34546  12.091   4.221   8.036 -0.6435 -1.0230 -2.1406
  997MOL0     H34547  12.231   4.080   8.365 -1.1473 -1.1820 -0.2783
  997MOL0     H34548  12.322   4.052   8.229  2.0412  1.6284  1.7773
  997MOL0     H34549  12.291   4.293   8.142  0.0109  2.0520  0.7752
  997MOL0     H34550  12.177   4.313   8.277 -1.2856 -4.2241  3.3164
  997MOL0     H34551  12.477   4.282   8.268 -1.4130 -0.1534 -1.5778
  997MOL0     H34552  12.388   4.275   8.430  0.9811  2.8773  0.7144
  997MOL0     H34553  12.493   4.503   8.393  0.6435  0.5065  0.9568
  997MOL0     H34554  12.314   4.509   8.374 -0.8990  0.2901 -2.5723
  997MOL0     H34555  12.464   4.373   8.009 -0.1776 -0.7193  1.1805
  997MOL0     H34556  12.678   4.338   7.905  0.4252 -0.0655  0.7013
  997MOL0     H34557  13.138   4.558   7.781  1.6256 -1.0596 -0.0024
  997MOL0     H34558  13.234   4.609   7.563 -0.9383 -0.3032  1.6346
  997MOL0     H34559  13.371   4.500   7.424 -0.0634 -0.2205  0.5910
  997MOL0     H34560  13.354   4.374   7.291  2.9911  1.5155 -2.3083
  997MOL0     H34561  13.499   4.518   7.190  0.0401 -0.0179  0.1754
  997MOL0     H34562  13.344   4.566   7.135 -1.9251  1.9312  2.2501
  997MOL0     H34563  13.484   4.691   7.371  0.7819  2.0964 -0.6493
  997MOL0     H34564  13.481   4.748   7.205 -1.2836  0.3593 -1.5157
  997MOL0     H34565  13.255   4.736   7.418  1.4519  0.1383  0.4582
  997MOL0     H34566  13.215   4.761   7.253 -0.5618 -0.5930  1.0267
  997MOL0     H34567  13.392   4.923   7.438  0.4067  0.8856 -0.7610
  997MOL0     H34568  13.217   4.948   7.415  0.3865  1.2046 -1.0281
  997MOL0     H34569  13.314   5.116   7.318 -0.8012 -0.9207  1.3891
  997MOL0     H34570  13.441   5.022   7.241  0.2341  2.9242 -0.7389
  997MOL0     H34571  13.144   4.973   7.170  0.8933 -0.8663 -0.2155
  997MOL0     H34572  13.280   4.920   7.077 -1.3150  0.6396 -2.4368
  997MOL0     H34573  13.233   5.214   7.110  0.7490  0.0852  0.9135
  997MOL0     H34574  13.336   5.128   7.000  0.4896 -2.3818  0.2037
  997MOL0     H34575  12.984   4.329   7.376 -2.8241  0.3176  0.4206
  997MOL0     H34576  12.862   4.293   7.591  0.0700  0.1847  0.0132
  997MOL0     H34577  12.852   4.654   8.117 -0.2329 -0.3587  0.1413
  997MOL0     H34578  12.618   4.672   8.260 -2.6788  0.5150 -0.8345
  997MOL0     H34579  11.292   4.751   7.373 -1.5543  1.6153 -2.6127
  997MOL0     H34580  11.045   4.783   7.400 -0.1261  1.7785 -5.0768
  997MOL0     H34581  10.643   4.527   7.269  1.9323  1.1648  0.4590
  997MOL0     H34582  10.389   4.539   7.254 -3.9966  2.3122 -2.6020
  997MOL0     H34583  10.205   4.908   7.178 -1.1476  1.1746  0.7546
  997MOL0     H34584  10.202   4.893   7.352  1.0368 -2.3856  1.4701
  997MOL0     H34585   9.951   4.908   7.259 -1.5174 -1.1374  0.3004
  997MOL0     H34586   9.995   4.759   7.341  0.6575 -0.8411 -0.0517
  997MOL0     H34587  10.059   4.657   7.111  0.3890 -1.1194 -1.2359
  997MOL0     H34588  10.004   4.810   7.043  1.3735 -0.3907 -0.1454
  997MOL0     H34589   9.775   4.782   7.120 -0.9969 -1.0215 -0.6522
  997MOL0     H34590   9.813   4.658   7.013  0.2367 -0.7803 -0.4868
  997MOL0     H34591   9.724   4.468   7.396 -0.5208  0.2862 -0.2931
  997MOL0     H34592  10.391   4.961   7.235 -2.0281 -0.4975  2.9877
  997MOL0     H34593  10.598   5.083   7.279  0.3036  1.4682 -0.7964
  997MOL0     H34594  10.745   4.998   7.317  0.2273  3.5047 -0.1822
  997MOL0     H34595  10.705   5.014   7.151  0.9200  1.8093  0.9068
  998MOL0     O34596   7.727   9.087   8.528 -0.0627 -0.2775  0.0787
  998MOL0     C34597   7.710   9.059   8.402 -0.7231 -0.4881 -0.3003
  998MOL0     O34598   7.805   9.065   8.309 -0.4705  0.4262  0.7301
  998MOL0     C34599   7.925   9.126   8.342 -0.2949  0.1526  0.6344
  998MOL0     C34600   7.937   9.263   8.357  1.1640  1.3022  0.4314
  998MOL0     C34601   8.065   9.317   8.384  0.4801 -0.2609  0.4229
  998MOL0     C34602   8.180   9.236   8.373 -0.2654  0.6018  0.4227
  998MOL0     O34603   8.308   9.278   8.384  0.2632 -0.4805  0.3432
  998MOL0     C34604   8.341   9.408   8.354 -0.0610  0.0912  0.5765
  998MOL0     C34605   8.484   9.408   8.293  1.7277 -0.0260  0.0856
  998MOL0     C34606   8.495   9.333   8.160  0.0316  1.0376 -0.0122
  998MOL0     C34607   8.636   9.294   8.138  0.6830 -0.8280  1.0888
  998MOL0     C34608   8.743   9.399   8.166  0.8963 -0.4500  0.3553
  998MOL0     C34609   8.878   9.352   8.114 -0.3857  0.2316  0.9671
  998MOL0     C34610   8.965   9.478   8.106  0.9361  0.5098  0.5790
  998MOL0     C34611   9.109   9.447   8.079 -0.0691 -0.0676  0.3332
  998MOL0     N34612   9.185   9.573   8.103 -0.5440  0.4784  0.5424
  998MOL0     C34613   9.217   9.686   8.021  0.5027  0.2572 -0.1961
  998MOL0     C34614   9.306   9.762   8.098  0.1342 -0.6466  0.0559
  998MOL0     C34615   9.354   9.903   8.061  0.8382  0.3401 -0.2750
  998MOL0     C34616   9.506   9.899   8.017  0.0312 -0.6514 -0.0491
  998MOL0     C34617   9.525   9.794   7.902  0.4122 -0.3047  0.1990
  998MOL0     C34618   9.654   9.802   7.819 -0.8285 -0.6406  0.4226
  998MOL0     O34619   9.653   9.922   7.733 -0.0051  0.8858 -1.0596
  998MOL0     C34620   9.753   9.937   7.638  0.3916 -0.6051  0.0186
  998MOL0     C34621   9.752  10.062   7.578  0.5531  0.6872  0.3988
  998MOL0     C34622   9.870  10.103   7.513 -0.1744 -0.5916 -0.0753
  998MOL0     C34623   9.981  10.019   7.483 -1.1051  0.0590 -0.6391
  998MOL0     C34624  10.106  10.054   7.409  1.6760 -0.0652 -0.3908
  998MOL0     O34625  10.214   9.980   7.447 -0.1809 -0.5725  0.2734
  998MOL0     C34626  10.329   9.994   7.375 -0.1028 -0.0119  1.1008
  998MOL0     C34627  10.440  10.057   7.430  0.1776 -0.3537  0.0238
  998MOL0     C34628  10.558  10.077   7.350  0.1902  0.1291 -0.3334
  998MOL0     C34629  10.566  10.026   7.224 -0.0513  0.4935  0.0428
  998MOL0     O34630  10.685  10.034   7.162  0.3161 -0.1530 -0.4965
  998MOL0     C34631  10.764   9.914   7.175  0.3217  0.1022  1.3605
  998MOL0     C34632  10.911   9.951   7.182 -0.0860 -0.7420 -0.0185
  998MOL0     C34633  10.987   9.862   7.281 -0.6440 -0.6331  0.6269
  998MOL0     C34634  11.139   9.890   7.290  0.3490  0.5166  0.0143
  998MOL0     C34635  11.175   9.896   7.431  0.2788 -0.3311  0.5536
  998MOL0     C34636  11.316   9.931   7.453  0.0689  0.2790  0.1282
  998MOL0     C34637  11.421   9.824   7.396  0.1887 -0.5525  0.0872
  998MOL0     C34638  11.571   9.862   7.418  0.0462 -0.2241 -1.2420
  998MOL0    Cl34639  11.674   9.722   7.366  0.2126  0.4782  0.0386
  998MOL0     C34640  10.461   9.964   7.162 -1.0783 -0.0711  0.6906
  998MOL0     C34641  10.341   9.951   7.236  0.1426 -0.4406 -0.7484
  998MOL0     O34642  10.102  10.131   7.312 -0.0333  0.7790 -0.1368
  998MOL0     C34643   9.965   9.885   7.530 -0.0036 -0.3380 -0.7572
  998MOL0     C34644   9.857   9.844   7.608  0.8629  0.4185  0.1342
  998MOL0     N34645   9.329   9.689   8.213 -0.5299 -0.5424 -0.0705
  998MOL0     N34646   9.256   9.589   8.218  0.0535 -0.2484 -0.1731
  998MOL0     C34647   8.165   9.094   8.356  0.4136  0.1781  0.3150
  998MOL0     C34648   8.038   9.035   8.334  0.3560 -0.2859  0.1965
  998MOL0     C34649   7.579   9.010   8.363 -0.0377 -0.7508 -0.5457
  998MOL0     C34650   7.567   8.890   8.292  0.2598  0.0814 -0.0007
  998MOL0     C34651   7.445   8.839   8.258  0.8653  0.9680 -0.2030
  998MOL0     C34652   7.322   8.908   8.294 -0.3350  0.3437  0.8977
  998MOL0     O34653   7.193   8.858   8.291  0.0504  0.0958 -0.4186
  998MOL0     C34654   7.153   8.733   8.236 -0.1162 -0.0974 -0.0548
  998MOL0     C34655   7.021   8.714   8.305 -0.3749  0.1540  0.5769
  998MOL0     C34656   6.960   8.579   8.264  0.0634 -0.5079 -0.4052
  998MOL0     C34657   6.906   8.589   8.118  0.9954 -0.2453  0.1063
  998MOL0     C34658   6.831   8.476   8.091  0.8905 -0.3407 -0.0344
  998MOL0     C34659   6.768   8.372   8.089  0.5117  0.9801 -0.3594
  998MOL0     C34660   7.340   9.035   8.354  0.7882 -0.4832 -0.0156
  998MOL0     C34661   7.463   9.083   8.387  0.4343  0.6415  0.0011
  998MOL0     C34662   7.474   9.233   8.414  0.6809  0.1644  0.0292
  998MOL0     H34663   7.856   9.334   8.343 -1.0813 -1.3373 -0.9001
  998MOL0     H34664   8.078   9.424   8.396  1.3262 -0.1677 -0.9795
  998MOL0     H34665   8.276   9.458   8.281  1.6247  0.7694 -0.5339
  998MOL0     H34666   8.345   9.466   8.447  0.4311  1.0455 -0.0242
  998MOL0     H34667   8.548   9.351   8.362 -1.4353 -3.9124  0.1812
  998MOL0     H34668   8.518   9.508   8.264 -0.1053  0.2926 -1.0472
  998MOL0     H34669   8.465   9.406   8.084 -0.7991  0.3633 -0.3386
  998MOL0     H34670   8.438   9.240   8.150  3.6041 -1.1705 -1.9457
  998MOL0     H34671   8.669   9.206   8.195 -1.0053 -0.9028  2.0133
  998MOL0     H34672   8.644   9.265   8.033 -0.3897  3.6175 -0.4342
  998MOL0     H34673   8.717   9.498   8.128  1.5573  0.2838  1.7382
  998MOL0     H34674   8.749   9.411   8.274 -0.6482 -0.3412  0.4498
  998MOL0     H34675   8.927   9.281   8.182  4.2475  0.5328 -1.6708
  998MOL0     H34676   8.864   9.317   8.011 -0.3942  0.7343  0.7965
  998MOL0     H34677   8.969   9.544   8.193 -1.3180  1.7889 -0.1989
  998MOL0     H34678   8.922   9.544   8.031 -0.9668 -1.4109 -0.1503
  998MOL0     H34679   9.139   9.356   8.132  0.7319 -1.1664 -1.8668
  998MOL0     H34680   9.113   9.427   7.971  1.1971  2.3267 -0.1127
  998MOL0     H34681   9.160   9.705   7.931  2.4490  0.0024 -1.5462
  998MOL0     H34682   9.280   9.940   7.989 -0.8106 -0.3299  1.0129
  998MOL0     H34683   9.351   9.971   8.147 -1.0045  1.4150 -1.1072
  998MOL0     H34684   9.534  10.000   7.988 -0.8502 -0.3471  0.1521
  998MOL0     H34685   9.560   9.869   8.107 -1.1721 -3.0486 -0.0439
  998MOL0     H34686   9.439   9.809   7.837  0.8605 -1.5184 -0.7159
  998MOL0     H34687   9.524   9.692   7.941  2.2180 -0.6373 -0.5376
  998MOL0     H34688   9.657   9.711   7.759  2.1608  0.4785 -1.3530
  998MOL0     H34689   9.738   9.818   7.886 -1.3064  4.2101  0.2673
  998MOL0     H34690   9.669  10.125   7.608  0.1740 -0.0412  0.9271
  998MOL0     H34691   9.866  10.202   7.470 -1.3414 -1.9173 -3.3498
  998MOL0     H34692  10.442  10.092   7.533 -0.6303  0.8613 -0.3470
  998MOL0     H34693  10.632  10.147   7.388  0.5722 -0.0279 -0.7916
  998MOL0     H34694  10.737   9.864   7.268  0.8409 -0.8181  1.0279
  998MOL0     H34695  10.745   9.848   7.090  2.8991  1.9370 -0.8367
  998MOL0     H34696  10.959   9.954   7.083 -0.0780 -0.2486 -0.0003
  998MOL0     H34697  10.918  10.050   7.227 -1.1928 -1.2549  1.3769
  998MOL0     H34698  10.946   9.884   7.380 -0.3879  2.3964  0.1590
  998MOL0     H34699  10.974   9.755   7.266  0.0129 -0.5083 -1.0255
  998MOL0     H34700  11.177   9.982   7.245  0.4517 -0.0010 -0.9950
  998MOL0     H34701  11.185   9.801   7.246  0.8204 -0.7515  2.8364
  998MOL0     H34702  11.148   9.798   7.469 -1.7912 -0.5641 -1.3069
  998MOL0     H34703  11.107   9.950   7.498  1.7415  0.0469  1.7989
  998MOL0     H34704  11.333  10.028   7.406  1.6861  1.1217  2.2639
  998MOL0     H34705  11.337   9.944   7.560 -0.0983  1.5267  0.0131
  998MOL0     H34706  11.414   9.815   7.287  4.3634 -0.5652 -0.3197
  998MOL0     H34707  11.402   9.730   7.449  1.3562  0.3209  2.1796
  998MOL0     H34708  11.599   9.954   7.365  1.5265  0.0483 -0.0349
  998MOL0     H34709  11.593   9.888   7.522 -1.4526 -1.2507 -0.6316
  998MOL0     H34710  10.481   9.924   7.063 -0.4612 -3.5068  2.0449
  998MOL0     H34711  10.254   9.903   7.192  1.4543 -2.4053 -1.2712
  998MOL0     H34712  10.041   9.808   7.516 -1.5513 -1.5244 -3.6639
  998MOL0     H34713   9.864   9.748   7.657  0.3434 -0.5115 -1.5640
  998MOL0     H34714   8.252   9.036   8.325  0.8955  1.8721 -1.7410
  998MOL0     H34715   8.022   8.932   8.304  2.2456 -0.3817 -0.6134
  998MOL0     H34716   7.659   8.840   8.263  0.8320 -0.0030  1.8068
  998MOL0     H34717   7.429   8.749   8.200  0.2008  1.1543 -0.3072
  998MOL0     H34718   7.222   8.656   8.274  0.7501  0.2861 -0.8133
  998MOL0     H34719   7.150   8.731   8.126  1.8846  0.7485 -0.1712
  998MOL0     H34720   6.954   8.799   8.288 -0.2130  0.3056  0.6975
  998MOL0     H34721   7.032   8.716   8.414  1.2166  0.1146  0.4512
  998MOL0     H34722   6.882   8.551   8.336 -3.4731  4.5837 -1.6968
  998MOL0     H34723   7.037   8.502   8.277 -0.1700 -0.8981 -1.2737
  998MOL0     H34724   6.853   8.683   8.099  0.2006 -0.5326  0.8500
  998MOL0     H34725   6.990   8.593   8.047 -0.1494 -3.7421 -1.6739
  998MOL0     H34726   6.714   8.279   8.083 -0.0634  1.3183 -0.5497
  998MOL0     H34727   7.246   9.085   8.370 -0.1398 -1.8710 -0.9085
  998MOL0     H34728   7.374   9.275   8.428 -0.2007 -0.8508 -2.5611
  998MOL0     H34729   7.521   9.243   8.512 -1.4702 -0.0475  1.1585
  998MOL0     H34730   7.530   9.284   8.335 -0.3444  0.8597 -0.2692
  999MOL0     O34731   5.845  11.310   5.071 -0.0901  0.6497  0.3296
  999MOL0     C34732   5.836  11.366   5.181 -0.0886 -0.3667 -0.1569
  999MOL0     O34733   5.940  11.427   5.250  0.1942 -0.0443  0.6334
  999MOL0     C34734   6.068  11.393   5.229 -0.0664  0.2671  0.5665
  999MOL0     C34735   6.118  11.280   5.159 -0.3020 -0.0111  0.0453
  999MOL0     C34736   6.254  11.253   5.160  0.3088  0.0890 -0.1587
  999MOL0     C34737   6.345  11.334   5.234  1.1420  0.2076  0.6431
  999MOL0     O34738   6.476  11.304   5.233 -0.0746  0.2964 -0.1765
  999MOL0     C34739   6.514  11.173   5.289  0.0997 -0.9117  0.6988
  999MOL0     C34740   6.596  11.103   5.180  0.0769 -0.3907 -0.3117
  999MOL0     C34741   6.651  10.966   5.222 -0.1743  0.1659 -0.2949
  999MOL0     C34742   6.783  10.986   5.308 -0.3365  0.3700  0.4510
  999MOL0     C34743   6.841  10.865   5.378  0.0963  0.1413  0.0017
  999MOL0     C34744   6.984  10.888   5.425 -0.0007 -0.2710  0.0193
  999MOL0     C34745   7.086  10.854   5.316 -0.5914  0.9115 -0.1588
  999MOL0     C34746   7.229  10.887   5.345 -0.0102 -0.1551  0.3636
  999MOL0     N34747   7.295  10.990   5.269  0.8150 -0.3546 -0.1061
  999MOL0     C34748   7.277  11.004   5.135 -0.0546 -0.8640  0.2164
  999MOL0     C34749   7.339  11.123   5.114  0.0876 -0.3904  0.3026
  999MOL0     C34750   7.345  11.200   4.989 -0.9565  0.0378 -0.0341
  999MOL0     C34751   7.216  11.289   4.972  0.2087  0.2916  0.0737
  999MOL0     C34752   7.082  11.210   5.008 -0.7217 -0.2220 -0.3640
  999MOL0     C34753   6.962  11.304   4.989  0.8385 -0.7918  0.3348
  999MOL0     O34754   6.938  11.408   5.090  0.3384 -0.1440 -0.2780
  999MOL0     C34755   6.813  11.464   5.083  0.8746 -0.2362 -0.0743
  999MOL0     C34756   6.741  11.473   4.968 -0.3192  0.0761 -0.4071
  999MOL0     C34757   6.609  11.523   4.971 -0.4141  0.4291  0.3950
  999MOL0     C34758   6.550  11.562   5.091  0.3901 -0.3361 -0.7345
  999MOL0     C34759   6.412  11.623   5.090 -0.4237 -0.9233  0.0554
  999MOL0     O34760   6.339  11.595   4.977  0.4982 -1.0375 -1.1876
  999MOL0     C34761   6.204  11.631   4.980 -0.4145  0.1920  0.4449
  999MOL0     C34762   6.104  11.543   4.935  0.2971  0.0422  0.6437
  999MOL0     C34763   5.973  11.582   4.920  0.6251 -0.1646 -0.7154
  999MOL0     C34764   5.931  11.705   4.956  0.0698 -0.1272  0.0070
  999MOL0     O34765   5.797  11.709   4.965 -0.4350  0.8310  0.1473
  999MOL0     C34766   5.736  11.835   4.964 -0.2661  0.0812  0.3936
  999MOL0     C34767   5.593  11.807   5.014  1.0303  0.3258 -0.3286
  999MOL0     C34768   5.508  11.725   4.915  0.9047 -0.3298  0.9180
  999MOL0     C34769   5.360  11.700   4.968 -0.5826 -0.1914  0.2208
  999MOL0     C34770   5.286  11.828   5.002  1.2494  1.6319 -0.4235
  999MOL0     C34771   5.147  11.796   5.078  0.3048  0.5040  0.2241
  999MOL0     C34772   5.073  11.910   5.133  0.4410  0.3086 -0.7341
  999MOL0     C34773   4.942  11.862   5.192 -0.6815 -0.5844  0.9091
  999MOL0    Cl34774   4.845  11.798   5.056  0.3408  0.2888  0.1738
  999MOL0     C34775   6.030  11.797   4.989  0.1570 -0.6717 -0.3715
  999MOL0     C34776   6.167  11.767   4.994 -0.6511  0.4060 -0.2647
  999MOL0     O34777   6.379  11.705   5.182  0.5583  1.1580 -0.0402
  999MOL0     C34778   6.619  11.549   5.214 -1.2066 -0.6104  0.1798
  999MOL0     C34779   6.758  11.509   5.204  0.6434  0.2179 -0.4831
  999MOL0     N34780   7.405  11.158   5.231 -0.1252 -0.0232 -0.6383
  999MOL0     N34781   7.384  11.079   5.319  0.6824 -0.1418 -0.6033
  999MOL0     C34782   6.291  11.440   5.312 -0.0927  0.2858  0.2529
  999MOL0     C34783   6.154  11.465   5.303 -0.1267  0.0573  0.1804
  999MOL0     C34784   5.705  11.386   5.243 -0.6117 -1.1035  0.1653
  999MOL0     C34785   5.700  11.428   5.376  0.7543  0.7069  0.4659
  999MOL0     C34786   5.583  11.471   5.442 -0.2337  0.5840 -0.0716
  999MOL0     C34787   5.465  11.468   5.369  0.3579  0.9074  0.0156
  999MOL0     O34788   5.341  11.504   5.407  0.7275 -0.5929  0.3424
  999MOL0     C34789   5.293  11.480   5.544  0.3954  0.9158 -0.0073
  999MOL0     C34790   5.139  11.500   5.564 -0.5875 -0.5670 -0.4500
  999MOL0     C34791   5.083  11.641   5.529  0.1371 -0.7622 -0.4864
  999MOL0     C34792   4.962  11.687   5.598  1.0514 -0.4270  0.1929
  999MOL0     C34793   4.839  11.625   5.546 -0.2916 -0.8372 -0.1930
  999MOL0     C34794   4.729  11.583   5.506 -0.2975 -0.9118 -0.4498
  999MOL0     C34795   5.464  11.424   5.240  0.2794 -0.8589  0.5009
  999MOL0     C34796   5.580  11.389   5.177 -0.1329  0.6808  0.5978
  999MOL0     C34797   5.568  11.364   5.028 -0.6018 -0.4054 -0.4557
  999MOL0     H34798   6.049  11.215   5.106 -1.6321  1.0278  0.4300
  999MOL0     H34799   6.297  11.177   5.095 -0.0859  1.0337 -1.5513
  999MOL0     H34800   6.572  11.192   5.379  0.3292 -2.2983  0.8639
  999MOL0     H34801   6.418  11.123   5.304  0.0598 -1.1870 -0.3302
  999MOL0     H34802   6.680  11.168   5.153 -0.8243  0.1128 -2.0938
  999MOL0     H34803   6.536  11.090   5.089 -1.1777  1.4420  0.1782
  999MOL0     H34804   6.658  10.911   5.127 -2.7301 -0.5014 -0.1631
  999MOL0     H34805   6.578  10.905   5.276 -0.8483 -1.5997 -2.9556
  999MOL0     H34806   6.861  11.020   5.238  1.2714  1.0903  2.4906
  999MOL0     H34807   6.759  11.076   5.365 -1.1007  1.2538 -1.1771
  999MOL0     H34808   6.775  10.840   5.461 -1.2515 -2.5769 -1.7176
  999MOL0     H34809   6.841  10.779   5.310 -3.6564  2.1380 -2.9170
  999MOL0     H34810   6.990  10.990   5.465 -2.0439 -0.0584 -0.1088
  999MOL0     H34811   6.999  10.835   5.519 -2.1216 -2.7088 -0.9060
  999MOL0     H34812   7.054  10.904   5.224  2.7746 -0.9603 -2.5938
  999MOL0     H34813   7.080  10.744   5.315 -0.0405  0.8670  0.6375
  999MOL0     H34814   7.238  10.914   5.450 -1.7225  3.2123 -0.2117
  999MOL0     H34815   7.293  10.803   5.316  0.4988  0.2269  0.3568
  999MOL0     H34816   7.214  10.953   5.063 -0.7038 -2.6661  1.9505
  999MOL0     H34817   7.432  11.266   4.986 -0.9024 -0.0248  0.1209
  999MOL0     H34818   7.369  11.136   4.904 -2.5150  2.1996 -2.2446
  999MOL0     H34819   7.223  11.372   5.042 -0.1345 -1.5907  2.4557
  999MOL0     H34820   7.206  11.339   4.875  2.0042  0.6077  0.0333
  999MOL0     H34821   7.067  11.170   5.109  0.8675  0.1964  0.0780
  999MOL0     H34822   7.073  11.125   4.941  0.1357 -0.7093  0.1079
  999MOL0     H34823   6.874  11.239   4.990  0.3654 -0.2334 -1.3401
  999MOL0     H34824   6.968  11.352   4.891 -0.3407  0.6712  0.9464
  999MOL0     H34825   6.782  11.458   4.869 -0.4269  1.3089 -0.6623
  999MOL0     H34826   6.564  11.523   4.873  4.4252 -3.1826 -2.2285
  999MOL0     H34827   6.144  11.447   4.904 -3.1333 -1.2529 -0.1765
  999MOL0     H34828   5.901  11.504   4.897 -1.2002  0.8633  1.1653
  999MOL0     H34829   5.780  11.902   5.037  4.3461  0.3909 -2.2546
  999MOL0     H34830   5.743  11.874   4.862 -0.8867 -1.9533 -0.4892
  999MOL0     H34831   5.605  11.747   5.105 -2.5764 -2.3821 -1.3984
  999MOL0     H34832   5.541  11.901   5.034  0.0330  0.2046 -2.0908
  999MOL0     H34833   5.506  11.781   4.821 -0.3899 -1.5877  0.1513
  999MOL0     H34834   5.553  11.630   4.885  0.8269  0.7630 -3.3350
  999MOL0     H34835   5.351  11.636   5.057  0.5377  0.5849  0.9232
  999MOL0     H34836   5.303  11.652   4.888  0.3430  2.3712 -2.1399
  999MOL0     H34837   5.245  11.868   4.909 -0.0368  4.6994  1.3242
  999MOL0     H34838   5.341  11.895   5.067  1.7787 -0.5859  1.5556
  999MOL0     H34839   5.084  11.740   5.009  1.6829 -1.3425  0.3846
  999MOL0     H34840   5.178  11.740   5.167 -2.0925  1.4880  1.7685
  999MOL0     H34841   5.059  11.985   5.055  1.8967  0.4649 -0.8726
  999MOL0     H34842   5.136  11.954   5.211 -0.0533  0.7999 -0.6050
  999MOL0     H34843   4.959  11.791   5.273 -1.7386 -2.3223 -0.3436
  999MOL0     H34844   4.881  11.944   5.230 -4.2737 -1.0773 -3.0932
  999MOL0     H34845   5.999  11.898   5.012  0.1020 -0.0046 -2.9884
  999MOL0     H34846   6.232  11.852   5.014 -4.0699  3.2640 -0.3421
  999MOL0     H34847   6.573  11.578   5.309 -1.5235 -0.8730  0.1103
  999MOL0     H34848   6.822  11.503   5.291  2.3019 -1.8501 -1.7180
  999MOL0     H34849   6.352  11.508   5.371  0.3118 -0.2312  0.4365
  999MOL0     H34850   6.109  11.550   5.353 -1.6429 -1.6863  1.9540
  999MOL0     H34851   5.796  11.430   5.427  2.0669 -0.0616 -1.8381
  999MOL0     H34852   5.586  11.504   5.546  1.5144  1.4567 -0.3618
  999MOL0     H34853   5.346  11.536   5.622  0.5541  0.7391  0.0141
  999MOL0     H34854   5.300  11.371   5.556 -1.7700  0.8006  0.6706
  999MOL0     H34855   5.129  11.477   5.670  3.2728 -0.0830  0.1736
  999MOL0     H34856   5.088  11.419   5.511 -1.5074 -0.0945 -0.3071
  999MOL0     H34857   5.066  11.643   5.421 -1.3868 -1.4152 -0.2780
  999MOL0     H34858   5.168  11.709   5.539  0.2125 -0.7487 -1.1909
  999MOL0     H34859   4.968  11.682   5.707 -0.5827 -1.3142  0.2762
  999MOL0     H34860   4.947  11.790   5.565 -0.6961 -0.8154 -0.3387
  999MOL0     H34861   4.626  11.566   5.481 -0.8940  0.1382  1.1032
  999MOL0     H34862   5.375  11.443   5.180  0.7366  0.7061  0.2766
  999MOL0     H34863   5.642  11.433   4.986  0.4266 -0.5583  1.0289
  999MOL0     H34864   5.587  11.258   5.013  0.3802 -0.3857  0.4930
  999MOL0     H34865   5.469  11.379   4.983 -0.1533  0.0955 -1.2974
 1000MOL0     O34866   2.243   7.063   6.318 -0.1859  0.6423 -0.3406
 1000MOL0     C34867   2.258   7.012   6.210  0.0052  0.2129 -0.0153
 1000MOL0     O34868   2.381   6.982   6.155 -0.0316 -0.1221  0.0223
 1000MOL0     C34869   2.500   7.036   6.204  0.2158 -1.2450 -0.1718
 1000MOL0     C34870   2.609   6.953   6.207 -0.1801 -0.2952 -0.1057
 1000MOL0     C34871   2.738   7.002   6.238 -0.5406  0.7442 -0.0417
 1000MOL0     C34872   2.754   7.138   6.273 -1.3762 -0.2372  0.8385
 1000MOL0     O34873   2.880   7.177   6.294  0.0371 -0.5632 -0.2496
 1000MOL0     C34874   2.937   7.269   6.192  0.7122 -0.1672  0.1583
 1000MOL0     C34875   3.076   7.306   6.225 -0.1755  0.1267  0.9603
 1000MOL0     C34876   3.163   7.173   6.231 -0.4887 -0.5643  0.2224
 1000MOL0     C34877   3.302   7.206   6.270  1.5182 -0.1797 -0.6650
 1000MOL0     C34878   3.403   7.086   6.288  0.9534  0.1125  0.0914
 1000MOL0     C34879   3.454   7.028   6.147 -1.5653 -0.3970 -0.5447
 1000MOL0     C34880   3.527   7.140   6.053  0.2904 -0.7702 -1.2939
 1000MOL0     C34881   3.644   7.206   6.131 -0.1679  0.0174  1.4690
 1000MOL0     N34882   3.760   7.114   6.145  0.4434 -0.2141 -0.5938
 1000MOL0     C34883   3.781   6.986   6.084 -0.4906  0.1651  0.3136
 1000MOL0     C34884   3.897   6.938   6.141 -0.8192 -0.8923 -0.1124
 1000MOL0     C34885   3.961   6.800   6.106 -0.2721  0.4623 -0.7406
 1000MOL0     C34886   3.940   6.706   6.215 -0.7124  0.8965  1.1907
 1000MOL0     C34887   4.033   6.577   6.199 -0.2638 -0.2671 -0.2034
 1000MOL0     C34888   4.035   6.511   6.331  0.7889 -0.1095 -0.4745
 1000MOL0     O34889   4.103   6.384   6.334 -0.6021 -0.3916 -0.4028
 1000MOL0     C34890   4.240   6.375   6.343  0.3107  0.5797  0.0145
 1000MOL0     C34891   4.287   6.244   6.314 -0.3428 -0.7821 -0.2105
 1000MOL0     C34892   4.420   6.216   6.316  0.2312  0.2721 -0.2902
 1000MOL0     C34893   4.519   6.310   6.350 -0.2042 -0.7705 -0.2257
 1000MOL0     C34894   4.658   6.277   6.352  0.2175  0.1298  0.3879
 1000MOL0     O34895   4.732   6.333   6.259 -0.1763  0.1409  0.3133
 1000MOL0     C34896   4.867   6.322   6.266 -0.3277  1.2463 -0.3340
 1000MOL0     C34897   4.951   6.377   6.368  0.5737  0.5456  0.6183
 1000MOL0     C34898   5.084   6.355   6.374 -1.0883  0.9465  0.1805
 1000MOL0     C34899   5.145   6.285   6.268 -0.2167 -0.0487 -0.9651
 1000MOL0     O34900   5.284   6.266   6.291  0.4373 -0.0051 -0.3427
 1000MOL0     C34901   5.373   6.385   6.286  0.3002 -0.4171  0.2370
 1000MOL0     C34902   5.516   6.337   6.268  0.6025  0.6920  0.9790
 1000MOL0     C34903   5.616   6.449   6.244  0.7996 -0.4846  0.0934
 1000MOL0     C34904   5.758   6.403   6.205 -0.1693  0.6664 -0.7465
 1000MOL0     C34905   5.843   6.526   6.184 -0.3635  0.3157 -0.2042
 1000MOL0     C34906   5.982   6.474   6.143  0.8227  0.9253  0.2771
 1000MOL0     C34907   6.081   6.593   6.140 -0.5569 -0.1664 -0.2267
 1000MOL0     C34908   6.219   6.552   6.082  0.5509 -0.6363 -0.2656
 1000MOL0    Cl34909   6.282   6.405   6.164 -0.2739  0.1207  0.2284
 1000MOL0     C34910   5.066   6.222   6.168 -0.5104 -0.1336 -0.0872
 1000MOL0     C34911   4.923   6.236   6.170 -0.1227  0.7479  0.2729
 1000MOL0     O34912   4.707   6.223   6.454 -0.3321  0.6162  0.3747
 1000MOL0     C34913   4.469   6.446   6.369  1.2027 -0.2565  0.2365
 1000MOL0     C34914   4.334   6.477   6.364 -0.3817 -0.2241 -0.5621
 1000MOL0     N34915   3.944   7.036   6.230  0.4751 -0.6902  0.0867
 1000MOL0     N34916   3.865   7.141   6.235 -0.2996 -0.0205  0.3224
 1000MOL0     C34917   2.646   7.224   6.270  0.4686 -0.2465  0.1279
 1000MOL0     C34918   2.510   7.173   6.242  0.5121  0.1140  0.4904
 1000MOL0     C34919   2.132   6.972   6.140 -0.0412 -0.2410 -0.3811
 1000MOL0     C34920   2.010   6.978   6.212  0.8942  1.0510  0.3876
 1000MOL0     C34921   1.891   6.934   6.160 -0.1422 -0.1430 -0.7541
 1000MOL0     C34922   1.887   6.877   6.031 -0.4187  0.3902  0.2495
 1000MOL0     O34923   1.764   6.843   5.987  0.2387 -0.3903  0.1434
 1000MOL0     C34924   1.724   6.825   5.852 -1.2772  0.1748  0.0892
 1000MOL0     C34925   1.568   6.821   5.855 -0.4395  0.8847  0.2868
 1000MOL0     C34926   1.521   6.811   5.708 -0.0486 -0.1295  0.3562
 1000MOL0     C34927   1.372   6.788   5.687  0.6001 -0.5382 -0.1191
 1000MOL0     C34928   1.291   6.896   5.738  0.4262  0.2466  0.2831
 1000MOL0     C34929   1.228   6.995   5.771 -0.1115  0.1509 -0.1846
 1000MOL0     C34930   2.005   6.877   5.955 -0.1274 -0.4938 -0.4561
 1000MOL0     C34931   2.130   6.921   6.008  0.3026  0.2133  0.0977
 1000MOL0     C34932   2.248   6.901   5.930  0.5116  0.0928 -0.1506
 1000MOL0     H34933   2.584   6.850   6.185  0.4095 -0.0749 -1.9465
 1000MOL0     H34934   2.821   6.932   6.231 -0.6210  0.2831  2.7236
 1000MOL0     H34935   2.943   7.223   6.093  1.0840 -0.0931  0.1452
 1000MOL0     H34936   2.872   7.356   6.192  0.2335 -0.5004  1.1364
 1000MOL0     H34937   3.070   7.370   6.313 -1.9257 -1.5774  2.1790
 1000MOL0     H34938   3.108   7.366   6.139 -0.8131 -0.3260  0.3965
 1000MOL0     H34939   3.169   7.129   6.131 -0.9254 -3.2116  1.2806
 1000MOL0     H34940   3.121   7.104   6.304  0.1316 -0.0669  1.0561
 1000MOL0     H34941   3.333   7.282   6.197 -0.8860 -0.8189 -2.5174
 1000MOL0     H34942   3.291   7.256   6.367  0.6978  0.7765 -1.2304
 1000MOL0     H34943   3.493   7.121   6.340  0.3053  0.3402  1.0845
 1000MOL0     H34944   3.361   7.008   6.352  0.3118  1.7242  1.7208
 1000MOL0     H34945   3.519   6.941   6.157  1.2807  1.4318 -1.8269
 1000MOL0     H34946   3.365   6.995   6.092 -2.6717  1.5423 -0.0216
 1000MOL0     H34947   3.455   7.217   6.024  0.2549  0.1318  0.9727
 1000MOL0     H34948   3.567   7.093   5.963  3.0601 -1.4043  0.1475
 1000MOL0     H34949   3.680   7.293   6.076  4.3132 -2.1062  0.5610
 1000MOL0     H34950   3.608   7.232   6.231  0.4554 -2.7375  2.5065
 1000MOL0     H34951   3.720   6.934   6.011  0.6847  1.4437 -1.6454
 1000MOL0     H34952   3.914   6.765   6.014 -1.8673 -0.7105  0.4547
 1000MOL0     H34953   4.068   6.811   6.086 -0.1327 -1.2036 -1.0426
 1000MOL0     H34954   3.965   6.756   6.308  3.2759  2.9665 -0.7171
 1000MOL0     H34955   3.838   6.668   6.216 -0.5493  0.2553 -0.9908
 1000MOL0     H34956   4.134   6.604   6.166 -0.9520  4.4981  0.7979
 1000MOL0     H34957   3.985   6.511   6.125 -0.7652 -0.4717  0.2982
 1000MOL0     H34958   3.937   6.481   6.368 -0.2219 -1.1550 -3.6682
 1000MOL0     H34959   4.090   6.582   6.394  0.6273  1.7284 -2.3056
 1000MOL0     H34960   4.210   6.174   6.282 -3.8527  2.8962 -0.6344
 1000MOL0     H34961   4.463   6.119   6.292 -1.5352 -0.6388  0.0411
 1000MOL0     H34962   4.912   6.441   6.447 -0.8955 -0.0036  0.3677
 1000MOL0     H34963   5.147   6.387   6.456 -2.2252  2.0772  0.6324
 1000MOL0     H34964   5.344   6.454   6.205  0.8320 -0.2911  0.1533
 1000MOL0     H34965   5.373   6.428   6.387  2.7822 -0.1663  0.1905
 1000MOL0     H34966   5.536   6.275   6.356 -2.5262 -0.5680  0.9447
 1000MOL0     H34967   5.516   6.266   6.184  0.9451  0.3715  1.2429
 1000MOL0     H34968   5.578   6.514   6.165  0.9655 -1.5426 -0.8940
 1000MOL0     H34969   5.613   6.502   6.339  0.3179  0.1125 -0.2515
 1000MOL0     H34970   5.766   6.331   6.123  0.8297 -1.6029  1.2199
 1000MOL0     H34971   5.799   6.341   6.286 -0.4876  3.4412  1.6997
 1000MOL0     H34972   5.857   6.588   6.273  5.1217  2.1407 -1.8746
 1000MOL0     H34973   5.800   6.596   6.111  0.4569  0.5938 -0.4349
 1000MOL0     H34974   6.015   6.391   6.206  0.6115 -1.8592 -3.0416
 1000MOL0     H34975   5.973   6.432   6.043  1.4729 -2.1941  1.4094
 1000MOL0     H34976   6.090   6.641   6.237  0.5209 -0.0039 -0.3902
 1000MOL0     H34977   6.040   6.672   6.076 -0.9363 -0.4547 -0.3437
 1000MOL0     H34978   6.204   6.531   5.976  0.9507 -0.8547 -0.2825
 1000MOL0     H34979   6.286   6.637   6.096 -0.5577  0.0232  1.2685
 1000MOL0     H34980   5.121   6.159   6.099  1.3238  1.7560 -0.4525
 1000MOL0     H34981   4.859   6.194   6.093 -0.3913 -0.0969  0.9485
 1000MOL0     H34982   4.539   6.528   6.381  0.2047  0.8252 -0.9029
 1000MOL0     H34983   4.311   6.579   6.394 -1.3960  0.4431 -3.3376
 1000MOL0     H34984   2.647   7.331   6.290 -3.4121 -0.3564  1.9108
 1000MOL0     H34985   2.428   7.241   6.223 -1.4152 -2.8040 -2.6945
 1000MOL0     H34986   2.015   7.017   6.313  1.0579 -0.5813  1.0354
 1000MOL0     H34987   1.799   6.927   6.217  1.3068  2.1664  2.0811
 1000MOL0     H34988   1.764   6.726   5.826  1.3599  1.9425 -3.4515
 1000MOL0     H34989   1.762   6.900   5.782  0.4544 -1.8550 -1.3005
 1000MOL0     H34990   1.535   6.913   5.903  1.8365  2.4275 -0.9003
 1000MOL0     H34991   1.539   6.742   5.925 -0.1414  3.3051  3.3578
 1000MOL0     H34992   1.566   6.724   5.661  1.9598  2.0927 -2.1229
 1000MOL0     H34993   1.554   6.903   5.658  1.1727 -2.0829 -2.6780
 1000MOL0     H34994   1.351   6.788   5.579  2.4387 -2.5259 -0.5577
 1000MOL0     H34995   1.333   6.690   5.717 -0.4367 -0.4669 -1.1233
 1000MOL0     H34996   1.193   7.093   5.797  0.7713  0.0986  1.3187
 1000MOL0     H34997   2.000   6.829   5.858  0.4382 -1.4835 -0.0158
 1000MOL0     H34998   2.317   6.836   5.985 -1.1254 -0.8742  0.8201
 1000MOL0     H34999   2.215   6.872   5.829 -5.0724  1.8360  0.8329
 1000MOL0     H35000   2.306   6.993   5.918  1.5785 -0.3834  1.1417
 1001MOL0     O35001   9.804   7.546   3.484 -0.9466 -1.0287  0.4641
 1001MOL0     C35002   9.730   7.649   3.493  0.3322 -0.5436 -0.3754
 1001MOL0     O35003   9.773   7.771   3.523  0.5430  0.8003  0.0836
 1001MOL0     C35004   9.897   7.795   3.580 -0.4101  0.3189 -0.6609
 1001MOL0     C35005  10.011   7.763   3.517 -0.6644  0.2581  0.8379
 1001MOL0     C35006  10.135   7.778   3.572  0.4367 -0.5899 -0.5064
 1001MOL0     C35007  10.152   7.818   3.705 -0.1981 -0.3765  0.2469
 1001MOL0     O35008  10.273   7.845   3.760 -0.1772  0.3066  0.3511
 1001MOL0     C35009  10.391   7.832   3.689  0.5079  0.4738  0.4875
 1001MOL0     C35010  10.517   7.855   3.761 -0.4759 -0.6358 -0.8126
 1001MOL0     C35011  10.545   7.997   3.825  0.0970 -0.6884 -0.3527
 1001MOL0     C35012  10.648   7.993   3.937 -0.0445  0.5825 -0.0097
 1001MOL0     C35013  10.640   8.120   4.020  0.2576 -0.3180 -0.2101
 1001MOL0     C35014  10.721   8.108   4.154 -0.8358 -0.2464  0.8639
 1001MOL0     C35015  10.863   8.050   4.129  0.4538 -0.5170 -0.5630
 1001MOL0     C35016  10.948   8.156   4.050  0.2862 -0.1931 -0.3078
 1001MOL0     N35017  11.091   8.129   4.062  0.1635  0.4133 -0.0099
 1001MOL0     C35018  11.145   8.002   4.046 -0.9391 -0.6927 -0.6203
 1001MOL0     C35019  11.281   8.025   4.079 -0.0548 -0.0839 -0.3988
 1001MOL0     C35020  11.384   7.918   4.078  0.5719  0.1583  0.2661
 1001MOL0     C35021  11.408   7.870   4.227 -0.5770 -0.0076 -0.2348
 1001MOL0     C35022  11.494   7.737   4.228  0.2483 -0.3543 -1.3203
 1001MOL0     C35023  11.616   7.740   4.135  0.7620  0.3626 -0.1912
 1001MOL0     O35024  11.704   7.849   4.154  0.7565 -0.4697 -0.0053
 1001MOL0     C35025  11.808   7.874   4.064 -0.2881 -0.0836  0.6134
 1001MOL0     C35026  11.842   7.778   3.967 -0.1002 -0.0190  0.5375
 1001MOL0     C35027  11.944   7.808   3.869  0.3347 -1.0628 -0.5203
 1001MOL0     C35028  12.007   7.933   3.875  0.3076  0.1214  0.0036
 1001MOL0     C35029  12.123   7.964   3.785 -0.1674 -0.1522 -0.0897
 1001MOL0     O35030  12.194   8.082   3.816 -0.0326  0.2810  1.0394
 1001MOL0     C35031  12.296   8.120   3.731  0.4475  0.1923 -0.2355
 1001MOL0     C35032  12.383   8.023   3.676 -0.7602 -1.0361 -0.7869
 1001MOL0     C35033  12.489   8.062   3.597  0.4239  0.3502  0.5575
 1001MOL0     C35034  12.514   8.195   3.574  0.4129  0.4794  0.9865
 1001MOL0     O35035  12.622   8.224   3.491 -0.4563 -0.2620  0.0821
 1001MOL0     C35036  12.649   8.365   3.448 -0.0544  0.6137  0.3440
 1001MOL0     C35037  12.800   8.367   3.405 -0.2411 -0.2858  0.6206
 1001MOL0     C35038  12.839   8.278   3.285 -0.8159 -0.0421  0.6659
 1001MOL0     C35039  12.984   8.296   3.250 -0.0949  0.1457  0.4097
 1001MOL0     C35040  13.038   8.218   3.138  0.4289 -0.2374 -0.1136
 1001MOL0     C35041  13.190   8.202   3.137 -0.7121  0.1627 -0.4768
 1001MOL0     C35042  13.215   8.111   3.018 -0.4416 -1.1143 -0.3646
 1001MOL0     C35043  13.360   8.140   2.982  0.2984  0.1037  0.1120
 1001MOL0    Cl35044  13.401   8.031   2.850  0.5549  0.1503  0.0301
 1001MOL0     C35045  12.432   8.285   3.633 -0.2787 -0.0018 -0.4055
 1001MOL0     C35046  12.316   8.252   3.709 -0.0337  0.1055 -0.3764
 1001MOL0     O35047  12.130   7.895   3.685  0.0035 -0.3251 -1.1115
 1001MOL0     C35048  11.970   8.029   3.972 -0.9921 -0.4383  0.3299
 1001MOL0     C35049  11.866   8.003   4.064  0.2158 -0.7019  0.5921
 1001MOL0     N35050  11.296   8.162   4.112 -0.3134 -0.2395 -0.0426
 1001MOL0     N35051  11.180   8.216   4.100 -0.0516  0.4056 -0.7336
 1001MOL0     C35052  10.036   7.836   3.784  0.1151  0.0480 -0.6315
 1001MOL0     C35053   9.911   7.816   3.721 -0.2764 -0.1636  0.1216
 1001MOL0     C35054   9.593   7.638   3.445  0.5593 -0.2525 -0.0022
 1001MOL0     C35055   9.552   7.706   3.332  0.3345  1.1076 -1.4299
 1001MOL0     C35056   9.421   7.682   3.286 -0.3526  0.2595  0.7096
 1001MOL0     C35057   9.343   7.589   3.355 -1.1348  0.3354  0.2384
 1001MOL0     O35058   9.245   7.524   3.284 -0.1797 -0.0199  0.6813
 1001MOL0     C35059   9.192   7.585   3.163 -0.9037  0.4923 -0.0242
 1001MOL0     C35060   9.082   7.504   3.115 -0.1583 -0.0297  0.1058
 1001MOL0     C35061   9.121   7.366   3.063  0.5911 -0.1786 -0.1553
 1001MOL0     C35062   8.998   7.282   3.013 -1.0375 -0.5864 -0.5617
 1001MOL0     C35063   8.935   7.329   2.895  0.4103 -0.8535 -0.5183
 1001MOL0     C35064   8.889   7.361   2.785 -0.2723  0.3735 -0.4715
 1001MOL0     C35065   9.383   7.529   3.472 -0.1596 -0.1382  0.2552
 1001MOL0     C35066   9.507   7.561   3.528  0.7854  0.1204 -0.1341
 1001MOL0     C35067   9.554   7.507   3.655  0.5503 -0.4202 -0.7624
 1001MOL0     H35068  10.000   7.721   3.418 -1.3726 -0.4104  1.1801
 1001MOL0     H35069  10.208   7.774   3.491 -0.8093  1.5815 -1.8528
 1001MOL0     H35070  10.394   7.728   3.657 -0.3489  0.8338 -0.8643
 1001MOL0     H35071  10.378   7.892   3.598  0.9519 -0.0947  0.0414
 1001MOL0     H35072  10.603   7.833   3.697 -0.0509  0.3633 -0.6079
 1001MOL0     H35073  10.529   7.782   3.842 -2.9870  0.2012  0.4132
 1001MOL0     H35074  10.458   8.053   3.860  1.3919  0.4104  1.2498
 1001MOL0     H35075  10.579   8.058   3.741  0.1427  0.3304  0.3928
 1001MOL0     H35076  10.623   7.912   4.007 -1.2865  0.2149 -0.8538
 1001MOL0     H35077  10.738   7.956   3.886 -1.0120 -0.7814 -0.8141
 1001MOL0     H35078  10.687   8.200   3.963 -1.8091  1.3115  0.2277
 1001MOL0     H35079  10.538   8.154   4.041  0.9615  3.6056 -2.2411
 1001MOL0     H35080  10.726   8.213   4.184  2.0142 -0.5444  1.7054
 1001MOL0     H35081  10.656   8.046   4.216 -0.0151 -1.4371  0.5615
 1001MOL0     H35082  10.864   7.964   4.063  0.7438  1.0642 -2.7366
 1001MOL0     H35083  10.909   8.037   4.228  0.0695  2.7501  0.1652
 1001MOL0     H35084  10.911   8.136   3.949 -0.3259 -0.0676 -0.1134
 1001MOL0     H35085  10.921   8.261   4.067 -1.5450 -0.7101  0.1499
 1001MOL0     H35086  11.105   7.908   4.010 -3.3014  0.6084 -1.6041
 1001MOL0     H35087  11.351   7.826   4.029 -0.1056 -0.7348  2.2678
 1001MOL0     H35088  11.470   7.952   4.020 -0.0247 -0.0346 -0.7611
 1001MOL0     H35089  11.464   7.951   4.276  0.3708 -0.5989 -0.3169
 1001MOL0     H35090  11.321   7.864   4.293 -0.0648  1.0282  0.5731
 1001MOL0     H35091  11.444   7.645   4.196  0.5525 -1.1710  0.4623
 1001MOL0     H35092  11.532   7.706   4.326 -3.2738 -2.2390 -0.3795
 1001MOL0     H35093  11.575   7.740   4.033  1.7987 -0.7676 -0.6311
 1001MOL0     H35094  11.673   7.653   4.169  2.3498  2.7952  4.0309
 1001MOL0     H35095  11.790   7.683   3.963 -0.7151  0.3377 -0.3585
 1001MOL0     H35096  11.973   7.741   3.788  0.1849  0.9046 -2.2898
 1001MOL0     H35097  12.379   7.915   3.685  1.1497 -1.0810  0.0056
 1001MOL0     H35098  12.542   7.978   3.553 -1.8113  0.0219 -1.7639
 1001MOL0     H35099  12.584   8.404   3.369  2.0433  0.2992 -1.6460
 1001MOL0     H35100  12.642   8.418   3.543 -2.2902 -0.1520  0.6666
 1001MOL0     H35101  12.817   8.469   3.369  3.2044 -1.0196 -0.2065
 1001MOL0     H35102  12.869   8.361   3.490  0.1493 -0.7552  0.2774
 1001MOL0     H35103  12.812   8.173   3.296 -1.2404  0.3220  4.5147
 1001MOL0     H35104  12.778   8.304   3.199  1.0468 -2.2792 -1.4815
 1001MOL0     H35105  13.039   8.262   3.339  0.5901  1.3502  0.4633
 1001MOL0     H35106  13.003   8.403   3.238  1.9122 -0.0985  0.9049
 1001MOL0     H35107  13.023   8.266   3.041  0.7914  0.6216  0.2418
 1001MOL0     H35108  12.983   8.124   3.133 -1.3615  0.7089  0.9929
 1001MOL0     H35109  13.248   8.294   3.133 -0.6487  0.1631  0.2835
 1001MOL0     H35110  13.226   8.149   3.226 -0.9672  2.7671  1.2612
 1001MOL0     H35111  13.161   8.136   2.927 -1.0793 -2.0408 -0.2583
 1001MOL0     H35112  13.200   8.006   3.049  0.8070 -1.3276 -0.4484
 1001MOL0     H35113  13.364   8.244   2.950 -0.7414 -0.4396 -1.9279
 1001MOL0     H35114  13.429   8.122   3.066 -0.3625 -0.1486  0.6059
 1001MOL0     H35115  12.458   8.387   3.606 -0.0774  0.5108  1.5240
 1001MOL0     H35116  12.255   8.329   3.756  2.6725  2.2142 -0.0735
 1001MOL0     H35117  12.006   8.130   3.988 -1.8525 -0.1926  0.8135
 1001MOL0     H35118  11.855   8.062   4.154  2.4855 -0.0282  0.4865
 1001MOL0     H35119  10.049   7.860   3.889 -1.3995  0.4169 -0.5102
 1001MOL0     H35120   9.823   7.838   3.781  0.0793 -2.3089  1.5506
 1001MOL0     H35121   9.622   7.765   3.274  3.4206 -0.6564  0.2464
 1001MOL0     H35122   9.392   7.721   3.189  1.4828 -0.1236 -0.0471
 1001MOL0     H35123   9.274   7.585   3.090  0.8945  1.1338  1.9027
 1001MOL0     H35124   9.157   7.688   3.173 -0.3679  0.9672 -2.3621
 1001MOL0     H35125   9.040   7.561   3.032 -0.5378 -0.2874  0.1186
 1001MOL0     H35126   9.013   7.492   3.199 -1.8014  0.7538 -1.0742
 1001MOL0     H35127   9.180   7.303   3.130  1.0635 -1.2187 -1.5160
 1001MOL0     H35128   9.189   7.395   2.982  1.0543 -0.8231  0.0021
 1001MOL0     H35129   9.053   7.192   2.984  2.1753  1.3342 -1.0473
 1001MOL0     H35130   8.917   7.256   3.081 -0.6930  1.3423  0.6688
 1001MOL0     H35131   8.852   7.386   2.688  0.8383  1.8392 -0.5474
 1001MOL0     H35132   9.318   7.457   3.521 -0.0116 -1.5287 -1.5121
 1001MOL0     H35133   9.621   7.421   3.648 -1.2720 -2.0263  0.3117
 1001MOL0     H35134   9.600   7.584   3.718 -0.3818 -0.0542 -0.5129
 1001MOL0     H35135   9.472   7.469   3.718  0.8705 -0.2934 -0.2649
 1002MOL0     O35136   4.321   2.173   8.454  0.3655  0.3500 -0.4770
 1002MOL0     C35137   4.226   2.238   8.411  0.1317 -0.0700  0.5614
 1002MOL0     O35138   4.102   2.188   8.410 -0.0669 -0.9283  0.0436
 1002MOL0     C35139   4.087   2.061   8.430 -0.2138  0.1304 -0.4942
 1002MOL0     C35140   3.992   2.027   8.519 -0.0205 -0.4016 -0.7313
 1002MOL0     C35141   3.975   1.898   8.551  0.2869 -0.0265  0.1073
 1002MOL0     C35142   4.031   1.803   8.469 -0.6047  0.1675 -0.5368
 1002MOL0     O35143   4.004   1.673   8.483 -0.3398  0.8824  0.1262
 1002MOL0     C35144   3.976   1.623   8.616 -0.0944  0.2912 -0.8397
 1002MOL0     C35145   4.086   1.651   8.709 -0.3448  0.7844 -0.2243
 1002MOL0     C35146   4.066   1.587   8.852 -0.3149  0.1679  0.2891
 1002MOL0     C35147   4.200   1.586   8.923 -0.6255 -0.9151  0.5212
 1002MOL0     C35148   4.168   1.583   9.070  1.2879  0.0740 -1.1189
 1002MOL0     C35149   4.296   1.585   9.149 -0.7205  0.2930  0.3599
 1002MOL0     C35150   4.383   1.461   9.132  0.1853 -0.2609  0.0195
 1002MOL0     C35151   4.476   1.429   9.243  0.2210  0.8147 -1.0025
 1002MOL0     N35152   4.404   1.409   9.372 -0.7786 -0.2957  0.1022
 1002MOL0     C35153   4.376   1.289   9.427  0.5671 -0.7244  0.2627
 1002MOL0     C35154   4.357   1.320   9.557  0.9170  0.8230  0.4552
 1002MOL0     C35155   4.311   1.223   9.658 -0.5420 -0.1785  1.1311
 1002MOL0     C35156   4.379   1.085   9.643  0.4634  0.3123 -0.3605
 1002MOL0     C35157   4.527   1.096   9.682  0.0289 -0.0290  0.5250
 1002MOL0     C35158   4.572   0.952   9.681 -0.7126  0.4334  0.1069
 1002MOL0     O35159   4.706   0.952   9.747  0.3617  1.1407  0.0577
 1002MOL0     C35160   4.784   0.840   9.743  0.5898 -0.4688 -1.1195
 1002MOL0     C35161   4.745   0.713   9.691  0.0878 -1.1857  0.3630
 1002MOL0     C35162   4.826   0.602   9.689  0.6656  0.3256  0.0867
 1002MOL0     C35163   4.956   0.612   9.749  0.3351  0.5411  1.3765
 1002MOL0     C35164   5.051   0.502   9.755 -0.5462  0.6880  0.0833
 1002MOL0     O35165   5.171   0.514   9.840  0.5350 -0.3923  0.1091
 1002MOL0     C35166   5.269   0.412   9.835  0.1940 -0.7758  0.3351
 1002MOL0     C35167   5.349   0.377   9.723  0.3757  0.3995 -0.7984
 1002MOL0     C35168   5.443   0.278   9.734 -0.7567 -0.7335 -0.0042
 1002MOL0     C35169   5.472   0.208   9.850 -0.1881 -0.0316 -0.8928
 1002MOL0     O35170   5.574   0.116   9.859  0.2652 -0.2959 -0.6062
 1002MOL0     C35171   5.585   0.023   9.755 -0.3251 -0.0431 -0.1095
 1002MOL0     C35172   5.719   0.057   9.684  0.2864 -1.1308  0.4940
 1002MOL0     C35173   5.785  -0.072   9.637 -0.3474  0.7818  0.8782
 1002MOL0     C35174   5.899  -0.041   9.541 -0.3387  0.5188  0.6493
 1002MOL0     C35175   5.959  -0.167   9.486  0.3705  0.6488 -0.2837
 1002MOL0     C35176   6.073  -0.245   9.557 -0.3728 -0.1066 -0.2263
 1002MOL0     C35177   6.065  -0.394   9.522  0.9106 -0.8199 -0.7787
 1002MOL0     C35178   6.210  -0.447   9.537  0.0776 -0.3335  0.1247
 1002MOL0    Cl35179   6.296  -0.411   9.694  0.0468 -0.5541 -0.0878
 1002MOL0     C35180   5.394   0.234   9.959 -0.3975 -0.9454  0.5671
 1002MOL0     C35181   5.300   0.338   9.951  0.4856  0.5569  0.8548
 1002MOL0     O35182   5.030   0.414   9.670 -0.3730 -0.1980  0.1899
 1002MOL0     C35183   4.996   0.733   9.807 -0.1616  0.1554 -0.2352
 1002MOL0     C35184   4.913   0.853   9.791 -0.9839 -0.1287 -0.1320
 1002MOL0     N35185   4.359   1.454   9.574 -0.1242  0.1756  0.1476
 1002MOL0     N35186   4.408   1.510   9.465  0.9556  0.9775 -0.2032
 1002MOL0     C35187   4.122   1.831   8.369 -0.2301 -0.1330  0.1802
 1002MOL0     C35188   4.156   1.963   8.349  0.8888 -0.4604 -0.1955
 1002MOL0     C35189   4.238   2.374   8.372 -0.6867  0.3977  0.1353
 1002MOL0     C35190   4.138   2.466   8.414  0.1003  0.2642 -0.0576
 1002MOL0     C35191   4.151   2.601   8.377 -0.4277 -0.2200 -0.5360
 1002MOL0     C35192   4.254   2.642   8.296  0.6284  0.4065  1.2043
 1002MOL0     O35193   4.254   2.776   8.250 -0.5593 -0.3440 -0.1852
 1002MOL0     C35194   4.388   2.827   8.221 -0.1839 -0.2152  0.5124
 1002MOL0     C35195   4.394   2.958   8.142 -0.5990 -0.5211 -0.5593
 1002MOL0     C35196   4.317   3.068   8.213 -0.4190  0.0914 -0.0746
 1002MOL0     C35197   4.403   3.123   8.334 -0.0185 -0.3699  0.1829
 1002MOL0     C35198   4.531   3.187   8.290 -0.0278  0.9378 -0.7421
 1002MOL0     C35199   4.638   3.218   8.252 -0.9438  0.0951 -0.2013
 1002MOL0     C35200   4.351   2.551   8.250 -0.7128 -0.0798  0.1988
 1002MOL0     C35201   4.343   2.416   8.286 -0.4588 -0.2039  0.6802
 1002MOL0     C35202   4.453   2.314   8.238  0.1826 -0.1961 -0.4776
 1002MOL0     H35203   3.940   2.109   8.567  3.1724  3.1706 -2.8318
 1002MOL0     H35204   3.907   1.875   8.632 -1.9576 -1.1072 -1.9464
 1002MOL0     H35205   3.885   1.662   8.663 -0.0322 -1.1604  0.5571
 1002MOL0     H35206   3.958   1.515   8.611 -0.5810  0.3593 -0.6379
 1002MOL0     H35207   4.098   1.758   8.728  1.0008  0.5762  0.2282
 1002MOL0     H35208   4.178   1.607   8.668 -1.2079 -1.9535  0.6150
 1002MOL0     H35209   4.046   1.481   8.833  1.6443 -0.0820 -0.5950
 1002MOL0     H35210   3.998   1.649   8.911 -0.7045  1.8051 -1.7429
 1002MOL0     H35211   4.258   1.497   8.898  2.4952  1.4362 -1.3152
 1002MOL0     H35212   4.258   1.672   8.888 -2.7965 -0.5350 -2.6443
 1002MOL0     H35213   4.096   1.656   9.108 -0.3074 -1.2009 -1.5861
 1002MOL0     H35214   4.126   1.483   9.083  0.9646 -0.1343 -3.4061
 1002MOL0     H35215   4.350   1.675   9.120 -1.9005  1.1284  0.7103
 1002MOL0     H35216   4.273   1.592   9.255  2.2325  1.7882  1.0037
 1002MOL0     H35217   4.451   1.481   9.049 -0.2378  0.0917 -0.2443
 1002MOL0     H35218   4.318   1.375   9.115 -1.0435  0.0664  2.5764
 1002MOL0     H35219   4.533   1.337   9.226 -1.6023 -0.3658 -1.0518
 1002MOL0     H35220   4.546   1.513   9.245  1.7053 -0.2979  3.0664
 1002MOL0     H35221   4.385   1.194   9.376 -0.6872 -0.8387  0.2323
 1002MOL0     H35222   4.335   1.272   9.752 -0.1381 -1.4528  1.7239
 1002MOL0     H35223   4.203   1.206   9.655 -0.9704  2.2476 -1.3056
 1002MOL0     H35224   4.317   1.021   9.708 -1.4413  2.0798 -0.3491
 1002MOL0     H35225   4.366   1.046   9.542  1.7335  0.8719 -0.7535
 1002MOL0     H35226   4.541   1.144   9.779 -1.7618 -0.0923  0.8639
 1002MOL0     H35227   4.576   1.148   9.598  0.6419 -0.1264  0.8209
 1002MOL0     H35228   4.578   0.914   9.579  3.2168 -3.0045  1.3329
 1002MOL0     H35229   4.498   0.885   9.726  1.2395 -2.6420 -0.8853
 1002MOL0     H35230   4.650   0.711   9.637  0.4979  3.0815 -0.9038
 1002MOL0     H35231   4.785   0.510   9.647  3.1800 -1.4041  1.1850
 1002MOL0     H35232   5.328   0.419   9.625 -1.1395 -0.7741 -0.9896
 1002MOL0     H35233   5.502   0.262   9.644 -0.0441 -2.0091  0.6640
 1002MOL0     H35234   5.596  -0.069   9.814  1.0480  1.2415  1.7646
 1002MOL0     H35235   5.496   0.015   9.692 -2.2357 -1.4629  2.5580
 1002MOL0     H35236   5.698   0.136   9.612  1.0503  1.3064  2.7530
 1002MOL0     H35237   5.785   0.111   9.753  2.5554  0.7123 -2.8411
 1002MOL0     H35238   5.822  -0.139   9.716 -2.1208  0.0923  1.1597
 1002MOL0     H35239   5.713  -0.129   9.578 -0.2584  0.8166  0.7367
 1002MOL0     H35240   5.975   0.022   9.587 -0.8393  0.0064  2.2500
 1002MOL0     H35241   5.858   0.016   9.457  1.0312  0.2412 -0.2298
 1002MOL0     H35242   6.000  -0.128   9.392  3.8562 -0.9744  0.4077
 1002MOL0     H35243   5.878  -0.236   9.461  1.1071 -0.2938 -0.1202
 1002MOL0     H35244   6.172  -0.212   9.527  0.0603 -1.1375  0.0053
 1002MOL0     H35245   6.059  -0.232   9.665  0.7252  1.8125 -0.2776
 1002MOL0     H35246   6.026  -0.407   9.421  1.1004  1.7912 -1.2672
 1002MOL0     H35247   5.998  -0.444   9.593  0.5275 -0.5555 -0.9497
 1002MOL0     H35248   6.210  -0.555   9.522 -2.0782 -0.5867  1.5181
 1002MOL0     H35249   6.281  -0.410   9.463  0.3512 -1.4157 -0.1703
 1002MOL0     H35250   5.410   0.176  10.049  0.1515 -0.4583  0.7889
 1002MOL0     H35251   5.241   0.360  10.040 -1.2941 -1.7059  0.3084
 1002MOL0     H35252   5.085   0.728   9.869 -0.3791 -2.1805 -0.0204
 1002MOL0     H35253   4.953   0.944   9.835 -2.3357  0.2472  0.3680
 1002MOL0     H35254   4.168   1.758   8.302  0.1690  0.4287 -0.1696
 1002MOL0     H35255   4.214   2.002   8.267 -0.4768  0.6135 -0.6842
 1002MOL0     H35256   4.055   2.435   8.477  1.0412 -0.4538  0.8690
 1002MOL0     H35257   4.072   2.668   8.408 -1.0715 -0.8183 -0.8363
 1002MOL0     H35258   4.444   2.764   8.152 -0.8930  0.5746 -0.8340
 1002MOL0     H35259   4.450   2.838   8.311 -0.9544 -0.3062  1.0608
 1002MOL0     H35260   4.357   2.929   8.044  0.3039 -0.5420 -0.9044
 1002MOL0     H35261   4.497   2.985   8.117 -0.1954 -0.7764  0.7256
 1002MOL0     H35262   4.227   3.022   8.253  0.4941 -1.8586 -0.1647
 1002MOL0     H35263   4.285   3.146   8.143 -0.9745 -0.9589 -1.0296
 1002MOL0     H35264   4.345   3.197   8.389 -1.5551  0.5687 -2.5163
 1002MOL0     H35265   4.423   3.041   8.404 -4.0083 -3.6146 -2.0557
 1002MOL0     H35266   4.728   3.265   8.218 -1.5760  5.1461  3.9117
 1002MOL0     H35267   4.436   2.576   8.187  1.8108 -0.6966  3.1281
 1002MOL0     H35268   4.405   2.216   8.228 -1.0044 -0.2552  3.8214
 1002MOL0     H35269   4.501   2.355   8.148  0.7015 -0.5571 -0.3663
 1002MOL0     H35270   4.534   2.294   8.308  3.3113  1.7882 -3.2474
 1003MOL0     O35271   7.509   3.048   9.941  0.4324  0.1138 -0.4328
 1003MOL0     C35272   7.408   3.106   9.985  0.4455 -0.4435  0.6629
 1003MOL0     O35273   7.399   3.235  10.005  0.1025  0.1040  0.3438
 1003MOL0     C35274   7.508   3.303  10.043 -1.2370 -0.2450 -0.9154
 1003MOL0     C35275   7.511   3.432  10.003 -0.8912  0.1469 -0.6000
 1003MOL0     C35276   7.611   3.523  10.037  0.0833  0.0081 -0.1934
 1003MOL0     C35277   7.712   3.481  10.123  0.0919  0.0124 -0.1835
 1003MOL0     O35278   7.809   3.564  10.157 -0.2805  0.1200 -1.0212
 1003MOL0     C35279   7.883   3.545  10.285 -0.1397  0.2786 -0.3435
 1003MOL0     C35280   7.985   3.650  10.296  0.5438  0.6182  0.0722
 1003MOL0     C35281   8.106   3.612  10.206 -0.6948 -0.0060  0.8336
 1003MOL0     C35282   8.179   3.749  10.162  1.0201  0.3617 -0.1262
 1003MOL0     C35283   8.317   3.711  10.097 -0.2012  0.6326 -0.6459
 1003MOL0     C35284   8.387   3.840  10.050 -0.3295  0.8893 -0.6680
 1003MOL0     C35285   8.526   3.810   9.983 -1.4758 -0.4967  0.1632
 1003MOL0     C35286   8.518   3.750   9.843  0.3195 -0.0622 -0.6197
 1003MOL0     N35287   8.430   3.833   9.757 -0.5398  0.8057  0.8317
 1003MOL0     C35288   8.306   3.804   9.709 -0.1912 -0.9439 -0.3409
 1003MOL0     C35289   8.266   3.907   9.633 -0.0038  0.1227  0.9045
 1003MOL0     C35290   8.141   3.922   9.565  0.2945  0.1365  0.4872
 1003MOL0     C35291   8.167   3.902   9.415  0.6186  0.0137 -0.3627
 1003MOL0     C35292   8.263   4.005   9.346  0.7997  0.0647 -0.2814
 1003MOL0     C35293   8.259   3.996   9.196 -0.2146 -0.2414  1.6247
 1003MOL0     O35294   8.260   3.863   9.154 -0.2497  0.8320 -0.0659
 1003MOL0     C35295   8.380   3.802   9.124 -0.8765 -0.6069 -0.3438
 1003MOL0     C35296   8.518   3.855   9.129  1.5557  0.8726  0.1801
 1003MOL0     C35297   8.620   3.771   9.100 -0.2221  0.7713  0.7444
 1003MOL0     C35298   8.601   3.632   9.062  0.4467  0.0214  0.0999
 1003MOL0     C35299   8.706   3.541   9.037 -0.8026  0.2143 -0.4581
 1003MOL0     O35300   8.829   3.602   9.033  0.2360  0.2791  0.3082
 1003MOL0     C35301   8.941   3.525   9.037  0.1964 -0.0559 -0.5518
 1003MOL0     C35302   9.036   3.545   8.943  0.3394 -0.9421  0.8137
 1003MOL0     C35303   9.155   3.472   8.941  0.0298  0.3209 -0.4857
 1003MOL0     C35304   9.180   3.379   9.039  0.9422  0.4040  0.7604
 1003MOL0     O35305   9.291   3.302   9.021  0.5792 -0.2040 -0.5716
 1003MOL0     C35306   9.292   3.169   9.084 -0.1319 -0.3240 -0.4398
 1003MOL0     C35307   9.400   3.153   9.197 -0.5348 -0.3300 -0.6913
 1003MOL0     C35308   9.355   3.188   9.339  0.4040  0.3117  0.3129
 1003MOL0     C35309   9.460   3.171   9.451 -0.0464 -0.3811  0.0983
 1003MOL0     C35310   9.407   3.241   9.581 -0.7595  0.0371  0.6818
 1003MOL0     C35311   9.287   3.170   9.638  0.8573 -0.1762 -0.3821
 1003MOL0     C35312   9.226   3.243   9.757  0.1776  0.9239  0.2745
 1003MOL0     C35313   9.076   3.256   9.757  0.6306 -0.3622  0.1173
 1003MOL0    Cl35314   9.009   3.084   9.791  0.3001  0.2388  0.0669
 1003MOL0     C35315   9.075   3.359   9.139 -0.5016 -0.2368  0.2304
 1003MOL0     C35316   8.958   3.429   9.138  0.5663  0.2217  0.4294
 1003MOL0     O35317   8.681   3.425   9.004  0.0315 -0.2712  0.3643
 1003MOL0     C35318   8.465   3.589   9.053  0.4086  0.5846 -0.5415
 1003MOL0     C35319   8.359   3.673   9.088  0.0667 -0.0850 -0.1141
 1003MOL0     N35320   8.365   4.001   9.642  0.1217 -0.4294 -0.4100
 1003MOL0     N35321   8.463   3.955   9.715 -0.7890  0.2115  0.3192
 1003MOL0     C35322   7.716   3.337  10.162  0.6949  0.0618  0.5701
 1003MOL0     C35323   7.602   3.265  10.129  0.0397 -0.1424  0.5832
 1003MOL0     C35324   7.282   3.030   9.985 -0.7558 -0.4826  0.1447
 1003MOL0     C35325   7.173   3.088   9.923  1.2960  0.0624  0.5264
 1003MOL0     C35326   7.051   3.017   9.905  0.0452 -0.2558 -1.5424
 1003MOL0     C35327   7.036   2.889   9.959  0.1092  0.3319  0.2064
 1003MOL0     O35328   6.921   2.815   9.944 -0.1735 -0.7756  0.1131
 1003MOL0     C35329   6.836   2.855   9.832  0.2482 -0.0799 -1.2672
 1003MOL0     C35330   6.728   2.747   9.824 -0.2275  0.4271  0.6838
 1003MOL0     C35331   6.630   2.748   9.938 -0.0656  0.0015 -1.1095
 1003MOL0     C35332   6.516   2.642   9.917 -0.3564 -0.1110  0.1791
 1003MOL0     C35333   6.400   2.655  10.003 -0.9225 -0.2833 -0.2707
 1003MOL0     C35334   6.291   2.644  10.042 -0.1784 -0.2040  0.2812
 1003MOL0     C35335   7.143   2.836  10.029  0.1643 -0.0766 -0.0940
 1003MOL0     C35336   7.259   2.904  10.043 -0.6535  0.2223 -0.1864
 1003MOL0     C35337   7.357   2.828  10.134  0.0999 -0.1969 -0.4290
 1003MOL0     H35338   7.446   3.468   9.923 -1.3816 -1.2584 -0.8679
 1003MOL0     H35339   7.612   3.616   9.981  0.0684  0.7530  1.0092
 1003MOL0     H35340   7.823   3.546  10.376 -0.4364  0.3531 -0.5395
 1003MOL0     H35341   7.937   3.450  10.289  1.5401  1.2229  1.9712
 1003MOL0     H35342   8.018   3.643  10.400 -2.0052  0.4306  0.9280
 1003MOL0     H35343   7.940   3.743  10.261  2.2964  1.1438 -0.9022
 1003MOL0     H35344   8.069   3.571  10.111 -1.8331 -1.2383  1.7650
 1003MOL0     H35345   8.164   3.543  10.268  2.2070  0.8227 -0.7700
 1003MOL0     H35346   8.115   3.810  10.098 -0.2955 -0.3434  0.4754
 1003MOL0     H35347   8.200   3.813  10.249 -4.6009  2.2177  0.2887
 1003MOL0     H35348   8.372   3.651  10.170 -0.8428 -0.3513 -0.9569
 1003MOL0     H35349   8.284   3.658  10.007  1.9317 -0.1087 -1.0606
 1003MOL0     H35350   8.329   3.914   9.994 -0.9609  1.9618  1.2846
 1003MOL0     H35351   8.404   3.893  10.144  0.6366 -2.6055  1.3262
 1003MOL0     H35352   8.581   3.737  10.042  2.0106  0.8901 -1.0653
 1003MOL0     H35353   8.583   3.903   9.970 -1.4753 -0.5617 -0.3470
 1003MOL0     H35354   8.619   3.743   9.803  2.3200  1.2984  3.5600
 1003MOL0     H35355   8.472   3.652   9.852  1.0237 -0.5289 -1.9567
 1003MOL0     H35356   8.252   3.715   9.740 -3.0493  1.1279  1.0863
 1003MOL0     H35357   8.070   3.852   9.609 -0.7046  1.6684  1.3913
 1003MOL0     H35358   8.093   4.019   9.583 -2.0902 -1.0114  0.6830
 1003MOL0     H35359   8.192   3.802   9.379  3.0486  0.5214 -0.2655
 1003MOL0     H35360   8.074   3.927   9.363  0.0815 -0.8753  0.1551
 1003MOL0     H35361   8.361   3.966   9.376 -0.1121 -1.4947  0.8949
 1003MOL0     H35362   8.238   4.103   9.386  0.1992 -2.0998  5.8037
 1003MOL0     H35363   8.335   4.060   9.151  0.2439 -1.6875  0.2471
 1003MOL0     H35364   8.169   4.041   9.152  0.9849  0.3322 -0.3470
 1003MOL0     H35365   8.536   3.952   9.175  2.0839  0.4965  0.7675
 1003MOL0     H35366   8.718   3.817   9.097  0.1566  0.0454  1.6866
 1003MOL0     H35367   9.023   3.614   8.861  0.3612 -0.4050  1.2595
 1003MOL0     H35368   9.222   3.486   8.857  0.6737 -3.7503 -0.8670
 1003MOL0     H35369   9.200   3.140   9.137 -0.9859  2.1987 -0.3904
 1003MOL0     H35370   9.316   3.100   9.003  1.9348 -0.8831  0.5805
 1003MOL0     H35371   9.415   3.045   9.197 -1.1828 -0.4226 -0.8337
 1003MOL0     H35372   9.495   3.206   9.184 -0.2974 -0.5315  0.1607
 1003MOL0     H35373   9.321   3.292   9.340  0.2711  0.3311 -1.9429
 1003MOL0     H35374   9.271   3.121   9.361  0.9027 -0.1615  0.8302
 1003MOL0     H35375   9.553   3.215   9.411  0.3420 -1.8580 -0.6806
 1003MOL0     H35376   9.490   3.069   9.475  1.2499 -0.7752 -2.7511
 1003MOL0     H35377   9.387   3.347   9.560 -0.6038 -0.5245 -2.9606
 1003MOL0     H35378   9.489   3.244   9.653  1.3120  1.4830 -1.5979
 1003MOL0     H35379   9.207   3.165   9.563  0.9523 -3.2398 -0.4373
 1003MOL0     H35380   9.310   3.064   9.653  2.7557  0.1796 -0.5179
 1003MOL0     H35381   9.280   3.338   9.758  1.8397  0.0949 -2.2831
 1003MOL0     H35382   9.252   3.183   9.845 -0.7627 -1.4760 -0.9833
 1003MOL0     H35383   9.056   3.329   9.836  1.8416  2.8870 -2.3772
 1003MOL0     H35384   9.043   3.300   9.663  4.1905  1.7842 -0.2834
 1003MOL0     H35385   9.093   3.316   9.237 -0.8137 -1.1078 -0.0851
 1003MOL0     H35386   8.881   3.418   9.215 -0.4110  1.4561 -0.3284
 1003MOL0     H35387   8.436   3.491   9.018 -0.3939 -0.6336  3.0949
 1003MOL0     H35388   8.261   3.630   9.074  0.7520 -1.3341 -1.4199
 1003MOL0     H35389   7.798   3.304  10.225  1.0882  1.2240  0.6916
 1003MOL0     H35390   7.605   3.159  10.154  2.7017 -1.2255 -3.4331
 1003MOL0     H35391   7.176   3.194   9.898 -1.8951  0.1786  0.1298
 1003MOL0     H35392   6.979   3.066   9.841 -1.8051 -2.3609 -1.2131
 1003MOL0     H35393   6.896   2.857   9.740  2.6037 -3.8396 -0.0590
 1003MOL0     H35394   6.790   2.952   9.851  1.1619 -0.3199  3.1693
 1003MOL0     H35395   6.770   2.648   9.806 -1.8724  0.0325 -1.3551
 1003MOL0     H35396   6.669   2.762   9.733 -0.7494 -2.3939  0.4602
 1003MOL0     H35397   6.579   2.844   9.952  0.3824  0.2543 -1.1865
 1003MOL0     H35398   6.683   2.742  10.034 -2.2037  2.0123  0.2989
 1003MOL0     H35399   6.484   2.667   9.815  1.2468  0.8046 -0.1327
 1003MOL0     H35400   6.567   2.546   9.928  1.3334  0.9420  2.1991
 1003MOL0     H35401   6.194   2.640  10.085  0.2353  0.1149  1.2660
 1003MOL0     H35402   7.132   2.739  10.076  1.4098  0.0873  0.5717
 1003MOL0     H35403   7.333   2.838  10.240 -2.9598  0.8917 -1.0997
 1003MOL0     H35404   7.345   2.724  10.101 -2.4038 -0.2016  0.2670
 1003MOL0     H35405   7.459   2.864  10.120 -0.4207  2.0083  0.9210
 1004MOL0     O35406  10.639   5.813   9.136 -0.4394  0.7330 -0.5966
 1004MOL0     C35407  10.594   5.925   9.099 -0.1870 -0.0360 -0.0887
 1004MOL0     O35408  10.650   6.020   9.016 -0.4142  0.0285  0.3730
 1004MOL0     C35409  10.778   6.006   8.992  0.1884 -0.3104 -0.4959
 1004MOL0     C35410  10.821   5.913   8.891  0.2046 -0.3571 -0.2399
 1004MOL0     C35411  10.960   5.888   8.863  0.3809 -0.3806 -0.2219
 1004MOL0     C35412  11.053   5.968   8.919 -0.5065 -0.5659  0.3017
 1004MOL0     O35413  11.189   5.947   8.891 -0.6229  0.5229  0.7785
 1004MOL0     C35414  11.254   6.060   8.828  0.0182 -0.6028 -0.5008
 1004MOL0     C35415  11.377   6.030   8.742 -1.4759  0.1647  0.0808
 1004MOL0     C35416  11.493   5.945   8.804  0.9318  0.6717 -0.0902
 1004MOL0     C35417  11.457   5.794   8.806  0.0644  0.2471 -0.4226
 1004MOL0     C35418  11.579   5.708   8.836 -0.1031 -0.1544  0.3101
 1004MOL0     C35419  11.642   5.757   8.967 -0.2164 -0.7606  0.0743
 1004MOL0     C35420  11.718   5.646   9.036 -0.2722 -0.0849 -0.1223
 1004MOL0     C35421  11.636   5.546   9.117  0.2211  1.0789 -0.8028
 1004MOL0     N35422  11.526   5.477   9.047 -0.1181 -0.3551 -0.7605
 1004MOL0     C35423  11.397   5.527   9.024 -0.7654  0.9286  0.3026
 1004MOL0     C35424  11.322   5.421   8.970  0.3118 -0.5319 -0.3299
 1004MOL0     C35425  11.176   5.421   8.954 -0.2304  0.3071 -0.1935
 1004MOL0     C35426  11.139   5.506   8.826  0.4960  0.7221 -0.0253
 1004MOL0     C35427  11.179   5.448   8.687  0.3364 -1.3151 -0.8540
 1004MOL0     C35428  11.119   5.541   8.579  0.0698  0.6593 -0.2082
 1004MOL0     O35429  11.142   5.488   8.454 -0.0175 -0.0160 -0.1062
 1004MOL0     C35430  11.270   5.505   8.399  1.1298  0.4814 -0.8032
 1004MOL0     C35431  11.374   5.572   8.463  0.4279  0.2827  0.1209
 1004MOL0     C35432  11.495   5.583   8.407  0.5167 -0.1041  0.2380
 1004MOL0     C35433  11.517   5.534   8.274 -1.0637 -0.3969 -0.0024
 1004MOL0     C35434  11.646   5.544   8.216 -0.2020 -0.5104  0.1160
 1004MOL0     O35435  11.744   5.601   8.297 -0.6441 -0.2598  0.0636
 1004MOL0     C35436  11.871   5.627   8.254 -0.6626 -0.3613 -0.0760
 1004MOL0     C35437  11.892   5.724   8.157  0.4398 -0.3887  0.7117
 1004MOL0     C35438  12.017   5.758   8.111 -0.4749  0.3891  0.0139
 1004MOL0     C35439  12.126   5.698   8.179 -0.3326 -1.0734 -0.3771
 1004MOL0     O35440  12.253   5.742   8.130  0.3056 -0.5936 -0.9440
 1004MOL0     C35441  12.367   5.665   8.163 -0.7884  0.1155 -0.0255
 1004MOL0     C35442  12.506   5.723   8.112  0.0528 -0.7536  0.3503
 1004MOL0     C35443  12.520   5.713   7.956 -0.0449  0.9703 -0.8189
 1004MOL0     C35444  12.647   5.799   7.911  0.3618  0.2904 -0.9912
 1004MOL0     C35445  12.643   5.829   7.759 -0.0378  0.2262 -0.3762
 1004MOL0     C35446  12.773   5.886   7.699  0.0138  1.0941 -0.2679
 1004MOL0     C35447  12.838   6.008   7.765  0.0123 -0.2464 -1.1682
 1004MOL0     C35448  12.760   6.139   7.747 -0.0684 -0.1015  0.6391
 1004MOL0    Cl35449  12.611   6.142   7.831 -0.3617  0.1271  0.9116
 1004MOL0     C35450  12.108   5.607   8.283 -0.6535  0.5219  0.6324
 1004MOL0     C35451  11.982   5.568   8.321 -0.9290  0.2346  0.1134
 1004MOL0     O35452  11.665   5.516   8.099 -0.0949  0.0964  0.5223
 1004MOL0     C35453  11.420   5.462   8.211 -0.0703 -0.5775  0.0620
 1004MOL0     C35454  11.297   5.445   8.279 -0.0545 -0.7243 -0.0623
 1004MOL0     N35455  11.415   5.316   8.954  0.7551  0.1771 -0.1124
 1004MOL0     N35456  11.527   5.350   8.996 -0.3309  0.5273 -1.1258
 1004MOL0     C35457  11.010   6.070   9.008 -0.0688 -0.1587 -0.3254
 1004MOL0     C35458  10.873   6.088   9.055 -0.1342  0.9987 -1.3686
 1004MOL0     C35459  10.461   5.958   9.149 -0.5024  0.2937  0.7670
 1004MOL0     C35460  10.451   6.011   9.280  0.0845  0.2992 -0.3672
 1004MOL0     C35461  10.331   6.060   9.334 -0.6524 -0.0014 -0.5976
 1004MOL0     C35462  10.217   6.040   9.259  0.2637  0.7677 -0.6099
 1004MOL0     O35463  10.099   6.086   9.307  0.3463  0.5023 -0.5563
 1004MOL0     C35464  10.080   6.221   9.270  0.6480  0.2922  1.3181
 1004MOL0     C35465   9.928   6.248   9.294  0.0892  0.2867 -0.2288
 1004MOL0     C35466   9.836   6.141   9.223 -0.0648  0.3357 -0.3848
 1004MOL0     C35467   9.731   6.217   9.134  0.4128  0.5764 -0.3716
 1004MOL0     C35468   9.629   6.304   9.198 -0.1359  1.0557 -0.1768
 1004MOL0     C35469   9.536   6.347   9.265 -0.7895  0.4309 -0.1734
 1004MOL0     C35470  10.220   5.984   9.133 -0.2448  0.0383  0.3679
 1004MOL0     C35471  10.342   5.939   9.073  0.5119 -0.5516  0.1385
 1004MOL0     C35472  10.344   5.883   8.931 -0.5029  0.3713 -0.8515
 1004MOL0     H35473  10.748   5.845   8.849 -1.1096  1.0968 -0.3958
 1004MOL0     H35474  10.978   5.814   8.785  3.7961  1.4467 -1.3970
 1004MOL0     H35475  11.181   6.106   8.761  1.5546  1.8361 -0.6252
 1004MOL0     H35476  11.278   6.138   8.901 -2.6062  0.0559 -0.2293
 1004MOL0     H35477  11.423   6.124   8.709 -1.0191 -1.0923 -3.2117
 1004MOL0     H35478  11.354   5.979   8.648  0.4764 -2.4364  0.8959
 1004MOL0     H35479  11.509   5.985   8.905 -1.3606 -1.2850  1.1638
 1004MOL0     H35480  11.576   5.954   8.734  0.6844  0.0406 -0.4736
 1004MOL0     H35481  11.389   5.774   8.889 -0.1273  0.7566 -0.4543
 1004MOL0     H35482  11.405   5.763   8.715 -4.5238  0.3437  1.8637
 1004MOL0     H35483  11.544   5.605   8.842  1.9995 -0.8527  1.6809
 1004MOL0     H35484  11.652   5.721   8.754 -1.4883 -0.9196 -1.0979
 1004MOL0     H35485  11.700   5.841   8.926  0.9088 -2.2722 -1.6111
 1004MOL0     H35486  11.566   5.785   9.041  0.1687  4.8646 -1.1664
 1004MOL0     H35487  11.792   5.692   9.102 -1.1230  0.6552  0.3400
 1004MOL0     H35488  11.778   5.593   8.961  0.0539  0.8688 -0.5480
 1004MOL0     H35489  11.698   5.468   9.163 -2.0627 -1.5831 -1.9017
 1004MOL0     H35490  11.594   5.603   9.200 -0.6350  0.0162 -0.4847
 1004MOL0     H35491  11.346   5.616   9.058 -2.8489  0.2460 -0.8095
 1004MOL0     H35492  11.133   5.324   8.929 -0.8391  0.1914  1.2387
 1004MOL0     H35493  11.125   5.454   9.045  0.7805  1.4706 -0.0145
 1004MOL0     H35494  11.029   5.513   8.828  0.1070 -2.3619 -2.6103
 1004MOL0     H35495  11.171   5.610   8.837 -0.5534  0.9881  0.7241
 1004MOL0     H35496  11.139   5.346   8.685 -0.4006 -1.2213  2.7060
 1004MOL0     H35497  11.288   5.453   8.683  0.2779 -0.6149 -3.6365
 1004MOL0     H35498  11.146   5.647   8.583  0.6369  0.5203 -0.2716
 1004MOL0     H35499  11.011   5.528   8.592 -0.0346  1.5230 -0.1388
 1004MOL0     H35500  11.371   5.613   8.564 -0.5700 -1.3767  0.8134
 1004MOL0     H35501  11.573   5.635   8.461  1.3828  0.6595 -1.6616
 1004MOL0     H35502  11.812   5.777   8.106  1.7756 -0.5084 -1.6880
 1004MOL0     H35503  12.026   5.833   8.033 -0.7077  0.2089 -0.1894
 1004MOL0     H35504  12.370   5.660   8.272 -0.3282 -2.3937 -0.1012
 1004MOL0     H35505  12.356   5.560   8.134  3.8334 -0.9175  1.1544
 1004MOL0     H35506  12.515   5.816   8.169 -1.1141 -1.9330  2.5868
 1004MOL0     H35507  12.576   5.657   8.164 -3.3406 -2.1460  3.5346
 1004MOL0     H35508  12.539   5.611   7.922  2.0155  1.5644 -1.5933
 1004MOL0     H35509  12.438   5.762   7.903 -0.6871  0.5292 -0.2479
 1004MOL0     H35510  12.736   5.743   7.941  1.2545  1.8535 -0.5923
 1004MOL0     H35511  12.647   5.893   7.967 -0.0329  2.0382 -3.7287
 1004MOL0     H35512  12.565   5.903   7.736 -1.9149 -2.2168 -2.3651
 1004MOL0     H35513  12.620   5.738   7.703 -1.1679 -0.3100  0.8888
 1004MOL0     H35514  12.844   5.803   7.698 -2.5383 -1.2548  0.1229
 1004MOL0     H35515  12.751   5.907   7.593 -1.1709 -0.5913 -0.3950
 1004MOL0     H35516  12.942   6.018   7.733  0.2467  0.4849 -0.2055
 1004MOL0     H35517  12.848   5.987   7.871 -0.8743  2.2707 -0.5309
 1004MOL0     H35518  12.820   6.227   7.774 -1.5828  0.7050  1.5318
 1004MOL0     H35519  12.745   6.142   7.638 -0.6774 -4.3689  0.4239
 1004MOL0     H35520  12.197   5.561   8.326 -1.9979 -2.2536  0.6614
 1004MOL0     H35521  11.970   5.497   8.402 -2.2103 -0.9966 -1.0839
 1004MOL0     H35522  11.440   5.403   8.122  1.0085 -0.5225  0.2480
 1004MOL0     H35523  11.228   5.377   8.229  1.9844 -1.3938 -2.1316
 1004MOL0     H35524  11.073   6.151   9.045  1.3346 -1.6433  0.6959
 1004MOL0     H35525  10.833   6.160   9.125 -0.6737 -1.0157  0.4988
 1004MOL0     H35526  10.541   6.018   9.339  3.4269 -3.8461 -4.2316
 1004MOL0     H35527  10.325   6.090   9.438 -0.9471 -1.7556 -0.0724
 1004MOL0     H35528  10.104   6.247   9.167 -1.7621  1.8884  1.0892
 1004MOL0     H35529  10.135   6.291   9.334 -1.5019  0.0983  3.5428
 1004MOL0     H35530   9.901   6.349   9.263 -3.8481 -1.1054 -1.9381
 1004MOL0     H35531   9.905   6.248   9.401 -1.1194  1.5836 -0.4582
 1004MOL0     H35532   9.777   6.086   9.296 -0.7420  1.1107 -0.3302
 1004MOL0     H35533   9.895   6.079   9.155  1.0488 -1.6249  2.2074
 1004MOL0     H35534   9.791   6.280   9.068 -1.8387  0.5257 -2.6149
 1004MOL0     H35535   9.674   6.146   9.074  0.5166 -0.2643  0.4999
 1004MOL0     H35536   9.445   6.388   9.306 -0.7693  0.8804 -0.5659
 1004MOL0     H35537  10.127   5.983   9.077  0.1810  0.2636 -0.3579
 1004MOL0     H35538  10.337   5.959   8.854 -1.2586  2.1313  0.8706
 1004MOL0     H35539  10.425   5.811   8.916 -0.6989 -0.7776  2.6677
 1004MOL0     H35540  10.251   5.827   8.917 -0.6141  0.8237 -2.0161
 1005MOL0     O35541   2.354   7.202   0.572  0.1321  0.2624 -0.5832
 1005MOL0     C35542   2.440   7.147   0.631 -0.8474 -0.3636 -0.0058
 1005MOL0     O35543   2.569   7.193   0.642  0.0151 -0.0667  0.5284
 1005MOL0     C35544   2.612   7.312   0.585 -0.7174 -0.2521 -0.3557
 1005MOL0     C35545   2.741   7.316   0.546  0.5434  1.4578 -0.0260
 1005MOL0     C35546   2.809   7.423   0.500 -0.0163 -0.2834 -0.3460
 1005MOL0     C35547   2.738   7.537   0.472 -0.2279 -0.1354 -0.3779
 1005MOL0     O35548   2.794   7.659   0.428  0.1682 -0.1432 -0.3633
 1005MOL0     C35549   2.928   7.646   0.386  0.9768  0.3547 -0.9341
 1005MOL0     C35550   2.962   7.778   0.304 -0.4093 -0.1367  0.4403
 1005MOL0     C35551   3.089   7.771   0.229 -0.2261  0.5855 -0.5590
 1005MOL0     C35552   3.102   7.908   0.154 -0.5699  0.1766 -0.3299
 1005MOL0     C35553   3.238   7.919   0.081  0.0025 -1.0262  0.8369
 1005MOL0     C35554   3.265   8.054   0.016  0.3841 -0.3234  0.6234
 1005MOL0     C35555   3.398   8.058  -0.053 -0.5432 -0.6598  0.2841
 1005MOL0     C35556   3.417   8.205  -0.104 -0.5456 -0.1046 -0.1623
 1005MOL0     N35557   3.549   8.217  -0.165  0.5867 -0.2076  0.2318
 1005MOL0     C35558   3.565   8.276  -0.289 -0.4702 -0.5334  0.6432
 1005MOL0     C35559   3.704   8.286  -0.299  0.3762 -0.1168 -0.2625
 1005MOL0     C35560   3.786   8.363  -0.399  0.2847 -0.5074  0.1364
 1005MOL0     C35561   3.901   8.448  -0.342 -0.6594  0.6667  0.3014
 1005MOL0     C35562   4.022   8.427  -0.432 -0.5154 -0.1519  0.3408
 1005MOL0     C35563   4.120   8.528  -0.387  0.9206  0.0522  0.2327
 1005MOL0     O35564   4.167   8.472  -0.263  0.3743  0.0724 -0.0275
 1005MOL0     C35565   4.270   8.545  -0.203  0.9188 -0.4784  0.0519
 1005MOL0     C35566   4.263   8.682  -0.189 -0.8387  0.0251  0.0185
 1005MOL0     C35567   4.368   8.752  -0.126  0.1718 -0.8563  0.3509
 1005MOL0     C35568   4.480   8.687  -0.080 -0.4604 -0.0279  0.5794
 1005MOL0     C35569   4.593   8.760  -0.020 -0.2719 -0.3374  0.3940
 1005MOL0     O35570   4.586   8.897  -0.028 -0.1088  0.3193  0.5801
 1005MOL0     C35571   4.664   8.978   0.049  0.7344  0.2088  0.4174
 1005MOL0     C35572   4.605   9.094   0.094  0.6548 -0.3360 -0.7221
 1005MOL0     C35573   4.680   9.194   0.155  0.4974  0.0469 -0.5053
 1005MOL0     C35574   4.820   9.185   0.170  0.3755 -0.9743  0.9937
 1005MOL0     O35575   4.888   9.292   0.221 -1.2392 -0.5837 -0.6859
 1005MOL0     C35576   5.032   9.275   0.208 -0.0579  0.5464  0.4324
 1005MOL0     C35577   5.098   9.397   0.263 -0.2048  0.6857 -0.8118
 1005MOL0     C35578   5.243   9.376   0.291 -0.4271  0.4891 -0.4710
 1005MOL0     C35579   5.312   9.514   0.299 -0.1066 -0.2925  0.2661
 1005MOL0     C35580   5.467   9.498   0.329  0.3269 -0.1124  0.6840
 1005MOL0     C35581   5.542   9.503   0.200  0.6201 -0.1697  0.6542
 1005MOL0     C35582   5.692   9.490   0.218  0.2984 -0.6550 -0.1312
 1005MOL0     C35583   5.755   9.515   0.084  0.6984 -0.0498 -0.6931
 1005MOL0    Cl35584   5.938   9.510   0.074 -0.1919 -0.3067 -0.2623
 1005MOL0     C35585   4.883   9.075   0.104  0.4129  1.0928  0.7521
 1005MOL0     C35586   4.802   8.966   0.050 -0.0163 -0.4298 -0.9443
 1005MOL0     O35587   4.682   8.689   0.032  0.7238 -0.3522  0.2999
 1005MOL0     C35588   4.489   8.548  -0.095 -0.0346  0.1286 -0.2019
 1005MOL0     C35589   4.381   8.474  -0.148  0.0600  0.8433 -0.4396
 1005MOL0     N35590   3.767   8.212  -0.196  0.3516  0.3311 -0.2787
 1005MOL0     N35591   3.673   8.194  -0.110  0.2194 -0.4320  1.6318
 1005MOL0     C35592   2.605   7.547   0.514 -0.1190 -0.3894 -0.5933
 1005MOL0     C35593   2.543   7.435   0.567  0.4089 -0.2149  0.4332
 1005MOL0     C35594   2.412   7.029   0.705  0.0860  0.5680  0.5062
 1005MOL0     C35595   2.282   6.980   0.686 -0.1046  0.3111 -1.0838
 1005MOL0     C35596   2.251   6.859   0.750  0.4948 -0.0326  0.5422
 1005MOL0     C35597   2.338   6.790   0.830  0.2492 -0.0031  0.6683
 1005MOL0     O35598   2.270   6.689   0.900  0.2525 -0.1096 -0.6854
 1005MOL0     C35599   2.341   6.633   1.013 -0.3267  0.5164  0.2208
 1005MOL0     C35600   2.266   6.511   1.069  0.5223  0.2393  0.1493
 1005MOL0     C35601   2.130   6.556   1.132  0.4711 -0.3720  0.0490
 1005MOL0     C35602   2.093   6.459   1.257  0.3824 -0.2572 -1.9422
 1005MOL0     C35603   1.959   6.512   1.308 -1.6321  0.5359 -0.8798
 1005MOL0     C35604   1.855   6.557   1.344  0.0371  0.3804 -0.1263
 1005MOL0     C35605   2.466   6.846   0.851  0.0735  0.4308  0.8246
 1005MOL0     C35606   2.505   6.962   0.793  0.1376  0.5451  0.4406
 1005MOL0     C35607   2.638   7.019   0.843 -0.2035  0.0315 -0.0072
 1005MOL0     H35608   2.803   7.234   0.582  0.0617 -0.3489 -2.9594
 1005MOL0     H35609   2.913   7.407   0.477  0.2382  1.2291 -0.3361
 1005MOL0     H35610   2.993   7.626   0.472 -0.1537 -1.4333 -0.4430
 1005MOL0     H35611   2.935   7.554   0.327 -0.2608 -1.2847  1.3539
 1005MOL0     H35612   2.952   7.866   0.368 -0.7642 -0.3542  0.6853
 1005MOL0     H35613   2.883   7.801   0.231  0.5658  2.2792  0.0336
 1005MOL0     H35614   3.104   7.692   0.154 -0.0643  1.7331 -1.7746
 1005MOL0     H35615   3.174   7.751   0.295  0.9218  1.7376 -1.6098
 1005MOL0     H35616   3.013   7.906   0.090 -1.1230 -1.2929  0.4293
 1005MOL0     H35617   3.105   7.992   0.223  3.7305  0.1139 -0.1759
 1005MOL0     H35618   3.317   7.900   0.154  0.1768  0.5917  1.0998
 1005MOL0     H35619   3.241   7.836   0.009 -0.3716 -1.3009  1.1323
 1005MOL0     H35620   3.192   8.076  -0.062 -0.0678  0.6532  1.2963
 1005MOL0     H35621   3.268   8.134   0.090 -0.0597  0.4279 -0.1457
 1005MOL0     H35622   3.396   7.995  -0.142  1.3851 -0.3460 -0.0297
 1005MOL0     H35623   3.479   8.028   0.015 -0.2167  0.5029  0.4481
 1005MOL0     H35624   3.335   8.230  -0.172 -1.4233  2.0917  1.5629
 1005MOL0     H35625   3.395   8.286  -0.033  2.2998  0.2488  0.4470
 1005MOL0     H35626   3.502   8.330  -0.359  0.9590 -0.1876 -0.4493
 1005MOL0     H35627   3.825   8.288  -0.468  1.1842  1.1273 -1.2214
 1005MOL0     H35628   3.725   8.434  -0.457  3.7128  1.7643 -0.9998
 1005MOL0     H35629   3.866   8.551  -0.327  1.0265  1.3641 -0.2935
 1005MOL0     H35630   3.936   8.416  -0.244 -1.1715  3.1525  1.3834
 1005MOL0     H35631   3.996   8.443  -0.537  0.0486 -0.2522  0.1863
 1005MOL0     H35632   4.072   8.330  -0.419 -0.2986 -0.2997 -1.3650
 1005MOL0     H35633   4.084   8.630  -0.374  0.8542  0.1502 -0.6138
 1005MOL0     H35634   4.195   8.548  -0.464  0.1997  2.4822  0.0958
 1005MOL0     H35635   4.177   8.744  -0.214  0.6246  1.4092 -1.9736
 1005MOL0     H35636   4.351   8.857  -0.109  0.7385  0.0482 -3.5586
 1005MOL0     H35637   4.497   9.102   0.084  0.5038 -1.4360 -0.0784
 1005MOL0     H35638   4.627   9.280   0.194 -2.8194 -2.1520  0.2462
 1005MOL0     H35639   5.078   9.195   0.266 -1.6404  1.1457  2.6814
 1005MOL0     H35640   5.054   9.271   0.101  1.3023 -1.1894  0.7336
 1005MOL0     H35641   5.089   9.482   0.196  1.8945  1.6606  0.0497
 1005MOL0     H35642   5.055   9.420   0.361 -0.4216 -0.3916 -0.6317
 1005MOL0     H35643   5.262   9.322   0.384 -0.0004 -0.3305 -1.0192
 1005MOL0     H35644   5.295   9.323   0.210 -1.9370 -1.6873 -0.0966
 1005MOL0     H35645   5.266   9.573   0.379 -1.4271  2.7109 -2.4512
 1005MOL0     H35646   5.289   9.577   0.212 -4.6711 -1.4904  0.3465
 1005MOL0     H35647   5.494   9.400   0.368  2.0287  0.4976  1.1583
 1005MOL0     H35648   5.503   9.579   0.394 -1.8220  0.1812  1.5691
 1005MOL0     H35649   5.516   9.418   0.136 -0.7180  1.3068 -0.8713
 1005MOL0     H35650   5.512   9.593   0.146 -3.8465 -0.5745  2.0530
 1005MOL0     H35651   5.727   9.394   0.257 -1.7547 -0.2861  2.9733
 1005MOL0     H35652   5.721   9.558   0.299 -1.5712 -1.3787  1.2132
 1005MOL0     H35653   5.708   9.444   0.015 -1.1644  0.2514  0.2026
 1005MOL0     H35654   5.727   9.614   0.048  2.5194  0.2643 -1.3378
 1005MOL0     H35655   4.990   9.058   0.102  0.1458 -0.8510 -1.1133
 1005MOL0     H35656   4.849   8.882  -0.001  1.4491 -0.7242  0.7842
 1005MOL0     H35657   4.574   8.486  -0.067  1.0774  1.6264 -0.1633
 1005MOL0     H35658   4.382   8.368  -0.171 -0.6287 -0.1469  3.3265
 1005MOL0     H35659   2.553   7.642   0.506 -1.1480 -1.0343 -2.1756
 1005MOL0     H35660   2.442   7.454   0.605  0.9287  2.2269  0.7850
 1005MOL0     H35661   2.210   7.033   0.625  0.7798  1.3142 -1.2624
 1005MOL0     H35662   2.150   6.819   0.744  1.3635 -2.2704 -0.2512
 1005MOL0     H35663   2.369   6.701   1.094  0.3026 -1.7635  2.0406
 1005MOL0     H35664   2.433   6.587   0.974 -0.9687  1.6871 -2.9778
 1005MOL0     H35665   2.324   6.461   1.148  1.3492 -0.1581 -0.6922
 1005MOL0     H35666   2.260   6.422   1.006 -0.9092  1.0551 -0.9112
 1005MOL0     H35667   2.055   6.555   1.051  1.0109 -0.2394 -0.4562
 1005MOL0     H35668   2.140   6.661   1.158  1.0729 -0.3434 -0.2824
 1005MOL0     H35669   2.094   6.353   1.228  5.0672 -1.1904  0.6190
 1005MOL0     H35670   2.175   6.465   1.329 -0.6855 -1.0090 -0.6096
 1005MOL0     H35671   1.772   6.607   1.391  1.4305  3.7489 -0.9516
 1005MOL0     H35672   2.531   6.802   0.925 -0.0346 -3.6626 -1.2106
 1005MOL0     H35673   2.636   7.128   0.853 -0.3532 -0.0271  0.7122
 1005MOL0     H35674   2.665   6.983   0.943  0.9583  3.3177  0.9956
 1005MOL0     H35675   2.724   6.994   0.780  0.4737  1.3072  0.3876
 1006MOL0     O35676  10.850   6.791   4.268 -0.3949 -0.1634 -0.2871
 1006MOL0     C35677  10.811   6.903   4.249 -0.7030 -0.6740 -0.8608
 1006MOL0     O35678  10.889   7.012   4.259  0.5963 -0.0257  0.2732
 1006MOL0     C35679  11.028   7.004   4.223  0.4117  0.3090 -0.9000
 1006MOL0     C35680  11.115   6.993   4.330  0.0168 -0.9992 -0.2040
 1006MOL0     C35681  11.252   6.975   4.300 -0.1421 -0.3214 -0.5074
 1006MOL0     C35682  11.302   6.970   4.171  0.6755  0.7660 -0.9379
 1006MOL0     O35683  11.423   6.924   4.124 -0.2282  1.0030  0.0227
 1006MOL0     C35684  11.549   6.976   4.175 -0.2643 -0.3331 -0.5423
 1006MOL0     C35685  11.624   6.994   4.045 -0.4204 -0.2824 -0.3778
 1006MOL0     C35686  11.777   6.981   4.076  0.6837 -0.4013 -0.1505
 1006MOL0     C35687  11.852   6.949   3.958 -1.0374  0.0072 -0.7791
 1006MOL0     C35688  12.005   6.959   3.990 -0.1028  0.3274  0.6273
 1006MOL0     C35689  12.097   6.990   3.870  0.3301 -0.9551 -0.4453
 1006MOL0     C35690  12.250   6.979   3.899  0.0262 -0.3887  1.0483
 1006MOL0     C35691  12.290   6.837   3.942  0.4479 -0.4484 -0.3573
 1006MOL0     N35692  12.429   6.788   3.899 -0.3417  0.2512  0.5868
 1006MOL0     C35693  12.509   6.721   3.984  0.6176 -0.3132 -0.5457
 1006MOL0     C35694  12.632   6.730   3.926 -0.3350  0.1908  0.6575
 1006MOL0     C35695  12.754   6.675   3.987 -0.9597  0.6756 -0.0701
 1006MOL0     C35696  12.826   6.774   4.092 -0.2054 -1.5480  0.6654
 1006MOL0     C35697  12.901   6.894   4.030  0.5342  0.1723  0.4132
 1006MOL0     C35698  13.001   6.975   4.120  0.5337  0.9421 -0.2386
 1006MOL0     O35699  13.114   6.894   4.176  0.1060  0.1574 -0.3516
 1006MOL0     C35700  13.234   6.890   4.123  0.1176  0.7789 -0.0836
 1006MOL0     C35701  13.328   6.813   4.185  0.6542 -0.0673 -0.2374
 1006MOL0     C35702  13.456   6.799   4.133  1.4110  0.8554  0.4025
 1006MOL0     C35703  13.489   6.841   4.000 -0.2306  0.0172 -0.5016
 1006MOL0     C35704  13.624   6.826   3.937  0.2382 -0.4719  0.2506
 1006MOL0     O35705  13.715   6.742   3.998  0.4664  0.6391 -0.1690
 1006MOL0     C35706  13.838   6.716   3.941  0.3069 -0.4658  0.0185
 1006MOL0     C35707  13.946   6.802   3.937  0.1566 -0.1774  0.0990
 1006MOL0     C35708  14.062   6.765   3.873  0.3083  0.7391 -0.1207
 1006MOL0     C35709  14.073   6.642   3.807  1.0331 -0.1036 -0.1277
 1006MOL0     O35710  14.193   6.616   3.762  0.0996 -0.1807 -0.2804
 1006MOL0     C35711  14.282   6.551   3.849 -0.2483  0.6359 -0.6800
 1006MOL0     C35712  14.291   6.401   3.804 -0.8341 -0.4593 -0.9523
 1006MOL0     C35713  14.269   6.305   3.926 -0.4632 -1.0229 -0.9326
 1006MOL0     C35714  14.263   6.162   3.884 -0.3860 -0.0961  0.9319
 1006MOL0     C35715  14.288   6.058   3.993 -0.2823 -0.8511 -0.8593
 1006MOL0     C35716  14.290   5.916   3.942 -0.8381 -0.4585  0.4956
 1006MOL0     C35717  14.337   5.808   4.044 -0.3451  0.4606  0.3209
 1006MOL0     C35718  14.344   5.660   3.991  0.7880 -0.1445 -1.2406
 1006MOL0    Cl35719  14.344   5.532   4.107 -0.2581 -0.1944  0.5427
 1006MOL0     C35720  13.965   6.550   3.814 -0.2857 -0.5154  0.8530
 1006MOL0     C35721  13.848   6.594   3.876  0.2649 -0.0574 -1.2335
 1006MOL0     O35722  13.649   6.885   3.833  0.3223 -0.2002 -0.0005
 1006MOL0     C35723  13.391   6.907   3.928  1.1363  0.0525 -0.5433
 1006MOL0     C35724  13.264   6.937   3.986  0.5194  0.9656 -0.5039
 1006MOL0     N35725  12.622   6.824   3.821 -0.2305 -0.6557  0.2255
 1006MOL0     N35726  12.496   6.845   3.798  0.5679  1.0377  0.0590
 1006MOL0     C35727  11.210   6.986   4.070  0.5844 -0.0291  0.3372
 1006MOL0     C35728  11.069   6.993   4.095  0.3959 -0.0898  0.0545
 1006MOL0     C35729  10.671   6.931   4.210  0.2582  0.0763  0.1117
 1006MOL0     C35730  10.625   7.065   4.222  0.2153  0.0547  0.2117
 1006MOL0     C35731  10.498   7.097   4.182 -0.5413 -0.1418 -0.9983
 1006MOL0     C35732  10.408   7.002   4.139 -0.0496  0.8397  1.0382
 1006MOL0     O35733  10.291   7.059   4.090 -0.4079  0.5129  0.5396
 1006MOL0     C35734  10.185   6.961   4.070  0.7285 -0.3621  1.0919
 1006MOL0     C35735  10.059   7.043   4.082  0.8643 -0.7537  0.2775
 1006MOL0     C35736   9.931   6.964   4.057 -0.3165 -0.1871 -0.4797
 1006MOL0     C35737   9.798   7.037   4.076  0.8488 -0.5938 -0.6487
 1006MOL0     C35738   9.786   7.164   4.010 -0.6105 -0.2411 -0.2660
 1006MOL0     C35739   9.767   7.267   3.946  0.9155 -0.0166  0.5803
 1006MOL0     C35740  10.453   6.870   4.126 -0.4460  0.4661 -0.5523
 1006MOL0     C35741  10.582   6.831   4.156 -0.6769 -0.9116  0.4113
 1006MOL0     C35742  10.619   6.696   4.120  0.3084 -0.2451  0.1681
 1006MOL0     H35743  11.076   7.013   4.429  1.8574 -0.8327  0.5213
 1006MOL0     H35744  11.306   6.976   4.394 -1.4160  0.5337  0.2347
 1006MOL0     H35745  11.540   7.071   4.229 -0.3265  0.5424 -2.0142
 1006MOL0     H35746  11.601   6.898   4.231  4.5278  3.1757  0.6590
 1006MOL0     H35747  11.602   7.095   4.010  0.6992  0.9305  2.1734
 1006MOL0     H35748  11.597   6.912   3.977  2.2407 -1.8754  0.3408
 1006MOL0     H35749  11.771   6.901   4.151 -3.6171 -0.3597 -0.2116
 1006MOL0     H35750  11.818   7.069   4.127 -0.8784  0.7574 -0.8183
 1006MOL0     H35751  11.829   6.845   3.935  1.3723 -0.3837 -1.6418
 1006MOL0     H35752  11.829   7.013   3.872  0.1161 -0.1661 -1.2286
 1006MOL0     H35753  12.027   7.034   4.067 -0.5573  0.5724  0.5181
 1006MOL0     H35754  12.033   6.863   4.034  0.3640  0.6389  1.0132
 1006MOL0     H35755  12.061   6.921   3.793  0.9582 -0.3360 -1.3047
 1006MOL0     H35756  12.084   7.088   3.824 -1.7019 -1.4051 -0.9280
 1006MOL0     H35757  12.269   7.060   3.970 -0.2905 -0.0333  0.7364
 1006MOL0     H35758  12.323   7.006   3.823 -1.2456 -1.4663 -0.6302
 1006MOL0     H35759  12.298   6.837   4.051  2.0327  0.6653 -0.4449
 1006MOL0     H35760  12.210   6.769   3.910 -1.0258 -0.8178  3.5868
 1006MOL0     H35761  12.485   6.670   4.077 -1.2959  1.0639 -0.2271
 1006MOL0     H35762  12.722   6.589   4.048  0.5420 -1.4869 -2.1578
 1006MOL0     H35763  12.824   6.644   3.909 -4.1883  1.5371 -3.6161
 1006MOL0     H35764  12.749   6.805   4.163  1.1794 -0.5349  1.7846
 1006MOL0     H35765  12.906   6.718   4.142  1.2013 -0.2723 -0.0861
 1006MOL0     H35766  12.823   6.960   3.991 -0.5109 -1.4509 -0.3595
 1006MOL0     H35767  12.961   6.847   3.952  0.0608 -1.0791  0.7832
 1006MOL0     H35768  12.941   7.027   4.195 -1.3233  1.1849 -1.7871
 1006MOL0     H35769  13.045   7.056   4.060 -0.9636  1.2600 -0.9704
 1006MOL0     H35770  13.304   6.748   4.268  0.6010 -1.8980 -1.6445
 1006MOL0     H35771  13.529   6.735   4.183 -2.1045 -3.5376  0.5464
 1006MOL0     H35772  13.934   6.900   3.982  0.0250  1.2113 -2.7635
 1006MOL0     H35773  14.145   6.834   3.882  0.3488  0.7138 -0.2918
 1006MOL0     H35774  14.385   6.586   3.853 -0.2388  1.1771 -3.6008
 1006MOL0     H35775  14.239   6.559   3.949 -2.2960 -2.4911 -1.1490
 1006MOL0     H35776  14.212   6.384   3.730 -2.1940  0.1557  0.3119
 1006MOL0     H35777  14.390   6.377   3.764 -0.1105  0.3278  0.3357
 1006MOL0     H35778  14.346   6.311   4.004  0.3946 -4.8377 -1.3001
 1006MOL0     H35779  14.179   6.331   3.982 -0.3150 -1.1798 -0.6182
 1006MOL0     H35780  14.330   6.141   3.801 -0.9027 -0.5661  0.6242
 1006MOL0     H35781  14.162   6.145   3.844  0.5162 -2.3137 -0.5754
 1006MOL0     H35782  14.206   6.069   4.064 -0.5454 -0.5229 -1.2048
 1006MOL0     H35783  14.381   6.090   4.040 -1.2706  1.0756 -0.1049
 1006MOL0     H35784  14.192   5.883   3.908 -0.5015 -1.0158  0.0391
 1006MOL0     H35785  14.350   5.908   3.851 -1.8733  2.5085 -0.5378
 1006MOL0     H35786  14.270   5.800   4.131  0.5718  2.7601  1.3095
 1006MOL0     H35787  14.433   5.837   4.088  0.1611 -0.9556  0.1953
 1006MOL0     H35788  14.254   5.642   3.932  0.4026 -0.7748 -0.4839
 1006MOL0     H35789  14.430   5.650   3.925  1.8591  0.9214 -0.0487
 1006MOL0     H35790  13.977   6.453   3.767 -1.0410 -0.3916  0.3856
 1006MOL0     H35791  13.756   6.541   3.857  0.5927 -2.8274  3.4931
 1006MOL0     H35792  13.422   6.936   3.828  1.0417  0.2653 -0.5107
 1006MOL0     H35793  13.192   6.998   3.933  0.5784  0.4516 -1.1811
 1006MOL0     H35794  11.238   6.978   3.965 -0.3579 -0.3656  0.0967
 1006MOL0     H35795  11.006   6.989   4.008  2.0026 -2.5067 -1.0955
 1006MOL0     H35796  10.689   7.143   4.262  2.5850 -0.6060 -1.9747
 1006MOL0     H35797  10.490   7.204   4.201  0.7691  0.3443 -2.9234
 1006MOL0     H35798  10.183   6.888   4.152  3.1054 -1.4470  0.2848
 1006MOL0     H35799  10.194   6.916   3.971  1.7308  1.6632  0.2059
 1006MOL0     H35800  10.067   7.124   4.009 -0.7109  1.5120  2.4360
 1006MOL0     H35801  10.034   7.091   4.177 -2.6203 -0.4079 -0.6867
 1006MOL0     H35802   9.931   6.878   4.125 -2.3823  2.9214  4.0139
 1006MOL0     H35803   9.926   6.922   3.956  0.3950  0.1010 -0.6403
 1006MOL0     H35804   9.717   6.974   4.037  1.7123 -0.9107 -2.0013
 1006MOL0     H35805   9.786   7.056   4.183  0.6305 -1.2068 -0.5592
 1006MOL0     H35806   9.746   7.359   3.896  0.3407 -0.2536  0.3790
 1006MOL0     H35807  10.377   6.798   4.099  0.4381 -1.0948  0.9607
 1006MOL0     H35808  10.689   6.650   4.190  1.7940  1.1910 -0.3088
 1006MOL0     H35809  10.525   6.639   4.119  0.7987 -1.0994  0.7052
 1006MOL0     H35810  10.670   6.698   4.023  1.7687  2.5623  0.8881
 1007MOL0     O35811   9.669   5.565  10.740 -0.1539  0.0965 -0.0913
 1007MOL0     C35812   9.674   5.442  10.716 -0.1807 -0.6129  0.2433
 1007MOL0     O35813   9.745   5.346  10.786 -0.5795 -0.3229 -0.2812
 1007MOL0     C35814   9.877   5.361  10.795 -0.7782 -0.4372  0.4770
 1007MOL0     C35815   9.953   5.467  10.747  0.4468 -0.1231 -0.5338
 1007MOL0     C35816  10.092   5.467  10.753 -0.2635 -0.5620  0.3132
 1007MOL0     C35817  10.156   5.363  10.817 -0.6467  0.4596 -0.6927
 1007MOL0     O35818  10.293   5.379  10.836 -0.2572 -0.0896  0.1219
 1007MOL0     C35819  10.378   5.269  10.831 -0.0755 -0.3390  0.5725
 1007MOL0     C35820  10.525   5.315  10.815  0.6158  0.8915  0.2156
 1007MOL0     C35821  10.557   5.366  10.673 -0.2555 -1.0202 -0.0611
 1007MOL0     C35822  10.709   5.395  10.666 -0.2012  0.5681  0.3864
 1007MOL0     C35823  10.745   5.441  10.521  0.2450  0.4051  0.0090
 1007MOL0     C35824  10.894   5.478  10.504 -0.3650  0.8867  0.3813
 1007MOL0     C35825  10.934   5.520  10.361 -1.1337 -0.6386 -0.2362
 1007MOL0     C35826  10.956   5.396  10.274  0.6827  0.0130 -0.9413
 1007MOL0     N35827  11.081   5.317  10.292  0.4091 -0.1275  0.3223
 1007MOL0     C35828  11.198   5.351  10.359 -0.2925 -0.4164 -0.6619
 1007MOL0     C35829  11.274   5.240  10.350 -0.2226  0.2253 -0.3177
 1007MOL0     C35830  11.413   5.223  10.388  0.2965 -0.4214 -0.2142
 1007MOL0     C35831  11.512   5.292  10.292 -0.1824 -0.7352 -0.4357
 1007MOL0     C35832  11.645   5.222  10.316 -0.3115  0.3825 -0.5149
 1007MOL0     C35833  11.710   5.253  10.443 -0.3545  0.0529  0.0650
 1007MOL0     O35834  11.743   5.396  10.453 -0.3056 -0.6917  0.2440
 1007MOL0     C35835  11.865   5.433  10.416 -0.4171 -0.3041  0.4594
 1007MOL0     C35836  11.951   5.363  10.333 -1.4578  0.3349 -0.3859
 1007MOL0     C35837  12.064   5.432  10.281 -0.1248  0.3912  0.0092
 1007MOL0     C35838  12.103   5.556  10.332 -0.9287  0.4056 -1.4854
 1007MOL0     C35839  12.221   5.621  10.270 -0.7758  0.8039 -0.1014
 1007MOL0     O35840  12.235   5.755  10.286 -0.6690  0.4430 -0.7325
 1007MOL0     C35841  12.352   5.815  10.234  0.4165  0.6199  0.5579
 1007MOL0     C35842  12.362   5.876  10.107 -0.2691 -0.2004 -0.3748
 1007MOL0     C35843  12.485   5.917  10.063  0.2130  0.1361  0.6658
 1007MOL0     C35844  12.599   5.915  10.140 -0.0097  0.2654  0.8315
 1007MOL0     O35845  12.713   5.973  10.095  0.0602  0.0048  0.7915
 1007MOL0     C35846  12.839   5.914  10.135 -0.4672  0.3024 -0.5402
 1007MOL0     C35847  12.959   5.937  10.041 -0.2726  0.1038  0.1216
 1007MOL0     C35848  12.929   6.035   9.924 -0.5082  0.5020  0.2416
 1007MOL0     C35849  12.914   6.178   9.970 -0.1957  0.5628  0.5967
 1007MOL0     C35850  12.859   6.263   9.851  0.2491 -0.1827 -0.9707
 1007MOL0     C35851  12.863   6.413   9.876  0.0264  0.0072  0.1198
 1007MOL0     C35852  12.810   6.505   9.764 -0.0681  0.4156  0.6216
 1007MOL0     C35853  12.922   6.533   9.663 -0.2089 -0.0740  0.2110
 1007MOL0    Cl35854  12.858   6.620   9.524  0.2551 -0.6760  0.2045
 1007MOL0     C35855  12.585   5.860  10.266 -0.5084  0.9597  0.2760
 1007MOL0     C35856  12.470   5.805  10.312 -0.1735  0.6944 -0.5000
 1007MOL0     O35857  12.300   5.550  10.204  0.0309 -0.5504  0.7833
 1007MOL0     C35858  12.027   5.614  10.432 -0.3929  0.8632 -0.3433
 1007MOL0     C35859  11.908   5.553  10.473 -0.0909  0.1019  0.4488
 1007MOL0     N35860  11.207   5.147  10.273  0.0711 -0.4994  0.2101
 1007MOL0     N35861  11.090   5.196  10.243  0.8212  0.0178  0.3261
 1007MOL0     C35862  10.081   5.265  10.875 -0.0393 -0.3787 -0.3623
 1007MOL0     C35863   9.942   5.269  10.875 -0.3273 -0.2702 -0.8069
 1007MOL0     C35864   9.601   5.405  10.599 -0.2978  0.2755  0.0510
 1007MOL0     C35865   9.535   5.503  10.526 -0.1125 -0.2529  0.2428
 1007MOL0     C35866   9.485   5.478  10.396 -0.4438 -0.8592  0.1951
 1007MOL0     C35867   9.482   5.353  10.341  0.1562  0.4215  0.5283
 1007MOL0     O35868   9.421   5.337  10.218  0.0970  0.5435  0.7816
 1007MOL0     C35869   9.395   5.199  10.177  0.1490  0.2205 -0.2961
 1007MOL0     C35870   9.322   5.197  10.047  0.4117 -0.2612 -0.5908
 1007MOL0     C35871   9.332   5.063   9.974  0.5234 -0.6890  0.8646
 1007MOL0     C35872   9.221   5.056   9.871  0.8531  0.9508  0.0840
 1007MOL0     C35873   9.093   5.070   9.942  1.3956  0.7717  0.1086
 1007MOL0     C35874   8.981   5.089   9.994 -0.6492  0.0514  0.3716
 1007MOL0     C35875   9.546   5.249  10.411 -0.1703  0.5226 -0.4229
 1007MOL0     C35876   9.607   5.276  10.538 -0.4546 -0.0275  0.1025
 1007MOL0     C35877   9.695   5.164  10.589 -0.1683  0.5897 -0.2979
 1007MOL0     H35878   9.910   5.553  10.696 -0.7044 -1.2480 -1.5350
 1007MOL0     H35879  10.151   5.547  10.708 -1.9973  0.1401 -0.8268
 1007MOL0     H35880  10.374   5.194  10.910  1.1654 -2.7789 -1.5565
 1007MOL0     H35881  10.364   5.203  10.745 -2.3915 -0.3555  0.9171
 1007MOL0     H35882  10.596   5.237  10.840 -0.8651 -0.0257  1.7856
 1007MOL0     H35883  10.547   5.400  10.880  0.2295  2.8531 -2.0565
 1007MOL0     H35884  10.491   5.450  10.647 -1.5720 -2.2688 -0.9353
 1007MOL0     H35885  10.535   5.290  10.598  2.4277 -0.3904 -1.5977
 1007MOL0     H35886  10.734   5.474  10.737 -1.5714  0.7029  0.7453
 1007MOL0     H35887  10.774   5.312  10.696 -1.0746  0.5246  2.3034
 1007MOL0     H35888  10.712   5.363  10.451 -0.3528  1.5378 -0.9989
 1007MOL0     H35889  10.683   5.529  10.506 -0.3223  0.6079  2.9877
 1007MOL0     H35890  10.918   5.556  10.577 -0.4205 -0.2659  1.6666
 1007MOL0     H35891  10.958   5.391  10.519  3.7835  3.7330  0.9573
 1007MOL0     H35892  11.023   5.583  10.373 -1.8515  0.5497 -1.0769
 1007MOL0     H35893  10.857   5.586  10.323  0.2314  0.0334 -1.9769
 1007MOL0     H35894  10.862   5.342  10.281  0.2242  0.6629 -1.8902
 1007MOL0     H35895  10.953   5.441  10.174  1.2006  2.1605 -0.0550
 1007MOL0     H35896  11.216   5.447  10.407  0.3902 -0.3122 -1.1093
 1007MOL0     H35897  11.431   5.258  10.490 -0.4136  0.0619 -0.2517
 1007MOL0     H35898  11.438   5.117  10.394  0.7261 -0.2415  1.9032
 1007MOL0     H35899  11.477   5.277  10.190  2.4659 -0.6843 -1.4121
 1007MOL0     H35900  11.520   5.401  10.302 -0.2856 -0.7894  0.3691
 1007MOL0     H35901  11.716   5.253  10.238  1.2675 -2.0236 -0.1451
 1007MOL0     H35902  11.628   5.114  10.311 -1.0339  0.2158  2.9547
 1007MOL0     H35903  11.802   5.194  10.453 -1.8371 -2.6610 -1.1487
 1007MOL0     H35904  11.642   5.227  10.525 -2.9831  1.8194 -1.4205
 1007MOL0     H35905  11.939   5.259  10.303 -0.7618 -0.0165  0.4954
 1007MOL0     H35906  12.125   5.372  10.214 -1.6572 -2.5526  1.0410
 1007MOL0     H35907  12.283   5.871  10.033  2.1554  2.7920 -3.4833
 1007MOL0     H35908  12.492   5.959   9.963  1.2647  2.5638  1.6814
 1007MOL0     H35909  12.863   5.954  10.234 -0.6451  0.8054 -0.6983
 1007MOL0     H35910  12.813   5.809  10.153 -0.3366  0.5412  1.3452
 1007MOL0     H35911  13.043   5.990  10.087 -0.7445  2.7597 -1.7864
 1007MOL0     H35912  12.994   5.840  10.003 -2.4216 -1.3947  1.7524
 1007MOL0     H35913  13.009   6.033   9.849  1.1876  2.8743  1.8427
 1007MOL0     H35914  12.837   5.999   9.879  1.2986 -2.4363 -1.4445
 1007MOL0     H35915  13.005   6.216  10.018  1.6684 -3.3533  0.5550
 1007MOL0     H35916  12.839   6.190  10.049 -1.8242  2.2427 -1.0942
 1007MOL0     H35917  12.754   6.240   9.830  0.1166 -2.2705  1.6203
 1007MOL0     H35918  12.925   6.248   9.765 -2.3112  1.2529 -3.3354
 1007MOL0     H35919  12.805   6.445   9.963  0.5584 -2.1013  1.3299
 1007MOL0     H35920  12.963   6.446   9.903 -0.3909  1.5705 -0.1608
 1007MOL0     H35921  12.781   6.601   9.808  2.6158  1.9486 -0.7033
 1007MOL0     H35922  12.728   6.460   9.709 -0.9753  1.6989  0.8706
 1007MOL0     H35923  13.006   6.586   9.708  0.1653  0.8712 -1.4978
 1007MOL0     H35924  12.952   6.433   9.631 -0.1786 -0.3492  1.0699
 1007MOL0     H35925  12.667   5.863  10.338 -1.6031 -1.0838  1.7172
 1007MOL0     H35926  12.463   5.755  10.409  0.9734  0.0127 -0.7478
 1007MOL0     H35927  12.046   5.718  10.459  2.2822 -0.2662  2.7054
 1007MOL0     H35928  11.840   5.599  10.544 -0.5834  1.7988 -1.0454
 1007MOL0     H35929  10.134   5.183  10.923  1.0304 -0.3190 -1.3804
 1007MOL0     H35930   9.883   5.188  10.918 -0.7426 -0.4965 -1.7854
 1007MOL0     H35931   9.514   5.599  10.573 -1.2160  0.3382 -1.3708
 1007MOL0     H35932   9.427   5.552  10.342  0.9253  1.9004  2.2877
 1007MOL0     H35933   9.336   5.157  10.259 -0.2690 -1.6313 -1.4851
 1007MOL0     H35934   9.488   5.142  10.171  1.7772  2.3511  2.3559
 1007MOL0     H35935   9.365   5.273   9.980 -1.9335  0.6170 -1.1822
 1007MOL0     H35936   9.218   5.226  10.066  1.1037  0.8923  1.7839
 1007MOL0     H35937   9.320   4.984  10.049 -1.3369  0.2130  1.5722
 1007MOL0     H35938   9.428   5.040   9.925  0.6058 -3.2763  2.0793
 1007MOL0     H35939   9.238   5.140   9.803  1.1216 -0.0405 -1.1145
 1007MOL0     H35940   9.217   4.963   9.814  0.0369  0.2903  1.1964
 1007MOL0     H35941   8.899   5.118  10.057  0.2531  1.5480  0.9190
 1007MOL0     H35942   9.559   5.155  10.360 -0.9516 -1.2169  2.3606
 1007MOL0     H35943   9.682   5.134  10.694 -1.6284 -0.3476 -0.7183
 1007MOL0     H35944   9.668   5.071  10.539 -1.6631  0.0079  1.4558
 1007MOL0     H35945   9.800   5.167  10.558  0.5840  0.0461  2.0045
 1008MOL0     O35946   9.982  10.676  10.318  0.5140  0.4782 -0.2826
 1008MOL0     C35947   9.969  10.556  10.344  0.6176 -0.6920 -0.2479
 1008MOL0     O35948  10.072  10.475  10.392  0.3352 -0.0001  0.9281
 1008MOL0     C35949  10.196  10.526  10.375 -0.0918 -0.6673 -0.8429
 1008MOL0     C35950  10.262  10.526  10.260 -0.2230 -0.0301 -0.2499
 1008MOL0     C35951  10.393  10.574  10.250 -0.3949  0.1667  0.2339
 1008MOL0     C35952  10.449  10.644  10.356 -0.0831  0.3939 -0.1514
 1008MOL0     O35953  10.575  10.694  10.344  0.1662  0.0315 -0.3143
 1008MOL0     C35954  10.599  10.828  10.387  0.2109  0.1316 -0.2331
 1008MOL0     C35955  10.503  10.927  10.314  0.9933  0.7768 -0.2680
 1008MOL0     C35956  10.495  10.911  10.158 -0.7116  0.4339 -0.2073
 1008MOL0     C35957  10.433  11.032  10.093  0.0258 -0.1806 -0.6855
 1008MOL0     C35958  10.347  10.982   9.972 -0.1758 -1.0116 -0.7884
 1008MOL0     C35959  10.299  11.105   9.892 -0.2249  0.5275  0.4206
 1008MOL0     C35960  10.236  11.067   9.755  0.0065 -0.0993 -0.1839
 1008MOL0     C35961  10.127  11.173   9.710  0.2421  0.8454 -0.3897
 1008MOL0     N35962  10.185  11.306   9.685 -0.1880 -0.3659  0.0207
 1008MOL0     C35963  10.275  11.343   9.585  1.3943 -0.5483 -0.0632
 1008MOL0     C35964  10.284  11.475   9.598 -0.3339 -0.3162 -0.0072
 1008MOL0     C35965  10.362  11.576   9.522  0.3619 -0.2289  0.4812
 1008MOL0     C35966  10.506  11.548   9.548 -0.3374  0.1088  0.2028
 1008MOL0     C35967  10.591  11.674   9.521 -0.3658 -0.5921  0.6379
 1008MOL0     C35968  10.746  11.671   9.541  0.2920 -0.5691 -0.2077
 1008MOL0     O35969  10.796  11.590   9.435  0.0034 -0.3984 -0.4346
 1008MOL0     C35970  10.928  11.611   9.411  0.2920  0.8131 -1.5104
 1008MOL0     C35971  10.980  11.554   9.294 -0.5766 -0.1259 -0.2447
 1008MOL0     C35972  11.112  11.561   9.249 -0.1431  0.0379  0.2910
 1008MOL0     C35973  11.203  11.625   9.334 -0.6670  0.3115  0.4105
 1008MOL0     C35974  11.349  11.628   9.285  0.5057  0.1333 -0.0440
 1008MOL0     O35975  11.383  11.531   9.196  0.1679  0.0212  0.9151
 1008MOL0     C35976  11.516  11.490   9.176 -0.2909 -0.9755 -1.0615
 1008MOL0     C35977  11.621  11.580   9.179 -0.2794  0.4077  0.0919
 1008MOL0     C35978  11.748  11.530   9.133 -0.2243 -0.0346 -0.5067
 1008MOL0     C35979  11.769  11.398   9.111 -0.1729  0.4591 -0.0787
 1008MOL0     O35980  11.902  11.367   9.087  0.0656  0.1285 -0.1692
 1008MOL0     C35981  11.946  11.247   9.144  0.4073  0.8532  0.4794
 1008MOL0     C35982  12.070  11.213   9.062 -0.5591  0.5761 -1.0028
 1008MOL0     C35983  12.185  11.307   9.078  0.3497 -0.2535  0.8931
 1008MOL0     C35984  12.320  11.237   9.042  0.0326 -0.7881  0.5696
 1008MOL0     C35985  12.420  11.349   8.998 -0.0181  0.2278 -0.5666
 1008MOL0     C35986  12.561  11.285   9.009 -0.0055 -0.0910 -0.1144
 1008MOL0     C35987  12.670  11.386   8.985 -0.3492 -0.0497  0.1100
 1008MOL0     C35988  12.815  11.351   9.053  0.0347  0.9923 -0.7400
 1008MOL0    Cl35989  12.873  11.195   8.996  0.2691 -0.2646 -0.0524
 1008MOL0     C35990  11.661  11.311   9.121  0.1049  0.2544  0.1436
 1008MOL0     C35991  11.532  11.357   9.144  0.7433  0.7760  0.7105
 1008MOL0     O35992  11.419  11.707   9.346  0.1836 -0.3258 -0.1492
 1008MOL0     C35993  11.158  11.683   9.451  0.1451  0.6500  0.1911
 1008MOL0     C35994  11.026  11.666   9.495  0.2781 -0.5515 -0.3738
 1008MOL0     N35995  10.198  11.516   9.687 -0.1160  0.1275 -0.1012
 1008MOL0     N35996  10.133  11.420   9.735  0.0841 -0.9166 -0.2509
 1008MOL0     C35997  10.376  10.637  10.480 -1.0773  0.5951 -0.4306
 1008MOL0     C35998  10.252  10.579  10.491 -0.3742  0.1233  0.5069
 1008MOL0     C35999   9.825  10.492  10.336 -0.6534  0.3144  0.0332
 1008MOL0     C36000   9.801  10.359  10.379 -0.4370 -1.1587 -0.2467
 1008MOL0     C36001   9.677  10.298  10.389  0.5616 -1.0370  0.0817
 1008MOL0     C36002   9.562  10.371  10.362 -0.2406  0.2732  0.2770
 1008MOL0     O36003   9.441  10.299  10.369  0.2876 -0.3376 -1.7736
 1008MOL0     C36004   9.322  10.363  10.323 -0.3942  0.2024  0.3828
 1008MOL0     C36005   9.208  10.283  10.360  0.4826 -0.2231  0.4252
 1008MOL0     C36006   9.078  10.332  10.292  0.2391 -0.4601 -0.1554
 1008MOL0     C36007   8.999  10.412  10.398  0.4056  1.7020  0.1549
 1008MOL0     C36008   8.860  10.441  10.355  0.0712  0.4595  0.6556
 1008MOL0     C36009   8.739  10.453  10.318 -0.2210  0.5852  0.1155
 1008MOL0     C36010   9.574  10.502  10.314 -0.0226 -1.0172 -1.0231
 1008MOL0     C36011   9.699  10.566  10.311  0.5808 -0.0822  0.9046
 1008MOL0     C36012   9.707  10.710  10.258 -0.5176  0.3269 -1.2146
 1008MOL0     H36013  10.221  10.483  10.169 -1.1276  1.2652 -0.4723
 1008MOL0     H36014  10.460  10.563  10.165  0.3899 -0.5911  0.9344
 1008MOL0     H36015  10.569  10.831  10.492 -0.0146 -0.4645 -0.2741
 1008MOL0     H36016  10.707  10.842  10.378  0.1267  0.7589 -0.2590
 1008MOL0     H36017  10.541  11.026  10.339  2.2599  0.4513 -0.8279
 1008MOL0     H36018  10.409  10.904  10.366  1.5154  0.5686  0.6078
 1008MOL0     H36019  10.419  10.834  10.139 -0.4473  0.2357 -0.4907
 1008MOL0     H36020  10.585  10.880  10.103 -0.5255  1.4421 -0.4918
 1008MOL0     H36021  10.360  11.091  10.149  3.0739  1.6425  1.6816
 1008MOL0     H36022  10.505  11.111  10.072 -0.6151  0.6161  0.0637
 1008MOL0     H36023  10.410  10.927   9.901  2.8957  0.4991  0.5485
 1008MOL0     H36024  10.264  10.926  10.017 -0.6976  2.6723  3.6475
 1008MOL0     H36025  10.244  11.183   9.946  0.0872  0.8444  0.2864
 1008MOL0     H36026  10.390  11.163   9.876 -1.3296  2.8732  2.0928
 1008MOL0     H36027  10.199  10.964   9.762  3.1817 -1.5799 -2.5565
 1008MOL0     H36028  10.322  11.062   9.688 -0.2893  0.6745 -0.6252
 1008MOL0     H36029  10.077  11.122   9.626  1.9118  0.0007 -0.9081
 1008MOL0     H36030  10.053  11.170   9.790 -0.1813  1.8280 -0.7330
 1008MOL0     H36031  10.318  11.284   9.505 -0.3182  1.4643 -2.6479
 1008MOL0     H36032  10.344  11.564   9.414  0.4606 -1.3452  0.5812
 1008MOL0     H36033  10.339  11.680   9.544 -2.3148 -0.1687 -1.9190
 1008MOL0     H36034  10.531  11.521   9.651  1.2576 -0.5397 -0.3255
 1008MOL0     H36035  10.536  11.461   9.490  0.0851 -1.2979  2.4242
 1008MOL0     H36036  10.556  11.754   9.588  0.1252 -1.9610  2.6202
 1008MOL0     H36037  10.575  11.718   9.422  2.3722 -0.3335  0.2495
 1008MOL0     H36038  10.772  11.635   9.641 -0.4247  2.7334  1.3026
 1008MOL0     H36039  10.787  11.773   9.540 -0.1901 -0.3716 -0.1321
 1008MOL0     H36040  10.915  11.513   9.217 -2.8537  2.4494  0.1855
 1008MOL0     H36041  11.134  11.506   9.158 -2.1680 -0.5413  0.1028
 1008MOL0     H36042  11.612  11.687   9.197  0.1747  0.5048 -0.2401
 1008MOL0     H36043  11.835  11.595   9.130  1.1523 -1.8171 -2.1644
 1008MOL0     H36044  11.980  11.261   9.247  3.2717  0.0563 -0.2777
 1008MOL0     H36045  11.878  11.163   9.132  0.6567  0.0993  3.5298
 1008MOL0     H36046  12.109  11.114   9.090  3.5663  2.5476  1.0210
 1008MOL0     H36047  12.033  11.208   8.959 -1.6346 -2.3551 -0.5671
 1008MOL0     H36048  12.166  11.401   9.024 -1.1047 -0.4890  0.9573
 1008MOL0     H36049  12.196  11.332   9.184  0.5507 -2.1767  1.3615
 1008MOL0     H36050  12.310  11.163   8.962 -1.4078 -1.1853  1.0851
 1008MOL0     H36051  12.356  11.191   9.135  1.9960 -1.1126 -0.2985
 1008MOL0     H36052  12.401  11.437   9.060 -2.1196  1.1501 -2.3759
 1008MOL0     H36053  12.398  11.373   8.893 -1.7042  0.6717 -0.1304
 1008MOL0     H36054  12.568  11.270   9.117 -0.4830  2.5954  0.3591
 1008MOL0     H36055  12.577  11.191   8.956 -0.1132 -1.3513  1.9671
 1008MOL0     H36056  12.650  11.490   9.011 -1.8984  0.0392 -1.2879
 1008MOL0     H36057  12.682  11.389   8.877  0.2060  0.5002  0.1835
 1008MOL0     H36058  12.878  11.438   9.035 -0.2974  1.5388  0.5989
 1008MOL0     H36059  12.793  11.348   9.160 -0.4454  1.8001 -0.8066
 1008MOL0     H36060  11.679  11.205   9.108 -0.4449 -0.0700  1.8219
 1008MOL0     H36061  11.452  11.284   9.137  3.0218 -1.6833 -1.9286
 1008MOL0     H36062  11.225  11.736   9.518  0.1169  1.6177 -0.5251
 1008MOL0     H36063  11.004  11.710   9.592 -2.4146 -2.2268 -0.1142
 1008MOL0     H36064  10.416  10.672  10.575  0.4054 -0.9033 -0.4455
 1008MOL0     H36065  10.190  10.578  10.580 -0.0034 -1.4101  0.7893
 1008MOL0     H36066   9.881  10.288  10.397 -2.0850 -3.0206  0.0556
 1008MOL0     H36067   9.676  10.194  10.420  1.2085 -1.5670 -1.5601
 1008MOL0     H36068   9.337  10.380  10.216  0.1022  1.2803  0.6093
 1008MOL0     H36069   9.312  10.460  10.372  1.0285  0.6816 -0.2182
 1008MOL0     H36070   9.202  10.281  10.469 -0.1447 -1.9659  0.3781
 1008MOL0     H36071   9.225  10.179  10.331  0.4279 -0.4580  1.2099
 1008MOL0     H36072   9.026  10.245  10.252  0.4563  0.1125 -1.7836
 1008MOL0     H36073   9.097  10.398  10.206 -0.1476  0.8158  0.7050
 1008MOL0     H36074   8.988  10.349  10.487 -1.2667 -1.6075 -2.2037
 1008MOL0     H36075   9.058  10.501  10.424  2.1204  0.9199 -0.9015
 1008MOL0     H36076   8.642  10.463  10.274  1.7978  0.9180 -4.8671
 1008MOL0     H36077   9.486  10.560  10.286  1.0811  4.3275  4.4679
 1008MOL0     H36078   9.764  10.779  10.320 -0.5132 -1.6663  1.1242
 1008MOL0     H36079   9.735  10.699  10.153 -1.0261 -2.4092 -1.1230
 1008MOL0     H36080   9.606  10.751  10.260 -0.0866  1.4462  0.7457
 1009MOL0     O36081   4.031   6.004  10.761  0.4874  0.9440  0.7003
 1009MOL0     C36082   4.037   5.962  10.880  0.5324  0.1058  0.3124
 1009MOL0     O36083   4.124   5.872  10.932 -0.2786 -0.4965 -0.0748
 1009MOL0     C36084   4.221   5.814  10.853 -0.2484  0.2812 -0.0466
 1009MOL0     C36085   4.281   5.887  10.750 -0.3928  0.1076 -0.0326
 1009MOL0     C36086   4.385   5.831  10.668 -0.3542 -0.1886  0.1669
 1009MOL0     C36087   4.455   5.717  10.705  0.8686 -0.3093 -0.7193
 1009MOL0     O36088   4.556   5.680  10.624  0.2934  0.1535 -0.1533
 1009MOL0     C36089   4.647   5.591  10.694  0.1353 -0.7074  0.5106
 1009MOL0     C36090   4.779   5.606  10.637  0.0633 -0.2513 -0.1852
 1009MOL0     C36091   4.797   5.543  10.501 -0.0597 -0.4018 -0.4325
 1009MOL0     C36092   4.938   5.565  10.448 -0.3707 -0.6711 -0.5039
 1009MOL0     C36093   5.014   5.424  10.446  0.9048  0.0527  0.3467
 1009MOL0     C36094   5.158   5.464  10.414 -0.1495  0.4223 -0.1726
 1009MOL0     C36095   5.242   5.334  10.373 -0.3856 -0.0031 -0.2430
 1009MOL0     C36096   5.388   5.365  10.373 -0.3165  0.2193  0.6855
 1009MOL0     N36097   5.468   5.240  10.359 -0.4588 -0.3963  0.3869
 1009MOL0     C36098   5.499   5.173  10.245  0.1723  0.0420  0.3179
 1009MOL0     C36099   5.594   5.088  10.278 -0.3610  0.7370 -0.0627
 1009MOL0     C36100   5.665   4.999  10.184  0.0499 -0.0472 -0.1531
 1009MOL0     C36101   5.758   5.088  10.095 -0.5172  0.0085  0.8768
 1009MOL0     C36102   5.904   5.059  10.116 -0.9873 -0.5819  0.3341
 1009MOL0     C36103   5.999   5.185  10.096  0.1518 -0.2402 -0.8383
 1009MOL0     O36104   6.133   5.151  10.136 -0.2258  0.0133 -0.4654
 1009MOL0     C36105   6.240   5.221  10.087 -0.9547  0.2303 -0.6420
 1009MOL0     C36106   6.364   5.197  10.144 -1.5441 -0.0738  0.0901
 1009MOL0     C36107   6.480   5.260  10.101  0.3296  0.3156 -0.0830
 1009MOL0     C36108   6.476   5.346  10.001 -0.7258 -1.3648 -0.2833
 1009MOL0     C36109   6.594   5.417   9.965 -0.4786  0.1092 -0.3123
 1009MOL0     O36110   6.602   5.465   9.843 -0.2635 -0.1466 -0.7044
 1009MOL0     C36111   6.709   5.549   9.823  0.4024 -0.0331  0.0056
 1009MOL0     C36112   6.713   5.675   9.884  0.4526  0.5522 -1.0411
 1009MOL0     C36113   6.821   5.761   9.859 -0.2502 -0.2046 -0.2386
 1009MOL0     C36114   6.927   5.709   9.788 -0.0071  0.3316  0.4865
 1009MOL0     O36115   7.034   5.791   9.755  0.7642 -0.0897  0.0371
 1009MOL0     C36116   7.122   5.793   9.865 -0.6650  0.6233 -0.2765
 1009MOL0     C36117   7.239   5.889   9.840  0.3436  0.2437  0.3380
 1009MOL0     C36118   7.343   5.842   9.739 -0.6291  1.0146 -0.3858
 1009MOL0     C36119   7.472   5.911   9.743  0.0674 -0.2700  1.4105
 1009MOL0     C36120   7.588   5.814   9.696 -0.0456  0.0651 -0.7612
 1009MOL0     C36121   7.640   5.730   9.819  0.2674  0.5716  0.0483
 1009MOL0     C36122   7.760   5.655   9.799 -0.8475  0.2250 -0.2287
 1009MOL0     C36123   7.808   5.596   9.934  0.4520 -0.6446  0.2758
 1009MOL0    Cl36124   7.690   5.483  10.002 -0.2359  0.3714 -0.1946
 1009MOL0     C36125   6.920   5.591   9.725 -0.2154 -0.5663  0.4347
 1009MOL0     C36126   6.805   5.506   9.739  0.1313 -0.6104 -0.1186
 1009MOL0     O36127   6.689   5.417  10.049 -0.3664  0.5729 -0.6997
 1009MOL0     C36128   6.355   5.382   9.953  0.5896  0.0863  0.2466
 1009MOL0     C36129   6.228   5.320   9.995 -1.3021 -0.5363  0.4091
 1009MOL0     N36130   5.615   5.099  10.411 -0.0917  0.2104 -0.0401
 1009MOL0     N36131   5.541   5.186  10.465  0.2243 -0.2613  0.3811
 1009MOL0     C36132   4.403   5.653  10.822  0.2104 -0.1759  0.1417
 1009MOL0     C36133   4.291   5.695  10.896 -0.4320  0.4070  0.0692
 1009MOL0     C36134   3.929   6.028  10.969 -0.7502 -0.3108 -0.0152
 1009MOL0     C36135   3.819   6.091  10.896 -0.3378 -0.4181 -1.1776
 1009MOL0     C36136   3.701   6.140  10.963 -0.0753 -0.5687 -0.3662
 1009MOL0     C36137   3.691   6.124  11.102 -0.4714 -0.6685  0.4289
 1009MOL0     O36138   3.580   6.176  11.166  0.8190 -0.0548  0.1045
 1009MOL0     C36139   3.523   6.117  11.284  0.6600  0.0212 -0.2935
 1009MOL0     C36140   3.415   6.205  11.360 -0.0068  0.2359  0.9017
 1009MOL0     C36141   3.448   6.351  11.368 -0.1726  0.2130  0.0630
 1009MOL0     C36142   3.346   6.432  11.440  0.9816  0.1979 -0.3982
 1009MOL0     C36143   3.215   6.424  11.381 -0.2912  0.2765 -0.8090
 1009MOL0     C36144   3.109   6.423  11.323  0.7960 -0.3324 -0.2361
 1009MOL0     C36145   3.799   6.069  11.170  0.5034 -0.2292  0.7893
 1009MOL0     C36146   3.911   6.012  11.107 -0.7438  0.6132 -0.7884
 1009MOL0     C36147   4.013   5.928  11.188  0.5450  0.0000 -0.6527
 1009MOL0     H36148   4.263   5.992  10.732  0.9943 -0.0960 -3.2502
 1009MOL0     H36149   4.402   5.890  10.578 -3.2247 -2.4637 -2.0451
 1009MOL0     H36150   4.649   5.594  10.803 -0.5881 -2.7200  0.6164
 1009MOL0     H36151   4.604   5.492  10.680 -2.6241  0.7050 -2.2111
 1009MOL0     H36152   4.837   5.539  10.702 -3.1792 -2.2483  0.9200
 1009MOL0     H36153   4.815   5.709  10.629  0.9266 -0.3050  2.1512
 1009MOL0     H36154   4.724   5.599  10.442 -0.2548  0.9042  0.9988
 1009MOL0     H36155   4.784   5.435  10.515  2.4854 -0.3980  3.4609
 1009MOL0     H36156   4.924   5.616  10.352  0.4934  2.5651  0.9600
 1009MOL0     H36157   4.986   5.623  10.527  0.0688 -2.3472  0.5045
 1009MOL0     H36158   5.007   5.375  10.543  1.2401  0.2082  0.4519
 1009MOL0     H36159   4.970   5.358  10.370 -2.4037  1.6875  0.6488
 1009MOL0     H36160   5.167   5.548  10.345 -3.5881  0.5533 -0.6026
 1009MOL0     H36161   5.204   5.505  10.505 -0.9406 -0.8924  0.8588
 1009MOL0     H36162   5.199   5.295  10.280 -2.7241  1.0621  0.3167
 1009MOL0     H36163   5.225   5.263  10.454 -1.1746 -0.1425 -0.5217
 1009MOL0     H36164   5.422   5.439  10.301  2.4555  0.0972  1.7081
 1009MOL0     H36165   5.411   5.410  10.471  0.1017  1.2986  0.1058
 1009MOL0     H36166   5.447   5.192  10.152  0.9000 -0.3109 -0.1738
 1009MOL0     H36167   5.715   4.910  10.223  2.3084 -0.1636 -3.0048
 1009MOL0     H36168   5.588   4.965  10.114  0.2465 -1.2986  0.2065
 1009MOL0     H36169   5.741   5.076   9.987 -1.2221  0.4282  0.9334
 1009MOL0     H36170   5.746   5.193  10.122 -0.9537 -0.1600  1.3567
 1009MOL0     H36171   5.930   4.973  10.055  3.4237  1.9156 -1.7937
 1009MOL0     H36172   5.907   5.037  10.224 -2.2832  3.9734  1.5225
 1009MOL0     H36173   5.960   5.259  10.166 -0.7973 -0.9039 -0.6495
 1009MOL0     H36174   5.974   5.240  10.005  2.1819 -0.4966 -1.6111
 1009MOL0     H36175   6.373   5.115  10.214 -1.2292  1.3538  1.8046
 1009MOL0     H36176   6.574   5.233  10.149 -0.9713 -1.8724  1.4595
 1009MOL0     H36177   6.626   5.699   9.944 -0.3767 -1.9199 -1.1295
 1009MOL0     H36178   6.839   5.866   9.883  0.1833  0.1394 -1.9640
 1009MOL0     H36179   7.068   5.833   9.951 -2.7078 -2.3501 -0.0033
 1009MOL0     H36180   7.163   5.697   9.897  0.2512  1.3785  0.8628
 1009MOL0     H36181   7.194   5.986   9.815  0.4663  0.8667  2.3625
 1009MOL0     H36182   7.286   5.904   9.938 -0.1852  2.3989  0.3154
 1009MOL0     H36183   7.368   5.736   9.747 -1.5003  0.9221  1.9918
 1009MOL0     H36184   7.306   5.842   9.637 -0.2890 -1.7265 -0.5799
 1009MOL0     H36185   7.490   5.948   9.845  0.4339  0.9492  0.9173
 1009MOL0     H36186   7.467   6.000   9.679 -1.1253 -0.6059  1.0110
 1009MOL0     H36187   7.674   5.865   9.653  0.7679 -1.1137 -0.5953
 1009MOL0     H36188   7.556   5.743   9.619 -0.1207  0.5982 -1.2230
 1009MOL0     H36189   7.671   5.807   9.889 -1.7829  4.1269 -2.6165
 1009MOL0     H36190   7.566   5.667   9.870  1.7108  1.6798  3.8438
 1009MOL0     H36191   7.836   5.723   9.761 -1.1345 -0.5043 -2.2494
 1009MOL0     H36192   7.735   5.583   9.720 -2.1902 -0.1469  0.5005
 1009MOL0     H36193   7.903   5.543   9.926  1.0191  0.0905  1.7813
 1009MOL0     H36194   7.823   5.681  10.001 -3.0105 -1.4681  2.3462
 1009MOL0     H36195   7.002   5.554   9.664 -0.4554 -2.8354  1.4115
 1009MOL0     H36196   6.799   5.412   9.686 -0.2489 -0.7663  0.1945
 1009MOL0     H36197   6.334   5.458   9.879  0.0332  1.9095  2.1520
 1009MOL0     H36198   6.130   5.355   9.964 -1.6311 -0.1962  1.7817
 1009MOL0     H36199   4.448   5.559  10.852 -0.9277 -0.2046  1.9680
 1009MOL0     H36200   4.268   5.643  10.989 -2.4094 -0.3709 -0.7901
 1009MOL0     H36201   3.822   6.093  10.788 -0.3826 -2.3214 -1.2597
 1009MOL0     H36202   3.619   6.184  10.909 -0.4887  0.7003  1.2152
 1009MOL0     H36203   3.606   6.120  11.355  0.8167  2.9441 -0.4767
 1009MOL0     H36204   3.495   6.012  11.270 -0.1666  0.3629 -1.4071
 1009MOL0     H36205   3.399   6.160  11.458  1.3903 -4.5012 -0.7266
 1009MOL0     H36206   3.323   6.205  11.301 -1.3900  1.1620  2.9648
 1009MOL0     H36207   3.451   6.389  11.266  3.3359  2.6490  0.8831
 1009MOL0     H36208   3.549   6.369  11.406 -1.3058  1.6300  2.6451
 1009MOL0     H36209   3.343   6.392  11.542 -0.6290 -0.4884 -0.6998
 1009MOL0     H36210   3.377   6.537  11.446  3.3303 -0.4662  0.3514
 1009MOL0     H36211   3.007   6.422  11.291  0.5723  0.2923  0.4113
 1009MOL0     H36212   3.796   6.049  11.276 -1.9860  1.5054  1.1377
 1009MOL0     H36213   4.000   5.826  11.151 -1.2369  0.0171 -0.1557
 1009MOL0     H36214   4.116   5.961  11.173  1.0530 -1.5157 -0.6843
 1009MOL0     H36215   3.993   5.933  11.296  3.2211 -1.9475  0.0335
 1010MOL0     O36216   2.050   8.076   9.433 -0.9995  1.1845  0.0260
 1010MOL0     C36217   1.994   8.162   9.376 -0.0776 -1.0592  0.2532
 1010MOL0     O36218   2.046   8.260   9.302 -1.1599  0.6737 -0.1741
 1010MOL0     C36219   2.187   8.265   9.317 -0.8191 -0.5009  0.8899
 1010MOL0     C36220   2.281   8.223   9.222 -0.3955 -0.2496 -0.9745
 1010MOL0     C36221   2.423   8.236   9.240 -0.5200 -0.7136 -0.3633
 1010MOL0     C36222   2.475   8.295   9.358  0.4698  0.2772  0.5614
 1010MOL0     O36223   2.611   8.294   9.370 -0.5793 -1.0118 -0.6294
 1010MOL0     C36224   2.671   8.429   9.388  1.0557  1.0527 -0.3097
 1010MOL0     C36225   2.746   8.460   9.267 -1.3922  0.0962  0.3188
 1010MOL0     C36226   2.862   8.361   9.229  0.7753  0.1234  0.0005
 1010MOL0     C36227   2.915   8.385   9.090  0.3173  0.8376 -0.4258
 1010MOL0     C36228   3.038   8.291   9.063 -0.4016 -1.0050  0.2856
 1010MOL0     C36229   3.094   8.329   8.915  0.7538  0.9419 -0.1363
 1010MOL0     C36230   3.173   8.207   8.857  0.7587 -0.2757 -0.7524
 1010MOL0     C36231   3.295   8.159   8.935  0.1872 -0.0998  0.4208
 1010MOL0     N36232   3.408   8.255   8.942 -0.3057 -0.0081  0.7769
 1010MOL0     C36233   3.501   8.264   8.844  0.3041 -0.8340  1.7166
 1010MOL0     C36234   3.585   8.367   8.872 -0.4164 -0.6669  0.4218
 1010MOL0     C36235   3.703   8.413   8.794 -0.1618  0.1066  0.5165
 1010MOL0     C36236   3.781   8.522   8.861  0.3895 -0.1179 -0.5191
 1010MOL0     C36237   3.867   8.472   8.975  0.2131  0.0642  0.3024
 1010MOL0     C36238   3.930   8.579   9.067 -0.3049  0.3385  0.2741
 1010MOL0     O36239   3.998   8.672   8.981  0.4533  0.3608 -0.0145
 1010MOL0     C36240   4.134   8.656   8.948  1.2064 -0.9524 -0.0047
 1010MOL0     C36241   4.216   8.554   8.997 -0.0993 -0.5567  1.0919
 1010MOL0     C36242   4.351   8.557   8.949 -0.3184  0.2076 -0.7472
 1010MOL0     C36243   4.407   8.667   8.889 -0.4966 -1.1987  0.6485
 1010MOL0     C36244   4.552   8.677   8.852  0.2610  0.3964 -0.0582
 1010MOL0     O36245   4.585   8.736   8.737  0.4664  0.6509  1.0468
 1010MOL0     C36246   4.722   8.756   8.722  0.2684 -0.3058  0.4075
 1010MOL0     C36247   4.811   8.647   8.697  0.3001 -0.2112  0.6711
 1010MOL0     C36248   4.945   8.670   8.678 -0.5515  0.1029  0.9057
 1010MOL0     C36249   4.997   8.800   8.688  0.0720 -0.0779 -0.2973
 1010MOL0     O36250   5.139   8.810   8.692  0.3762 -0.7735  0.6153
 1010MOL0     C36251   5.184   8.931   8.745 -0.3048  0.2001 -0.2844
 1010MOL0     C36252   5.340   8.920   8.775 -0.2730 -0.6941  0.1411
 1010MOL0     C36253   5.371   8.817   8.878 -0.2502  0.2580 -0.0650
 1010MOL0     C36254   5.519   8.800   8.899 -0.2953 -0.7643 -0.1912
 1010MOL0     C36255   5.525   8.669   8.971  0.1427 -0.6304 -0.9222
 1010MOL0     C36256   5.666   8.611   9.009  0.3179 -0.1054  0.2348
 1010MOL0     C36257   5.752   8.569   8.881 -0.7587  0.2728  0.3078
 1010MOL0     C36258   5.894   8.605   8.910  0.5438 -0.3173  0.7612
 1010MOL0    Cl36259   5.989   8.477   8.808  0.0728 -0.1241 -0.2407
 1010MOL0     C36260   4.910   8.907   8.697 -0.0670  0.6070 -0.8351
 1010MOL0     C36261   4.769   8.887   8.715 -0.4432 -0.9424 -0.3843
 1010MOL0     O36262   4.631   8.624   8.936  1.1386  0.3333  0.1502
 1010MOL0     C36263   4.323   8.771   8.847  0.3069  0.3214 -1.1843
 1010MOL0     C36264   4.192   8.762   8.879  0.5251  0.0020  0.8873
 1010MOL0     N36265   3.548   8.413   9.004  0.4041 -0.1332 -0.1913
 1010MOL0     N36266   3.439   8.348   9.034 -0.4536  0.8115  0.3605
 1010MOL0     C36267   2.386   8.322   9.455 -0.3452  0.2335  0.5740
 1010MOL0     C36268   2.245   8.296   9.444 -0.5341 -0.7884  0.1806
 1010MOL0     C36269   1.847   8.157   9.397 -0.2811  0.0814 -0.0324
 1010MOL0     C36270   1.785   8.042   9.465 -0.1666  0.4735 -0.1929
 1010MOL0     C36271   1.651   8.014   9.483 -0.5338 -0.0600 -0.7344
 1010MOL0     C36272   1.562   8.122   9.454  0.4598  0.9617 -0.4425
 1010MOL0     O36273   1.428   8.126   9.471  0.3687 -0.4087  0.4880
 1010MOL0     C36274   1.360   8.026   9.555  0.6652 -1.0056  1.0044
 1010MOL0     C36275   1.218   8.068   9.611 -0.4464  0.2169  0.2909
 1010MOL0     C36276   1.131   8.144   9.508  0.6474  0.0730  0.5431
 1010MOL0     C36277   0.986   8.170   9.573  0.2694 -0.4147  0.2662
 1010MOL0     C36278   0.945   8.309   9.535 -0.1233  0.0592  0.3641
 1010MOL0     C36279   0.935   8.432   9.533 -0.6970 -0.9580 -0.0442
 1010MOL0     C36280   1.617   8.239   9.402  0.7285 -0.4044 -0.5124
 1010MOL0     C36281   1.754   8.256   9.364 -0.4707  0.6696  0.2406
 1010MOL0     C36282   1.787   8.371   9.275 -0.5921 -0.8266  0.2690
 1010MOL0     H36283   2.236   8.195   9.128 -6.2242 -1.3797  1.7017
 1010MOL0     H36284   2.492   8.202   9.163  0.1254 -1.5068  0.5498
 1010MOL0     H36285   2.592   8.502   9.404 -0.6323 -0.3595 -1.7653
 1010MOL0     H36286   2.733   8.422   9.478 -1.6666 -0.7665  1.6153
 1010MOL0     H36287   2.799   8.554   9.283 -0.5802 -0.1075 -0.9946
 1010MOL0     H36288   2.686   8.470   9.176  0.9256 -3.9359 -1.9604
 1010MOL0     H36289   2.828   8.257   9.235  0.1798  0.3911  1.3675
 1010MOL0     H36290   2.940   8.369   9.305 -2.7060 -2.8325  4.3649
 1010MOL0     H36291   2.832   8.385   9.019  0.5316 -0.5469 -0.6903
 1010MOL0     H36292   2.948   8.489   9.090 -2.3422  1.7742  0.4375
 1010MOL0     H36293   3.112   8.311   9.141 -3.4716  1.2353  2.8803
 1010MOL0     H36294   3.001   8.188   9.070 -1.8315 -0.4088  2.3115
 1010MOL0     H36295   3.008   8.337   8.849 -0.8646 -2.4065  1.3218
 1010MOL0     H36296   3.153   8.421   8.908 -1.6185  2.4606 -5.5892
 1010MOL0     H36297   3.201   8.226   8.753  1.0161 -0.3106 -0.6911
 1010MOL0     H36298   3.101   8.125   8.852  0.6796 -0.2552 -0.1287
 1010MOL0     H36299   3.262   8.128   9.035 -0.1546 -0.3340  0.2340
 1010MOL0     H36300   3.347   8.071   8.897  0.0887 -0.2521  0.6339
 1010MOL0     H36301   3.486   8.197   8.760  2.1586  1.8243 -0.9188
 1010MOL0     H36302   3.769   8.331   8.765 -1.9042 -0.9771 -0.6254
 1010MOL0     H36303   3.662   8.457   8.702  2.3941 -1.5830 -1.5866
 1010MOL0     H36304   3.852   8.578   8.801  1.8266 -0.9574  0.3354
 1010MOL0     H36305   3.707   8.587   8.909 -0.3263 -2.6696  2.1819
 1010MOL0     H36306   3.950   8.417   8.931  1.3961  2.7601 -1.0406
 1010MOL0     H36307   3.804   8.406   9.036 -0.1025  1.2655  1.3020
 1010MOL0     H36308   3.993   8.521   9.134  0.9311  1.1366 -0.1683
 1010MOL0     H36309   3.850   8.637   9.114  1.7190  2.6106  1.0740
 1010MOL0     H36310   4.180   8.473   9.059  1.3105 -2.4676 -0.4523
 1010MOL0     H36311   4.420   8.483   8.988 -3.5909 -0.8941  3.7035
 1010MOL0     H36312   4.772   8.546   8.698 -0.8547  0.0757 -2.7070
 1010MOL0     H36313   5.021   8.599   8.648  1.7338  2.8743 -0.3987
 1010MOL0     H36314   5.160   9.008   8.672  1.1303  1.0206  0.0701
 1010MOL0     H36315   5.137   8.948   8.842  0.1194  1.9796 -0.3602
 1010MOL0     H36316   5.394   8.920   8.680  1.6373  0.5802  1.1658
 1010MOL0     H36317   5.359   9.017   8.823 -0.8394 -0.5896  0.1688
 1010MOL0     H36318   5.326   8.828   8.976 -1.2250 -1.6231 -0.2476
 1010MOL0     H36319   5.336   8.719   8.844  2.4502 -0.1315 -2.1415
 1010MOL0     H36320   5.564   8.887   8.946  1.7094 -1.4546 -0.7281
 1010MOL0     H36321   5.575   8.804   8.806  0.0881  2.6853  0.0564
 1010MOL0     H36322   5.475   8.595   8.907  0.1954 -0.5125 -1.0993
 1010MOL0     H36323   5.467   8.684   9.063  0.1965  0.3447 -1.0457
 1010MOL0     H36324   5.713   8.685   9.075 -1.3548  1.9070 -0.7216
 1010MOL0     H36325   5.649   8.523   9.071 -2.1109  0.6225  0.6879
 1010MOL0     H36326   5.713   8.625   8.796  0.4736 -0.0968 -0.5308
 1010MOL0     H36327   5.740   8.464   8.853  0.7545  0.4365 -1.0604
 1010MOL0     H36328   5.922   8.702   8.867  1.5769 -1.0210 -0.2418
 1010MOL0     H36329   5.922   8.599   9.015 -0.5559  0.4020  1.1113
 1010MOL0     H36330   4.956   9.005   8.691  1.6897 -0.0892  0.2829
 1010MOL0     H36331   4.706   8.972   8.738  0.7087 -0.9579  3.4441
 1010MOL0     H36332   4.347   8.856   8.785  1.2846  1.0926  0.1889
 1010MOL0     H36333   4.126   8.832   8.829  0.7025 -1.8950 -2.3322
 1010MOL0     H36334   2.425   8.356   9.550  1.3262 -2.2369  0.8566
 1010MOL0     H36335   2.190   8.309   9.537 -0.0105 -1.8373  0.6446
 1010MOL0     H36336   1.852   7.963   9.500  1.7831  1.6468 -1.0879
 1010MOL0     H36337   1.629   7.916   9.524 -0.2969 -0.0107 -0.4831
 1010MOL0     H36338   1.428   7.991   9.632  0.5425 -1.1873  1.0311
 1010MOL0     H36339   1.335   7.945   9.486  1.5095 -0.1308 -0.3956
 1010MOL0     H36340   1.235   8.135   9.696 -1.8738 -0.5675  1.2444
 1010MOL0     H36341   1.168   7.980   9.651 -4.2569  1.6910 -0.8085
 1010MOL0     H36342   1.125   8.076   9.421  0.0693  0.8167 -0.0109
 1010MOL0     H36343   1.172   8.240   9.475  1.9190 -0.8681 -0.7716
 1010MOL0     H36344   0.913   8.095   9.543 -0.3996  1.2581 -2.6046
 1010MOL0     H36345   0.992   8.172   9.683 -0.3045  1.0166  0.3007
 1010MOL0     H36346   0.928   8.539   9.527 -2.0972 -1.0567 -0.5057
 1010MOL0     H36347   1.551   8.323   9.382  1.8401  0.5268 -0.3911
 1010MOL0     H36348   1.856   8.447   9.314  1.4809 -1.7659 -1.3916
 1010MOL0     H36349   1.817   8.337   9.176  1.0369 -0.6034  0.6526
 1010MOL0     H36350   1.691   8.423   9.271  0.4354  1.4209  2.2917
 1011MOL0     O36351   0.435   7.845   4.995  0.4304  0.1471  0.1023
 1011MOL0     C36352   0.501   7.742   5.020  0.4463 -1.0518  0.2258
 1011MOL0     O36353   0.444   7.627   5.053 -0.2967 -0.1305 -0.5250
 1011MOL0     C36354   0.306   7.603   5.078 -0.0246 -0.2839 -0.0726
 1011MOL0     C36355   0.265   7.551   5.203 -0.6187 -0.0700 -0.3666
 1011MOL0     C36356   0.131   7.519   5.225  0.1046  0.1849  1.0244
 1011MOL0     C36357   0.033   7.556   5.129  0.0525 -0.4064  0.4426
 1011MOL0     O36358  -0.101   7.535   5.162 -0.3140 -0.4756  0.1116
 1011MOL0     C36359  -0.207   7.620   5.113  0.4225 -0.0401 -0.4815
 1011MOL0     C36360  -0.297   7.539   5.028 -0.2368 -0.4151  0.1839
 1011MOL0     C36361  -0.355   7.424   5.091  1.0847  0.1710 -0.6716
 1011MOL0     C36362  -0.344   7.295   5.012  0.0071  0.6709  0.6291
 1011MOL0     C36363  -0.394   7.289   4.869  0.4713 -0.0720  0.8006
 1011MOL0     C36364  -0.427   7.150   4.800 -0.1846  0.1221 -0.3003
 1011MOL0     C36365  -0.305   7.062   4.812 -0.7304 -0.7964  0.2721
 1011MOL0     C36366  -0.206   7.081   4.700 -0.8129  0.2647  0.0741
 1011MOL0     N36367  -0.122   6.962   4.675  0.4671  0.1936  0.1103
 1011MOL0     C36368  -0.170   6.834   4.667  0.3393  1.2021 -0.3969
 1011MOL0     C36369  -0.061   6.764   4.635 -0.3674  0.7681  0.6610
 1011MOL0     C36370  -0.061   6.612   4.617 -0.1285 -0.0238  0.1966
 1011MOL0     C36371  -0.117   6.551   4.486  0.6184  0.3204  0.0984
 1011MOL0     C36372  -0.058   6.609   4.358 -0.2804  0.1208  0.4830
 1011MOL0     C36373   0.093   6.628   4.356  0.2515  0.1776  0.3560
 1011MOL0     O36374   0.174   6.522   4.411 -0.9427  0.2438  0.0965
 1011MOL0     C36375   0.312   6.529   4.369  0.7244  0.3844 -0.2360
 1011MOL0     C36376   0.383   6.646   4.329  0.9355  0.5481 -0.4231
 1011MOL0     C36377   0.517   6.644   4.289  0.2409 -0.4099  0.1715
 1011MOL0     C36378   0.593   6.528   4.292  0.4768 -0.5602  0.0858
 1011MOL0     C36379   0.732   6.512   4.232 -0.5477 -0.7687 -0.0170
 1011MOL0     O36380   0.771   6.382   4.207 -0.4079 -0.3369  0.2662
 1011MOL0     C36381   0.905   6.365   4.166  0.0274 -0.9870  0.4127
 1011MOL0     C36382   0.961   6.414   4.047 -0.0758 -0.8193  0.5369
 1011MOL0     C36383   1.095   6.383   4.020 -0.4698 -0.9336 -0.1530
 1011MOL0     C36384   1.178   6.316   4.102 -0.4624  0.3169 -0.9480
 1011MOL0     O36385   1.316   6.315   4.082  0.5354  0.3996  0.0968
 1011MOL0     C36386   1.396   6.282   4.198 -0.6370  0.3401  0.2772
 1011MOL0     C36387   1.420   6.131   4.227  1.2482  0.8707  0.5916
 1011MOL0     C36388   1.547   6.061   4.171  0.4595 -0.7610  0.3320
 1011MOL0     C36389   1.562   5.920   4.223 -0.0630 -0.6552  0.8224
 1011MOL0     C36390   1.686   5.864   4.156  0.7567 -0.3621  0.5037
 1011MOL0     C36391   1.700   5.714   4.180 -0.3118  0.0493 -0.4750
 1011MOL0     C36392   1.718   5.682   4.336 -0.1957  0.1837  0.0893
 1011MOL0     C36393   1.748   5.534   4.355  0.0887 -1.1546 -0.4513
 1011MOL0    Cl36394   1.914   5.504   4.307 -0.2590 -0.0177 -0.0984
 1011MOL0     C36395   1.116   6.259   4.215  0.6749  0.0324  0.4631
 1011MOL0     C36396   0.983   6.287   4.244  0.3055 -0.4050  0.6731
 1011MOL0     O36397   0.802   6.609   4.193  0.0400 -0.0850  0.2682
 1011MOL0     C36398   0.523   6.414   4.333 -0.5030  0.2609 -0.9724
 1011MOL0     C36399   0.387   6.413   4.369  0.4436 -0.9741 -0.5499
 1011MOL0     N36400   0.046   6.852   4.625  0.0845 -0.2340 -0.8799
 1011MOL0     N36401   0.010   6.975   4.648 -0.1679 -0.0325  0.1389
 1011MOL0     C36402   0.080   7.603   5.010 -0.1867  0.5248  0.2152
 1011MOL0     C36403   0.207   7.626   4.982  0.3563 -0.3430 -0.6799
 1011MOL0     C36404   0.646   7.737   4.997  0.1429 -0.7130  0.1715
 1011MOL0     C36405   0.698   7.839   4.917 -0.0867 -1.0689 -0.0594
 1011MOL0     C36406   0.829   7.856   4.878  0.3163  0.3965 -0.0501
 1011MOL0     C36407   0.917   7.757   4.919 -0.4710 -0.9423 -0.9472
 1011MOL0     O36408   1.049   7.755   4.903  0.2494 -0.0967 -0.0415
 1011MOL0     C36409   1.110   7.879   4.873  0.1373  0.2496 -0.5538
 1011MOL0     C36410   1.262   7.890   4.890  1.0904  0.5374  0.5261
 1011MOL0     C36411   1.295   7.887   5.036  0.1657 -0.8067 -0.8149
 1011MOL0     C36412   1.446   7.868   5.065 -0.9516  0.8149  0.1737
 1011MOL0     C36413   1.520   7.960   4.973 -0.4531  0.0839  0.6107
 1011MOL0     C36414   1.570   8.022   4.878 -0.4682  1.0395  0.4579
 1011MOL0     C36415   0.874   7.650   5.001 -0.4869 -0.5557 -0.4335
 1011MOL0     C36416   0.737   7.637   5.036 -0.1652 -0.4570 -0.1043
 1011MOL0     C36417   0.704   7.519   5.116  0.1747 -0.0082 -0.4214
 1011MOL0     H36418   0.339   7.527   5.278 -2.0028 -2.1526  0.4181
 1011MOL0     H36419   0.103   7.482   5.323 -0.7654 -2.3385 -0.1150
 1011MOL0     H36420  -0.263   7.665   5.196 -0.3033 -1.6561 -0.0524
 1011MOL0     H36421  -0.175   7.712   5.063 -0.1600 -0.4484 -1.6458
 1011MOL0     H36422  -0.230   7.508   4.947  0.0287  0.2843  0.1266
 1011MOL0     H36423  -0.377   7.594   4.978 -0.1853  0.9331  1.4873
 1011MOL0     H36424  -0.454   7.453   5.127  2.8057  1.5612  3.5342
 1011MOL0     H36425  -0.302   7.394   5.182 -0.8145 -0.3009  0.3388
 1011MOL0     H36426  -0.244   7.257   5.036 -1.0282  0.6931  6.7454
 1011MOL0     H36427  -0.410   7.232   5.072 -1.5127 -0.5938 -2.2307
 1011MOL0     H36428  -0.488   7.346   4.867 -0.0777 -0.7970 -3.4833
 1011MOL0     H36429  -0.318   7.341   4.811 -0.8488 -0.3481 -1.2960
 1011MOL0     H36430  -0.514   7.106   4.850  0.6461 -0.5725  0.5874
 1011MOL0     H36431  -0.458   7.155   4.696  0.1719  2.8820 -0.3374
 1011MOL0     H36432  -0.352   6.963   4.806  0.8477 -1.5043 -1.1249
 1011MOL0     H36433  -0.247   7.069   4.905  1.5168  2.6258 -1.1946
 1011MOL0     H36434  -0.266   7.100   4.611 -3.2713 -1.3863  1.2732
 1011MOL0     H36435  -0.135   7.163   4.716  2.6664 -2.6536  0.8615
 1011MOL0     H36436  -0.273   6.801   4.677 -0.0160  1.1243 -3.4088
 1011MOL0     H36437   0.038   6.573   4.642 -0.5305  1.0918  4.2235
 1011MOL0     H36438  -0.119   6.575   4.702 -0.1658  3.9008  2.1193
 1011MOL0     H36439  -0.097   6.445   4.472 -2.1201 -0.1862 -0.4904
 1011MOL0     H36440  -0.220   6.587   4.481  1.2148  1.9488 -2.1292
 1011MOL0     H36441  -0.096   6.711   4.358 -1.8253 -0.4272 -0.4511
 1011MOL0     H36442  -0.086   6.546   4.273 -4.2714 -0.1632  1.8091
 1011MOL0     H36443   0.112   6.716   4.417  1.6159  1.2309 -1.4760
 1011MOL0     H36444   0.118   6.641   4.250 -0.7084  1.4345  0.2519
 1011MOL0     H36445   0.322   6.735   4.326 -2.3405 -1.5049 -0.3966
 1011MOL0     H36446   0.559   6.731   4.240 -1.4427  0.8521  0.8595
 1011MOL0     H36447   0.904   6.467   3.972 -0.2321 -2.1729 -0.3277
 1011MOL0     H36448   1.132   6.405   3.920  0.1512  3.1293  0.7907
 1011MOL0     H36449   1.494   6.322   4.170 -1.6445  2.2457 -0.7441
 1011MOL0     H36450   1.350   6.336   4.281  0.2270  0.6327  0.5743
 1011MOL0     H36451   1.419   6.112   4.334  1.6560 -0.1506  0.4289
 1011MOL0     H36452   1.341   6.067   4.185  1.0402  1.5028 -0.0126
 1011MOL0     H36453   1.540   6.052   4.062 -0.2335  2.2698  0.0500
 1011MOL0     H36454   1.637   6.116   4.200 -0.1800  0.7878 -0.5288
 1011MOL0     H36455   1.484   5.853   4.188  1.0692 -1.6473  0.1016
 1011MOL0     H36456   1.579   5.933   4.330 -0.7223 -0.2394  0.8776
 1011MOL0     H36457   1.768   5.928   4.190 -0.9403  0.9152  2.4459
 1011MOL0     H36458   1.685   5.888   4.049  0.7868 -1.9461  0.1268
 1011MOL0     H36459   1.617   5.652   4.145  0.2732 -1.3986  0.5934
 1011MOL0     H36460   1.795   5.683   4.133 -0.4292 -0.4913 -0.3647
 1011MOL0     H36461   1.620   5.709   4.375 -0.3770  0.6908 -0.6965
 1011MOL0     H36462   1.788   5.748   4.389  1.2588 -1.9984  1.0149
 1011MOL0     H36463   1.730   5.531   4.463 -0.3926  1.0578 -0.4180
 1011MOL0     H36464   1.682   5.465   4.302 -1.6800  0.7604 -0.8605
 1011MOL0     H36465   1.165   6.200   4.292  2.9439  0.2514 -0.7428
 1011MOL0     H36466   0.938   6.253   4.337  1.9929 -0.5667  1.4648
 1011MOL0     H36467   0.577   6.323   4.353 -0.4270 -0.1742 -2.9912
 1011MOL0     H36468   0.329   6.326   4.399 -2.1175  0.9830  0.6198
 1011MOL0     H36469   0.014   7.631   4.928  0.4893 -2.6162 -1.5792
 1011MOL0     H36470   0.241   7.669   4.889  0.9411  0.0407 -0.2921
 1011MOL0     H36471   0.629   7.911   4.875  0.7289 -0.5111 -0.4514
 1011MOL0     H36472   0.853   7.939   4.813  1.3431 -1.7155 -2.5956
 1011MOL0     H36473   1.053   7.963   4.914  1.9685  1.5606 -0.5279
 1011MOL0     H36474   1.102   7.880   4.764  0.2529 -1.4854 -0.5969
 1011MOL0     H36475   1.302   7.982   4.848  3.3639 -0.7990 -0.4115
 1011MOL0     H36476   1.305   7.808   4.831  1.5621 -1.3552  3.3493
 1011MOL0     H36477   1.234   7.811   5.087  2.6524 -1.1714  1.8476
 1011MOL0     H36478   1.279   7.987   5.077 -1.1508 -1.6812  0.9737
 1011MOL0     H36479   1.455   7.889   5.172 -1.1992  1.5951  0.0505
 1011MOL0     H36480   1.469   7.762   5.050 -1.5369  0.9471 -2.0410
 1011MOL0     H36481   1.622   8.082   4.806  0.0366  0.3706  0.2547
 1011MOL0     H36482   0.936   7.561   5.013  1.1001  0.6304  0.7135
 1011MOL0     H36483   0.656   7.439   5.058 -1.1673  0.3654  0.1470
 1011MOL0     H36484   0.793   7.464   5.150 -0.2009 -1.8439 -2.2153
 1011MOL0     H36485   0.655   7.539   5.211  1.1175  1.3504 -0.1956
 1012MOL0     O36486   1.017   0.649  10.800 -0.3345 -0.5218  0.0113
 1012MOL0     C36487   1.001   0.662  10.679 -0.4256  0.4753 -0.3997
 1012MOL0     O36488   1.072   0.742  10.602 -0.7599  0.6536 -0.2768
 1012MOL0     C36489   1.209   0.756  10.641  1.3222 -0.7927  0.0057
 1012MOL0     C36490   1.293   0.649  10.669 -0.6433  0.1287  0.1669
 1012MOL0     C36491   1.424   0.675  10.721 -0.3731 -0.5094 -0.4608
 1012MOL0     C36492   1.473   0.808  10.727  0.1406  0.5136  0.4893
 1012MOL0     O36493   1.598   0.821  10.777  0.0299 -0.4121  0.1504
 1012MOL0     C36494   1.650   0.956  10.789  0.0626  1.0287  0.5792
 1012MOL0     C36495   1.799   0.961  10.827 -0.1044  0.1905 -0.3780
 1012MOL0     C36496   1.904   0.905  10.732  0.0884  0.1118 -0.2509
 1012MOL0     C36497   2.042   0.889  10.794  0.1291 -0.5353 -0.0922
 1012MOL0     C36498   2.132   0.826  10.684 -0.5035  0.7516  0.8242
 1012MOL0     C36499   2.268   0.767  10.716 -0.0565 -0.2817  0.3635
 1012MOL0     C36500   2.351   0.871  10.790  0.2770  0.1094  0.2338
 1012MOL0     C36501   2.424   0.821  10.921  0.0670 -0.1452 -0.7369
 1012MOL0     N36502   2.541   0.914  10.954  0.0030  1.0578  0.4857
 1012MOL0     C36503   2.534   1.047  10.995  0.0066  0.3846 -0.3907
 1012MOL0     C36504   2.653   1.106  10.966  0.0655  0.1501  0.5651
 1012MOL0     C36505   2.683   1.255  10.961  0.0690  0.6289 -0.1869
 1012MOL0     C36506   2.770   1.294  10.840  0.1342 -0.0877  0.1463
 1012MOL0     C36507   2.801   1.450  10.832  0.5414  0.3631 -0.8230
 1012MOL0     C36508   2.841   1.511  10.969  0.0889  0.0589 -1.0608
 1012MOL0     O36509   2.897   1.638  10.938 -0.5296 -0.0196 -0.4864
 1012MOL0     C36510   3.003   1.679  11.024 -0.5691  0.7876  0.8434
 1012MOL0     C36511   2.975   1.684  11.159 -0.1947 -0.0229 -0.3691
 1012MOL0     C36512   3.083   1.702  11.248  0.5405 -1.2768  0.5145
 1012MOL0     C36513   3.211   1.741  11.197  0.0805  0.7457 -0.0400
 1012MOL0     C36514   3.326   1.770  11.281 -0.0333 -0.6364 -0.5495
 1012MOL0     O36515   3.440   1.812  11.223 -0.3878  0.2830  0.1471
 1012MOL0     C36516   3.548   1.822  11.314  0.4435 -0.5370 -0.0823
 1012MOL0     C36517   3.628   1.934  11.326  0.6699 -0.3009 -0.6719
 1012MOL0     C36518   3.741   1.935  11.413  0.2956  0.7918  1.3210
 1012MOL0     C36519   3.774   1.823  11.483 -0.2762  0.6764 -0.1501
 1012MOL0     O36520   3.885   1.808  11.567 -0.0296 -0.1415  0.1174
 1012MOL0     C36521   3.884   1.904  11.667 -0.1862 -0.3052 -0.6861
 1012MOL0     C36522   3.961   1.857  11.784  1.0976  0.7673 -0.1843
 1012MOL0     C36523   4.107   1.828  11.748 -0.3649  0.4301 -1.0858
 1012MOL0     C36524   4.167   1.739  11.863 -0.0348  0.7002  0.4073
 1012MOL0     C36525   4.206   1.830  11.988  0.5942  0.7629 -0.1531
 1012MOL0     C36526   4.293   1.761  12.096  0.0759 -0.5584  0.8915
 1012MOL0     C36527   4.358   1.864  12.185 -0.5167 -0.5326 -0.8971
 1012MOL0     C36528   4.483   1.931  12.112  0.8515  1.6024 -0.7694
 1012MOL0    Cl36529   4.621   1.813  12.097  0.3960  0.0508 -0.3304
 1012MOL0     C36530   3.690   1.713  11.474  0.5504  0.1314 -0.3070
 1012MOL0     C36531   3.581   1.710  11.385 -0.2232  0.8665  0.5469
 1012MOL0     O36532   3.306   1.750  11.401 -0.0249  0.1605  0.0876
 1012MOL0     C36533   3.234   1.744  11.058  0.1803  0.6299  0.5913
 1012MOL0     C36534   3.125   1.713  10.966 -0.2565  0.1863  0.3651
 1012MOL0     N36535   2.734   1.010  10.911 -0.3602  0.2350 -0.0107
 1012MOL0     N36536   2.664   0.896  10.897 -0.2039  0.3738 -0.5485
 1012MOL0     C36537   1.383   0.916  10.698 -0.0844 -0.3895  0.4467
 1012MOL0     C36538   1.251   0.883  10.653  0.5606 -0.3212 -0.5547
 1012MOL0     C36539   0.879   0.600  10.615 -0.6900  0.1464  0.1938
 1012MOL0     C36540   0.855   0.611  10.477 -0.3896 -0.3424 -0.1014
 1012MOL0     C36541   0.741   0.558  10.416 -0.0602 -0.2277 -0.0897
 1012MOL0     C36542   0.647   0.480  10.478  0.0921  0.4193  0.0316
 1012MOL0     O36543   0.539   0.414  10.410  0.5942  0.2049 -0.0537
 1012MOL0     C36544   0.499   0.487  10.286  0.9296  0.3528  0.0888
 1012MOL0     C36545   0.367   0.428  10.231 -0.1782  0.5039 -0.5137
 1012MOL0     C36546   0.232   0.473  10.303  0.3288 -0.1932  0.4949
 1012MOL0     C36547   0.214   0.449  10.449  0.1838  0.7259  0.4761
 1012MOL0     C36548   0.087   0.510  10.492  0.8816 -0.0300  0.7646
 1012MOL0     C36549  -0.020   0.560  10.521 -0.3175  0.3419 -0.3800
 1012MOL0     C36550   0.672   0.451  10.619 -1.2245 -0.1696 -0.1860
 1012MOL0     C36551   0.792   0.511  10.681  0.1802  0.2709  0.3663
 1012MOL0     C36552   0.801   0.474  10.826  0.8067 -0.3374 -0.0404
 1012MOL0     H36553   1.276   0.541  10.671  2.7322 -0.4950  0.3659
 1012MOL0     H36554   1.498   0.603  10.754  0.5844 -0.3684 -2.1338
 1012MOL0     H36555   1.632   1.015  10.699 -2.9709  0.1141  0.4987
 1012MOL0     H36556   1.600   1.006  10.873  2.2624  1.4106  1.7416
 1012MOL0     H36557   1.807   0.910  10.924 -0.4807  1.6437  0.4498
 1012MOL0     H36558   1.831   1.064  10.840  2.1807 -0.1320 -2.5915
 1012MOL0     H36559   1.917   0.975  10.649 -2.3206 -2.6371 -3.1821
 1012MOL0     H36560   1.878   0.810  10.685  0.9748  0.6095 -1.8026
 1012MOL0     H36561   2.080   0.979  10.842 -0.4194  0.2330 -1.0743
 1012MOL0     H36562   2.032   0.818  10.878 -0.1088 -1.4278 -0.8549
 1012MOL0     H36563   2.072   0.751  10.630  1.2861  1.4185 -2.3802
 1012MOL0     H36564   2.155   0.887  10.596 -2.1431 -1.1327 -1.0346
 1012MOL0     H36565   2.261   0.673  10.771 -3.9272 -1.2761 -1.4591
 1012MOL0     H36566   2.314   0.731  10.624  0.6220 -1.3622  1.1018
 1012MOL0     H36567   2.286   0.952  10.823 -1.8602 -1.6619  0.5931
 1012MOL0     H36568   2.426   0.897  10.714 -2.6235 -1.8820 -3.6806
 1012MOL0     H36569   2.355   0.828  11.005 -0.5305 -0.4662 -1.1947
 1012MOL0     H36570   2.461   0.719  10.906 -0.9604 -0.6356 -0.0447
 1012MOL0     H36571   2.446   1.108  11.014  0.8456  1.6454 -0.4472
 1012MOL0     H36572   2.589   1.311  10.964  0.1227  0.9338 -2.5695
 1012MOL0     H36573   2.739   1.292  11.048  1.2938 -0.3843 -0.5160
 1012MOL0     H36574   2.856   1.226  10.837 -2.1342 -3.2414  0.9976
 1012MOL0     H36575   2.717   1.249  10.756 -0.9931 -0.6014  1.0976
 1012MOL0     H36576   2.709   1.503  10.804 -0.6552 -0.1676  1.8100
 1012MOL0     H36577   2.883   1.464  10.760  1.1671  1.0072 -0.0099
 1012MOL0     H36578   2.909   1.448  11.027  0.8612 -1.1729 -3.1745
 1012MOL0     H36579   2.756   1.537  11.033  0.3471  1.1543 -1.1457
 1012MOL0     H36580   2.878   1.664  11.202 -0.7152  2.5398 -0.1893
 1012MOL0     H36581   3.063   1.702  11.355  2.4040 -0.2836  0.9046
 1012MOL0     H36582   3.609   2.017  11.258 -4.9049 -1.3954 -0.9238
 1012MOL0     H36583   3.814   2.014  11.424 -0.2311  1.9131 -2.1588
 1012MOL0     H36584   3.925   2.000  11.633 -0.5263 -0.5073 -1.7121
 1012MOL0     H36585   3.783   1.920  11.705 -0.8897 -1.5050 -1.9275
 1012MOL0     H36586   3.946   1.923  11.869 -0.2421 -2.5034  2.3656
 1012MOL0     H36587   3.908   1.768  11.820  0.3759  0.1170 -2.6265
 1012MOL0     H36588   4.116   1.775  11.652 -0.0789 -0.4203 -0.6048
 1012MOL0     H36589   4.158   1.923  11.729 -1.3687  0.9468 -1.2041
 1012MOL0     H36590   4.258   1.696  11.820 -1.0513 -0.2922 -0.8158
 1012MOL0     H36591   4.109   1.653  11.897 -0.9056  1.4098  0.7800
 1012MOL0     H36592   4.117   1.861  12.044  0.0849 -1.4224  0.3370
 1012MOL0     H36593   4.251   1.924  11.956 -0.4242  0.9885 -0.9650
 1012MOL0     H36594   4.222   1.703  12.155  0.3240 -0.6334  1.1177
 1012MOL0     H36595   4.366   1.700  12.043 -2.5885 -1.4349 -2.0906
 1012MOL0     H36596   4.402   1.810  12.269 -0.7357  1.0608  0.2994
 1012MOL0     H36597   4.290   1.943  12.220 -1.7947 -1.8339 -0.3747
 1012MOL0     H36598   4.453   1.955  12.009  0.2577 -0.8966 -1.2679
 1012MOL0     H36599   4.499   2.022  12.169  1.2464  0.1448  1.5858
 1012MOL0     H36600   3.708   1.619  11.526 -0.4716 -0.3499 -0.7988
 1012MOL0     H36601   3.529   1.616  11.380  0.8034  0.2628  0.9158
 1012MOL0     H36602   3.338   1.743  11.026  0.5018 -2.4859  1.3535
 1012MOL0     H36603   3.144   1.693  10.861 -0.7571  1.9340 -0.0978
 1012MOL0     H36604   1.394   1.022  10.718 -0.0283 -0.4617  0.7988
 1012MOL0     H36605   1.178   0.960  10.633 -0.4962 -1.0812  0.2472
 1012MOL0     H36606   0.930   0.653  10.412  0.1141 -1.3127 -0.1771
 1012MOL0     H36607   0.731   0.593  10.314 -1.0093  1.9274  0.6848
 1012MOL0     H36608   0.573   0.470  10.207  1.9468  0.3986  1.0063
 1012MOL0     H36609   0.479   0.595  10.286 -0.9511  0.0882 -1.8933
 1012MOL0     H36610   0.366   0.319  10.239  0.9350  0.6093  2.4628
 1012MOL0     H36611   0.357   0.462  10.128  1.0419 -0.1565 -0.8754
 1012MOL0     H36612   0.148   0.431  10.247  0.1465  0.0921  0.5569
 1012MOL0     H36613   0.223   0.580  10.282 -0.8842 -0.5921 -1.2414
 1012MOL0     H36614   0.214   0.341  10.466  0.4830  0.3752 -1.5840
 1012MOL0     H36615   0.298   0.498  10.499  0.6825 -0.6415  1.0339
 1012MOL0     H36616  -0.118   0.600  10.537  0.4393  1.9314  0.5034
 1012MOL0     H36617   0.606   0.389  10.679 -0.3546  0.0463  1.0400
 1012MOL0     H36618   0.903   0.434  10.837  0.9730 -0.9332 -2.9173
 1012MOL0     H36619   0.790   0.561  10.890 -0.3255  0.0473 -0.7426
 1012MOL0     H36620   0.727   0.396  10.848 -0.7612  0.4885 -2.0784
 1013MOL0     O36621   3.186   4.133   2.265  0.7484  0.4490 -0.2553
 1013MOL0     C36622   3.158   4.170   2.376 -0.9171  0.1912 -0.2413
 1013MOL0     O36623   3.201   4.284   2.433  0.1851  0.4181  0.0691
 1013MOL0     C36624   3.266   4.387   2.372 -0.0537  0.1609  0.1103
 1013MOL0     C36625   3.229   4.521   2.400  0.4233 -0.5149 -0.4490
 1013MOL0     C36626   3.291   4.631   2.345 -0.7638 -0.1800  0.0695
 1013MOL0     C36627   3.400   4.615   2.262 -0.1200  0.2272  0.5667
 1013MOL0     O36628   3.453   4.730   2.203 -0.5568 -0.2077  0.7669
 1013MOL0     C36629   3.570   4.724   2.125 -0.6137  0.2978  0.0004
 1013MOL0     C36630   3.575   4.860   2.058 -1.0516  0.2740  0.2501
 1013MOL0     C36631   3.584   4.981   2.154 -0.5440  0.0627  0.2987
 1013MOL0     C36632   3.520   5.097   2.076  0.7339 -0.5792  0.9091
 1013MOL0     C36633   3.528   5.227   2.162 -0.2863  0.3872  0.4686
 1013MOL0     C36634   3.665   5.302   2.156  0.3325 -0.4455 -0.1595
 1013MOL0     C36635   3.690   5.350   2.003  0.2913 -0.4212 -0.9937
 1013MOL0     C36636   3.802   5.439   2.003 -1.6952 -0.4871  0.2423
 1013MOL0     N36637   3.822   5.486   1.866  0.6102  1.0181 -0.1976
 1013MOL0     C36638   3.747   5.574   1.804  0.1296 -0.1243  0.2032
 1013MOL0     C36639   3.808   5.597   1.687  0.0292 -0.6158 -0.1335
 1013MOL0     C36640   3.735   5.682   1.588  0.8132 -0.2356 -0.6069
 1013MOL0     C36641   3.638   5.606   1.496  0.1431 -0.5472 -0.6135
 1013MOL0     C36642   3.704   5.489   1.427  0.1219  0.8851 -0.4475
 1013MOL0     C36643   3.661   5.477   1.279  0.1327  0.6434  0.4268
 1013MOL0     O36644   3.525   5.461   1.254 -0.3457 -0.4105  0.0822
 1013MOL0     C36645   3.466   5.339   1.262 -0.1550  0.1893 -0.3362
 1013MOL0     C36646   3.345   5.325   1.203 -0.5351 -0.7664 -0.4826
 1013MOL0     C36647   3.271   5.201   1.210 -0.9976 -0.1108 -0.4190
 1013MOL0     C36648   3.331   5.094   1.272 -0.0096  0.6790 -0.0431
 1013MOL0     C36649   3.268   4.962   1.284 -0.2440  0.3140  0.6618
 1013MOL0     O36650   3.149   4.933   1.222 -0.7138 -0.2489 -0.6360
 1013MOL0     C36651   3.094   4.801   1.216  0.5721 -0.4448 -0.5399
 1013MOL0     C36652   3.157   4.699   1.146 -0.3987 -0.2769 -0.0365
 1013MOL0     C36653   3.086   4.579   1.148 -0.0981  0.1616 -0.2484
 1013MOL0     C36654   2.967   4.558   1.208 -0.5643 -0.2351 -0.4870
 1013MOL0     O36655   2.916   4.431   1.203 -0.7077 -0.2368  0.2365
 1013MOL0     C36656   2.777   4.399   1.210  0.4114  0.3526  0.3672
 1013MOL0     C36657   2.679   4.424   1.091  0.3624 -0.6891 -0.0306
 1013MOL0     C36658   2.526   4.406   1.127 -0.0359  0.5878 -0.2832
 1013MOL0     C36659   2.494   4.257   1.138  0.3036  0.4269  0.1543
 1013MOL0     C36660   2.343   4.231   1.126 -0.0725 -0.1824  0.0828
 1013MOL0     C36661   2.268   4.301   1.232 -0.0608  0.0450  0.4284
 1013MOL0     C36662   2.125   4.247   1.236 -0.0172  0.5305  0.0569
 1013MOL0     C36663   2.039   4.324   1.332  0.5152  0.1613  0.3754
 1013MOL0    Cl36664   1.993   4.472   1.250 -0.1987  0.0042 -0.5833
 1013MOL0     C36665   2.912   4.665   1.278  0.2120  0.5134  1.0442
 1013MOL0     C36666   2.968   4.788   1.275  0.0414 -0.3345 -0.2846
 1013MOL0     O36667   3.334   4.877   1.343 -0.6153 -0.5059 -0.0373
 1013MOL0     C36668   3.456   5.115   1.338  1.1091  1.1487 -0.1626
 1013MOL0     C36669   3.526   5.233   1.331  1.4031 -0.1546 -0.2566
 1013MOL0     N36670   3.920   5.524   1.681 -0.5438 -0.7713  0.1531
 1013MOL0     N36671   3.942   5.462   1.793  0.8034 -0.5380 -0.3082
 1013MOL0     C36672   3.446   4.483   2.231  0.3661 -0.1285  0.2522
 1013MOL0     C36673   3.385   4.375   2.292  0.1640  0.3135 -0.7004
 1013MOL0     C36674   3.076   4.080   2.462  0.2741  1.0261  0.2500
 1013MOL0     C36675   3.088   4.089   2.603  1.2580 -0.8348  0.1158
 1013MOL0     C36676   3.018   4.007   2.690  0.0052 -0.2591  0.1834
 1013MOL0     C36677   2.938   3.902   2.637  1.4509 -0.2227  0.3915
 1013MOL0     O36678   2.883   3.817   2.736  0.0779 -0.3461 -0.0677
 1013MOL0     C36679   2.809   3.702   2.686 -1.1145 -1.1265 -0.4975
 1013MOL0     C36680   2.747   3.616   2.799  0.4355 -0.0646  0.8607
 1013MOL0     C36681   2.666   3.486   2.749  0.0015 -0.7857 -0.3895
 1013MOL0     C36682   2.586   3.432   2.869 -0.6003  0.1614  0.5232
 1013MOL0     C36683   2.507   3.309   2.843  0.6427 -0.1548  0.3117
 1013MOL0     C36684   2.436   3.208   2.836 -0.2052 -0.3511  0.2245
 1013MOL0     C36685   2.917   3.900   2.500 -0.5323  0.7164  0.1588
 1013MOL0     C36686   2.997   3.973   2.407 -0.1015  0.0009  0.1409
 1013MOL0     C36687   2.974   3.947   2.256  0.3619  0.1757 -0.4491
 1013MOL0     H36688   3.139   4.537   2.459  1.2407  0.8821  0.4654
 1013MOL0     H36689   3.253   4.728   2.377 -1.5736 -0.3775 -0.2738
 1013MOL0     H36690   3.656   4.715   2.193 -1.1643 -0.4984  0.6143
 1013MOL0     H36691   3.562   4.646   2.049  1.7986  0.9213 -0.9642
 1013MOL0     H36692   3.506   4.882   1.976  0.4735  1.7524 -0.6864
 1013MOL0     H36693   3.672   4.859   2.008 -2.0701 -2.5861 -1.9676
 1013MOL0     H36694   3.691   4.999   2.168 -0.0440  0.2170 -2.9250
 1013MOL0     H36695   3.529   4.969   2.247  2.3209 -1.0265  1.9712
 1013MOL0     H36696   3.567   5.116   1.980  0.0397  2.0952  1.0341
 1013MOL0     H36697   3.416   5.082   2.043  0.6338 -1.1825  1.4704
 1013MOL0     H36698   3.466   5.310   2.128 -1.7724  0.4439  3.0538
 1013MOL0     H36699   3.498   5.203   2.264 -1.1603  0.5041  0.2411
 1013MOL0     H36700   3.653   5.383   2.229 -0.2491 -0.4573 -0.2357
 1013MOL0     H36701   3.756   5.250   2.188  2.4617  3.1853  0.2601
 1013MOL0     H36702   3.603   5.401   1.962  0.6076  2.8972  1.9987
 1013MOL0     H36703   3.714   5.269   1.933  0.7613  0.0664 -1.4108
 1013MOL0     H36704   3.777   5.517   2.075 -0.3342 -1.0062  1.3176
 1013MOL0     H36705   3.890   5.390   2.046  0.4875  2.0285 -1.0479
 1013MOL0     H36706   3.663   5.632   1.842  1.1713  0.6409  1.4199
 1013MOL0     H36707   3.676   5.753   1.647 -0.9985 -0.7092 -1.7627
 1013MOL0     H36708   3.821   5.718   1.530  1.4265 -2.5058 -1.1749
 1013MOL0     H36709   3.551   5.575   1.555  0.0250 -3.0446 -1.9618
 1013MOL0     H36710   3.601   5.682   1.426  0.0823 -0.7888 -0.8430
 1013MOL0     H36711   3.671   5.402   1.486 -0.1839  1.1547 -0.2166
 1013MOL0     H36712   3.811   5.470   1.438 -0.5229 -3.0274  0.8638
 1013MOL0     H36713   3.705   5.388   1.235 -2.6951  0.1102 -1.5765
 1013MOL0     H36714   3.700   5.564   1.226 -0.0838  0.9212  0.7143
 1013MOL0     H36715   3.301   5.414   1.160  1.4876  0.6111  0.1769
 1013MOL0     H36716   3.177   5.200   1.155  0.1913  0.7531 -2.6379
 1013MOL0     H36717   3.256   4.715   1.106  0.5273  2.1040  2.8038
 1013MOL0     H36718   3.116   4.497   1.084 -0.2335 -0.1759  0.1163
 1013MOL0     H36719   2.753   4.296   1.238 -3.2648  1.2676  1.1635
 1013MOL0     H36720   2.740   4.453   1.297  1.1101  0.7267  0.4346
 1013MOL0     H36721   2.693   4.528   1.057  1.5252 -0.2877  1.5362
 1013MOL0     H36722   2.711   4.353   1.014  1.2516  0.5096 -0.8148
 1013MOL0     H36723   2.505   4.460   1.220 -0.1671  1.0943 -0.6102
 1013MOL0     H36724   2.462   4.425   1.041 -0.7655 -2.8213 -0.6658
 1013MOL0     H36725   2.531   4.207   1.228  1.6606 -1.1197 -1.2002
 1013MOL0     H36726   2.550   4.208   1.058  0.8166  2.7091 -0.9687
 1013MOL0     H36727   2.332   4.123   1.129 -1.5230 -0.0784 -0.8071
 1013MOL0     H36728   2.305   4.268   1.031 -1.7630 -2.2240 -0.0805
 1013MOL0     H36729   2.321   4.292   1.327 -1.1895  0.7880  1.1471
 1013MOL0     H36730   2.274   4.406   1.204  2.5366 -0.3712 -0.9388
 1013MOL0     H36731   2.128   4.143   1.269  2.2078  0.3772 -0.4161
 1013MOL0     H36732   2.080   4.245   1.136  1.8384  2.3399 -0.9012
 1013MOL0     H36733   1.943   4.278   1.360  0.6644 -0.5293 -0.1893
 1013MOL0     H36734   2.079   4.359   1.427  1.0964 -3.0370  1.4409
 1013MOL0     H36735   2.808   4.657   1.308 -0.0701  0.6564  0.1411
 1013MOL0     H36736   2.931   4.877   1.325  1.3316  0.2132 -0.2683
 1013MOL0     H36737   3.509   5.035   1.390  0.1846  1.9606  2.1311
 1013MOL0     H36738   3.627   5.244   1.370  2.1096  1.4880 -2.3550
 1013MOL0     H36739   3.534   4.461   2.171 -0.8460 -2.4249 -0.8085
 1013MOL0     H36740   3.414   4.273   2.270  0.6436  0.3029 -0.0316
 1013MOL0     H36741   3.159   4.160   2.643 -0.9138  1.7025 -0.3015
 1013MOL0     H36742   3.037   4.010   2.797  0.0085 -4.3598  0.4789
 1013MOL0     H36743   2.875   3.643   2.623  0.1835  0.0150 -0.2559
 1013MOL0     H36744   2.722   3.746   2.635 -1.0870  4.1033  3.0773
 1013MOL0     H36745   2.684   3.673   2.868 -0.8966 -0.3021 -0.1115
 1013MOL0     H36746   2.825   3.576   2.864  2.6187  0.3339 -1.3909
 1013MOL0     H36747   2.736   3.420   2.698  0.3609 -0.5175 -0.2485
 1013MOL0     H36748   2.604   3.527   2.670  2.4859 -0.0010 -2.0569
 1013MOL0     H36749   2.660   3.406   2.946  0.4141 -0.1429 -0.5231
 1013MOL0     H36750   2.521   3.513   2.905 -0.5161  0.0768  0.8707
 1013MOL0     H36751   2.370   3.124   2.833  0.4794 -0.8742 -0.5627
 1013MOL0     H36752   2.846   3.833   2.451 -1.9251  1.8596  0.5317
 1013MOL0     H36753   3.069   3.942   2.202  0.2826  0.3313 -0.6029
 1013MOL0     H36754   2.920   3.856   2.231  1.6881 -0.2248 -1.9705
 1013MOL0     H36755   2.921   4.035   2.217  2.1017  0.4319 -2.3767
 1014MOL0     O36756   0.494   9.992   8.556  0.0276 -0.0014 -0.7755
 1014MOL0     C36757   0.538   9.963   8.665 -0.3679  0.4639  0.0588
 1014MOL0     O36758   0.665   9.913   8.694  0.2884  0.5334 -0.3589
 1014MOL0     C36759   0.755   9.887   8.597  0.5018 -0.2845  0.1152
 1014MOL0     C36760   0.783   9.991   8.504  0.6311 -0.7952  0.3711
 1014MOL0     C36761   0.903   9.992   8.429 -0.3621 -0.2343  0.1741
 1014MOL0     C36762   0.997   9.888   8.439 -0.6133 -0.8893 -0.8657
 1014MOL0     O36763   1.115   9.881   8.369 -0.7160  0.6602  0.7870
 1014MOL0     C36764   1.127   9.970   8.255 -0.2598  0.9466 -0.4658
 1014MOL0     C36765   1.256   9.921   8.186 -0.0905 -0.3766 -0.2958
 1014MOL0     C36766   1.385   9.953   8.262  0.4190 -0.0105  0.9872
 1014MOL0     C36767   1.427   9.825   8.344 -0.3585  0.5172  0.1523
 1014MOL0     C36768   1.581   9.832   8.385 -0.0899  0.5082  0.4845
 1014MOL0     C36769   1.613   9.709   8.472  1.0710  0.2719  0.2862
 1014MOL0     C36770   1.762   9.727   8.526  0.2310  0.8911  0.8223
 1014MOL0     C36771   1.790   9.613   8.620  0.6258 -0.4877 -0.5525
 1014MOL0     N36772   1.936   9.581   8.623 -0.2355 -0.5102  0.1855
 1014MOL0     C36773   1.985   9.452   8.643 -0.0617 -0.1176 -0.0479
 1014MOL0     C36774   2.117   9.469   8.612 -0.0111  0.7221 -0.1156
 1014MOL0     C36775   2.212   9.358   8.586 -0.5057 -1.0245 -0.3742
 1014MOL0     C36776   2.352   9.368   8.644 -0.2868  0.1765 -0.2198
 1014MOL0     C36777   2.464   9.383   8.531 -0.4206 -0.7318 -1.0038
 1014MOL0     C36778   2.611   9.377   8.585  0.6891  0.5805 -0.6844
 1014MOL0     O36779   2.697   9.449   8.492 -0.3506  0.3274  0.2753
 1014MOL0     C36780   2.814   9.485   8.553 -0.5890  0.3153 -0.2151
 1014MOL0     C36781   2.932   9.410   8.551  0.2892  0.5508 -0.5706
 1014MOL0     C36782   3.047   9.464   8.604  0.6567 -0.1665  0.7706
 1014MOL0     C36783   3.054   9.593   8.655 -0.1049  1.1182 -0.1685
 1014MOL0     C36784   3.178   9.645   8.719  0.2776  0.8914 -0.0891
 1014MOL0     O36785   3.192   9.778   8.731  0.8684 -0.1457  0.2299
 1014MOL0     C36786   3.320   9.818   8.724  0.3452 -0.4514  0.6694
 1014MOL0     C36787   3.402   9.814   8.838 -0.5660 -0.2646 -0.0984
 1014MOL0     C36788   3.538   9.858   8.835  0.1844 -0.1130 -0.6271
 1014MOL0     C36789   3.579   9.920   8.716 -0.0713  0.2892  0.1978
 1014MOL0     O36790   3.711   9.969   8.723  0.1361 -0.4072  1.0177
 1014MOL0     C36791   3.767  10.036   8.601 -0.6899 -0.1732 -0.2150
 1014MOL0     C36792   3.901  10.091   8.640  0.4577  0.7335 -0.3597
 1014MOL0     C36793   3.942  10.164   8.520 -0.2920  0.2050  0.0008
 1014MOL0     C36794   4.093  10.215   8.533  0.2301 -0.1118 -0.7319
 1014MOL0     C36795   4.140  10.252   8.394 -1.2698 -0.5776  0.1556
 1014MOL0     C36796   4.284  10.294   8.414 -0.0063  1.4953  0.6598
 1014MOL0     C36797   4.375  10.290   8.286 -0.4048 -0.2657 -0.9529
 1014MOL0     C36798   4.353  10.407   8.190  0.5502 -0.1225 -0.4283
 1014MOL0    Cl36799   4.457  10.413   8.052  0.1258  0.3379 -0.0840
 1014MOL0     C36800   3.483   9.938   8.610  0.0247  0.0471 -0.2930
 1014MOL0     C36801   3.361   9.879   8.610 -0.4599 -0.8694 -0.3513
 1014MOL0     O36802   3.265   9.560   8.752 -0.6214 -0.6846 -0.2408
 1014MOL0     C36803   2.933   9.668   8.658  0.3259 -0.5019  0.4925
 1014MOL0     C36804   2.805   9.613   8.618 -0.1307  1.2309  0.1069
 1014MOL0     N36805   2.141   9.604   8.582  0.6840 -0.5696 -0.1778
 1014MOL0     N36806   2.038   9.674   8.585 -0.0337  0.6521 -0.1051
 1014MOL0     C36807   0.961   9.785   8.521 -1.0532 -1.0521  0.2258
 1014MOL0     C36808   0.847   9.790   8.597 -0.2808 -0.3617  0.2349
 1014MOL0     C36809   0.445   9.969   8.789 -0.5929  0.2292 -0.1065
 1014MOL0     C36810   0.491  10.008   8.919 -0.0982  0.3183 -0.7105
 1014MOL0     C36811   0.405  10.017   9.028  0.2956 -0.9444 -0.3204
 1014MOL0     C36812   0.265   9.991   9.014  0.3985  0.2892 -1.0584
 1014MOL0     O36813   0.193   9.988   9.131  0.3164  0.1210 -0.1641
 1014MOL0     C36814   0.052   9.951   9.121 -0.3014  0.4495 -0.0880
 1014MOL0     C36815  -0.012   9.969   9.264 -1.0402 -0.4001 -0.3264
 1014MOL0     C36816  -0.154   9.935   9.277  0.6972 -0.3221  0.5929
 1014MOL0     C36817  -0.188   9.939   9.427  0.2064  0.4077 -0.0409
 1014MOL0     C36818  -0.325   9.917   9.465  0.2802 -0.7274  1.0449
 1014MOL0     C36819  -0.440   9.921   9.496 -0.5176  0.6083 -1.0648
 1014MOL0     C36820   0.211   9.971   8.882  0.2040 -0.0407 -0.7117
 1014MOL0     C36821   0.301   9.963   8.777 -0.0382 -0.4532  0.7959
 1014MOL0     C36822   0.228   9.944   8.644 -0.2295 -0.1318  0.4867
 1014MOL0     H36823   0.722  10.080   8.514  1.7998  0.3910 -2.1360
 1014MOL0     H36824   0.915  10.074   8.359  0.2296 -0.6351 -0.1990
 1014MOL0     H36825   1.039   9.965   8.190 -0.9040 -1.7201  0.4941
 1014MOL0     H36826   1.137  10.073   8.290 -3.3270  1.9574 -2.1005
 1014MOL0     H36827   1.263   9.976   8.091  0.1095 -0.9217 -0.6015
 1014MOL0     H36828   1.237   9.815   8.164  0.0567 -0.4142 -0.2410
 1014MOL0     H36829   1.373  10.040   8.327 -0.3643  2.4196 -2.1675
 1014MOL0     H36830   1.467   9.989   8.200 -0.5867  1.4313  0.4574
 1014MOL0     H36831   1.372   9.803   8.436 -1.3718 -1.8614 -0.9400
 1014MOL0     H36832   1.408   9.735   8.285  2.1204  0.1222 -0.1369
 1014MOL0     H36833   1.655   9.832   8.305  1.4218  0.9142  1.8188
 1014MOL0     H36834   1.599   9.922   8.444 -1.6999  1.4495 -0.4071
 1014MOL0     H36835   1.539   9.709   8.553 -1.3174  1.9925 -1.7204
 1014MOL0     H36836   1.613   9.614   8.418  2.4311  0.3540  0.1128
 1014MOL0     H36837   1.782   9.822   8.577  1.9073  0.4321  1.0912
 1014MOL0     H36838   1.818   9.709   8.433 -3.7182  0.4348 -1.6877
 1014MOL0     H36839   1.766   9.646   8.721 -0.1043 -4.7416  0.8722
 1014MOL0     H36840   1.731   9.526   8.589  0.3950  0.4976 -3.1660
 1014MOL0     H36841   1.939   9.359   8.675 -1.7728  0.2709 -1.2266
 1014MOL0     H36842   2.173   9.264   8.625 -2.9728  0.3972  0.8400
 1014MOL0     H36843   2.221   9.352   8.477  2.4470 -0.3914 -0.2555
 1014MOL0     H36844   2.374   9.460   8.698  1.7281  1.0581 -2.3522
 1014MOL0     H36845   2.379   9.287   8.713  0.3280  0.1046 -0.5374
 1014MOL0     H36846   2.461   9.485   8.492  1.0046 -0.3276 -0.1396
 1014MOL0     H36847   2.448   9.309   8.452 -1.5273 -0.8264 -0.6989
 1014MOL0     H36848   2.639   9.275   8.609 -0.8928  0.2939  0.0588
 1014MOL0     H36849   2.610   9.438   8.677  1.5510  0.5512 -0.6472
 1014MOL0     H36850   2.932   9.313   8.501  2.5979 -0.6151  1.4847
 1014MOL0     H36851   3.134   9.399   8.602 -1.2682 -2.8872 -0.4406
 1014MOL0     H36852   3.359   9.779   8.931  1.1066 -3.1198 -0.2708
 1014MOL0     H36853   3.612   9.849   8.913  0.2872 -0.1354 -0.7259
 1014MOL0     H36854   3.770   9.969   8.515  1.3047 -1.2859  0.6628
 1014MOL0     H36855   3.701  10.122   8.584 -1.0359 -0.0647  1.4299
 1014MOL0     H36856   3.902  10.152   8.731  2.7244 -0.9006  0.8090
 1014MOL0     H36857   3.973  10.014   8.670  2.1181  2.5440  0.5158
 1014MOL0     H36858   3.927  10.100   8.432 -2.8173  0.5659  0.0995
 1014MOL0     H36859   3.870  10.244   8.501  0.0758  0.7324  0.7984
 1014MOL0     H36860   4.160  10.133   8.560  0.9446  0.6188 -0.2470
 1014MOL0     H36861   4.110  10.288   8.613 -0.0889 -0.1906 -0.5878
 1014MOL0     H36862   4.077  10.335   8.360 -0.3661  1.0267  2.1601
 1014MOL0     H36863   4.130  10.163   8.331 -2.1543  0.8938 -1.9019
 1014MOL0     H36864   4.295  10.388   8.469  1.2792  0.3668  2.4462
 1014MOL0     H36865   4.333  10.216   8.472 -0.0873 -1.7907 -3.2196
 1014MOL0     H36866   4.351  10.202   8.226  0.0395 -2.5866  2.0165
 1014MOL0     H36867   4.483  10.295   8.303 -0.7167  1.2702  0.9947
 1014MOL0     H36868   4.250  10.414   8.153  0.4824  1.4831  0.0026
 1014MOL0     H36869   4.367  10.500   8.246  0.0635  0.6604 -1.5824
 1014MOL0     H36870   3.520   9.994   8.525  0.5527 -0.6256 -0.5156
 1014MOL0     H36871   3.289   9.899   8.531 -0.3465 -0.2949 -0.3117
 1014MOL0     H36872   2.921   9.762   8.710 -4.3818 -1.8394  2.3118
 1014MOL0     H36873   2.716   9.675   8.611 -0.7729  0.3369  0.0689
 1014MOL0     H36874   1.031   9.702   8.526  2.7462  1.8818  1.2327
 1014MOL0     H36875   0.851   9.706   8.666  1.0084  0.4339  1.1911
 1014MOL0     H36876   0.598  10.006   8.939 -0.5893 -1.3576  2.2191
 1014MOL0     H36877   0.444  10.051   9.123  1.5871 -1.1378 -0.7613
 1014MOL0     H36878   0.044   9.845   9.094  0.9632  0.3398 -0.0663
 1014MOL0     H36879   0.017  10.016   9.040  1.3315 -0.0105 -1.2121
 1014MOL0     H36880   0.007  10.073   9.292  1.2968 -0.8346 -0.1141
 1014MOL0     H36881   0.053   9.914   9.332  0.6835 -0.5573 -2.0093
 1014MOL0     H36882  -0.171   9.832   9.243  0.0856  0.0635 -0.2957
 1014MOL0     H36883  -0.220  10.003   9.223 -0.8043 -0.9715  1.5360
 1014MOL0     H36884  -0.127   9.868   9.483 -0.4661 -0.2009 -0.0620
 1014MOL0     H36885  -0.162  10.037   9.469 -0.0421 -0.5559  2.5631
 1014MOL0     H36886  -0.543   9.931   9.524 -1.1663 -1.4562 -2.5038
 1014MOL0     H36887   0.104   9.962   8.867 -0.0287  2.1594 -0.7535
 1014MOL0     H36888   0.277   9.868   8.582 -0.2484  0.9251 -0.8644
 1014MOL0     H36889   0.135   9.887   8.652  0.7303 -1.6530  1.3102
 1014MOL0     H36890   0.199  10.032   8.586 -1.5870 -0.8344  0.0652
 1015MOL0     O36891   3.348   1.413   9.454 -1.2308  0.6235  0.0071
 1015MOL0     C36892   3.232   1.445   9.473 -0.8514  0.2287  1.1595
 1015MOL0     O36893   3.149   1.483   9.371  0.6736  0.0049 -0.0585
 1015MOL0     C36894   3.181   1.501   9.239 -0.1203  0.0306 -0.3608
 1015MOL0     C36895   3.109   1.449   9.140  0.2962 -0.3092  0.3964
 1015MOL0     C36896   3.126   1.475   9.006  0.4088  0.5786  0.2577
 1015MOL0     C36897   3.237   1.546   8.967  0.9252 -0.0696 -0.2841
 1015MOL0     O36898   3.279   1.573   8.847 -0.0616  0.2679 -0.8327
 1015MOL0     C36899   3.180   1.645   8.761 -0.7331  0.4650 -0.6342
 1015MOL0     C36900   3.138   1.791   8.811  0.0993  0.6202  0.2653
 1015MOL0     C36901   3.251   1.882   8.842  0.2457 -0.2155  0.2745
 1015MOL0     C36902   3.196   1.985   8.943  0.6752 -0.7754 -0.0891
 1015MOL0     C36903   3.297   2.104   8.968  1.0235  0.6887 -0.1594
 1015MOL0     C36904   3.335   2.179   8.838  0.2279  0.2577 -0.1754
 1015MOL0     C36905   3.348   2.332   8.865 -0.1037 -0.4459  0.4589
 1015MOL0     C36906   3.468   2.376   8.947  0.3959  0.7878  0.0844
 1015MOL0     N36907   3.596   2.305   8.910  0.0588  0.7217 -0.1789
 1015MOL0     C36908   3.696   2.302   9.003  0.4182 -0.2654 -0.2760
 1015MOL0     C36909   3.815   2.280   8.950 -0.3439  0.8573  0.5152
 1015MOL0     C36910   3.954   2.262   9.011  0.4657 -0.1674  0.7900
 1015MOL0     C36911   4.035   2.146   8.959 -0.0817 -0.2812  1.2695
 1015MOL0     C36912   4.144   2.180   8.850  0.3512 -0.3282  0.1312
 1015MOL0     C36913   4.219   2.065   8.789 -0.3100 -0.4419 -0.3511
 1015MOL0     O36914   4.306   2.016   8.890  0.9369 -0.2155 -0.9372
 1015MOL0     C36915   4.396   1.922   8.869  0.1545  0.8661 -0.7445
 1015MOL0     C36916   4.413   1.858   8.747 -0.0735  0.4072  0.5697
 1015MOL0     C36917   4.508   1.756   8.738 -0.0059  0.2823 -0.6985
 1015MOL0     C36918   4.595   1.717   8.847 -0.5753  0.2247 -0.2133
 1015MOL0     C36919   4.685   1.605   8.827 -0.0551  0.5160 -0.1479
 1015MOL0     O36920   4.647   1.510   8.727 -0.1065  0.3896 -0.5259
 1015MOL0     C36921   4.709   1.388   8.727  1.0955 -1.4376 -0.5357
 1015MOL0     C36922   4.756   1.332   8.606 -0.8134 -0.7748  0.6190
 1015MOL0     C36923   4.827   1.206   8.600  0.0445 -0.6711  0.7147
 1015MOL0     C36924   4.818   1.131   8.711  0.4830 -0.0409  0.6535
 1015MOL0     O36925   4.887   1.014   8.701  0.0271 -0.1710  0.7914
 1015MOL0     C36926   4.888   0.910   8.807 -0.3356 -0.3889  0.1332
 1015MOL0     C36927   4.759   0.827   8.820  0.4006 -0.6671 -0.2675
 1015MOL0     C36928   4.709   0.777   8.687 -0.5305  0.7595 -0.6451
 1015MOL0     C36929   4.586   0.695   8.709 -0.3172  0.2739 -0.2801
 1015MOL0     C36930   4.545   0.634   8.579  0.3035 -0.8712 -0.3117
 1015MOL0     C36931   4.479   0.730   8.477  0.2126  0.2867 -1.1854
 1015MOL0     C36932   4.498   0.691   8.327  0.0839 -0.1852 -0.1220
 1015MOL0     C36933   4.429   0.776   8.226  0.1019 -0.7902  0.0645
 1015MOL0    Cl36934   4.439   0.696   8.072  0.2111 -0.0152  0.1776
 1015MOL0     C36935   4.747   1.175   8.830 -0.0279  0.2809  0.4644
 1015MOL0     C36936   4.687   1.304   8.835 -0.0867  0.2007 -0.2622
 1015MOL0     O36937   4.783   1.590   8.904  0.6554 -0.1752  0.0384
 1015MOL0     C36938   4.574   1.779   8.966 -0.0108 -0.3320 -0.7893
 1015MOL0     C36939   4.472   1.876   8.979 -0.3693  0.0009  0.2564
 1015MOL0     N36940   3.781   2.266   8.816  0.7407 -1.0169 -0.7398
 1015MOL0     N36941   3.654   2.283   8.791 -0.2776 -0.4570  0.5115
 1015MOL0     C36942   3.317   1.605   9.072 -0.2859 -0.0377 -1.1460
 1015MOL0     C36943   3.287   1.587   9.206 -0.1462 -0.1835  0.1888
 1015MOL0     C36944   3.182   1.441   9.613 -1.5407 -0.0016  0.1222
 1015MOL0     C36945   3.044   1.471   9.623 -0.3145  0.3891  0.5125
 1015MOL0     C36946   2.971   1.468   9.748  0.6182 -0.3409  0.0199
 1015MOL0     C36947   3.049   1.445   9.860  0.2713 -0.8947 -0.1874
 1015MOL0     O36948   2.979   1.455   9.980 -0.1360  0.0711  0.2304
 1015MOL0     C36949   3.010   1.572  10.055 -0.2265  0.7036  0.3512
 1015MOL0     C36950   2.959   1.702   9.981 -0.6255  0.1094 -0.0493
 1015MOL0     C36951   2.820   1.748  10.028 -0.1946  0.1953 -0.1350
 1015MOL0     C36952   2.766   1.876   9.967  0.2666 -0.0723 -0.4412
 1015MOL0     C36953   2.623   1.894   9.995 -1.2114  1.0872  0.8096
 1015MOL0     C36954   2.502   1.912  10.000  0.5052  0.4504 -0.8326
 1015MOL0     C36955   3.188   1.420   9.854 -0.3674 -0.5799 -0.1069
 1015MOL0     C36956   3.250   1.411   9.732 -0.4049  0.1722 -0.5413
 1015MOL0     C36957   3.389   1.337   9.733 -0.4053  0.2952 -0.3158
 1015MOL0     H36958   3.036   1.375   9.170  0.9036 -0.6631  1.0298
 1015MOL0     H36959   3.064   1.422   8.934 -1.7511 -0.4806  2.7543
 1015MOL0     H36960   3.215   1.649   8.657 -0.9438  1.4370 -0.6815
 1015MOL0     H36961   3.086   1.594   8.740 -0.5725 -0.8227  1.4613
 1015MOL0     H36962   3.076   1.781   8.900  0.6687  0.8549  0.6966
 1015MOL0     H36963   3.083   1.834   8.727 -0.8323  0.9924  1.0561
 1015MOL0     H36964   3.286   1.938   8.755 -0.3542 -1.7807 -1.0038
 1015MOL0     H36965   3.335   1.827   8.884 -0.3440 -3.0950 -1.9784
 1015MOL0     H36966   3.106   2.029   8.899  2.1785 -0.1422 -2.8030
 1015MOL0     H36967   3.167   1.931   9.033 -0.0343  0.0100  0.1596
 1015MOL0     H36968   3.261   2.168   9.049  0.8283  1.0171 -0.5004
 1015MOL0     H36969   3.388   2.052   8.998  0.1429  0.1278  1.7028
 1015MOL0     H36970   3.424   2.140   8.788  2.2163  1.9233  1.8379
 1015MOL0     H36971   3.251   2.165   8.769  0.6917 -0.9351 -0.5189
 1015MOL0     H36972   3.256   2.371   8.911 -2.8729  0.2853 -4.9398
 1015MOL0     H36973   3.338   2.391   8.774 -1.6458 -1.4262 -0.0594
 1015MOL0     H36974   3.492   2.483   8.939  2.5640  0.2017 -4.6239
 1015MOL0     H36975   3.459   2.350   9.053  3.2140 -1.4091 -0.0836
 1015MOL0     H36976   3.677   2.310   9.109 -1.4214 -1.2431 -0.4855
 1015MOL0     H36977   4.008   2.354   8.989 -1.9541  1.0590 -0.3080
 1015MOL0     H36978   3.941   2.242   9.118 -1.4469 -2.5820  0.2189
 1015MOL0     H36979   4.094   2.103   9.041  1.2292 -1.4199 -0.1954
 1015MOL0     H36980   3.972   2.068   8.917  3.8695 -1.1492 -4.1847
 1015MOL0     H36981   4.208   2.261   8.888  0.0881  0.2033 -0.5357
 1015MOL0     H36982   4.094   2.223   8.763  1.8162 -1.4252 -1.3050
 1015MOL0     H36983   4.293   2.103   8.718 -0.9082 -0.0133 -0.7526
 1015MOL0     H36984   4.149   1.998   8.739  0.6458 -1.8516  0.1363
 1015MOL0     H36985   4.345   1.878   8.666 -0.7388  1.3511  1.3334
 1015MOL0     H36986   4.517   1.702   8.644 -1.2203 -1.9769  0.3972
 1015MOL0     H36987   4.762   1.386   8.512  0.2144 -1.7495  0.0938
 1015MOL0     H36988   4.881   1.171   8.512 -1.7034 -3.7599  0.7351
 1015MOL0     H36989   4.965   0.839   8.776 -0.8411 -1.3714  1.0366
 1015MOL0     H36990   4.916   0.953   8.904 -2.5613 -2.8260  2.0149
 1015MOL0     H36991   4.778   0.746   8.892 -1.3057  0.1193  1.1483
 1015MOL0     H36992   4.675   0.883   8.864  3.4493  3.8417  0.5138
 1015MOL0     H36993   4.684   0.864   8.625  0.5651  2.3538  1.0596
 1015MOL0     H36994   4.788   0.709   8.653  2.1961  2.2680  2.1612
 1015MOL0     H36995   4.498   0.742   8.754 -1.3449 -0.2237 -1.6858
 1015MOL0     H36996   4.616   0.602   8.760 -2.2520 -0.9050 -1.1577
 1015MOL0     H36997   4.468   0.560   8.604  1.0709 -2.5836 -2.5892
 1015MOL0     H36998   4.627   0.576   8.536  2.5260  1.2204  0.8694
 1015MOL0     H36999   4.370   0.726   8.489  0.3504 -2.6723 -0.0140
 1015MOL0     H37000   4.525   0.825   8.505 -2.2205  0.4314  3.2203
 1015MOL0     H37001   4.444   0.597   8.315  0.4771 -0.6231  1.3372
 1015MOL0     H37002   4.603   0.680   8.298  0.2205 -0.4057  0.4321
 1015MOL0     H37003   4.323   0.788   8.251  0.3371  0.4041  0.5738
 1015MOL0     H37004   4.473   0.876   8.222 -1.0752 -0.2262  0.7107
 1015MOL0     H37005   4.722   1.107   8.910 -0.5177  0.7431  0.7089
 1015MOL0     H37006   4.632   1.334   8.923  2.0340 -0.4329  1.3546
 1015MOL0     H37007   4.642   1.765   9.049 -1.8967 -1.7676  0.6036
 1015MOL0     H37008   4.458   1.929   9.072 -1.7062 -0.4299  0.3163
 1015MOL0     H37009   3.403   1.667   9.050  1.4401 -1.7604  0.3326
 1015MOL0     H37010   3.354   1.628   9.281  0.4070 -1.0459  0.1871
 1015MOL0     H37011   2.994   1.496   9.530 -2.9326  0.3102  1.8080
 1015MOL0     H37012   2.865   1.486   9.757  0.5265 -1.7667  2.9924
 1015MOL0     H37013   3.115   1.578  10.086 -0.5845  0.2786  1.6923
 1015MOL0     H37014   2.956   1.559  10.149  0.6617  1.8678  1.0465
 1015MOL0     H37015   2.963   1.686   9.873  1.2739 -1.0292  0.1508
 1015MOL0     H37016   3.037   1.771  10.014  0.1158 -2.0676  3.2893
 1015MOL0     H37017   2.823   1.770  10.135 -2.8798 -3.8446  0.9897
 1015MOL0     H37018   2.751   1.669   9.997  1.3063 -1.2573  0.0328
 1015MOL0     H37019   2.839   1.951   9.999  1.8577 -1.7223 -0.0201
 1015MOL0     H37020   2.767   1.868   9.858 -2.7330  2.6391 -0.8151
 1015MOL0     H37021   2.399   1.931  10.023  0.4918  0.5206 -0.9517
 1015MOL0     H37022   3.234   1.394   9.949 -2.5071 -0.5266  1.0053
 1015MOL0     H37023   3.385   1.243   9.678  0.6396  1.0318 -1.7093
 1015MOL0     H37024   3.471   1.399   9.695 -1.1978  2.1521  0.8173
 1015MOL0     H37025   3.414   1.316   9.837  0.5739  5.3802  0.7495
 1016MOL0     O37026   4.909   3.586   5.342  0.2557  0.6106 -0.0080
 1016MOL0     C37027   4.857   3.618   5.454  0.1212  0.5246  0.0929
 1016MOL0     O37028   4.938   3.645   5.561  0.4138 -0.1494 -0.1723
 1016MOL0     C37029   5.073   3.652   5.554  0.3196  0.4742 -0.0804
 1016MOL0     C37030   5.137   3.775   5.565 -0.1959 -0.5641  1.1100
 1016MOL0     C37031   5.278   3.772   5.589 -0.9122  0.3029 -0.0353
 1016MOL0     C37032   5.347   3.647   5.602 -0.3478 -0.5706  0.0398
 1016MOL0     O37033   5.483   3.647   5.607 -0.0528 -0.6994  0.2523
 1016MOL0     C37034   5.560   3.582   5.506 -0.0172  0.4648  0.7663
 1016MOL0     C37035   5.696   3.594   5.555  0.4550 -0.0850 -0.7933
 1016MOL0     C37036   5.732   3.738   5.602  0.2935 -0.3469  0.2212
 1016MOL0     C37037   5.874   3.763   5.617  0.8218  0.4825 -0.2022
 1016MOL0     C37038   5.888   3.883   5.706  0.0342 -1.2144 -0.0320
 1016MOL0     C37039   6.020   3.953   5.686  0.2320  0.1338  0.3584
 1016MOL0     C37040   6.032   4.037   5.558 -0.2773 -0.0457 -0.5887
 1016MOL0     C37041   6.143   4.139   5.564  0.5265  0.1309  0.2823
 1016MOL0     N37042   6.271   4.090   5.613  0.5293 -0.5557 -0.9969
 1016MOL0     C37043   6.347   3.985   5.583  0.0473 -0.8985  0.2146
 1016MOL0     C37044   6.446   4.004   5.669 -0.3652 -0.0646 -0.6903
 1016MOL0     C37045   6.574   3.930   5.667 -0.3428  0.8802 -0.1342
 1016MOL0     C37046   6.558   3.775   5.691 -0.1009 -0.4593 -0.4472
 1016MOL0     C37047   6.542   3.739   5.836  0.7867  0.0879 -0.3818
 1016MOL0     C37048   6.650   3.797   5.921 -0.1866  0.0599 -2.0037
 1016MOL0     O37049   6.664   3.726   6.042 -0.2233  0.0457  0.5821
 1016MOL0     C37050   6.790   3.709   6.095 -0.5950  0.5699 -0.4406
 1016MOL0     C37051   6.898   3.795   6.084 -0.0689  0.0326  0.1583
 1016MOL0     C37052   7.015   3.783   6.154 -0.4060  0.4227  0.0360
 1016MOL0     C37053   7.035   3.675   6.241  1.4821  0.1121  0.1529
 1016MOL0     C37054   7.162   3.666   6.301 -0.5099  0.0935  0.6662
 1016MOL0     O37055   7.268   3.732   6.241  0.5512 -0.6076 -0.5052
 1016MOL0     C37056   7.401   3.710   6.276 -0.7284 -0.3245 -0.2396
 1016MOL0     C37057   7.455   3.592   6.328  0.4051 -0.2465 -0.1308
 1016MOL0     C37058   7.595   3.579   6.348 -0.1288  0.2287 -0.1371
 1016MOL0     C37059   7.685   3.679   6.312 -0.5941  0.1472  0.5511
 1016MOL0     O37060   7.823   3.678   6.328 -0.0590 -0.0967  0.4093
 1016MOL0     C37061   7.886   3.552   6.371  0.2709  0.1572  0.3930
 1016MOL0     C37062   8.029   3.570   6.347 -0.5313 -0.3250  0.2703
 1016MOL0     C37063   8.068   3.565   6.196  0.4108  0.4935  0.6342
 1016MOL0     C37064   8.221   3.561   6.172  0.1822 -0.1695  0.3976
 1016MOL0     C37065   8.252   3.544   6.019  0.4231 -1.0422  0.4211
 1016MOL0     C37066   8.396   3.523   5.973 -0.5062  0.4899 -0.3468
 1016MOL0     C37067   8.419   3.512   5.822  0.9432  0.2476  0.5220
 1016MOL0     C37068   8.338   3.397   5.764 -0.2993 -0.0819  0.3983
 1016MOL0    Cl37069   8.411   3.247   5.820  0.9095  0.4779  0.0175
 1016MOL0     C37070   7.631   3.798   6.274 -0.0549 -0.1715  0.6454
 1016MOL0     C37071   7.494   3.814   6.255 -0.4931  0.0596 -0.1114
 1016MOL0     O37072   7.164   3.596   6.396 -0.8865  0.3353 -1.1407
 1016MOL0     C37073   6.934   3.576   6.250  0.5495 -0.3206 -0.5693
 1016MOL0     C37074   6.811   3.597   6.184  0.4876  0.2525 -0.7604
 1016MOL0     N37075   6.442   4.110   5.748 -0.1511  0.7964 -0.3627
 1016MOL0     N37076   6.333   4.158   5.710  0.4428 -0.9289 -1.8178
 1016MOL0     C37077   5.276   3.531   5.582  0.1903 -0.0191 -0.7134
 1016MOL0     C37078   5.143   3.536   5.574  0.5673 -0.0082 -0.4190
 1016MOL0     C37079   4.708   3.641   5.471  0.8569  0.3321  0.5624
 1016MOL0     C37080   4.677   3.689   5.599  0.7925 -0.4371 -0.2516
 1016MOL0     C37081   4.543   3.693   5.633 -0.7304 -0.2121  0.6100
 1016MOL0     C37082   4.446   3.657   5.543  0.4147 -0.6282  0.4525
 1016MOL0     O37083   4.319   3.663   5.596  0.3741  0.4768 -0.1841
 1016MOL0     C37084   4.252   3.537   5.596 -0.0406 -0.0776  0.5650
 1016MOL0     C37085   4.229   3.482   5.738 -0.0215 -0.2043 -0.1521
 1016MOL0     C37086   4.122   3.563   5.810  1.3819 -0.3313 -0.0945
 1016MOL0     C37087   3.993   3.586   5.733 -0.4301  0.0536  0.4062
 1016MOL0     C37088   3.947   3.452   5.692 -0.6233  0.1137  1.3484
 1016MOL0     C37089   3.925   3.341   5.643  0.9752 -0.0459 -0.1360
 1016MOL0     C37090   4.476   3.618   5.413  0.7242  0.5053 -0.9717
 1016MOL0     C37091   4.610   3.605   5.374  0.7128 -0.6219  0.5300
 1016MOL0     C37092   4.631   3.544   5.237 -0.0932 -0.0636  0.3319
 1016MOL0     H37093   5.082   3.866   5.545  0.6152  0.3296  2.6687
 1016MOL0     H37094   5.329   3.866   5.608 -3.3764  2.0082 -1.3309
 1016MOL0     H37095   5.538   3.476   5.489 -1.7685  0.4708  2.6054
 1016MOL0     H37096   5.559   3.629   5.407 -1.3746 -2.7229 -0.8958
 1016MOL0     H37097   5.765   3.555   5.480 -1.1604 -2.7448 -1.0088
 1016MOL0     H37098   5.694   3.527   5.641  1.7236 -1.4064 -1.7460
 1016MOL0     H37099   5.676   3.755   5.694 -3.0864 -2.4059 -1.2493
 1016MOL0     H37100   5.687   3.816   5.540 -0.7412 -1.5676 -0.6045
 1016MOL0     H37101   5.922   3.680   5.670 -0.9465  1.6403  3.5356
 1016MOL0     H37102   5.918   3.787   5.519 -2.0285  4.3608 -0.7594
 1016MOL0     H37103   5.810   3.959   5.690  0.4030 -0.5365  1.1796
 1016MOL0     H37104   5.883   3.854   5.812  0.9528  1.2971  0.7891
 1016MOL0     H37105   6.033   4.011   5.778 -2.5503  0.1530  0.8194
 1016MOL0     H37106   6.091   3.871   5.674  0.5386  0.7673 -3.3188
 1016MOL0     H37107   5.940   4.097   5.553  0.0052  0.4906  0.4125
 1016MOL0     H37108   6.042   3.975   5.469  0.6250 -0.8273  0.0423
 1016MOL0     H37109   6.160   4.178   5.463  1.0427  1.7735  0.9722
 1016MOL0     H37110   6.117   4.224   5.627 -2.7421 -1.4843  1.3461
 1016MOL0     H37111   6.333   3.917   5.499 -1.0611  1.0206 -1.2590
 1016MOL0     H37112   6.635   3.944   5.578  1.5948  1.1309  1.1838
 1016MOL0     H37113   6.639   3.975   5.743  0.0113  1.4563 -0.7777
 1016MOL0     H37114   6.471   3.732   5.640  1.5700 -4.0114 -0.5942
 1016MOL0     H37115   6.648   3.722   5.659  0.3682  1.0423 -1.7053
 1016MOL0     H37116   6.524   3.632   5.835 -0.6684  0.3137  0.1343
 1016MOL0     H37117   6.449   3.777   5.877  0.0188 -2.9517  0.9373
 1016MOL0     H37118   6.629   3.903   5.937 -2.2744 -0.1888 -2.8023
 1016MOL0     H37119   6.744   3.776   5.869  0.1127 -2.0795 -0.7330
 1016MOL0     H37120   6.894   3.889   6.030  3.6264  1.3313  1.7848
 1016MOL0     H37121   7.086   3.865   6.160  0.3592 -0.3183  1.4390
 1016MOL0     H37122   7.394   3.505   6.352  1.5208 -0.9379  0.2719
 1016MOL0     H37123   7.637   3.480   6.363 -0.3393  0.0366 -0.7894
 1016MOL0     H37124   7.870   3.528   6.476  0.3347  1.2811  0.6718
 1016MOL0     H37125   7.854   3.469   6.308 -0.3210  1.8081 -1.6107
 1016MOL0     H37126   8.071   3.661   6.390 -0.2194  0.7203 -2.1237
 1016MOL0     H37127   8.061   3.480   6.401 -1.6522 -0.8874  0.0313
 1016MOL0     H37128   8.016   3.480   6.153  1.1988  0.8630 -1.1504
 1016MOL0     H37129   8.021   3.648   6.142 -1.1542 -0.0776  1.0791
 1016MOL0     H37130   8.257   3.478   6.233  1.1400  0.9679  1.4429
 1016MOL0     H37131   8.269   3.649   6.217 -1.9177 -0.2132  2.9976
 1016MOL0     H37132   8.211   3.630   5.965  0.2382 -1.4526 -0.1111
 1016MOL0     H37133   8.195   3.463   5.972  0.3278 -0.0523 -1.2456
 1016MOL0     H37134   8.459   3.601   6.017  1.6330 -0.6487 -1.2295
 1016MOL0     H37135   8.438   3.436   6.025 -1.7616  0.5457  0.8244
 1016MOL0     H37136   8.525   3.493   5.803  0.5693 -1.3084 -0.1897
 1016MOL0     H37137   8.384   3.604   5.775 -0.5795 -0.8124 -0.5357
 1016MOL0     H37138   8.232   3.403   5.789 -0.1598 -0.9418  1.2350
 1016MOL0     H37139   8.345   3.409   5.655  2.7322  2.0520  0.6929
 1016MOL0     H37140   7.704   3.879   6.274  0.5399 -0.5869  3.9281
 1016MOL0     H37141   7.454   3.911   6.225 -0.4335 -0.4900 -2.1259
 1016MOL0     H37142   6.942   3.492   6.318  0.7067 -0.4278 -0.7212
 1016MOL0     H37143   6.727   3.530   6.201  0.3526  0.4191 -0.7704
 1016MOL0     H37144   5.321   3.435   5.603 -1.4617 -0.4242  1.3042
 1016MOL0     H37145   5.087   3.444   5.576  0.8226 -0.1683  1.5938
 1016MOL0     H37146   4.737   3.711   5.686  0.2645  1.4817 -0.3423
 1016MOL0     H37147   4.512   3.734   5.728 -0.6861 -0.6665  0.8257
 1016MOL0     H37148   4.322   3.468   5.547  2.1383  2.7728 -0.7023
 1016MOL0     H37149   4.158   3.546   5.540 -0.6134  2.5854  1.7960
 1016MOL0     H37150   4.325   3.487   5.789  0.5677 -2.5764 -0.8861
 1016MOL0     H37151   4.199   3.377   5.730  2.3098 -0.9602  0.4200
 1016MOL0     H37152   4.157   3.662   5.842 -1.7510  0.8319  0.1694
 1016MOL0     H37153   4.099   3.514   5.905  1.7306  0.1836  0.2640
 1016MOL0     H37154   3.923   3.640   5.798  2.4372  2.1071  2.0150
 1016MOL0     H37155   4.009   3.649   5.644  0.1921 -1.2449 -0.4274
 1016MOL0     H37156   3.887   3.255   5.591  0.7912 -2.3511  3.4748
 1016MOL0     H37157   4.398   3.606   5.339  0.7956  0.5127 -1.0490
 1016MOL0     H37158   4.718   3.589   5.189  0.4805  0.2146  1.5663
 1016MOL0     H37159   4.651   3.438   5.256 -2.8258 -0.3209  2.4846
 1016MOL0     H37160   4.543   3.534   5.173  1.1144 -2.1047 -1.0879
 1017MOL0     O37161  10.917   0.309   1.624 -0.7731 -0.6788  0.2595
 1017MOL0     C37162  10.810   0.327   1.689  0.9563  0.4468 -0.4554
 1017MOL0     O37163  10.762   0.447   1.735  0.1288  0.8053 -0.0365
 1017MOL0     C37164  10.839   0.555   1.713  1.0608  0.1418  0.1853
 1017MOL0     C37165  10.791   0.656   1.626  0.2583  0.1655 -0.1993
 1017MOL0     C37166  10.881   0.770   1.611 -0.3963 -0.1786 -0.4624
 1017MOL0     C37167  11.005   0.781   1.683  0.4563 -0.3383 -0.2248
 1017MOL0     O37168  11.083   0.892   1.686  0.0597 -0.2343  0.7264
 1017MOL0     C37169  11.127   0.950   1.556 -0.4256  1.1487  0.5196
 1017MOL0     C37170  11.257   1.000   1.588 -0.4207  0.3056  0.4416
 1017MOL0     C37171  11.264   1.149   1.609  0.6550  0.0956 -0.0505
 1017MOL0     C37172  11.230   1.242   1.483  0.0990 -0.2174 -0.5298
 1017MOL0     C37173  11.243   1.396   1.514 -1.0553  0.4434 -0.2458
 1017MOL0     C37174  11.371   1.459   1.470 -0.3227 -0.3485  0.6590
 1017MOL0     C37175  11.509   1.394   1.505  0.3762 -1.2438  0.1409
 1017MOL0     C37176  11.622   1.465   1.433 -0.2947 -0.3613  0.3310
 1017MOL0     N37177  11.636   1.612   1.468  0.4768 -1.2917 -0.1326
 1017MOL0     C37178  11.722   1.659   1.558 -0.0745  0.4032  0.2593
 1017MOL0     C37179  11.736   1.788   1.523 -0.1857  0.7872  0.3383
 1017MOL0     C37180  11.820   1.879   1.595  0.4489  1.0860  0.8848
 1017MOL0     C37181  11.777   1.905   1.739 -0.4476  0.5092 -0.4607
 1017MOL0     C37182  11.844   2.021   1.808  0.6617 -0.1528 -0.4246
 1017MOL0     C37183  11.991   2.013   1.807  0.6981  0.1442  1.0011
 1017MOL0     O37184  12.052   2.092   1.900  0.2991 -0.4971 -0.0259
 1017MOL0     C37185  12.190   2.098   1.914 -0.1281  0.2094  0.3309
 1017MOL0     C37186  12.241   2.182   2.014 -0.8744 -0.0109 -0.2228
 1017MOL0     C37187  12.379   2.213   2.014 -0.5397 -0.4440  0.1447
 1017MOL0     C37188  12.466   2.170   1.908  0.2671  0.4309 -0.0484
 1017MOL0     C37189  12.609   2.200   1.908  1.1583  0.6023 -0.2117
 1017MOL0     O37190  12.682   2.133   1.812  0.0449  0.3179 -0.4294
 1017MOL0     C37191  12.810   2.116   1.838 -0.0227  0.7293  0.0077
 1017MOL0     C37192  12.916   2.146   1.756  0.6818  0.4021  0.3261
 1017MOL0     C37193  13.042   2.089   1.765  0.3844 -0.2381  0.6272
 1017MOL0     C37194  13.070   2.004   1.866 -0.3679  0.7177  0.3402
 1017MOL0     O37195  13.192   1.944   1.887 -0.3785 -0.3562  0.1641
 1017MOL0     C37196  13.270   1.909   1.769  0.5777 -0.2935 -0.7895
 1017MOL0     C37197  13.322   1.768   1.781 -0.1153  0.3272 -0.1877
 1017MOL0     C37198  13.420   1.739   1.671  0.5764  0.1017 -0.3232
 1017MOL0     C37199  13.355   1.770   1.536 -0.4090  0.1695  0.6528
 1017MOL0     C37200  13.447   1.731   1.418  0.4889  0.3088  0.3408
 1017MOL0     C37201  13.406   1.770   1.279  0.0238  0.2854 -0.5229
 1017MOL0     C37202  13.510   1.744   1.179  0.3645  0.1133 -0.0843
 1017MOL0     C37203  13.624   1.842   1.168  0.2494  0.1368  0.4322
 1017MOL0    Cl37204  13.731   1.782   1.046  0.1850 -0.3518  0.2695
 1017MOL0     C37205  12.976   1.980   1.967  0.4870 -0.0676  0.2392
 1017MOL0     C37206  12.846   2.034   1.944  0.1236  0.6805 -0.0454
 1017MOL0     O37207  12.656   2.269   1.997  0.8266  0.1250  0.1803
 1017MOL0     C37208  12.410   2.076   1.810 -0.4412  0.1623 -0.0800
 1017MOL0     C37209  12.279   2.041   1.813  0.0708 -0.7832 -0.1334
 1017MOL0     N37210  11.658   1.811   1.409  0.0383 -0.0906  0.0521
 1017MOL0     N37211  11.596   1.710   1.378 -0.5584  0.0869 -0.3028
 1017MOL0     C37212  11.042   0.677   1.771 -0.6461 -0.1101 -0.0628
 1017MOL0     C37213  10.966   0.562   1.782  0.7693 -0.8077  0.1676
 1017MOL0     C37214  10.724   0.209   1.699 -0.5183  0.4234  0.2375
 1017MOL0     C37215  10.750   0.091   1.632  0.5296  0.1223  0.1223
 1017MOL0     C37216  10.668  -0.022   1.635  0.3486  0.3793  0.4626
 1017MOL0     C37217  10.563  -0.027   1.727 -0.9466 -0.1389  0.1624
 1017MOL0     O37218  10.483  -0.136   1.725  0.8370  0.3484  0.2755
 1017MOL0     C37219  10.343  -0.122   1.701  0.7357  0.2255  0.1222
 1017MOL0     C37220  10.299  -0.057   1.564 -0.0152 -0.2517  1.0198
 1017MOL0     C37221  10.147  -0.057   1.540  0.2191 -0.0695  0.1524
 1017MOL0     C37222  10.084   0.026   1.428  0.3599  0.0591  0.3111
 1017MOL0     C37223  10.091   0.170   1.455  0.3317 -0.9565 -0.2482
 1017MOL0     C37224  10.091   0.275   1.513 -0.1881 -0.1635 -0.5358
 1017MOL0     C37225  10.539   0.087   1.802 -0.3602 -0.4051 -1.8097
 1017MOL0     C37226  10.613   0.202   1.791  0.1096 -0.1277 -0.0079
 1017MOL0     C37227  10.559   0.317   1.870  0.1391  0.1555 -1.5339
 1017MOL0     H37228  10.698   0.662   1.570 -0.5389 -3.0181  0.5933
 1017MOL0     H37229  10.863   0.856   1.548 -1.5734  1.5571  2.0630
 1017MOL0     H37230  11.135   0.879   1.474  1.1220 -0.9134  2.3221
 1017MOL0     H37231  11.055   1.024   1.521 -1.7929  0.2826  1.3880
 1017MOL0     H37232  11.314   0.983   1.496 -0.9928 -2.0694  0.4593
 1017MOL0     H37233  11.312   0.947   1.667 -1.2128 -1.5251 -0.1788
 1017MOL0     H37234  11.367   1.179   1.631  0.1797  1.7186  0.1206
 1017MOL0     H37235  11.202   1.179   1.694  2.2965  4.4237 -0.1556
 1017MOL0     H37236  11.295   1.229   1.396 -0.1152  0.4866 -0.8064
 1017MOL0     H37237  11.124   1.228   1.460 -0.2307  0.7793  0.3245
 1017MOL0     H37238  11.163   1.455   1.467  0.0398  2.0766 -0.1271
 1017MOL0     H37239  11.233   1.406   1.622 -1.8406 -1.9535 -0.0416
 1017MOL0     H37240  11.360   1.462   1.362  0.5736 -1.9971  0.4935
 1017MOL0     H37241  11.376   1.562   1.506  3.3800 -1.3721  3.7707
 1017MOL0     H37242  11.499   1.291   1.471 -0.8587 -1.5544  1.3406
 1017MOL0     H37243  11.529   1.393   1.612  0.3681  0.6404  0.2042
 1017MOL0     H37244  11.714   1.414   1.463  1.4511  2.1614 -0.4167
 1017MOL0     H37245  11.619   1.457   1.324  1.7218  1.3342  0.0937
 1017MOL0     H37246  11.782   1.603   1.630  2.7521  1.6530 -0.9647
 1017MOL0     H37247  11.921   1.841   1.612  0.4747  1.2717  1.1457
 1017MOL0     H37248  11.815   1.966   1.529 -2.6528 -0.4138 -1.1352
 1017MOL0     H37249  11.671   1.888   1.760  0.2190 -4.0207  0.4445
 1017MOL0     H37250  11.818   1.819   1.794 -0.1137 -0.2809 -1.9023
 1017MOL0     H37251  11.820   2.032   1.914  1.9162  0.5306 -0.1907
 1017MOL0     H37252  11.807   2.113   1.763 -0.1513 -0.7574 -1.0219
 1017MOL0     H37253  12.015   2.057   1.710 -3.9809 -2.2724 -1.6427
 1017MOL0     H37254  12.027   1.910   1.800  3.1765  1.0103 -0.3513
 1017MOL0     H37255  12.168   2.214   2.089 -1.1150  1.8607 -1.1911
 1017MOL0     H37256  12.415   2.283   2.089  0.2681  0.9783 -1.5138
 1017MOL0     H37257  12.886   2.220   1.682 -0.3324 -0.0270  0.3013
 1017MOL0     H37258  13.102   2.114   1.678  1.6900  2.9561  2.2875
 1017MOL0     H37259  13.221   1.921   1.672  2.1064 -0.5411 -1.6246
 1017MOL0     H37260  13.358   1.974   1.764  1.0972 -1.0088 -1.3510
 1017MOL0     H37261  13.364   1.752   1.881  2.7439  2.8614 -0.8547
 1017MOL0     H37262  13.231   1.707   1.770 -0.5803  0.8079  0.8571
 1017MOL0     H37263  13.509   1.798   1.693  0.8269 -0.2012 -0.5003
 1017MOL0     H37264  13.439   1.631   1.672 -0.5899 -0.1123  0.3644
 1017MOL0     H37265  13.344   1.878   1.520 -1.1444  0.0031 -0.0187
 1017MOL0     H37266  13.260   1.717   1.528  0.3119 -1.2911  1.4585
 1017MOL0     H37267  13.462   1.622   1.415 -2.1203 -0.0887 -2.1992
 1017MOL0     H37268  13.550   1.762   1.438  0.1525  2.9330 -1.4562
 1017MOL0     H37269  13.309   1.724   1.260  0.6220 -0.2911 -2.3827
 1017MOL0     H37270  13.381   1.877   1.281 -1.9134 -0.1290  0.9198
 1017MOL0     H37271  13.460   1.735   1.081 -0.6473  1.3938  0.2765
 1017MOL0     H37272  13.544   1.642   1.198 -2.6467 -0.7610  1.2828
 1017MOL0     H37273  13.578   1.938   1.143 -1.3867 -1.2152 -2.2195
 1017MOL0     H37274  13.676   1.854   1.264  2.3016 -0.9048 -0.4947
 1017MOL0     H37275  12.996   1.923   2.057 -0.2870 -1.3789 -0.3863
 1017MOL0     H37276  12.768   2.031   2.019 -0.2135 -0.8702 -0.4226
 1017MOL0     H37277  12.464   2.021   1.733 -1.3618 -5.1997  2.6323
 1017MOL0     H37278  12.227   1.971   1.748 -0.7915  0.4082 -0.7722
 1017MOL0     H37279  11.131   0.685   1.832 -0.3142 -3.8745  0.1592
 1017MOL0     H37280  10.986   0.481   1.852 -0.0555 -2.1987 -1.1328
 1017MOL0     H37281  10.830   0.101   1.560  0.1003  1.8552 -0.1666
 1017MOL0     H37282  10.690  -0.108   1.573 -0.0281 -0.8636  1.9860
 1017MOL0     H37283  10.295  -0.073   1.786  2.3725  0.0469  1.1871
 1017MOL0     H37284  10.303  -0.223   1.694  1.1060  0.1555 -1.7572
 1017MOL0     H37285  10.349  -0.101   1.477 -2.0172 -0.0969 -0.2624
 1017MOL0     H37286  10.347   0.041   1.573 -0.1204 -0.1083  0.0812
 1017MOL0     H37287  10.087  -0.020   1.624 -1.7114 -2.0552 -0.2558
 1017MOL0     H37288  10.115  -0.161   1.529  2.3580 -0.9026  1.1628
 1017MOL0     H37289  10.148   0.012   1.340  1.6166 -2.0040  1.4844
 1017MOL0     H37290   9.979  -0.001   1.412  0.3378  1.4162 -2.4817
 1017MOL0     H37291  10.091   0.367   1.568 -3.0815 -0.6480  0.4227
 1017MOL0     H37292  10.455   0.082   1.871 -1.2130  0.0845 -2.7740
 1017MOL0     H37293  10.521   0.397   1.807 -1.0264  0.7044 -0.1982
 1017MOL0     H37294  10.470   0.291   1.928  0.4627  1.5963 -0.3247
 1017MOL0     H37295  10.636   0.351   1.940  0.8820 -2.1764 -1.1291
 1018MOL0     O37296  11.291   1.330   2.371 -0.1808 -0.0003  0.3429
 1018MOL0     C37297  11.178   1.294   2.389 -0.6668  0.0293 -0.6631
 1018MOL0     O37298  11.113   1.186   2.337 -0.0969  0.0219  0.1846
 1018MOL0     C37299  11.188   1.086   2.266  1.0804  0.4454  0.3200
 1018MOL0     C37300  11.161   1.069   2.134  0.5781  0.2564 -0.1869
 1018MOL0     C37301  11.222   0.959   2.065  0.7592 -0.8004  0.1615
 1018MOL0     C37302  11.298   0.864   2.124  0.1453  1.1149  0.0512
 1018MOL0     O37303  11.339   0.766   2.038 -0.0920  0.4734  0.0019
 1018MOL0     C37304  11.386   0.645   2.100 -0.6450  0.0900 -0.6856
 1018MOL0     C37305  11.404   0.544   1.984 -0.2802 -0.0681 -0.7561
 1018MOL0     C37306  11.530   0.575   1.913  0.1762  0.7769  0.5230
 1018MOL0     C37307  11.666   0.574   1.992 -0.1235 -1.0407 -0.0006
 1018MOL0     C37308  11.781   0.581   1.902 -0.2658  0.0430 -0.5017
 1018MOL0     C37309  11.907   0.507   1.943  0.0937  0.1534 -0.5397
 1018MOL0     C37310  12.015   0.540   1.839  0.6190  0.2808 -0.3887
 1018MOL0     C37311  12.137   0.454   1.857 -0.4922  0.1490 -0.2674
 1018MOL0     N37312  12.257   0.501   1.776 -0.8058 -0.1997 -0.8405
 1018MOL0     C37313  12.272   0.586   1.670 -0.0675 -0.3753 -0.0802
 1018MOL0     C37314  12.406   0.606   1.660 -0.2268 -0.7381 -0.3343
 1018MOL0     C37315  12.492   0.688   1.561  0.1720  0.6937 -0.7155
 1018MOL0     C37316  12.442   0.833   1.568 -1.0030 -0.4130 -0.0542
 1018MOL0     C37317  12.536   0.923   1.489 -0.5539  0.4229 -0.0071
 1018MOL0     C37318  12.551   0.896   1.331 -0.6675 -0.5940 -0.8076
 1018MOL0     O37319  12.639   0.788   1.320 -0.3987 -0.6665  0.0561
 1018MOL0     C37320  12.772   0.819   1.295 -0.1549 -0.7323  0.7960
 1018MOL0     C37321  12.806   0.891   1.184  0.5793 -0.3584 -0.4427
 1018MOL0     C37322  12.940   0.899   1.144  0.2716  0.5670  0.4053
 1018MOL0     C37323  13.040   0.854   1.232  0.1440 -0.0832 -0.6148
 1018MOL0     C37324  13.182   0.867   1.208 -0.0744 -0.1646 -0.0027
 1018MOL0     O37325  13.272   0.798   1.286 -0.0972 -0.3949 -0.6438
 1018MOL0     C37326  13.409   0.816   1.274 -0.7501  0.2676 -0.1116
 1018MOL0     C37327  13.482   0.844   1.155  0.3643  0.4458  0.3323
 1018MOL0     C37328  13.616   0.879   1.170  0.6279  0.2525 -0.8329
 1018MOL0     C37329  13.680   0.854   1.291 -0.5986 -0.4604 -1.3062
 1018MOL0     O37330  13.813   0.878   1.292  0.2024 -0.9893 -0.5220
 1018MOL0     C37331  13.883   0.885   1.415  0.5466 -0.4033  0.2471
 1018MOL0     C37332  14.025   0.920   1.376 -0.4910 -0.5411 -0.3571
 1018MOL0     C37333  14.113   0.896   1.500  0.5973  0.8276 -0.5523
 1018MOL0     C37334  14.270   0.898   1.474 -0.8996 -0.1775  0.4255
 1018MOL0     C37335  14.359   0.847   1.596 -0.0034 -0.0809 -0.0147
 1018MOL0     C37336  14.516   0.840   1.569  0.9340 -0.1323 -0.6508
 1018MOL0     C37337  14.585   0.825   1.708  0.3843  0.2225  0.4400
 1018MOL0     C37338  14.728   0.796   1.700 -0.6427  0.0736  0.3405
 1018MOL0    Cl37339  14.750   0.618   1.657  0.3018  0.5310 -0.4705
 1018MOL0     C37340  13.616   0.808   1.405 -0.1285  0.0626  1.3301
 1018MOL0     C37341  13.478   0.781   1.399 -0.5077 -0.0695  0.0895
 1018MOL0     O37342  13.205   0.944   1.108  0.0689 -0.3325  0.2418
 1018MOL0     C37343  13.004   0.790   1.354  0.0465 -0.3982 -0.2467
 1018MOL0     C37344  12.875   0.763   1.374 -0.2543 -0.3538 -0.4705
 1018MOL0     N37345  12.471   0.535   1.762 -0.0497  0.4020  0.7512
 1018MOL0     N37346  12.379   0.483   1.833 -0.6102  0.4027  0.2120
 1018MOL0     C37347  11.327   0.885   2.262  0.1647 -0.2299  0.4628
 1018MOL0     C37348  11.265   0.992   2.335  0.0758  0.4446 -0.4341
 1018MOL0     C37349  11.086   1.383   2.473  0.1269 -0.2724 -0.3800
 1018MOL0     C37350  11.038   1.339   2.594 -0.6854  0.2404  0.3623
 1018MOL0     C37351  10.948   1.416   2.662 -0.1365  0.7722 -0.3479
 1018MOL0     C37352  10.909   1.537   2.619  0.0896 -0.4563 -0.2425
 1018MOL0     O37353  10.817   1.599   2.689  0.0211  0.4959  0.2181
 1018MOL0     C37354  10.800   1.743   2.667 -0.6020 -0.2951  0.3088
 1018MOL0     C37355  10.713   1.802   2.772  0.1807 -0.4019  0.3297
 1018MOL0     C37356  10.564   1.812   2.734 -1.1474 -0.2554 -0.4791
 1018MOL0     C37357  10.495   1.907   2.838  0.2101  0.1783 -0.4432
 1018MOL0     C37358  10.549   2.047   2.846 -0.2259  0.4498 -1.0691
 1018MOL0     C37359  10.592   2.156   2.865  0.7517 -0.8093  0.3155
 1018MOL0     C37360  10.965   1.586   2.497 -0.6604 -0.6771  1.1551
 1018MOL0     C37361  11.046   1.504   2.419 -1.0709  0.4236  0.2825
 1018MOL0     C37362  11.086   1.546   2.277  0.6007 -0.3336 -0.2196
 1018MOL0     H37363  11.092   1.130   2.078 -0.0141 -2.2888 -2.4313
 1018MOL0     H37364  11.207   0.949   1.958  1.5175  3.4936 -0.5429
 1018MOL0     H37365  11.478   0.668   2.155 -0.9589  1.4418 -0.7130
 1018MOL0     H37366  11.308   0.604   2.164 -2.8927 -0.8279 -3.7949
 1018MOL0     H37367  11.321   0.552   1.912  0.3944  0.6972 -1.4715
 1018MOL0     H37368  11.403   0.444   2.026  3.6254 -0.0063 -0.1535
 1018MOL0     H37369  11.524   0.665   1.851  1.6078  0.2664 -0.3932
 1018MOL0     H37370  11.545   0.491   1.845 -0.1291  0.3996  0.9149
 1018MOL0     H37371  11.663   0.661   2.058 -1.6269 -0.0995 -1.2493
 1018MOL0     H37372  11.679   0.484   2.054  0.2490 -0.2862  1.0439
 1018MOL0     H37373  11.746   0.543   1.805  0.6773  1.0880 -1.2695
 1018MOL0     H37374  11.795   0.688   1.888  0.3953  0.0752  0.3234
 1018MOL0     H37375  11.943   0.540   2.040 -1.6458 -0.5949  0.4002
 1018MOL0     H37376  11.897   0.399   1.941  2.2086 -0.1113 -3.0869
 1018MOL0     H37377  12.042   0.645   1.851  0.8934 -0.0837  4.6234
 1018MOL0     H37378  11.980   0.538   1.736 -0.8966  1.7825  0.0543
 1018MOL0     H37379  12.179   0.458   1.958 -0.1888 -0.4707 -0.3620
 1018MOL0     H37380  12.122   0.350   1.828  4.0333 -1.3043  1.7187
 1018MOL0     H37381  12.196   0.629   1.606  2.6464  2.2976 -1.8154
 1018MOL0     H37382  12.598   0.683   1.589 -0.2399 -2.2187  0.7423
 1018MOL0     H37383  12.481   0.656   1.457 -2.2000  2.4685 -1.0977
 1018MOL0     H37384  12.339   0.841   1.531 -0.9371  2.0449  0.1376
 1018MOL0     H37385  12.439   0.865   1.672 -1.2331  0.6820 -0.3882
 1018MOL0     H37386  12.637   0.919   1.531 -0.4159  3.5825  0.1965
 1018MOL0     H37387  12.502   1.027   1.495 -0.8215  0.2548  1.8238
 1018MOL0     H37388  12.606   0.980   1.288 -0.4631 -0.8275 -1.0013
 1018MOL0     H37389  12.453   0.889   1.284 -0.9534 -0.8128 -0.1931
 1018MOL0     H37390  12.733   0.919   1.109 -0.3516 -3.6481 -0.9113
 1018MOL0     H37391  12.968   0.930   1.043 -2.1858  0.1963 -0.4546
 1018MOL0     H37392  13.438   0.847   1.055 -3.1852 -0.1261  1.7224
 1018MOL0     H37393  13.664   0.909   1.078  0.1082  1.4413 -0.7247
 1018MOL0     H37394  13.843   0.968   1.475  0.1957 -0.7851  0.5474
 1018MOL0     H37395  13.884   0.789   1.468 -0.0837  0.1877  1.3657
 1018MOL0     H37396  14.059   0.848   1.300 -1.2479 -2.0478  0.6826
 1018MOL0     H37397  14.043   1.021   1.337 -3.5154 -0.8398 -2.9496
 1018MOL0     H37398  14.084   0.976   1.569  3.6509  2.2598 -0.7563
 1018MOL0     H37399  14.087   0.797   1.537  0.4249  0.8182 -0.6989
 1018MOL0     H37400  14.298   1.001   1.448 -1.9169 -0.3263 -1.3945
 1018MOL0     H37401  14.301   0.832   1.393  2.4105  1.7836 -0.0901
 1018MOL0     H37402  14.315   0.754   1.632 -2.6094  1.4543  1.0526
 1018MOL0     H37403  14.348   0.918   1.677  0.6377 -2.1117  1.9506
 1018MOL0     H37404  14.526   0.756   1.500 -2.3944 -0.4203 -0.9340
 1018MOL0     H37405  14.558   0.928   1.520 -0.2451  0.2168 -1.0757
 1018MOL0     H37406  14.531   0.740   1.753  0.0245  0.6302  0.7888
 1018MOL0     H37407  14.575   0.917   1.766  0.1861  1.2031 -1.1113
 1018MOL0     H37408  14.753   0.861   1.615  0.7096 -1.9630 -0.9448
 1018MOL0     H37409  14.773   0.832   1.792 -0.1055 -1.8601  0.8723
 1018MOL0     H37410  13.668   0.782   1.497  0.0298 -1.4431  0.8338
 1018MOL0     H37411  13.414   0.754   1.483  0.4382  1.5613  1.3943
 1018MOL0     H37412  13.085   0.761   1.421  2.9066  0.0767 -3.2271
 1018MOL0     H37413  12.843   0.704   1.459  1.7055 -1.5587 -0.5309
 1018MOL0     H37414  11.372   0.804   2.318 -2.2286 -2.7136 -0.9070
 1018MOL0     H37415  11.279   1.001   2.442  0.4873  1.6316 -0.5653
 1018MOL0     H37416  11.062   1.240   2.632 -1.7132 -0.4173 -0.6250
 1018MOL0     H37417  10.908   1.381   2.757 -0.2617  0.3107 -0.5677
 1018MOL0     H37418  10.752   1.741   2.569 -0.2767  0.2220  0.1305
 1018MOL0     H37419  10.898   1.792   2.663 -0.5635 -0.3381 -3.6641
 1018MOL0     H37420  10.753   1.900   2.799  3.2212 -1.4284 -0.0239
 1018MOL0     H37421  10.727   1.746   2.865  1.6052 -0.6834 -0.0292
 1018MOL0     H37422  10.520   1.712   2.735  0.1359 -0.9819  3.3626
 1018MOL0     H37423  10.555   1.848   2.632 -1.4995 -1.1206 -0.7642
 1018MOL0     H37424  10.388   1.900   2.816  0.6666 -3.4815 -2.1961
 1018MOL0     H37425  10.509   1.865   2.939  0.5929  1.4597  0.0573
 1018MOL0     H37426  10.637   2.249   2.895  1.7543 -1.3262  0.4538
 1018MOL0     H37427  10.919   1.678   2.463 -1.1902 -1.0007  0.9999
 1018MOL0     H37428  11.094   1.455   2.217 -2.0202  0.1253 -1.4410
 1018MOL0     H37429  10.996   1.595   2.238 -0.2564 -1.6137  0.1043
 1018MOL0     H37430  11.171   1.615   2.272 -1.0869  1.7770 -2.1065
 1019MOL0     O37431   1.414   9.397   5.014 -0.8684 -0.4651  0.1210
 1019MOL0     C37432   1.365   9.462   4.926 -0.1139  0.4036  0.2583
 1019MOL0     O37433   1.442   9.541   4.841  0.5985  0.3470  0.2685
 1019MOL0     C37434   1.576   9.539   4.854 -0.7068  0.0068 -0.1983
 1019MOL0     C37435   1.640   9.659   4.875 -0.3203 -0.1564 -0.6661
 1019MOL0     C37436   1.776   9.674   4.883 -0.1603  0.4786  0.3934
 1019MOL0     C37437   1.860   9.568   4.850 -0.7025  0.1031 -0.5650
 1019MOL0     O37438   1.996   9.596   4.856  0.0984 -0.6712 -0.1853
 1019MOL0     C37439   2.080   9.513   4.765  0.1125 -0.1616 -1.4932
 1019MOL0     C37440   2.230   9.538   4.795  0.5103 -0.4326 -0.3224
 1019MOL0     C37441   2.276   9.682   4.795 -0.0764  0.0186  0.3798
 1019MOL0     C37442   2.384   9.702   4.685  0.9509  0.2032 -0.2404
 1019MOL0     C37443   2.437   9.848   4.689 -1.0384 -0.6757  0.8511
 1019MOL0     C37444   2.584   9.860   4.638 -0.6897 -0.1822  0.1895
 1019MOL0     C37445   2.652   9.993   4.668  0.0537  0.3114 -0.5585
 1019MOL0     C37446   2.736  10.056   4.552  0.3585 -0.2565 -0.3995
 1019MOL0     N37447   2.870   9.986   4.541 -0.3603 -0.1363 -0.0177
 1019MOL0     C37448   2.962   9.975   4.646 -0.0033  0.7459 -0.0132
 1019MOL0     C37449   3.070   9.912   4.592 -0.3571 -0.3700 -0.0596
 1019MOL0     C37450   3.198   9.860   4.655  0.6496  0.4109 -0.1462
 1019MOL0     C37451   3.306   9.968   4.630  0.2556  0.4169 -0.3807
 1019MOL0     C37452   3.430   9.939   4.725  0.0739 -1.0172 -0.0942
 1019MOL0     C37453   3.538  10.036   4.692 -0.4201 -0.7254 -0.3096
 1019MOL0     O37454   3.645  10.010   4.786 -0.3959  0.8089 -0.3367
 1019MOL0     C37455   3.773  10.064   4.776  0.0666  1.1303  0.1362
 1019MOL0     C37456   3.867  10.054   4.877  0.1480  0.5431 -0.1769
 1019MOL0     C37457   3.999  10.109   4.865 -0.5474 -0.0154  0.0250
 1019MOL0     C37458   4.030  10.203   4.763  0.5549 -0.0194 -0.6492
 1019MOL0     C37459   4.159  10.272   4.746  0.2124 -0.0836 -0.0293
 1019MOL0     O37460   4.242  10.264   4.846 -0.0588 -0.1066  0.4562
 1019MOL0     C37461   4.365  10.328   4.847  0.1800 -0.2661  0.0843
 1019MOL0     C37462   4.382  10.469   4.853 -0.4904  1.0943 -0.6264
 1019MOL0     C37463   4.514  10.522   4.838 -0.0848  1.0955  0.5280
 1019MOL0     C37464   4.626  10.433   4.821 -0.1360 -1.0316 -0.0429
 1019MOL0     O37465   4.747  10.485   4.793  0.0898  0.6274  0.8317
 1019MOL0     C37466   4.865  10.411   4.761  0.7056  0.7713 -0.5167
 1019MOL0     C37467   4.995  10.486   4.721  0.0644 -0.0204 -0.5110
 1019MOL0     C37468   5.119  10.389   4.728  0.6014  0.3019  0.2862
 1019MOL0     C37469   5.249  10.459   4.691 -0.3824  0.3651  0.4365
 1019MOL0     C37470   5.372  10.365   4.718  0.4872  0.0075  0.2541
 1019MOL0     C37471   5.490  10.439   4.650 -1.0416 -0.2295 -0.8504
 1019MOL0     C37472   5.625  10.392   4.703 -0.6685  0.3451  0.1082
 1019MOL0     C37473   5.735  10.449   4.609 -0.3615  0.0987  0.5058
 1019MOL0    Cl37474   5.884  10.371   4.652  0.4220  0.1939 -0.4170
 1019MOL0     C37475   4.608  10.296   4.836 -0.6085  0.1232 -0.2498
 1019MOL0     C37476   4.483  10.248   4.838  0.4656 -0.0282 -0.2398
 1019MOL0     O37477   4.176  10.341   4.648  0.1478 -0.3057 -0.4487
 1019MOL0     C37478   3.931  10.226   4.669 -0.1724 -0.2166 -0.0586
 1019MOL0     C37479   3.809  10.158   4.679  0.0983 -0.6219  0.4140
 1019MOL0     N37480   3.039   9.884   4.454  0.0050  0.1115 -0.0714
 1019MOL0     N37481   2.914   9.920   4.428  0.1781 -0.8762 -0.9017
 1019MOL0     C37482   1.801   9.442   4.838  0.0882  1.0697 -0.6557
 1019MOL0     C37483   1.661   9.429   4.844  0.2242  0.3702 -0.4801
 1019MOL0     C37484   1.218   9.439   4.906 -0.2011 -0.7237  0.3424
 1019MOL0     C37485   1.152   9.337   4.975 -0.2496 -0.2775  0.4626
 1019MOL0     C37486   1.021   9.294   4.940 -0.2641 -0.4184  0.0607
 1019MOL0     C37487   0.936   9.370   4.853 -0.3872 -1.0009 -0.3333
 1019MOL0     O37488   0.803   9.334   4.849  0.0641 -0.0574  0.8024
 1019MOL0     C37489   0.723   9.382   4.738  0.2188 -0.5252 -0.0578
 1019MOL0     C37490   0.591   9.305   4.724 -0.6785 -0.5053 -0.4491
 1019MOL0     C37491   0.519   9.339   4.595 -0.5873 -1.0137 -0.0955
 1019MOL0     C37492   0.369   9.299   4.594 -0.0159  1.3782 -0.0835
 1019MOL0     C37493   0.352   9.154   4.566  0.0735 -0.5604 -0.1336
 1019MOL0     C37494   0.353   9.036   4.562  0.0769  0.0672  0.7352
 1019MOL0     C37495   0.998   9.475   4.797  0.0191 -0.4123  0.0590
 1019MOL0     C37496   1.129   9.511   4.816 -0.2300  0.0468  0.5581
 1019MOL0     C37497   1.180   9.647   4.748  0.2920  0.4520  0.0099
 1019MOL0     H37498   1.587   9.753   4.875  0.8840  0.5522 -1.8432
 1019MOL0     H37499   1.814   9.775   4.896 -0.9355  0.8318 -0.0464
 1019MOL0     H37500   2.064   9.406   4.783 -2.0758  0.7601  3.7806
 1019MOL0     H37501   2.066   9.538   4.659  3.8274  2.9000 -1.4923
 1019MOL0     H37502   2.291   9.480   4.725 -0.8304 -2.0128 -0.2334
 1019MOL0     H37503   2.260   9.499   4.892  6.4372  1.2587 -1.0591
 1019MOL0     H37504   2.323   9.715   4.888 -1.2363 -1.6139  1.5992
 1019MOL0     H37505   2.189   9.747   4.780  0.6009  0.9761  0.5035
 1019MOL0     H37506   2.460   9.633   4.723 -1.1051 -2.2654 -0.3155
 1019MOL0     H37507   2.352   9.674   4.584  1.1728 -2.4585  0.3442
 1019MOL0     H37508   2.369   9.909   4.629 -0.2091  0.2010  0.7867
 1019MOL0     H37509   2.435   9.895   4.787  0.6252  2.7149 -0.5689
 1019MOL0     H37510   2.637   9.776   4.684  0.6947  0.5250 -0.0815
 1019MOL0     H37511   2.593   9.844   4.530 -2.2438  0.4412 -0.0692
 1019MOL0     H37512   2.716   9.997   4.757  0.3924  0.9391 -0.8182
 1019MOL0     H37513   2.580  10.072   4.692 -0.5301 -0.7077  1.1952
 1019MOL0     H37514   2.682  10.049   4.457  1.2272 -1.2842 -0.8453
 1019MOL0     H37515   2.754  10.161   4.573  0.9875 -0.6143  0.9222
 1019MOL0     H37516   2.950  10.001   4.751  0.3034  2.0030 -0.2795
 1019MOL0     H37517   3.182   9.839   4.761 -0.3205 -0.4957 -0.4568
 1019MOL0     H37518   3.229   9.766   4.607  0.8467  1.3644 -1.9525
 1019MOL0     H37519   3.334   9.971   4.525  2.0368  1.1120  0.0732
 1019MOL0     H37520   3.259  10.067   4.638 -2.2853 -0.4503 -2.8106
 1019MOL0     H37521   3.457   9.836   4.702 -0.1568 -0.9368 -0.7650
 1019MOL0     H37522   3.396   9.958   4.827 -1.6218  2.7692 -1.1828
 1019MOL0     H37523   3.505  10.140   4.692  1.2714 -0.1116 -2.2638
 1019MOL0     H37524   3.573  10.018   4.590 -0.2382  0.7946 -0.5501
 1019MOL0     H37525   3.852  10.011   4.975 -1.6297 -0.2251 -0.7562
 1019MOL0     H37526   4.073  10.084   4.941  0.0698 -1.8273 -1.1124
 1019MOL0     H37527   4.302  10.542   4.861  0.3465  1.9476  0.3692
 1019MOL0     H37528   4.516  10.627   4.811  0.7436  0.8568 -0.4143
 1019MOL0     H37529   4.891  10.347   4.845 -1.5895  1.2953  0.6781
 1019MOL0     H37530   4.840  10.339   4.683 -0.1684 -1.0596  1.3592
 1019MOL0     H37531   4.999  10.529   4.621  0.2715 -0.1323 -0.5514
 1019MOL0     H37532   5.015  10.567   4.793  0.3471 -0.3821 -0.1759
 1019MOL0     H37533   5.143  10.351   4.828 -0.1342  2.7446  1.4771
 1019MOL0     H37534   5.099  10.311   4.654 -3.5868 -0.3514  1.8522
 1019MOL0     H37535   5.267  10.549   4.752  1.6713  2.0476 -2.4006
 1019MOL0     H37536   5.242  10.491   4.587  0.4531 -0.4222  0.1365
 1019MOL0     H37537   5.363  10.270   4.664  0.7179 -0.3795  0.8746
 1019MOL0     H37538   5.391  10.342   4.823  0.9801 -0.0423  0.1581
 1019MOL0     H37539   5.476  10.421   4.543  0.9571 -0.3644 -1.1229
 1019MOL0     H37540   5.482  10.545   4.674 -0.4105 -0.9437  3.3926
 1019MOL0     H37541   5.618  10.283   4.696  1.3393 -0.2935  4.4423
 1019MOL0     H37542   5.638  10.427   4.806 -1.0262  2.2783 -0.4540
 1019MOL0     H37543   5.722  10.420   4.504 -0.6600 -2.5924  1.2002
 1019MOL0     H37544   5.745  10.558   4.602  1.5636 -0.0738 -5.0694
 1019MOL0     H37545   4.698  10.237   4.850  1.6514  3.0086 -1.5588
 1019MOL0     H37546   4.469  10.140   4.847 -1.6130 -0.0473 -2.6966
 1019MOL0     H37547   3.950  10.300   4.591 -1.9591 -1.3740 -1.6886
 1019MOL0     H37548   3.733  10.178   4.604 -0.4816 -0.3820  1.0534
 1019MOL0     H37549   1.856   9.352   4.815  0.2183  0.3627  2.0343
 1019MOL0     H37550   1.620   9.334   4.813  1.3517 -0.1715 -0.3559
 1019MOL0     H37551   1.202   9.279   5.052  2.7031 -2.4601 -2.7875
 1019MOL0     H37552   0.977   9.212   4.996  1.7614 -1.0240  0.8802
 1019MOL0     H37553   0.783   9.361   4.649  2.2980 -0.5279  1.2847
 1019MOL0     H37554   0.698   9.488   4.751 -0.9342 -0.8437  0.4694
 1019MOL0     H37555   0.525   9.320   4.810 -0.8713  0.1600 -0.7071
 1019MOL0     H37556   0.626   9.201   4.721  4.9477  0.5867  5.0480
 1019MOL0     H37557   0.572   9.317   4.502  0.7501  1.3209  0.0439
 1019MOL0     H37558   0.527   9.448   4.598 -0.1535 -1.0136 -1.0452
 1019MOL0     H37559   0.335   9.318   4.696 -3.9882  0.9257 -1.1494
 1019MOL0     H37560   0.321   9.354   4.513  0.1451 -0.1589 -1.2627
 1019MOL0     H37561   0.342   8.931   4.549 -1.8266  0.3334 -0.0123
 1019MOL0     H37562   0.925   9.538   4.748 -1.8173 -1.5439  1.2097
 1019MOL0     H37563   1.269   9.636   4.685 -0.6012  1.7179 -1.5601
 1019MOL0     H37564   1.101   9.670   4.675 -0.7256 -0.4950  0.7852
 1019MOL0     H37565   1.189   9.725   4.824 -2.0213  2.4026 -1.5548
 1020MOL0     O37566  10.507   3.406   9.121  0.2759  0.3777 -0.0388
 1020MOL0     C37567  10.543   3.306   9.064 -0.7494  0.0581  0.0616
 1020MOL0     O37568  10.670   3.260   9.049 -0.3141 -0.0576 -0.1071
 1020MOL0     C37569  10.773   3.335   9.107  0.2475  0.4621 -0.2238
 1020MOL0     C37570  10.777   3.359   9.242 -0.4668 -0.3008  0.8332
 1020MOL0     C37571  10.874   3.443   9.298 -0.2233 -0.2629  0.7233
 1020MOL0     C37572  10.964   3.510   9.213 -0.3609  0.0461 -0.8456
 1020MOL0     O37573  11.065   3.604   9.247  0.1453  0.9270 -0.4785
 1020MOL0     C37574  11.042   3.671   9.371  0.3995  0.2468  0.2924
 1020MOL0     C37575  11.147   3.636   9.478 -0.6964 -0.4301  0.1702
 1020MOL0     C37576  11.296   3.631   9.426  0.0663 -0.8594  0.1592
 1020MOL0     C37577  11.398   3.591   9.535  0.7847  0.1418 -0.2561
 1020MOL0     C37578  11.539   3.597   9.491 -0.0767 -1.1320  0.1969
 1020MOL0     C37579  11.631   3.538   9.587  0.1179 -0.3148 -0.3176
 1020MOL0     C37580  11.779   3.585   9.555  0.4163  0.4118 -0.2851
 1020MOL0     C37581  11.817   3.701   9.642  0.7662  0.3382  0.3226
 1020MOL0     N37582  11.961   3.727   9.642 -0.2836  0.9438  0.0321
 1020MOL0     C37583  12.034   3.772   9.534  0.1209  0.4993 -0.7252
 1020MOL0     C37584  12.162   3.787   9.585  0.1461 -0.7017  0.0150
 1020MOL0     C37585  12.282   3.841   9.494 -0.1558 -0.3185 -0.7108
 1020MOL0     C37586  12.287   3.997   9.478 -0.4120  0.2122  0.0265
 1020MOL0     C37587  12.165   4.049   9.405  0.1571 -0.0263  0.2733
 1020MOL0     C37588  12.185   4.189   9.354 -0.8818  0.5536 -0.1883
 1020MOL0     O37589  12.097   4.216   9.247 -0.5207 -0.1110  0.6764
 1020MOL0     C37590  11.971   4.162   9.233  0.4654 -0.3158 -0.2008
 1020MOL0     C37591  11.874   4.177   9.334  0.0375  0.3425  0.1098
 1020MOL0     C37592  11.741   4.145   9.306 -0.2620 -0.1317 -0.7868
 1020MOL0     C37593  11.704   4.087   9.184 -0.4719 -0.5515 -0.6896
 1020MOL0     C37594  11.564   4.029   9.156 -0.3450 -0.3072  0.4356
 1020MOL0     O37595  11.508   4.056   9.037  0.0208 -0.1290  0.1959
 1020MOL0     C37596  11.383   4.011   8.991 -0.0713 -0.1539  1.2124
 1020MOL0     C37597  11.319   4.066   8.879  0.3822 -0.3230  0.7110
 1020MOL0     C37598  11.200   4.010   8.831 -0.0727  0.5456 -0.2337
 1020MOL0     C37599  11.152   3.897   8.880 -1.1791  0.0883 -0.1497
 1020MOL0     O37600  11.042   3.861   8.818 -0.3864  0.1362 -0.1693
 1020MOL0     C37601  10.946   3.785   8.887 -0.9180  0.1395 -0.0878
 1020MOL0     C37602  10.811   3.803   8.814  0.6442 -0.3559  0.1212
 1020MOL0     C37603  10.704   3.723   8.876  0.6323  0.0755 -0.8070
 1020MOL0     C37604  10.573   3.712   8.791  0.0794  0.2901  0.7157
 1020MOL0     C37605  10.501   3.849   8.783 -0.5145  0.0331 -0.1361
 1020MOL0     C37606  10.404   3.872   8.667  0.0073 -0.4068  0.4594
 1020MOL0     C37607  10.402   4.019   8.626  0.6847  0.1704 -0.1132
 1020MOL0     C37608  10.275   4.047   8.547  0.4289  0.0934 -0.0577
 1020MOL0    Cl37609  10.297   4.001   8.372  0.4389 -0.2949  0.2090
 1020MOL0     C37610  11.207   3.834   8.989 -0.2707 -0.6315 -0.0217
 1020MOL0     C37611  11.324   3.894   9.045  0.3925  0.6346 -0.1483
 1020MOL0     O37612  11.506   3.979   9.248  0.7213  0.2345  0.4921
 1020MOL0     C37613  11.805   4.077   9.092 -0.1829  0.2306 -0.0294
 1020MOL0     C37614  11.931   4.115   9.108 -0.2284 -0.0718 -0.7232
 1020MOL0     N37615  12.162   3.763   9.723 -0.4585 -0.2546  0.4194
 1020MOL0     N37616  12.046   3.723   9.755 -0.3816  0.7619  0.8205
 1020MOL0     C37617  10.965   3.475   9.077 -0.1650  0.5400 -0.2359
 1020MOL0     C37618  10.872   3.376   9.029 -0.4379  0.0755  0.5008
 1020MOL0     C37619  10.431   3.222   9.005 -0.6057  0.5891  0.1245
 1020MOL0     C37620  10.452   3.078   9.004 -0.2211 -0.3462 -0.2797
 1020MOL0     C37621  10.359   2.994   8.953 -1.1196 -0.5010 -0.2575
 1020MOL0     C37622  10.239   3.039   8.903  0.1045  0.0172 -0.0724
 1020MOL0     O37623  10.150   2.948   8.845  0.3813 -0.3842 -0.5027
 1020MOL0     C37624  10.012   2.980   8.824 -0.2619  0.0131  0.5927
 1020MOL0     C37625   9.921   2.992   8.951  0.6539 -0.6388  0.3878
 1020MOL0     C37626   9.771   2.969   8.917  0.1986  0.5349 -0.1293
 1020MOL0     C37627   9.686   2.988   9.034 -0.2470 -0.1344  0.0360
 1020MOL0     C37628   9.695   2.884   9.137 -1.2634 -0.4182 -0.5505
 1020MOL0     C37629   9.715   2.808   9.228 -0.4586 -0.0506  0.2268
 1020MOL0     C37630  10.209   3.173   8.913 -0.1196 -0.6165 -0.2287
 1020MOL0     C37631  10.304   3.269   8.969  0.4082 -1.1148 -0.7131
 1020MOL0     C37632  10.265   3.413   8.962 -0.0620 -0.2653 -0.0832
 1020MOL0     H37633  10.711   3.309   9.311 -0.1883 -3.1428 -0.7938
 1020MOL0     H37634  10.880   3.453   9.406  1.4034  2.6118  0.4704
 1020MOL0     H37635  11.052   3.778   9.352 -3.1960  0.2256 -3.0355
 1020MOL0     H37636  10.941   3.653   9.409  0.7426 -1.2221  0.5680
 1020MOL0     H37637  11.117   3.544   9.529 -2.2573  0.9149  1.8174
 1020MOL0     H37638  11.152   3.714   9.554  0.7777  1.1496 -1.4455
 1020MOL0     H37639  11.334   3.728   9.393 -1.6384  0.6166  2.2516
 1020MOL0     H37640  11.302   3.560   9.343  0.0061 -1.6399  0.8198
 1020MOL0     H37641  11.383   3.663   9.616 -0.2151  1.0760 -1.2380
 1020MOL0     H37642  11.367   3.490   9.561 -0.0309 -0.7258 -4.0213
 1020MOL0     H37643  11.537   3.540   9.397 -3.3404 -1.6765  0.4672
 1020MOL0     H37644  11.560   3.700   9.462 -3.6761  0.0962  1.4205
 1020MOL0     H37645  11.605   3.559   9.691 -0.6119 -0.5282 -0.4501
 1020MOL0     H37646  11.626   3.430   9.573 -1.2645 -0.1447 -1.4296
 1020MOL0     H37647  11.794   3.610   9.450 -0.9662 -2.8291 -1.3942
 1020MOL0     H37648  11.838   3.499   9.588  1.2524  0.8849 -0.5439
 1020MOL0     H37649  11.773   3.797   9.612  0.0082  0.0128  0.3521
 1020MOL0     H37650  11.773   3.693   9.742 -0.1987 -1.8611 -0.2138
 1020MOL0     H37651  11.985   3.801   9.442 -1.9744  1.6238  0.6646
 1020MOL0     H37652  12.380   3.818   9.537  0.3276  1.3859 -0.7938
 1020MOL0     H37653  12.271   3.793   9.396  2.0006 -2.5739  0.0645
 1020MOL0     H37654  12.289   4.035   9.581  0.0117 -0.7415  0.3876
 1020MOL0     H37655  12.386   4.018   9.437 -0.6165 -0.7180 -0.9883
 1020MOL0     H37656  12.073   4.027   9.460  0.4712 -3.9627 -0.4829
 1020MOL0     H37657  12.147   3.989   9.315 -1.9946  1.5838 -0.4526
 1020MOL0     H37658  12.292   4.191   9.329 -0.6634  0.1941  0.6995
 1020MOL0     H37659  12.162   4.262   9.432 -2.9277 -0.5561  0.2959
 1020MOL0     H37660  11.909   4.220   9.427  0.9327  1.1380 -0.5783
 1020MOL0     H37661  11.666   4.181   9.375  1.9426  2.0894  0.6239
 1020MOL0     H37662  11.369   4.150   8.831 -1.1846  0.0324 -0.3810
 1020MOL0     H37663  11.152   4.059   8.747 -3.2286 -1.6415  0.1371
 1020MOL0     H37664  10.968   3.678   8.885  0.5163  0.4299 -2.0890
 1020MOL0     H37665  10.937   3.822   8.990 -1.5532  1.0505 -0.4540
 1020MOL0     H37666  10.781   3.908   8.809 -1.3118 -0.9186 -3.5881
 1020MOL0     H37667  10.826   3.775   8.709  0.7757 -1.0160  0.3156
 1020MOL0     H37668  10.743   3.622   8.891  2.7608  0.4409 -3.1501
 1020MOL0     H37669  10.676   3.755   8.977  0.9280  0.6234 -0.8937
 1020MOL0     H37670  10.519   3.623   8.825 -1.0100  0.7577  0.2693
 1020MOL0     H37671  10.604   3.692   8.688  1.8063  3.8812  0.3794
 1020MOL0     H37672  10.583   3.921   8.771 -0.5083 -0.1365 -1.2748
 1020MOL0     H37673  10.446   3.859   8.877  1.7711  1.4560  1.1459
 1020MOL0     H37674  10.440   3.822   8.577 -1.7164 -0.6007 -0.1719
 1020MOL0     H37675  10.306   3.827   8.687  0.2761 -1.2775 -0.1550
 1020MOL0     H37676  10.490   4.059   8.574  0.5924  3.7757  2.1688
 1020MOL0     H37677  10.402   4.075   8.719 -1.4165  2.6091 -1.4726
 1020MOL0     H37678  10.197   3.985   8.594  1.9573 -1.1851  0.9363
 1020MOL0     H37679  10.262   4.155   8.541  1.4440  0.1280 -2.6631
 1020MOL0     H37680  11.177   3.734   9.019  2.1123 -1.1521  0.8309
 1020MOL0     H37681  11.372   3.829   9.117  1.1898  1.2510 -0.1037
 1020MOL0     H37682  11.785   4.039   8.992 -0.3938  3.0506 -1.1402
 1020MOL0     H37683  12.000   4.111   9.025 -1.7531 -0.9364 -1.9968
 1020MOL0     H37684  11.049   3.518   9.022  1.0933  0.4396  1.5150
 1020MOL0     H37685  10.884   3.348   8.925  1.0955  0.6531  0.4929
 1020MOL0     H37686  10.550   3.038   9.028 -0.4222 -1.0511 -0.5989
 1020MOL0     H37687  10.396   2.892   8.958 -1.6741 -0.6625  1.9089
 1020MOL0     H37688   9.974   2.903   8.756 -1.8431  1.2829 -0.0450
 1020MOL0     H37689   9.995   3.071   8.765 -0.3346 -1.7756 -2.3564
 1020MOL0     H37690   9.943   3.084   9.006 -3.2325  0.7304 -0.0239
 1020MOL0     H37691   9.954   2.914   9.021 -0.3559 -3.3921 -2.0219
 1020MOL0     H37692   9.754   2.868   8.877 -0.4481  0.7784 -0.4875
 1020MOL0     H37693   9.752   3.037   8.834  1.5336  1.1425  0.0437
 1020MOL0     H37694   9.707   3.084   9.081 -2.2278 -0.6469  2.1379
 1020MOL0     H37695   9.582   2.987   9.000  0.3374 -0.2660 -1.8940
 1020MOL0     H37696   9.741   2.733   9.301 -2.1726 -0.2097  0.7267
 1020MOL0     H37697  10.118   3.216   8.872 -0.6277 -2.6620 -1.4207
 1020MOL0     H37698  10.201   3.434   8.877  0.8522  0.8082 -0.5315
 1020MOL0     H37699  10.214   3.447   9.053 -1.8905 -1.1672 -0.7301
 1020MOL0     H37700  10.356   3.472   8.949 -0.6829  0.7799  0.2425
 1021MOL0     O37701   5.637   9.171   3.752  0.0091  0.1042 -0.5124
 1021MOL0     C37702   5.607   9.072   3.686 -0.3981  0.2733 -0.5821
 1021MOL0     O37703   5.685   9.006   3.601  0.2461  0.1259 -0.2660
 1021MOL0     C37704   5.816   8.992   3.634  0.3114  0.2694 -0.6165
 1021MOL0     C37705   5.854   8.976   3.771 -0.4592  1.2205 -0.2655
 1021MOL0     C37706   5.986   8.977   3.806  0.3188 -0.1458  1.1035
 1021MOL0     C37707   6.084   8.962   3.706  1.0556  0.7165  0.0895
 1021MOL0     O37708   6.210   8.956   3.753 -0.1084 -0.0725 -0.9967
 1021MOL0     C37709   6.322   8.940   3.665 -0.0094  0.0341  0.1875
 1021MOL0     C37710   6.342   9.087   3.612 -0.0484  0.9047  0.0919
 1021MOL0     C37711   6.472   9.081   3.522  0.5105 -0.3608  0.2769
 1021MOL0     C37712   6.515   9.223   3.498  0.4543 -0.8725  0.7686
 1021MOL0     C37713   6.458   9.279   3.371 -0.3544 -0.2505  0.0268
 1021MOL0     C37714   6.561   9.378   3.312  0.2727 -0.0490  0.2299
 1021MOL0     C37715   6.497   9.456   3.196  0.0068 -0.2051 -0.0293
 1021MOL0     C37716   6.597   9.564   3.136  0.4413  1.0299 -0.0090
 1021MOL0     N37717   6.691   9.508   3.037 -0.3696  0.6985  0.1511
 1021MOL0     C37718   6.835   9.486   3.056  0.5431 -0.1736  0.1357
 1021MOL0     C37719   6.886   9.473   2.929  0.1081  0.4161 -0.2902
 1021MOL0     C37720   7.030   9.434   2.891  0.3074 -0.1299  0.2658
 1021MOL0     C37721   7.114   9.556   2.857  0.0149  0.6451 -0.4700
 1021MOL0     C37722   7.135   9.627   2.987 -0.0251 -0.2446 -0.2145
 1021MOL0     C37723   7.266   9.721   2.980 -1.1694  0.1372 -0.1880
 1021MOL0     O37724   7.379   9.626   2.997  0.1380  0.3353  0.0159
 1021MOL0     C37725   7.500   9.677   2.964  0.3123 -0.5194 -0.2340
 1021MOL0     C37726   7.567   9.755   3.056 -0.1649 -0.8104 -0.1117
 1021MOL0     C37727   7.682   9.817   3.029 -1.5747  0.3719  0.4803
 1021MOL0     C37728   7.743   9.810   2.904  0.0649  0.1324 -0.8734
 1021MOL0     C37729   7.860   9.899   2.871  0.6145  0.2166  0.7457
 1021MOL0     O37730   7.855  10.021   2.930 -1.2321 -0.4016 -0.0956
 1021MOL0     C37731   7.953  10.122   2.926 -0.7380 -0.0599 -0.0011
 1021MOL0     C37732   8.060  10.130   2.834 -0.1064  0.8987 -0.3714
 1021MOL0     C37733   8.161  10.232   2.841  0.0906  0.5746 -0.6618
 1021MOL0     C37734   8.141  10.341   2.923 -0.0772  0.3288 -0.1803
 1021MOL0     O37735   8.247  10.423   2.923 -0.0370 -0.5742 -0.3983
 1021MOL0     C37736   8.228  10.562   2.923  0.9635  1.1216 -0.7419
 1021MOL0     C37737   8.253  10.615   2.789 -0.3359  0.1883 -0.6151
 1021MOL0     C37738   8.389  10.675   2.761 -0.5607 -0.0571 -0.2550
 1021MOL0     C37739   8.428  10.800   2.837 -0.1503 -0.3359  0.4126
 1021MOL0     C37740   8.564  10.863   2.791  0.9368 -0.4964 -1.3403
 1021MOL0     C37741   8.622  10.952   2.899  0.0275  0.0481 -0.0498
 1021MOL0     C37742   8.762  11.023   2.863  1.4794  1.3595 -0.4052
 1021MOL0     C37743   8.850  11.044   2.987 -0.7374  0.4538  0.0664
 1021MOL0    Cl37744   8.991  11.134   2.918  0.1782 -0.4794  0.2518
 1021MOL0     C37745   8.036  10.335   3.015 -0.0939  0.2927  0.4713
 1021MOL0     C37746   7.948  10.224   3.027 -0.4070 -0.1133 -0.3522
 1021MOL0     O37747   7.930   9.851   2.776  0.1417  0.1821 -0.2769
 1021MOL0     C37748   7.686   9.730   2.810  0.8295 -0.7483  0.1135
 1021MOL0     C37749   7.564   9.658   2.842  0.3034 -0.0253 -0.1070
 1021MOL0     N37750   6.773   9.483   2.843 -1.0825 -0.3961 -0.1907
 1021MOL0     N37751   6.665   9.508   2.907  0.4638  0.0258  0.1359
 1021MOL0     C37752   6.045   8.954   3.573 -0.1558 -0.5637  0.4304
 1021MOL0     C37753   5.918   8.976   3.539 -0.3347  0.3457  1.0397
 1021MOL0     C37754   5.466   9.040   3.682 -0.5845  0.0724  0.9278
 1021MOL0     C37755   5.410   8.999   3.562 -0.0891  0.0490 -0.1078
 1021MOL0     C37756   5.274   8.987   3.549  0.2152  0.1065 -0.6179
 1021MOL0     C37757   5.186   9.017   3.651 -0.5800 -0.6005 -0.6825
 1021MOL0     O37758   5.048   9.015   3.653  1.0361  0.4732 -0.0613
 1021MOL0     C37759   4.981   8.999   3.528  0.2200  0.3202 -0.8584
 1021MOL0     C37760   4.831   9.037   3.551  0.3675  0.2556 -0.0732
 1021MOL0     C37761   4.747   8.926   3.609 -0.0223  0.7301 -0.1106
 1021MOL0     C37762   4.778   8.891   3.753 -0.5973  0.4494 -0.2616
 1021MOL0     C37763   4.687   8.807   3.842 -0.4555 -0.0130 -0.4932
 1021MOL0     C37764   4.621   8.734   3.907 -0.1659  0.0090  0.1619
 1021MOL0     C37765   5.249   9.042   3.778  0.7041  0.6363 -0.3392
 1021MOL0     C37766   5.388   9.055   3.790  0.8273  0.1410 -0.2170
 1021MOL0     C37767   5.441   9.069   3.930 -0.4138  0.2533 -0.2774
 1021MOL0     H37768   5.786   8.966   3.855 -1.3369 -0.7433 -1.1386
 1021MOL0     H37769   6.012   8.979   3.912  1.9212 -0.3938  0.7388
 1021MOL0     H37770   6.412   8.908   3.717 -0.0190 -0.4020 -0.0588
 1021MOL0     H37771   6.311   8.867   3.584 -0.6419  2.5553 -2.1616
 1021MOL0     H37772   6.361   9.150   3.700  3.0485 -1.6871  1.4862
 1021MOL0     H37773   6.259   9.119   3.549  0.0240  1.9640  0.5142
 1021MOL0     H37774   6.456   9.016   3.435  1.3884 -2.5603  1.6840
 1021MOL0     H37775   6.560   9.036   3.569  0.7390 -0.8224 -0.5629
 1021MOL0     H37776   6.487   9.298   3.572 -0.0316 -0.9408  0.6559
 1021MOL0     H37777   6.624   9.218   3.489  0.3018 -4.0876 -0.7049
 1021MOL0     H37778   6.455   9.200   3.295 -1.0359  0.6206 -0.8793
 1021MOL0     H37779   6.354   9.305   3.393 -0.3806 -1.3141  1.3138
 1021MOL0     H37780   6.586   9.452   3.388  0.3426 -2.0618  2.2685
 1021MOL0     H37781   6.659   9.339   3.284  1.5677  1.5521  2.2837
 1021MOL0     H37782   6.404   9.506   3.227 -0.1038 -1.0908  1.1514
 1021MOL0     H37783   6.474   9.390   3.112  1.4839  0.8933 -1.3617
 1021MOL0     H37784   6.536   9.642   3.089 -0.3101  0.3562 -0.1911
 1021MOL0     H37785   6.656   9.604   3.218 -0.7816  2.7323  0.0873
 1021MOL0     H37786   6.883   9.477   3.153 -0.0131  0.5962  0.4919
 1021MOL0     H37787   7.075   9.371   2.969 -0.3951 -1.4121 -0.3308
 1021MOL0     H37788   7.014   9.368   2.805 -2.4772 -0.3481  0.8522
 1021MOL0     H37789   7.207   9.511   2.821  0.4008 -1.2578  2.6018
 1021MOL0     H37790   7.062   9.620   2.784 -1.3771 -0.5165 -0.5334
 1021MOL0     H37791   7.146   9.546   3.060 -2.0416 -0.4549 -0.0691
 1021MOL0     H37792   7.047   9.685   3.018 -0.0664  0.7189 -2.0159
 1021MOL0     H37793   7.271   9.794   3.061  2.5965  0.6082 -0.6582
 1021MOL0     H37794   7.271   9.777   2.886 -1.1502  2.8444  1.3479
 1021MOL0     H37795   7.517   9.785   3.147 -1.0319  1.0213 -1.1330
 1021MOL0     H37796   7.732   9.871   3.109  1.4899  1.2976 -1.8564
 1021MOL0     H37797   8.076  10.054   2.758  1.2306 -0.2254  0.9631
 1021MOL0     H37798   8.250  10.211   2.783  0.3144  0.9985 -0.4795
 1021MOL0     H37799   8.128  10.581   2.962  1.0369 -1.7587  1.1297
 1021MOL0     H37800   8.292  10.607   3.000 -1.6790  1.9478  1.0979
 1021MOL0     H37801   8.211  10.546   2.715 -1.7474 -1.0938  1.2746
 1021MOL0     H37802   8.179  10.697   2.784 -0.8208 -0.2543 -0.7859
 1021MOL0     H37803   8.458  10.593   2.785  2.5725  2.1586 -1.0665
 1021MOL0     H37804   8.400  10.714   2.659 -0.8128 -1.0468 -0.6747
 1021MOL0     H37805   8.417  10.782   2.944  2.7207  0.0586  0.8546
 1021MOL0     H37806   8.350  10.872   2.811  1.2095  0.2377 -2.5301
 1021MOL0     H37807   8.545  10.924   2.703 -4.3059  0.9073  0.4300
 1021MOL0     H37808   8.644  10.791   2.772  1.6251  0.0949 -0.7658
 1021MOL0     H37809   8.550  11.025   2.938 -0.7707 -1.6647  1.8989
 1021MOL0     H37810   8.651  10.893   2.986 -0.3193  0.8295  0.6137
 1021MOL0     H37811   8.740  11.120   2.819  0.0860  1.9339  1.4294
 1021MOL0     H37812   8.829  10.977   2.789  2.6443 -2.1282  2.5212
 1021MOL0     H37813   8.792  11.108   3.054 -2.2499  1.1625 -1.8340
 1021MOL0     H37814   8.881  10.949   3.031  1.9472  1.5051  0.6630
 1021MOL0     H37815   8.032  10.405   3.098  1.2183 -1.3090  1.9858
 1021MOL0     H37816   7.879  10.210   3.110 -0.5392  1.0486 -0.2498
 1021MOL0     H37817   7.722   9.732   2.708 -0.6973  0.2095 -0.4392
 1021MOL0     H37818   7.514   9.595   2.770 -1.6651  1.0963  0.2077
 1021MOL0     H37819   6.120   8.948   3.494  1.0575 -1.7106  1.6096
 1021MOL0     H37820   5.868   8.973   3.442 -0.8558 -2.7619  1.2983
 1021MOL0     H37821   5.478   8.993   3.478  0.6151  0.8018  0.3917
 1021MOL0     H37822   5.235   8.935   3.462 -0.4239 -2.3499  1.0372
 1021MOL0     H37823   4.992   8.901   3.481  0.7990 -1.4105  2.5564
 1021MOL0     H37824   5.014   9.075   3.457  0.9534 -1.5102 -2.5391
 1021MOL0     H37825   4.799   9.048   3.447 -1.2917 -1.3694  0.2027
 1021MOL0     H37826   4.826   9.130   3.609  1.9726  0.1182  0.3233
 1021MOL0     H37827   4.756   8.844   3.537 -2.2586 -0.0795  0.4452
 1021MOL0     H37828   4.641   8.954   3.608 -0.7113 -1.3314  2.9449
 1021MOL0     H37829   4.875   8.842   3.749  0.4276  2.3001  0.5275
 1021MOL0     H37830   4.802   8.984   3.805  1.5778  2.1208 -3.8571
 1021MOL0     H37831   4.575   8.668   3.978  0.7377 -0.1429  0.6283
 1021MOL0     H37832   5.187   9.064   3.864 -0.5175 -0.5408 -0.8774
 1021MOL0     H37833   5.365   9.037   4.002 -1.9955 -2.1391 -2.8401
 1021MOL0     H37834   5.521   8.998   3.955  0.3378  1.7355  1.9142
 1021MOL0     H37835   5.464   9.176   3.941 -1.5281  0.4171  0.5592
 1022MOL0     O37836   6.068   0.118   4.184 -0.1041  0.0177  0.2134
 1022MOL0     C37837   6.072  -0.001   4.151  0.7340  0.0241 -0.6641
 1022MOL0     O37838   5.968  -0.069   4.108 -0.6524 -0.4700  0.2044
 1022MOL0     C37839   5.838  -0.021   4.100 -0.5832 -0.6333 -0.0479
 1022MOL0     C37840   5.739  -0.093   4.172 -0.6299  0.4912 -0.1420
 1022MOL0     C37841   5.603  -0.059   4.153 -0.3287  0.9885 -0.4731
 1022MOL0     C37842   5.566   0.050   4.068 -0.2303  0.4165 -0.0945
 1022MOL0     O37843   5.437   0.089   4.038 -0.2836 -0.4290  0.6177
 1022MOL0     C37844   5.339   0.026   4.122 -0.3939 -0.2624 -0.2077
 1022MOL0     C37845   5.205   0.095   4.118 -0.1064  0.6127  0.1693
 1022MOL0     C37846   5.105   0.007   4.207  0.4116 -0.1792  0.2440
 1022MOL0     C37847   5.064   0.102   4.323  0.0724 -0.4223  0.5356
 1022MOL0     C37848   4.941   0.028   4.387  0.0118 -0.1665 -0.6683
 1022MOL0     C37849   4.811   0.098   4.365  0.5765 -0.2941 -0.5757
 1022MOL0     C37850   4.678   0.044   4.430 -0.1586 -0.0024  0.3486
 1022MOL0     C37851   4.641  -0.091   4.380  0.1200 -0.3584  0.2531
 1022MOL0     N37852   4.571  -0.072   4.254 -0.4107 -0.5728  0.2533
 1022MOL0     C37853   4.626  -0.064   4.127 -0.0592 -0.3074 -0.0684
 1022MOL0     C37854   4.517  -0.072   4.041 -0.0858  0.2000 -0.1127
 1022MOL0     C37855   4.537  -0.076   3.895 -0.5955 -0.2176  0.2292
 1022MOL0     C37856   4.623   0.048   3.850 -0.5312  0.3318  0.5629
 1022MOL0     C37857   4.602   0.060   3.696  0.5118 -0.4147 -1.0889
 1022MOL0     C37858   4.464   0.067   3.634  0.2928  0.2993 -0.2353
 1022MOL0     O37859   4.382   0.161   3.704 -0.3096 -0.3868  0.2813
 1022MOL0     C37860   4.243   0.153   3.710 -0.0115 -0.3757 -0.7272
 1022MOL0     C37861   4.192   0.178   3.834 -0.2029  0.4328  0.3396
 1022MOL0     C37862   4.052   0.160   3.842  0.1812  0.4913  0.7217
 1022MOL0     C37863   3.975   0.119   3.732 -0.2898 -0.0510  0.5821
 1022MOL0     C37864   3.824   0.117   3.745  0.8560  0.7755  0.3089
 1022MOL0     O37865   3.745   0.074   3.640 -0.8143  0.3604 -0.4178
 1022MOL0     C37866   3.608   0.050   3.660 -0.2066 -0.3664  0.4910
 1022MOL0     C37867   3.527   0.134   3.746  0.0452 -0.2086  0.5453
 1022MOL0     C37868   3.396   0.106   3.768 -0.2636  0.6396 -0.5062
 1022MOL0     C37869   3.337  -0.003   3.704  0.8422  0.2839 -0.5585
 1022MOL0     O37870   3.200  -0.035   3.716 -0.2896 -0.1111 -0.4601
 1022MOL0     C37871   3.125   0.030   3.818  0.2212  0.6157  0.1540
 1022MOL0     C37872   2.982  -0.037   3.824  0.0785 -0.4174  0.8332
 1022MOL0     C37873   2.912   0.000   3.957 -0.9395 -1.5202 -0.7616
 1022MOL0     C37874   2.791  -0.091   3.981  0.5868  0.2482 -0.8243
 1022MOL0     C37875   2.731  -0.080   4.133 -0.3026 -0.9203  1.0289
 1022MOL0     C37876   2.654   0.047   4.165 -0.4020  0.0145 -0.0093
 1022MOL0     C37877   2.606   0.057   4.318 -0.3040 -0.9742 -0.9203
 1022MOL0     C37878   2.503   0.175   4.339 -0.7262  0.4324  0.4034
 1022MOL0    Cl37879   2.560   0.318   4.256  0.0059  0.0623 -0.0062
 1022MOL0     C37880   3.407  -0.088   3.620 -0.3059 -1.0167 -0.0936
 1022MOL0     C37881   3.541  -0.053   3.583  0.1561  0.4915 -0.5942
 1022MOL0     O37882   3.783   0.139   3.861  0.7456  0.2682 -0.2805
 1022MOL0     C37883   4.034   0.104   3.607  0.4753 -1.3619 -0.3498
 1022MOL0     C37884   4.173   0.108   3.595  0.5055  1.4490  0.9866
 1022MOL0     N37885   4.404  -0.064   4.114 -0.3166  0.2155 -0.6147
 1022MOL0     N37886   4.441  -0.062   4.236 -0.1994  0.4898  0.0372
 1022MOL0     C37887   5.666   0.119   4.000  0.4112 -0.3326 -0.3986
 1022MOL0     C37888   5.795   0.089   4.024 -0.7092  0.9093 -0.1360
 1022MOL0     C37889   6.202  -0.076   4.182  1.5713 -0.2654  0.0103
 1022MOL0     C37890   6.194  -0.208   4.239 -0.1498 -0.8721  0.0580
 1022MOL0     C37891   6.304  -0.281   4.276 -0.3402  0.0119 -0.4433
 1022MOL0     C37892   6.431  -0.223   4.242 -0.5821  0.2260  0.7157
 1022MOL0     O37893   6.552  -0.284   4.269 -0.2617  0.0587 -0.2369
 1022MOL0     C37894   6.553  -0.425   4.300  0.6327 -0.1076 -0.0886
 1022MOL0     C37895   6.685  -0.466   4.240  0.6648  0.3676  0.2728
 1022MOL0     C37896   6.675  -0.615   4.209  0.3096 -0.5680 -0.4591
 1022MOL0     C37897   6.800  -0.687   4.173  0.5129 -0.0473  0.1968
 1022MOL0     C37898   6.867  -0.620   4.051 -0.2230 -0.0350 -0.1067
 1022MOL0     C37899   6.892  -0.564   3.945  0.1324  0.2208  0.2981
 1022MOL0     C37900   6.442  -0.094   4.184 -0.3588  0.9477  0.5455
 1022MOL0     C37901   6.328  -0.024   4.147 -0.2369 -0.4906  0.2987
 1022MOL0     C37902   6.334   0.107   4.070  0.1533 -0.7654  0.7704
 1022MOL0     H37903   5.757  -0.188   4.221 -2.3185  0.5144  0.6082
 1022MOL0     H37904   5.525  -0.127   4.186 -1.0498  1.5437 -1.0053
 1022MOL0     H37905   5.328  -0.072   4.074 -0.4494  0.3190 -1.4021
 1022MOL0     H37906   5.377   0.007   4.223  2.6671  0.8658 -1.0445
 1022MOL0     H37907   5.176   0.125   4.017  1.6697 -1.0833 -0.9236
 1022MOL0     H37908   5.212   0.197   4.158  3.4377  1.9780 -3.2260
 1022MOL0     H37909   5.145  -0.089   4.239 -1.0666 -2.0697 -2.9697
 1022MOL0     H37910   5.021  -0.021   4.142  0.7120 -2.6753  0.8272
 1022MOL0     H37911   5.156   0.101   4.381  0.1457 -3.1535  0.5184
 1022MOL0     H37912   5.051   0.204   4.288  1.0870 -1.0523 -1.8859
 1022MOL0     H37913   4.941  -0.076   4.355  0.7212 -0.1845 -0.6310
 1022MOL0     H37914   4.958   0.017   4.495  0.6547 -0.2711 -0.7726
 1022MOL0     H37915   4.825   0.201   4.399  0.7168 -0.6167  0.3851
 1022MOL0     H37916   4.798   0.124   4.260  0.2653  2.2912  0.0436
 1022MOL0     H37917   4.603   0.121   4.415  0.2558  0.6727  1.6169
 1022MOL0     H37918   4.687   0.040   4.539 -0.3654 -0.8391  0.3444
 1022MOL0     H37919   4.721  -0.165   4.380  0.2165 -0.2858  1.7891
 1022MOL0     H37920   4.570  -0.127   4.455 -2.5312  0.4591 -1.7270
 1022MOL0     H37921   4.729  -0.058   4.095 -0.4894 -1.3224 -1.7488
 1022MOL0     H37922   4.570  -0.175   3.864 -1.2664 -1.1743  2.3717
 1022MOL0     H37923   4.440  -0.069   3.846 -1.0437 -3.8970  0.3387
 1022MOL0     H37924   4.600   0.145   3.896  1.5784  1.2173 -0.1602
 1022MOL0     H37925   4.727   0.019   3.863  0.0760  1.4176 -1.4692
 1022MOL0     H37926   4.657  -0.018   3.642  1.8559  0.5356 -1.1465
 1022MOL0     H37927   4.638   0.160   3.670 -3.4039  2.2759  2.5414
 1022MOL0     H37928   4.422  -0.033   3.646  0.7512  0.1778  0.4156
 1022MOL0     H37929   4.474   0.098   3.530  0.6869  1.4670  0.1235
 1022MOL0     H37930   4.258   0.225   3.906  0.3587  0.0863  0.0643
 1022MOL0     H37931   4.007   0.171   3.940  0.3254  2.9398  0.5844
 1022MOL0     H37932   3.583   0.219   3.784  0.2826  0.9502 -2.1657
 1022MOL0     H37933   3.340   0.169   3.837  0.2339 -0.3547  0.8362
 1022MOL0     H37934   3.187   0.021   3.908  2.5162  1.5909 -1.2311
 1022MOL0     H37935   3.114   0.137   3.800  1.1024  0.3932 -2.1909
 1022MOL0     H37936   2.930  -0.003   3.734  1.3115  1.7064  0.8577
 1022MOL0     H37937   2.996  -0.146   3.824 -2.5852 -0.8864 -1.9232
 1022MOL0     H37938   2.971  -0.001   4.048  1.7521  1.1987 -2.2768
 1022MOL0     H37939   2.871   0.102   3.952 -3.1908 -2.3026  0.5912
 1022MOL0     H37940   2.817  -0.196   3.970  0.4725  0.3286 -1.9473
 1022MOL0     H37941   2.704  -0.077   3.916 -1.1865  0.0998  1.4006
 1022MOL0     H37942   2.813  -0.092   4.205  0.8622  1.9628  0.3452
 1022MOL0     H37943   2.669  -0.168   4.150 -2.5385  0.4091  0.2218
 1022MOL0     H37944   2.731   0.124   4.159  0.5980 -0.5096  3.4747
 1022MOL0     H37945   2.569   0.073   4.101 -0.6202  0.5430  0.4872
 1022MOL0     H37946   2.688   0.077   4.387 -0.4467  0.1136 -1.0475
 1022MOL0     H37947   2.540  -0.028   4.339 -0.7064 -1.0427 -2.3002
 1022MOL0     H37948   2.407   0.151   4.294 -0.6077 -2.0057  1.2996
 1022MOL0     H37949   2.480   0.199   4.443 -0.2625 -0.8102  0.8053
 1022MOL0     H37950   3.356  -0.173   3.574 -2.7227  0.3169 -0.0703
 1022MOL0     H37951   3.593  -0.123   3.519 -1.9246 -1.6512 -0.0526
 1022MOL0     H37952   3.976   0.075   3.520  1.0041 -0.8281 -0.8848
 1022MOL0     H37953   4.224   0.094   3.501 -2.7265  0.0834 -0.7426
 1022MOL0     H37954   5.638   0.198   3.931  0.7526  1.3363  1.2852
 1022MOL0     H37955   5.872   0.134   3.962 -0.5892 -0.5134 -1.0712
 1022MOL0     H37956   6.103  -0.258   4.272  1.3703 -4.4334 -0.7050
 1022MOL0     H37957   6.293  -0.379   4.321  2.4384 -1.6596 -3.0235
 1022MOL0     H37958   6.476  -0.475   4.240  0.3028 -1.0950  1.1060
 1022MOL0     H37959   6.530  -0.442   4.405 -0.3007  3.2076  0.3339
 1022MOL0     H37960   6.759  -0.451   4.320  0.4522 -1.2407  0.8068
 1022MOL0     H37961   6.708  -0.403   4.155 -0.6078 -0.7910 -0.9795
 1022MOL0     H37962   6.600  -0.635   4.132  1.3786 -0.6533 -1.5041
 1022MOL0     H37963   6.628  -0.653   4.300 -1.1829  1.7335 -0.1625
 1022MOL0     H37964   6.876  -0.681   4.252  1.4391 -1.5697 -0.5532
 1022MOL0     H37965   6.784  -0.794   4.156  3.1178 -0.3544 -0.6752
 1022MOL0     H37966   6.919  -0.520   3.851 -0.6481  1.7987  0.7728
 1022MOL0     H37967   6.543  -0.062   4.161 -0.2837 -0.2707 -0.9906
 1022MOL0     H37968   6.255   0.104   3.995 -0.3427 -0.1508  1.2545
 1022MOL0     H37969   6.316   0.193   4.135 -0.5055  0.0751 -0.4800
 1022MOL0     H37970   6.431   0.126   4.023 -1.2436 -1.2969 -2.6756
 1023MOL0     O37971   7.885   0.205   1.598  0.1542 -0.4193 -0.2446
 1023MOL0     C37972   7.949   0.147   1.686  0.1951  0.7415  0.5116
 1023MOL0     O37973   7.898   0.123   1.808 -0.0662 -0.3374 -0.2424
 1023MOL0     C37974   7.759   0.117   1.834  0.2194 -0.4928  1.0603
 1023MOL0     C37975   7.655   0.111   1.735  1.0417  0.9466 -0.6030
 1023MOL0     C37976   7.520   0.092   1.772 -0.4070  0.5837  0.0264
 1023MOL0     C37977   7.489   0.104   1.908 -0.2373 -0.7235 -0.4753
 1023MOL0     O37978   7.358   0.110   1.956  0.2817  0.6468  0.3157
 1023MOL0     C37979   7.254   0.032   1.896 -0.2642  0.1067 -0.3392
 1023MOL0     C37980   7.118   0.105   1.877 -0.3388 -0.1727 -0.3480
 1023MOL0     C37981   7.064   0.154   2.012 -0.0122  0.2266 -0.4204
 1023MOL0     C37982   6.926   0.235   1.974 -1.1265  0.3309  0.0197
 1023MOL0     C37983   6.862   0.282   2.097  0.3329  0.6844 -0.6586
 1023MOL0     C37984   6.801   0.170   2.191 -1.1158  0.6132 -0.4736
 1023MOL0     C37985   6.694   0.090   2.112 -0.9739  0.2832 -0.2124
 1023MOL0     C37986   6.587   0.022   2.200  0.3084  0.3356  0.6234
 1023MOL0     N37987   6.482   0.127   2.236 -0.0639  0.0499  0.2370
 1023MOL0     C37988   6.360   0.155   2.169  0.0603  0.4891  0.1086
 1023MOL0     C37989   6.279   0.215   2.258 -0.1591  0.6101  0.7546
 1023MOL0     C37990   6.150   0.272   2.210  0.4620 -0.0420  0.0085
 1023MOL0     C37991   6.169   0.428   2.206  0.0053 -0.6218 -0.2606
 1023MOL0     C37992   6.053   0.524   2.161 -0.1005  0.5117 -1.2937
 1023MOL0     C37993   5.922   0.505   2.236 -0.0875  0.0233  0.1365
 1023MOL0     O37994   5.861   0.386   2.193  0.2329 -0.4319 -0.2552
 1023MOL0     C37995   5.734   0.359   2.244 -0.1868  1.3580 -0.1099
 1023MOL0     C37996   5.659   0.445   2.327  0.3349  0.2954  0.1940
 1023MOL0     C37997   5.536   0.409   2.364  0.0174 -0.5613 -0.2077
 1023MOL0     C37998   5.471   0.283   2.326 -0.1778  0.7748 -0.0787
 1023MOL0     C37999   5.328   0.261   2.358  0.3133  0.0178 -0.3646
 1023MOL0     O38000   5.272   0.155   2.292  0.9232  0.7711  0.2792
 1023MOL0     C38001   5.167   0.084   2.342  0.0221  0.2868 -0.0805
 1023MOL0     C38002   5.186   0.012   2.460 -0.6356 -0.1399  0.2435
 1023MOL0     C38003   5.079  -0.066   2.506  0.3582 -0.1802 -0.4013
 1023MOL0     C38004   4.956  -0.059   2.447 -0.3916  0.0759  0.0472
 1023MOL0     O38005   4.852  -0.134   2.496 -0.1512  0.1026 -0.3740
 1023MOL0     C38006   4.866  -0.229   2.602  0.2687  0.2405  0.0988
 1023MOL0     C38007   4.747  -0.315   2.608 -0.8012  0.1887 -0.4028
 1023MOL0     C38008   4.715  -0.387   2.475 -0.1528  0.4807 -0.6110
 1023MOL0     C38009   4.577  -0.458   2.497 -0.5892  0.5270  0.1329
 1023MOL0     C38010   4.542  -0.548   2.382 -0.1028 -0.9485  0.0846
 1023MOL0     C38011   4.399  -0.573   2.363  0.4725 -0.0926  0.2279
 1023MOL0     C38012   4.314  -0.622   2.478  0.3588  0.2785 -0.0627
 1023MOL0     C38013   4.166  -0.652   2.450 -0.5379  0.8814  0.7779
 1023MOL0    Cl38014   4.080  -0.533   2.354 -0.2955  0.0915 -0.6072
 1023MOL0     C38015   4.930   0.015   2.330 -1.6752 -0.9322 -0.2547
 1023MOL0     C38016   5.041   0.089   2.277  0.6095  0.2364  0.6074
 1023MOL0     O38017   5.275   0.334   2.440  0.0223 -0.0262  0.5201
 1023MOL0     C38018   5.548   0.199   2.242 -0.3635  0.4009  0.0073
 1023MOL0     C38019   5.670   0.242   2.195  0.1762 -0.1663  0.0976
 1023MOL0     N38020   6.343   0.222   2.371 -0.7985 -0.4619  0.4105
 1023MOL0     N38021   6.459   0.170   2.365 -0.5803 -0.7566 -0.1420
 1023MOL0     C38022   7.591   0.116   2.005  0.8403  0.5134  1.0783
 1023MOL0     C38023   7.721   0.108   1.963  0.2950 -0.3180 -0.2497
 1023MOL0     C38024   8.086   0.112   1.648 -0.3384 -0.0563 -0.7880
 1023MOL0     C38025   8.129   0.104   1.515 -0.6796  0.2389 -1.0607
 1023MOL0     C38026   8.260   0.080   1.472 -0.5460  0.0444  0.2464
 1023MOL0     C38027   8.360   0.092   1.559 -0.0094  0.7195  0.3302
 1023MOL0     O38028   8.496   0.088   1.528 -0.0250 -0.2030  0.0720
 1023MOL0     C38029   8.558   0.056   1.397  1.1651  0.2710  0.3379
 1023MOL0     C38030   8.543  -0.091   1.392 -1.2567 -0.4510  1.2598
 1023MOL0     C38031   8.612  -0.155   1.511 -0.0969  0.2836  0.1007
 1023MOL0     C38032   8.615  -0.305   1.496 -1.2449 -0.2781  0.3904
 1023MOL0     C38033   8.477  -0.355   1.480 -0.0566  1.0986 -0.2500
 1023MOL0     C38034   8.356  -0.390   1.477  0.5790 -0.7999  0.0522
 1023MOL0     C38035   8.329   0.091   1.692  0.4284  0.3657  0.0686
 1023MOL0     C38036   8.195   0.104   1.740 -0.8187  1.3191  0.0091
 1023MOL0     C38037   8.180   0.109   1.892 -0.4032 -0.0026  0.4191
 1023MOL0     H38038   7.670   0.101   1.628  0.3735 -0.6511 -0.5841
 1023MOL0     H38039   7.442   0.073   1.699 -0.2186 -0.0738 -0.0132
 1023MOL0     H38040   7.278  -0.012   1.798 -1.0733  0.5267 -0.7366
 1023MOL0     H38041   7.240  -0.053   1.964  2.9695  0.3329  0.7971
 1023MOL0     H38042   7.051   0.033   1.828 -2.0789  0.3536  1.1449
 1023MOL0     H38043   7.141   0.194   1.818  0.5284  0.9761  1.6201
 1023MOL0     H38044   7.136   0.221   2.060 -0.4303  0.0007  0.5387
 1023MOL0     H38045   7.053   0.073   2.084 -1.1065 -1.0452 -1.9574
 1023MOL0     H38046   6.951   0.316   1.905  0.6283  1.6310  2.0781
 1023MOL0     H38047   6.861   0.170   1.914  0.6261  1.8869 -3.8794
 1023MOL0     H38048   6.927   0.352   2.151 -2.1334  4.1487 -1.9009
 1023MOL0     H38049   6.776   0.346   2.077 -2.4588 -1.6212  2.6749
 1023MOL0     H38050   6.881   0.112   2.237 -1.1216 -0.3998 -1.6833
 1023MOL0     H38051   6.751   0.226   2.270  1.6592  2.1567  0.3325
 1023MOL0     H38052   6.744   0.015   2.051 -0.5831 -1.8852  2.5874
 1023MOL0     H38053   6.648   0.167   2.049 -0.4876  0.2414 -0.6307
 1023MOL0     H38054   6.530  -0.056   2.148  0.8554 -0.9859  1.9313
 1023MOL0     H38055   6.629  -0.015   2.294  0.9572 -1.4779 -0.3236
 1023MOL0     H38056   6.330   0.131   2.067 -3.7531  4.8543 -0.1396
 1023MOL0     H38057   6.121   0.247   2.107 -0.9852 -0.2515  0.4422
 1023MOL0     H38058   6.074   0.243   2.283  0.0203 -0.3665 -0.5733
 1023MOL0     H38059   6.196   0.454   2.309  1.6750  4.1579 -1.6183
 1023MOL0     H38060   6.249   0.455   2.137 -1.7004 -1.5371 -2.7251
 1023MOL0     H38061   6.037   0.507   2.055 -2.0541  0.2017 -0.9846
 1023MOL0     H38062   6.088   0.625   2.187  1.8843 -0.2605 -0.8113
 1023MOL0     H38063   5.864   0.593   2.207  3.3164  2.2504 -0.4944
 1023MOL0     H38064   5.932   0.491   2.344  0.0320  0.4242  0.1780
 1023MOL0     H38065   5.699   0.541   2.358  0.9219 -0.0299  0.4706
 1023MOL0     H38066   5.476   0.473   2.428  0.5794 -0.5351  0.2973
 1023MOL0     H38067   5.278   0.003   2.517 -0.2626 -0.5483 -0.4203
 1023MOL0     H38068   5.108  -0.115   2.599  2.9967 -3.0109 -2.5225
 1023MOL0     H38069   4.951  -0.286   2.563  0.2133 -2.6353  3.7495
 1023MOL0     H38070   4.905  -0.190   2.696 -0.6578  0.7666  0.2748
 1023MOL0     H38071   4.761  -0.388   2.688 -0.2485  2.5004  1.7252
 1023MOL0     H38072   4.664  -0.255   2.646  2.5797  1.4728  6.4524
 1023MOL0     H38073   4.709  -0.318   2.390  1.9459  2.1990  0.5574
 1023MOL0     H38074   4.779  -0.468   2.438  0.8635  0.0035  2.0113
 1023MOL0     H38075   4.508  -0.373   2.505  1.7870  2.4269  1.5326
 1023MOL0     H38076   4.566  -0.523   2.584 -0.2109 -1.2707 -1.1078
 1023MOL0     H38077   4.585  -0.648   2.394  1.3558 -0.1815  1.8356
 1023MOL0     H38078   4.577  -0.501   2.290 -1.4838 -0.8117 -0.3804
 1023MOL0     H38079   4.353  -0.476   2.344  0.2782  0.1242  1.7582
 1023MOL0     H38080   4.385  -0.642   2.279 -0.6931  1.6095 -1.0500
 1023MOL0     H38081   4.310  -0.548   2.558 -0.0314 -0.7375  0.8760
 1023MOL0     H38082   4.372  -0.709   2.511 -2.7540 -1.1232  2.2473
 1023MOL0     H38083   4.154  -0.748   2.400  2.5142  0.6168  0.3603
 1023MOL0     H38084   4.120  -0.661   2.549  1.4208  1.4736  1.8082
 1023MOL0     H38085   4.827   0.022   2.295 -1.6106 -0.7831 -0.4232
 1023MOL0     H38086   5.029   0.150   2.188  1.1792 -1.1957 -0.4973
 1023MOL0     H38087   5.500   0.118   2.188  0.2588 -0.1936  0.3215
 1023MOL0     H38088   5.727   0.183   2.124 -1.7449 -1.3771 -0.5094
 1023MOL0     H38089   7.581   0.124   2.113  1.0331  1.0037  1.0641
 1023MOL0     H38090   7.795   0.099   2.042 -0.5291 -3.0432  0.3104
 1023MOL0     H38091   8.057   0.116   1.435 -2.1093  1.0821  0.2732
 1023MOL0     H38092   8.290   0.075   1.368  2.2329  2.1320  0.8284
 1023MOL0     H38093   8.659   0.098   1.384  0.7471  0.5010 -3.1800
 1023MOL0     H38094   8.502   0.110   1.320 -1.1643 -0.6929  1.2634
 1023MOL0     H38095   8.603  -0.124   1.306 -0.2299  2.1392  0.9053
 1023MOL0     H38096   8.435  -0.103   1.380 -0.9420 -1.6885 -1.0380
 1023MOL0     H38097   8.558  -0.132   1.603 -1.4327  0.3475 -0.6795
 1023MOL0     H38098   8.715  -0.121   1.523  0.7411 -0.9517 -2.7158
 1023MOL0     H38099   8.678  -0.322   1.408 -2.1815 -1.9378 -0.0061
 1023MOL0     H38100   8.661  -0.357   1.580 -1.1976  0.6605  0.9561
 1023MOL0     H38101   8.253  -0.414   1.493  0.7698 -1.4443  0.3444
 1023MOL0     H38102   8.414   0.077   1.758  0.6206 -0.8078 -0.3894
 1023MOL0     H38103   8.182   0.011   1.940 -1.3920 -0.8733 -1.2063
 1023MOL0     H38104   8.271   0.154   1.934 -0.1605 -1.2866  1.3481
 1023MOL0     H38105   8.094   0.167   1.925 -0.2984  1.1286 -1.1441
 1024MOL0     O38106   1.098   7.362   0.542 -0.2408 -0.2285 -0.0621
 1024MOL0     C38107   1.092   7.240   0.550 -0.0822  0.1018 -0.5144
 1024MOL0     O38108   1.148   7.154   0.455  0.5448  0.5057  0.2348
 1024MOL0     C38109   1.261   7.184   0.384  0.2029 -0.6603  1.1009
 1024MOL0     C38110   1.266   7.138   0.250  0.5027  0.9467 -0.4290
 1024MOL0     C38111   1.378   7.153   0.164  0.5090  0.1306 -0.4167
 1024MOL0     C38112   1.491   7.215   0.225  0.0203 -1.2179  0.2794
 1024MOL0     O38113   1.615   7.243   0.161  0.4313 -1.0641  0.2278
 1024MOL0     C38114   1.627   7.188   0.031  0.1252 -0.2084 -0.4769
 1024MOL0     C38115   1.765   7.219  -0.025  0.1744  1.3885 -0.3315
 1024MOL0     C38116   1.807   7.364  -0.042  0.0921  0.2020 -0.1283
 1024MOL0     C38117   1.797   7.411  -0.183  0.1786 -0.0154 -0.0894
 1024MOL0     C38118   1.864   7.552  -0.178 -1.2597 -0.4924 -0.3031
 1024MOL0     C38119   1.823   7.634  -0.293  0.1545  0.0927  0.0612
 1024MOL0     C38120   1.858   7.580  -0.434 -0.0997  0.6766 -0.4850
 1024MOL0     C38121   1.807   7.678  -0.536 -0.7663 -0.6427 -0.0342
 1024MOL0     N38122   1.792   7.631  -0.670  0.9119  0.4421 -0.6242
 1024MOL0     C38123   1.680   7.572  -0.716  0.2746 -0.4517 -0.1285
 1024MOL0     C38124   1.718   7.505  -0.830  0.2094  0.3788  0.1407
 1024MOL0     C38125   1.641   7.432  -0.930 -0.1066 -0.3937  0.4796
 1024MOL0     C38126   1.633   7.499  -1.062 -0.5722  0.0599  0.5143
 1024MOL0     C38127   1.713   7.438  -1.189  1.5284 -0.3281 -0.6309
 1024MOL0     C38128   1.860   7.441  -1.150  0.1486  0.7734  0.1747
 1024MOL0     O38129   1.932   7.409  -1.264 -0.0766  0.2582 -0.0733
 1024MOL0     C38130   2.070   7.405  -1.255 -0.4023  0.3144  0.2774
 1024MOL0     C38131   2.154   7.371  -1.367  0.3393 -0.3395  0.6145
 1024MOL0     C38132   2.295   7.360  -1.357 -0.1821  0.2317  0.2532
 1024MOL0     C38133   2.357   7.381  -1.240 -0.6952  0.1623 -0.0928
 1024MOL0     C38134   2.507   7.358  -1.229 -0.6963 -0.6320  0.1535
 1024MOL0     O38135   2.577   7.306  -1.341 -0.4490  0.4835 -0.1441
 1024MOL0     C38136   2.705   7.263  -1.319  0.0243  0.9621  0.1396
 1024MOL0     C38137   2.796   7.277  -1.422  0.0606  0.3521 -0.7724
 1024MOL0     C38138   2.927   7.218  -1.419  0.6168 -0.6309  0.7899
 1024MOL0     C38139   2.966   7.156  -1.298  1.1974 -0.1507 -0.4565
 1024MOL0     O38140   3.093   7.111  -1.263  0.2433  0.7874 -0.3507
 1024MOL0     C38141   3.151   7.039  -1.375  0.1984  0.1888 -0.8144
 1024MOL0     C38142   3.290   6.974  -1.350  1.1451  0.5031 -0.0511
 1024MOL0     C38143   3.397   7.075  -1.323  0.4740  0.3912  0.0435
 1024MOL0     C38144   3.527   7.003  -1.278 -0.0055 -0.3261  0.4180
 1024MOL0     C38145   3.631   7.085  -1.211 -0.1059  0.3374  0.7679
 1024MOL0     C38146   3.773   7.028  -1.218  0.3365  0.0808  0.1902
 1024MOL0     C38147   3.776   6.882  -1.151 -0.1392  0.1098 -0.4521
 1024MOL0     C38148   3.918   6.819  -1.156  0.0731  0.0813  0.1931
 1024MOL0    Cl38149   4.049   6.943  -1.124 -0.0054  0.3679 -0.1290
 1024MOL0     C38150   2.881   7.140  -1.193  0.0691 -0.4369  0.2152
 1024MOL0     C38151   2.748   7.187  -1.213  0.0791  0.7837 -1.6315
 1024MOL0     O38152   2.556   7.374  -1.119 -0.3481 -0.1515 -0.0986
 1024MOL0     C38153   2.282   7.420  -1.132 -0.0996  0.2342 -0.3666
 1024MOL0     C38154   2.141   7.431  -1.136 -0.2736  0.2512  0.8089
 1024MOL0     N38155   1.853   7.531  -0.843  0.3841  0.7772 -0.2300
 1024MOL0     N38156   1.900   7.589  -0.741 -1.6679 -0.3356  0.4553
 1024MOL0     C38157   1.492   7.253   0.364 -0.4805  0.2466 -0.1235
 1024MOL0     C38158   1.378   7.228   0.443  0.5398 -0.4379  0.1471
 1024MOL0     C38159   1.044   7.177   0.671  0.4216 -0.7798  1.4581
 1024MOL0     C38160   1.057   7.035   0.687 -0.0781  1.1287  0.1608
 1024MOL0     C38161   1.033   6.977   0.814 -0.2862  0.2044  0.3173
 1024MOL0     C38162   0.984   7.051   0.917  1.0721  0.4185  0.1984
 1024MOL0     O38163   0.938   6.999   1.045 -0.5505 -0.5080 -0.2400
 1024MOL0     C38164   0.996   6.879   1.094 -1.3018  0.0765 -0.4939
 1024MOL0     C38165   0.958   6.847   1.246 -0.6983 -1.1279 -0.0269
 1024MOL0     C38166   1.002   6.703   1.280  0.1548  0.1100  0.0554
 1024MOL0     C38167   0.978   6.679   1.426  0.4933 -0.0831  0.1092
 1024MOL0     C38168   1.103   6.698   1.503 -0.4258  0.4281  0.2874
 1024MOL0     C38169   1.190   6.704   1.589  0.4747  0.0473 -0.3685
 1024MOL0     C38170   0.953   7.187   0.896  0.2524  0.9973 -0.0823
 1024MOL0     C38171   0.981   7.252   0.773 -0.1468 -0.3806  0.0144
 1024MOL0     C38172   0.967   7.403   0.772  0.2300 -0.1983  0.2210
 1024MOL0     H38173   1.172   7.094   0.217  0.7534  1.1333 -1.4312
 1024MOL0     H38174   1.367   7.115   0.063 -1.0202  1.4227 -0.7727
 1024MOL0     H38175   1.601   7.083   0.021 -1.5680 -0.3135  3.4028
 1024MOL0     H38176   1.553   7.236  -0.034  0.8507  1.0522 -0.4137
 1024MOL0     H38177   1.778   7.164  -0.118  0.0993  1.8909 -0.6410
 1024MOL0     H38178   1.842   7.184   0.044 -0.1196  1.4532  0.0352
 1024MOL0     H38179   1.913   7.375  -0.015 -0.0180  1.7866 -0.2992
 1024MOL0     H38180   1.746   7.414   0.033 -2.1240  0.1114 -1.7647
 1024MOL0     H38181   1.842   7.342  -0.255 -2.3497 -0.8240 -0.9623
 1024MOL0     H38182   1.690   7.418  -0.202  0.5409  2.8100 -1.5788
 1024MOL0     H38183   1.828   7.608  -0.092 -0.8319 -2.4974  1.2551
 1024MOL0     H38184   1.974   7.553  -0.183 -1.2663  2.0402 -1.2106
 1024MOL0     H38185   1.716   7.656  -0.286  0.3527  0.8344  0.9215
 1024MOL0     H38186   1.880   7.727  -0.282  0.9350 -0.6445  3.3593
 1024MOL0     H38187   1.814   7.484  -0.463  0.3353  0.9331 -2.0512
 1024MOL0     H38188   1.967   7.573  -0.442 -0.0602  1.1678 -0.4043
 1024MOL0     H38189   1.713   7.720  -0.500 -0.0144  1.1844 -0.0985
 1024MOL0     H38190   1.876   7.763  -0.531  0.1800 -1.3544 -0.4824
 1024MOL0     H38191   1.583   7.584  -0.670 -0.1905 -1.0967 -0.9041
 1024MOL0     H38192   1.684   7.331  -0.936  2.4862  0.6605  0.2117
 1024MOL0     H38193   1.536   7.428  -0.900 -0.7762  1.6804 -1.3834
 1024MOL0     H38194   1.526   7.501  -1.084 -0.2220 -0.6188 -1.4570
 1024MOL0     H38195   1.673   7.601  -1.067 -0.2225 -0.1084 -2.6108
 1024MOL0     H38196   1.697   7.508  -1.271 -0.5371  3.3206  2.5725
 1024MOL0     H38197   1.666   7.342  -1.213  0.0960 -0.0593  0.9456
 1024MOL0     H38198   1.889   7.365  -1.077  2.1066  2.3593  1.1553
 1024MOL0     H38199   1.888   7.537  -1.104  0.3168  1.4162 -1.2243
 1024MOL0     H38200   2.106   7.353  -1.463  0.1178 -0.8475  0.8162
 1024MOL0     H38201   2.351   7.332  -1.447  1.4022  4.8144 -0.4622
 1024MOL0     H38202   2.759   7.327  -1.511 -0.3684  1.1925 -0.1388
 1024MOL0     H38203   2.991   7.215  -1.507 -0.5854 -0.6099 -0.1193
 1024MOL0     H38204   3.085   6.955  -1.400 -0.7357  0.3380  0.9579
 1024MOL0     H38205   3.166   7.107  -1.459 -0.7040  3.1308  1.2482
 1024MOL0     H38206   3.284   6.908  -1.263  3.7086  0.7178  0.3953
 1024MOL0     H38207   3.307   6.920  -1.443 -0.9739 -4.0909  1.9385
 1024MOL0     H38208   3.400   7.141  -1.410 -0.6272 -0.9099 -1.0287
 1024MOL0     H38209   3.363   7.138  -1.241  2.9504  2.1285 -0.1360
 1024MOL0     H38210   3.583   6.964  -1.364 -0.5862  1.6679 -0.9265
 1024MOL0     H38211   3.501   6.915  -1.219 -1.5224 -1.8920 -2.3443
 1024MOL0     H38212   3.595   7.094  -1.108  1.0592  1.8125  1.0646
 1024MOL0     H38213   3.633   7.185  -1.254 -1.6053  0.7158  1.5217
 1024MOL0     H38214   3.803   7.019  -1.323  1.2946 -2.0008  0.5768
 1024MOL0     H38215   3.845   7.096  -1.173  0.7883  1.6780 -2.7165
 1024MOL0     H38216   3.716   6.820  -1.218 -0.1296 -0.2195 -0.1601
 1024MOL0     H38217   3.747   6.882  -1.045 -1.2677 -0.8669 -0.7449
 1024MOL0     H38218   3.932   6.729  -1.096  2.5958  0.3213  0.0588
 1024MOL0     H38219   3.938   6.801  -1.262  1.0977 -0.8152  0.5234
 1024MOL0     H38220   2.914   7.095  -1.100 -0.9368 -1.5302  0.0617
 1024MOL0     H38221   2.675   7.147  -1.143  0.3447 -2.1466 -2.8859
 1024MOL0     H38222   2.340   7.428  -1.041  0.8027 -3.6150 -0.4667
 1024MOL0     H38223   2.094   7.454  -1.041 -0.0653  0.1033  0.9503
 1024MOL0     H38224   1.585   7.294   0.402  0.9505 -2.9473  0.1206
 1024MOL0     H38225   1.366   7.262   0.545  0.7998  0.6408 -0.1591
 1024MOL0     H38226   1.107   6.976   0.611 -0.2474  1.8694 -0.5482
 1024MOL0     H38227   1.056   6.874   0.839 -1.8981  0.0350  1.2891
 1024MOL0     H38228   1.105   6.886   1.080 -1.1834  0.5725  0.5693
 1024MOL0     H38229   0.961   6.795   1.034 -2.9390  0.4422 -0.0969
 1024MOL0     H38230   0.851   6.859   1.266 -0.2482 -1.1872  2.8732
 1024MOL0     H38231   1.025   6.905   1.310 -0.3720 -0.1003 -1.2711
 1024MOL0     H38232   1.104   6.671   1.255 -0.0906 -1.1084  0.5637
 1024MOL0     H38233   0.940   6.628   1.231  0.3570  0.6516 -1.0806
 1024MOL0     H38234   0.897   6.743   1.462  0.4147  0.2762 -0.6713
 1024MOL0     H38235   0.953   6.573   1.432  1.1545 -0.2735 -0.4608
 1024MOL0     H38236   1.265   6.728   1.661 -0.5381  0.6826  0.5154
 1024MOL0     H38237   0.913   7.227   0.989  0.2666  0.1197  0.3065
 1024MOL0     H38238   0.912   7.434   0.861  0.4155  4.1195 -0.9543
 1024MOL0     H38239   1.064   7.453   0.785 -0.0040  1.0448 -2.2645
 1024MOL0     H38240   0.911   7.453   0.692 -0.0696  1.2321  1.2784
  11.37283  11.37283  11.37283
